Generated with MDTraj, t= 0.0
 87
    1UNL     C1    1  -0.117  -0.258   0.091
    1UNL     C2    2  -0.031  -0.193   0.015
    1UNL     C3    3   0.055  -0.084   0.069
    1UNL     C4    4  -0.032   0.039   0.104
    1UNL     O1    5  -0.116   0.008   0.214
    1UNL     C5    6  -0.199   0.117   0.244
    1UNL     O2    7  -0.131   0.243   0.241
    1UNL     C6    8  -0.210   0.356   0.280
    1UNL     C7    9  -0.238   0.360   0.430
    1UNL     O3   10  -0.292   0.485   0.469
    1UNL     C8   11  -0.340   0.368   0.196
    1UNL     O4   12  -0.310   0.413   0.065
    1UNL     C9   13  -0.418   0.234   0.195
    1UNL     O5   14  -0.475   0.205   0.321
    1UNL    C10   15  -0.325   0.118   0.155
    1UNL     O6   16  -0.392  -0.006   0.168
    1UNL    C11   17  -0.493  -0.021   0.070
    1UNL     O7   18  -0.453   0.024  -0.060
    1UNL    C12   19  -0.351  -0.060  -0.115
    1UNL    C13   20  -0.302   0.008  -0.243
    1UNL     O8   21  -0.411   0.038  -0.325
    1UNL    C14   22  -0.406  -0.204  -0.143
    1UNL     O9   23  -0.417  -0.234  -0.281
    1UNL    C15   24  -0.543  -0.228  -0.074
    1UNL    O10   25  -0.572  -0.367  -0.074
    1UNL    C16   26  -0.543  -0.170   0.069
    1UNL    O11   27  -0.672  -0.179   0.127
    1UNL    O12   28  -0.098   0.090  -0.013
    1UNL    C17   29  -0.013   0.108  -0.118
    1UNL    C18   30   0.109   0.050  -0.135
    1UNL    C19   31   0.190   0.086  -0.250
    1UNL    O13   32   0.162   0.184  -0.319
    1UNL     N1   33   0.304   0.009  -0.278
    1UNL    C20   34   0.430   0.077  -0.316
    1UNL    C21   35   0.537   0.008  -0.237
    1UNL    C22   36   0.486  -0.101  -0.174
    1UNL     N2   37   0.565  -0.182  -0.096
    1UNL    C23   38   0.701  -0.153  -0.078
    1UNL    C24   39   0.781  -0.235   0.001
    1UNL    C25   40   0.916  -0.207   0.019
    1UNL    O14   41   0.993  -0.290   0.098
    1UNL    C26   42   0.971  -0.093  -0.044
    1UNL    C27   43   0.892  -0.013  -0.122
    1UNL    C28   44   0.757  -0.040  -0.140
    1UNL    C29   45   0.675   0.046  -0.224
    1UNL    O15   46   0.721   0.145  -0.280
    1UNL    C30   47   0.340  -0.118  -0.207
    1UNL    C31   48   0.250  -0.155  -0.087
    1UNL    C32   49   0.168  -0.038  -0.029
    1UNL     H1   50  -0.181  -0.335   0.052
    1UNL     H2   51  -0.128  -0.233   0.195
    1UNL     H3   52  -0.028  -0.213  -0.091
    1UNL     H4   53   0.102  -0.121   0.162
    1UNL     H5   54   0.031   0.122   0.139
    1UNL     H6   55  -0.231   0.101   0.348
    1UNL     H7   56  -0.147   0.443   0.254
    1UNL     H8   57  -0.309   0.281   0.457
    1UNL     H9   58  -0.145   0.342   0.486
    1UNL    H10   59  -0.314   0.486   0.564
    1UNL    H11   60  -0.403   0.445   0.244
    1UNL    H12   61  -0.391   0.418   0.010
    1UNL    H13   62  -0.500   0.242   0.123
    1UNL    H14   63  -0.497   0.109   0.324
    1UNL    H15   64  -0.292   0.129   0.050
    1UNL    H16   65  -0.577   0.042   0.099
    1UNL    H17   66  -0.271  -0.065  -0.041
    1UNL    H18   67  -0.232  -0.055  -0.298
    1UNL    H19   68  -0.251   0.102  -0.219
    1UNL    H20   69  -0.479   0.084  -0.270
    1UNL    H21   70  -0.336  -0.279  -0.104
    1UNL    H22   71  -0.446  -0.153  -0.328
    1UNL    H23   72  -0.622  -0.178  -0.131
    1UNL    H24   73  -0.560  -0.402  -0.164
    1UNL    H25   74  -0.475  -0.231   0.130
    1UNL    H26   75  -0.670  -0.150   0.221
    1UNL    H27   76  -0.047   0.176  -0.194
    1UNL    H28   77   0.424   0.183  -0.292
    1UNL    H29   78   0.447   0.066  -0.424
    1UNL    H30   79   0.526  -0.265  -0.053
    1UNL    H31   80   0.740  -0.321   0.049
    1UNL    H32   81   1.085  -0.258   0.101
    1UNL    H33   82   1.075  -0.071  -0.030
    1UNL    H34   83   0.934   0.074  -0.170
    1UNL    H35   84   0.333  -0.197  -0.283
    1UNL    H36   85   0.182  -0.235  -0.116
    1UNL    H37   86   0.313  -0.198  -0.008
    1UNL    H38   87   0.237   0.026   0.028
   0.00000   0.00000   0.00000   0.00000   0.00000   0.00000   0.00000   0.00000   0.00000
Generated with MDTraj, t= 1.0
 87
    1UNL     C1    1  -0.148  -0.215   0.064
    1UNL     C2    2  -0.019  -0.197   0.046
    1UNL     C3    3   0.061  -0.079   0.085
    1UNL     C4    4  -0.036   0.043   0.104
    1UNL     O1    5  -0.113   0.013   0.216
    1UNL     C5    6  -0.195   0.124   0.252
    1UNL     O2    7  -0.128   0.245   0.255
    1UNL     C6    8  -0.211   0.361   0.289
    1UNL     C7    9  -0.243   0.361   0.436
    1UNL     O3   10  -0.334   0.474   0.470
    1UNL     C8   11  -0.327   0.372   0.192
    1UNL     O4   12  -0.287   0.373   0.051
    1UNL     C9   13  -0.414   0.235   0.206
    1UNL     O5   14  -0.462   0.222   0.338
    1UNL    C10   15  -0.319   0.127   0.161
    1UNL     O6   16  -0.374  -0.006   0.149
    1UNL    C11   17  -0.486  -0.015   0.060
    1UNL     O7   18  -0.467   0.023  -0.073
    1UNL    C12   19  -0.372  -0.065  -0.139
    1UNL    C13   20  -0.321   0.013  -0.262
    1UNL     O8   21  -0.435   0.037  -0.342
    1UNL    C14   22  -0.436  -0.203  -0.168
    1UNL     O9   23  -0.495  -0.213  -0.304
    1UNL    C15   24  -0.557  -0.230  -0.075
    1UNL    O10   25  -0.601  -0.362  -0.054
    1UNL    C16   26  -0.535  -0.168   0.066
    1UNL    O11   27  -0.653  -0.195   0.143
    1UNL    O12   28  -0.105   0.068  -0.018
    1UNL    C17   29  -0.018   0.085  -0.121
    1UNL    C18   30   0.104   0.035  -0.134
    1UNL    C19   31   0.188   0.064  -0.248
    1UNL    O13   32   0.155   0.144  -0.334
    1UNL     N1   33   0.319   0.003  -0.261
    1UNL    C20   34   0.439   0.081  -0.298
    1UNL    C21   35   0.546   0.006  -0.231
    1UNL    C22   36   0.497  -0.102  -0.160
    1UNL     N2   37   0.585  -0.182  -0.096
    1UNL    C23   38   0.717  -0.153  -0.085
    1UNL    C24   39   0.798  -0.230  -0.004
    1UNL    C25   40   0.937  -0.211   0.001
    1UNL    O14   41   1.016  -0.298   0.077
    1UNL    C26   42   0.986  -0.091  -0.056
    1UNL    C27   43   0.909  -0.011  -0.139
    1UNL    C28   44   0.772  -0.037  -0.141
    1UNL    C29   45   0.682   0.054  -0.211
    1UNL    O15   46   0.721   0.159  -0.261
    1UNL    C30   47   0.353  -0.112  -0.183
    1UNL    C31   48   0.274  -0.125  -0.051
    1UNL    C32   49   0.172  -0.022  -0.012
    1UNL     H1   50  -0.205  -0.288   0.021
    1UNL     H2   51  -0.205  -0.123   0.100
    1UNL     H3   52   0.039  -0.272  -0.010
    1UNL     H4   53   0.101  -0.103   0.185
    1UNL     H5   54   0.026   0.129   0.120
    1UNL     H6   55  -0.228   0.106   0.353
    1UNL     H7   56  -0.141   0.437   0.254
    1UNL     H8   57  -0.287   0.262   0.465
    1UNL     H9   58  -0.152   0.369   0.502
    1UNL    H10   59  -0.430   0.447   0.490
    1UNL    H11   60  -0.393   0.455   0.202
    1UNL    H12   61  -0.266   0.468   0.032
    1UNL    H13   62  -0.509   0.238   0.145
    1UNL    H14   63  -0.484   0.133   0.373
    1UNL    H15   64  -0.292   0.157   0.058
    1UNL    H16   65  -0.564   0.049   0.098
    1UNL    H17   66  -0.298  -0.079  -0.062
    1UNL    H18   67  -0.248  -0.051  -0.319
    1UNL    H19   68  -0.272   0.104  -0.223
    1UNL    H20   69  -0.494   0.086  -0.287
    1UNL    H21   70  -0.367  -0.288  -0.154
    1UNL    H22   71  -0.510  -0.126  -0.346
    1UNL    H23   72  -0.636  -0.170  -0.116
    1UNL    H24   73  -0.613  -0.418  -0.140
    1UNL    H25   74  -0.462  -0.221   0.121
    1UNL    H26   75  -0.730  -0.177   0.090
    1UNL    H27   76  -0.053   0.143  -0.216
    1UNL    H28   77   0.419   0.182  -0.268
    1UNL    H29   78   0.462   0.082  -0.403
    1UNL    H30   79   0.556  -0.261  -0.054
    1UNL    H31   80   0.757  -0.319   0.041
    1UNL    H32   81   1.116  -0.297   0.061
    1UNL    H33   82   1.086  -0.063  -0.030
    1UNL    H34   83   0.946   0.070  -0.189
    1UNL    H35   84   0.326  -0.202  -0.239
    1UNL    H36   85   0.228  -0.226  -0.035
    1UNL    H37   86   0.335  -0.146   0.040
    1UNL    H38   87   0.231   0.054   0.045
   0.00000   0.00000   0.00000   0.00000   0.00000   0.00000   0.00000   0.00000   0.00000
Generated with MDTraj, t= 2.0
 87
    1UNL     C1    1  -0.130  -0.229   0.068
    1UNL     C2    2  -0.004  -0.202   0.041
    1UNL     C3    3   0.075  -0.083   0.099
    1UNL     C4    4  -0.027   0.033   0.121
    1UNL     O1    5  -0.106   0.011   0.238
    1UNL     C5    6  -0.198   0.123   0.248
    1UNL     O2    7  -0.132   0.247   0.240
    1UNL     C6    8  -0.222   0.359   0.281
    1UNL     C7    9  -0.263   0.364   0.426
    1UNL     O3   10  -0.344   0.480   0.458
    1UNL     C8   11  -0.343   0.362   0.189
    1UNL     O4   12  -0.294   0.419   0.070
    1UNL     C9   13  -0.413   0.227   0.168
    1UNL     O5   14  -0.502   0.191   0.273
    1UNL    C10   15  -0.309   0.113   0.136
    1UNL     O6   16  -0.382  -0.013   0.151
    1UNL    C11   17  -0.491  -0.017   0.065
    1UNL     O7   18  -0.463   0.034  -0.068
    1UNL    C12   19  -0.388  -0.058  -0.152
    1UNL    C13   20  -0.368   0.015  -0.287
    1UNL     O8   21  -0.483   0.080  -0.328
    1UNL    C14   22  -0.464  -0.190  -0.165
    1UNL     O9   23  -0.521  -0.207  -0.302
    1UNL    C15   24  -0.586  -0.211  -0.066
    1UNL    O10   25  -0.632  -0.341  -0.064
    1UNL    C16   26  -0.538  -0.170   0.073
    1UNL    O11   27  -0.637  -0.195   0.167
    1UNL    O12   28  -0.097   0.066  -0.005
    1UNL    C17   29  -0.016   0.065  -0.117
    1UNL    C18   30   0.113   0.030  -0.123
    1UNL    C19   31   0.186   0.055  -0.244
    1UNL    O13   32   0.138   0.126  -0.333
    1UNL     N1   33   0.319  -0.001  -0.244
    1UNL    C20   34   0.437   0.079  -0.275
    1UNL    C21   35   0.556   0.012  -0.208
    1UNL    C22   36   0.517  -0.100  -0.145
    1UNL     N2   37   0.598  -0.188  -0.085
    1UNL    C23   38   0.737  -0.160  -0.084
    1UNL    C24   39   0.833  -0.242  -0.020
    1UNL    C25   40   0.968  -0.208  -0.011
    1UNL    O14   41   1.055  -0.294   0.046
    1UNL    C26   42   1.009  -0.087  -0.069
    1UNL    C27   43   0.918  -0.003  -0.129
    1UNL    C28   44   0.784  -0.037  -0.139
    1UNL    C29   45   0.697   0.056  -0.207
    1UNL    O15   46   0.736   0.153  -0.276
    1UNL    C30   47   0.367  -0.116  -0.167
    1UNL    C31   48   0.298  -0.133  -0.031
    1UNL    C32   49   0.184  -0.035  -0.001
    1UNL     H1   50  -0.168  -0.324   0.036
    1UNL     H2   51  -0.196  -0.172   0.134
    1UNL     H3   52   0.045  -0.262  -0.027
    1UNL     H4   53   0.104  -0.108   0.203
    1UNL     H5   54   0.037   0.117   0.137
    1UNL     H6   55  -0.227   0.129   0.350
    1UNL     H7   56  -0.161   0.449   0.260
    1UNL     H8   57  -0.323   0.279   0.469
    1UNL     H9   58  -0.174   0.366   0.499
    1UNL    H10   59  -0.379   0.485   0.554
    1UNL    H11   60  -0.412   0.434   0.224
    1UNL    H12   61  -0.297   0.352  -0.003
    1UNL    H13   62  -0.475   0.225   0.071
    1UNL    H14   63  -0.469   0.105   0.313
    1UNL    H15   64  -0.274   0.127   0.031
    1UNL    H16   65  -0.574   0.044   0.093
    1UNL    H17   66  -0.292  -0.084  -0.108
    1UNL    H18   67  -0.344  -0.070  -0.359
    1UNL    H19   68  -0.289   0.094  -0.291
    1UNL    H20   69  -0.533   0.133  -0.256
    1UNL    H21   70  -0.386  -0.268  -0.140
    1UNL    H22   71  -0.563  -0.117  -0.319
    1UNL    H23   72  -0.657  -0.142  -0.103
    1UNL    H24   73  -0.626  -0.385  -0.158
    1UNL    H25   74  -0.463  -0.237   0.092
    1UNL    H26   75  -0.721  -0.160   0.133
    1UNL    H27   76  -0.064   0.097  -0.201
    1UNL    H28   77   0.413   0.172  -0.231
    1UNL    H29   78   0.461   0.104  -0.376
    1UNL    H30   79   0.552  -0.268  -0.052
    1UNL    H31   80   0.808  -0.337   0.023
    1UNL    H32   81   1.146  -0.249   0.041
    1UNL    H33   82   1.111  -0.049  -0.069
    1UNL    H34   83   0.950   0.093  -0.189
    1UNL    H35   84   0.349  -0.214  -0.216
    1UNL    H36   85   0.275  -0.239  -0.001
    1UNL    H37   86   0.369  -0.130   0.055
    1UNL    H38   87   0.242   0.051   0.046
   0.00000   0.00000   0.00000   0.00000   0.00000   0.00000   0.00000   0.00000   0.00000
Generated with MDTraj, t= 3.0
 87
    1UNL     C1    1  -0.116  -0.237   0.091
    1UNL     C2    2   0.007  -0.210   0.063
    1UNL     C3    3   0.080  -0.084   0.110
    1UNL     C4    4  -0.020   0.035   0.124
    1UNL     O1    5  -0.112   0.015   0.227
    1UNL     C5    6  -0.205   0.122   0.241
    1UNL     O2    7  -0.151   0.248   0.231
    1UNL     C6    8  -0.239   0.363   0.274
    1UNL     C7    9  -0.285   0.359   0.420
    1UNL     O3   10  -0.325   0.489   0.458
    1UNL     C8   11  -0.356   0.366   0.177
    1UNL     O4   12  -0.323   0.439   0.059
    1UNL     C9   13  -0.414   0.226   0.155
    1UNL     O5   14  -0.511   0.195   0.247
    1UNL    C10   15  -0.320   0.100   0.141
    1UNL     O6   16  -0.388  -0.028   0.161
    1UNL    C11   17  -0.499  -0.032   0.079
    1UNL     O7   18  -0.481   0.030  -0.052
    1UNL    C12   19  -0.410  -0.045  -0.149
    1UNL    C13   20  -0.399   0.038  -0.279
    1UNL     O8   21  -0.530   0.078  -0.313
    1UNL    C14   22  -0.487  -0.177  -0.174
    1UNL     O9   23  -0.547  -0.187  -0.306
    1UNL    C15   24  -0.611  -0.202  -0.078
    1UNL    O10   25  -0.666  -0.327  -0.103
    1UNL    C16   26  -0.560  -0.178   0.063
    1UNL    O11   27  -0.640  -0.198   0.179
    1UNL    O12   28  -0.087   0.060   0.001
    1UNL    C17   29  -0.004   0.057  -0.108
    1UNL    C18   30   0.126   0.015  -0.109
    1UNL    C19   31   0.205   0.042  -0.227
    1UNL    O13   32   0.167   0.120  -0.314
    1UNL     N1   33   0.338  -0.010  -0.235
    1UNL    C20   34   0.455   0.062  -0.287
    1UNL    C21   35   0.569   0.006  -0.207
    1UNL    C22   36   0.529  -0.108  -0.146
    1UNL     N2   37   0.627  -0.178  -0.078
    1UNL    C23   38   0.763  -0.146  -0.076
    1UNL    C24   39   0.858  -0.237  -0.026
    1UNL    C25   40   0.993  -0.205  -0.031
    1UNL    O14   41   1.082  -0.290   0.029
    1UNL    C26   42   1.032  -0.084  -0.095
    1UNL    C27   43   0.940   0.002  -0.148
    1UNL    C28   44   0.807  -0.033  -0.151
    1UNL    C29   45   0.708   0.049  -0.212
    1UNL    O15   46   0.733   0.155  -0.265
    1UNL    C30   47   0.381  -0.125  -0.153
    1UNL    C31   48   0.302  -0.139  -0.010
    1UNL    C32   49   0.191  -0.038   0.012
    1UNL     H1   50  -0.164  -0.338   0.078
    1UNL     H2   51  -0.175  -0.172   0.140
    1UNL     H3   52   0.064  -0.299   0.020
    1UNL     H4   53   0.104  -0.104   0.216
    1UNL     H5   54   0.037   0.126   0.139
    1UNL     H6   55  -0.240   0.127   0.340
    1UNL     H7   56  -0.170   0.450   0.271
    1UNL     H8   57  -0.368   0.287   0.444
    1UNL     H9   58  -0.208   0.326   0.500
    1UNL    H10   59  -0.312   0.504   0.553
    1UNL    H11   60  -0.434   0.427   0.222
    1UNL    H12   61  -0.231   0.471   0.051
    1UNL    H13   62  -0.476   0.232   0.055
    1UNL    H14   63  -0.490   0.131   0.317
    1UNL    H15   64  -0.289   0.098   0.031
    1UNL    H16   65  -0.568   0.033   0.124
    1UNL    H17   66  -0.310  -0.066  -0.110
    1UNL    H18   67  -0.378  -0.014  -0.378
    1UNL    H19   68  -0.326   0.114  -0.254
    1UNL    H20   69  -0.581   0.124  -0.247
    1UNL    H21   70  -0.425  -0.269  -0.155
    1UNL    H22   71  -0.595  -0.108  -0.332
    1UNL    H23   72  -0.679  -0.123  -0.097
    1UNL    H24   73  -0.684  -0.345  -0.202
    1UNL    H25   74  -0.484  -0.242   0.077
    1UNL    H26   75  -0.701  -0.279   0.182
    1UNL    H27   76  -0.051   0.104  -0.194
    1UNL    H28   77   0.455   0.167  -0.284
    1UNL    H29   78   0.458   0.030  -0.386
    1UNL    H30   79   0.593  -0.267  -0.027
    1UNL    H31   80   0.834  -0.332   0.019
    1UNL    H32   81   1.170  -0.249   0.049
    1UNL    H33   82   1.136  -0.067  -0.108
    1UNL    H34   83   0.971   0.097  -0.167
    1UNL    H35   84   0.367  -0.220  -0.211
    1UNL    H36   85   0.264  -0.244   0.002
    1UNL    H37   86   0.375  -0.141   0.070
    1UNL    H38   87   0.238   0.062   0.042
   0.00000   0.00000   0.00000   0.00000   0.00000   0.00000   0.00000   0.00000   0.00000
Generated with MDTraj, t= 4.0
 87
    1UNL     C1    1  -0.104  -0.226   0.090
    1UNL     C2    2   0.023  -0.202   0.102
    1UNL     C3    3   0.086  -0.067   0.119
    1UNL     C4    4  -0.031   0.036   0.118
    1UNL     O1    5  -0.123   0.008   0.221
    1UNL     C5    6  -0.209   0.114   0.241
    1UNL     O2    7  -0.148   0.235   0.224
    1UNL     C6    8  -0.237   0.354   0.258
    1UNL     C7    9  -0.271   0.358   0.407
    1UNL     O3   10  -0.329   0.479   0.459
    1UNL     C8   11  -0.355   0.351   0.164
    1UNL     O4   12  -0.322   0.383   0.028
    1UNL     C9   13  -0.434   0.220   0.177
    1UNL     O5   14  -0.492   0.217   0.312
    1UNL    C10   15  -0.331   0.103   0.141
    1UNL     O6   16  -0.394  -0.025   0.138
    1UNL    C11   17  -0.515  -0.025   0.069
    1UNL     O7   18  -0.520   0.038  -0.058
    1UNL    C12   19  -0.440  -0.041  -0.150
    1UNL    C13   20  -0.423   0.068  -0.266
    1UNL     O8   21  -0.551   0.106  -0.311
    1UNL    C14   22  -0.514  -0.173  -0.185
    1UNL     O9   23  -0.555  -0.174  -0.322
    1UNL    C15   24  -0.624  -0.208  -0.080
    1UNL    O10   25  -0.680  -0.341  -0.097
    1UNL    C16   26  -0.561  -0.177   0.059
    1UNL    O11   27  -0.663  -0.205   0.162
    1UNL    O12   28  -0.092   0.050  -0.015
    1UNL    C17   29   0.004   0.048  -0.116
    1UNL    C18   30   0.138   0.021  -0.105
    1UNL    C19   31   0.222   0.045  -0.216
    1UNL    O13   32   0.194   0.123  -0.305
    1UNL     N1   33   0.349  -0.016  -0.225
    1UNL    C20   34   0.464   0.054  -0.276
    1UNL    C21   35   0.576  -0.002  -0.200
    1UNL    C22   36   0.540  -0.106  -0.118
    1UNL     N2   37   0.637  -0.179  -0.061
    1UNL    C23   38   0.772  -0.144  -0.073
    1UNL    C24   39   0.872  -0.217  -0.016
    1UNL    C25   40   1.008  -0.190  -0.030
    1UNL    O14   41   1.104  -0.284   0.015
    1UNL    C26   42   1.046  -0.089  -0.120
    1UNL    C27   43   0.948  -0.010  -0.175
    1UNL    C28   44   0.810  -0.037  -0.151
    1UNL    C29   45   0.712   0.040  -0.221
    1UNL    O15   46   0.739   0.141  -0.284
    1UNL    C30   47   0.394  -0.131  -0.129
    1UNL    C31   48   0.311  -0.125   0.008
    1UNL    C32   49   0.201  -0.024   0.022
    1UNL     H1   50  -0.152  -0.313   0.038
    1UNL     H2   51  -0.172  -0.146   0.113
    1UNL     H3   52   0.086  -0.285   0.103
    1UNL     H4   53   0.120  -0.076   0.224
    1UNL     H5   54   0.019   0.136   0.123
    1UNL     H6   55  -0.239   0.120   0.342
    1UNL     H7   56  -0.158   0.432   0.244
    1UNL     H8   57  -0.337   0.273   0.435
    1UNL     H9   58  -0.179   0.327   0.464
    1UNL    H10   59  -0.368   0.466   0.544
    1UNL    H11   60  -0.424   0.429   0.201
    1UNL    H12   61  -0.269   0.465   0.023
    1UNL    H13   62  -0.529   0.226   0.108
    1UNL    H14   63  -0.519   0.128   0.341
    1UNL    H15   64  -0.304   0.128   0.033
    1UNL    H16   65  -0.587   0.026   0.124
    1UNL    H17   66  -0.338  -0.069  -0.113
    1UNL    H18   67  -0.360   0.018  -0.343
    1UNL    H19   68  -0.375   0.160  -0.242
    1UNL    H20   69  -0.609   0.141  -0.234
    1UNL    H21   70  -0.439  -0.261  -0.175
    1UNL    H22   71  -0.577  -0.085  -0.365
    1UNL    H23   72  -0.698  -0.136  -0.102
    1UNL    H24   73  -0.730  -0.352  -0.175
    1UNL    H25   74  -0.489  -0.246   0.065
    1UNL    H26   75  -0.693  -0.296   0.178
    1UNL    H27   76  -0.046   0.074  -0.218
    1UNL    H28   77   0.465   0.154  -0.243
    1UNL    H29   78   0.458   0.042  -0.380
    1UNL    H30   79   0.604  -0.264   0.002
    1UNL    H31   80   0.836  -0.300   0.044
    1UNL    H32   81   1.191  -0.246   0.034
    1UNL    H33   82   1.150  -0.077  -0.153
    1UNL    H34   83   0.974   0.080  -0.231
    1UNL    H35   84   0.368  -0.215  -0.199
    1UNL    H36   85   0.266  -0.226   0.017
    1UNL    H37   86   0.387  -0.122   0.085
    1UNL    H38   87   0.243   0.074   0.062
   0.00000   0.00000   0.00000   0.00000   0.00000   0.00000   0.00000   0.00000   0.00000
Generated with MDTraj, t= 5.0
 87
    1UNL     C1    1  -0.082  -0.261   0.066
    1UNL     C2    2   0.040  -0.218   0.075
    1UNL     C3    3   0.084  -0.078   0.122
    1UNL     C4    4  -0.032   0.020   0.121
    1UNL     O1    5  -0.125  -0.005   0.224
    1UNL     C5    6  -0.208   0.103   0.238
    1UNL     O2    7  -0.150   0.230   0.229
    1UNL     C6    8  -0.231   0.359   0.254
    1UNL     C7    9  -0.250   0.380   0.400
    1UNL     O3   10  -0.332   0.500   0.420
    1UNL     C8   11  -0.365   0.347   0.173
    1UNL     O4   12  -0.334   0.370   0.031
    1UNL     C9   13  -0.429   0.207   0.191
    1UNL     O5   14  -0.485   0.172   0.316
    1UNL    C10   15  -0.336   0.095   0.145
    1UNL     O6   16  -0.409  -0.030   0.153
    1UNL    C11   17  -0.527  -0.024   0.077
    1UNL     O7   18  -0.517   0.049  -0.045
    1UNL    C12   19  -0.441  -0.019  -0.149
    1UNL    C13   20  -0.442   0.074  -0.271
    1UNL     O8   21  -0.566   0.121  -0.302
    1UNL    C14   22  -0.513  -0.157  -0.192
    1UNL     O9   23  -0.584  -0.145  -0.311
    1UNL    C15   24  -0.615  -0.202  -0.087
    1UNL    O10   25  -0.652  -0.340  -0.091
    1UNL    C16   26  -0.578  -0.170   0.055
    1UNL    O11   27  -0.687  -0.211   0.135
    1UNL    O12   28  -0.096   0.029  -0.015
    1UNL    C17   29  -0.005   0.038  -0.116
    1UNL    C18   30   0.130   0.025  -0.106
    1UNL    C19   31   0.216   0.049  -0.215
    1UNL    O13   32   0.176   0.114  -0.310
    1UNL     N1   33   0.345  -0.007  -0.214
    1UNL    C20   34   0.459   0.059  -0.276
    1UNL    C21   35   0.585   0.008  -0.208
    1UNL    C22   36   0.552  -0.080  -0.110
    1UNL     N2   37   0.646  -0.153  -0.035
    1UNL    C23   38   0.779  -0.142  -0.062
    1UNL    C24   39   0.876  -0.217  -0.001
    1UNL    C25   40   1.008  -0.201  -0.033
    1UNL    O14   41   1.104  -0.282   0.028
    1UNL    C26   42   1.049  -0.098  -0.120
    1UNL    C27   43   0.953  -0.031  -0.191
    1UNL    C28   44   0.817  -0.045  -0.160
    1UNL    C29   45   0.723   0.036  -0.237
    1UNL    O15   46   0.764   0.112  -0.324
    1UNL    C30   47   0.397  -0.098  -0.104
    1UNL    C31   48   0.327  -0.084   0.033
    1UNL    C32   49   0.195  -0.013   0.036
    1UNL     H1   50  -0.108  -0.354   0.041
    1UNL     H2   51  -0.165  -0.188   0.071
    1UNL     H3   52   0.124  -0.289   0.067
    1UNL     H4   53   0.108  -0.093   0.230
    1UNL     H5   54   0.019   0.123   0.129
    1UNL     H6   55  -0.222   0.102   0.346
    1UNL     H7   56  -0.167   0.440   0.212
    1UNL     H8   57  -0.292   0.287   0.439
    1UNL     H9   58  -0.158   0.390   0.457
    1UNL    H10   59  -0.376   0.506   0.507
    1UNL    H11   60  -0.437   0.432   0.195
    1UNL    H12   61  -0.242   0.342   0.009
    1UNL    H13   62  -0.516   0.206   0.112
    1UNL    H14   63  -0.510   0.074   0.313
    1UNL    H15   64  -0.309   0.105   0.034
    1UNL    H16   65  -0.594   0.034   0.134
    1UNL    H17   66  -0.334  -0.029  -0.113
    1UNL    H18   67  -0.407   0.025  -0.365
    1UNL    H19   68  -0.372   0.151  -0.252
    1UNL    H20   69  -0.608   0.150  -0.222
    1UNL    H21   70  -0.421  -0.229  -0.185
    1UNL    H22   71  -0.609  -0.054  -0.320
    1UNL    H23   72  -0.699  -0.133  -0.102
    1UNL    H24   73  -0.705  -0.367  -0.163
    1UNL    H25   74  -0.500  -0.235   0.071
    1UNL    H26   75  -0.716  -0.303   0.127
    1UNL    H27   76  -0.042   0.055  -0.211
    1UNL    H28   77   0.451   0.163  -0.265
    1UNL    H29   78   0.465   0.033  -0.379
    1UNL    H30   79   0.617  -0.236   0.021
    1UNL    H31   80   0.855  -0.290   0.074
    1UNL    H32   81   1.183  -0.230   0.041
    1UNL    H33   82   1.149  -0.061  -0.109
    1UNL    H34   83   0.988   0.042  -0.271
    1UNL    H35   84   0.403  -0.196  -0.158
    1UNL    H36   85   0.311  -0.190   0.064
    1UNL    H37   86   0.402  -0.039   0.099
    1UNL    H38   87   0.223   0.087   0.083
   0.00000   0.00000   0.00000   0.00000   0.00000   0.00000   0.00000   0.00000   0.00000
Generated with MDTraj, t= 6.0
 87
    1UNL     C1    1  -0.050  -0.275   0.061
    1UNL     C2    2   0.064  -0.212   0.046
    1UNL     C3    3   0.084  -0.076   0.114
    1UNL     C4    4  -0.039   0.018   0.117
    1UNL     O1    5  -0.132  -0.017   0.222
    1UNL     C5    6  -0.216   0.093   0.245
    1UNL     O2    7  -0.148   0.210   0.236
    1UNL     C6    8  -0.229   0.338   0.250
    1UNL     C7    9  -0.265   0.367   0.395
    1UNL     O3   10  -0.301   0.507   0.406
    1UNL     C8   11  -0.355   0.340   0.163
    1UNL     O4   12  -0.332   0.385   0.029
    1UNL     C9   13  -0.435   0.212   0.169
    1UNL     O5   14  -0.497   0.189   0.299
    1UNL    C10   15  -0.336   0.093   0.144
    1UNL     O6   16  -0.401  -0.043   0.148
    1UNL    C11   17  -0.528  -0.042   0.086
    1UNL     O7   18  -0.529   0.041  -0.036
    1UNL    C12   19  -0.443  -0.013  -0.134
    1UNL    C13   20  -0.437   0.087  -0.248
    1UNL     O8   21  -0.568   0.137  -0.265
    1UNL    C14   22  -0.509  -0.152  -0.181
    1UNL     O9   23  -0.570  -0.139  -0.306
    1UNL    C15   24  -0.616  -0.208  -0.083
    1UNL    O10   25  -0.653  -0.333  -0.132
    1UNL    C16   26  -0.574  -0.189   0.061
    1UNL    O11   27  -0.683  -0.221   0.141
    1UNL    O12   28  -0.096   0.022  -0.015
    1UNL    C17   29  -0.004   0.036  -0.111
    1UNL    C18   30   0.128   0.034  -0.097
    1UNL    C19   31   0.212   0.056  -0.213
    1UNL    O13   32   0.169   0.099  -0.320
    1UNL     N1   33   0.347   0.017  -0.198
    1UNL    C20   34   0.457   0.062  -0.279
    1UNL    C21   35   0.580  -0.001  -0.222
    1UNL    C22   36   0.545  -0.077  -0.112
    1UNL     N2   37   0.638  -0.141  -0.034
    1UNL    C23   38   0.775  -0.134  -0.069
    1UNL    C24   39   0.868  -0.194   0.018
    1UNL    C25   40   1.003  -0.197  -0.016
    1UNL    O14   41   1.090  -0.274   0.056
    1UNL    C26   42   1.045  -0.121  -0.124
    1UNL    C27   43   0.957  -0.057  -0.205
    1UNL    C28   44   0.823  -0.052  -0.174
    1UNL    C29   45   0.723   0.020  -0.252
    1UNL    O15   46   0.762   0.091  -0.343
    1UNL    C30   47   0.390  -0.081  -0.091
    1UNL    C31   48   0.336  -0.039   0.045
    1UNL    C32   49   0.193   0.011   0.042
    1UNL     H1   50  -0.054  -0.380   0.045
    1UNL     H2   51  -0.146  -0.220   0.095
    1UNL     H3   52   0.147  -0.252  -0.007
    1UNL     H4   53   0.098  -0.091   0.225
    1UNL     H5   54   0.011   0.120   0.139
    1UNL     H6   55  -0.243   0.091   0.352
    1UNL     H7   56  -0.163   0.420   0.219
    1UNL     H8   57  -0.344   0.308   0.436
    1UNL     H9   58  -0.177   0.345   0.451
    1UNL    H10   59  -0.346   0.528   0.494
    1UNL    H11   60  -0.429   0.417   0.211
    1UNL    H12   61  -0.242   0.424   0.027
    1UNL    H13   62  -0.523   0.213   0.096
    1UNL    H14   63  -0.539   0.100   0.304
    1UNL    H15   64  -0.300   0.093   0.037
    1UNL    H16   65  -0.594   0.001   0.154
    1UNL    H17   66  -0.346  -0.038  -0.079
    1UNL    H18   67  -0.398   0.032  -0.336
    1UNL    H19   68  -0.357   0.157  -0.225
    1UNL    H20   69  -0.588   0.186  -0.179
    1UNL    H21   70  -0.429  -0.237  -0.197
    1UNL    H22   71  -0.623  -0.054  -0.327
    1UNL    H23   72  -0.701  -0.137  -0.096
    1UNL    H24   73  -0.708  -0.330  -0.215
    1UNL    H25   74  -0.498  -0.260   0.075
    1UNL    H26   75  -0.721  -0.312   0.122
    1UNL    H27   76  -0.033   0.058  -0.211
    1UNL    H28   77   0.461   0.169  -0.279
    1UNL    H29   78   0.458   0.028  -0.381
    1UNL    H30   79   0.606  -0.192   0.042
    1UNL    H31   80   0.833  -0.263   0.095
    1UNL    H32   81   1.179  -0.235   0.055
    1UNL    H33   82   1.150  -0.116  -0.151
    1UNL    H34   83   0.985  -0.012  -0.290
    1UNL    H35   84   0.364  -0.180  -0.133
    1UNL    H36   85   0.339  -0.130   0.108
    1UNL    H37   86   0.401   0.043   0.081
    1UNL    H38   87   0.210   0.113   0.089
   0.00000   0.00000   0.00000   0.00000   0.00000   0.00000   0.00000   0.00000   0.00000
Generated with MDTraj, t= 7.0
 87
    1UNL     C1    1  -0.039  -0.255   0.091
    1UNL     C2    2   0.077  -0.195   0.078
    1UNL     C3    3   0.095  -0.049   0.112
    1UNL     C4    4  -0.043   0.027   0.104
    1UNL     O1    5  -0.124  -0.013   0.221
    1UNL     C5    6  -0.215   0.091   0.246
    1UNL     O2    7  -0.150   0.212   0.238
    1UNL     C6    8  -0.232   0.335   0.251
    1UNL     C7    9  -0.269   0.347   0.398
    1UNL     O3   10  -0.285   0.480   0.434
    1UNL     C8   11  -0.353   0.332   0.159
    1UNL     O4   12  -0.314   0.333   0.015
    1UNL     C9   13  -0.437   0.207   0.181
    1UNL     O5   14  -0.492   0.209   0.315
    1UNL    C10   15  -0.342   0.084   0.157
    1UNL     O6   16  -0.413  -0.045   0.163
    1UNL    C11   17  -0.527  -0.049   0.084
    1UNL     O7   18  -0.531   0.035  -0.029
    1UNL    C12   19  -0.448  -0.015  -0.134
    1UNL    C13   20  -0.427   0.100  -0.231
    1UNL     O8   21  -0.551   0.149  -0.279
    1UNL    C14   22  -0.516  -0.147  -0.196
    1UNL     O9   23  -0.560  -0.134  -0.329
    1UNL    C15   24  -0.623  -0.203  -0.101
    1UNL    O10   25  -0.672  -0.330  -0.142
    1UNL    C16   26  -0.560  -0.193   0.047
    1UNL    O11   27  -0.645  -0.246   0.149
    1UNL    O12   28  -0.102   0.024  -0.027
    1UNL    C17   29  -0.004   0.040  -0.124
    1UNL    C18   30   0.131   0.048  -0.105
    1UNL    C19   31   0.215   0.071  -0.219
    1UNL    O13   32   0.183   0.127  -0.325
    1UNL     N1   33   0.347   0.017  -0.204
    1UNL    C20   34   0.457   0.048  -0.293
    1UNL    C21   35   0.575  -0.002  -0.216
    1UNL    C22   36   0.536  -0.075  -0.107
    1UNL     N2   37   0.625  -0.133  -0.030
    1UNL    C23   38   0.760  -0.122  -0.054
    1UNL    C24   39   0.856  -0.192   0.024
    1UNL    C25   40   0.996  -0.196  -0.008
    1UNL    O14   41   1.083  -0.250   0.082
    1UNL    C26   42   1.036  -0.139  -0.131
    1UNL    C27   43   0.944  -0.069  -0.209
    1UNL    C28   44   0.805  -0.069  -0.176
    1UNL    C29   45   0.709  -0.003  -0.260
    1UNL    O15   46   0.743   0.051  -0.362
    1UNL    C30   47   0.383  -0.076  -0.096
    1UNL    C31   48   0.335  -0.019   0.040
    1UNL    C32   49   0.197   0.044   0.028
    1UNL     H1   50  -0.066  -0.342   0.030
    1UNL     H2   51  -0.119  -0.205   0.127
    1UNL     H3   52   0.155  -0.243   0.020
    1UNL     H4   53   0.120  -0.036   0.222
    1UNL     H5   54  -0.016   0.135   0.125
    1UNL     H6   55  -0.241   0.089   0.355
    1UNL     H7   56  -0.175   0.422   0.218
    1UNL     H8   57  -0.357   0.292   0.416
    1UNL     H9   58  -0.194   0.305   0.460
    1UNL    H10   59  -0.283   0.487   0.535
    1UNL    H11   60  -0.427   0.423   0.165
    1UNL    H12   61  -0.226   0.378   0.013
    1UNL    H13   62  -0.525   0.215   0.111
    1UNL    H14   63  -0.566   0.147   0.320
    1UNL    H15   64  -0.317   0.095   0.046
    1UNL    H16   65  -0.602  -0.023   0.155
    1UNL    H17   66  -0.352  -0.052  -0.081
    1UNL    H18   67  -0.347   0.064  -0.303
    1UNL    H19   68  -0.378   0.192  -0.188
    1UNL    H20   69  -0.619   0.148  -0.211
    1UNL    H21   70  -0.431  -0.227  -0.190
    1UNL    H22   71  -0.575  -0.041  -0.343
    1UNL    H23   72  -0.713  -0.133  -0.109
    1UNL    H24   73  -0.602  -0.406  -0.125
    1UNL    H25   74  -0.472  -0.255   0.056
    1UNL    H26   75  -0.692  -0.328   0.118
    1UNL    H27   76  -0.047   0.049  -0.232
    1UNL    H28   77   0.447   0.155  -0.305
    1UNL    H29   78   0.436   0.008  -0.393
    1UNL    H30   79   0.593  -0.185   0.043
    1UNL    H31   80   0.816  -0.243   0.109
    1UNL    H32   81   1.178  -0.219   0.072
    1UNL    H33   82   1.138  -0.149  -0.162
    1UNL    H34   83   0.975  -0.015  -0.306
    1UNL    H35   84   0.334  -0.170  -0.122
    1UNL    H36   85   0.322  -0.096   0.119
    1UNL    H37   86   0.414   0.056   0.065
    1UNL    H38   87   0.205   0.148   0.069
   0.00000   0.00000   0.00000   0.00000   0.00000   0.00000   0.00000   0.00000   0.00000
Generated with MDTraj, t= 8.0
 87
    1UNL     C1    1  -0.014  -0.265   0.115
    1UNL     C2    2   0.085  -0.185   0.082
    1UNL     C3    3   0.090  -0.047   0.125
    1UNL     C4    4  -0.042   0.034   0.110
    1UNL     O1    5  -0.129  -0.008   0.213
    1UNL     C5    6  -0.215   0.099   0.249
    1UNL     O2    7  -0.157   0.227   0.241
    1UNL     C6    8  -0.242   0.340   0.277
    1UNL     C7    9  -0.278   0.355   0.426
    1UNL     O3   10  -0.298   0.493   0.453
    1UNL     C8   11  -0.359   0.340   0.176
    1UNL     O4   12  -0.309   0.363   0.042
    1UNL     C9   13  -0.432   0.201   0.178
    1UNL     O5   14  -0.500   0.176   0.307
    1UNL    C10   15  -0.337   0.084   0.157
    1UNL     O6   16  -0.423  -0.030   0.183
    1UNL    C11   17  -0.524  -0.046   0.079
    1UNL     O7   18  -0.502   0.035  -0.039
    1UNL    C12   19  -0.426  -0.022  -0.144
    1UNL    C13   20  -0.415   0.084  -0.247
    1UNL     O8   21  -0.536   0.143  -0.271
    1UNL    C14   22  -0.509  -0.150  -0.212
    1UNL     O9   23  -0.576  -0.116  -0.330
    1UNL    C15   24  -0.610  -0.210  -0.108
    1UNL    O10   25  -0.635  -0.347  -0.135
    1UNL    C16   26  -0.553  -0.194   0.040
    1UNL    O11   27  -0.645  -0.258   0.130
    1UNL    O12   28  -0.103   0.030  -0.021
    1UNL    C17   29  -0.015   0.054  -0.126
    1UNL    C18   30   0.123   0.057  -0.108
    1UNL    C19   31   0.210   0.079  -0.225
    1UNL    O13   32   0.183   0.149  -0.323
    1UNL     N1   33   0.330   0.003  -0.225
    1UNL    C20   34   0.447   0.026  -0.312
    1UNL    C21   35   0.570  -0.024  -0.243
    1UNL    C22   36   0.532  -0.075  -0.125
    1UNL     N2   37   0.623  -0.127  -0.032
    1UNL    C23   38   0.759  -0.131  -0.055
    1UNL    C24   39   0.852  -0.192   0.033
    1UNL    C25   40   0.989  -0.186   0.006
    1UNL    O14   41   1.070  -0.245   0.102
    1UNL    C26   42   1.031  -0.129  -0.120
    1UNL    C27   43   0.939  -0.077  -0.207
    1UNL    C28   44   0.806  -0.080  -0.178
    1UNL    C29   45   0.712  -0.024  -0.279
    1UNL    O15   46   0.747   0.018  -0.388
    1UNL    C30   47   0.382  -0.073  -0.111
    1UNL    C31   48   0.331   0.001   0.027
    1UNL    C32   49   0.186   0.038   0.025
    1UNL     H1   50  -0.023  -0.378   0.093
    1UNL     H2   51  -0.105  -0.227   0.151
    1UNL     H3   52   0.185  -0.222   0.060
    1UNL     H4   53   0.124  -0.035   0.233
    1UNL     H5   54  -0.021   0.142   0.130
    1UNL     H6   55  -0.228   0.079   0.360
    1UNL     H7   56  -0.179   0.428   0.261
    1UNL     H8   57  -0.363   0.299   0.459
    1UNL     H9   58  -0.189   0.316   0.475
    1UNL    H10   59  -0.299   0.510   0.549
    1UNL    H11   60  -0.439   0.418   0.208
    1UNL    H12   61  -0.215   0.335   0.042
    1UNL    H13   62  -0.510   0.203   0.100
    1UNL    H14   63  -0.541   0.086   0.292
    1UNL    H15   64  -0.303   0.068   0.048
    1UNL    H16   65  -0.608   0.005   0.123
    1UNL    H17   66  -0.321  -0.045  -0.110
    1UNL    H18   67  -0.375   0.064  -0.350
    1UNL    H19   68  -0.340   0.158  -0.206
    1UNL    H20   69  -0.597   0.167  -0.197
    1UNL    H21   70  -0.433  -0.230  -0.247
    1UNL    H22   71  -0.604  -0.021  -0.325
    1UNL    H23   72  -0.708  -0.151  -0.122
    1UNL    H24   73  -0.709  -0.354  -0.206
    1UNL    H25   74  -0.453  -0.244   0.046
    1UNL    H26   75  -0.665  -0.344   0.094
    1UNL    H27   76  -0.070   0.069  -0.215
    1UNL    H28   77   0.455   0.130  -0.350
    1UNL    H29   78   0.423  -0.035  -0.401
    1UNL    H30   79   0.593  -0.159   0.062
    1UNL    H31   80   0.834  -0.238   0.130
    1UNL    H32   81   1.169  -0.239   0.079
    1UNL    H33   82   1.132  -0.152  -0.153
    1UNL    H34   83   0.971  -0.025  -0.296
    1UNL    H35   84   0.340  -0.171  -0.092
    1UNL    H36   85   0.358  -0.056   0.116
    1UNL    H37   86   0.388   0.097   0.031
    1UNL    H38   87   0.178   0.139   0.069
   0.00000   0.00000   0.00000   0.00000   0.00000   0.00000   0.00000   0.00000   0.00000
Generated with MDTraj, t= 9.0
 87
    1UNL     C1    1  -0.013  -0.252   0.126
    1UNL     C2    2   0.073  -0.166   0.070
    1UNL     C3    3   0.095  -0.026   0.118
    1UNL     C4    4  -0.038   0.049   0.117
    1UNL     O1    5  -0.122  -0.001   0.221
    1UNL     C5    6  -0.220   0.099   0.244
    1UNL     O2    7  -0.157   0.226   0.261
    1UNL     C6    8  -0.245   0.332   0.290
    1UNL     C7    9  -0.283   0.345   0.440
    1UNL     O3   10  -0.346   0.471   0.469
    1UNL     C8   11  -0.369   0.338   0.198
    1UNL     O4   12  -0.334   0.395   0.074
    1UNL     C9   13  -0.437   0.200   0.178
    1UNL     O5   14  -0.502   0.174   0.303
    1UNL    C10   15  -0.330   0.098   0.141
    1UNL     O6   16  -0.382  -0.032   0.133
    1UNL    C11   17  -0.507  -0.044   0.065
    1UNL     O7   18  -0.505   0.037  -0.052
    1UNL    C12   19  -0.421  -0.021  -0.147
    1UNL    C13   20  -0.390   0.081  -0.263
    1UNL     O8   21  -0.498   0.163  -0.293
    1UNL    C14   22  -0.497  -0.148  -0.206
    1UNL     O9   23  -0.571  -0.115  -0.319
    1UNL    C15   24  -0.589  -0.218  -0.102
    1UNL    O10   25  -0.619  -0.347  -0.123
    1UNL    C16   26  -0.533  -0.201   0.038
    1UNL    O11   27  -0.628  -0.258   0.131
    1UNL    O12   28  -0.098   0.058  -0.016
    1UNL    C17   29  -0.005   0.069  -0.115
    1UNL    C18   30   0.132   0.065  -0.109
    1UNL    C19   31   0.209   0.059  -0.228
    1UNL    O13   32   0.169   0.116  -0.328
    1UNL     N1   33   0.325  -0.012  -0.226
    1UNL    C20   34   0.439   0.018  -0.312
    1UNL    C21   35   0.556  -0.048  -0.247
    1UNL    C22   36   0.519  -0.100  -0.130
    1UNL     N2   37   0.607  -0.141  -0.035
    1UNL    C23   38   0.746  -0.141  -0.064
    1UNL    C24   39   0.840  -0.174   0.030
    1UNL    C25   40   0.975  -0.176   0.006
    1UNL    O14   41   1.065  -0.223   0.101
    1UNL    C26   42   1.018  -0.125  -0.115
    1UNL    C27   43   0.930  -0.090  -0.213
    1UNL    C28   44   0.792  -0.092  -0.186
    1UNL    C29   45   0.697  -0.040  -0.284
    1UNL    O15   46   0.733   0.006  -0.393
    1UNL    C30   47   0.375  -0.082  -0.108
    1UNL    C31   48   0.339  -0.005   0.034
    1UNL    C32   49   0.200   0.055   0.027
    1UNL     H1   50  -0.026  -0.352   0.095
    1UNL     H2   51  -0.052  -0.244   0.227
    1UNL     H3   52   0.121  -0.189  -0.021
    1UNL     H4   53   0.135  -0.020   0.225
    1UNL     H5   54  -0.022   0.154   0.142
    1UNL     H6   55  -0.274   0.071   0.341
    1UNL     H7   56  -0.181   0.419   0.269
    1UNL     H8   57  -0.350   0.258   0.451
    1UNL     H9   58  -0.197   0.337   0.509
    1UNL    H10   59  -0.372   0.482   0.560
    1UNL    H11   60  -0.447   0.403   0.251
    1UNL    H12   61  -0.238   0.385   0.054
    1UNL    H13   62  -0.504   0.226   0.097
    1UNL    H14   63  -0.553   0.093   0.280
    1UNL    H15   64  -0.293   0.131   0.038
    1UNL    H16   65  -0.585  -0.003   0.128
    1UNL    H17   66  -0.325  -0.057  -0.106
    1UNL    H18   67  -0.356   0.010  -0.341
    1UNL    H19   68  -0.301   0.149  -0.257
    1UNL    H20   69  -0.528   0.222  -0.218
    1UNL    H21   70  -0.429  -0.232  -0.247
    1UNL    H22   71  -0.616  -0.027  -0.322
    1UNL    H23   72  -0.699  -0.184  -0.097
    1UNL    H24   73  -0.535  -0.399  -0.117
    1UNL    H25   74  -0.438  -0.263   0.056
    1UNL    H26   75  -0.674  -0.334   0.088
    1UNL    H27   76  -0.053   0.076  -0.208
    1UNL    H28   77   0.476   0.125  -0.310
    1UNL    H29   78   0.436  -0.007  -0.421
    1UNL    H30   79   0.563  -0.191   0.053
    1UNL    H31   80   0.804  -0.194   0.130
    1UNL    H32   81   1.150  -0.251   0.056
    1UNL    H33   82   1.121  -0.109  -0.138
    1UNL    H34   83   0.961  -0.057  -0.308
    1UNL    H35   84   0.328  -0.179  -0.088
    1UNL    H36   85   0.346  -0.072   0.120
    1UNL    H37   86   0.419   0.072   0.050
    1UNL    H38   87   0.207   0.149   0.081
   0.00000   0.00000   0.00000   0.00000   0.00000   0.00000   0.00000   0.00000   0.00000
Generated with MDTraj, t= 10.0
 87
    1UNL     C1    1  -0.030  -0.237   0.135
    1UNL     C2    2   0.052  -0.159   0.072
    1UNL     C3    3   0.095  -0.025   0.119
    1UNL     C4    4  -0.024   0.078   0.128
    1UNL     O1    5  -0.112   0.030   0.230
    1UNL     C5    6  -0.223   0.123   0.255
    1UNL     O2    7  -0.174   0.259   0.263
    1UNL     C6    8  -0.267   0.351   0.308
    1UNL     C7    9  -0.308   0.316   0.460
    1UNL     O3   10  -0.398   0.414   0.510
    1UNL     C8   11  -0.386   0.353   0.204
    1UNL     O4   12  -0.352   0.388   0.071
    1UNL     C9   13  -0.448   0.210   0.195
    1UNL     O5   14  -0.504   0.182   0.329
    1UNL    C10   15  -0.339   0.105   0.159
    1UNL     O6   16  -0.372  -0.031   0.147
    1UNL    C11   17  -0.481  -0.041   0.063
    1UNL     O7   18  -0.469   0.035  -0.057
    1UNL    C12   19  -0.394  -0.026  -0.159
    1UNL    C13   20  -0.359   0.072  -0.272
    1UNL     O8   21  -0.472   0.146  -0.312
    1UNL    C14   22  -0.482  -0.148  -0.215
    1UNL     O9   23  -0.565  -0.117  -0.328
    1UNL    C15   24  -0.570  -0.214  -0.108
    1UNL    O10   25  -0.594  -0.347  -0.138
    1UNL    C16   26  -0.517  -0.192   0.035
    1UNL    O11   27  -0.615  -0.231   0.129
    1UNL    O12   28  -0.084   0.100   0.001
    1UNL    C17   29  -0.003   0.093  -0.111
    1UNL    C18   30   0.126   0.059  -0.118
    1UNL    C19   31   0.199   0.044  -0.239
    1UNL    O13   32   0.161   0.091  -0.345
    1UNL     N1   33   0.321  -0.031  -0.233
    1UNL    C20   34   0.430  -0.017  -0.327
    1UNL    C21   35   0.554  -0.059  -0.246
    1UNL    C22   36   0.516  -0.098  -0.120
    1UNL     N2   37   0.609  -0.156  -0.041
    1UNL    C23   38   0.743  -0.156  -0.071
    1UNL    C24   39   0.836  -0.193   0.023
    1UNL    C25   40   0.973  -0.183   0.002
    1UNL    O14   41   1.074  -0.195   0.095
    1UNL    C26   42   1.014  -0.125  -0.122
    1UNL    C27   43   0.923  -0.088  -0.217
    1UNL    C28   44   0.786  -0.096  -0.192
    1UNL    C29   45   0.690  -0.051  -0.288
    1UNL    O15   46   0.729  -0.004  -0.392
    1UNL    C30   47   0.368  -0.092  -0.108
    1UNL    C31   48   0.329  -0.014   0.018
    1UNL    C32   49   0.193   0.047   0.017
    1UNL     H1   50  -0.052  -0.327   0.096
    1UNL     H2   51  -0.067  -0.215   0.240
    1UNL     H3   52   0.095  -0.196  -0.023
    1UNL     H4   53   0.142  -0.035   0.222
    1UNL     H5   54   0.006   0.176   0.156
    1UNL     H6   55  -0.270   0.083   0.352
    1UNL     H7   56  -0.206   0.445   0.301
    1UNL     H8   57  -0.355   0.215   0.478
    1UNL     H9   58  -0.210   0.325   0.516
    1UNL    H10   59  -0.466   0.434   0.444
    1UNL    H11   60  -0.471   0.422   0.232
    1UNL    H12   61  -0.260   0.365   0.048
    1UNL    H13   62  -0.527   0.223   0.125
    1UNL    H14   63  -0.546   0.096   0.313
    1UNL    H15   64  -0.294   0.127   0.055
    1UNL    H16   65  -0.564   0.009   0.117
    1UNL    H17   66  -0.301  -0.059  -0.114
    1UNL    H18   67  -0.301   0.034  -0.355
    1UNL    H19   68  -0.283   0.133  -0.224
    1UNL    H20   69  -0.524   0.168  -0.232
    1UNL    H21   70  -0.401  -0.213  -0.262
    1UNL    H22   71  -0.551  -0.020  -0.330
    1UNL    H23   72  -0.675  -0.171  -0.112
    1UNL    H24   73  -0.508  -0.385  -0.142
    1UNL    H25   74  -0.424  -0.263   0.051
    1UNL    H26   75  -0.662  -0.311   0.089
    1UNL    H27   76  -0.057   0.106  -0.214
    1UNL    H28   77   0.449   0.090  -0.360
    1UNL    H29   78   0.412  -0.079  -0.420
    1UNL    H30   79   0.593  -0.174   0.064
    1UNL    H31   80   0.799  -0.227   0.118
    1UNL    H32   81   1.162  -0.213   0.052
    1UNL    H33   82   1.119  -0.095  -0.125
    1UNL    H34   83   0.965  -0.064  -0.323
    1UNL    H35   84   0.337  -0.199  -0.110
    1UNL    H36   85   0.329  -0.086   0.100
    1UNL    H37   86   0.403   0.071   0.038
    1UNL    H38   87   0.212   0.148   0.053
   0.00000   0.00000   0.00000   0.00000   0.00000   0.00000   0.00000   0.00000   0.00000
Generated with MDTraj, t= 11.0
 87
    1UNL     C1    1  -0.060  -0.197   0.137
    1UNL     C2    2   0.044  -0.137   0.087
    1UNL     C3    3   0.093  -0.004   0.125
    1UNL     C4    4  -0.028   0.096   0.124
    1UNL     O1    5  -0.113   0.043   0.224
    1UNL     C5    6  -0.221   0.137   0.246
    1UNL     O2    7  -0.180   0.269   0.281
    1UNL     C6    8  -0.283   0.343   0.329
    1UNL     C7    9  -0.329   0.323   0.472
    1UNL     O3   10  -0.443   0.407   0.504
    1UNL     C8   11  -0.408   0.352   0.227
    1UNL     O4   12  -0.340   0.411   0.116
    1UNL     C9   13  -0.455   0.212   0.193
    1UNL     O5   14  -0.522   0.149   0.305
    1UNL    C10   15  -0.343   0.120   0.154
    1UNL     O6   16  -0.401  -0.009   0.161
    1UNL    C11   17  -0.492  -0.028   0.056
    1UNL     O7   18  -0.456   0.037  -0.066
    1UNL    C12   19  -0.372  -0.032  -0.159
    1UNL    C13   20  -0.324   0.068  -0.253
    1UNL     O8   21  -0.432   0.142  -0.295
    1UNL    C14   22  -0.457  -0.151  -0.219
    1UNL     O9   23  -0.516  -0.123  -0.349
    1UNL    C15   24  -0.561  -0.207  -0.112
    1UNL    O10   25  -0.573  -0.352  -0.134
    1UNL    C16   26  -0.508  -0.184   0.030
    1UNL    O11   27  -0.589  -0.247   0.129
    1UNL    O12   28  -0.084   0.121  -0.004
    1UNL    C17   29   0.004   0.105  -0.113
    1UNL    C18   30   0.134   0.063  -0.111
    1UNL    C19   31   0.194   0.034  -0.240
    1UNL    O13   32   0.153   0.073  -0.350
    1UNL     N1   33   0.314  -0.047  -0.236
    1UNL    C20   34   0.420  -0.038  -0.327
    1UNL    C21   35   0.546  -0.080  -0.253
    1UNL    C22   36   0.514  -0.132  -0.131
    1UNL     N2   37   0.611  -0.163  -0.040
    1UNL    C23   38   0.747  -0.147  -0.072
    1UNL    C24   39   0.842  -0.176   0.027
    1UNL    C25   40   0.978  -0.168  -0.010
    1UNL    O14   41   1.072  -0.210   0.085
    1UNL    C26   42   1.014  -0.123  -0.138
    1UNL    C27   43   0.918  -0.075  -0.220
    1UNL    C28   44   0.781  -0.093  -0.198
    1UNL    C29   45   0.682  -0.065  -0.303
    1UNL    O15   46   0.702  -0.022  -0.417
    1UNL    C30   47   0.367  -0.110  -0.105
    1UNL    C31   48   0.335  -0.033   0.021
    1UNL    C32   49   0.201   0.049   0.026
    1UNL     H1   50  -0.078  -0.297   0.094
    1UNL     H2   51  -0.137  -0.142   0.194
    1UNL     H3   52   0.111  -0.198   0.032
    1UNL     H4   53   0.125  -0.015   0.234
    1UNL     H5   54  -0.008   0.193   0.163
    1UNL     H6   55  -0.254   0.089   0.343
    1UNL     H7   56  -0.246   0.449   0.324
    1UNL     H8   57  -0.372   0.220   0.487
    1UNL     H9   58  -0.251   0.349   0.552
    1UNL    H10   59  -0.527   0.351   0.505
    1UNL    H11   60  -0.488   0.417   0.268
    1UNL    H12   61  -0.275   0.344   0.087
    1UNL    H13   62  -0.530   0.211   0.120
    1UNL    H14   63  -0.515   0.050   0.286
    1UNL    H15   64  -0.302   0.122   0.049
    1UNL    H16   65  -0.586   0.025   0.088
    1UNL    H17   66  -0.301  -0.068  -0.087
    1UNL    H18   67  -0.272   0.015  -0.330
    1UNL    H19   68  -0.243   0.123  -0.208
    1UNL    H20   69  -0.477   0.178  -0.211
    1UNL    H21   70  -0.392  -0.240  -0.241
    1UNL    H22   71  -0.516  -0.022  -0.361
    1UNL    H23   72  -0.666  -0.167  -0.122
    1UNL    H24   73  -0.491  -0.392  -0.138
    1UNL    H25   74  -0.393  -0.220   0.038
    1UNL    H26   75  -0.631  -0.324   0.091
    1UNL    H27   76  -0.042   0.116  -0.205
    1UNL    H28   77   0.418   0.063  -0.382
    1UNL    H29   78   0.402  -0.121  -0.403
    1UNL    H30   79   0.582  -0.211   0.042
    1UNL    H31   80   0.815  -0.215   0.124
    1UNL    H32   81   1.149  -0.247   0.042
    1UNL    H33   82   1.114  -0.131  -0.175
    1UNL    H34   83   0.943  -0.043  -0.311
    1UNL    H35   84   0.312  -0.206  -0.121
    1UNL    H36   85   0.325  -0.104   0.103
    1UNL    H37   86   0.421   0.040   0.026
    1UNL    H38   87   0.235   0.150   0.044
   0.00000   0.00000   0.00000   0.00000   0.00000   0.00000   0.00000   0.00000   0.00000
Generated with MDTraj, t= 12.0
 87
    1UNL     C1    1  -0.081  -0.192   0.095
    1UNL     C2    2   0.046  -0.154   0.093
    1UNL     C3    3   0.087  -0.010   0.125
    1UNL     C4    4  -0.034   0.094   0.137
    1UNL     O1    5  -0.117   0.056   0.245
    1UNL     C5    6  -0.227   0.143   0.267
    1UNL     O2    7  -0.193   0.280   0.290
    1UNL     C6    8  -0.301   0.356   0.339
    1UNL     C7    9  -0.366   0.305   0.467
    1UNL     O3   10  -0.454   0.396   0.525
    1UNL     C8   11  -0.411   0.364   0.225
    1UNL     O4   12  -0.355   0.434   0.106
    1UNL     C9   13  -0.454   0.218   0.180
    1UNL     O5   14  -0.531   0.164   0.290
    1UNL    C10   15  -0.335   0.124   0.155
    1UNL     O6   16  -0.370  -0.014   0.158
    1UNL    C11   17  -0.474  -0.033   0.065
    1UNL     O7   18  -0.453   0.037  -0.059
    1UNL    C12   19  -0.354  -0.022  -0.145
    1UNL    C13   20  -0.304   0.087  -0.235
    1UNL     O8   21  -0.403   0.141  -0.328
    1UNL    C14   22  -0.412  -0.155  -0.210
    1UNL     O9   23  -0.478  -0.133  -0.342
    1UNL    C15   24  -0.515  -0.209  -0.118
    1UNL    O10   25  -0.541  -0.352  -0.135
    1UNL    C16   26  -0.495  -0.188   0.033
    1UNL    O11   27  -0.605  -0.246   0.110
    1UNL    O12   28  -0.092   0.114   0.011
    1UNL    C17   29  -0.011   0.100  -0.099
    1UNL    C18   30   0.118   0.061  -0.102
    1UNL    C19   31   0.186   0.027  -0.221
    1UNL    O13   32   0.156   0.076  -0.327
    1UNL     N1   33   0.301  -0.055  -0.225
    1UNL    C20   34   0.409  -0.049  -0.331
    1UNL    C21   35   0.533  -0.078  -0.255
    1UNL    C22   36   0.508  -0.126  -0.132
    1UNL     N2   37   0.609  -0.158  -0.042
    1UNL    C23   38   0.746  -0.151  -0.076
    1UNL    C24   39   0.850  -0.184   0.007
    1UNL    C25   40   0.983  -0.166  -0.025
    1UNL    O14   41   1.075  -0.197   0.072
    1UNL    C26   42   1.013  -0.127  -0.156
    1UNL    C27   43   0.909  -0.090  -0.240
    1UNL    C28   44   0.776  -0.114  -0.208
    1UNL    C29   45   0.669  -0.080  -0.303
    1UNL    O15   46   0.679  -0.044  -0.421
    1UNL    C30   47   0.364  -0.109  -0.096
    1UNL    C31   48   0.325  -0.018   0.025
    1UNL    C32   49   0.189   0.050   0.029
    1UNL     H1   50  -0.109  -0.288   0.051
    1UNL     H2   51  -0.156  -0.131   0.119
    1UNL     H3   52   0.126  -0.219   0.053
    1UNL     H4   53   0.130  -0.016   0.229
    1UNL     H5   54   0.003   0.187   0.177
    1UNL     H6   55  -0.284   0.097   0.351
    1UNL     H7   56  -0.249   0.454   0.348
    1UNL     H8   57  -0.423   0.207   0.466
    1UNL     H9   58  -0.286   0.309   0.548
    1UNL    H10   59  -0.546   0.368   0.490
    1UNL    H11   60  -0.489   0.432   0.258
    1UNL    H12   61  -0.288   0.378   0.062
    1UNL    H13   62  -0.519   0.236   0.096
    1UNL    H14   63  -0.521   0.066   0.281
    1UNL    H15   64  -0.290   0.154   0.058
    1UNL    H16   65  -0.574   0.002   0.107
    1UNL    H17   66  -0.281  -0.049  -0.069
    1UNL    H18   67  -0.215   0.045  -0.279
    1UNL    H19   68  -0.262   0.174  -0.183
    1UNL    H20   69  -0.479   0.177  -0.284
    1UNL    H21   70  -0.332  -0.227  -0.229
    1UNL    H22   71  -0.465  -0.039  -0.364
    1UNL    H23   72  -0.605  -0.153  -0.144
    1UNL    H24   73  -0.486  -0.390  -0.203
    1UNL    H25   74  -0.394  -0.250   0.056
    1UNL    H26   75  -0.642  -0.317   0.052
    1UNL    H27   76  -0.066   0.129  -0.188
    1UNL    H28   77   0.390   0.055  -0.376
    1UNL    H29   78   0.384  -0.120  -0.418
    1UNL    H30   79   0.583  -0.177   0.047
    1UNL    H31   80   0.830  -0.210   0.108
    1UNL    H32   81   1.155  -0.220   0.026
    1UNL    H33   82   1.113  -0.144  -0.191
    1UNL    H34   83   0.929  -0.049  -0.343
    1UNL    H35   84   0.335  -0.216  -0.087
    1UNL    H36   85   0.331  -0.087   0.108
    1UNL    H37   86   0.412   0.054   0.018
    1UNL    H38   87   0.213   0.152   0.057
   0.00000   0.00000   0.00000   0.00000   0.00000   0.00000   0.00000   0.00000   0.00000
Generated with MDTraj, t= 13.0
 87
    1UNL     C1    1  -0.092  -0.170   0.087
    1UNL     C2    2   0.039  -0.141   0.101
    1UNL     C3    3   0.081  -0.006   0.149
    1UNL     C4    4  -0.044   0.097   0.163
    1UNL     O1    5  -0.127   0.040   0.256
    1UNL     C5    6  -0.236   0.127   0.278
    1UNL     O2    7  -0.194   0.263   0.300
    1UNL     C6    8  -0.302   0.352   0.330
    1UNL     C7    9  -0.359   0.316   0.467
    1UNL     O3   10  -0.447   0.410   0.522
    1UNL     C8   11  -0.408   0.356   0.213
    1UNL     O4   12  -0.356   0.412   0.091
    1UNL     C9   13  -0.456   0.215   0.186
    1UNL     O5   14  -0.541   0.178   0.294
    1UNL    C10   15  -0.337   0.127   0.158
    1UNL     O6   16  -0.370  -0.010   0.143
    1UNL    C11   17  -0.460  -0.032   0.042
    1UNL     O7   18  -0.444   0.034  -0.084
    1UNL    C12   19  -0.335  -0.006  -0.157
    1UNL    C13   20  -0.311   0.096  -0.261
    1UNL     O8   21  -0.436   0.136  -0.317
    1UNL    C14   22  -0.375  -0.155  -0.203
    1UNL     O9   23  -0.400  -0.149  -0.347
    1UNL    C15   24  -0.489  -0.215  -0.125
    1UNL    O10   25  -0.497  -0.358  -0.140
    1UNL    C16   26  -0.482  -0.187   0.020
    1UNL    O11   27  -0.601  -0.227   0.089
    1UNL    O12   28  -0.095   0.113   0.031
    1UNL    C17   29  -0.009   0.100  -0.073
    1UNL    C18   30   0.119   0.065  -0.082
    1UNL    C19   31   0.187   0.043  -0.210
    1UNL    O13   32   0.136   0.086  -0.313
    1UNL     N1   33   0.302  -0.036  -0.207
    1UNL    C20   34   0.399  -0.043  -0.314
    1UNL    C21   35   0.518  -0.092  -0.251
    1UNL    C22   36   0.499  -0.112  -0.115
    1UNL     N2   37   0.602  -0.142  -0.034
    1UNL    C23   38   0.731  -0.147  -0.084
    1UNL    C24   39   0.839  -0.176  -0.000
    1UNL    C25   40   0.973  -0.174  -0.041
    1UNL    O14   41   1.086  -0.185   0.040
    1UNL    C26   42   0.990  -0.139  -0.175
    1UNL    C27   43   0.888  -0.125  -0.263
    1UNL    C28   44   0.757  -0.127  -0.219
    1UNL    C29   45   0.648  -0.092  -0.308
    1UNL    O15   46   0.676  -0.061  -0.422
    1UNL    C30   47   0.354  -0.107  -0.087
    1UNL    C31   48   0.325  -0.028   0.046
    1UNL    C32   49   0.193   0.047   0.052
    1UNL     H1   50  -0.132  -0.275   0.059
    1UNL     H2   51  -0.170  -0.100   0.109
    1UNL     H3   52   0.119  -0.197   0.061
    1UNL     H4   53   0.123  -0.029   0.252
    1UNL     H5   54  -0.014   0.195   0.206
    1UNL     H6   55  -0.289   0.082   0.364
    1UNL     H7   56  -0.249   0.448   0.332
    1UNL     H8   57  -0.416   0.221   0.458
    1UNL     H9   58  -0.283   0.313   0.550
    1UNL    H10   59  -0.541   0.392   0.500
    1UNL    H11   60  -0.487   0.409   0.264
    1UNL    H12   61  -0.276   0.366   0.057
    1UNL    H13   62  -0.530   0.216   0.104
    1UNL    H14   63  -0.546   0.082   0.287
    1UNL    H15   64  -0.281   0.171   0.072
    1UNL    H16   65  -0.564  -0.001   0.083
    1UNL    H17   66  -0.248  -0.007  -0.089
    1UNL    H18   67  -0.247   0.064  -0.345
    1UNL    H19   68  -0.253   0.184  -0.220
    1UNL    H20   69  -0.509   0.147  -0.246
    1UNL    H21   70  -0.293  -0.223  -0.187
    1UNL    H22   71  -0.455  -0.072  -0.365
    1UNL    H23   72  -0.582  -0.168  -0.151
    1UNL    H24   73  -0.431  -0.382  -0.213
    1UNL    H25   74  -0.388  -0.250   0.064
    1UNL    H26   75  -0.640  -0.305   0.038
    1UNL    H27   76  -0.059   0.118  -0.174
    1UNL    H28   77   0.420   0.056  -0.365
    1UNL    H29   78   0.353  -0.109  -0.397
    1UNL    H30   79   0.586  -0.152   0.064
    1UNL    H31   80   0.825  -0.176   0.108
    1UNL    H32   81   1.167  -0.177  -0.010
    1UNL    H33   82   1.093  -0.137  -0.213
    1UNL    H34   83   0.913  -0.104  -0.367
    1UNL    H35   84   0.304  -0.207  -0.095
    1UNL    H36   85   0.349  -0.099   0.124
    1UNL    H37   86   0.413   0.041   0.041
    1UNL    H38   87   0.219   0.145   0.094
   0.00000   0.00000   0.00000   0.00000   0.00000   0.00000   0.00000   0.00000   0.00000
Generated with MDTraj, t= 14.0
 87
    1UNL     C1    1  -0.093  -0.197   0.127
    1UNL     C2    2   0.031  -0.145   0.112
    1UNL     C3    3   0.086  -0.015   0.167
    1UNL     C4    4  -0.036   0.091   0.183
    1UNL     O1    5  -0.132   0.036   0.265
    1UNL     C5    6  -0.237   0.129   0.278
    1UNL     O2    7  -0.192   0.267   0.314
    1UNL     C6    8  -0.296   0.362   0.337
    1UNL     C7    9  -0.357   0.348   0.478
    1UNL     O3   10  -0.439   0.463   0.502
    1UNL     C8   11  -0.403   0.354   0.219
    1UNL     O4   12  -0.327   0.402   0.099
    1UNL     C9   13  -0.454   0.209   0.193
    1UNL     O5   14  -0.527   0.157   0.306
    1UNL    C10   15  -0.336   0.117   0.153
    1UNL     O6   16  -0.389  -0.017   0.145
    1UNL    C11   17  -0.483  -0.044   0.042
    1UNL     O7   18  -0.455   0.038  -0.078
    1UNL    C12   19  -0.334   0.005  -0.152
    1UNL    C13   20  -0.331   0.090  -0.275
    1UNL     O8   21  -0.451   0.086  -0.347
    1UNL    C14   22  -0.335  -0.145  -0.206
    1UNL     O9   23  -0.338  -0.152  -0.353
    1UNL    C15   24  -0.463  -0.215  -0.151
    1UNL    O10   25  -0.468  -0.351  -0.192
    1UNL    C16   26  -0.485  -0.199   0.001
    1UNL    O11   27  -0.599  -0.262   0.050
    1UNL    O12   28  -0.083   0.148   0.051
    1UNL    C17   29  -0.006   0.136  -0.062
    1UNL    C18   30   0.115   0.078  -0.066
    1UNL    C19   31   0.176   0.047  -0.193
    1UNL    O13   32   0.136   0.104  -0.294
    1UNL     N1   33   0.283  -0.046  -0.194
    1UNL    C20   34   0.378  -0.038  -0.302
    1UNL    C21   35   0.511  -0.080  -0.247
    1UNL    C22   36   0.496  -0.112  -0.117
    1UNL     N2   37   0.599  -0.135  -0.034
    1UNL    C23   38   0.725  -0.146  -0.085
    1UNL    C24   39   0.834  -0.166   0.002
    1UNL    C25   40   0.962  -0.175  -0.056
    1UNL    O14   41   1.072  -0.197   0.021
    1UNL    C26   42   0.983  -0.157  -0.193
    1UNL    C27   43   0.874  -0.143  -0.277
    1UNL    C28   44   0.747  -0.121  -0.224
    1UNL    C29   45   0.639  -0.086  -0.312
    1UNL    O15   46   0.646  -0.087  -0.436
    1UNL    C30   47   0.349  -0.098  -0.074
    1UNL    C31   48   0.331  -0.007   0.053
    1UNL    C32   49   0.188   0.055   0.068
    1UNL     H1   50  -0.117  -0.284   0.081
    1UNL     H2   51  -0.173  -0.152   0.184
    1UNL     H3   52   0.104  -0.213   0.064
    1UNL     H4   53   0.133  -0.041   0.265
    1UNL     H5   54   0.001   0.184   0.239
    1UNL     H6   55  -0.289   0.086   0.364
    1UNL     H7   56  -0.246   0.458   0.328
    1UNL     H8   57  -0.421   0.260   0.487
    1UNL     H9   58  -0.272   0.346   0.550
    1UNL    H10   59  -0.532   0.454   0.484
    1UNL    H11   60  -0.478   0.428   0.233
    1UNL    H12   61  -0.244   0.354   0.076
    1UNL    H13   62  -0.529   0.205   0.106
    1UNL    H14   63  -0.526   0.057   0.293
    1UNL    H15   64  -0.281   0.146   0.060
    1UNL    H16   65  -0.580  -0.015   0.098
    1UNL    H17   66  -0.233   0.013  -0.103
    1UNL    H18   67  -0.241   0.057  -0.333
    1UNL    H19   68  -0.313   0.203  -0.267
    1UNL    H20   69  -0.523   0.093  -0.284
    1UNL    H21   70  -0.259  -0.210  -0.171
    1UNL    H22   71  -0.400  -0.080  -0.388
    1UNL    H23   72  -0.551  -0.180  -0.198
    1UNL    H24   73  -0.382  -0.401  -0.159
    1UNL    H25   74  -0.380  -0.239   0.042
    1UNL    H26   75  -0.625  -0.335  -0.007
    1UNL    H27   76  -0.046   0.157  -0.152
    1UNL    H28   77   0.399   0.063  -0.345
    1UNL    H29   78   0.345  -0.100  -0.392
    1UNL    H30   79   0.585  -0.156   0.073
    1UNL    H31   80   0.818  -0.157   0.107
    1UNL    H32   81   1.157  -0.180  -0.025
    1UNL    H33   82   1.079  -0.161  -0.234
    1UNL    H34   83   0.880  -0.155  -0.380
    1UNL    H35   84   0.306  -0.196  -0.045
    1UNL    H36   85   0.347  -0.067   0.143
    1UNL    H37   86   0.413   0.069   0.064
    1UNL    H38   87   0.204   0.157   0.108
   0.00000   0.00000   0.00000   0.00000   0.00000   0.00000   0.00000   0.00000   0.00000
Generated with MDTraj, t= 15.0
 87
    1UNL     C1    1  -0.064  -0.207   0.129
    1UNL     C2    2   0.036  -0.135   0.088
    1UNL     C3    3   0.077  -0.011   0.161
    1UNL     C4    4  -0.040   0.093   0.189
    1UNL     O1    5  -0.130   0.040   0.279
    1UNL     C5    6  -0.239   0.122   0.303
    1UNL     O2    7  -0.195   0.256   0.305
    1UNL     C6    8  -0.298   0.351   0.313
    1UNL     C7    9  -0.379   0.345   0.448
    1UNL     O3   10  -0.420   0.473   0.490
    1UNL     C8   11  -0.394   0.342   0.192
    1UNL     O4   12  -0.321   0.367   0.078
    1UNL     C9   13  -0.456   0.198   0.185
    1UNL     O5   14  -0.538   0.163   0.294
    1UNL    C10   15  -0.341   0.097   0.187
    1UNL     O6   16  -0.380  -0.029   0.162
    1UNL    C11   17  -0.460  -0.042   0.050
    1UNL     O7   18  -0.437   0.045  -0.061
    1UNL    C12   19  -0.324   0.019  -0.153
    1UNL    C13   20  -0.345   0.101  -0.283
    1UNL     O8   21  -0.454   0.058  -0.368
    1UNL    C14   22  -0.311  -0.137  -0.190
    1UNL     O9   23  -0.260  -0.153  -0.318
    1UNL    C15   24  -0.440  -0.206  -0.154
    1UNL    O10   25  -0.440  -0.336  -0.205
    1UNL    C16   26  -0.475  -0.194  -0.002
    1UNL    O11   27  -0.598  -0.262   0.027
    1UNL    O12   28  -0.093   0.159   0.074
    1UNL    C17   29  -0.013   0.159  -0.041
    1UNL    C18   30   0.112   0.106  -0.045
    1UNL    C19   31   0.165   0.070  -0.171
    1UNL    O13   32   0.129   0.119  -0.278
    1UNL     N1   33   0.270  -0.027  -0.180
    1UNL    C20   34   0.352  -0.065  -0.298
    1UNL    C21   35   0.494  -0.092  -0.245
    1UNL    C22   36   0.480  -0.106  -0.112
    1UNL     N2   37   0.593  -0.138  -0.034
    1UNL    C23   38   0.722  -0.139  -0.088
    1UNL    C24   39   0.835  -0.169  -0.016
    1UNL    C25   40   0.962  -0.186  -0.069
    1UNL    O14   41   1.069  -0.222   0.011
    1UNL    C26   42   0.976  -0.166  -0.210
    1UNL    C27   43   0.861  -0.141  -0.284
    1UNL    C28   44   0.737  -0.124  -0.228
    1UNL    C29   45   0.617  -0.102  -0.313
    1UNL    O15   46   0.623  -0.080  -0.435
    1UNL    C30   47   0.332  -0.082  -0.066
    1UNL    C31   48   0.318  -0.002   0.065
    1UNL    C32   49   0.178   0.070   0.085
    1UNL     H1   50  -0.087  -0.298   0.080
    1UNL     H2   51  -0.125  -0.176   0.222
    1UNL     H3   52   0.089  -0.182   0.011
    1UNL     H4   53   0.116  -0.037   0.263
    1UNL     H5   54   0.004   0.184   0.245
    1UNL     H6   55  -0.286   0.093   0.396
    1UNL     H7   56  -0.250   0.447   0.323
    1UNL     H8   57  -0.461   0.279   0.433
    1UNL     H9   58  -0.314   0.301   0.523
    1UNL    H10   59  -0.474   0.512   0.422
    1UNL    H11   60  -0.467   0.414   0.203
    1UNL    H12   61  -0.249   0.299   0.069
    1UNL    H13   62  -0.530   0.190   0.096
    1UNL    H14   63  -0.559   0.064   0.295
    1UNL    H15   64  -0.282   0.128   0.095
    1UNL    H16   65  -0.566  -0.035   0.099
    1UNL    H17   66  -0.232   0.055  -0.095
    1UNL    H18   67  -0.264   0.104  -0.360
    1UNL    H19   68  -0.356   0.205  -0.242
    1UNL    H20   69  -0.536   0.099  -0.342
    1UNL    H21   70  -0.234  -0.174  -0.128
    1UNL    H22   71  -0.331  -0.122  -0.375
    1UNL    H23   72  -0.516  -0.157  -0.208
    1UNL    H24   73  -0.442  -0.333  -0.309
    1UNL    H25   74  -0.394  -0.263   0.052
    1UNL    H26   75  -0.608  -0.344  -0.022
    1UNL    H27   76  -0.064   0.202  -0.133
    1UNL    H28   77   0.354   0.020  -0.368
    1UNL    H29   78   0.320  -0.159  -0.349
    1UNL    H30   79   0.576  -0.181   0.064
    1UNL    H31   80   0.820  -0.204   0.086
    1UNL    H32   81   1.151  -0.187  -0.036
    1UNL    H33   82   1.071  -0.191  -0.262
    1UNL    H34   83   0.864  -0.150  -0.400
    1UNL    H35   84   0.294  -0.179  -0.033
    1UNL    H36   85   0.342  -0.047   0.162
    1UNL    H37   86   0.393   0.078   0.065
    1UNL    H38   87   0.190   0.172   0.134
   0.00000   0.00000   0.00000   0.00000   0.00000   0.00000   0.00000   0.00000   0.00000
Generated with MDTraj, t= 16.0
 87
    1UNL     C1    1  -0.059  -0.204   0.136
    1UNL     C2    2   0.025  -0.115   0.088
    1UNL     C3    3   0.078   0.000   0.161
    1UNL     C4    4  -0.037   0.096   0.203
    1UNL     O1    5  -0.133   0.029   0.284
    1UNL     C5    6  -0.249   0.114   0.294
    1UNL     O2    7  -0.205   0.248   0.318
    1UNL     C6    8  -0.300   0.345   0.311
    1UNL     C7    9  -0.392   0.348   0.435
    1UNL     O3   10  -0.426   0.475   0.472
    1UNL     C8   11  -0.380   0.342   0.186
    1UNL     O4   12  -0.303   0.370   0.073
    1UNL     C9   13  -0.450   0.201   0.168
    1UNL     O5   14  -0.550   0.175   0.269
    1UNL    C10   15  -0.338   0.098   0.166
    1UNL     O6   16  -0.377  -0.040   0.144
    1UNL    C11   17  -0.463  -0.057   0.034
    1UNL     O7   18  -0.439   0.035  -0.069
    1UNL    C12   19  -0.313   0.017  -0.136
    1UNL    C13   20  -0.324   0.094  -0.259
    1UNL     O8   21  -0.438   0.054  -0.329
    1UNL    C14   22  -0.285  -0.136  -0.165
    1UNL     O9   23  -0.227  -0.148  -0.292
    1UNL    C15   24  -0.415  -0.218  -0.156
    1UNL    O10   25  -0.388  -0.348  -0.188
    1UNL    C16   26  -0.474  -0.209  -0.013
    1UNL    O11   27  -0.601  -0.261  -0.002
    1UNL    O12   28  -0.082   0.174   0.092
    1UNL    C17   29  -0.016   0.158  -0.028
    1UNL    C18   30   0.110   0.111  -0.042
    1UNL    C19   31   0.166   0.082  -0.171
    1UNL    O13   32   0.136   0.143  -0.275
    1UNL     N1   33   0.265  -0.019  -0.172
    1UNL    C20   34   0.350  -0.032  -0.290
    1UNL    C21   35   0.476  -0.074  -0.235
    1UNL    C22   36   0.472  -0.107  -0.101
    1UNL     N2   37   0.581  -0.152  -0.036
    1UNL    C23   38   0.708  -0.149  -0.095
    1UNL    C24   39   0.822  -0.188  -0.022
    1UNL    C25   40   0.941  -0.196  -0.087
    1UNL    O14   41   1.059  -0.232  -0.013
    1UNL    C26   42   0.944  -0.177  -0.223
    1UNL    C27   43   0.835  -0.141  -0.296
    1UNL    C28   44   0.712  -0.136  -0.233
    1UNL    C29   45   0.595  -0.102  -0.309
    1UNL    O15   46   0.603  -0.076  -0.429
    1UNL    C30   47   0.332  -0.084  -0.055
    1UNL    C31   48   0.324   0.005   0.063
    1UNL    C32   49   0.187   0.081   0.080
    1UNL     H1   50  -0.095  -0.288   0.080
    1UNL     H2   51  -0.084  -0.195   0.240
    1UNL     H3   52   0.051  -0.125  -0.020
    1UNL     H4   53   0.123  -0.035   0.256
    1UNL     H5   54   0.006   0.181   0.265
    1UNL     H6   55  -0.302   0.077   0.380
    1UNL     H7   56  -0.247   0.441   0.312
    1UNL     H8   57  -0.479   0.292   0.415
    1UNL     H9   58  -0.340   0.304   0.516
    1UNL    H10   59  -0.471   0.525   0.398
    1UNL    H11   60  -0.445   0.422   0.174
    1UNL    H12   61  -0.224   0.312   0.070
    1UNL    H13   62  -0.507   0.190   0.068
    1UNL    H14   63  -0.573   0.082   0.277
    1UNL    H15   64  -0.264   0.123   0.084
    1UNL    H16   65  -0.562  -0.030   0.081
    1UNL    H17   66  -0.230   0.058  -0.070
    1UNL    H18   67  -0.231   0.071  -0.311
    1UNL    H19   68  -0.340   0.201  -0.248
    1UNL    H20   69  -0.514   0.068  -0.262
    1UNL    H21   70  -0.208  -0.168  -0.103
    1UNL    H22   71  -0.275  -0.090  -0.360
    1UNL    H23   72  -0.492  -0.190  -0.223
    1UNL    H24   73  -0.343  -0.357  -0.267
    1UNL    H25   74  -0.404  -0.273   0.051
    1UNL    H26   75  -0.607  -0.356  -0.030
    1UNL    H27   76  -0.069   0.198  -0.120
    1UNL    H28   77   0.351   0.061  -0.347
    1UNL    H29   78   0.312  -0.119  -0.347
    1UNL    H30   79   0.581  -0.150   0.065
    1UNL    H31   80   0.816  -0.220   0.080
    1UNL    H32   81   1.143  -0.186  -0.044
    1UNL    H33   82   1.035  -0.195  -0.272
    1UNL    H34   83   0.841  -0.134  -0.397
    1UNL    H35   84   0.271  -0.172  -0.027
    1UNL    H36   85   0.344  -0.048   0.157
    1UNL    H37   86   0.405   0.079   0.069
    1UNL    H38   87   0.201   0.178   0.137
   0.00000   0.00000   0.00000   0.00000   0.00000   0.00000   0.00000   0.00000   0.00000
Generated with MDTraj, t= 17.0
 87
    1UNL     C1    1  -0.068  -0.197   0.166
    1UNL     C2    2   0.030  -0.126   0.108
    1UNL     C3    3   0.085  -0.006   0.181
    1UNL     C4    4  -0.033   0.094   0.211
    1UNL     O1    5  -0.141   0.026   0.278
    1UNL     C5    6  -0.254   0.111   0.291
    1UNL     O2    7  -0.219   0.250   0.336
    1UNL     C6    8  -0.319   0.356   0.325
    1UNL     C7    9  -0.405   0.361   0.453
    1UNL     O3   10  -0.473   0.479   0.464
    1UNL     C8   11  -0.391   0.352   0.187
    1UNL     O4   12  -0.294   0.388   0.088
    1UNL     C9   13  -0.449   0.206   0.167
    1UNL     O5   14  -0.558   0.171   0.253
    1UNL    C10   15  -0.341   0.102   0.162
    1UNL     O6   16  -0.406  -0.033   0.156
    1UNL    C11   17  -0.466  -0.055   0.022
    1UNL     O7   18  -0.425   0.032  -0.086
    1UNL    C12   19  -0.294   0.014  -0.144
    1UNL    C13   20  -0.291   0.094  -0.272
    1UNL     O8   21  -0.407   0.073  -0.351
    1UNL    C14   22  -0.260  -0.147  -0.165
    1UNL     O9   23  -0.211  -0.173  -0.294
    1UNL    C15   24  -0.382  -0.243  -0.141
    1UNL    O10   25  -0.338  -0.376  -0.136
    1UNL    C16   26  -0.463  -0.208  -0.011
    1UNL    O11   27  -0.593  -0.262  -0.014
    1UNL    O12   28  -0.084   0.174   0.098
    1UNL    C17   29   0.002   0.174  -0.008
    1UNL    C18   30   0.127   0.127  -0.028
    1UNL    C19   31   0.176   0.100  -0.167
    1UNL    O13   32   0.125   0.164  -0.259
    1UNL     N1   33   0.259  -0.008  -0.179
    1UNL    C20   34   0.343  -0.015  -0.300
    1UNL    C21   35   0.472  -0.077  -0.255
    1UNL    C22   36   0.461  -0.108  -0.120
    1UNL     N2   37   0.569  -0.140  -0.043
    1UNL    C23   38   0.687  -0.169  -0.108
    1UNL    C24   39   0.799  -0.203  -0.035
    1UNL    C25   40   0.927  -0.211  -0.092
    1UNL    O14   41   1.033  -0.252  -0.016
    1UNL    C26   42   0.944  -0.190  -0.230
    1UNL    C27   43   0.830  -0.155  -0.302
    1UNL    C28   44   0.704  -0.142  -0.247
    1UNL    C29   45   0.597  -0.093  -0.330
    1UNL    O15   46   0.603  -0.063  -0.450
    1UNL    C30   47   0.328  -0.077  -0.068
    1UNL    C31   48   0.326   0.006   0.061
    1UNL    C32   49   0.194   0.072   0.095
    1UNL     H1   50  -0.118  -0.294   0.130
    1UNL     H2   51  -0.105  -0.160   0.253
    1UNL     H3   52   0.079  -0.140   0.015
    1UNL     H4   53   0.138  -0.034   0.274
    1UNL     H5   54  -0.001   0.170   0.285
    1UNL     H6   55  -0.324   0.074   0.364
    1UNL     H7   56  -0.262   0.452   0.327
    1UNL     H8   57  -0.480   0.286   0.458
    1UNL     H9   58  -0.345   0.345   0.539
    1UNL    H10   59  -0.556   0.484   0.403
    1UNL    H11   60  -0.463   0.424   0.175
    1UNL    H12   61  -0.211   0.333   0.098
    1UNL    H13   62  -0.495   0.189   0.064
    1UNL    H14   63  -0.565   0.074   0.259
    1UNL    H15   64  -0.280   0.123   0.075
    1UNL    H16   65  -0.569  -0.020   0.038
    1UNL    H17   66  -0.222   0.053  -0.068
    1UNL    H18   67  -0.204   0.067  -0.331
    1UNL    H19   68  -0.298   0.196  -0.244
    1UNL    H20   69  -0.480   0.070  -0.286
    1UNL    H21   70  -0.186  -0.184  -0.102
    1UNL    H22   71  -0.279  -0.144  -0.362
    1UNL    H23   72  -0.454  -0.237  -0.221
    1UNL    H24   73  -0.297  -0.387  -0.227
    1UNL    H25   74  -0.409  -0.262   0.070
    1UNL    H26   75  -0.589  -0.363  -0.016
    1UNL    H27   76  -0.047   0.204  -0.091
    1UNL    H28   77   0.352   0.085  -0.339
    1UNL    H29   78   0.288  -0.076  -0.369
    1UNL    H30   79   0.548  -0.165   0.046
    1UNL    H31   80   0.790  -0.195   0.073
    1UNL    H32   81   1.117  -0.208  -0.047
    1UNL    H33   82   1.045  -0.199  -0.271
    1UNL    H34   83   0.847  -0.124  -0.408
    1UNL    H35   84   0.273  -0.173  -0.055
    1UNL    H36   85   0.366  -0.060   0.139
    1UNL    H37   86   0.403   0.082   0.054
    1UNL    H38   87   0.220   0.154   0.170
   0.00000   0.00000   0.00000   0.00000   0.00000   0.00000   0.00000   0.00000   0.00000
Generated with MDTraj, t= 18.0
 87
    1UNL     C1    1  -0.056  -0.218   0.175
    1UNL     C2    2   0.007  -0.123   0.108
    1UNL     C3    3   0.058   0.001   0.177
    1UNL     C4    4  -0.044   0.106   0.211
    1UNL     O1    5  -0.152   0.046   0.287
    1UNL     C5    6  -0.260   0.128   0.307
    1UNL     O2    7  -0.221   0.266   0.331
    1UNL     C6    8  -0.336   0.360   0.325
    1UNL     C7    9  -0.422   0.339   0.442
    1UNL     O3   10  -0.538   0.427   0.470
    1UNL     C8   11  -0.400   0.364   0.186
    1UNL     O4   12  -0.297   0.402   0.094
    1UNL     C9   13  -0.455   0.218   0.153
    1UNL     O5   14  -0.547   0.175   0.249
    1UNL    C10   15  -0.335   0.122   0.169
    1UNL     O6   16  -0.371  -0.017   0.154
    1UNL    C11   17  -0.434  -0.042   0.028
    1UNL     O7   18  -0.391   0.031  -0.087
    1UNL    C12   19  -0.264   0.002  -0.141
    1UNL    C13   20  -0.245   0.087  -0.272
    1UNL     O8   21  -0.331   0.033  -0.374
    1UNL    C14   22  -0.246  -0.155  -0.161
    1UNL     O9   23  -0.194  -0.195  -0.285
    1UNL    C15   24  -0.367  -0.242  -0.126
    1UNL    O10   25  -0.330  -0.383  -0.126
    1UNL    C16   26  -0.433  -0.194   0.013
    1UNL    O11   27  -0.574  -0.242   0.013
    1UNL    O12   28  -0.086   0.194   0.106
    1UNL    C17   29  -0.018   0.192  -0.008
    1UNL    C18   30   0.103   0.130  -0.028
    1UNL    C19   31   0.159   0.111  -0.164
    1UNL    O13   32   0.119   0.186  -0.251
    1UNL     N1   33   0.246   0.007  -0.191
    1UNL    C20   34   0.344   0.011  -0.305
    1UNL    C21   35   0.466  -0.062  -0.255
    1UNL    C22   36   0.454  -0.105  -0.129
    1UNL     N2   37   0.560  -0.157  -0.058
    1UNL    C23   38   0.686  -0.177  -0.115
    1UNL    C24   39   0.796  -0.222  -0.042
    1UNL    C25   40   0.919  -0.241  -0.104
    1UNL    O14   41   1.030  -0.286  -0.037
    1UNL    C26   42   0.939  -0.200  -0.240
    1UNL    C27   43   0.828  -0.160  -0.312
    1UNL    C28   44   0.705  -0.139  -0.250
    1UNL    C29   45   0.596  -0.080  -0.319
    1UNL    O15   46   0.601  -0.054  -0.441
    1UNL    C30   47   0.309  -0.080  -0.083
    1UNL    C31   48   0.288  -0.018   0.058
    1UNL    C32   49   0.161   0.070   0.088
    1UNL     H1   50  -0.106  -0.300   0.118
    1UNL     H2   51  -0.066  -0.213   0.280
    1UNL     H3   52   0.021  -0.118  -0.002
    1UNL     H4   53   0.113  -0.021   0.271
    1UNL     H5   54  -0.007   0.170   0.289
    1UNL     H6   55  -0.319   0.090   0.390
    1UNL     H7   56  -0.285   0.457   0.341
    1UNL     H8   57  -0.454   0.238   0.451
    1UNL     H9   58  -0.364   0.345   0.534
    1UNL    H10   59  -0.611   0.393   0.408
    1UNL    H11   60  -0.475   0.434   0.192
    1UNL    H12   61  -0.228   0.332   0.088
    1UNL    H13   62  -0.508   0.213   0.058
    1UNL    H14   63  -0.558   0.075   0.258
    1UNL    H15   64  -0.268   0.147   0.094
    1UNL    H16   65  -0.537  -0.013   0.040
    1UNL    H17   66  -0.192   0.042  -0.067
    1UNL    H18   67  -0.145   0.086  -0.320
    1UNL    H19   68  -0.288   0.184  -0.252
    1UNL    H20   69  -0.421   0.023  -0.335
    1UNL    H21   70  -0.173  -0.191  -0.097
    1UNL    H22   71  -0.243  -0.152  -0.355
    1UNL    H23   72  -0.449  -0.222  -0.194
    1UNL    H24   73  -0.280  -0.402  -0.216
    1UNL    H25   74  -0.379  -0.244   0.095
    1UNL    H26   75  -0.576  -0.341  -0.005
    1UNL    H27   76  -0.072   0.233  -0.096
    1UNL    H28   77   0.370   0.115  -0.313
    1UNL    H29   78   0.300  -0.028  -0.392
    1UNL    H30   79   0.544  -0.188   0.035
    1UNL    H31   80   0.789  -0.231   0.065
    1UNL    H32   81   1.105  -0.261  -0.092
    1UNL    H33   82   1.035  -0.193  -0.288
    1UNL    H34   83   0.845  -0.123  -0.414
    1UNL    H35   84   0.266  -0.180  -0.098
    1UNL    H36   85   0.279  -0.107   0.125
    1UNL    H37   86   0.381   0.029   0.088
    1UNL    H38   87   0.203   0.157   0.150
   0.00000   0.00000   0.00000   0.00000   0.00000   0.00000   0.00000   0.00000   0.00000
Generated with MDTraj, t= 19.0
 87
    1UNL     C1    1  -0.081  -0.170   0.185
    1UNL     C2    2   0.005  -0.094   0.125
    1UNL     C3    3   0.074   0.022   0.181
    1UNL     C4    4  -0.033   0.130   0.219
    1UNL     O1    5  -0.140   0.069   0.297
    1UNL     C5    6  -0.255   0.147   0.295
    1UNL     O2    7  -0.226   0.285   0.327
    1UNL     C6    8  -0.349   0.367   0.343
    1UNL     C7    9  -0.439   0.320   0.448
    1UNL     O3   10  -0.579   0.365   0.439
    1UNL     C8   11  -0.414   0.369   0.206
    1UNL     O4   12  -0.327   0.431   0.106
    1UNL     C9   13  -0.458   0.228   0.162
    1UNL     O5   14  -0.561   0.169   0.234
    1UNL    C10   15  -0.335   0.132   0.161
    1UNL     O6   16  -0.371  -0.008   0.140
    1UNL    C11   17  -0.430  -0.041   0.015
    1UNL     O7   18  -0.360   0.024  -0.094
    1UNL    C12   19  -0.232  -0.022  -0.117
    1UNL    C13   20  -0.184   0.048  -0.247
    1UNL     O8   21  -0.270   0.004  -0.348
    1UNL    C14   22  -0.221  -0.175  -0.132
    1UNL     O9   23  -0.169  -0.221  -0.262
    1UNL    C15   24  -0.364  -0.233  -0.131
    1UNL    O10   25  -0.370  -0.375  -0.149
    1UNL    C16   26  -0.419  -0.193   0.006
    1UNL    O11   27  -0.546  -0.261   0.020
    1UNL    O12   28  -0.072   0.214   0.114
    1UNL    C17   29  -0.007   0.191  -0.007
    1UNL    C18   30   0.114   0.130  -0.028
    1UNL    C19   31   0.152   0.110  -0.168
    1UNL    O13   32   0.106   0.176  -0.261
    1UNL     N1   33   0.250   0.014  -0.190
    1UNL    C20   34   0.338   0.015  -0.304
    1UNL    C21   35   0.462  -0.057  -0.262
    1UNL    C22   36   0.441  -0.112  -0.136
    1UNL     N2   37   0.540  -0.180  -0.075
    1UNL    C23   38   0.666  -0.177  -0.134
    1UNL    C24   39   0.770  -0.244  -0.068
    1UNL    C25   40   0.898  -0.263  -0.116
    1UNL    O14   41   0.995  -0.330  -0.034
    1UNL    C26   42   0.916  -0.211  -0.243
    1UNL    C27   43   0.820  -0.143  -0.315
    1UNL    C28   44   0.692  -0.126  -0.262
    1UNL    C29   45   0.585  -0.053  -0.328
    1UNL    O15   46   0.603  -0.003  -0.438
    1UNL    C30   47   0.303  -0.079  -0.082
    1UNL    C31   48   0.305  -0.024   0.060
    1UNL    C32   49   0.183   0.080   0.088
    1UNL     H1   50  -0.110  -0.256   0.139
    1UNL     H2   51  -0.121  -0.140   0.284
    1UNL     H3   52   0.044  -0.124   0.029
    1UNL     H4   53   0.131  -0.004   0.271
    1UNL     H5   54   0.005   0.204   0.286
    1UNL     H6   55  -0.303   0.108   0.386
    1UNL     H7   56  -0.309   0.468   0.364
    1UNL     H8   57  -0.447   0.214   0.462
    1UNL     H9   58  -0.404   0.351   0.548
    1UNL    H10   59  -0.609   0.322   0.360
    1UNL    H11   60  -0.488   0.442   0.209
    1UNL    H12   61  -0.249   0.376   0.087
    1UNL    H13   62  -0.491   0.236   0.062
    1UNL    H14   63  -0.549   0.073   0.239
    1UNL    H15   64  -0.262   0.156   0.089
    1UNL    H16   65  -0.533  -0.018   0.020
    1UNL    H17   66  -0.166   0.017  -0.037
    1UNL    H18   67  -0.083   0.006  -0.274
    1UNL    H19   68  -0.195   0.158  -0.259
    1UNL    H20   69  -0.369   0.012  -0.322
    1UNL    H21   70  -0.157  -0.213  -0.062
    1UNL    H22   71  -0.185  -0.155  -0.335
    1UNL    H23   72  -0.428  -0.184  -0.207
    1UNL    H24   73  -0.321  -0.409  -0.221
    1UNL    H25   74  -0.343  -0.225   0.077
    1UNL    H26   75  -0.527  -0.353  -0.002
    1UNL    H27   76  -0.047   0.246  -0.099
    1UNL    H28   77   0.362   0.117  -0.320
    1UNL    H29   78   0.284  -0.040  -0.376
    1UNL    H30   79   0.519  -0.211   0.026
    1UNL    H31   80   0.747  -0.308   0.015
    1UNL    H32   81   1.076  -0.348  -0.082
    1UNL    H33   82   1.012  -0.228  -0.286
    1UNL    H34   83   0.832  -0.117  -0.414
    1UNL    H35   84   0.239  -0.166  -0.104
    1UNL    H36   85   0.302  -0.106   0.136
    1UNL    H37   86   0.394   0.034   0.075
    1UNL    H38   87   0.234   0.173   0.130
   0.00000   0.00000   0.00000   0.00000   0.00000   0.00000   0.00000   0.00000   0.00000
Generated with MDTraj, t= 20.0
 87
    1UNL     C1    1  -0.063  -0.159   0.206
    1UNL     C2    2   0.038  -0.094   0.155
    1UNL     C3    3   0.091   0.042   0.192
    1UNL     C4    4  -0.028   0.145   0.222
    1UNL     O1    5  -0.127   0.093   0.305
    1UNL     C5    6  -0.247   0.160   0.304
    1UNL     O2    7  -0.241   0.298   0.337
    1UNL     C6    8  -0.373   0.370   0.344
    1UNL     C7    9  -0.466   0.318   0.456
    1UNL     O3   10  -0.600   0.338   0.422
    1UNL     C8   11  -0.423   0.353   0.194
    1UNL     O4   12  -0.325   0.408   0.116
    1UNL     C9   13  -0.453   0.209   0.158
    1UNL     O5   14  -0.578   0.151   0.208
    1UNL    C10   15  -0.315   0.127   0.169
    1UNL     O6   16  -0.351  -0.011   0.152
    1UNL    C11   17  -0.400  -0.036   0.017
    1UNL     O7   18  -0.318   0.019  -0.096
    1UNL    C12   19  -0.195  -0.047  -0.111
    1UNL    C13   20  -0.130   0.015  -0.239
    1UNL     O8   21  -0.217   0.013  -0.347
    1UNL    C14   22  -0.209  -0.198  -0.127
    1UNL     O9   23  -0.154  -0.255  -0.249
    1UNL    C15   24  -0.364  -0.242  -0.126
    1UNL    O10   25  -0.378  -0.382  -0.148
    1UNL    C16   26  -0.421  -0.190  -0.001
    1UNL    O11   27  -0.558  -0.226   0.010
    1UNL    O12   28  -0.065   0.243   0.116
    1UNL    C17   29  -0.010   0.221  -0.010
    1UNL    C18   30   0.098   0.145  -0.038
    1UNL    C19   31   0.138   0.124  -0.175
    1UNL    O13   32   0.093   0.184  -0.271
    1UNL     N1   33   0.236   0.027  -0.194
    1UNL    C20   34   0.331   0.030  -0.310
    1UNL    C21   35   0.453  -0.042  -0.259
    1UNL    C22   36   0.426  -0.105  -0.142
    1UNL     N2   37   0.518  -0.184  -0.081
    1UNL    C23   38   0.648  -0.202  -0.128
    1UNL    C24   39   0.747  -0.287  -0.078
    1UNL    C25   40   0.876  -0.288  -0.130
    1UNL    O14   41   0.970  -0.365  -0.073
    1UNL    C26   42   0.903  -0.210  -0.248
    1UNL    C27   43   0.809  -0.130  -0.302
    1UNL    C28   44   0.682  -0.129  -0.248
    1UNL    C29   45   0.580  -0.050  -0.318
    1UNL    O15   46   0.607   0.014  -0.420
    1UNL    C30   47   0.289  -0.062  -0.087
    1UNL    C31   48   0.302   0.011   0.044
    1UNL    C32   49   0.179   0.102   0.081
    1UNL     H1   50  -0.073  -0.264   0.190
    1UNL     H2   51  -0.139  -0.105   0.274
    1UNL     H3   52   0.102  -0.158   0.098
    1UNL     H4   53   0.149   0.030   0.284
    1UNL     H5   54   0.016   0.214   0.293
    1UNL     H6   55  -0.315   0.120   0.380
    1UNL     H7   56  -0.365   0.477   0.362
    1UNL     H8   57  -0.450   0.214   0.478
    1UNL     H9   58  -0.446   0.377   0.551
    1UNL    H10   59  -0.636   0.274   0.351
    1UNL    H11   60  -0.511   0.410   0.179
    1UNL    H12   61  -0.239   0.353   0.119
    1UNL    H13   62  -0.476   0.205   0.057
    1UNL    H14   63  -0.576   0.052   0.197
    1UNL    H15   64  -0.251   0.141   0.085
    1UNL    H16   65  -0.500  -0.004   0.018
    1UNL    H17   66  -0.153  -0.022  -0.011
    1UNL    H18   67  -0.038  -0.035  -0.286
    1UNL    H19   68  -0.115   0.121  -0.210
    1UNL    H20   69  -0.292   0.073  -0.330
    1UNL    H21   70  -0.167  -0.249  -0.048
    1UNL    H22   71  -0.218  -0.239  -0.321
    1UNL    H23   72  -0.409  -0.188  -0.215
    1UNL    H24   73  -0.318  -0.405  -0.227
    1UNL    H25   74  -0.368  -0.227   0.082
    1UNL    H26   75  -0.574  -0.320   0.003
    1UNL    H27   76  -0.064   0.260  -0.085
    1UNL    H28   77   0.346   0.132  -0.332
    1UNL    H29   78   0.290  -0.029  -0.386
    1UNL    H30   79   0.493  -0.253   0.001
    1UNL    H31   80   0.714  -0.368  -0.013
    1UNL    H32   81   1.049  -0.380  -0.128
    1UNL    H33   82   0.998  -0.224  -0.301
    1UNL    H34   83   0.827  -0.058  -0.392
    1UNL    H35   84   0.225  -0.151  -0.096
    1UNL    H36   85   0.307  -0.068   0.123
    1UNL    H37   86   0.394   0.068   0.042
    1UNL    H38   87   0.223   0.193   0.129
   0.00000   0.00000   0.00000   0.00000   0.00000   0.00000   0.00000   0.00000   0.00000
Generated with MDTraj, t= 21.0
 87
    1UNL     C1    1  -0.036  -0.151   0.237
    1UNL     C2    2   0.040  -0.071   0.162
    1UNL     C3    3   0.091   0.064   0.206
    1UNL     C4    4  -0.027   0.164   0.238
    1UNL     O1    5  -0.125   0.098   0.303
    1UNL     C5    6  -0.254   0.149   0.304
    1UNL     O2    7  -0.241   0.283   0.338
    1UNL     C6    8  -0.368   0.354   0.328
    1UNL     C7    9  -0.470   0.309   0.436
    1UNL     O3   10  -0.601   0.334   0.397
    1UNL     C8   11  -0.420   0.350   0.184
    1UNL     O4   12  -0.328   0.419   0.108
    1UNL     C9   13  -0.432   0.207   0.139
    1UNL     O5   14  -0.533   0.135   0.216
    1UNL    C10   15  -0.306   0.115   0.158
    1UNL     O6   16  -0.340  -0.019   0.147
    1UNL    C11   17  -0.383  -0.044   0.011
    1UNL     O7   18  -0.300   0.007  -0.099
    1UNL    C12   19  -0.185  -0.070  -0.114
    1UNL    C13   20  -0.113  -0.020  -0.246
    1UNL     O8   21  -0.200  -0.036  -0.352
    1UNL    C14   22  -0.204  -0.222  -0.133
    1UNL     O9   23  -0.149  -0.274  -0.253
    1UNL    C15   24  -0.357  -0.264  -0.121
    1UNL    O10   25  -0.370  -0.404  -0.122
    1UNL    C16   26  -0.427  -0.192  -0.005
    1UNL    O11   27  -0.571  -0.191  -0.025
    1UNL    O12   28  -0.082   0.247   0.126
    1UNL    C17   29  -0.019   0.233   0.008
    1UNL    C18   30   0.096   0.167  -0.016
    1UNL    C19   31   0.144   0.153  -0.155
    1UNL    O13   32   0.098   0.230  -0.235
    1UNL     N1   33   0.232   0.050  -0.182
    1UNL    C20   34   0.328   0.062  -0.298
    1UNL    C21   35   0.446  -0.020  -0.258
    1UNL    C22   36   0.417  -0.082  -0.141
    1UNL     N2   37   0.507  -0.173  -0.085
    1UNL    C23   38   0.629  -0.203  -0.146
    1UNL    C24   39   0.717  -0.294  -0.086
    1UNL    C25   40   0.847  -0.308  -0.143
    1UNL    O14   41   0.929  -0.403  -0.085
    1UNL    C26   42   0.887  -0.235  -0.257
    1UNL    C27   43   0.800  -0.146  -0.310
    1UNL    C28   44   0.671  -0.132  -0.257
    1UNL    C29   45   0.575  -0.038  -0.320
    1UNL    O15   46   0.603   0.023  -0.426
    1UNL    C30   47   0.287  -0.034  -0.079
    1UNL    C31   48   0.298   0.036   0.058
    1UNL    C32   49   0.182   0.126   0.101
    1UNL     H1   50  -0.086  -0.237   0.203
    1UNL     H2   51  -0.047  -0.133   0.339
    1UNL     H3   52   0.044  -0.103   0.054
    1UNL     H4   53   0.139   0.037   0.299
    1UNL     H5   54   0.016   0.237   0.310
    1UNL     H6   55  -0.312   0.099   0.383
    1UNL     H7   56  -0.342   0.458   0.346
    1UNL     H8   57  -0.452   0.203   0.449
    1UNL     H9   58  -0.445   0.369   0.531
    1UNL    H10   59  -0.623   0.270   0.328
    1UNL    H11   60  -0.513   0.401   0.159
    1UNL    H12   61  -0.239   0.378   0.113
    1UNL    H13   62  -0.468   0.210   0.041
    1UNL    H14   63  -0.532   0.037   0.197
    1UNL    H15   64  -0.235   0.131   0.080
    1UNL    H16   65  -0.472   0.008  -0.004
    1UNL    H17   66  -0.126  -0.057  -0.021
    1UNL    H18   67  -0.024  -0.088  -0.252
    1UNL    H19   68  -0.073   0.083  -0.251
    1UNL    H20   69  -0.285  -0.004  -0.317
    1UNL    H21   70  -0.147  -0.275  -0.065
    1UNL    H22   71  -0.170  -0.215  -0.325
    1UNL    H23   72  -0.406  -0.235  -0.220
    1UNL    H24   73  -0.310  -0.456  -0.190
    1UNL    H25   74  -0.396  -0.244   0.080
    1UNL    H26   75  -0.604  -0.279   0.002
    1UNL    H27   76  -0.073   0.278  -0.080
    1UNL    H28   77   0.358   0.163  -0.310
    1UNL    H29   78   0.291   0.024  -0.388
    1UNL    H30   79   0.486  -0.210   0.008
    1UNL    H31   80   0.698  -0.341   0.008
    1UNL    H32   81   0.991  -0.438  -0.155
    1UNL    H33   82   0.987  -0.229  -0.285
    1UNL    H34   83   0.824  -0.077  -0.380
    1UNL    H35   84   0.226  -0.126  -0.069
    1UNL    H36   85   0.319  -0.051   0.124
    1UNL    H37   86   0.389   0.093   0.053
    1UNL    H38   87   0.221   0.215   0.155
   0.00000   0.00000   0.00000   0.00000   0.00000   0.00000   0.00000   0.00000   0.00000
Generated with MDTraj, t= 22.0
 87
    1UNL     C1    1  -0.003  -0.152   0.254
    1UNL     C2    2   0.056  -0.059   0.178
    1UNL     C3    3   0.104   0.076   0.219
    1UNL     C4    4  -0.021   0.158   0.260
    1UNL     O1    5  -0.127   0.070   0.291
    1UNL     C5    6  -0.257   0.134   0.284
    1UNL     O2    7  -0.255   0.263   0.338
    1UNL     C6    8  -0.372   0.341   0.321
    1UNL     C7    9  -0.479   0.308   0.426
    1UNL     O3   10  -0.612   0.351   0.397
    1UNL     C8   11  -0.411   0.347   0.172
    1UNL     O4   12  -0.308   0.409   0.097
    1UNL     C9   13  -0.442   0.209   0.125
    1UNL     O5   14  -0.553   0.151   0.196
    1UNL    C10   15  -0.320   0.118   0.136
    1UNL     O6   16  -0.345  -0.018   0.121
    1UNL    C11   17  -0.398  -0.050  -0.009
    1UNL     O7   18  -0.313  -0.012  -0.120
    1UNL    C12   19  -0.182  -0.077  -0.120
    1UNL    C13   20  -0.117  -0.045  -0.254
    1UNL     O8   21  -0.187  -0.078  -0.367
    1UNL    C14   22  -0.197  -0.235  -0.115
    1UNL     O9   23  -0.117  -0.297  -0.206
    1UNL    C15   24  -0.355  -0.273  -0.128
    1UNL    O10   25  -0.379  -0.408  -0.115
    1UNL    C16   26  -0.425  -0.206  -0.006
    1UNL    O11   27  -0.566  -0.217  -0.024
    1UNL    O12   28  -0.056   0.255   0.163
    1UNL    C17   29   0.001   0.252   0.038
    1UNL    C18   30   0.116   0.192   0.007
    1UNL    C19   31   0.152   0.190  -0.138
    1UNL    O13   32   0.097   0.269  -0.214
    1UNL     N1   33   0.245   0.089  -0.170
    1UNL    C20   34   0.346   0.110  -0.279
    1UNL    C21   35   0.445  -0.003  -0.258
    1UNL    C22   36   0.426  -0.061  -0.135
    1UNL     N2   37   0.505  -0.151  -0.078
    1UNL    C23   38   0.615  -0.193  -0.149
    1UNL    C24   39   0.706  -0.278  -0.088
    1UNL    C25   40   0.816  -0.330  -0.151
    1UNL    O14   41   0.899  -0.426  -0.094
    1UNL    C26   42   0.842  -0.280  -0.279
    1UNL    C27   43   0.763  -0.181  -0.334
    1UNL    C28   44   0.652  -0.129  -0.271
    1UNL    C29   45   0.568  -0.029  -0.331
    1UNL    O15   46   0.603   0.025  -0.434
    1UNL    C30   47   0.294  -0.011  -0.074
    1UNL    C31   48   0.321   0.051   0.063
    1UNL    C32   49   0.198   0.138   0.110
    1UNL     H1   50  -0.035  -0.259   0.218
    1UNL     H2   51  -0.009  -0.136   0.356
    1UNL     H3   52   0.063  -0.085   0.078
    1UNL     H4   53   0.160   0.046   0.306
    1UNL     H5   54   0.006   0.224   0.349
    1UNL     H6   55  -0.309   0.072   0.360
    1UNL     H7   56  -0.336   0.443   0.343
    1UNL     H8   57  -0.478   0.201   0.451
    1UNL     H9   58  -0.447   0.369   0.519
    1UNL    H10   59  -0.627   0.323   0.301
    1UNL    H11   60  -0.501   0.409   0.155
    1UNL    H12   61  -0.227   0.364   0.126
    1UNL    H13   62  -0.463   0.210   0.023
    1UNL    H14   63  -0.567   0.063   0.164
    1UNL    H15   64  -0.258   0.150   0.055
    1UNL    H16   65  -0.484   0.003  -0.033
    1UNL    H17   66  -0.122  -0.029  -0.039
    1UNL    H18   67  -0.017  -0.089  -0.270
    1UNL    H19   68  -0.089   0.061  -0.249
    1UNL    H20   69  -0.282  -0.044  -0.351
    1UNL    H21   70  -0.153  -0.268  -0.027
    1UNL    H22   71  -0.156  -0.279  -0.299
    1UNL    H23   72  -0.403  -0.220  -0.217
    1UNL    H24   73  -0.322  -0.469  -0.157
    1UNL    H25   74  -0.403  -0.243   0.087
    1UNL    H26   75  -0.597  -0.310  -0.001
    1UNL    H27   76  -0.046   0.321  -0.040
    1UNL    H28   77   0.399   0.203  -0.280
    1UNL    H29   78   0.298   0.109  -0.372
    1UNL    H30   79   0.485  -0.189   0.007
    1UNL    H31   80   0.698  -0.300   0.018
    1UNL    H32   81   0.934  -0.488  -0.165
    1UNL    H33   82   0.945  -0.302  -0.312
    1UNL    H34   83   0.802  -0.125  -0.423
    1UNL    H35   84   0.221  -0.091  -0.057
    1UNL    H36   85   0.359  -0.021   0.139
    1UNL    H37   86   0.409   0.109   0.037
    1UNL    H38   87   0.237   0.231   0.155
   0.00000   0.00000   0.00000   0.00000   0.00000   0.00000   0.00000   0.00000   0.00000
Generated with MDTraj, t= 23.0
 87
    1UNL     C1    1   0.065  -0.177   0.243
    1UNL     C2    2   0.073  -0.070   0.163
    1UNL     C3    3   0.096   0.072   0.221
    1UNL     C4    4  -0.031   0.147   0.247
    1UNL     O1    5  -0.133   0.060   0.293
    1UNL     C5    6  -0.261   0.129   0.281
    1UNL     O2    7  -0.264   0.259   0.335
    1UNL     C6    8  -0.379   0.340   0.319
    1UNL     C7    9  -0.494   0.282   0.398
    1UNL     O3   10  -0.610   0.365   0.393
    1UNL     C8   11  -0.408   0.361   0.167
    1UNL     O4   12  -0.296   0.422   0.104
    1UNL     C9   13  -0.434   0.215   0.110
    1UNL     O5   14  -0.567   0.171   0.158
    1UNL    C10   15  -0.315   0.119   0.132
    1UNL     O6   16  -0.359  -0.021   0.122
    1UNL    C11   17  -0.404  -0.060  -0.008
    1UNL     O7   18  -0.322  -0.021  -0.110
    1UNL    C12   19  -0.182  -0.074  -0.110
    1UNL    C13   20  -0.104  -0.047  -0.239
    1UNL     O8   21  -0.165  -0.110  -0.349
    1UNL    C14   22  -0.188  -0.233  -0.091
    1UNL     O9   23  -0.105  -0.304  -0.169
    1UNL    C15   24  -0.342  -0.278  -0.112
    1UNL    O10   25  -0.359  -0.417  -0.114
    1UNL    C16   26  -0.434  -0.206  -0.011
    1UNL    O11   27  -0.563  -0.237  -0.050
    1UNL    O12   28  -0.076   0.255   0.159
    1UNL    C17   29  -0.012   0.263   0.034
    1UNL    C18   30   0.111   0.209   0.009
    1UNL    C19   31   0.164   0.217  -0.128
    1UNL    O13   32   0.127   0.288  -0.219
    1UNL     N1   33   0.275   0.131  -0.154
    1UNL    C20   34   0.350   0.112  -0.279
    1UNL    C21   35   0.456   0.019  -0.237
    1UNL    C22   36   0.441  -0.032  -0.109
    1UNL     N2   37   0.516  -0.138  -0.060
    1UNL    C23   38   0.611  -0.198  -0.143
    1UNL    C24   39   0.687  -0.306  -0.099
    1UNL    C25   40   0.792  -0.354  -0.181
    1UNL    O14   41   0.883  -0.442  -0.131
    1UNL    C26   42   0.812  -0.298  -0.309
    1UNL    C27   43   0.741  -0.190  -0.350
    1UNL    C28   44   0.636  -0.139  -0.268
    1UNL    C29   45   0.556  -0.031  -0.321
    1UNL    O15   46   0.566   0.019  -0.432
    1UNL    C30   47   0.315   0.027  -0.055
    1UNL    C31   48   0.325   0.074   0.090
    1UNL    C32   49   0.186   0.157   0.128
    1UNL     H1   50   0.032  -0.272   0.205
    1UNL     H2   51   0.074  -0.168   0.345
    1UNL     H3   52   0.062  -0.090   0.056
    1UNL     H4   53   0.141   0.050   0.318
    1UNL     H5   54  -0.012   0.209   0.340
    1UNL     H6   55  -0.328   0.061   0.339
    1UNL     H7   56  -0.354   0.438   0.364
    1UNL     H8   57  -0.526   0.183   0.370
    1UNL     H9   58  -0.470   0.275   0.510
    1UNL    H10   59  -0.657   0.353   0.305
    1UNL    H11   60  -0.501   0.424   0.163
    1UNL    H12   61  -0.218   0.363   0.121
    1UNL    H13   62  -0.436   0.231   0.005
    1UNL    H14   63  -0.573   0.071   0.155
    1UNL    H15   64  -0.248   0.141   0.050
    1UNL    H16   65  -0.484   0.002  -0.038
    1UNL    H17   66  -0.143  -0.027  -0.018
    1UNL    H18   67   0.000  -0.073  -0.222
    1UNL    H19   68  -0.086   0.056  -0.266
    1UNL    H20   69  -0.244  -0.060  -0.383
    1UNL    H21   70  -0.167  -0.264   0.007
    1UNL    H22   71  -0.112  -0.274  -0.258
    1UNL    H23   72  -0.371  -0.240  -0.214
    1UNL    H24   73  -0.268  -0.452  -0.132
    1UNL    H25   74  -0.427  -0.241   0.085
    1UNL    H26   75  -0.565  -0.337  -0.052
    1UNL    H27   76  -0.066   0.311  -0.039
    1UNL    H28   77   0.392   0.207  -0.310
    1UNL    H29   78   0.288   0.077  -0.358
    1UNL    H30   79   0.500  -0.173   0.030
    1UNL    H31   80   0.661  -0.357  -0.009
    1UNL    H32   81   0.928  -0.489  -0.207
    1UNL    H33   82   0.899  -0.329  -0.362
    1UNL    H34   83   0.769  -0.140  -0.445
    1UNL    H35   84   0.241  -0.056  -0.053
    1UNL    H36   85   0.333  -0.012   0.159
    1UNL    H37   86   0.416   0.131   0.109
    1UNL    H38   87   0.208   0.251   0.180
   0.00000   0.00000   0.00000   0.00000   0.00000   0.00000   0.00000   0.00000   0.00000
Generated with MDTraj, t= 24.0
 87
    1UNL     C1    1   0.093  -0.157   0.212
    1UNL     C2    2   0.085  -0.040   0.152
    1UNL     C3    3   0.095   0.090   0.230
    1UNL     C4    4  -0.044   0.154   0.245
    1UNL     O1    5  -0.147   0.058   0.292
    1UNL     C5    6  -0.284   0.125   0.284
    1UNL     O2    7  -0.267   0.252   0.334
    1UNL     C6    8  -0.391   0.326   0.318
    1UNL     C7    9  -0.510   0.274   0.401
    1UNL     O3   10  -0.614   0.369   0.396
    1UNL     C8   11  -0.432   0.352   0.168
    1UNL     O4   12  -0.322   0.420   0.109
    1UNL     C9   13  -0.448   0.210   0.101
    1UNL     O5   14  -0.576   0.164   0.140
    1UNL    C10   15  -0.336   0.110   0.136
    1UNL     O6   16  -0.381  -0.023   0.117
    1UNL    C11   17  -0.412  -0.049  -0.023
    1UNL     O7   18  -0.297  -0.010  -0.112
    1UNL    C12   19  -0.173  -0.068  -0.081
    1UNL    C13   20  -0.085  -0.039  -0.197
    1UNL     O8   21  -0.142  -0.094  -0.313
    1UNL    C14   22  -0.181  -0.225  -0.060
    1UNL     O9   23  -0.093  -0.300  -0.127
    1UNL    C15   24  -0.320  -0.277  -0.106
    1UNL    O10   25  -0.325  -0.421  -0.084
    1UNL    C16   26  -0.442  -0.200  -0.031
    1UNL    O11   27  -0.566  -0.229  -0.095
    1UNL    O12   28  -0.103   0.225   0.124
    1UNL    C17   29  -0.014   0.247   0.021
    1UNL    C18   30   0.119   0.218   0.012
    1UNL    C19   31   0.174   0.221  -0.116
    1UNL    O13   32   0.131   0.286  -0.208
    1UNL     N1   33   0.291   0.141  -0.135
    1UNL    C20   34   0.366   0.133  -0.255
    1UNL    C21   35   0.464   0.023  -0.233
    1UNL    C22   36   0.452  -0.027  -0.106
    1UNL     N2   37   0.530  -0.137  -0.068
    1UNL    C23   38   0.630  -0.192  -0.155
    1UNL    C24   39   0.706  -0.298  -0.111
    1UNL    C25   40   0.792  -0.369  -0.196
    1UNL    O14   41   0.848  -0.488  -0.151
    1UNL    C26   42   0.802  -0.325  -0.331
    1UNL    C27   43   0.739  -0.210  -0.370
    1UNL    C28   44   0.641  -0.149  -0.290
    1UNL    C29   45   0.557  -0.036  -0.333
    1UNL    O15   46   0.552   0.010  -0.447
    1UNL    C30   47   0.323   0.031  -0.040
    1UNL    C31   48   0.324   0.093   0.103
    1UNL    C32   49   0.188   0.178   0.141
    1UNL     H1   50   0.092  -0.249   0.161
    1UNL     H2   51   0.086  -0.158   0.326
    1UNL     H3   52   0.064  -0.042   0.045
    1UNL     H4   53   0.150   0.078   0.324
    1UNL     H5   54  -0.038   0.234   0.323
    1UNL     H6   55  -0.351   0.062   0.347
    1UNL     H7   56  -0.351   0.423   0.357
    1UNL     H8   57  -0.556   0.183   0.365
    1UNL     H9   58  -0.488   0.249   0.509
    1UNL    H10   59  -0.660   0.374   0.311
    1UNL    H11   60  -0.530   0.409   0.155
    1UNL    H12   61  -0.240   0.372   0.130
    1UNL    H13   62  -0.448   0.234  -0.007
    1UNL    H14   63  -0.577   0.066   0.149
    1UNL    H15   64  -0.254   0.126   0.070
    1UNL    H16   65  -0.492   0.008  -0.059
    1UNL    H17   66  -0.147  -0.017   0.013
    1UNL    H18   67   0.018  -0.069  -0.190
    1UNL    H19   68  -0.067   0.067  -0.210
    1UNL    H20   69  -0.221  -0.049  -0.336
    1UNL    H21   70  -0.169  -0.257   0.041
    1UNL    H22   71  -0.102  -0.287  -0.228
    1UNL    H23   72  -0.325  -0.266  -0.216
    1UNL    H24   73  -0.232  -0.452  -0.048
    1UNL    H25   74  -0.459  -0.236   0.062
    1UNL    H26   75  -0.589  -0.324  -0.099
    1UNL    H27   76  -0.067   0.288  -0.062
    1UNL    H28   77   0.413   0.228  -0.279
    1UNL    H29   78   0.307   0.111  -0.344
    1UNL    H30   79   0.512  -0.192   0.022
    1UNL    H31   80   0.667  -0.353  -0.026
    1UNL    H32   81   0.863  -0.550  -0.226
    1UNL    H33   82   0.852  -0.388  -0.402
    1UNL    H34   83   0.746  -0.173  -0.465
    1UNL    H35   84   0.244  -0.044  -0.054
    1UNL    H36   85   0.341   0.012   0.175
    1UNL    H37   86   0.407   0.162   0.124
    1UNL    H38   87   0.222   0.261   0.200
   0.00000   0.00000   0.00000   0.00000   0.00000   0.00000   0.00000   0.00000   0.00000
Generated with MDTraj, t= 25.0
 87
    1UNL     C1    1   0.070  -0.180   0.231
    1UNL     C2    2   0.074  -0.070   0.155
    1UNL     C3    3   0.082   0.070   0.199
    1UNL     C4    4  -0.050   0.152   0.218
    1UNL     O1    5  -0.155   0.065   0.260
    1UNL     C5    6  -0.284   0.130   0.270
    1UNL     O2    7  -0.276   0.262   0.317
    1UNL     C6    8  -0.401   0.333   0.323
    1UNL     C7    9  -0.505   0.279   0.423
    1UNL     O3   10  -0.626   0.346   0.412
    1UNL     C8   11  -0.448   0.342   0.181
    1UNL     O4   12  -0.335   0.396   0.110
    1UNL     C9   13  -0.482   0.204   0.119
    1UNL     O5   14  -0.588   0.142   0.187
    1UNL    C10   15  -0.353   0.110   0.128
    1UNL     O6   16  -0.383  -0.023   0.102
    1UNL    C11   17  -0.405  -0.054  -0.029
    1UNL     O7   18  -0.289  -0.005  -0.106
    1UNL    C12   19  -0.174  -0.061  -0.056
    1UNL    C13   20  -0.075  -0.018  -0.165
    1UNL     O8   21  -0.092  -0.087  -0.285
    1UNL    C14   22  -0.184  -0.218  -0.030
    1UNL     O9   23  -0.063  -0.289  -0.075
    1UNL    C15   24  -0.308  -0.275  -0.099
    1UNL    O10   25  -0.314  -0.415  -0.070
    1UNL    C16   26  -0.440  -0.199  -0.052
    1UNL    O11   27  -0.543  -0.213  -0.147
    1UNL    O12   28  -0.086   0.243   0.120
    1UNL    C17   29  -0.006   0.259   0.008
    1UNL    C18   30   0.117   0.210  -0.010
    1UNL    C19   31   0.181   0.223  -0.136
    1UNL    O13   32   0.135   0.287  -0.230
    1UNL     N1   33   0.308   0.158  -0.140
    1UNL    C20   34   0.383   0.145  -0.267
    1UNL    C21   35   0.484   0.039  -0.232
    1UNL    C22   36   0.464  -0.011  -0.104
    1UNL     N2   37   0.535  -0.122  -0.064
    1UNL    C23   38   0.619  -0.194  -0.147
    1UNL    C24   39   0.683  -0.310  -0.109
    1UNL    C25   40   0.759  -0.386  -0.198
    1UNL    O14   41   0.833  -0.499  -0.161
    1UNL    C26   42   0.768  -0.340  -0.333
    1UNL    C27   43   0.700  -0.229  -0.376
    1UNL    C28   44   0.626  -0.152  -0.282
    1UNL    C29   45   0.567  -0.025  -0.328
    1UNL    O15   46   0.586   0.010  -0.444
    1UNL    C30   47   0.337   0.046  -0.051
    1UNL    C31   48   0.329   0.093   0.094
    1UNL    C32   49   0.184   0.165   0.114
    1UNL     H1   50   0.073  -0.279   0.200
    1UNL     H2   51   0.058  -0.156   0.340
    1UNL     H3   52   0.082  -0.076   0.052
    1UNL     H4   53   0.128   0.068   0.299
    1UNL     H5   54  -0.052   0.213   0.308
    1UNL     H6   55  -0.341   0.073   0.346
    1UNL     H7   56  -0.367   0.436   0.353
    1UNL     H8   57  -0.511   0.171   0.419
    1UNL     H9   58  -0.474   0.290   0.530
    1UNL    H10   59  -0.670   0.324   0.332
    1UNL    H11   60  -0.543   0.405   0.172
    1UNL    H12   61  -0.254   0.344   0.131
    1UNL    H13   62  -0.514   0.209   0.010
    1UNL    H14   63  -0.561   0.048   0.188
    1UNL    H15   64  -0.277   0.134   0.055
    1UNL    H16   65  -0.489   0.002  -0.056
    1UNL    H17   66  -0.152  -0.007   0.034
    1UNL    H18   67   0.030  -0.023  -0.141
    1UNL    H19   68  -0.070   0.090  -0.195
    1UNL    H20   69  -0.172  -0.052  -0.333
    1UNL    H21   70  -0.181  -0.233   0.077
    1UNL    H22   71  -0.033  -0.251  -0.157
    1UNL    H23   72  -0.305  -0.263  -0.208
    1UNL    H24   73  -0.239  -0.462  -0.036
    1UNL    H25   74  -0.471  -0.236   0.037
    1UNL    H26   75  -0.563  -0.305  -0.160
    1UNL    H27   76  -0.054   0.318  -0.081
    1UNL    H28   77   0.420   0.241  -0.306
    1UNL    H29   78   0.316   0.109  -0.349
    1UNL    H30   79   0.522  -0.149   0.042
    1UNL    H31   80   0.682  -0.348  -0.008
    1UNL    H32   81   0.858  -0.542  -0.243
    1UNL    H33   82   0.829  -0.400  -0.400
    1UNL    H34   83   0.725  -0.176  -0.476
    1UNL    H35   84   0.254  -0.027  -0.066
    1UNL    H36   85   0.345   0.010   0.162
    1UNL    H37   86   0.416   0.161   0.113
    1UNL    H38   87   0.213   0.246   0.176
   0.00000   0.00000   0.00000   0.00000   0.00000   0.00000   0.00000   0.00000   0.00000
Generated with MDTraj, t= 26.0
 87
    1UNL     C1    1   0.000  -0.130   0.252
    1UNL     C2    2   0.085  -0.052   0.186
    1UNL     C3    3   0.081   0.092   0.203
    1UNL     C4    4  -0.062   0.158   0.205
    1UNL     O1    5  -0.149   0.061   0.248
    1UNL     C5    6  -0.276   0.111   0.257
    1UNL     O2    7  -0.269   0.243   0.316
    1UNL     C6    8  -0.383   0.325   0.327
    1UNL     C7    9  -0.467   0.278   0.448
    1UNL     O3   10  -0.600   0.314   0.432
    1UNL     C8   11  -0.452   0.332   0.195
    1UNL     O4   12  -0.370   0.410   0.100
    1UNL     C9   13  -0.490   0.194   0.144
    1UNL     O5   14  -0.589   0.130   0.224
    1UNL    C10   15  -0.358   0.110   0.125
    1UNL     O6   16  -0.394  -0.019   0.096
    1UNL    C11   17  -0.401  -0.046  -0.038
    1UNL     O7   18  -0.284   0.013  -0.106
    1UNL    C12   19  -0.162  -0.041  -0.063
    1UNL    C13   20  -0.061  -0.023  -0.178
    1UNL     O8   21  -0.073  -0.123  -0.274
    1UNL    C14   22  -0.175  -0.190  -0.018
    1UNL     O9   23  -0.048  -0.267  -0.032
    1UNL    C15   24  -0.283  -0.262  -0.105
    1UNL    O10   25  -0.298  -0.400  -0.079
    1UNL    C16   26  -0.421  -0.195  -0.077
    1UNL    O11   27  -0.519  -0.222  -0.178
    1UNL    O12   28  -0.110   0.237   0.089
    1UNL    C17   29  -0.019   0.240  -0.016
    1UNL    C18   30   0.114   0.210  -0.005
    1UNL    C19   31   0.180   0.222  -0.136
    1UNL    O13   32   0.134   0.286  -0.231
    1UNL     N1   33   0.301   0.157  -0.151
    1UNL    C20   34   0.384   0.152  -0.275
    1UNL    C21   35   0.476   0.036  -0.247
    1UNL    C22   36   0.454  -0.014  -0.121
    1UNL     N2   37   0.512  -0.126  -0.073
    1UNL    C23   38   0.602  -0.200  -0.155
    1UNL    C24   39   0.658  -0.321  -0.110
    1UNL    C25   40   0.743  -0.392  -0.192
    1UNL    O14   41   0.788  -0.512  -0.147
    1UNL    C26   42   0.767  -0.345  -0.324
    1UNL    C27   43   0.713  -0.230  -0.369
    1UNL    C28   44   0.640  -0.148  -0.280
    1UNL    C29   45   0.584  -0.024  -0.329
    1UNL    O15   46   0.614   0.023  -0.439
    1UNL    C30   47   0.328   0.044  -0.065
    1UNL    C31   48   0.318   0.084   0.085
    1UNL    C32   49   0.185   0.164   0.113
    1UNL     H1   50   0.010  -0.238   0.228
    1UNL     H2   51  -0.064  -0.105   0.330
    1UNL     H3   52   0.160  -0.093   0.118
    1UNL     H4   53   0.117   0.114   0.305
    1UNL     H5   54  -0.073   0.224   0.290
    1UNL     H6   55  -0.328   0.056   0.337
    1UNL     H7   56  -0.347   0.431   0.341
    1UNL     H8   57  -0.454   0.175   0.479
    1UNL     H9   58  -0.422   0.323   0.539
    1UNL    H10   59  -0.647   0.246   0.370
    1UNL    H11   60  -0.550   0.391   0.202
    1UNL    H12   61  -0.284   0.358   0.087
    1UNL    H13   62  -0.541   0.208   0.041
    1UNL    H14   63  -0.574   0.032   0.208
    1UNL    H15   64  -0.298   0.157   0.048
    1UNL    H16   65  -0.490  -0.000  -0.072
    1UNL    H17   66  -0.146   0.013   0.028
    1UNL    H18   67   0.045  -0.008  -0.153
    1UNL    H19   68  -0.062   0.078  -0.231
    1UNL    H20   69  -0.145  -0.094  -0.342
    1UNL    H21   70  -0.211  -0.195   0.087
    1UNL    H22   71  -0.023  -0.245  -0.129
    1UNL    H23   72  -0.263  -0.244  -0.209
    1UNL    H24   73  -0.212  -0.432  -0.039
    1UNL    H25   74  -0.452  -0.235   0.010
    1UNL    H26   75  -0.516  -0.318  -0.192
    1UNL    H27   76  -0.061   0.276  -0.106
    1UNL    H28   77   0.449   0.243  -0.276
    1UNL    H29   78   0.326   0.151  -0.372
    1UNL    H30   79   0.482  -0.171   0.014
    1UNL    H31   80   0.658  -0.340  -0.005
    1UNL    H32   81   0.850  -0.551  -0.208
    1UNL    H33   82   0.837  -0.393  -0.388
    1UNL    H34   83   0.736  -0.195  -0.462
    1UNL    H35   84   0.242  -0.025  -0.075
    1UNL    H36   85   0.343   0.004   0.154
    1UNL    H37   86   0.403   0.155   0.094
    1UNL    H38   87   0.222   0.249   0.164
   0.00000   0.00000   0.00000   0.00000   0.00000   0.00000   0.00000   0.00000   0.00000
Generated with MDTraj, t= 27.0
 87
    1UNL     C1    1   0.062  -0.132   0.257
    1UNL     C2    2   0.062  -0.047   0.155
    1UNL     C3    3   0.078   0.101   0.186
    1UNL     C4    4  -0.063   0.168   0.207
    1UNL     O1    5  -0.152   0.077   0.253
    1UNL     C5    6  -0.281   0.119   0.272
    1UNL     O2    7  -0.268   0.251   0.332
    1UNL     C6    8  -0.386   0.327   0.340
    1UNL     C7    9  -0.463   0.273   0.467
    1UNL     O3   10  -0.602   0.280   0.456
    1UNL     C8   11  -0.460   0.336   0.202
    1UNL     O4   12  -0.387   0.416   0.113
    1UNL     C9   13  -0.491   0.194   0.144
    1UNL     O5   14  -0.585   0.131   0.233
    1UNL    C10   15  -0.360   0.111   0.137
    1UNL     O6   16  -0.386  -0.024   0.103
    1UNL    C11   17  -0.397  -0.030  -0.042
    1UNL     O7   18  -0.278   0.014  -0.123
    1UNL    C12   19  -0.152  -0.043  -0.085
    1UNL    C13   20  -0.053  -0.039  -0.197
    1UNL     O8   21  -0.079  -0.140  -0.291
    1UNL    C14   22  -0.166  -0.180  -0.025
    1UNL     O9   23  -0.040  -0.254  -0.032
    1UNL    C15   24  -0.273  -0.258  -0.095
    1UNL    O10   25  -0.273  -0.395  -0.062
    1UNL    C16   26  -0.411  -0.192  -0.078
    1UNL    O11   27  -0.486  -0.209  -0.199
    1UNL    O12   28  -0.119   0.236   0.085
    1UNL    C17   29  -0.032   0.257  -0.022
    1UNL    C18   30   0.099   0.219  -0.029
    1UNL    C19   31   0.171   0.224  -0.153
    1UNL    O13   32   0.139   0.298  -0.243
    1UNL     N1   33   0.283   0.144  -0.161
    1UNL    C20   34   0.383   0.143  -0.269
    1UNL    C21   35   0.473   0.025  -0.239
    1UNL    C22   36   0.430  -0.032  -0.123
    1UNL     N2   37   0.490  -0.149  -0.078
    1UNL    C23   38   0.594  -0.211  -0.148
    1UNL    C24   39   0.638  -0.339  -0.112
    1UNL    C25   40   0.731  -0.407  -0.193
    1UNL    O14   41   0.764  -0.535  -0.162
    1UNL    C26   42   0.792  -0.334  -0.299
    1UNL    C27   43   0.747  -0.208  -0.333
    1UNL    C28   44   0.648  -0.143  -0.263
    1UNL    C29   45   0.582  -0.025  -0.321
    1UNL    O15   46   0.623   0.023  -0.427
    1UNL    C30   47   0.307   0.035  -0.067
    1UNL    C31   48   0.307   0.105   0.067
    1UNL    C32   49   0.174   0.178   0.089
    1UNL     H1   50   0.045  -0.244   0.234
    1UNL     H2   51   0.069  -0.105   0.358
    1UNL     H3   52   0.075  -0.091   0.055
    1UNL     H4   53   0.128   0.115   0.284
    1UNL     H5   54  -0.056   0.253   0.274
    1UNL     H6   55  -0.329   0.056   0.346
    1UNL     H7   56  -0.360   0.432   0.363
    1UNL     H8   57  -0.421   0.175   0.487
    1UNL     H9   58  -0.432   0.319   0.562
    1UNL    H10   59  -0.630   0.216   0.393
    1UNL    H11   60  -0.559   0.389   0.222
    1UNL    H12   61  -0.293   0.379   0.111
    1UNL    H13   62  -0.546   0.209   0.043
    1UNL    H14   63  -0.598   0.039   0.209
    1UNL    H15   64  -0.295   0.154   0.058
    1UNL    H16   65  -0.490   0.009  -0.080
    1UNL    H17   66  -0.129   0.012   0.004
    1UNL    H18   67   0.053  -0.040  -0.170
    1UNL    H19   68  -0.044   0.067  -0.238
    1UNL    H20   69  -0.157  -0.111  -0.346
    1UNL    H21   70  -0.196  -0.185   0.086
    1UNL    H22   71  -0.031  -0.283  -0.121
    1UNL    H23   72  -0.244  -0.252  -0.197
    1UNL    H24   73  -0.184  -0.401  -0.011
    1UNL    H25   74  -0.453  -0.237   0.002
    1UNL    H26   75  -0.479  -0.304  -0.228
    1UNL    H27   76  -0.096   0.282  -0.099
    1UNL    H28   77   0.443   0.239  -0.278
    1UNL    H29   78   0.324   0.123  -0.364
    1UNL    H30   79   0.446  -0.201  -0.012
    1UNL    H31   80   0.594  -0.395  -0.029
    1UNL    H32   81   0.853  -0.556  -0.194
    1UNL    H33   82   0.878  -0.385  -0.344
    1UNL    H34   83   0.785  -0.158  -0.425
    1UNL    H35   84   0.220  -0.033  -0.059
    1UNL    H36   85   0.321   0.029   0.143
    1UNL    H37   86   0.395   0.173   0.079
    1UNL    H38   87   0.202   0.265   0.143
   0.00000   0.00000   0.00000   0.00000   0.00000   0.00000   0.00000   0.00000   0.00000
Generated with MDTraj, t= 28.0
 87
    1UNL     C1    1   0.143  -0.141   0.234
    1UNL     C2    2   0.083  -0.050   0.156
    1UNL     C3    3   0.098   0.095   0.177
    1UNL     C4    4  -0.046   0.170   0.199
    1UNL     O1    5  -0.138   0.074   0.247
    1UNL     C5    6  -0.267   0.123   0.269
    1UNL     O2    7  -0.269   0.258   0.328
    1UNL     C6    8  -0.401   0.315   0.350
    1UNL     C7    9  -0.486   0.250   0.465
    1UNL     O3   10  -0.620   0.267   0.442
    1UNL     C8   11  -0.476   0.328   0.210
    1UNL     O4   12  -0.391   0.407   0.132
    1UNL     C9   13  -0.486   0.190   0.141
    1UNL     O5   14  -0.580   0.102   0.205
    1UNL    C10   15  -0.349   0.127   0.130
    1UNL     O6   16  -0.365  -0.017   0.098
    1UNL    C11   17  -0.390  -0.032  -0.039
    1UNL     O7   18  -0.296   0.015  -0.125
    1UNL    C12   19  -0.155  -0.027  -0.094
    1UNL    C13   20  -0.062  -0.027  -0.215
    1UNL     O8   21  -0.118  -0.113  -0.307
    1UNL    C14   22  -0.159  -0.173  -0.028
    1UNL     O9   23  -0.039  -0.242  -0.064
    1UNL    C15   24  -0.274  -0.260  -0.076
    1UNL    O10   25  -0.283  -0.381  -0.014
    1UNL    C16   26  -0.409  -0.188  -0.066
    1UNL    O11   27  -0.487  -0.191  -0.180
    1UNL    O12   28  -0.092   0.263   0.102
    1UNL    C17   29  -0.023   0.267  -0.016
    1UNL    C18   30   0.101   0.220  -0.036
    1UNL    C19   31   0.161   0.213  -0.167
    1UNL    O13   32   0.132   0.291  -0.256
    1UNL     N1   33   0.262   0.119  -0.181
    1UNL    C20   34   0.370   0.127  -0.275
    1UNL    C21   35   0.469   0.025  -0.226
    1UNL    C22   36   0.414  -0.048  -0.125
    1UNL     N2   37   0.469  -0.164  -0.083
    1UNL    C23   38   0.577  -0.222  -0.147
    1UNL    C24   39   0.615  -0.352  -0.114
    1UNL    C25   40   0.726  -0.403  -0.183
    1UNL    O14   41   0.778  -0.530  -0.149
    1UNL    C26   42   0.787  -0.334  -0.286
    1UNL    C27   43   0.747  -0.208  -0.318
    1UNL    C28   44   0.637  -0.149  -0.252
    1UNL    C29   45   0.584  -0.018  -0.299
    1UNL    O15   46   0.639   0.048  -0.387
    1UNL    C30   47   0.292   0.030  -0.075
    1UNL    C31   48   0.321   0.107   0.049
    1UNL    C32   49   0.186   0.176   0.082
    1UNL     H1   50   0.157  -0.243   0.215
    1UNL     H2   51   0.192  -0.098   0.317
    1UNL     H3   52   0.022  -0.083   0.079
    1UNL     H4   53   0.135   0.100   0.281
    1UNL     H5   54  -0.044   0.244   0.284
    1UNL     H6   55  -0.315   0.052   0.334
    1UNL     H7   56  -0.382   0.418   0.379
    1UNL     H8   57  -0.456   0.146   0.472
    1UNL     H9   58  -0.448   0.286   0.559
    1UNL    H10   59  -0.642   0.200   0.367
    1UNL    H11   60  -0.572   0.385   0.220
    1UNL    H12   61  -0.300   0.377   0.138
    1UNL    H13   62  -0.519   0.205   0.029
    1UNL    H14   63  -0.576   0.011   0.159
    1UNL    H15   64  -0.280   0.160   0.049
    1UNL    H16   65  -0.481   0.022  -0.070
    1UNL    H17   66  -0.115   0.042  -0.022
    1UNL    H18   67   0.043  -0.054  -0.196
    1UNL    H19   68  -0.030   0.068  -0.264
    1UNL    H20   69  -0.211  -0.093  -0.314
    1UNL    H21   70  -0.160  -0.163   0.088
    1UNL    H22   71  -0.048  -0.259  -0.165
    1UNL    H23   72  -0.273  -0.277  -0.180
    1UNL    H24   73  -0.200  -0.405   0.025
    1UNL    H25   74  -0.456  -0.229   0.015
    1UNL    H26   75  -0.474  -0.281  -0.224
    1UNL    H27   76  -0.081   0.310  -0.107
    1UNL    H28   77   0.409   0.235  -0.276
    1UNL    H29   78   0.328   0.094  -0.375
    1UNL    H30   79   0.439  -0.205   0.000
    1UNL    H31   80   0.548  -0.414  -0.060
    1UNL    H32   81   0.874  -0.521  -0.169
    1UNL    H33   82   0.860  -0.381  -0.347
    1UNL    H34   83   0.783  -0.158  -0.409
    1UNL    H35   84   0.206  -0.038  -0.057
    1UNL    H36   85   0.361   0.046   0.130
    1UNL    H37   86   0.399   0.184   0.028
    1UNL    H38   87   0.208   0.257   0.148
   0.00000   0.00000   0.00000   0.00000   0.00000   0.00000   0.00000   0.00000   0.00000
Generated with MDTraj, t= 29.0
 87
    1UNL     C1    1   0.179  -0.106   0.223
    1UNL     C2    2   0.095  -0.016   0.173
    1UNL     C3    3   0.107   0.130   0.203
    1UNL     C4    4  -0.040   0.187   0.221
    1UNL     O1    5  -0.119   0.075   0.259
    1UNL     C5    6  -0.255   0.120   0.264
    1UNL     O2    7  -0.263   0.251   0.327
    1UNL     C6    8  -0.396   0.296   0.354
    1UNL     C7    9  -0.494   0.206   0.431
    1UNL     O3   10  -0.625   0.247   0.425
    1UNL     C8   11  -0.447   0.326   0.208
    1UNL     O4   12  -0.352   0.409   0.145
    1UNL     C9   13  -0.466   0.194   0.134
    1UNL     O5   14  -0.568   0.111   0.190
    1UNL    C10   15  -0.339   0.116   0.131
    1UNL     O6   16  -0.371  -0.020   0.098
    1UNL    C11   17  -0.407  -0.029  -0.038
    1UNL     O7   18  -0.312   0.025  -0.124
    1UNL    C12   19  -0.168  -0.023  -0.117
    1UNL    C13   20  -0.108  -0.012  -0.251
    1UNL     O8   21  -0.163  -0.099  -0.335
    1UNL    C14   22  -0.165  -0.163  -0.046
    1UNL     O9   23  -0.033  -0.214  -0.061
    1UNL    C15   24  -0.279  -0.260  -0.089
    1UNL    O10   25  -0.287  -0.376  -0.013
    1UNL    C16   26  -0.419  -0.190  -0.059
    1UNL    O11   27  -0.499  -0.205  -0.167
    1UNL    O12   28  -0.091   0.264   0.114
    1UNL    C17   29  -0.025   0.256  -0.001
    1UNL    C18   30   0.103   0.215  -0.017
    1UNL    C19   31   0.148   0.208  -0.157
    1UNL    O13   32   0.105   0.288  -0.240
    1UNL     N1   33   0.243   0.107  -0.189
    1UNL    C20   34   0.359   0.124  -0.282
    1UNL    C21   35   0.456   0.012  -0.245
    1UNL    C22   36   0.411  -0.053  -0.133
    1UNL     N2   37   0.468  -0.170  -0.086
    1UNL    C23   38   0.586  -0.222  -0.143
    1UNL    C24   39   0.637  -0.347  -0.103
    1UNL    C25   40   0.746  -0.406  -0.166
    1UNL    O14   41   0.786  -0.533  -0.129
    1UNL    C26   42   0.802  -0.336  -0.274
    1UNL    C27   43   0.748  -0.217  -0.318
    1UNL    C28   44   0.642  -0.159  -0.255
    1UNL    C29   45   0.584  -0.028  -0.303
    1UNL    O15   46   0.640   0.048  -0.380
    1UNL    C30   47   0.284   0.017  -0.082
    1UNL    C31   48   0.314   0.101   0.047
    1UNL    C32   49   0.191   0.188   0.095
    1UNL     H1   50   0.143  -0.206   0.229
    1UNL     H2   51   0.266  -0.080   0.297
    1UNL     H3   52   0.008  -0.051   0.118
    1UNL     H4   53   0.167   0.132   0.296
    1UNL     H5   54  -0.042   0.255   0.313
    1UNL     H6   55  -0.303   0.053   0.331
    1UNL     H7   56  -0.383   0.390   0.409
    1UNL     H8   57  -0.479   0.101   0.404
    1UNL     H9   58  -0.465   0.205   0.536
    1UNL    H10   59  -0.662   0.235   0.337
    1UNL    H11   60  -0.539   0.388   0.213
    1UNL    H12   61  -0.260   0.363   0.140
    1UNL    H13   62  -0.498   0.216   0.024
    1UNL    H14   63  -0.576   0.027   0.147
    1UNL    H15   64  -0.266   0.155   0.055
    1UNL    H16   65  -0.503   0.024  -0.064
    1UNL    H17   66  -0.124   0.055  -0.057
    1UNL    H18   67  -0.001  -0.026  -0.269
    1UNL    H19   68  -0.109   0.089  -0.290
    1UNL    H20   69  -0.258  -0.090  -0.336
    1UNL    H21   70  -0.171  -0.137   0.067
    1UNL    H22   71  -0.029  -0.280  -0.137
    1UNL    H23   72  -0.271  -0.283  -0.192
    1UNL    H24   73  -0.202  -0.398   0.023
    1UNL    H25   74  -0.459  -0.230   0.028
    1UNL    H26   75  -0.491  -0.297  -0.203
    1UNL    H27   76  -0.080   0.282  -0.092
    1UNL    H28   77   0.414   0.224  -0.264
    1UNL    H29   78   0.339   0.111  -0.394
    1UNL    H30   79   0.402  -0.233  -0.031
    1UNL    H31   80   0.590  -0.401  -0.022
    1UNL    H32   81   0.873  -0.555  -0.175
    1UNL    H33   82   0.875  -0.394  -0.332
    1UNL    H34   83   0.783  -0.176  -0.407
    1UNL    H35   84   0.209  -0.065  -0.077
    1UNL    H36   85   0.348   0.032   0.125
    1UNL    H37   86   0.404   0.165   0.034
    1UNL    H38   87   0.237   0.279   0.133
   0.00000   0.00000   0.00000   0.00000   0.00000   0.00000   0.00000   0.00000   0.00000
Generated with MDTraj, t= 30.0
 87
    1UNL     C1    1   0.189  -0.112   0.265
    1UNL     C2    2   0.100  -0.044   0.196
    1UNL     C3    3   0.102   0.111   0.207
    1UNL     C4    4  -0.038   0.165   0.232
    1UNL     O1    5  -0.124   0.056   0.249
    1UNL     C5    6  -0.255   0.104   0.266
    1UNL     O2    7  -0.260   0.226   0.343
    1UNL     C6    8  -0.386   0.288   0.359
    1UNL     C7    9  -0.491   0.220   0.437
    1UNL     O3   10  -0.628   0.266   0.425
    1UNL     C8   11  -0.431   0.334   0.216
    1UNL     O4   12  -0.336   0.426   0.170
    1UNL     C9   13  -0.447   0.216   0.123
    1UNL     O5   14  -0.564   0.145   0.160
    1UNL    C10   15  -0.329   0.112   0.131
    1UNL     O6   16  -0.382  -0.014   0.100
    1UNL    C11   17  -0.398  -0.034  -0.038
    1UNL     O7   18  -0.316   0.037  -0.129
    1UNL    C12   19  -0.171  -0.016  -0.133
    1UNL    C13   20  -0.139  -0.022  -0.287
    1UNL     O8   21  -0.234  -0.108  -0.347
    1UNL    C14   22  -0.156  -0.146  -0.052
    1UNL     O9   23  -0.025  -0.205  -0.059
    1UNL    C15   24  -0.260  -0.250  -0.104
    1UNL    O10   25  -0.253  -0.384  -0.058
    1UNL    C16   26  -0.402  -0.186  -0.073
    1UNL    O11   27  -0.502  -0.213  -0.169
    1UNL    O12   28  -0.079   0.259   0.132
    1UNL    C17   29  -0.021   0.269   0.008
    1UNL    C18   30   0.101   0.216  -0.026
    1UNL    C19   31   0.146   0.199  -0.165
    1UNL    O13   32   0.096   0.259  -0.260
    1UNL     N1   33   0.247   0.098  -0.181
    1UNL    C20   34   0.348   0.110  -0.283
    1UNL    C21   35   0.457   0.016  -0.237
    1UNL    C22   36   0.424  -0.040  -0.119
    1UNL     N2   37   0.474  -0.157  -0.070
    1UNL    C23   38   0.575  -0.216  -0.136
    1UNL    C24   39   0.636  -0.339  -0.092
    1UNL    C25   40   0.751  -0.391  -0.153
    1UNL    O14   41   0.808  -0.509  -0.113
    1UNL    C26   42   0.809  -0.314  -0.254
    1UNL    C27   43   0.741  -0.208  -0.316
    1UNL    C28   44   0.627  -0.154  -0.254
    1UNL    C29   45   0.565  -0.039  -0.313
    1UNL    O15   46   0.587   0.000  -0.427
    1UNL    C30   47   0.298   0.018  -0.066
    1UNL    C31   48   0.314   0.107   0.059
    1UNL    C32   49   0.182   0.178   0.092
    1UNL     H1   50   0.200  -0.210   0.240
    1UNL     H2   51   0.228  -0.068   0.354
    1UNL     H3   52   0.055  -0.092   0.109
    1UNL     H4   53   0.161   0.126   0.297
    1UNL     H5   54  -0.042   0.207   0.337
    1UNL     H6   55  -0.313   0.035   0.323
    1UNL     H7   56  -0.356   0.378   0.415
    1UNL     H8   57  -0.493   0.112   0.409
    1UNL     H9   58  -0.474   0.215   0.545
    1UNL    H10   59  -0.676   0.227   0.345
    1UNL    H11   60  -0.526   0.383   0.232
    1UNL    H12   61  -0.253   0.373   0.164
    1UNL    H13   62  -0.466   0.250   0.016
    1UNL    H14   63  -0.566   0.050   0.125
    1UNL    H15   64  -0.249   0.143   0.059
    1UNL    H16   65  -0.504   0.001  -0.066
    1UNL    H17   66  -0.114   0.055  -0.076
    1UNL    H18   67  -0.033  -0.047  -0.302
    1UNL    H19   68  -0.137   0.073  -0.337
    1UNL    H20   69  -0.324  -0.074  -0.313
    1UNL    H21   70  -0.172  -0.126   0.061
    1UNL    H22   71   0.019  -0.187  -0.142
    1UNL    H23   72  -0.242  -0.274  -0.207
    1UNL    H24   73  -0.155  -0.409  -0.036
    1UNL    H25   74  -0.439  -0.229   0.018
    1UNL    H26   75  -0.495  -0.295  -0.219
    1UNL    H27   76  -0.089   0.313  -0.053
    1UNL    H28   77   0.386   0.219  -0.290
    1UNL    H29   78   0.308   0.082  -0.386
    1UNL    H30   79   0.445  -0.191   0.031
    1UNL    H31   80   0.611  -0.369   0.008
    1UNL    H32   81   0.883  -0.539  -0.174
    1UNL    H33   82   0.899  -0.349  -0.299
    1UNL    H34   83   0.788  -0.149  -0.403
    1UNL    H35   84   0.227  -0.067  -0.064
    1UNL    H36   85   0.347   0.040   0.142
    1UNL    H37   86   0.399   0.176   0.051
    1UNL    H38   87   0.211   0.278   0.130
   0.00000   0.00000   0.00000   0.00000   0.00000   0.00000   0.00000   0.00000   0.00000
Generated with MDTraj, t= 31.0
 87
    1UNL     C1    1   0.149  -0.130   0.293
    1UNL     C2    2   0.104  -0.051   0.200
    1UNL     C3    3   0.105   0.099   0.218
    1UNL     C4    4  -0.045   0.154   0.245
    1UNL     O1    5  -0.137   0.041   0.259
    1UNL     C5    6  -0.270   0.092   0.271
    1UNL     O2    7  -0.258   0.215   0.352
    1UNL     C6    8  -0.378   0.295   0.366
    1UNL     C7    9  -0.487   0.219   0.438
    1UNL     O3   10  -0.617   0.274   0.419
    1UNL     C8   11  -0.414   0.338   0.214
    1UNL     O4   12  -0.307   0.417   0.154
    1UNL     C9   13  -0.446   0.215   0.131
    1UNL     O5   14  -0.571   0.161   0.170
    1UNL    C10   15  -0.329   0.106   0.128
    1UNL     O6   16  -0.392  -0.008   0.085
    1UNL    C11   17  -0.391  -0.029  -0.049
    1UNL     O7   18  -0.297   0.049  -0.138
    1UNL    C12   19  -0.166  -0.009  -0.153
    1UNL    C13   20  -0.158  -0.018  -0.305
    1UNL     O8   21  -0.272  -0.084  -0.360
    1UNL    C14   22  -0.143  -0.135  -0.072
    1UNL     O9   23  -0.013  -0.200  -0.092
    1UNL    C15   24  -0.252  -0.237  -0.109
    1UNL    O10   25  -0.223  -0.357  -0.048
    1UNL    C16   26  -0.397  -0.176  -0.075
    1UNL    O11   27  -0.480  -0.202  -0.190
    1UNL    O12   28  -0.081   0.260   0.154
    1UNL    C17   29  -0.032   0.254   0.023
    1UNL    C18   30   0.087   0.202  -0.014
    1UNL    C19   31   0.133   0.183  -0.155
    1UNL    O13   32   0.081   0.230  -0.254
    1UNL     N1   33   0.242   0.098  -0.170
    1UNL    C20   34   0.319   0.076  -0.289
    1UNL    C21   35   0.432  -0.011  -0.245
    1UNL    C22   36   0.416  -0.046  -0.116
    1UNL     N2   37   0.501  -0.132  -0.051
    1UNL    C23   38   0.593  -0.202  -0.129
    1UNL    C24   39   0.681  -0.293  -0.069
    1UNL    C25   40   0.776  -0.365  -0.142
    1UNL    O14   41   0.852  -0.470  -0.090
    1UNL    C26   42   0.797  -0.331  -0.278
    1UNL    C27   43   0.726  -0.229  -0.337
    1UNL    C28   44   0.619  -0.171  -0.264
    1UNL    C29   45   0.539  -0.064  -0.324
    1UNL    O15   46   0.556  -0.025  -0.438
    1UNL    C30   47   0.293   0.016  -0.058
    1UNL    C31   48   0.310   0.104   0.063
    1UNL    C32   49   0.180   0.173   0.101
    1UNL     H1   50   0.134  -0.244   0.295
    1UNL     H2   51   0.214  -0.083   0.363
    1UNL     H3   52   0.039  -0.090   0.128
    1UNL     H4   53   0.150   0.117   0.317
    1UNL     H5   54  -0.050   0.203   0.343
    1UNL     H6   55  -0.328   0.016   0.319
    1UNL     H7   56  -0.342   0.390   0.412
    1UNL     H8   57  -0.504   0.113   0.404
    1UNL     H9   58  -0.471   0.214   0.546
    1UNL    H10   59  -0.634   0.268   0.325
    1UNL    H11   60  -0.495   0.409   0.215
    1UNL    H12   61  -0.222   0.369   0.160
    1UNL    H13   62  -0.463   0.242   0.026
    1UNL    H14   63  -0.587   0.078   0.125
    1UNL    H15   64  -0.244   0.128   0.057
    1UNL    H16   65  -0.487   0.026  -0.086
    1UNL    H17   66  -0.102   0.062  -0.105
    1UNL    H18   67  -0.072  -0.079  -0.332
    1UNL    H19   68  -0.127   0.081  -0.343
    1UNL    H20   69  -0.348  -0.041  -0.323
    1UNL    H21   70  -0.158  -0.116   0.039
    1UNL    H22   71   0.014  -0.179  -0.179
    1UNL    H23   72  -0.241  -0.264  -0.213
    1UNL    H24   73  -0.123  -0.368  -0.037
    1UNL    H25   74  -0.439  -0.227   0.013
    1UNL    H26   75  -0.455  -0.283  -0.236
    1UNL    H27   76  -0.096   0.311  -0.051
    1UNL    H28   77   0.353   0.176  -0.334
    1UNL    H29   78   0.245   0.032  -0.364
    1UNL    H30   79   0.470  -0.159   0.046
    1UNL    H31   80   0.680  -0.303   0.038
    1UNL    H32   81   0.882  -0.532  -0.161
    1UNL    H33   82   0.866  -0.385  -0.344
    1UNL    H34   83   0.744  -0.204  -0.433
    1UNL    H35   84   0.226  -0.069  -0.040
    1UNL    H36   85   0.353   0.050   0.150
    1UNL    H37   86   0.388   0.176   0.036
    1UNL    H38   87   0.201   0.273   0.146
   0.00000   0.00000   0.00000   0.00000   0.00000   0.00000   0.00000   0.00000   0.00000
Generated with MDTraj, t= 32.0
 87
    1UNL     C1    1   0.111  -0.148   0.296
    1UNL     C2    2   0.089  -0.055   0.206
    1UNL     C3    3   0.111   0.087   0.237
    1UNL     C4    4  -0.035   0.151   0.259
    1UNL     O1    5  -0.129   0.046   0.273
    1UNL     C5    6  -0.263   0.104   0.280
    1UNL     O2    7  -0.263   0.224   0.350
    1UNL     C6    8  -0.387   0.299   0.357
    1UNL     C7    9  -0.491   0.224   0.435
    1UNL     O3   10  -0.611   0.299   0.425
    1UNL     C8   11  -0.433   0.335   0.213
    1UNL     O4   12  -0.333   0.418   0.158
    1UNL     C9   13  -0.452   0.210   0.126
    1UNL     O5   14  -0.562   0.131   0.163
    1UNL    C10   15  -0.318   0.124   0.134
    1UNL     O6   16  -0.345  -0.007   0.086
    1UNL    C11   17  -0.394  -0.024  -0.049
    1UNL     O7   18  -0.328   0.064  -0.150
    1UNL    C12   19  -0.183   0.025  -0.171
    1UNL    C13   20  -0.164   0.012  -0.320
    1UNL     O8   21  -0.241  -0.083  -0.378
    1UNL    C14   22  -0.144  -0.099  -0.087
    1UNL     O9   23  -0.012  -0.160  -0.117
    1UNL    C15   24  -0.251  -0.221  -0.106
    1UNL    O10   25  -0.226  -0.341  -0.037
    1UNL    C16   26  -0.394  -0.167  -0.093
    1UNL    O11   27  -0.465  -0.172  -0.221
    1UNL    O12   28  -0.075   0.259   0.165
    1UNL    C17   29  -0.028   0.246   0.035
    1UNL    C18   30   0.086   0.182   0.012
    1UNL    C19   31   0.117   0.142  -0.128
    1UNL    O13   32   0.054   0.190  -0.221
    1UNL     N1   33   0.210   0.041  -0.157
    1UNL    C20   34   0.294   0.047  -0.279
    1UNL    C21   35   0.421  -0.027  -0.251
    1UNL    C22   36   0.427  -0.055  -0.116
    1UNL     N2   37   0.529  -0.123  -0.055
    1UNL    C23   38   0.627  -0.186  -0.135
    1UNL    C24   39   0.723  -0.261  -0.071
    1UNL    C25   40   0.803  -0.343  -0.139
    1UNL    O14   41   0.913  -0.406  -0.075
    1UNL    C26   42   0.786  -0.346  -0.283
    1UNL    C27   43   0.703  -0.254  -0.348
    1UNL    C28   44   0.616  -0.182  -0.276
    1UNL    C29   45   0.513  -0.096  -0.342
    1UNL    O15   46   0.512  -0.070  -0.460
    1UNL    C30   47   0.299  -0.015  -0.049
    1UNL    C31   48   0.316   0.090   0.063
    1UNL    C32   49   0.190   0.160   0.118
    1UNL     H1   50   0.086  -0.253   0.279
    1UNL     H2   51   0.166  -0.138   0.382
    1UNL     H3   52   0.041  -0.074   0.105
    1UNL     H4   53   0.166   0.088   0.333
    1UNL     H5   54  -0.023   0.209   0.348
    1UNL     H6   55  -0.321   0.025   0.322
    1UNL     H7   56  -0.364   0.398   0.403
    1UNL     H8   57  -0.511   0.125   0.386
    1UNL     H9   58  -0.475   0.216   0.545
    1UNL    H10   59  -0.665   0.267   0.350
    1UNL    H11   60  -0.525   0.390   0.223
    1UNL    H12   61  -0.242   0.374   0.161
    1UNL    H13   62  -0.478   0.233   0.024
    1UNL    H14   63  -0.547   0.034   0.143
    1UNL    H15   64  -0.236   0.163   0.067
    1UNL    H16   65  -0.503   0.017  -0.052
    1UNL    H17   66  -0.125   0.107  -0.137
    1UNL    H18   67  -0.056  -0.002  -0.349
    1UNL    H19   68  -0.179   0.110  -0.373
    1UNL    H20   69  -0.339  -0.070  -0.350
    1UNL    H21   70  -0.148  -0.058   0.015
    1UNL    H22   71   0.060  -0.084  -0.120
    1UNL    H23   72  -0.235  -0.239  -0.213
    1UNL    H24   73  -0.133  -0.351  -0.029
    1UNL    H25   74  -0.456  -0.230  -0.025
    1UNL    H26   75  -0.449  -0.255  -0.271
    1UNL    H27   76  -0.087   0.280  -0.056
    1UNL    H28   77   0.315   0.156  -0.301
    1UNL    H29   78   0.240   0.008  -0.371
    1UNL    H30   79   0.526  -0.128   0.043
    1UNL    H31   80   0.724  -0.275   0.037
    1UNL    H32   81   0.947  -0.483  -0.123
    1UNL    H33   82   0.847  -0.409  -0.344
    1UNL    H34   83   0.689  -0.254  -0.461
    1UNL    H35   84   0.259  -0.108  -0.007
    1UNL    H36   85   0.366   0.039   0.149
    1UNL    H37   86   0.391   0.161   0.030
    1UNL    H38   87   0.226   0.257   0.163
   0.00000   0.00000   0.00000   0.00000   0.00000   0.00000   0.00000   0.00000   0.00000
Generated with MDTraj, t= 33.0
 87
    1UNL     C1    1   0.068  -0.158   0.302
    1UNL     C2    2   0.076  -0.069   0.205
    1UNL     C3    3   0.107   0.078   0.240
    1UNL     C4    4  -0.029   0.156   0.263
    1UNL     O1    5  -0.136   0.061   0.262
    1UNL     C5    6  -0.263   0.122   0.269
    1UNL     O2    7  -0.269   0.242   0.345
    1UNL     C6    8  -0.396   0.305   0.344
    1UNL     C7    9  -0.503   0.226   0.431
    1UNL     O3   10  -0.623   0.297   0.446
    1UNL     C8   11  -0.431   0.326   0.200
    1UNL     O4   12  -0.325   0.404   0.147
    1UNL     C9   13  -0.463   0.193   0.121
    1UNL     O5   14  -0.555   0.112   0.192
    1UNL    C10   15  -0.326   0.121   0.125
    1UNL     O6   16  -0.342  -0.008   0.080
    1UNL    C11   17  -0.390  -0.010  -0.053
    1UNL     O7   18  -0.330   0.077  -0.142
    1UNL    C12   19  -0.193   0.039  -0.178
    1UNL    C13   20  -0.191   0.038  -0.331
    1UNL     O8   21  -0.234  -0.077  -0.386
    1UNL    C14   22  -0.151  -0.090  -0.105
    1UNL     O9   23  -0.015  -0.127  -0.136
    1UNL    C15   24  -0.251  -0.208  -0.135
    1UNL    O10   25  -0.231  -0.310  -0.044
    1UNL    C16   26  -0.389  -0.152  -0.101
    1UNL    O11   27  -0.464  -0.153  -0.225
    1UNL    O12   28  -0.064   0.260   0.173
    1UNL    C17   29  -0.009   0.250   0.047
    1UNL    C18   30   0.104   0.178   0.016
    1UNL    C19   31   0.126   0.141  -0.122
    1UNL    O13   32   0.049   0.175  -0.212
    1UNL     N1   33   0.224   0.044  -0.140
    1UNL    C20   34   0.262  -0.027  -0.265
    1UNL    C21   35   0.396  -0.089  -0.229
    1UNL    C22   36   0.422  -0.078  -0.096
    1UNL     N2   37   0.544  -0.115  -0.045
    1UNL    C23   38   0.637  -0.178  -0.125
    1UNL    C24   39   0.748  -0.253  -0.079
    1UNL    C25   40   0.846  -0.310  -0.164
    1UNL    O14   41   0.962  -0.370  -0.115
    1UNL    C26   42   0.823  -0.304  -0.298
    1UNL    C27   43   0.711  -0.240  -0.352
    1UNL    C28   44   0.615  -0.178  -0.265
    1UNL    C29   45   0.486  -0.143  -0.325
    1UNL    O15   46   0.463  -0.153  -0.445
    1UNL    C30   47   0.303  -0.017  -0.029
    1UNL    C31   48   0.328   0.081   0.086
    1UNL    C32   49   0.200   0.152   0.129
    1UNL     H1   50   0.068  -0.261   0.279
    1UNL     H2   51   0.071  -0.145   0.415
    1UNL     H3   52   0.071  -0.096   0.106
    1UNL     H4   53   0.162   0.085   0.336
    1UNL     H5   54  -0.033   0.189   0.365
    1UNL     H6   55  -0.319   0.046   0.324
    1UNL     H7   56  -0.386   0.403   0.395
    1UNL     H8   57  -0.530   0.126   0.386
    1UNL     H9   58  -0.451   0.217   0.528
    1UNL    H10   59  -0.683   0.274   0.367
    1UNL    H11   60  -0.517   0.390   0.197
    1UNL    H12   61  -0.239   0.359   0.161
    1UNL    H13   62  -0.504   0.213   0.026
    1UNL    H14   63  -0.556   0.025   0.148
    1UNL    H15   64  -0.267   0.185   0.054
    1UNL    H16   65  -0.499   0.032  -0.051
    1UNL    H17   66  -0.126   0.114  -0.146
    1UNL    H18   67  -0.084   0.044  -0.363
    1UNL    H19   68  -0.218   0.136  -0.379
    1UNL    H20   69  -0.325  -0.090  -0.361
    1UNL    H21   70  -0.169  -0.078  -0.001
    1UNL    H22   71   0.058  -0.069  -0.121
    1UNL    H23   72  -0.237  -0.254  -0.236
    1UNL    H24   73  -0.137  -0.336  -0.027
    1UNL    H25   74  -0.442  -0.220  -0.027
    1UNL    H26   75  -0.456  -0.248  -0.256
    1UNL    H27   76  -0.062   0.299  -0.024
    1UNL    H28   77   0.261   0.043  -0.352
    1UNL    H29   78   0.193  -0.112  -0.288
    1UNL    H30   79   0.564  -0.101   0.047
    1UNL    H31   80   0.760  -0.271   0.025
    1UNL    H32   81   0.998  -0.432  -0.179
    1UNL    H33   82   0.885  -0.357  -0.370
    1UNL    H34   83   0.689  -0.253  -0.457
    1UNL    H35   84   0.242  -0.101   0.004
    1UNL    H36   85   0.382   0.039   0.172
    1UNL    H37   86   0.399   0.156   0.047
    1UNL    H38   87   0.241   0.253   0.167
   0.00000   0.00000   0.00000   0.00000   0.00000   0.00000   0.00000   0.00000   0.00000
Generated with MDTraj, t= 34.0
 87
    1UNL     C1    1   0.045  -0.152   0.290
    1UNL     C2    2   0.087  -0.060   0.209
    1UNL     C3    3   0.103   0.078   0.245
    1UNL     C4    4  -0.035   0.163   0.251
    1UNL     O1    5  -0.137   0.058   0.255
    1UNL     C5    6  -0.272   0.107   0.267
    1UNL     O2    7  -0.263   0.230   0.338
    1UNL     C6    8  -0.380   0.312   0.350
    1UNL     C7    9  -0.482   0.241   0.453
    1UNL     O3   10  -0.608   0.304   0.449
    1UNL     C8   11  -0.434   0.344   0.212
    1UNL     O4   12  -0.339   0.423   0.148
    1UNL     C9   13  -0.457   0.210   0.124
    1UNL     O5   14  -0.568   0.141   0.177
    1UNL    C10   15  -0.332   0.116   0.126
    1UNL     O6   16  -0.371  -0.014   0.083
    1UNL    C11   17  -0.397  -0.014  -0.057
    1UNL     O7   18  -0.330   0.069  -0.140
    1UNL    C12   19  -0.188   0.032  -0.179
    1UNL    C13   20  -0.170   0.039  -0.332
    1UNL     O8   21  -0.272  -0.039  -0.387
    1UNL    C14   22  -0.152  -0.099  -0.115
    1UNL     O9   23  -0.029  -0.157  -0.158
    1UNL    C15   24  -0.261  -0.207  -0.147
    1UNL    O10   25  -0.240  -0.323  -0.066
    1UNL    C16   26  -0.399  -0.158  -0.115
    1UNL    O11   27  -0.505  -0.170  -0.225
    1UNL    O12   28  -0.064   0.269   0.159
    1UNL    C17   29  -0.006   0.248   0.039
    1UNL    C18   30   0.116   0.183   0.022
    1UNL    C19   31   0.151   0.131  -0.106
    1UNL    O13   32   0.110   0.187  -0.208
    1UNL     N1   33   0.219   0.010  -0.119
    1UNL    C20   34   0.270  -0.026  -0.250
    1UNL    C21   35   0.394  -0.103  -0.216
    1UNL    C22   36   0.423  -0.099  -0.085
    1UNL     N2   37   0.543  -0.150  -0.040
    1UNL    C23   38   0.644  -0.196  -0.128
    1UNL    C24   39   0.769  -0.232  -0.081
    1UNL    C25   40   0.869  -0.260  -0.176
    1UNL    O14   41   0.995  -0.287  -0.133
    1UNL    C26   42   0.837  -0.271  -0.314
    1UNL    C27   43   0.707  -0.254  -0.354
    1UNL    C28   44   0.615  -0.204  -0.266
    1UNL    C29   45   0.480  -0.168  -0.309
    1UNL    O15   46   0.433  -0.193  -0.418
    1UNL    C30   47   0.302  -0.048  -0.009
    1UNL    C31   48   0.324   0.067   0.096
    1UNL    C32   49   0.199   0.152   0.137
    1UNL     H1   50   0.007  -0.243   0.261
    1UNL     H2   51   0.035  -0.132   0.397
    1UNL     H3   52   0.066  -0.070   0.100
    1UNL     H4   53   0.146   0.092   0.346
    1UNL     H5   54  -0.048   0.201   0.353
    1UNL     H6   55  -0.317   0.027   0.330
    1UNL     H7   56  -0.356   0.408   0.396
    1UNL     H8   57  -0.481   0.135   0.417
    1UNL     H9   58  -0.441   0.248   0.554
    1UNL    H10   59  -0.666   0.257   0.378
    1UNL    H11   60  -0.522   0.409   0.211
    1UNL    H12   61  -0.253   0.383   0.156
    1UNL    H13   62  -0.475   0.237   0.025
    1UNL    H14   63  -0.580   0.064   0.118
    1UNL    H15   64  -0.255   0.166   0.059
    1UNL    H16   65  -0.504   0.031  -0.062
    1UNL    H17   66  -0.125   0.105  -0.134
    1UNL    H18   67  -0.076  -0.002  -0.376
    1UNL    H19   68  -0.152   0.141  -0.368
    1UNL    H20   69  -0.361  -0.018  -0.341
    1UNL    H21   70  -0.155  -0.094  -0.011
    1UNL    H22   71   0.053  -0.095  -0.164
    1UNL    H23   72  -0.235  -0.227  -0.256
    1UNL    H24   73  -0.142  -0.356  -0.069
    1UNL    H25   74  -0.434  -0.217  -0.023
    1UNL    H26   75  -0.486  -0.252  -0.277
    1UNL    H27   76  -0.050   0.310  -0.043
    1UNL    H28   77   0.296   0.064  -0.308
    1UNL    H29   78   0.197  -0.087  -0.307
    1UNL    H30   79   0.562  -0.168   0.059
    1UNL    H31   80   0.794  -0.204   0.021
    1UNL    H32   81   1.035  -0.360  -0.183
    1UNL    H33   82   0.917  -0.287  -0.383
    1UNL    H34   83   0.680  -0.269  -0.454
    1UNL    H35   84   0.251  -0.137   0.027
    1UNL    H36   85   0.369   0.027   0.188
    1UNL    H37   86   0.400   0.136   0.058
    1UNL    H38   87   0.245   0.250   0.177
   0.00000   0.00000   0.00000   0.00000   0.00000   0.00000   0.00000   0.00000   0.00000
Generated with MDTraj, t= 35.0
 87
    1UNL     C1    1   0.057  -0.178   0.295
    1UNL     C2    2   0.068  -0.081   0.208
    1UNL     C3    3   0.096   0.059   0.237
    1UNL     C4    4  -0.036   0.143   0.249
    1UNL     O1    5  -0.143   0.049   0.252
    1UNL     C5    6  -0.267   0.121   0.272
    1UNL     O2    7  -0.256   0.243   0.344
    1UNL     C6    8  -0.380   0.317   0.352
    1UNL     C7    9  -0.489   0.235   0.427
    1UNL     O3   10  -0.608   0.310   0.446
    1UNL     C8   11  -0.413   0.360   0.209
    1UNL     O4   12  -0.309   0.435   0.153
    1UNL     C9   13  -0.443   0.229   0.124
    1UNL     O5   14  -0.559   0.164   0.183
    1UNL    C10   15  -0.319   0.133   0.131
    1UNL     O6   16  -0.363  -0.001   0.085
    1UNL    C11   17  -0.409   0.000  -0.052
    1UNL     O7   18  -0.319   0.075  -0.138
    1UNL    C12   19  -0.178   0.013  -0.168
    1UNL    C13   20  -0.163   0.020  -0.320
    1UNL     O8   21  -0.284  -0.009  -0.388
    1UNL    C14   22  -0.166  -0.119  -0.106
    1UNL     O9   23  -0.039  -0.189  -0.141
    1UNL    C15   24  -0.290  -0.202  -0.163
    1UNL    O10   25  -0.265  -0.338  -0.137
    1UNL    C16   26  -0.424  -0.152  -0.096
    1UNL    O11   27  -0.540  -0.158  -0.187
    1UNL    O12   28  -0.046   0.262   0.165
    1UNL    C17   29   0.005   0.247   0.038
    1UNL    C18   30   0.108   0.164   0.011
    1UNL    C19   31   0.140   0.114  -0.122
    1UNL    O13   32   0.096   0.170  -0.223
    1UNL     N1   33   0.203  -0.010  -0.124
    1UNL    C20   34   0.260  -0.064  -0.246
    1UNL    C21   35   0.398  -0.115  -0.219
    1UNL    C22   36   0.422  -0.110  -0.084
    1UNL     N2   37   0.546  -0.132  -0.034
    1UNL    C23   38   0.643  -0.185  -0.124
    1UNL    C24   39   0.779  -0.191  -0.083
    1UNL    C25   40   0.881  -0.226  -0.170
    1UNL    O14   41   1.017  -0.208  -0.130
    1UNL    C26   42   0.848  -0.271  -0.298
    1UNL    C27   43   0.718  -0.275  -0.330
    1UNL    C28   44   0.612  -0.223  -0.254
    1UNL    C29   45   0.486  -0.172  -0.318
    1UNL    O15   46   0.465  -0.180  -0.438
    1UNL    C30   47   0.295  -0.060  -0.011
    1UNL    C31   48   0.320   0.052   0.093
    1UNL    C32   49   0.190   0.129   0.130
    1UNL     H1   50   0.024  -0.284   0.269
    1UNL     H2   51   0.035  -0.163   0.397
    1UNL     H3   52   0.061  -0.102   0.103
    1UNL     H4   53   0.155   0.070   0.331
    1UNL     H5   54  -0.021   0.187   0.352
    1UNL     H6   55  -0.333   0.045   0.320
    1UNL     H7   56  -0.361   0.403   0.416
    1UNL     H8   57  -0.519   0.144   0.369
    1UNL     H9   58  -0.446   0.195   0.518
    1UNL    H10   59  -0.657   0.317   0.360
    1UNL    H11   60  -0.504   0.422   0.204
    1UNL    H12   61  -0.226   0.386   0.164
    1UNL    H13   62  -0.467   0.254   0.024
    1UNL    H14   63  -0.603   0.104   0.116
    1UNL    H15   64  -0.237   0.159   0.058
    1UNL    H16   65  -0.514   0.046  -0.054
    1UNL    H17   66  -0.102   0.066  -0.116
    1UNL    H18   67  -0.073  -0.035  -0.348
    1UNL    H19   68  -0.146   0.120  -0.353
    1UNL    H20   69  -0.360  -0.010  -0.331
    1UNL    H21   70  -0.177  -0.108  -0.003
    1UNL    H22   71   0.032  -0.123  -0.118
    1UNL    H23   72  -0.294  -0.185  -0.276
    1UNL    H24   73  -0.178  -0.369  -0.158
    1UNL    H25   74  -0.451  -0.224  -0.012
    1UNL    H26   75  -0.544  -0.245  -0.229
    1UNL    H27   76  -0.045   0.314  -0.040
    1UNL    H28   77   0.274   0.017  -0.316
    1UNL    H29   78   0.197  -0.140  -0.294
    1UNL    H30   79   0.574  -0.078   0.058
    1UNL    H31   80   0.803  -0.145   0.009
    1UNL    H32   81   1.066  -0.289  -0.164
    1UNL    H33   82   0.928  -0.293  -0.368
    1UNL    H34   83   0.683  -0.297  -0.437
    1UNL    H35   84   0.248  -0.143   0.040
    1UNL    H36   85   0.377   0.021   0.182
    1UNL    H37   86   0.388   0.122   0.041
    1UNL    H38   87   0.236   0.223   0.179
   0.00000   0.00000   0.00000   0.00000   0.00000   0.00000   0.00000   0.00000   0.00000
Generated with MDTraj, t= 36.0
 87
    1UNL     C1    1   0.079  -0.190   0.286
    1UNL     C2    2   0.070  -0.095   0.196
    1UNL     C3    3   0.103   0.051   0.240
    1UNL     C4    4  -0.029   0.138   0.254
    1UNL     O1    5  -0.136   0.047   0.280
    1UNL     C5    6  -0.259   0.124   0.285
    1UNL     O2    7  -0.242   0.245   0.361
    1UNL     C6    8  -0.364   0.324   0.361
    1UNL     C7    9  -0.478   0.264   0.435
    1UNL     O3   10  -0.600   0.336   0.430
    1UNL     C8   11  -0.394   0.355   0.211
    1UNL     O4   12  -0.282   0.429   0.165
    1UNL     C9   13  -0.424   0.236   0.119
    1UNL     O5   14  -0.550   0.180   0.130
    1UNL    C10   15  -0.314   0.131   0.142
    1UNL     O6   16  -0.356   0.004   0.087
    1UNL    C11   17  -0.404   0.003  -0.048
    1UNL     O7   18  -0.316   0.072  -0.133
    1UNL    C12   19  -0.188   0.011  -0.152
    1UNL    C13   20  -0.161   0.028  -0.305
    1UNL     O8   21  -0.268  -0.009  -0.393
    1UNL    C14   22  -0.190  -0.139  -0.102
    1UNL     O9   23  -0.074  -0.213  -0.156
    1UNL    C15   24  -0.321  -0.196  -0.159
    1UNL    O10   25  -0.323  -0.336  -0.152
    1UNL    C16   26  -0.448  -0.132  -0.095
    1UNL    O11   27  -0.557  -0.137  -0.184
    1UNL    O12   28  -0.050   0.243   0.161
    1UNL    C17   29  -0.005   0.220   0.035
    1UNL    C18   30   0.096   0.138   0.009
    1UNL    C19   31   0.123   0.077  -0.124
    1UNL    O13   32   0.060   0.115  -0.223
    1UNL     N1   33   0.194  -0.042  -0.135
    1UNL    C20   34   0.249  -0.098  -0.264
    1UNL    C21   35   0.393  -0.133  -0.229
    1UNL    C22   36   0.419  -0.104  -0.102
    1UNL     N2   37   0.547  -0.112  -0.051
    1UNL    C23   38   0.654  -0.148  -0.124
    1UNL    C24   39   0.783  -0.152  -0.073
    1UNL    C25   40   0.889  -0.192  -0.152
    1UNL    O14   41   1.010  -0.206  -0.087
    1UNL    C26   42   0.866  -0.229  -0.285
    1UNL    C27   43   0.745  -0.214  -0.343
    1UNL    C28   44   0.634  -0.180  -0.261
    1UNL    C29   45   0.500  -0.173  -0.315
    1UNL    O15   46   0.482  -0.198  -0.432
    1UNL    C30   47   0.293  -0.077  -0.027
    1UNL    C31   48   0.313   0.033   0.085
    1UNL    C32   49   0.187   0.113   0.121
    1UNL     H1   50   0.068  -0.295   0.251
    1UNL     H2   51   0.097  -0.177   0.387
    1UNL     H3   52   0.033  -0.107   0.098
    1UNL     H4   53   0.145   0.051   0.343
    1UNL     H5   54  -0.018   0.197   0.351
    1UNL     H6   55  -0.322   0.050   0.344
    1UNL     H7   56  -0.335   0.416   0.412
    1UNL     H8   57  -0.500   0.158   0.413
    1UNL     H9   58  -0.462   0.261   0.541
    1UNL    H10   59  -0.635   0.347   0.342
    1UNL    H11   60  -0.479   0.427   0.201
    1UNL    H12   61  -0.202   0.370   0.172
    1UNL    H13   62  -0.414   0.283   0.020
    1UNL    H14   63  -0.545   0.107   0.191
    1UNL    H15   64  -0.222   0.156   0.081
    1UNL    H16   65  -0.493   0.072  -0.045
    1UNL    H17   66  -0.120   0.062  -0.088
    1UNL    H18   67  -0.089  -0.047  -0.338
    1UNL    H19   68  -0.119   0.130  -0.308
    1UNL    H20   69  -0.359   0.008  -0.351
    1UNL    H21   70  -0.183  -0.145   0.002
    1UNL    H22   71   0.004  -0.160  -0.163
    1UNL    H23   72  -0.325  -0.169  -0.272
    1UNL    H24   73  -0.239  -0.374  -0.195
    1UNL    H25   74  -0.475  -0.195  -0.004
    1UNL    H26   75  -0.609  -0.217  -0.175
    1UNL    H27   76  -0.062   0.258  -0.040
    1UNL    H28   77   0.239  -0.025  -0.341
    1UNL    H29   78   0.191  -0.184  -0.292
    1UNL    H30   79   0.575  -0.097   0.053
    1UNL    H31   80   0.794  -0.149   0.035
    1UNL    H32   81   1.053  -0.289  -0.124
    1UNL    H33   82   0.952  -0.278  -0.329
    1UNL    H34   83   0.730  -0.238  -0.440
    1UNL    H35   84   0.263  -0.166   0.027
    1UNL    H36   85   0.357  -0.016   0.172
    1UNL    H37   86   0.395   0.099   0.051
    1UNL    H38   87   0.224   0.213   0.163
   0.00000   0.00000   0.00000   0.00000   0.00000   0.00000   0.00000   0.00000   0.00000
Generated with MDTraj, t= 37.0
 87
    1UNL     C1    1   0.086  -0.200   0.286
    1UNL     C2    2   0.073  -0.105   0.201
    1UNL     C3    3   0.105   0.038   0.231
    1UNL     C4    4  -0.029   0.127   0.252
    1UNL     O1    5  -0.141   0.035   0.275
    1UNL     C5    6  -0.264   0.110   0.281
    1UNL     O2    7  -0.239   0.232   0.356
    1UNL     C6    8  -0.345   0.329   0.359
    1UNL     C7    9  -0.472   0.279   0.413
    1UNL     O3   10  -0.578   0.367   0.401
    1UNL     C8   11  -0.366   0.371   0.211
    1UNL     O4   12  -0.247   0.424   0.151
    1UNL     C9   13  -0.419   0.246   0.135
    1UNL     O5   14  -0.548   0.197   0.167
    1UNL    C10   15  -0.319   0.126   0.141
    1UNL     O6   16  -0.375   0.005   0.099
    1UNL    C11   17  -0.413   0.015  -0.038
    1UNL     O7   18  -0.321   0.078  -0.130
    1UNL    C12   19  -0.204  -0.001  -0.166
    1UNL    C13   20  -0.186   0.023  -0.319
    1UNL     O8   21  -0.306  -0.013  -0.379
    1UNL    C14   22  -0.207  -0.151  -0.123
    1UNL     O9   23  -0.112  -0.238  -0.183
    1UNL    C15   24  -0.344  -0.207  -0.153
    1UNL    O10   25  -0.355  -0.344  -0.114
    1UNL    C16   26  -0.471  -0.118  -0.093
    1UNL    O11   27  -0.582  -0.115  -0.181
    1UNL    O12   28  -0.060   0.221   0.148
    1UNL    C17   29  -0.017   0.187   0.023
    1UNL    C18   30   0.102   0.118   0.001
    1UNL    C19   31   0.130   0.058  -0.134
    1UNL    O13   32   0.086   0.110  -0.239
    1UNL     N1   33   0.200  -0.063  -0.132
    1UNL    C20   34   0.263  -0.110  -0.256
    1UNL    C21   35   0.404  -0.135  -0.218
    1UNL    C22   36   0.426  -0.123  -0.085
    1UNL     N2   37   0.550  -0.136  -0.025
    1UNL    C23   38   0.664  -0.142  -0.113
    1UNL    C24   39   0.790  -0.160  -0.063
    1UNL    C25   40   0.899  -0.189  -0.150
    1UNL    O14   41   1.018  -0.189  -0.086
    1UNL    C26   42   0.878  -0.188  -0.289
    1UNL    C27   43   0.757  -0.148  -0.336
    1UNL    C28   44   0.648  -0.144  -0.252
    1UNL    C29   45   0.512  -0.150  -0.311
    1UNL    O15   46   0.496  -0.171  -0.432
    1UNL    C30   47   0.298  -0.085  -0.022
    1UNL    C31   48   0.315   0.028   0.086
    1UNL    C32   49   0.189   0.104   0.119
    1UNL     H1   50   0.064  -0.295   0.251
    1UNL     H2   51   0.137  -0.188   0.386
    1UNL     H3   52   0.027  -0.122   0.100
    1UNL     H4   53   0.156   0.030   0.331
    1UNL     H5   54  -0.015   0.180   0.350
    1UNL     H6   55  -0.337   0.046   0.341
    1UNL     H7   56  -0.307   0.409   0.424
    1UNL     H8   57  -0.503   0.179   0.375
    1UNL     H9   58  -0.469   0.254   0.517
    1UNL    H10   59  -0.598   0.384   0.310
    1UNL    H11   60  -0.444   0.451   0.210
    1UNL    H12   61  -0.178   0.351   0.155
    1UNL    H13   62  -0.421   0.289   0.030
    1UNL    H14   63  -0.549   0.106   0.123
    1UNL    H15   64  -0.235   0.138   0.068
    1UNL    H16   65  -0.499   0.086  -0.042
    1UNL    H17   66  -0.116   0.036  -0.116
    1UNL    H18   67  -0.094  -0.031  -0.351
    1UNL    H19   68  -0.170   0.130  -0.346
    1UNL    H20   69  -0.372   0.054  -0.354
    1UNL    H21   70  -0.183  -0.150  -0.019
    1UNL    H22   71  -0.013  -0.210  -0.183
    1UNL    H23   72  -0.354  -0.202  -0.268
    1UNL    H24   73  -0.270  -0.387  -0.151
    1UNL    H25   74  -0.517  -0.174  -0.004
    1UNL    H26   75  -0.557  -0.144  -0.270
    1UNL    H27   76  -0.075   0.240  -0.052
    1UNL    H28   77   0.256  -0.038  -0.334
    1UNL    H29   78   0.225  -0.201  -0.295
    1UNL    H30   79   0.562  -0.149   0.075
    1UNL    H31   80   0.797  -0.174   0.043
    1UNL    H32   81   1.086  -0.240  -0.138
    1UNL    H33   82   0.967  -0.196  -0.346
    1UNL    H34   83   0.741  -0.140  -0.449
    1UNL    H35   84   0.254  -0.168   0.034
    1UNL    H36   85   0.359  -0.011   0.178
    1UNL    H37   86   0.394   0.098   0.051
    1UNL    H38   87   0.216   0.209   0.153
   0.00000   0.00000   0.00000   0.00000   0.00000   0.00000   0.00000   0.00000   0.00000
Generated with MDTraj, t= 38.0
 87
    1UNL     C1    1   0.076  -0.216   0.289
    1UNL     C2    2   0.056  -0.117   0.210
    1UNL     C3    3   0.097   0.021   0.234
    1UNL     C4    4  -0.039   0.107   0.236
    1UNL     O1    5  -0.155   0.030   0.250
    1UNL     C5    6  -0.264   0.113   0.269
    1UNL     O2    7  -0.235   0.227   0.353
    1UNL     C6    8  -0.329   0.335   0.348
    1UNL     C7    9  -0.446   0.315   0.445
    1UNL     O3   10  -0.565   0.380   0.413
    1UNL     C8   11  -0.372   0.378   0.200
    1UNL     O4   12  -0.263   0.441   0.133
    1UNL     C9   13  -0.425   0.251   0.122
    1UNL     O5   14  -0.553   0.209   0.182
    1UNL    C10   15  -0.322   0.135   0.127
    1UNL     O6   16  -0.390   0.019   0.089
    1UNL    C11   17  -0.431   0.020  -0.049
    1UNL     O7   18  -0.339   0.079  -0.143
    1UNL    C12   19  -0.223  -0.008  -0.177
    1UNL    C13   20  -0.230  -0.014  -0.331
    1UNL     O8   21  -0.361  -0.017  -0.371
    1UNL    C14   22  -0.227  -0.146  -0.112
    1UNL     O9   23  -0.113  -0.222  -0.141
    1UNL    C15   24  -0.358  -0.209  -0.154
    1UNL    O10   25  -0.372  -0.339  -0.110
    1UNL    C16   26  -0.482  -0.123  -0.096
    1UNL    O11   27  -0.580  -0.105  -0.186
    1UNL    O12   28  -0.036   0.218   0.147
    1UNL    C17   29   0.007   0.195   0.022
    1UNL    C18   30   0.108   0.105  -0.002
    1UNL    C19   31   0.128   0.041  -0.127
    1UNL    O13   32   0.049   0.070  -0.218
    1UNL     N1   33   0.218  -0.065  -0.126
    1UNL    C20   34   0.277  -0.105  -0.255
    1UNL    C21   35   0.422  -0.139  -0.222
    1UNL    C22   36   0.443  -0.147  -0.085
    1UNL     N2   37   0.567  -0.167  -0.031
    1UNL    C23   38   0.675  -0.183  -0.120
    1UNL    C24   39   0.804  -0.180  -0.065
    1UNL    C25   40   0.916  -0.169  -0.143
    1UNL    O14   41   1.040  -0.157  -0.076
    1UNL    C26   42   0.902  -0.160  -0.281
    1UNL    C27   43   0.778  -0.140  -0.335
    1UNL    C28   44   0.662  -0.149  -0.256
    1UNL    C29   45   0.533  -0.124  -0.314
    1UNL    O15   46   0.523  -0.096  -0.431
    1UNL    C30   47   0.309  -0.111  -0.017
    1UNL    C31   48   0.322  -0.003   0.087
    1UNL    C32   49   0.193   0.077   0.117
    1UNL     H1   50   0.047  -0.312   0.259
    1UNL     H2   51   0.145  -0.203   0.377
    1UNL     H3   52   0.012  -0.131   0.117
    1UNL     H4   53   0.151   0.021   0.333
    1UNL     H5   54  -0.031   0.155   0.334
    1UNL     H6   55  -0.339   0.051   0.330
    1UNL     H7   56  -0.262   0.420   0.378
    1UNL     H8   57  -0.466   0.206   0.465
    1UNL     H9   58  -0.411   0.338   0.544
    1UNL    H10   59  -0.597   0.327   0.329
    1UNL    H11   60  -0.460   0.446   0.203
    1UNL    H12   61  -0.187   0.379   0.140
    1UNL    H13   62  -0.451   0.282   0.013
    1UNL    H14   63  -0.566   0.118   0.152
    1UNL    H15   64  -0.243   0.143   0.047
    1UNL    H16   65  -0.521   0.081  -0.052
    1UNL    H17   66  -0.132   0.046  -0.153
    1UNL    H18   67  -0.186  -0.104  -0.376
    1UNL    H19   68  -0.180   0.076  -0.378
    1UNL    H20   69  -0.407   0.067  -0.350
    1UNL    H21   70  -0.232  -0.132  -0.003
    1UNL    H22   71  -0.030  -0.177  -0.134
    1UNL    H23   72  -0.374  -0.204  -0.268
    1UNL    H24   73  -0.288  -0.376  -0.131
    1UNL    H25   74  -0.522  -0.186  -0.008
    1UNL    H26   75  -0.530  -0.051  -0.255
    1UNL    H27   76  -0.061   0.250  -0.056
    1UNL    H28   77   0.277  -0.029  -0.328
    1UNL    H29   78   0.230  -0.184  -0.305
    1UNL    H30   79   0.589  -0.148   0.059
    1UNL    H31   80   0.824  -0.180   0.041
    1UNL    H32   81   1.107  -0.163  -0.145
    1UNL    H33   82   0.987  -0.150  -0.352
    1UNL    H34   83   0.761  -0.108  -0.434
    1UNL    H35   84   0.279  -0.206   0.030
    1UNL    H36   85   0.357  -0.041   0.183
    1UNL    H37   86   0.401   0.070   0.062
    1UNL    H38   87   0.233   0.175   0.154
   0.00000   0.00000   0.00000   0.00000   0.00000   0.00000   0.00000   0.00000   0.00000
Generated with MDTraj, t= 39.0
 87
    1UNL     C1    1   0.067  -0.237   0.295
    1UNL     C2    2   0.044  -0.140   0.208
    1UNL     C3    3   0.096   0.001   0.232
    1UNL     C4    4  -0.026   0.110   0.247
    1UNL     O1    5  -0.146   0.041   0.256
    1UNL     C5    6  -0.260   0.127   0.264
    1UNL     O2    7  -0.223   0.253   0.318
    1UNL     C6    8  -0.324   0.350   0.329
    1UNL     C7    9  -0.426   0.300   0.440
    1UNL     O3   10  -0.551   0.364   0.432
    1UNL     C8   11  -0.375   0.389   0.187
    1UNL     O4   12  -0.260   0.422   0.112
    1UNL     C9   13  -0.430   0.256   0.127
    1UNL     O5   14  -0.546   0.213   0.200
    1UNL    C10   15  -0.333   0.145   0.126
    1UNL     O6   16  -0.400   0.029   0.088
    1UNL    C11   17  -0.447   0.023  -0.049
    1UNL     O7   18  -0.375   0.091  -0.146
    1UNL    C12   19  -0.250   0.015  -0.191
    1UNL    C13   20  -0.243  -0.017  -0.344
    1UNL     O8   21  -0.375  -0.014  -0.392
    1UNL    C14   22  -0.239  -0.119  -0.108
    1UNL     O9   23  -0.124  -0.192  -0.128
    1UNL    C15   24  -0.364  -0.208  -0.130
    1UNL    O10   25  -0.367  -0.319  -0.048
    1UNL    C16   26  -0.488  -0.122  -0.093
    1UNL    O11   27  -0.577  -0.108  -0.195
    1UNL    O12   28  -0.024   0.213   0.144
    1UNL    C17   29   0.008   0.158   0.029
    1UNL    C18   30   0.098   0.064   0.003
    1UNL    C19   31   0.117   0.007  -0.129
    1UNL    O13   32   0.036   0.035  -0.217
    1UNL     N1   33   0.217  -0.087  -0.151
    1UNL    C20   34   0.295  -0.092  -0.277
    1UNL    C21   35   0.438  -0.118  -0.232
    1UNL    C22   36   0.444  -0.144  -0.099
    1UNL     N2   37   0.567  -0.162  -0.042
    1UNL    C23   38   0.685  -0.155  -0.113
    1UNL    C24   39   0.805  -0.165  -0.055
    1UNL    C25   40   0.925  -0.152  -0.125
    1UNL    O14   41   1.044  -0.174  -0.063
    1UNL    C26   42   0.919  -0.122  -0.265
    1UNL    C27   43   0.798  -0.120  -0.329
    1UNL    C28   44   0.680  -0.137  -0.255
    1UNL    C29   45   0.549  -0.115  -0.316
    1UNL    O15   46   0.540  -0.094  -0.435
    1UNL    C30   47   0.306  -0.132  -0.036
    1UNL    C31   48   0.309  -0.053   0.097
    1UNL    C32   49   0.189   0.046   0.117
    1UNL     H1   50   0.017  -0.334   0.284
    1UNL     H2   51   0.149  -0.243   0.358
    1UNL     H3   52  -0.012  -0.158   0.113
    1UNL     H4   53   0.150  -0.003   0.331
    1UNL     H5   54  -0.016   0.161   0.341
    1UNL     H6   55  -0.324   0.072   0.343
    1UNL     H7   56  -0.274   0.446   0.356
    1UNL     H8   57  -0.425   0.189   0.430
    1UNL     H9   58  -0.387   0.313   0.540
    1UNL    H10   59  -0.596   0.365   0.349
    1UNL    H11   60  -0.443   0.476   0.178
    1UNL    H12   61  -0.189   0.355   0.130
    1UNL    H13   62  -0.466   0.277   0.017
    1UNL    H14   63  -0.567   0.122   0.166
    1UNL    H15   64  -0.253   0.167   0.051
    1UNL    H16   65  -0.544   0.070  -0.050
    1UNL    H17   66  -0.171   0.084  -0.168
    1UNL    H18   67  -0.221  -0.121  -0.370
    1UNL    H19   68  -0.177   0.054  -0.398
    1UNL    H20   69  -0.427   0.064  -0.352
    1UNL    H21   70  -0.238  -0.099   0.003
    1UNL    H22   71  -0.047  -0.136  -0.169
    1UNL    H23   72  -0.389  -0.225  -0.240
    1UNL    H24   73  -0.274  -0.351  -0.048
    1UNL    H25   74  -0.544  -0.183  -0.011
    1UNL    H26   75  -0.533  -0.049  -0.258
    1UNL    H27   76  -0.043   0.200  -0.053
    1UNL    H28   77   0.294  -0.002  -0.332
    1UNL    H29   78   0.252  -0.162  -0.342
    1UNL    H30   79   0.560  -0.196   0.049
    1UNL    H31   80   0.811  -0.161   0.052
    1UNL    H32   81   1.120  -0.165  -0.121
    1UNL    H33   82   1.005  -0.090  -0.314
    1UNL    H34   83   0.792  -0.081  -0.430
    1UNL    H35   84   0.272  -0.235  -0.015
    1UNL    H36   85   0.333  -0.112   0.186
    1UNL    H37   86   0.393   0.020   0.093
    1UNL    H38   87   0.234   0.141   0.152
   0.00000   0.00000   0.00000   0.00000   0.00000   0.00000   0.00000   0.00000   0.00000
Generated with MDTraj, t= 40.0
 87
    1UNL     C1    1   0.059  -0.239   0.303
    1UNL     C2    2   0.025  -0.151   0.213
    1UNL     C3    3   0.082  -0.017   0.223
    1UNL     C4    4  -0.032   0.098   0.230
    1UNL     O1    5  -0.155   0.030   0.242
    1UNL     C5    6  -0.260   0.119   0.259
    1UNL     O2    7  -0.220   0.238   0.330
    1UNL     C6    8  -0.316   0.340   0.335
    1UNL     C7    9  -0.434   0.308   0.432
    1UNL     O3   10  -0.528   0.409   0.427
    1UNL     C8   11  -0.356   0.375   0.196
    1UNL     O4   12  -0.244   0.425   0.128
    1UNL     C9   13  -0.425   0.260   0.124
    1UNL     O5   14  -0.553   0.215   0.186
    1UNL    C10   15  -0.334   0.137   0.118
    1UNL     O6   16  -0.405   0.022   0.090
    1UNL    C11   17  -0.464   0.028  -0.037
    1UNL     O7   18  -0.380   0.085  -0.145
    1UNL    C12   19  -0.264   0.011  -0.183
    1UNL    C13   20  -0.261   0.004  -0.334
    1UNL     O8   21  -0.396  -0.000  -0.378
    1UNL    C14   22  -0.245  -0.119  -0.111
    1UNL     O9   23  -0.137  -0.197  -0.168
    1UNL    C15   24  -0.372  -0.210  -0.086
    1UNL    O10   25  -0.362  -0.287   0.030
    1UNL    C16   26  -0.509  -0.118  -0.078
    1UNL    O11   27  -0.569  -0.121  -0.198
    1UNL    O12   28  -0.030   0.196   0.126
    1UNL    C17   29   0.008   0.149   0.001
    1UNL    C18   30   0.107   0.059  -0.016
    1UNL    C19   31   0.124   0.003  -0.147
    1UNL    O13   32   0.056   0.048  -0.239
    1UNL     N1   33   0.215  -0.100  -0.168
    1UNL    C20   34   0.301  -0.107  -0.283
    1UNL    C21   35   0.443  -0.106  -0.241
    1UNL    C22   36   0.446  -0.129  -0.108
    1UNL     N2   37   0.565  -0.156  -0.040
    1UNL    C23   38   0.690  -0.135  -0.106
    1UNL    C24   39   0.814  -0.158  -0.043
    1UNL    C25   40   0.931  -0.141  -0.111
    1UNL    O14   41   1.040  -0.183  -0.045
    1UNL    C26   42   0.931  -0.103  -0.248
    1UNL    C27   43   0.811  -0.101  -0.315
    1UNL    C28   44   0.689  -0.111  -0.244
    1UNL    C29   45   0.566  -0.099  -0.321
    1UNL    O15   46   0.557  -0.087  -0.446
    1UNL    C30   47   0.311  -0.150  -0.057
    1UNL    C31   48   0.295  -0.083   0.081
    1UNL    C32   49   0.179   0.020   0.102
    1UNL     H1   50   0.044  -0.347   0.262
    1UNL     H2   51   0.123  -0.227   0.387
    1UNL     H3   52  -0.012  -0.184   0.121
    1UNL     H4   53   0.144  -0.014   0.317
    1UNL     H5   54  -0.019   0.150   0.323
    1UNL     H6   55  -0.340   0.066   0.321
    1UNL     H7   56  -0.259   0.428   0.371
    1UNL     H8   57  -0.482   0.206   0.414
    1UNL     H9   58  -0.381   0.296   0.528
    1UNL    H10   59  -0.576   0.415   0.336
    1UNL    H11   60  -0.424   0.460   0.212
    1UNL    H12   61  -0.170   0.359   0.141
    1UNL    H13   62  -0.453   0.296   0.016
    1UNL    H14   63  -0.561   0.114   0.173
    1UNL    H15   64  -0.261   0.151   0.034
    1UNL    H16   65  -0.549   0.090  -0.027
    1UNL    H17   66  -0.177   0.067  -0.150
    1UNL    H18   67  -0.196  -0.080  -0.360
    1UNL    H19   68  -0.229   0.095  -0.382
    1UNL    H20   69  -0.439   0.080  -0.346
    1UNL    H21   70  -0.190  -0.103  -0.008
    1UNL    H22   71  -0.074  -0.140  -0.209
    1UNL    H23   72  -0.391  -0.276  -0.175
    1UNL    H24   73  -0.269  -0.328   0.040
    1UNL    H25   74  -0.570  -0.176   0.005
    1UNL    H26   75  -0.511  -0.080  -0.266
    1UNL    H27   76  -0.041   0.202  -0.075
    1UNL    H28   77   0.276  -0.024  -0.344
    1UNL    H29   78   0.275  -0.191  -0.340
    1UNL    H30   79   0.569  -0.175   0.064
    1UNL    H31   80   0.822  -0.207   0.051
    1UNL    H32   81   1.128  -0.161  -0.080
    1UNL    H33   82   1.024  -0.101  -0.309
    1UNL    H34   83   0.802  -0.092  -0.425
    1UNL    H35   84   0.290  -0.260  -0.052
    1UNL    H36   85   0.282  -0.166   0.151
    1UNL    H37   86   0.395  -0.043   0.107
    1UNL    H38   87   0.225   0.115   0.130
   0.00000   0.00000   0.00000   0.00000   0.00000   0.00000   0.00000   0.00000   0.00000
Generated with MDTraj, t= 41.0
 87
    1UNL     C1    1   0.034  -0.241   0.302
    1UNL     C2    2   0.030  -0.161   0.197
    1UNL     C3    3   0.074  -0.021   0.209
    1UNL     C4    4  -0.050   0.084   0.216
    1UNL     O1    5  -0.171   0.020   0.261
    1UNL     C5    6  -0.273   0.113   0.273
    1UNL     O2    7  -0.222   0.222   0.345
    1UNL     C6    8  -0.307   0.341   0.343
    1UNL     C7    9  -0.437   0.322   0.429
    1UNL     O3   10  -0.507   0.439   0.442
    1UNL     C8   11  -0.341   0.380   0.195
    1UNL     O4   12  -0.217   0.409   0.134
    1UNL     C9   13  -0.415   0.265   0.124
    1UNL     O5   14  -0.548   0.252   0.175
    1UNL    C10   15  -0.338   0.136   0.133
    1UNL     O6   16  -0.424   0.029   0.105
    1UNL    C11   17  -0.468   0.023  -0.033
    1UNL     O7   18  -0.391   0.079  -0.145
    1UNL    C12   19  -0.274   0.003  -0.194
    1UNL    C13   20  -0.303  -0.036  -0.341
    1UNL     O8   21  -0.422   0.032  -0.385
    1UNL    C14   22  -0.237  -0.111  -0.093
    1UNL     O9   23  -0.131  -0.189  -0.157
    1UNL    C15   24  -0.361  -0.205  -0.071
    1UNL    O10   25  -0.331  -0.296   0.031
    1UNL    C16   26  -0.493  -0.121  -0.075
    1UNL    O11   27  -0.564  -0.122  -0.198
    1UNL    O12   28  -0.060   0.174   0.108
    1UNL    C17   29  -0.010   0.130  -0.011
    1UNL    C18   30   0.096   0.048  -0.027
    1UNL    C19   31   0.123  -0.006  -0.158
    1UNL    O13   32   0.040   0.019  -0.245
    1UNL     N1   33   0.232  -0.091  -0.178
    1UNL    C20   34   0.320  -0.102  -0.301
    1UNL    C21   35   0.456  -0.115  -0.244
    1UNL    C22   36   0.449  -0.165  -0.115
    1UNL     N2   37   0.569  -0.166  -0.052
    1UNL    C23   38   0.693  -0.140  -0.107
    1UNL    C24   39   0.812  -0.154  -0.039
    1UNL    C25   40   0.933  -0.141  -0.102
    1UNL    O14   41   1.048  -0.153  -0.020
    1UNL    C26   42   0.935  -0.113  -0.244
    1UNL    C27   43   0.820  -0.104  -0.314
    1UNL    C28   44   0.698  -0.112  -0.247
    1UNL    C29   45   0.575  -0.084  -0.319
    1UNL    O15   46   0.577  -0.041  -0.433
    1UNL    C30   47   0.308  -0.152  -0.067
    1UNL    C31   48   0.296  -0.074   0.072
    1UNL    C32   49   0.176   0.023   0.092
    1UNL     H1   50  -0.002  -0.336   0.305
    1UNL     H2   51   0.082  -0.203   0.389
    1UNL     H3   52   0.007  -0.191   0.093
    1UNL     H4   53   0.125  -0.013   0.308
    1UNL     H5   54  -0.027   0.161   0.294
    1UNL     H6   55  -0.351   0.060   0.338
    1UNL     H7   56  -0.242   0.421   0.382
    1UNL     H8   57  -0.505   0.248   0.377
    1UNL     H9   58  -0.423   0.285   0.532
    1UNL    H10   59  -0.517   0.485   0.352
    1UNL    H11   60  -0.397   0.475   0.206
    1UNL    H12   61  -0.163   0.326   0.125
    1UNL    H13   62  -0.422   0.289   0.010
    1UNL    H14   63  -0.575   0.161   0.177
    1UNL    H15   64  -0.248   0.140   0.066
    1UNL    H16   65  -0.563   0.070  -0.034
    1UNL    H17   66  -0.212   0.094  -0.186
    1UNL    H18   67  -0.329  -0.140  -0.362
    1UNL    H19   68  -0.212  -0.011  -0.397
    1UNL    H20   69  -0.406   0.126  -0.349
    1UNL    H21   70  -0.207  -0.065   0.011
    1UNL    H22   71  -0.071  -0.115  -0.199
    1UNL    H23   72  -0.377  -0.262  -0.162
    1UNL    H24   73  -0.230  -0.317   0.029
    1UNL    H25   74  -0.568  -0.167   0.004
    1UNL    H26   75  -0.519  -0.067  -0.266
    1UNL    H27   76  -0.071   0.172  -0.101
    1UNL    H28   77   0.305  -0.014  -0.361
    1UNL    H29   78   0.297  -0.184  -0.366
    1UNL    H30   79   0.567  -0.216   0.046
    1UNL    H31   80   0.814  -0.198   0.061
    1UNL    H32   81   1.125  -0.106  -0.060
    1UNL    H33   82   1.024  -0.109  -0.298
    1UNL    H34   83   0.822  -0.096  -0.418
    1UNL    H35   84   0.263  -0.255  -0.068
    1UNL    H36   85   0.306  -0.136   0.162
    1UNL    H37   86   0.394  -0.020   0.066
    1UNL    H38   87   0.215   0.121   0.114
   0.00000   0.00000   0.00000   0.00000   0.00000   0.00000   0.00000   0.00000   0.00000
Generated with MDTraj, t= 42.0
 87
    1UNL     C1    1  -0.022  -0.243   0.261
    1UNL     C2    2   0.020  -0.162   0.168
    1UNL     C3    3   0.076  -0.029   0.197
    1UNL     C4    4  -0.039   0.075   0.218
    1UNL     O1    5  -0.166   0.012   0.252
    1UNL     C5    6  -0.267   0.109   0.278
    1UNL     O2    7  -0.212   0.230   0.334
    1UNL     C6    8  -0.293   0.347   0.339
    1UNL     C7    9  -0.410   0.322   0.427
    1UNL     O3   10  -0.471   0.447   0.458
    1UNL     C8   11  -0.333   0.395   0.195
    1UNL     O4   12  -0.216   0.424   0.110
    1UNL     C9   13  -0.404   0.269   0.122
    1UNL     O5   14  -0.537   0.256   0.173
    1UNL    C10   15  -0.337   0.131   0.134
    1UNL     O6   16  -0.429   0.030   0.097
    1UNL    C11   17  -0.465   0.015  -0.036
    1UNL     O7   18  -0.376   0.083  -0.139
    1UNL    C12   19  -0.286  -0.003  -0.195
    1UNL    C13   20  -0.338  -0.045  -0.330
    1UNL     O8   21  -0.425   0.056  -0.376
    1UNL    C14   22  -0.247  -0.129  -0.101
    1UNL     O9   23  -0.130  -0.201  -0.141
    1UNL    C15   24  -0.366  -0.225  -0.086
    1UNL    O10   25  -0.351  -0.316   0.025
    1UNL    C16   26  -0.488  -0.137  -0.061
    1UNL    O11   27  -0.589  -0.143  -0.162
    1UNL    O12   28  -0.055   0.171   0.104
    1UNL    C17   29  -0.026   0.122  -0.016
    1UNL    C18   30   0.076   0.034  -0.037
    1UNL    C19   31   0.119  -0.007  -0.166
    1UNL    O13   32   0.053   0.021  -0.263
    1UNL     N1   33   0.236  -0.082  -0.178
    1UNL    C20   34   0.326  -0.070  -0.295
    1UNL    C21   35   0.464  -0.096  -0.236
    1UNL    C22   36   0.456  -0.141  -0.109
    1UNL     N2   37   0.568  -0.167  -0.038
    1UNL    C23   38   0.691  -0.155  -0.107
    1UNL    C24   39   0.808  -0.182  -0.043
    1UNL    C25   40   0.930  -0.144  -0.097
    1UNL    O14   41   1.041  -0.145  -0.012
    1UNL    C26   42   0.940  -0.096  -0.227
    1UNL    C27   43   0.824  -0.082  -0.299
    1UNL    C28   44   0.705  -0.106  -0.238
    1UNL    C29   45   0.585  -0.083  -0.308
    1UNL    O15   46   0.581  -0.063  -0.429
    1UNL    C30   47   0.313  -0.136  -0.059
    1UNL    C31   48   0.303  -0.054   0.064
    1UNL    C32   49   0.168   0.018   0.081
    1UNL     H1   50  -0.052  -0.342   0.228
    1UNL     H2   51  -0.022  -0.214   0.375
    1UNL     H3   52   0.011  -0.187   0.065
    1UNL     H4   53   0.126  -0.028   0.295
    1UNL     H5   54  -0.015   0.143   0.305
    1UNL     H6   55  -0.348   0.059   0.341
    1UNL     H7   56  -0.225   0.423   0.382
    1UNL     H8   57  -0.491   0.255   0.386
    1UNL     H9   58  -0.374   0.278   0.520
    1UNL    H10   59  -0.568   0.442   0.448
    1UNL    H11   60  -0.406   0.477   0.206
    1UNL    H12   61  -0.152   0.351   0.117
    1UNL    H13   62  -0.414   0.287   0.010
    1UNL    H14   63  -0.568   0.157   0.172
    1UNL    H15   64  -0.246   0.118   0.068
    1UNL    H16   65  -0.555   0.068  -0.051
    1UNL    H17   66  -0.191   0.045  -0.213
    1UNL    H18   67  -0.386  -0.144  -0.320
    1UNL    H19   68  -0.266  -0.055  -0.413
    1UNL    H20   69  -0.391   0.138  -0.329
    1UNL    H21   70  -0.223  -0.097   0.009
    1UNL    H22   71  -0.063  -0.146  -0.181
    1UNL    H23   72  -0.382  -0.278  -0.178
    1UNL    H24   73  -0.255  -0.348   0.024
    1UNL    H25   74  -0.536  -0.177   0.040
    1UNL    H26   75  -0.568  -0.082  -0.233
    1UNL    H27   76  -0.061   0.171  -0.099
    1UNL    H28   77   0.320   0.027  -0.345
    1UNL    H29   78   0.296  -0.144  -0.369
    1UNL    H30   79   0.563  -0.185   0.065
    1UNL    H31   80   0.801  -0.209   0.060
    1UNL    H32   81   1.107  -0.076  -0.048
    1UNL    H33   82   1.040  -0.069  -0.264
    1UNL    H34   83   0.821  -0.046  -0.405
    1UNL    H35   84   0.286  -0.244  -0.053
    1UNL    H36   85   0.330  -0.109   0.155
    1UNL    H37   86   0.377   0.029   0.061
    1UNL    H38   87   0.198   0.119   0.103
   0.00000   0.00000   0.00000   0.00000   0.00000   0.00000   0.00000   0.00000   0.00000
Generated with MDTraj, t= 43.0
 87
    1UNL     C1    1  -0.078  -0.227   0.187
    1UNL     C2    2   0.015  -0.156   0.126
    1UNL     C3    3   0.064  -0.032   0.189
    1UNL     C4    4  -0.037   0.079   0.212
    1UNL     O1    5  -0.157   0.020   0.265
    1UNL     C5    6  -0.255   0.118   0.279
    1UNL     O2    7  -0.198   0.240   0.331
    1UNL     C6    8  -0.281   0.351   0.323
    1UNL     C7    9  -0.389   0.342   0.431
    1UNL     O3   10  -0.470   0.461   0.470
    1UNL     C8   11  -0.340   0.378   0.182
    1UNL     O4   12  -0.225   0.418   0.097
    1UNL     C9   13  -0.419   0.257   0.130
    1UNL     O5   14  -0.544   0.237   0.200
    1UNL    C10   15  -0.335   0.133   0.138
    1UNL     O6   16  -0.408   0.021   0.112
    1UNL    C11   17  -0.465   0.013  -0.013
    1UNL     O7   18  -0.380   0.079  -0.117
    1UNL    C12   19  -0.283  -0.006  -0.179
    1UNL    C13   20  -0.314  -0.028  -0.325
    1UNL     O8   21  -0.452  -0.007  -0.359
    1UNL    C14   22  -0.255  -0.150  -0.110
    1UNL     O9   23  -0.161  -0.222  -0.194
    1UNL    C15   24  -0.385  -0.226  -0.090
    1UNL    O10   25  -0.369  -0.326   0.018
    1UNL    C16   26  -0.508  -0.134  -0.053
    1UNL    O11   27  -0.600  -0.129  -0.168
    1UNL    O12   28  -0.053   0.185   0.108
    1UNL    C17   29   0.007   0.161  -0.010
    1UNL    C18   30   0.105   0.067  -0.035
    1UNL    C19   31   0.120  -0.001  -0.165
    1UNL    O13   32   0.028   0.008  -0.245
    1UNL     N1   33   0.240  -0.075  -0.183
    1UNL    C20   34   0.328  -0.081  -0.296
    1UNL    C21   35   0.464  -0.120  -0.253
    1UNL    C22   36   0.460  -0.146  -0.118
    1UNL     N2   37   0.570  -0.151  -0.036
    1UNL    C23   38   0.694  -0.137  -0.097
    1UNL    C24   39   0.812  -0.152  -0.019
    1UNL    C25   40   0.940  -0.135  -0.082
    1UNL    O14   41   1.041  -0.174   0.003
    1UNL    C26   42   0.947  -0.089  -0.213
    1UNL    C27   43   0.834  -0.079  -0.292
    1UNL    C28   44   0.711  -0.104  -0.234
    1UNL    C29   45   0.590  -0.094  -0.318
    1UNL    O15   46   0.602  -0.057  -0.437
    1UNL    C30   47   0.322  -0.133  -0.065
    1UNL    C31   48   0.312  -0.059   0.060
    1UNL    C32   49   0.181   0.023   0.092
    1UNL     H1   50  -0.101  -0.315   0.144
    1UNL     H2   51  -0.133  -0.192   0.268
    1UNL     H3   52   0.057  -0.179   0.027
    1UNL     H4   53   0.105  -0.061   0.287
    1UNL     H5   54   0.009   0.141   0.296
    1UNL     H6   55  -0.335   0.078   0.346
    1UNL     H7   56  -0.215   0.437   0.338
    1UNL     H8   57  -0.465   0.268   0.397
    1UNL     H9   58  -0.354   0.306   0.526
    1UNL    H10   59  -0.524   0.437   0.543
    1UNL    H11   60  -0.415   0.459   0.188
    1UNL    H12   61  -0.160   0.340   0.101
    1UNL    H13   62  -0.447   0.271   0.024
    1UNL    H14   63  -0.559   0.146   0.220
    1UNL    H15   64  -0.251   0.136   0.061
    1UNL    H16   65  -0.554   0.074  -0.019
    1UNL    H17   66  -0.195   0.055  -0.187
    1UNL    H18   67  -0.295  -0.130  -0.365
    1UNL    H19   68  -0.260   0.040  -0.394
    1UNL    H20   69  -0.481   0.084  -0.346
    1UNL    H21   70  -0.219  -0.132  -0.001
    1UNL    H22   71  -0.076  -0.168  -0.205
    1UNL    H23   72  -0.402  -0.279  -0.181
    1UNL    H24   73  -0.289  -0.379   0.003
    1UNL    H25   74  -0.560  -0.195   0.037
    1UNL    H26   75  -0.545  -0.085  -0.241
    1UNL    H27   76  -0.040   0.208  -0.097
    1UNL    H28   77   0.338   0.016  -0.346
    1UNL    H29   78   0.287  -0.158  -0.366
    1UNL    H30   79   0.571  -0.170   0.058
    1UNL    H31   80   0.804  -0.167   0.087
    1UNL    H32   81   1.123  -0.169  -0.056
    1UNL    H33   82   1.043  -0.069  -0.259
    1UNL    H34   83   0.843  -0.040  -0.388
    1UNL    H35   84   0.281  -0.235  -0.055
    1UNL    H36   85   0.327  -0.128   0.145
    1UNL    H37   86   0.402   0.005   0.069
    1UNL    H38   87   0.220   0.115   0.133
   0.00000   0.00000   0.00000   0.00000   0.00000   0.00000   0.00000   0.00000   0.00000
Generated with MDTraj, t= 44.0
 87
    1UNL     C1    1  -0.103  -0.215   0.150
    1UNL     C2    2   0.009  -0.152   0.113
    1UNL     C3    3   0.072  -0.033   0.180
    1UNL     C4    4  -0.025   0.087   0.209
    1UNL     O1    5  -0.144   0.028   0.269
    1UNL     C5    6  -0.250   0.122   0.273
    1UNL     O2    7  -0.205   0.251   0.321
    1UNL     C6    8  -0.285   0.364   0.327
    1UNL     C7    9  -0.396   0.355   0.437
    1UNL     O3   10  -0.450   0.482   0.453
    1UNL     C8   11  -0.351   0.381   0.192
    1UNL     O4   12  -0.250   0.411   0.097
    1UNL     C9   13  -0.427   0.248   0.150
    1UNL     O5   14  -0.535   0.183   0.234
    1UNL    C10   15  -0.320   0.134   0.134
    1UNL     O6   16  -0.365   0.004   0.102
    1UNL    C11   17  -0.456   0.007  -0.003
    1UNL     O7   18  -0.406   0.072  -0.118
    1UNL    C12   19  -0.293   0.007  -0.179
    1UNL    C13   20  -0.314  -0.006  -0.333
    1UNL     O8   21  -0.452  -0.036  -0.364
    1UNL    C14   22  -0.266  -0.131  -0.104
    1UNL     O9   23  -0.150  -0.197  -0.161
    1UNL    C15   24  -0.397  -0.211  -0.106
    1UNL    O10   25  -0.363  -0.338  -0.055
    1UNL    C16   26  -0.512  -0.134  -0.040
    1UNL    O11   27  -0.629  -0.120  -0.123
    1UNL    O12   28  -0.057   0.172   0.095
    1UNL    C17   29   0.004   0.147  -0.024
    1UNL    C18   30   0.108   0.062  -0.044
    1UNL    C19   31   0.128  -0.013  -0.166
    1UNL    O13   32   0.050   0.009  -0.257
    1UNL     N1   33   0.230  -0.108  -0.176
    1UNL    C20   34   0.330  -0.089  -0.296
    1UNL    C21   35   0.466  -0.093  -0.237
    1UNL    C22   36   0.462  -0.132  -0.105
    1UNL     N2   37   0.577  -0.157  -0.037
    1UNL    C23   38   0.704  -0.145  -0.092
    1UNL    C24   39   0.824  -0.157  -0.021
    1UNL    C25   40   0.945  -0.141  -0.081
    1UNL    O14   41   1.054  -0.153   0.009
    1UNL    C26   42   0.949  -0.119  -0.219
    1UNL    C27   43   0.835  -0.098  -0.294
    1UNL    C28   44   0.714  -0.112  -0.231
    1UNL    C29   45   0.590  -0.082  -0.304
    1UNL    O15   46   0.595  -0.045  -0.420
    1UNL    C30   47   0.318  -0.134  -0.055
    1UNL    C31   48   0.295  -0.049   0.072
    1UNL    C32   49   0.175   0.033   0.081
    1UNL     H1   50  -0.169  -0.277   0.078
    1UNL     H2   51  -0.163  -0.166   0.229
    1UNL     H3   52   0.045  -0.166   0.014
    1UNL     H4   53   0.115  -0.075   0.270
    1UNL     H5   54   0.017   0.158   0.286
    1UNL     H6   55  -0.323   0.086   0.347
    1UNL     H7   56  -0.219   0.450   0.346
    1UNL     H8   57  -0.482   0.286   0.425
    1UNL     H9   58  -0.346   0.335   0.529
    1UNL    H10   59  -0.523   0.483   0.518
    1UNL    H11   60  -0.420   0.468   0.192
    1UNL    H12   61  -0.182   0.339   0.101
    1UNL    H13   62  -0.467   0.261   0.052
    1UNL    H14   63  -0.521   0.082   0.235
    1UNL    H15   64  -0.236   0.159   0.061
    1UNL    H16   65  -0.545   0.067   0.023
    1UNL    H17   66  -0.216   0.083  -0.174
    1UNL    H18   67  -0.255  -0.093  -0.370
    1UNL    H19   68  -0.297   0.083  -0.395
    1UNL    H20   69  -0.517   0.034  -0.330
    1UNL    H21   70  -0.251  -0.095   0.005
    1UNL    H22   71  -0.088  -0.128  -0.198
    1UNL    H23   72  -0.419  -0.220  -0.209
    1UNL    H24   73  -0.280  -0.364  -0.091
    1UNL    H25   74  -0.543  -0.185   0.065
    1UNL    H26   75  -0.592  -0.094  -0.207
    1UNL    H27   76  -0.053   0.185  -0.116
    1UNL    H28   77   0.299   0.009  -0.339
    1UNL    H29   78   0.309  -0.170  -0.371
    1UNL    H30   79   0.571  -0.185   0.054
    1UNL    H31   80   0.806  -0.175   0.083
    1UNL    H32   81   1.138  -0.176  -0.040
    1UNL    H33   82   1.048  -0.111  -0.254
    1UNL    H34   83   0.841  -0.078  -0.405
    1UNL    H35   84   0.290  -0.237  -0.031
    1UNL    H36   85   0.310  -0.107   0.163
    1UNL    H37   86   0.390   0.005   0.068
    1UNL    H38   87   0.199   0.135   0.116
   0.00000   0.00000   0.00000   0.00000   0.00000   0.00000   0.00000   0.00000   0.00000
Generated with MDTraj, t= 45.0
 87
    1UNL     C1    1  -0.085  -0.220   0.205
    1UNL     C2    2   0.013  -0.148   0.147
    1UNL     C3    3   0.075  -0.022   0.195
    1UNL     C4    4  -0.038   0.080   0.220
    1UNL     O1    5  -0.160   0.032   0.276
    1UNL     C5    6  -0.251   0.137   0.276
    1UNL     O2    7  -0.192   0.260   0.305
    1UNL     C6    8  -0.285   0.368   0.313
    1UNL     C7    9  -0.376   0.361   0.444
    1UNL     O3   10  -0.452   0.477   0.454
    1UNL     C8   11  -0.370   0.379   0.185
    1UNL     O4   12  -0.275   0.414   0.088
    1UNL     C9   13  -0.449   0.251   0.153
    1UNL     O5   14  -0.549   0.229   0.254
    1UNL    C10   15  -0.347   0.134   0.152
    1UNL     O6   16  -0.414   0.008   0.132
    1UNL    C11   17  -0.474  -0.008  -0.002
    1UNL     O7   18  -0.404   0.081  -0.102
    1UNL    C12   19  -0.306   0.025  -0.185
    1UNL    C13   20  -0.345   0.022  -0.327
    1UNL     O8   21  -0.471  -0.036  -0.344
    1UNL    C14   22  -0.264  -0.117  -0.134
    1UNL     O9   23  -0.149  -0.177  -0.199
    1UNL    C15   24  -0.384  -0.210  -0.138
    1UNL    O10   25  -0.342  -0.337  -0.103
    1UNL    C16   26  -0.504  -0.157  -0.056
    1UNL    O11   27  -0.631  -0.172  -0.114
    1UNL    O12   28  -0.068   0.157   0.101
    1UNL    C17   29  -0.009   0.116  -0.020
    1UNL    C18   30   0.109   0.058  -0.042
    1UNL    C19   31   0.142   0.011  -0.172
    1UNL    O13   32   0.072   0.027  -0.271
    1UNL     N1   33   0.256  -0.063  -0.174
    1UNL    C20   34   0.340  -0.087  -0.294
    1UNL    C21   35   0.474  -0.120  -0.238
    1UNL    C22   36   0.463  -0.149  -0.105
    1UNL     N2   37   0.581  -0.174  -0.033
    1UNL    C23   38   0.708  -0.152  -0.097
    1UNL    C24   39   0.831  -0.158  -0.021
    1UNL    C25   40   0.953  -0.145  -0.086
    1UNL    O14   41   1.070  -0.155  -0.005
    1UNL    C26   42   0.966  -0.116  -0.224
    1UNL    C27   43   0.849  -0.093  -0.289
    1UNL    C28   44   0.724  -0.118  -0.229
    1UNL    C29   45   0.599  -0.107  -0.305
    1UNL    O15   46   0.598  -0.069  -0.424
    1UNL    C30   47   0.322  -0.135  -0.061
    1UNL    C31   48   0.317  -0.056   0.072
    1UNL    C32   49   0.185   0.029   0.086
    1UNL     H1   50  -0.126  -0.305   0.153
    1UNL     H2   51  -0.134  -0.193   0.287
    1UNL     H3   52   0.033  -0.162   0.039
    1UNL     H4   53   0.116  -0.051   0.292
    1UNL     H5   54  -0.005   0.153   0.294
    1UNL     H6   55  -0.321   0.121   0.356
    1UNL     H7   56  -0.218   0.456   0.318
    1UNL     H8   57  -0.445   0.277   0.427
    1UNL     H9   58  -0.323   0.345   0.534
    1UNL    H10   59  -0.550   0.460   0.479
    1UNL    H11   60  -0.442   0.462   0.196
    1UNL    H12   61  -0.202   0.352   0.088
    1UNL    H13   62  -0.494   0.259   0.058
    1UNL    H14   63  -0.594   0.143   0.244
    1UNL    H15   64  -0.280   0.144   0.060
    1UNL    H16   65  -0.574   0.042   0.002
    1UNL    H17   66  -0.213   0.077  -0.179
    1UNL    H18   67  -0.266  -0.030  -0.385
    1UNL    H19   68  -0.354   0.127  -0.354
    1UNL    H20   69  -0.531   0.025  -0.295
    1UNL    H21   70  -0.234  -0.118  -0.022
    1UNL    H22   71  -0.092  -0.105  -0.224
    1UNL    H23   72  -0.421  -0.211  -0.238
    1UNL    H24   73  -0.263  -0.372  -0.155
    1UNL    H25   74  -0.515  -0.217   0.048
    1UNL    H26   75  -0.616  -0.143  -0.210
    1UNL    H27   76  -0.063   0.149  -0.098
    1UNL    H28   77   0.341   0.006  -0.358
    1UNL    H29   78   0.302  -0.177  -0.352
    1UNL    H30   79   0.571  -0.191   0.070
    1UNL    H31   80   0.834  -0.196   0.080
    1UNL    H32   81   1.141  -0.186  -0.063
    1UNL    H33   82   1.062  -0.117  -0.279
    1UNL    H34   83   0.845  -0.072  -0.391
    1UNL    H35   84   0.273  -0.232  -0.061
    1UNL    H36   85   0.333  -0.126   0.155
    1UNL    H37   86   0.403   0.011   0.077
    1UNL    H38   87   0.221   0.131   0.115
   0.00000   0.00000   0.00000   0.00000   0.00000   0.00000   0.00000   0.00000   0.00000
Generated with MDTraj, t= 46.0
 87
    1UNL     C1    1  -0.042  -0.235   0.251
    1UNL     C2    2   0.016  -0.160   0.161
    1UNL     C3    3   0.062  -0.025   0.197
    1UNL     C4    4  -0.047   0.078   0.204
    1UNL     O1    5  -0.167   0.025   0.245
    1UNL     C5    6  -0.263   0.126   0.273
    1UNL     O2    7  -0.207   0.259   0.309
    1UNL     C6    8  -0.307   0.369   0.312
    1UNL     C7    9  -0.402   0.350   0.436
    1UNL     O3   10  -0.461   0.482   0.464
    1UNL     C8   11  -0.373   0.373   0.173
    1UNL     O4   12  -0.271   0.390   0.073
    1UNL     C9   13  -0.444   0.243   0.136
    1UNL     O5   14  -0.540   0.214   0.233
    1UNL    C10   15  -0.347   0.119   0.144
    1UNL     O6   16  -0.413  -0.005   0.138
    1UNL    C11   17  -0.472  -0.019   0.014
    1UNL     O7   18  -0.436   0.083  -0.083
    1UNL    C12   19  -0.329   0.049  -0.180
    1UNL    C13   20  -0.375   0.030  -0.328
    1UNL     O8   21  -0.511   0.016  -0.330
    1UNL    C14   22  -0.254  -0.090  -0.143
    1UNL     O9   23  -0.160  -0.118  -0.244
    1UNL    C15   24  -0.356  -0.202  -0.135
    1UNL    O10   25  -0.297  -0.317  -0.090
    1UNL    C16   26  -0.476  -0.166  -0.035
    1UNL    O11   27  -0.600  -0.194  -0.087
    1UNL    O12   28  -0.067   0.168   0.085
    1UNL    C17   29  -0.002   0.134  -0.030
    1UNL    C18   30   0.114   0.068  -0.041
    1UNL    C19   31   0.148   0.012  -0.172
    1UNL    O13   32   0.082   0.032  -0.274
    1UNL     N1   33   0.257  -0.071  -0.179
    1UNL    C20   34   0.343  -0.089  -0.296
    1UNL    C21   35   0.479  -0.103  -0.234
    1UNL    C22   36   0.473  -0.131  -0.101
    1UNL     N2   37   0.590  -0.154  -0.033
    1UNL    C23   38   0.716  -0.157  -0.094
    1UNL    C24   39   0.833  -0.181  -0.023
    1UNL    C25   40   0.958  -0.161  -0.081
    1UNL    O14   41   1.066  -0.168   0.004
    1UNL    C26   42   0.961  -0.121  -0.220
    1UNL    C27   43   0.845  -0.103  -0.295
    1UNL    C28   44   0.723  -0.126  -0.236
    1UNL    C29   45   0.599  -0.111  -0.310
    1UNL    O15   46   0.594  -0.115  -0.434
    1UNL    C30   47   0.327  -0.126  -0.058
    1UNL    C31   48   0.305  -0.056   0.082
    1UNL    C32   49   0.170   0.031   0.094
    1UNL     H1   50  -0.081  -0.333   0.214
    1UNL     H2   51  -0.069  -0.204   0.353
    1UNL     H3   52   0.021  -0.198   0.063
    1UNL     H4   53   0.109  -0.033   0.294
    1UNL     H5   54  -0.014   0.154   0.272
    1UNL     H6   55  -0.315   0.086   0.358
    1UNL     H7   56  -0.246   0.458   0.333
    1UNL     H8   57  -0.473   0.268   0.411
    1UNL     H9   58  -0.342   0.315   0.516
    1UNL    H10   59  -0.427   0.547   0.392
    1UNL    H11   60  -0.446   0.456   0.175
    1UNL    H12   61  -0.193   0.325   0.085
    1UNL    H13   62  -0.487   0.252   0.042
    1UNL    H14   63  -0.569   0.125   0.231
    1UNL    H15   64  -0.270   0.115   0.057
    1UNL    H16   65  -0.584   0.004   0.023
    1UNL    H17   66  -0.261   0.129  -0.156
    1UNL    H18   67  -0.323  -0.058  -0.368
    1UNL    H19   68  -0.345   0.121  -0.379
    1UNL    H20   69  -0.544   0.086  -0.267
    1UNL    H21   70  -0.200  -0.091  -0.041
    1UNL    H22   71  -0.071  -0.069  -0.229
    1UNL    H23   72  -0.397  -0.226  -0.233
    1UNL    H24   73  -0.242  -0.364  -0.163
    1UNL    H25   74  -0.470  -0.235   0.064
    1UNL    H26   75  -0.614  -0.136  -0.167
    1UNL    H27   76  -0.048   0.177  -0.125
    1UNL    H28   77   0.343   0.002  -0.364
    1UNL    H29   78   0.315  -0.183  -0.354
    1UNL    H30   79   0.581  -0.167   0.077
    1UNL    H31   80   0.822  -0.199   0.082
    1UNL    H32   81   1.151  -0.168  -0.040
    1UNL    H33   82   1.050  -0.099  -0.269
    1UNL    H34   83   0.856  -0.073  -0.401
    1UNL    H35   84   0.296  -0.230  -0.055
    1UNL    H36   85   0.297  -0.129   0.164
    1UNL    H37   86   0.387   0.009   0.109
    1UNL    H38   87   0.214   0.123   0.141
   0.00000   0.00000   0.00000   0.00000   0.00000   0.00000   0.00000   0.00000   0.00000
Generated with MDTraj, t= 47.0
 87
    1UNL     C1    1  -0.016  -0.232   0.241
    1UNL     C2    2   0.028  -0.134   0.161
    1UNL     C3    3   0.087  -0.000   0.197
    1UNL     C4    4  -0.035   0.096   0.215
    1UNL     O1    5  -0.146   0.034   0.292
    1UNL     C5    6  -0.258   0.119   0.286
    1UNL     O2    7  -0.214   0.251   0.322
    1UNL     C6    8  -0.311   0.360   0.311
    1UNL     C7    9  -0.409   0.356   0.431
    1UNL     O3   10  -0.468   0.487   0.463
    1UNL     C8   11  -0.371   0.358   0.172
    1UNL     O4   12  -0.268   0.395   0.071
    1UNL     C9   13  -0.429   0.226   0.130
    1UNL     O5   14  -0.540   0.193   0.205
    1UNL    C10   15  -0.323   0.112   0.148
    1UNL     O6   16  -0.376  -0.016   0.133
    1UNL    C11   17  -0.465  -0.037   0.022
    1UNL     O7   18  -0.466   0.067  -0.077
    1UNL    C12   19  -0.366   0.053  -0.177
    1UNL    C13   20  -0.431   0.050  -0.322
    1UNL     O8   21  -0.561   0.006  -0.327
    1UNL    C14   22  -0.263  -0.067  -0.151
    1UNL     O9   23  -0.163  -0.076  -0.252
    1UNL    C15   24  -0.336  -0.199  -0.140
    1UNL    O10   25  -0.261  -0.286  -0.066
    1UNL    C16   26  -0.470  -0.180  -0.054
    1UNL    O11   27  -0.583  -0.197  -0.136
    1UNL    O12   28  -0.072   0.166   0.088
    1UNL    C17   29  -0.015   0.119  -0.026
    1UNL    C18   30   0.106   0.061  -0.037
    1UNL    C19   31   0.146   0.009  -0.167
    1UNL    O13   32   0.096   0.057  -0.267
    1UNL     N1   33   0.243  -0.093  -0.184
    1UNL    C20   34   0.335  -0.091  -0.298
    1UNL    C21   35   0.474  -0.133  -0.244
    1UNL    C22   36   0.467  -0.143  -0.105
    1UNL     N2   37   0.578  -0.148  -0.028
    1UNL    C23   38   0.705  -0.145  -0.085
    1UNL    C24   39   0.824  -0.151  -0.016
    1UNL    C25   40   0.950  -0.162  -0.073
    1UNL    O14   41   1.063  -0.182  -0.000
    1UNL    C26   42   0.958  -0.162  -0.211
    1UNL    C27   43   0.842  -0.161  -0.293
    1UNL    C28   44   0.717  -0.138  -0.225
    1UNL    C29   45   0.602  -0.118  -0.305
    1UNL    O15   46   0.606  -0.088  -0.424
    1UNL    C30   47   0.325  -0.130  -0.062
    1UNL    C31   48   0.318  -0.033   0.060
    1UNL    C32   49   0.186   0.053   0.080
    1UNL     H1   50  -0.067  -0.315   0.212
    1UNL     H2   51  -0.008  -0.213   0.348
    1UNL     H3   52   0.022  -0.152   0.051
    1UNL     H4   53   0.133  -0.009   0.294
    1UNL     H5   54  -0.011   0.182   0.274
    1UNL     H6   55  -0.324   0.087   0.363
    1UNL     H7   56  -0.250   0.451   0.320
    1UNL     H8   57  -0.491   0.281   0.414
    1UNL     H9   58  -0.352   0.319   0.515
    1UNL    H10   59  -0.552   0.508   0.417
    1UNL    H11   60  -0.452   0.431   0.175
    1UNL    H12   61  -0.198   0.322   0.066
    1UNL    H13   62  -0.450   0.225   0.028
    1UNL    H14   63  -0.550   0.090   0.203
    1UNL    H15   64  -0.253   0.109   0.055
    1UNL    H16   65  -0.573  -0.027   0.062
    1UNL    H17   66  -0.307   0.145  -0.168
    1UNL    H18   67  -0.362  -0.020  -0.371
    1UNL    H19   68  -0.429   0.146  -0.375
    1UNL    H20   69  -0.615   0.068  -0.274
    1UNL    H21   70  -0.212  -0.047  -0.052
    1UNL    H22   71  -0.083  -0.034  -0.218
    1UNL    H23   72  -0.343  -0.244  -0.242
    1UNL    H24   73  -0.190  -0.313  -0.123
    1UNL    H25   74  -0.468  -0.265   0.028
    1UNL    H26   75  -0.582  -0.127  -0.201
    1UNL    H27   76  -0.081   0.120  -0.115
    1UNL    H28   77   0.346   0.016  -0.334
    1UNL    H29   78   0.295  -0.153  -0.386
    1UNL    H30   79   0.566  -0.167   0.076
    1UNL    H31   80   0.827  -0.132   0.090
    1UNL    H32   81   1.146  -0.187  -0.051
    1UNL    H33   82   1.057  -0.180  -0.258
    1UNL    H34   83   0.849  -0.165  -0.401
    1UNL    H35   84   0.289  -0.225  -0.023
    1UNL    H36   85   0.351  -0.082   0.153
    1UNL    H37   86   0.392   0.040   0.032
    1UNL    H38   87   0.217   0.158   0.109
   0.00000   0.00000   0.00000   0.00000   0.00000   0.00000   0.00000   0.00000   0.00000
Generated with MDTraj, t= 48.0
 87
    1UNL     C1    1  -0.015  -0.212   0.232
    1UNL     C2    2   0.055  -0.127   0.154
    1UNL     C3    3   0.090   0.009   0.197
    1UNL     C4    4  -0.029   0.102   0.216
    1UNL     O1    5  -0.146   0.028   0.251
    1UNL     C5    6  -0.255   0.116   0.270
    1UNL     O2    7  -0.205   0.244   0.315
    1UNL     C6    8  -0.297   0.354   0.312
    1UNL     C7    9  -0.396   0.338   0.426
    1UNL     O3   10  -0.486   0.442   0.426
    1UNL     C8   11  -0.371   0.357   0.177
    1UNL     O4   12  -0.281   0.381   0.063
    1UNL     C9   13  -0.450   0.223   0.152
    1UNL     O5   14  -0.538   0.178   0.261
    1UNL    C10   15  -0.334   0.114   0.144
    1UNL     O6   16  -0.394  -0.017   0.131
    1UNL    C11   17  -0.474  -0.035   0.015
    1UNL     O7   18  -0.461   0.066  -0.089
    1UNL    C12   19  -0.364   0.057  -0.194
    1UNL    C13   20  -0.443   0.049  -0.335
    1UNL     O8   21  -0.582   0.024  -0.317
    1UNL    C14   22  -0.262  -0.060  -0.178
    1UNL     O9   23  -0.172  -0.090  -0.296
    1UNL    C15   24  -0.319  -0.191  -0.126
    1UNL    O10   25  -0.212  -0.259  -0.072
    1UNL    C16   26  -0.445  -0.181  -0.034
    1UNL    O11   27  -0.561  -0.231  -0.108
    1UNL    O12   28  -0.061   0.188   0.101
    1UNL    C17   29   0.000   0.164  -0.023
    1UNL    C18   30   0.117   0.090  -0.036
    1UNL    C19   31   0.144   0.029  -0.167
    1UNL    O13   32   0.072   0.061  -0.263
    1UNL     N1   33   0.252  -0.063  -0.170
    1UNL    C20   34   0.333  -0.084  -0.288
    1UNL    C21   35   0.465  -0.116  -0.232
    1UNL    C22   36   0.465  -0.125  -0.096
    1UNL     N2   37   0.574  -0.149  -0.022
    1UNL    C23   38   0.699  -0.169  -0.087
    1UNL    C24   39   0.812  -0.190  -0.010
    1UNL    C25   40   0.937  -0.189  -0.068
    1UNL    O14   41   1.058  -0.198   0.008
    1UNL    C26   42   0.946  -0.167  -0.208
    1UNL    C27   43   0.834  -0.164  -0.286
    1UNL    C28   44   0.710  -0.162  -0.228
    1UNL    C29   45   0.591  -0.133  -0.310
    1UNL    O15   46   0.601  -0.118  -0.434
    1UNL    C30   47   0.327  -0.105  -0.048
    1UNL    C31   48   0.324  -0.002   0.065
    1UNL    C32   49   0.192   0.070   0.089
    1UNL     H1   50  -0.026  -0.314   0.205
    1UNL     H2   51  -0.033  -0.189   0.339
    1UNL     H3   52   0.096  -0.156   0.063
    1UNL     H4   53   0.140  -0.006   0.291
    1UNL     H5   54  -0.007   0.167   0.303
    1UNL     H6   55  -0.307   0.089   0.358
    1UNL     H7   56  -0.237   0.446   0.319
    1UNL     H8   57  -0.453   0.241   0.415
    1UNL     H9   58  -0.356   0.335   0.527
    1UNL    H10   59  -0.563   0.425   0.373
    1UNL    H11   60  -0.447   0.435   0.174
    1UNL    H12   61  -0.201   0.333   0.081
    1UNL    H13   62  -0.506   0.227   0.063
    1UNL    H14   63  -0.569   0.083   0.262
    1UNL    H15   64  -0.278   0.120   0.044
    1UNL    H16   65  -0.584  -0.021   0.043
    1UNL    H17   66  -0.311   0.155  -0.200
    1UNL    H18   67  -0.406  -0.021  -0.411
    1UNL    H19   68  -0.431   0.152  -0.372
    1UNL    H20   69  -0.621   0.084  -0.253
    1UNL    H21   70  -0.197  -0.029  -0.092
    1UNL    H22   71  -0.102  -0.023  -0.290
    1UNL    H23   72  -0.358  -0.255  -0.212
    1UNL    H24   73  -0.152  -0.282  -0.142
    1UNL    H25   74  -0.438  -0.250   0.061
    1UNL    H26   75  -0.569  -0.162  -0.182
    1UNL    H27   76  -0.063   0.192  -0.097
    1UNL    H28   77   0.339   0.005  -0.360
    1UNL    H29   78   0.300  -0.173  -0.349
    1UNL    H30   79   0.564  -0.147   0.076
    1UNL    H31   80   0.814  -0.196   0.098
    1UNL    H32   81   1.132  -0.149  -0.036
    1UNL    H33   82   1.035  -0.151  -0.262
    1UNL    H34   83   0.845  -0.154  -0.392
    1UNL    H35   84   0.294  -0.201  -0.006
    1UNL    H36   85   0.350  -0.058   0.155
    1UNL    H37   86   0.407   0.061   0.042
    1UNL    H38   87   0.217   0.174   0.127
   0.00000   0.00000   0.00000   0.00000   0.00000   0.00000   0.00000   0.00000   0.00000
Generated with MDTraj, t= 49.0
 87
    1UNL     C1    1  -0.012  -0.200   0.210
    1UNL     C2    2   0.055  -0.119   0.128
    1UNL     C3    3   0.091   0.018   0.181
    1UNL     C4    4  -0.028   0.118   0.209
    1UNL     O1    5  -0.139   0.043   0.272
    1UNL     C5    6  -0.252   0.130   0.288
    1UNL     O2    7  -0.204   0.261   0.327
    1UNL     C6    8  -0.304   0.369   0.315
    1UNL     C7    9  -0.386   0.378   0.448
    1UNL     O3   10  -0.520   0.362   0.435
    1UNL     C8   11  -0.391   0.364   0.183
    1UNL     O4   12  -0.301   0.398   0.079
    1UNL     C9   13  -0.454   0.220   0.160
    1UNL     O5   14  -0.561   0.171   0.239
    1UNL    C10   15  -0.338   0.117   0.163
    1UNL     O6   16  -0.388  -0.017   0.136
    1UNL    C11   17  -0.456  -0.037   0.009
    1UNL     O7   18  -0.439   0.072  -0.080
    1UNL    C12   19  -0.358   0.053  -0.192
    1UNL    C13   20  -0.443   0.002  -0.316
    1UNL     O8   21  -0.581  -0.022  -0.281
    1UNL    C14   22  -0.241  -0.043  -0.172
    1UNL     O9   23  -0.168  -0.068  -0.302
    1UNL    C15   24  -0.299  -0.179  -0.139
    1UNL    O10   25  -0.203  -0.268  -0.082
    1UNL    C16   26  -0.431  -0.177  -0.063
    1UNL    O11   27  -0.551  -0.230  -0.139
    1UNL    O12   28  -0.073   0.203   0.092
    1UNL    C17   29  -0.015   0.167  -0.028
    1UNL    C18   30   0.104   0.101  -0.043
    1UNL    C19   31   0.147   0.041  -0.166
    1UNL    O13   32   0.101   0.072  -0.276
    1UNL     N1   33   0.259  -0.048  -0.163
    1UNL    C20   34   0.337  -0.075  -0.289
    1UNL    C21   35   0.473  -0.108  -0.225
    1UNL    C22   36   0.462  -0.132  -0.091
    1UNL     N2   37   0.575  -0.170  -0.019
    1UNL    C23   38   0.698  -0.177  -0.082
    1UNL    C24   39   0.812  -0.199  -0.007
    1UNL    C25   40   0.935  -0.205  -0.074
    1UNL    O14   41   1.044  -0.239  -0.000
    1UNL    C26   42   0.942  -0.182  -0.214
    1UNL    C27   43   0.831  -0.157  -0.288
    1UNL    C28   44   0.710  -0.159  -0.223
    1UNL    C29   45   0.589  -0.142  -0.301
    1UNL    O15   46   0.572  -0.151  -0.423
    1UNL    C30   47   0.329  -0.087  -0.045
    1UNL    C31   48   0.331   0.027   0.058
    1UNL    C32   49   0.190   0.085   0.079
    1UNL     H1   50  -0.053  -0.295   0.174
    1UNL     H2   51  -0.009  -0.188   0.315
    1UNL     H3   52   0.072  -0.142   0.020
    1UNL     H4   53   0.146   0.003   0.272
    1UNL     H5   54   0.005   0.191   0.287
    1UNL     H6   55  -0.296   0.106   0.383
    1UNL     H7   56  -0.233   0.454   0.308
    1UNL     H8   57  -0.352   0.297   0.521
    1UNL     H9   58  -0.372   0.472   0.504
    1UNL    H10   59  -0.537   0.289   0.370
    1UNL    H11   60  -0.477   0.429   0.179
    1UNL    H12   61  -0.226   0.331   0.081
    1UNL    H13   62  -0.491   0.225   0.059
    1UNL    H14   63  -0.581   0.080   0.224
    1UNL    H15   64  -0.272   0.130   0.069
    1UNL    H16   65  -0.565  -0.033   0.032
    1UNL    H17   66  -0.322   0.158  -0.212
    1UNL    H18   67  -0.408  -0.098  -0.344
    1UNL    H19   68  -0.447   0.058  -0.412
    1UNL    H20   69  -0.616   0.050  -0.222
    1UNL    H21   70  -0.181  -0.003  -0.090
    1UNL    H22   71  -0.092  -0.003  -0.305
    1UNL    H23   72  -0.321  -0.228  -0.242
    1UNL    H24   73  -0.153  -0.316  -0.151
    1UNL    H25   74  -0.411  -0.245   0.029
    1UNL    H26   75  -0.574  -0.162  -0.203
    1UNL    H27   76  -0.069   0.210  -0.119
    1UNL    H28   77   0.334   0.010  -0.366
    1UNL    H29   78   0.292  -0.165  -0.340
    1UNL    H30   79   0.568  -0.177   0.075
    1UNL    H31   80   0.802  -0.233   0.093
    1UNL    H32   81   1.128  -0.204  -0.045
    1UNL    H33   82   1.040  -0.193  -0.259
    1UNL    H34   83   0.827  -0.153  -0.398
    1UNL    H35   84   0.283  -0.178  -0.003
    1UNL    H36   85   0.387  -0.002   0.148
    1UNL    H37   86   0.388   0.107   0.013
    1UNL    H38   87   0.210   0.185   0.127
   0.00000   0.00000   0.00000   0.00000   0.00000   0.00000   0.00000   0.00000   0.00000
Generated with MDTraj, t= 50.0
 87
    1UNL     C1    1  -0.028  -0.186   0.190
    1UNL     C2    2   0.031  -0.096   0.114
    1UNL     C3    3   0.077   0.033   0.178
    1UNL     C4    4  -0.043   0.128   0.194
    1UNL     O1    5  -0.139   0.062   0.278
    1UNL     C5    6  -0.252   0.147   0.288
    1UNL     O2    7  -0.226   0.283   0.319
    1UNL     C6    8  -0.336   0.375   0.317
    1UNL     C7    9  -0.417   0.361   0.454
    1UNL     O3   10  -0.533   0.284   0.458
    1UNL     C8   11  -0.406   0.365   0.180
    1UNL     O4   12  -0.317   0.418   0.086
    1UNL     C9   13  -0.453   0.220   0.144
    1UNL     O5   14  -0.547   0.162   0.227
    1UNL    C10   15  -0.327   0.123   0.147
    1UNL     O6   16  -0.355  -0.015   0.129
    1UNL    C11   17  -0.432  -0.039   0.020
    1UNL     O7   18  -0.439   0.059  -0.081
    1UNL    C12   19  -0.354   0.046  -0.191
    1UNL    C13   20  -0.435   0.009  -0.316
    1UNL     O8   21  -0.575   0.024  -0.298
    1UNL    C14   22  -0.238  -0.055  -0.172
    1UNL     O9   23  -0.136  -0.075  -0.283
    1UNL    C15   24  -0.285  -0.194  -0.134
    1UNL    O10   25  -0.167  -0.258  -0.082
    1UNL    C16   26  -0.394  -0.185  -0.029
    1UNL    O11   27  -0.523  -0.250  -0.068
    1UNL    O12   28  -0.084   0.195   0.077
    1UNL    C17   29  -0.017   0.171  -0.041
    1UNL    C18   30   0.104   0.114  -0.048
    1UNL    C19   31   0.155   0.070  -0.171
    1UNL    O13   32   0.106   0.107  -0.275
    1UNL     N1   33   0.261  -0.030  -0.174
    1UNL    C20   34   0.328  -0.087  -0.287
    1UNL    C21   35   0.463  -0.119  -0.231
    1UNL    C22   36   0.463  -0.121  -0.095
    1UNL     N2   37   0.570  -0.142  -0.018
    1UNL    C23   38   0.691  -0.162  -0.085
    1UNL    C24   39   0.814  -0.189  -0.011
    1UNL    C25   40   0.933  -0.233  -0.075
    1UNL    O14   41   1.040  -0.259   0.007
    1UNL    C26   42   0.928  -0.249  -0.214
    1UNL    C27   43   0.821  -0.212  -0.289
    1UNL    C28   44   0.700  -0.168  -0.228
    1UNL    C29   45   0.582  -0.139  -0.308
    1UNL    O15   46   0.582  -0.126  -0.430
    1UNL    C30   47   0.321  -0.087  -0.048
    1UNL    C31   48   0.324   0.016   0.062
    1UNL    C32   49   0.185   0.096   0.075
    1UNL     H1   50  -0.074  -0.275   0.142
    1UNL     H2   51  -0.027  -0.165   0.292
    1UNL     H3   52   0.048  -0.123   0.012
    1UNL     H4   53   0.117   0.021   0.278
    1UNL     H5   54  -0.018   0.219   0.259
    1UNL     H6   55  -0.318   0.109   0.365
    1UNL     H7   56  -0.279   0.470   0.322
    1UNL     H8   57  -0.349   0.323   0.537
    1UNL     H9   58  -0.437   0.463   0.489
    1UNL    H10   59  -0.548   0.224   0.378
    1UNL    H11   60  -0.496   0.425   0.180
    1UNL    H12   61  -0.233   0.366   0.089
    1UNL    H13   62  -0.480   0.232   0.037
    1UNL    H14   63  -0.530   0.059   0.226
    1UNL    H15   64  -0.273   0.137   0.047
    1UNL    H16   65  -0.535  -0.053   0.053
    1UNL    H17   66  -0.309   0.150  -0.202
    1UNL    H18   67  -0.430  -0.094  -0.355
    1UNL    H19   68  -0.412   0.078  -0.400
    1UNL    H20   69  -0.590   0.053  -0.207
    1UNL    H21   70  -0.186  -0.017  -0.086
    1UNL    H22   71  -0.051  -0.038  -0.263
    1UNL    H23   72  -0.311  -0.258  -0.227
    1UNL    H24   73  -0.108  -0.291  -0.159
    1UNL    H25   74  -0.351  -0.236   0.065
    1UNL    H26   75  -0.567  -0.193  -0.129
    1UNL    H27   76  -0.074   0.190  -0.134
    1UNL    H28   77   0.336  -0.015  -0.372
    1UNL    H29   78   0.282  -0.182  -0.322
    1UNL    H30   79   0.563  -0.173   0.078
    1UNL    H31   80   0.804  -0.189   0.098
    1UNL    H32   81   1.122  -0.273  -0.051
    1UNL    H33   82   1.014  -0.299  -0.257
    1UNL    H34   83   0.820  -0.224  -0.392
    1UNL    H35   84   0.257  -0.176  -0.028
    1UNL    H36   85   0.354  -0.026   0.158
    1UNL    H37   86   0.399   0.089   0.040
    1UNL    H38   87   0.210   0.193   0.121
   0.00000   0.00000   0.00000   0.00000   0.00000   0.00000   0.00000   0.00000   0.00000
Generated with MDTraj, t= 51.0
 87
    1UNL     C1    1  -0.073  -0.144   0.186
    1UNL     C2    2   0.022  -0.078   0.121
    1UNL     C3    3   0.080   0.044   0.177
    1UNL     C4    4  -0.029   0.154   0.214
    1UNL     O1    5  -0.133   0.082   0.287
    1UNL     C5    6  -0.258   0.157   0.291
    1UNL     O2    7  -0.241   0.293   0.300
    1UNL     C6    8  -0.357   0.375   0.310
    1UNL     C7    9  -0.435   0.356   0.445
    1UNL     O3   10  -0.452   0.216   0.473
    1UNL     C8   11  -0.434   0.361   0.177
    1UNL     O4   12  -0.370   0.428   0.073
    1UNL     C9   13  -0.457   0.209   0.143
    1UNL     O5   14  -0.560   0.160   0.217
    1UNL    C10   15  -0.333   0.114   0.156
    1UNL     O6   16  -0.367  -0.019   0.158
    1UNL    C11   17  -0.421  -0.056   0.032
    1UNL     O7   18  -0.435   0.037  -0.081
    1UNL    C12   19  -0.338   0.029  -0.186
    1UNL    C13   20  -0.407  -0.003  -0.318
    1UNL     O8   21  -0.538   0.044  -0.330
    1UNL    C14   22  -0.214  -0.063  -0.156
    1UNL     O9   23  -0.123  -0.069  -0.268
    1UNL    C15   24  -0.261  -0.206  -0.121
    1UNL    O10   25  -0.149  -0.275  -0.073
    1UNL    C16   26  -0.379  -0.202  -0.023
    1UNL    O11   27  -0.501  -0.255  -0.083
    1UNL    O12   28  -0.066   0.232   0.096
    1UNL    C17   29  -0.003   0.197  -0.027
    1UNL    C18   30   0.114   0.129  -0.044
    1UNL    C19   31   0.142   0.073  -0.175
    1UNL    O13   32   0.076   0.116  -0.266
    1UNL     N1   33   0.245  -0.027  -0.188
    1UNL    C20   34   0.335  -0.045  -0.298
    1UNL    C21   35   0.469  -0.087  -0.249
    1UNL    C22   36   0.463  -0.096  -0.113
    1UNL     N2   37   0.571  -0.132  -0.030
    1UNL    C23   38   0.687  -0.177  -0.090
    1UNL    C24   39   0.792  -0.220  -0.008
    1UNL    C25   40   0.912  -0.261  -0.070
    1UNL    O14   41   1.025  -0.284   0.009
    1UNL    C26   42   0.911  -0.270  -0.211
    1UNL    C27   43   0.803  -0.246  -0.288
    1UNL    C28   44   0.693  -0.190  -0.232
    1UNL    C29   45   0.586  -0.137  -0.317
    1UNL    O15   46   0.591  -0.147  -0.438
    1UNL    C30   47   0.318  -0.070  -0.063
    1UNL    C31   48   0.320   0.032   0.061
    1UNL    C32   49   0.186   0.106   0.080
    1UNL     H1   50  -0.122  -0.231   0.148
    1UNL     H2   51  -0.119  -0.102   0.277
    1UNL     H3   52   0.061  -0.122   0.030
    1UNL     H4   53   0.139   0.010   0.261
    1UNL     H5   54   0.013   0.231   0.286
    1UNL     H6   55  -0.299   0.130   0.391
    1UNL     H7   56  -0.316   0.478   0.309
    1UNL     H8   57  -0.386   0.406   0.533
    1UNL     H9   58  -0.531   0.406   0.449
    1UNL    H10   59  -0.489   0.185   0.391
    1UNL    H11   60  -0.535   0.400   0.191
    1UNL    H12   61  -0.274   0.400   0.077
    1UNL    H13   62  -0.482   0.219   0.032
    1UNL    H14   63  -0.568   0.068   0.203
    1UNL    H15   64  -0.257   0.127   0.073
    1UNL    H16   65  -0.525  -0.070   0.053
    1UNL    H17   66  -0.291   0.130  -0.178
    1UNL    H18   67  -0.408  -0.112  -0.325
    1UNL    H19   68  -0.348   0.036  -0.404
    1UNL    H20   69  -0.546   0.104  -0.248
    1UNL    H21   70  -0.160  -0.024  -0.073
    1UNL    H22   71  -0.084   0.022  -0.287
    1UNL    H23   72  -0.294  -0.274  -0.209
    1UNL    H24   73  -0.108  -0.336  -0.145
    1UNL    H25   74  -0.357  -0.267   0.067
    1UNL    H26   75  -0.524  -0.199  -0.160
    1UNL    H27   76  -0.059   0.232  -0.104
    1UNL    H28   77   0.349   0.051  -0.351
    1UNL    H29   78   0.293  -0.120  -0.368
    1UNL    H30   79   0.578  -0.091   0.071
    1UNL    H31   80   0.791  -0.197   0.096
    1UNL    H32   81   1.092  -0.325  -0.051
    1UNL    H33   82   1.008  -0.292  -0.249
    1UNL    H34   83   0.811  -0.250  -0.401
    1UNL    H35   84   0.291  -0.173  -0.028
    1UNL    H36   85   0.349  -0.020   0.152
    1UNL    H37   86   0.404   0.098   0.045
    1UNL    H38   87   0.204   0.208   0.116
   0.00000   0.00000   0.00000   0.00000   0.00000   0.00000   0.00000   0.00000   0.00000
Generated with MDTraj, t= 52.0
 87
    1UNL     C1    1  -0.062  -0.138   0.204
    1UNL     C2    2   0.040  -0.073   0.144
    1UNL     C3    3   0.086   0.069   0.180
    1UNL     C4    4  -0.034   0.168   0.194
    1UNL     O1    5  -0.131   0.108   0.283
    1UNL     C5    6  -0.251   0.170   0.276
    1UNL     O2    7  -0.246   0.309   0.290
    1UNL     C6    8  -0.369   0.373   0.307
    1UNL     C7    9  -0.423   0.343   0.446
    1UNL     O3   10  -0.458   0.214   0.475
    1UNL     C8   11  -0.458   0.338   0.177
    1UNL     O4   12  -0.380   0.393   0.070
    1UNL     C9   13  -0.469   0.176   0.147
    1UNL     O5   14  -0.554   0.111   0.235
    1UNL    C10   15  -0.328   0.122   0.143
    1UNL     O6   16  -0.316  -0.017   0.128
    1UNL    C11   17  -0.407  -0.060   0.027
    1UNL     O7   18  -0.420   0.032  -0.088
    1UNL    C12   19  -0.315   0.025  -0.186
    1UNL    C13   20  -0.382  -0.014  -0.323
    1UNL     O8   21  -0.490   0.074  -0.353
    1UNL    C14   22  -0.194  -0.068  -0.138
    1UNL     O9   23  -0.108  -0.073  -0.249
    1UNL    C15   24  -0.252  -0.216  -0.103
    1UNL    O10   25  -0.158  -0.290  -0.040
    1UNL    C16   26  -0.380  -0.211  -0.019
    1UNL    O11   27  -0.495  -0.265  -0.071
    1UNL    O12   28  -0.090   0.220   0.069
    1UNL    C17   29  -0.016   0.195  -0.042
    1UNL    C18   30   0.112   0.153  -0.047
    1UNL    C19   31   0.160   0.112  -0.177
    1UNL    O13   32   0.092   0.134  -0.275
    1UNL     N1   33   0.277   0.034  -0.175
    1UNL    C20   34   0.346  -0.015  -0.295
    1UNL    C21   35   0.447  -0.109  -0.232
    1UNL    C22   36   0.449  -0.103  -0.097
    1UNL     N2   37   0.547  -0.149  -0.021
    1UNL    C23   38   0.663  -0.197  -0.089
    1UNL    C24   39   0.771  -0.237  -0.018
    1UNL    C25   40   0.889  -0.274  -0.083
    1UNL    O14   41   0.988  -0.338  -0.008
    1UNL    C26   42   0.909  -0.263  -0.222
    1UNL    C27   43   0.797  -0.229  -0.297
    1UNL    C28   44   0.675  -0.192  -0.230
    1UNL    C29   45   0.562  -0.146  -0.309
    1UNL    O15   46   0.558  -0.135  -0.432
    1UNL    C30   47   0.317  -0.040  -0.056
    1UNL    C31   48   0.323   0.061   0.067
    1UNL    C32   49   0.187   0.129   0.083
    1UNL     H1   50  -0.095  -0.227   0.168
    1UNL     H2   51  -0.120  -0.090   0.283
    1UNL     H3   52   0.064  -0.114   0.043
    1UNL     H4   53   0.123   0.062   0.283
    1UNL     H5   54  -0.003   0.255   0.254
    1UNL     H6   55  -0.304   0.134   0.363
    1UNL     H7   56  -0.355   0.482   0.298
    1UNL     H8   57  -0.341   0.368   0.517
    1UNL     H9   58  -0.500   0.411   0.476
    1UNL    H10   59  -0.512   0.184   0.400
    1UNL    H11   60  -0.561   0.376   0.168
    1UNL    H12   61  -0.291   0.370   0.092
    1UNL    H13   62  -0.518   0.164   0.041
    1UNL    H14   63  -0.548   0.013   0.245
    1UNL    H15   64  -0.273   0.165   0.054
    1UNL    H16   65  -0.506  -0.052   0.064
    1UNL    H17   66  -0.282   0.129  -0.197
    1UNL    H18   67  -0.419  -0.116  -0.313
    1UNL    H19   68  -0.307  -0.010  -0.405
    1UNL    H20   69  -0.511   0.122  -0.273
    1UNL    H21   70  -0.148  -0.017  -0.059
    1UNL    H22   71  -0.061   0.008  -0.268
    1UNL    H23   72  -0.282  -0.267  -0.200
    1UNL    H24   73  -0.145  -0.372  -0.087
    1UNL    H25   74  -0.365  -0.267   0.077
    1UNL    H26   75  -0.524  -0.210  -0.149
    1UNL    H27   76  -0.079   0.211  -0.138
    1UNL    H28   77   0.404   0.058  -0.350
    1UNL    H29   78   0.272  -0.059  -0.363
    1UNL    H30   79   0.522  -0.179   0.083
    1UNL    H31   80   0.765  -0.230   0.089
    1UNL    H32   81   1.030  -0.394  -0.075
    1UNL    H33   82   1.006  -0.291  -0.269
    1UNL    H34   83   0.797  -0.221  -0.400
    1UNL    H35   84   0.247  -0.123  -0.036
    1UNL    H36   85   0.352   0.005   0.154
    1UNL    H37   86   0.410   0.124   0.046
    1UNL    H38   87   0.201   0.227   0.128
   0.00000   0.00000   0.00000   0.00000   0.00000   0.00000   0.00000   0.00000   0.00000
Generated with MDTraj, t= 53.0
 87
    1UNL     C1    1   0.025  -0.144   0.226
    1UNL     C2    2   0.044  -0.042   0.143
    1UNL     C3    3   0.090   0.101   0.183
    1UNL     C4    4  -0.038   0.185   0.201
    1UNL     O1    5  -0.127   0.110   0.280
    1UNL     C5    6  -0.257   0.160   0.284
    1UNL     O2    7  -0.266   0.301   0.313
    1UNL     C6    8  -0.387   0.374   0.302
    1UNL     C7    9  -0.461   0.374   0.435
    1UNL     O3   10  -0.494   0.249   0.484
    1UNL     C8   11  -0.479   0.329   0.184
    1UNL     O4   12  -0.446   0.403   0.066
    1UNL     C9   13  -0.480   0.167   0.165
    1UNL     O5   14  -0.553   0.104   0.268
    1UNL    C10   15  -0.339   0.112   0.151
    1UNL     O6   16  -0.334  -0.031   0.136
    1UNL    C11   17  -0.407  -0.071   0.024
    1UNL     O7   18  -0.402   0.024  -0.091
    1UNL    C12   19  -0.287   0.013  -0.175
    1UNL    C13   20  -0.323  -0.001  -0.326
    1UNL     O8   21  -0.427   0.090  -0.353
    1UNL    C14   22  -0.181  -0.088  -0.133
    1UNL     O9   23  -0.083  -0.105  -0.231
    1UNL    C15   24  -0.247  -0.229  -0.096
    1UNL    O10   25  -0.155  -0.317  -0.039
    1UNL    C16   26  -0.380  -0.223  -0.017
    1UNL    O11   27  -0.481  -0.284  -0.085
    1UNL    O12   28  -0.090   0.235   0.081
    1UNL    C17   29  -0.023   0.220  -0.035
    1UNL    C18   30   0.106   0.180  -0.050
    1UNL    C19   31   0.154   0.134  -0.185
    1UNL    O13   32   0.089   0.162  -0.285
    1UNL     N1   33   0.267   0.045  -0.190
    1UNL    C20   34   0.336  -0.007  -0.310
    1UNL    C21   35   0.461  -0.069  -0.246
    1UNL    C22   36   0.445  -0.086  -0.107
    1UNL     N2   37   0.540  -0.165  -0.042
    1UNL    C23   38   0.656  -0.220  -0.104
    1UNL    C24   39   0.753  -0.287  -0.029
    1UNL    C25   40   0.875  -0.326  -0.089
    1UNL    O14   41   0.974  -0.366  -0.002
    1UNL    C26   42   0.888  -0.301  -0.226
    1UNL    C27   43   0.795  -0.232  -0.297
    1UNL    C28   44   0.677  -0.196  -0.241
    1UNL    C29   45   0.574  -0.131  -0.318
    1UNL    O15   46   0.576  -0.124  -0.439
    1UNL    C30   47   0.318  -0.023  -0.065
    1UNL    C31   48   0.314   0.075   0.056
    1UNL    C32   49   0.186   0.157   0.073
    1UNL     H1   50   0.012  -0.248   0.197
    1UNL     H2   51   0.016  -0.120   0.335
    1UNL     H3   52   0.039  -0.069   0.043
    1UNL     H4   53   0.138   0.087   0.281
    1UNL     H5   54  -0.006   0.275   0.252
    1UNL     H6   55  -0.304   0.110   0.370
    1UNL     H7   56  -0.370   0.481   0.278
    1UNL     H8   57  -0.394   0.425   0.506
    1UNL     H9   58  -0.549   0.435   0.428
    1UNL    H10   59  -0.532   0.193   0.407
    1UNL    H11   60  -0.588   0.354   0.201
    1UNL    H12   61  -0.352   0.384   0.050
    1UNL    H13   62  -0.529   0.134   0.064
    1UNL    H14   63  -0.527   0.003   0.266
    1UNL    H15   64  -0.284   0.154   0.061
    1UNL    H16   65  -0.512  -0.070   0.040
    1UNL    H17   66  -0.252   0.115  -0.179
    1UNL    H18   67  -0.366  -0.099  -0.349
    1UNL    H19   68  -0.237   0.014  -0.393
    1UNL    H20   69  -0.474   0.127  -0.271
    1UNL    H21   70  -0.138  -0.050  -0.047
    1UNL    H22   71  -0.038  -0.018  -0.259
    1UNL    H23   72  -0.264  -0.290  -0.188
    1UNL    H24   73  -0.154  -0.406  -0.071
    1UNL    H25   74  -0.364  -0.287   0.070
    1UNL    H26   75  -0.499  -0.240  -0.175
    1UNL    H27   76  -0.080   0.240  -0.127
    1UNL    H28   77   0.362   0.068  -0.382
    1UNL    H29   78   0.277  -0.084  -0.354
    1UNL    H30   79   0.538  -0.178   0.063
    1UNL    H31   80   0.742  -0.311   0.077
    1UNL    H32   81   1.052  -0.403  -0.043
    1UNL    H33   82   0.979  -0.323  -0.270
    1UNL    H34   83   0.816  -0.213  -0.406
    1UNL    H35   84   0.235  -0.094  -0.048
    1UNL    H36   85   0.336   0.012   0.140
    1UNL    H37   86   0.399   0.142   0.047
    1UNL    H38   87   0.223   0.251   0.110
   0.00000   0.00000   0.00000   0.00000   0.00000   0.00000   0.00000   0.00000   0.00000
Generated with MDTraj, t= 54.0
 87
    1UNL     C1    1   0.075  -0.143   0.263
    1UNL     C2    2   0.083  -0.048   0.170
    1UNL     C3    3   0.105   0.096   0.182
    1UNL     C4    4  -0.032   0.176   0.198
    1UNL     O1    5  -0.135   0.103   0.272
    1UNL     C5    6  -0.263   0.164   0.272
    1UNL     O2    7  -0.268   0.303   0.265
    1UNL     C6    8  -0.396   0.364   0.281
    1UNL     C7    9  -0.449   0.373   0.430
    1UNL     O3   10  -0.487   0.242   0.477
    1UNL     C8   11  -0.497   0.314   0.182
    1UNL     O4   12  -0.480   0.381   0.060
    1UNL     C9   13  -0.494   0.163   0.162
    1UNL     O5   14  -0.556   0.090   0.267
    1UNL    C10   15  -0.348   0.120   0.142
    1UNL     O6   16  -0.332  -0.016   0.130
    1UNL    C11   17  -0.400  -0.068   0.025
    1UNL     O7   18  -0.392   0.008  -0.100
    1UNL    C12   19  -0.263   0.014  -0.156
    1UNL    C13   20  -0.282   0.008  -0.311
    1UNL     O8   21  -0.375   0.104  -0.352
    1UNL    C14   22  -0.168  -0.093  -0.102
    1UNL     O9   23  -0.057  -0.119  -0.174
    1UNL    C15   24  -0.239  -0.230  -0.089
    1UNL    O10   25  -0.134  -0.317  -0.043
    1UNL    C16   26  -0.371  -0.219  -0.011
    1UNL    O11   27  -0.478  -0.274  -0.084
    1UNL    O12   28  -0.083   0.249   0.085
    1UNL    C17   29  -0.026   0.215  -0.036
    1UNL    C18   30   0.100   0.168  -0.054
    1UNL    C19   31   0.133   0.121  -0.190
    1UNL    O13   32   0.059   0.132  -0.288
    1UNL     N1   33   0.252   0.043  -0.192
    1UNL    C20   34   0.343   0.029  -0.307
    1UNL    C21   35   0.460  -0.048  -0.245
    1UNL    C22   36   0.442  -0.070  -0.112
    1UNL     N2   37   0.531  -0.142  -0.037
    1UNL    C23   38   0.645  -0.197  -0.102
    1UNL    C24   39   0.741  -0.267  -0.030
    1UNL    C25   40   0.838  -0.341  -0.090
    1UNL    O14   41   0.919  -0.414  -0.009
    1UNL    C26   42   0.846  -0.338  -0.233
    1UNL    C27   43   0.772  -0.247  -0.306
    1UNL    C28   44   0.660  -0.181  -0.243
    1UNL    C29   45   0.568  -0.105  -0.322
    1UNL    O15   46   0.594  -0.087  -0.440
    1UNL    C30   47   0.310  -0.017  -0.071
    1UNL    C31   48   0.320   0.081   0.040
    1UNL    C32   49   0.189   0.155   0.071
    1UNL     H1   50   0.040  -0.241   0.238
    1UNL     H2   51   0.077  -0.114   0.360
    1UNL     H3   52   0.074  -0.094   0.067
    1UNL     H4   53   0.157   0.105   0.280
    1UNL     H5   54  -0.006   0.259   0.260
    1UNL     H6   55  -0.321   0.131   0.360
    1UNL     H7   56  -0.383   0.469   0.251
    1UNL     H8   57  -0.369   0.417   0.491
    1UNL     H9   58  -0.533   0.441   0.432
    1UNL    H10   59  -0.517   0.195   0.401
    1UNL    H11   60  -0.605   0.336   0.212
    1UNL    H12   61  -0.383   0.373   0.034
    1UNL    H13   62  -0.561   0.146   0.067
    1UNL    H14   63  -0.523  -0.001   0.275
    1UNL    H15   64  -0.299   0.178   0.059
    1UNL    H16   65  -0.506  -0.069   0.049
    1UNL    H17   66  -0.237   0.113  -0.125
    1UNL    H18   67  -0.310  -0.091  -0.348
    1UNL    H19   68  -0.186   0.032  -0.359
    1UNL    H20   69  -0.433   0.132  -0.280
    1UNL    H21   70  -0.139  -0.069  -0.004
    1UNL    H22   71  -0.010  -0.036  -0.201
    1UNL    H23   72  -0.262  -0.260  -0.192
    1UNL    H24   73  -0.052  -0.291  -0.097
    1UNL    H25   74  -0.367  -0.269   0.084
    1UNL    H26   75  -0.503  -0.212  -0.158
    1UNL    H27   76  -0.080   0.233  -0.120
    1UNL    H28   77   0.354   0.130  -0.335
    1UNL    H29   78   0.298  -0.029  -0.384
    1UNL    H30   79   0.525  -0.147   0.060
    1UNL    H31   80   0.721  -0.290   0.072
    1UNL    H32   81   0.992  -0.456  -0.057
    1UNL    H33   82   0.914  -0.407  -0.291
    1UNL    H34   83   0.780  -0.238  -0.409
    1UNL    H35   84   0.249  -0.104  -0.039
    1UNL    H36   85   0.349   0.029   0.130
    1UNL    H37   86   0.403   0.148   0.014
    1UNL    H38   87   0.223   0.251   0.105
   0.00000   0.00000   0.00000   0.00000   0.00000   0.00000   0.00000   0.00000   0.00000
Generated with MDTraj, t= 55.0
 87
    1UNL     C1    1   0.069  -0.095   0.292
    1UNL     C2    2   0.078  -0.016   0.184
    1UNL     C3    3   0.096   0.130   0.187
    1UNL     C4    4  -0.043   0.194   0.193
    1UNL     O1    5  -0.132   0.115   0.270
    1UNL     C5    6  -0.261   0.162   0.262
    1UNL     O2    7  -0.269   0.304   0.264
    1UNL     C6    8  -0.396   0.361   0.283
    1UNL     C7    9  -0.429   0.356   0.436
    1UNL     O3   10  -0.425   0.223   0.478
    1UNL     C8   11  -0.495   0.311   0.174
    1UNL     O4   12  -0.474   0.388   0.059
    1UNL     C9   13  -0.487   0.156   0.145
    1UNL     O5   14  -0.565   0.075   0.239
    1UNL    C10   15  -0.342   0.109   0.136
    1UNL     O6   16  -0.335  -0.030   0.115
    1UNL    C11   17  -0.416  -0.081   0.011
    1UNL     O7   18  -0.397  -0.004  -0.115
    1UNL    C12   19  -0.255   0.001  -0.149
    1UNL    C13   20  -0.248   0.008  -0.305
    1UNL     O8   21  -0.337   0.108  -0.352
    1UNL    C14   22  -0.166  -0.112  -0.085
    1UNL     O9   23  -0.035  -0.138  -0.126
    1UNL    C15   24  -0.239  -0.244  -0.083
    1UNL    O10   25  -0.145  -0.340  -0.021
    1UNL    C16   26  -0.377  -0.233  -0.011
    1UNL    O11   27  -0.482  -0.300  -0.083
    1UNL    O12   28  -0.105   0.240   0.068
    1UNL    C17   29  -0.031   0.235  -0.050
    1UNL    C18   30   0.093   0.181  -0.058
    1UNL    C19   31   0.138   0.132  -0.186
    1UNL    O13   32   0.076   0.152  -0.289
    1UNL     N1   33   0.254   0.060  -0.184
    1UNL    C20   34   0.334   0.029  -0.302
    1UNL    C21   35   0.455  -0.043  -0.245
    1UNL    C22   36   0.443  -0.056  -0.110
    1UNL     N2   37   0.544  -0.120  -0.036
    1UNL    C23   38   0.641  -0.193  -0.105
    1UNL    C24   39   0.716  -0.287  -0.041
    1UNL    C25   40   0.810  -0.362  -0.108
    1UNL    O14   41   0.870  -0.458  -0.034
    1UNL    C26   42   0.839  -0.345  -0.248
    1UNL    C27   43   0.764  -0.255  -0.312
    1UNL    C28   44   0.661  -0.184  -0.244
    1UNL    C29   45   0.574  -0.092  -0.314
    1UNL    O15   46   0.601  -0.060  -0.429
    1UNL    C30   47   0.308   0.001  -0.059
    1UNL    C31   48   0.307   0.100   0.058
    1UNL    C32   49   0.173   0.179   0.067
    1UNL     H1   50   0.055  -0.211   0.288
    1UNL     H2   51   0.082  -0.045   0.388
    1UNL     H3   52   0.032  -0.059   0.097
    1UNL     H4   53   0.142   0.158   0.285
    1UNL     H5   54  -0.042   0.285   0.252
    1UNL     H6   55  -0.316   0.125   0.352
    1UNL     H7   56  -0.387   0.471   0.269
    1UNL     H8   57  -0.349   0.413   0.485
    1UNL     H9   58  -0.526   0.402   0.457
    1UNL    H10   59  -0.508   0.181   0.437
    1UNL    H11   60  -0.601   0.337   0.203
    1UNL    H12   61  -0.381   0.374   0.018
    1UNL    H13   62  -0.537   0.146   0.041
    1UNL    H14   63  -0.528  -0.016   0.240
    1UNL    H15   64  -0.286   0.162   0.053
    1UNL    H16   65  -0.524  -0.079   0.030
    1UNL    H17   66  -0.217   0.090  -0.100
    1UNL    H18   67  -0.275  -0.087  -0.351
    1UNL    H19   68  -0.146   0.024  -0.343
    1UNL    H20   69  -0.397   0.124  -0.275
    1UNL    H21   70  -0.160  -0.095   0.018
    1UNL    H22   71   0.013  -0.050  -0.142
    1UNL    H23   72  -0.269  -0.263  -0.183
    1UNL    H24   73  -0.050  -0.334  -0.060
    1UNL    H25   74  -0.364  -0.280   0.085
    1UNL    H26   75  -0.493  -0.262  -0.173
    1UNL    H27   76  -0.092   0.253  -0.145
    1UNL    H28   77   0.357   0.119  -0.350
    1UNL    H29   78   0.284  -0.035  -0.370
    1UNL    H30   79   0.510  -0.139   0.050
    1UNL    H31   80   0.715  -0.304   0.067
    1UNL    H32   81   0.948  -0.497  -0.080
    1UNL    H33   82   0.915  -0.397  -0.297
    1UNL    H34   83   0.777  -0.224  -0.418
    1UNL    H35   84   0.247  -0.085  -0.027
    1UNL    H36   85   0.312   0.051   0.153
    1UNL    H37   86   0.387   0.174   0.060
    1UNL    H38   87   0.204   0.280   0.080
   0.00000   0.00000   0.00000   0.00000   0.00000   0.00000   0.00000   0.00000   0.00000
Generated with MDTraj, t= 56.0
 87
    1UNL     C1    1   0.048  -0.067   0.302
    1UNL     C2    2   0.092  -0.000   0.192
    1UNL     C3    3   0.097   0.147   0.177
    1UNL     C4    4  -0.046   0.207   0.180
    1UNL     O1    5  -0.133   0.117   0.237
    1UNL     C5    6  -0.267   0.160   0.258
    1UNL     O2    7  -0.276   0.300   0.280
    1UNL     C6    8  -0.411   0.356   0.301
    1UNL     C7    9  -0.467   0.321   0.438
    1UNL     O3   10  -0.481   0.189   0.478
    1UNL     C8   11  -0.504   0.322   0.179
    1UNL     O4   12  -0.455   0.392   0.065
    1UNL     C9   13  -0.507   0.169   0.156
    1UNL     O5   14  -0.575   0.089   0.254
    1UNL    C10   15  -0.365   0.115   0.148
    1UNL     O6   16  -0.362  -0.027   0.133
    1UNL    C11   17  -0.411  -0.078   0.010
    1UNL     O7   18  -0.370  -0.001  -0.103
    1UNL    C12   19  -0.229  -0.007  -0.129
    1UNL    C13   20  -0.210  -0.015  -0.281
    1UNL     O8   21  -0.301   0.068  -0.354
    1UNL    C14   22  -0.146  -0.127  -0.066
    1UNL     O9   23  -0.027  -0.166  -0.141
    1UNL    C15   24  -0.239  -0.255  -0.071
    1UNL    O10   25  -0.173  -0.375  -0.005
    1UNL    C16   26  -0.376  -0.230  -0.004
    1UNL    O11   27  -0.476  -0.298  -0.070
    1UNL    O12   28  -0.101   0.264   0.058
    1UNL    C17   29  -0.027   0.244  -0.057
    1UNL    C18   30   0.096   0.193  -0.073
    1UNL    C19   31   0.152   0.155  -0.204
    1UNL    O13   32   0.103   0.190  -0.310
    1UNL     N1   33   0.263   0.071  -0.194
    1UNL    C20   34   0.365   0.058  -0.300
    1UNL    C21   35   0.472  -0.018  -0.242
    1UNL    C22   36   0.455  -0.040  -0.108
    1UNL     N2   37   0.525  -0.141  -0.042
    1UNL    C23   38   0.625  -0.211  -0.109
    1UNL    C24   39   0.691  -0.318  -0.052
    1UNL    C25   40   0.797  -0.382  -0.119
    1UNL    O14   41   0.858  -0.485  -0.051
    1UNL    C26   42   0.834  -0.341  -0.249
    1UNL    C27   43   0.754  -0.253  -0.316
    1UNL    C28   44   0.661  -0.176  -0.242
    1UNL    C29   45   0.583  -0.083  -0.314
    1UNL    O15   46   0.598  -0.081  -0.436
    1UNL    C30   47   0.322   0.023  -0.068
    1UNL    C31   48   0.322   0.132   0.046
    1UNL    C32   49   0.175   0.192   0.051
    1UNL     H1   50   0.033  -0.168   0.310
    1UNL     H2   51   0.011  -0.013   0.384
    1UNL     H3   52   0.117  -0.061   0.107
    1UNL     H4   53   0.156   0.187   0.264
    1UNL     H5   54  -0.050   0.298   0.245
    1UNL     H6   55  -0.299   0.110   0.353
    1UNL     H7   56  -0.397   0.466   0.309
    1UNL     H8   57  -0.393   0.365   0.508
    1UNL     H9   58  -0.565   0.371   0.446
    1UNL    H10   59  -0.556   0.152   0.426
    1UNL    H11   60  -0.603   0.370   0.200
    1UNL    H12   61  -0.355   0.389   0.056
    1UNL    H13   62  -0.551   0.148   0.054
    1UNL    H14   63  -0.539  -0.005   0.238
    1UNL    H15   64  -0.311   0.142   0.051
    1UNL    H16   65  -0.523  -0.072  -0.002
    1UNL    H17   66  -0.184   0.085  -0.093
    1UNL    H18   67  -0.220  -0.118  -0.319
    1UNL    H19   68  -0.107   0.007  -0.313
    1UNL    H20   69  -0.349   0.119  -0.285
    1UNL    H21   70  -0.121  -0.101   0.032
    1UNL    H22   71   0.045  -0.100  -0.134
    1UNL    H23   72  -0.258  -0.269  -0.173
    1UNL    H24   73  -0.102  -0.417  -0.050
    1UNL    H25   74  -0.352  -0.272   0.091
    1UNL    H26   75  -0.467  -0.286  -0.164
    1UNL    H27   76  -0.080   0.287  -0.146
    1UNL    H28   77   0.409   0.149  -0.330
    1UNL    H29   78   0.312   0.016  -0.380
    1UNL    H30   79   0.515  -0.158   0.054
    1UNL    H31   80   0.676  -0.345   0.050
    1UNL    H32   81   0.937  -0.527  -0.096
    1UNL    H33   82   0.916  -0.390  -0.303
    1UNL    H34   83   0.773  -0.227  -0.417
    1UNL    H35   84   0.260  -0.062  -0.040
    1UNL    H36   85   0.348   0.107   0.147
    1UNL    H37   86   0.385   0.219   0.028
    1UNL    H38   87   0.199   0.297   0.057
   0.00000   0.00000   0.00000   0.00000   0.00000   0.00000   0.00000   0.00000   0.00000
Generated with MDTraj, t= 57.0
 87
    1UNL     C1    1   0.067  -0.063   0.288
    1UNL     C2    2   0.081   0.012   0.178
    1UNL     C3    3   0.089   0.154   0.168
    1UNL     C4    4  -0.053   0.210   0.165
    1UNL     O1    5  -0.132   0.128   0.250
    1UNL     C5    6  -0.267   0.165   0.256
    1UNL     O2    7  -0.272   0.307   0.286
    1UNL     C6    8  -0.412   0.351   0.315
    1UNL     C7    9  -0.475   0.303   0.448
    1UNL     O3   10  -0.495   0.165   0.460
    1UNL     C8   11  -0.499   0.321   0.189
    1UNL     O4   12  -0.452   0.412   0.085
    1UNL     C9   13  -0.499   0.178   0.136
    1UNL     O5   14  -0.583   0.088   0.222
    1UNL    C10   15  -0.351   0.122   0.133
    1UNL     O6   16  -0.344  -0.020   0.132
    1UNL    C11   17  -0.396  -0.072   0.011
    1UNL     O7   18  -0.352  -0.023  -0.110
    1UNL    C12   19  -0.207  -0.033  -0.127
    1UNL    C13   20  -0.180  -0.017  -0.278
    1UNL     O8   21  -0.275   0.057  -0.354
    1UNL    C14   22  -0.141  -0.153  -0.057
    1UNL     O9   23  -0.006  -0.177  -0.089
    1UNL    C15   24  -0.240  -0.277  -0.058
    1UNL    O10   25  -0.179  -0.385   0.013
    1UNL    C16   26  -0.372  -0.229   0.009
    1UNL    O11   27  -0.483  -0.283  -0.051
    1UNL    O12   28  -0.119   0.253   0.041
    1UNL    C17   29  -0.032   0.242  -0.067
    1UNL    C18   30   0.101   0.213  -0.071
    1UNL    C19   31   0.158   0.183  -0.199
    1UNL    O13   32   0.104   0.224  -0.299
    1UNL     N1   33   0.258   0.088  -0.197
    1UNL    C20   34   0.367   0.077  -0.302
    1UNL    C21   35   0.472  -0.015  -0.248
    1UNL    C22   36   0.440  -0.052  -0.118
    1UNL     N2   37   0.511  -0.149  -0.055
    1UNL    C23   38   0.623  -0.205  -0.114
    1UNL    C24   39   0.690  -0.307  -0.052
    1UNL    C25   40   0.786  -0.388  -0.118
    1UNL    O14   41   0.837  -0.484  -0.037
    1UNL    C26   42   0.811  -0.361  -0.253
    1UNL    C27   43   0.742  -0.259  -0.321
    1UNL    C28   44   0.651  -0.179  -0.248
    1UNL    C29   45   0.579  -0.076  -0.319
    1UNL    O15   46   0.608  -0.050  -0.434
    1UNL    C30   47   0.304   0.006  -0.081
    1UNL    C31   48   0.316   0.109   0.038
    1UNL    C32   49   0.181   0.197   0.053
    1UNL     H1   50   0.036  -0.166   0.277
    1UNL     H2   51   0.080  -0.022   0.397
    1UNL     H3   52   0.085  -0.040   0.082
    1UNL     H4   53   0.136   0.190   0.263
    1UNL     H5   54  -0.052   0.311   0.217
    1UNL     H6   55  -0.309   0.112   0.347
    1UNL     H7   56  -0.398   0.461   0.326
    1UNL     H8   57  -0.407   0.333   0.529
    1UNL     H9   58  -0.575   0.354   0.453
    1UNL    H10   59  -0.550   0.145   0.380
    1UNL    H11   60  -0.603   0.347   0.214
    1UNL    H12   61  -0.358   0.409   0.072
    1UNL    H13   62  -0.557   0.183   0.044
    1UNL    H14   63  -0.559  -0.003   0.210
    1UNL    H15   64  -0.299   0.153   0.036
    1UNL    H16   65  -0.509  -0.063  -0.004
    1UNL    H17   66  -0.171   0.061  -0.083
    1UNL    H18   67  -0.184  -0.118  -0.322
    1UNL    H19   68  -0.077   0.015  -0.302
    1UNL    H20   69  -0.347   0.092  -0.296
    1UNL    H21   70  -0.143  -0.125   0.046
    1UNL    H22   71   0.024  -0.132  -0.167
    1UNL    H23   72  -0.268  -0.285  -0.160
    1UNL    H24   73  -0.104  -0.424  -0.037
    1UNL    H25   74  -0.378  -0.267   0.106
    1UNL    H26   75  -0.469  -0.290  -0.146
    1UNL    H27   76  -0.081   0.252  -0.154
    1UNL    H28   77   0.410   0.172  -0.318
    1UNL    H29   78   0.315   0.044  -0.388
    1UNL    H30   79   0.458  -0.199   0.023
    1UNL    H31   80   0.664  -0.330   0.051
    1UNL    H32   81   0.892  -0.548  -0.094
    1UNL    H33   82   0.886  -0.418  -0.303
    1UNL    H34   83   0.757  -0.247  -0.428
    1UNL    H35   84   0.225  -0.068  -0.065
    1UNL    H36   85   0.339   0.061   0.132
    1UNL    H37   86   0.402   0.175   0.027
    1UNL    H38   87   0.218   0.294   0.083
   0.00000   0.00000   0.00000   0.00000   0.00000   0.00000   0.00000   0.00000   0.00000
Generated with MDTraj, t= 58.0
 87
    1UNL     C1    1   0.091  -0.096   0.279
    1UNL     C2    2   0.082  -0.022   0.166
    1UNL     C3    3   0.093   0.131   0.171
    1UNL     C4    4  -0.043   0.205   0.179
    1UNL     O1    5  -0.126   0.126   0.258
    1UNL     C5    6  -0.263   0.165   0.255
    1UNL     O2    7  -0.274   0.307   0.286
    1UNL     C6    8  -0.413   0.355   0.305
    1UNL     C7    9  -0.475   0.303   0.435
    1UNL     O3   10  -0.458   0.166   0.448
    1UNL     C8   11  -0.501   0.314   0.183
    1UNL     O4   12  -0.464   0.413   0.085
    1UNL     C9   13  -0.488   0.180   0.124
    1UNL     O5   14  -0.582   0.087   0.185
    1UNL    C10   15  -0.343   0.120   0.135
    1UNL     O6   16  -0.345  -0.020   0.135
    1UNL    C11   17  -0.398  -0.074   0.014
    1UNL     O7   18  -0.350  -0.017  -0.111
    1UNL    C12   19  -0.204  -0.032  -0.122
    1UNL    C13   20  -0.154  -0.047  -0.269
    1UNL     O8   21  -0.203   0.053  -0.346
    1UNL    C14   22  -0.144  -0.139  -0.035
    1UNL     O9   23  -0.013  -0.178  -0.062
    1UNL    C15   24  -0.235  -0.266  -0.041
    1UNL    O10   25  -0.167  -0.374   0.024
    1UNL    C16   26  -0.382  -0.230   0.014
    1UNL    O11   27  -0.489  -0.283  -0.051
    1UNL    O12   28  -0.113   0.243   0.055
    1UNL    C17   29  -0.038   0.241  -0.059
    1UNL    C18   30   0.093   0.211  -0.066
    1UNL    C19   31   0.158   0.195  -0.198
    1UNL    O13   32   0.120   0.266  -0.289
    1UNL     N1   33   0.253   0.100  -0.212
    1UNL    C20   34   0.352   0.065  -0.326
    1UNL    C21   35   0.458  -0.010  -0.258
    1UNL    C22   36   0.415  -0.053  -0.136
    1UNL     N2   37   0.495  -0.135  -0.055
    1UNL    C23   38   0.598  -0.214  -0.120
    1UNL    C24   39   0.662  -0.316  -0.052
    1UNL    C25   40   0.765  -0.382  -0.113
    1UNL    O14   41   0.824  -0.481  -0.032
    1UNL    C26   42   0.807  -0.352  -0.245
    1UNL    C27   43   0.743  -0.247  -0.307
    1UNL    C28   44   0.637  -0.185  -0.254
    1UNL    C29   45   0.573  -0.075  -0.322
    1UNL    O15   46   0.608  -0.033  -0.432
    1UNL    C30   47   0.288   0.019  -0.096
    1UNL    C31   48   0.299   0.112   0.025
    1UNL    C32   49   0.173   0.196   0.053
    1UNL     H1   50   0.117  -0.196   0.273
    1UNL     H2   51   0.110  -0.044   0.369
    1UNL     H3   52   0.062  -0.070   0.074
    1UNL     H4   53   0.145   0.155   0.266
    1UNL     H5   54  -0.040   0.307   0.231
    1UNL     H6   55  -0.299   0.118   0.351
    1UNL     H7   56  -0.405   0.465   0.307
    1UNL     H8   57  -0.423   0.355   0.516
    1UNL     H9   58  -0.583   0.333   0.422
    1UNL    H10   59  -0.510   0.120   0.373
    1UNL    H11   60  -0.604   0.327   0.216
    1UNL    H12   61  -0.373   0.400   0.057
    1UNL    H13   62  -0.524   0.189   0.025
    1UNL    H14   63  -0.552  -0.011   0.173
    1UNL    H15   64  -0.286   0.139   0.038
    1UNL    H16   65  -0.508  -0.044  -0.007
    1UNL    H17   66  -0.162   0.063  -0.085
    1UNL    H18   67  -0.171  -0.146  -0.316
    1UNL    H19   68  -0.046  -0.033  -0.278
    1UNL    H20   69  -0.297   0.075  -0.318
    1UNL    H21   70  -0.157  -0.122   0.072
    1UNL    H22   71  -0.004  -0.276  -0.043
    1UNL    H23   72  -0.241  -0.297  -0.142
    1UNL    H24   73  -0.219  -0.420   0.103
    1UNL    H25   74  -0.373  -0.264   0.110
    1UNL    H26   75  -0.459  -0.292  -0.145
    1UNL    H27   76  -0.090   0.264  -0.155
    1UNL    H28   77   0.381   0.161  -0.366
    1UNL    H29   78   0.308  -0.005  -0.393
    1UNL    H30   79   0.484  -0.149   0.054
    1UNL    H31   80   0.629  -0.356   0.043
    1UNL    H32   81   0.900  -0.520  -0.085
    1UNL    H33   82   0.881  -0.411  -0.294
    1UNL    H34   83   0.772  -0.219  -0.409
    1UNL    H35   84   0.209  -0.052  -0.074
    1UNL    H36   85   0.345   0.063   0.110
    1UNL    H37   86   0.378   0.181  -0.002
    1UNL    H38   87   0.205   0.294   0.088
   0.00000   0.00000   0.00000   0.00000   0.00000   0.00000   0.00000   0.00000   0.00000
Generated with MDTraj, t= 59.0
 87
    1UNL     C1    1   0.088  -0.090   0.270
    1UNL     C2    2   0.080  -0.011   0.164
    1UNL     C3    3   0.094   0.137   0.172
    1UNL     C4    4  -0.045   0.207   0.182
    1UNL     O1    5  -0.135   0.119   0.242
    1UNL     C5    6  -0.268   0.161   0.247
    1UNL     O2    7  -0.274   0.307   0.266
    1UNL     C6    8  -0.402   0.357   0.306
    1UNL     C7    9  -0.457   0.317   0.441
    1UNL     O3   10  -0.508   0.190   0.460
    1UNL     C8   11  -0.494   0.315   0.181
    1UNL     O4   12  -0.435   0.389   0.071
    1UNL     C9   13  -0.497   0.172   0.138
    1UNL     O5   14  -0.581   0.089   0.227
    1UNL    C10   15  -0.350   0.111   0.129
    1UNL     O6   16  -0.366  -0.029   0.118
    1UNL    C11   17  -0.397  -0.082  -0.007
    1UNL     O7   18  -0.324  -0.017  -0.109
    1UNL    C12   19  -0.177  -0.045  -0.104
    1UNL    C13   20  -0.145  -0.067  -0.254
    1UNL     O8   21  -0.164   0.057  -0.316
    1UNL    C14   22  -0.139  -0.164  -0.022
    1UNL     O9   23  -0.017  -0.212  -0.055
    1UNL    C15   24  -0.237  -0.284  -0.030
    1UNL    O10   25  -0.190  -0.383   0.054
    1UNL    C16   26  -0.387  -0.240   0.001
    1UNL    O11   27  -0.474  -0.297  -0.089
    1UNL    O12   28  -0.104   0.267   0.059
    1UNL    C17   29  -0.029   0.262  -0.054
    1UNL    C18   30   0.103   0.226  -0.069
    1UNL    C19   31   0.167   0.218  -0.206
    1UNL    O13   32   0.136   0.294  -0.298
    1UNL     N1   33   0.251   0.111  -0.214
    1UNL    C20   34   0.360   0.095  -0.313
    1UNL    C21   35   0.450  -0.019  -0.257
    1UNL    C22   36   0.404  -0.058  -0.136
    1UNL     N2   37   0.468  -0.156  -0.068
    1UNL    C23   38   0.579  -0.217  -0.126
    1UNL    C24   39   0.647  -0.315  -0.057
    1UNL    C25   40   0.762  -0.370  -0.111
    1UNL    O14   41   0.819  -0.479  -0.044
    1UNL    C26   42   0.817  -0.326  -0.231
    1UNL    C27   43   0.753  -0.231  -0.302
    1UNL    C28   44   0.629  -0.181  -0.253
    1UNL    C29   45   0.553  -0.082  -0.331
    1UNL    O15   46   0.585  -0.049  -0.446
    1UNL    C30   47   0.280   0.019  -0.099
    1UNL    C31   48   0.305   0.103   0.016
    1UNL    C32   49   0.185   0.200   0.053
    1UNL     H1   50   0.069  -0.202   0.254
    1UNL     H2   51   0.119  -0.046   0.360
    1UNL     H3   52   0.069  -0.048   0.065
    1UNL     H4   53   0.148   0.158   0.266
    1UNL     H5   54  -0.038   0.297   0.249
    1UNL     H6   55  -0.312   0.126   0.346
    1UNL     H7   56  -0.384   0.466   0.297
    1UNL     H8   57  -0.373   0.331   0.507
    1UNL     H9   58  -0.541   0.390   0.463
    1UNL    H10   59  -0.578   0.166   0.400
    1UNL    H11   60  -0.590   0.354   0.205
    1UNL    H12   61  -0.337   0.372   0.074
    1UNL    H13   62  -0.534   0.169   0.040
    1UNL    H14   63  -0.534   0.007   0.232
    1UNL    H15   64  -0.303   0.133   0.027
    1UNL    H16   65  -0.503  -0.062  -0.048
    1UNL    H17   66  -0.125   0.041  -0.058
    1UNL    H18   67  -0.206  -0.142  -0.307
    1UNL    H19   68  -0.042  -0.094  -0.277
    1UNL    H20   69  -0.254   0.086  -0.292
    1UNL    H21   70  -0.132  -0.129   0.086
    1UNL    H22   71   0.009  -0.301  -0.016
    1UNL    H23   72  -0.241  -0.316  -0.133
    1UNL    H24   73  -0.254  -0.407   0.130
    1UNL    H25   74  -0.422  -0.266   0.093
    1UNL    H26   75  -0.447  -0.297  -0.187
    1UNL    H27   76  -0.089   0.291  -0.147
    1UNL    H28   77   0.409   0.193  -0.321
    1UNL    H29   78   0.320   0.054  -0.405
    1UNL    H30   79   0.427  -0.183   0.028
    1UNL    H31   80   0.603  -0.345   0.034
    1UNL    H32   81   0.898  -0.505  -0.098
    1UNL    H33   82   0.904  -0.380  -0.269
    1UNL    H34   83   0.795  -0.197  -0.392
    1UNL    H35   84   0.193  -0.044  -0.084
    1UNL    H36   85   0.334   0.037   0.097
    1UNL    H37   86   0.398   0.152  -0.010
    1UNL    H38   87   0.229   0.296   0.086
   0.00000   0.00000   0.00000   0.00000   0.00000   0.00000   0.00000   0.00000   0.00000
Generated with MDTraj, t= 60.0
 87
    1UNL     C1    1   0.074  -0.077   0.275
    1UNL     C2    2   0.079  -0.001   0.168
    1UNL     C3    3   0.086   0.150   0.173
    1UNL     C4    4  -0.059   0.198   0.183
    1UNL     O1    5  -0.138   0.092   0.249
    1UNL     C5    6  -0.272   0.137   0.259
    1UNL     O2    7  -0.270   0.281   0.288
    1UNL     C6    8  -0.397   0.356   0.289
    1UNL     C7    9  -0.477   0.345   0.418
    1UNL     O3   10  -0.469   0.215   0.469
    1UNL     C8   11  -0.479   0.323   0.156
    1UNL     O4   12  -0.432   0.394   0.045
    1UNL     C9   13  -0.487   0.172   0.133
    1UNL     O5   14  -0.571   0.105   0.235
    1UNL    C10   15  -0.349   0.102   0.136
    1UNL     O6   16  -0.358  -0.034   0.123
    1UNL    C11   17  -0.390  -0.079  -0.006
    1UNL     O7   18  -0.308  -0.037  -0.113
    1UNL    C12   19  -0.165  -0.059  -0.084
    1UNL    C13   20  -0.092  -0.056  -0.216
    1UNL     O8   21  -0.150   0.048  -0.304
    1UNL    C14   22  -0.139  -0.184   0.010
    1UNL     O9   23  -0.015  -0.236  -0.013
    1UNL    C15   24  -0.252  -0.297  -0.023
    1UNL    O10   25  -0.229  -0.417   0.050
    1UNL    C16   26  -0.401  -0.239  -0.016
    1UNL    O11   27  -0.478  -0.267  -0.126
    1UNL    O12   28  -0.118   0.245   0.048
    1UNL    C17   29  -0.032   0.264  -0.057
    1UNL    C18   30   0.102   0.242  -0.065
    1UNL    C19   31   0.168   0.230  -0.197
    1UNL    O13   32   0.151   0.312  -0.288
    1UNL     N1   33   0.246   0.114  -0.211
    1UNL    C20   34   0.345   0.092  -0.324
    1UNL    C21   35   0.436  -0.019  -0.272
    1UNL    C22   36   0.400  -0.057  -0.144
    1UNL     N2   37   0.459  -0.168  -0.089
    1UNL    C23   38   0.574  -0.219  -0.141
    1UNL    C24   39   0.646  -0.319  -0.072
    1UNL    C25   40   0.763  -0.371  -0.116
    1UNL    O14   41   0.828  -0.459  -0.032
    1UNL    C26   42   0.812  -0.325  -0.241
    1UNL    C27   43   0.736  -0.238  -0.320
    1UNL    C28   44   0.623  -0.177  -0.266
    1UNL    C29   45   0.552  -0.073  -0.337
    1UNL    O15   46   0.597  -0.033  -0.444
    1UNL    C30   47   0.285   0.027  -0.094
    1UNL    C31   48   0.297   0.106   0.035
    1UNL    C32   49   0.177   0.213   0.058
    1UNL     H1   50   0.033  -0.178   0.262
    1UNL     H2   51   0.086  -0.041   0.372
    1UNL     H3   52   0.049  -0.035   0.068
    1UNL     H4   53   0.134   0.172   0.269
    1UNL     H5   54  -0.067   0.285   0.249
    1UNL     H6   55  -0.320   0.093   0.353
    1UNL     H7   56  -0.359   0.456   0.265
    1UNL     H8   57  -0.436   0.401   0.499
    1UNL     H9   58  -0.581   0.381   0.400
    1UNL    H10   59  -0.530   0.164   0.406
    1UNL    H11   60  -0.582   0.350   0.172
    1UNL    H12   61  -0.347   0.355   0.006
    1UNL    H13   62  -0.541   0.155   0.042
    1UNL    H14   63  -0.558   0.003   0.232
    1UNL    H15   64  -0.285   0.135   0.046
    1UNL    H16   65  -0.490  -0.040  -0.040
    1UNL    H17   66  -0.137   0.026  -0.021
    1UNL    H18   67  -0.096  -0.152  -0.271
    1UNL    H19   68   0.013  -0.031  -0.205
    1UNL    H20   69  -0.246   0.028  -0.301
    1UNL    H21   70  -0.146  -0.157   0.123
    1UNL    H22   71  -0.000  -0.260  -0.107
    1UNL    H23   72  -0.234  -0.329  -0.127
    1UNL    H24   73  -0.258  -0.418   0.142
    1UNL    H25   74  -0.446  -0.260   0.071
    1UNL    H26   75  -0.427  -0.254  -0.211
    1UNL    H27   76  -0.082   0.291  -0.141
    1UNL    H28   77   0.411   0.179  -0.341
    1UNL    H29   78   0.286   0.069  -0.414
    1UNL    H30   79   0.438  -0.217  -0.001
    1UNL    H31   80   0.611  -0.334   0.032
    1UNL    H32   81   0.908  -0.497  -0.075
    1UNL    H33   82   0.910  -0.354  -0.262
    1UNL    H34   83   0.771  -0.206  -0.421
    1UNL    H35   84   0.201  -0.044  -0.093
    1UNL    H36   85   0.307   0.036   0.117
    1UNL    H37   86   0.391   0.156   0.035
    1UNL    H38   87   0.217   0.312   0.094
   0.00000   0.00000   0.00000   0.00000   0.00000   0.00000   0.00000   0.00000   0.00000
Generated with MDTraj, t= 61.0
 87
    1UNL     C1    1   0.073  -0.098   0.296
    1UNL     C2    2   0.086  -0.033   0.181
    1UNL     C3    3   0.083   0.118   0.178
    1UNL     C4    4  -0.056   0.186   0.184
    1UNL     O1    5  -0.140   0.102   0.261
    1UNL     C5    6  -0.270   0.166   0.259
    1UNL     O2    7  -0.266   0.311   0.256
    1UNL     C6    8  -0.397   0.368   0.269
    1UNL     C7    9  -0.446   0.344   0.412
    1UNL     O3   10  -0.485   0.212   0.443
    1UNL     C8   11  -0.478   0.325   0.145
    1UNL     O4   12  -0.411   0.375   0.031
    1UNL     C9   13  -0.498   0.172   0.133
    1UNL     O5   14  -0.594   0.101   0.218
    1UNL    C10   15  -0.357   0.110   0.145
    1UNL     O6   16  -0.355  -0.030   0.138
    1UNL    C11   17  -0.383  -0.066   0.006
    1UNL     O7   18  -0.294  -0.024  -0.098
    1UNL    C12   19  -0.160  -0.070  -0.076
    1UNL    C13   20  -0.092  -0.085  -0.209
    1UNL     O8   21  -0.097   0.042  -0.280
    1UNL    C14   22  -0.151  -0.190   0.020
    1UNL     O9   23  -0.024  -0.247   0.031
    1UNL    C15   24  -0.271  -0.293  -0.021
    1UNL    O10   25  -0.246  -0.424   0.036
    1UNL    C16   26  -0.410  -0.223  -0.013
    1UNL    O11   27  -0.480  -0.243  -0.132
    1UNL    O12   28  -0.111   0.214   0.053
    1UNL    C17   29  -0.038   0.238  -0.059
    1UNL    C18   30   0.091   0.213  -0.070
    1UNL    C19   31   0.159   0.219  -0.197
    1UNL    O13   32   0.144   0.311  -0.274
    1UNL     N1   33   0.241   0.113  -0.221
    1UNL    C20   34   0.349   0.109  -0.322
    1UNL    C21   35   0.439   0.001  -0.272
    1UNL    C22   36   0.401  -0.042  -0.148
    1UNL     N2   37   0.467  -0.140  -0.076
    1UNL    C23   38   0.580  -0.200  -0.137
    1UNL    C24   39   0.661  -0.295  -0.068
    1UNL    C25   40   0.766  -0.362  -0.132
    1UNL    O14   41   0.831  -0.457  -0.056
    1UNL    C26   42   0.794  -0.332  -0.262
    1UNL    C27   43   0.725  -0.235  -0.322
    1UNL    C28   44   0.628  -0.160  -0.261
    1UNL    C29   45   0.554  -0.054  -0.333
    1UNL    O15   46   0.592  -0.030  -0.448
    1UNL    C30   47   0.278   0.023  -0.103
    1UNL    C31   48   0.303   0.100   0.031
    1UNL    C32   49   0.165   0.186   0.060
    1UNL     H1   50   0.080  -0.201   0.307
    1UNL     H2   51   0.034  -0.047   0.389
    1UNL     H3   52   0.085  -0.083   0.088
    1UNL     H4   53   0.134   0.147   0.271
    1UNL     H5   54  -0.056   0.282   0.230
    1UNL     H6   55  -0.315   0.132   0.360
    1UNL     H7   56  -0.375   0.472   0.244
    1UNL     H8   57  -0.370   0.378   0.477
    1UNL     H9   58  -0.534   0.406   0.434
    1UNL    H10   59  -0.547   0.168   0.381
    1UNL    H11   60  -0.575   0.373   0.140
    1UNL    H12   61  -0.318   0.360   0.045
    1UNL    H13   62  -0.537   0.153   0.030
    1UNL    H14   63  -0.603   0.009   0.198
    1UNL    H15   64  -0.294   0.132   0.051
    1UNL    H16   65  -0.478  -0.027  -0.039
    1UNL    H17   66  -0.103   0.011  -0.029
    1UNL    H18   67  -0.145  -0.161  -0.269
    1UNL    H19   68   0.012  -0.113  -0.192
    1UNL    H20   69  -0.188   0.050  -0.319
    1UNL    H21   70  -0.187  -0.156   0.124
    1UNL    H22   71  -0.036  -0.343   0.003
    1UNL    H23   72  -0.259  -0.309  -0.130
    1UNL    H24   73  -0.270  -0.412   0.126
    1UNL    H25   74  -0.459  -0.260   0.066
    1UNL    H26   75  -0.427  -0.222  -0.211
    1UNL    H27   76  -0.095   0.279  -0.145
    1UNL    H28   77   0.410   0.204  -0.324
    1UNL    H29   78   0.300   0.095  -0.422
    1UNL    H30   79   0.425  -0.169   0.004
    1UNL    H31   80   0.636  -0.318   0.032
    1UNL    H32   81   0.905  -0.497  -0.104
    1UNL    H33   82   0.867  -0.386  -0.326
    1UNL    H34   83   0.738  -0.214  -0.423
    1UNL    H35   84   0.200  -0.055  -0.101
    1UNL    H36   85   0.330   0.030   0.110
    1UNL    H37   86   0.385   0.166   0.018
    1UNL    H38   87   0.189   0.289   0.100
   0.00000   0.00000   0.00000   0.00000   0.00000   0.00000   0.00000   0.00000   0.00000
Generated with MDTraj, t= 62.0
 87
    1UNL     C1    1   0.053  -0.102   0.270
    1UNL     C2    2   0.078  -0.025   0.170
    1UNL     C3    3   0.084   0.126   0.183
    1UNL     C4    4  -0.063   0.198   0.180
    1UNL     O1    5  -0.147   0.111   0.264
    1UNL     C5    6  -0.281   0.162   0.263
    1UNL     O2    7  -0.275   0.302   0.287
    1UNL     C6    8  -0.399   0.373   0.277
    1UNL     C7    9  -0.481   0.364   0.406
    1UNL     O3   10  -0.508   0.230   0.451
    1UNL     C8   11  -0.476   0.345   0.149
    1UNL     O4   12  -0.415   0.422   0.046
    1UNL     C9   13  -0.488   0.186   0.113
    1UNL     O5   14  -0.584   0.116   0.188
    1UNL    C10   15  -0.352   0.109   0.129
    1UNL     O6   16  -0.389  -0.030   0.130
    1UNL    C11   17  -0.399  -0.072  -0.004
    1UNL     O7   18  -0.292  -0.017  -0.086
    1UNL    C12   19  -0.167  -0.079  -0.059
    1UNL    C13   20  -0.097  -0.111  -0.197
    1UNL     O8   21  -0.052  -0.003  -0.259
    1UNL    C14   22  -0.161  -0.207   0.026
    1UNL     O9   23  -0.044  -0.277   0.012
    1UNL    C15   24  -0.275  -0.300  -0.013
    1UNL    O10   25  -0.284  -0.421   0.063
    1UNL    C16   26  -0.416  -0.231  -0.015
    1UNL    O11   27  -0.492  -0.280  -0.129
    1UNL    O12   28  -0.125   0.241   0.055
    1UNL    C17   29  -0.034   0.239  -0.046
    1UNL    C18   30   0.098   0.216  -0.054
    1UNL    C19   31   0.161   0.214  -0.186
    1UNL    O13   32   0.122   0.284  -0.278
    1UNL     N1   33   0.264   0.127  -0.199
    1UNL    C20   34   0.346   0.096  -0.317
    1UNL    C21   35   0.452  -0.000  -0.269
    1UNL    C22   36   0.426  -0.039  -0.145
    1UNL     N2   37   0.505  -0.127  -0.080
    1UNL    C23   38   0.609  -0.193  -0.142
    1UNL    C24   39   0.673  -0.300  -0.084
    1UNL    C25   40   0.771  -0.368  -0.152
    1UNL    O14   41   0.838  -0.467  -0.085
    1UNL    C26   42   0.814  -0.328  -0.281
    1UNL    C27   43   0.752  -0.214  -0.336
    1UNL    C28   44   0.639  -0.162  -0.277
    1UNL    C29   45   0.559  -0.060  -0.343
    1UNL    O15   46   0.589  -0.018  -0.456
    1UNL    C30   47   0.295   0.025  -0.096
    1UNL    C31   48   0.316   0.097   0.039
    1UNL    C32   49   0.177   0.184   0.071
    1UNL     H1   50   0.025  -0.201   0.255
    1UNL     H2   51   0.020  -0.066   0.372
    1UNL     H3   52   0.085  -0.074   0.073
    1UNL     H4   53   0.133   0.143   0.279
    1UNL     H5   54  -0.058   0.293   0.230
    1UNL     H6   55  -0.329   0.104   0.349
    1UNL     H7   56  -0.378   0.482   0.271
    1UNL     H8   57  -0.435   0.410   0.490
    1UNL     H9   58  -0.579   0.416   0.401
    1UNL    H10   59  -0.523   0.179   0.369
    1UNL    H11   60  -0.573   0.398   0.163
    1UNL    H12   61  -0.329   0.379   0.033
    1UNL    H13   62  -0.517   0.189   0.001
    1UNL    H14   63  -0.572   0.021   0.188
    1UNL    H15   64  -0.286   0.121   0.036
    1UNL    H16   65  -0.490  -0.045  -0.058
    1UNL    H17   66  -0.105   0.001  -0.018
    1UNL    H18   67  -0.163  -0.168  -0.264
    1UNL    H19   68  -0.002  -0.162  -0.176
    1UNL    H20   69  -0.122   0.051  -0.297
    1UNL    H21   70  -0.185  -0.176   0.133
    1UNL    H22   71  -0.026  -0.334   0.091
    1UNL    H23   72  -0.249  -0.330  -0.118
    1UNL    H24   73  -0.236  -0.419   0.150
    1UNL    H25   74  -0.455  -0.265   0.073
    1UNL    H26   75  -0.435  -0.298  -0.202
    1UNL    H27   76  -0.085   0.256  -0.148
    1UNL    H28   77   0.384   0.197  -0.356
    1UNL    H29   78   0.282   0.061  -0.406
    1UNL    H30   79   0.484  -0.148   0.013
    1UNL    H31   80   0.649  -0.341   0.013
    1UNL    H32   81   0.911  -0.497  -0.138
    1UNL    H33   82   0.892  -0.372  -0.334
    1UNL    H34   83   0.782  -0.171  -0.436
    1UNL    H35   84   0.222  -0.058  -0.095
    1UNL    H36   85   0.335   0.023   0.117
    1UNL    H37   86   0.399   0.163   0.029
    1UNL    H38   87   0.210   0.283   0.114
   0.00000   0.00000   0.00000   0.00000   0.00000   0.00000   0.00000   0.00000   0.00000
Generated with MDTraj, t= 63.0
 87
    1UNL     C1    1   0.029  -0.110   0.256
    1UNL     C2    2   0.055  -0.026   0.161
    1UNL     C3    3   0.074   0.125   0.180
    1UNL     C4    4  -0.062   0.203   0.189
    1UNL     O1    5  -0.151   0.101   0.242
    1UNL     C5    6  -0.280   0.159   0.254
    1UNL     O2    7  -0.276   0.295   0.286
    1UNL     C6    8  -0.400   0.365   0.282
    1UNL     C7    9  -0.483   0.340   0.415
    1UNL     O3   10  -0.549   0.214   0.423
    1UNL     C8   11  -0.473   0.354   0.142
    1UNL     O4   12  -0.382   0.415   0.053
    1UNL     C9   13  -0.488   0.198   0.103
    1UNL     O5   14  -0.591   0.140   0.172
    1UNL    C10   15  -0.351   0.126   0.118
    1UNL     O6   16  -0.368  -0.012   0.112
    1UNL    C11   17  -0.396  -0.065  -0.019
    1UNL     O7   18  -0.290  -0.055  -0.121
    1UNL    C12   19  -0.165  -0.103  -0.064
    1UNL    C13   20  -0.061  -0.131  -0.187
    1UNL     O8   21  -0.035  -0.022  -0.264
    1UNL    C14   22  -0.183  -0.221   0.037
    1UNL     O9   23  -0.063  -0.295   0.051
    1UNL    C15   24  -0.308  -0.306   0.005
    1UNL    O10   25  -0.323  -0.400   0.116
    1UNL    C16   26  -0.433  -0.214   0.006
    1UNL    O11   27  -0.534  -0.257  -0.081
    1UNL    O12   28  -0.109   0.274   0.069
    1UNL    C17   29  -0.036   0.257  -0.042
    1UNL    C18   30   0.092   0.216  -0.048
    1UNL    C19   31   0.156   0.196  -0.181
    1UNL    O13   32   0.103   0.249  -0.278
    1UNL     N1   33   0.276   0.125  -0.186
    1UNL    C20   34   0.372   0.115  -0.294
    1UNL    C21   35   0.469   0.014  -0.259
    1UNL    C22   36   0.440  -0.033  -0.129
    1UNL     N2   37   0.521  -0.134  -0.080
    1UNL    C23   38   0.621  -0.196  -0.152
    1UNL    C24   39   0.693  -0.306  -0.101
    1UNL    C25   40   0.800  -0.365  -0.173
    1UNL    O14   41   0.868  -0.470  -0.117
    1UNL    C26   42   0.826  -0.314  -0.301
    1UNL    C27   43   0.753  -0.207  -0.352
    1UNL    C28   44   0.646  -0.153  -0.283
    1UNL    C29   45   0.568  -0.046  -0.347
    1UNL    O15   46   0.586  -0.005  -0.462
    1UNL    C30   47   0.310   0.026  -0.083
    1UNL    C31   48   0.307   0.108   0.047
    1UNL    C32   49   0.171   0.192   0.071
    1UNL     H1   50   0.037  -0.219   0.242
    1UNL     H2   51   0.012  -0.087   0.355
    1UNL     H3   52   0.072  -0.065   0.062
    1UNL     H4   53   0.128   0.123   0.274
    1UNL     H5   54  -0.051   0.277   0.269
    1UNL     H6   55  -0.327   0.100   0.341
    1UNL     H7   56  -0.376   0.471   0.302
    1UNL     H8   57  -0.422   0.354   0.503
    1UNL     H9   58  -0.564   0.414   0.436
    1UNL    H10   59  -0.570   0.184   0.327
    1UNL    H11   60  -0.571   0.409   0.147
    1UNL    H12   61  -0.308   0.350   0.032
    1UNL    H13   62  -0.516   0.202  -0.010
    1UNL    H14   63  -0.592   0.037   0.177
    1UNL    H15   64  -0.289   0.162   0.028
    1UNL    H16   65  -0.481  -0.022  -0.067
    1UNL    H17   66  -0.127  -0.018  -0.006
    1UNL    H18   67  -0.102  -0.208  -0.254
    1UNL    H19   68   0.031  -0.165  -0.139
    1UNL    H20   69  -0.114   0.018  -0.300
    1UNL    H21   70  -0.205  -0.175   0.136
    1UNL    H22   71  -0.054  -0.386   0.017
    1UNL    H23   72  -0.306  -0.354  -0.099
    1UNL    H24   73  -0.335  -0.498   0.086
    1UNL    H25   74  -0.472  -0.210   0.102
    1UNL    H26   75  -0.499  -0.275  -0.171
    1UNL    H27   76  -0.088   0.268  -0.128
    1UNL    H28   77   0.412   0.217  -0.326
    1UNL    H29   78   0.323   0.079  -0.392
    1UNL    H30   79   0.513  -0.159   0.023
    1UNL    H31   80   0.667  -0.350  -0.005
    1UNL    H32   81   0.936  -0.516  -0.166
    1UNL    H33   82   0.894  -0.365  -0.372
    1UNL    H34   83   0.777  -0.167  -0.445
    1UNL    H35   84   0.228  -0.047  -0.085
    1UNL    H36   85   0.320   0.042   0.132
    1UNL    H37   86   0.383   0.182   0.038
    1UNL    H38   87   0.199   0.294   0.113
   0.00000   0.00000   0.00000   0.00000   0.00000   0.00000   0.00000   0.00000   0.00000
Generated with MDTraj, t= 64.0
 87
    1UNL     C1    1   0.035  -0.117   0.268
    1UNL     C2    2   0.082  -0.037   0.177
    1UNL     C3    3   0.091   0.113   0.189
    1UNL     C4    4  -0.047   0.188   0.196
    1UNL     O1    5  -0.146   0.109   0.259
    1UNL     C5    6  -0.271   0.168   0.255
    1UNL     O2    7  -0.278   0.305   0.281
    1UNL     C6    8  -0.401   0.370   0.274
    1UNL     C7    9  -0.500   0.317   0.386
    1UNL     O3   10  -0.510   0.180   0.387
    1UNL     C8   11  -0.452   0.366   0.134
    1UNL     O4   12  -0.371   0.443   0.040
    1UNL     C9   13  -0.468   0.218   0.077
    1UNL     O5   14  -0.586   0.167   0.125
    1UNL    C10   15  -0.339   0.133   0.113
    1UNL     O6   16  -0.373  -0.004   0.120
    1UNL    C11   17  -0.414  -0.061  -0.001
    1UNL     O7   18  -0.303  -0.060  -0.104
    1UNL    C12   19  -0.185  -0.122  -0.054
    1UNL    C13   20  -0.091  -0.174  -0.158
    1UNL     O8   21  -0.039  -0.065  -0.240
    1UNL    C14   22  -0.212  -0.224   0.064
    1UNL     O9   23  -0.106  -0.321   0.094
    1UNL    C15   24  -0.337  -0.308   0.014
    1UNL    O10   25  -0.356  -0.424   0.096
    1UNL    C16   26  -0.460  -0.212   0.013
    1UNL    O11   27  -0.545  -0.236  -0.090
    1UNL    O12   28  -0.094   0.247   0.075
    1UNL    C17   29  -0.030   0.232  -0.041
    1UNL    C18   30   0.101   0.202  -0.048
    1UNL    C19   31   0.156   0.193  -0.181
    1UNL    O13   32   0.111   0.255  -0.277
    1UNL     N1   33   0.269   0.111  -0.194
    1UNL    C20   34   0.362   0.107  -0.309
    1UNL    C21   35   0.473   0.017  -0.261
    1UNL    C22   36   0.443  -0.029  -0.136
    1UNL     N2   37   0.522  -0.123  -0.079
    1UNL    C23   38   0.627  -0.180  -0.153
    1UNL    C24   39   0.701  -0.288  -0.105
    1UNL    C25   40   0.801  -0.344  -0.180
    1UNL    O14   41   0.878  -0.447  -0.136
    1UNL    C26   42   0.823  -0.301  -0.311
    1UNL    C27   43   0.744  -0.205  -0.365
    1UNL    C28   44   0.657  -0.132  -0.283
    1UNL    C29   45   0.585  -0.022  -0.340
    1UNL    O15   46   0.600   0.026  -0.453
    1UNL    C30   47   0.315   0.033  -0.083
    1UNL    C31   48   0.315   0.107   0.048
    1UNL    C32   49   0.185   0.183   0.076
    1UNL     H1   50   0.023  -0.231   0.254
    1UNL     H2   51   0.026  -0.087   0.369
    1UNL     H3   52   0.111  -0.080   0.084
    1UNL     H4   53   0.144   0.120   0.285
    1UNL     H5   54  -0.027   0.267   0.274
    1UNL     H6   55  -0.322   0.115   0.343
    1UNL     H7   56  -0.377   0.474   0.305
    1UNL     H8   57  -0.467   0.345   0.486
    1UNL     H9   58  -0.602   0.365   0.377
    1UNL    H10   59  -0.529   0.146   0.301
    1UNL    H11   60  -0.556   0.413   0.116
    1UNL    H12   61  -0.285   0.460   0.075
    1UNL    H13   62  -0.465   0.223  -0.038
    1UNL    H14   63  -0.588   0.072   0.121
    1UNL    H15   64  -0.260   0.148   0.031
    1UNL    H16   65  -0.492  -0.005  -0.046
    1UNL    H17   66  -0.134  -0.043   0.005
    1UNL    H18   67  -0.154  -0.248  -0.213
    1UNL    H19   68  -0.009  -0.225  -0.106
    1UNL    H20   69  -0.114  -0.009  -0.265
    1UNL    H21   70  -0.243  -0.176   0.156
    1UNL    H22   71  -0.118  -0.413   0.060
    1UNL    H23   72  -0.314  -0.350  -0.091
    1UNL    H24   73  -0.377  -0.402   0.195
    1UNL    H25   74  -0.512  -0.214   0.104
    1UNL    H26   75  -0.504  -0.202  -0.175
    1UNL    H27   76  -0.094   0.259  -0.126
    1UNL    H28   77   0.396   0.211  -0.341
    1UNL    H29   78   0.313   0.074  -0.409
    1UNL    H30   79   0.475  -0.184   0.000
    1UNL    H31   80   0.689  -0.313  -0.004
    1UNL    H32   81   0.924  -0.489  -0.211
    1UNL    H33   82   0.896  -0.341  -0.376
    1UNL    H34   83   0.755  -0.180  -0.472
    1UNL    H35   84   0.237  -0.044  -0.077
    1UNL    H36   85   0.336   0.044   0.133
    1UNL    H37   86   0.389   0.185   0.039
    1UNL    H38   87   0.207   0.283   0.122
   0.00000   0.00000   0.00000   0.00000   0.00000   0.00000   0.00000   0.00000   0.00000
Generated with MDTraj, t= 65.0
 87
    1UNL     C1    1   0.043  -0.104   0.265
    1UNL     C2    2   0.076  -0.021   0.173
    1UNL     C3    3   0.087   0.126   0.187
    1UNL     C4    4  -0.057   0.192   0.195
    1UNL     O1    5  -0.149   0.100   0.254
    1UNL     C5    6  -0.274   0.156   0.261
    1UNL     O2    7  -0.265   0.292   0.297
    1UNL     C6    8  -0.381   0.367   0.276
    1UNL     C7    9  -0.481   0.320   0.388
    1UNL     O3   10  -0.514   0.188   0.374
    1UNL     C8   11  -0.421   0.360   0.131
    1UNL     O4   12  -0.327   0.424   0.051
    1UNL     C9   13  -0.455   0.220   0.074
    1UNL     O5   14  -0.583   0.176   0.085
    1UNL    C10   15  -0.343   0.122   0.120
    1UNL     O6   16  -0.402  -0.005   0.123
    1UNL    C11   17  -0.406  -0.055  -0.003
    1UNL     O7   18  -0.281  -0.055  -0.070
    1UNL    C12   19  -0.180  -0.134  -0.005
    1UNL    C13   20  -0.111  -0.203  -0.116
    1UNL     O8   21  -0.050  -0.097  -0.200
    1UNL    C14   22  -0.236  -0.252   0.086
    1UNL     O9   23  -0.147  -0.359   0.118
    1UNL    C15   24  -0.367  -0.308   0.019
    1UNL    O10   25  -0.422  -0.410   0.096
    1UNL    C16   26  -0.474  -0.197  -0.002
    1UNL    O11   27  -0.557  -0.225  -0.112
    1UNL    O12   28  -0.103   0.248   0.073
    1UNL    C17   29  -0.029   0.246  -0.041
    1UNL    C18   30   0.098   0.202  -0.057
    1UNL    C19   31   0.153   0.198  -0.192
    1UNL    O13   32   0.120   0.270  -0.285
    1UNL     N1   33   0.254   0.101  -0.209
    1UNL    C20   34   0.353   0.110  -0.314
    1UNL    C21   35   0.475   0.027  -0.272
    1UNL    C22   36   0.451  -0.020  -0.149
    1UNL     N2   37   0.532  -0.120  -0.096
    1UNL    C23   38   0.647  -0.164  -0.163
    1UNL    C24   39   0.714  -0.271  -0.108
    1UNL    C25   40   0.811  -0.334  -0.181
    1UNL    O14   41   0.879  -0.446  -0.132
    1UNL    C26   42   0.852  -0.279  -0.307
    1UNL    C27   43   0.773  -0.183  -0.365
    1UNL    C28   44   0.677  -0.113  -0.292
    1UNL    C29   45   0.589  -0.010  -0.346
    1UNL    O15   46   0.611   0.031  -0.459
    1UNL    C30   47   0.313   0.023  -0.097
    1UNL    C31   48   0.302   0.080   0.041
    1UNL    C32   49   0.182   0.174   0.065
    1UNL     H1   50   0.016  -0.200   0.239
    1UNL     H2   51   0.037  -0.077   0.367
    1UNL     H3   52   0.103  -0.059   0.073
    1UNL     H4   53   0.141   0.138   0.283
    1UNL     H5   54  -0.045   0.277   0.270
    1UNL     H6   55  -0.328   0.100   0.347
    1UNL     H7   56  -0.347   0.470   0.301
    1UNL     H8   57  -0.446   0.331   0.492
    1UNL     H9   58  -0.576   0.380   0.385
    1UNL    H10   59  -0.538   0.169   0.281
    1UNL    H11   60  -0.524   0.404   0.099
    1UNL    H12   61  -0.240   0.369   0.047
    1UNL    H13   62  -0.438   0.214  -0.035
    1UNL    H14   63  -0.591   0.086   0.120
    1UNL    H15   64  -0.257   0.114   0.044
    1UNL    H16   65  -0.477   0.000  -0.061
    1UNL    H17   66  -0.115  -0.065   0.054
    1UNL    H18   67  -0.184  -0.246  -0.187
    1UNL    H19   68  -0.036  -0.279  -0.091
    1UNL    H20   69  -0.113  -0.017  -0.202
    1UNL    H21   70  -0.267  -0.201   0.173
    1UNL    H22   71  -0.159  -0.439   0.057
    1UNL    H23   72  -0.330  -0.359  -0.077
    1UNL    H24   73  -0.367  -0.470   0.145
    1UNL    H25   74  -0.546  -0.201   0.078
    1UNL    H26   75  -0.501  -0.230  -0.197
    1UNL    H27   76  -0.089   0.274  -0.136
    1UNL    H28   77   0.389   0.216  -0.335
    1UNL    H29   78   0.312   0.081  -0.418
    1UNL    H30   79   0.509  -0.154   0.001
    1UNL    H31   80   0.691  -0.314  -0.009
    1UNL    H32   81   0.944  -0.471  -0.203
    1UNL    H33   82   0.946  -0.316  -0.347
    1UNL    H34   83   0.779  -0.158  -0.467
    1UNL    H35   84   0.267  -0.077  -0.090
    1UNL    H36   85   0.297   0.002   0.115
    1UNL    H37   86   0.390   0.137   0.065
    1UNL    H38   87   0.220   0.271   0.103
   0.00000   0.00000   0.00000   0.00000   0.00000   0.00000   0.00000   0.00000   0.00000
Generated with MDTraj, t= 66.0
 87
    1UNL     C1    1   0.031  -0.127   0.246
    1UNL     C2    2   0.081  -0.048   0.157
    1UNL     C3    3   0.095   0.104   0.171
    1UNL     C4    4  -0.049   0.168   0.183
    1UNL     O1    5  -0.142   0.082   0.250
    1UNL     C5    6  -0.268   0.146   0.257
    1UNL     O2    7  -0.266   0.281   0.309
    1UNL     C6    8  -0.376   0.372   0.289
    1UNL     C7    9  -0.489   0.349   0.392
    1UNL     O3   10  -0.553   0.228   0.391
    1UNL     C8   11  -0.409   0.381   0.140
    1UNL     O4   12  -0.297   0.436   0.071
    1UNL     C9   13  -0.449   0.239   0.085
    1UNL     O5   14  -0.576   0.189   0.117
    1UNL    C10   15  -0.330   0.130   0.114
    1UNL     O6   16  -0.391  -0.002   0.104
    1UNL    C11   17  -0.406  -0.063  -0.024
    1UNL     O7   18  -0.288  -0.101  -0.089
    1UNL    C12   19  -0.198  -0.158   0.004
    1UNL    C13   20  -0.084  -0.221  -0.078
    1UNL     O8   21  -0.012  -0.115  -0.142
    1UNL    C14   22  -0.272  -0.273   0.103
    1UNL     O9   23  -0.191  -0.379   0.133
    1UNL    C15   24  -0.404  -0.315   0.035
    1UNL    O10   25  -0.474  -0.401   0.111
    1UNL    C16   26  -0.494  -0.195  -0.017
    1UNL    O11   27  -0.563  -0.222  -0.139
    1UNL    O12   28  -0.099   0.232   0.064
    1UNL    C17   29  -0.029   0.232  -0.054
    1UNL    C18   30   0.100   0.194  -0.071
    1UNL    C19   31   0.161   0.199  -0.204
    1UNL    O13   32   0.118   0.268  -0.292
    1UNL     N1   33   0.268   0.117  -0.220
    1UNL    C20   34   0.360   0.121  -0.325
    1UNL    C21   35   0.467   0.024  -0.287
    1UNL    C22   36   0.439  -0.031  -0.163
    1UNL     N2   37   0.519  -0.123  -0.100
    1UNL    C23   38   0.633  -0.172  -0.169
    1UNL    C24   39   0.724  -0.266  -0.117
    1UNL    C25   40   0.843  -0.312  -0.180
    1UNL    O14   41   0.910  -0.428  -0.129
    1UNL    C26   42   0.876  -0.242  -0.296
    1UNL    C27   43   0.796  -0.146  -0.341
    1UNL    C28   44   0.666  -0.116  -0.291
    1UNL    C29   45   0.582  -0.016  -0.357
    1UNL    O15   46   0.620   0.041  -0.460
    1UNL    C30   47   0.308   0.028  -0.111
    1UNL    C31   48   0.315   0.107   0.020
    1UNL    C32   49   0.182   0.172   0.051
    1UNL     H1   50   0.031  -0.232   0.226
    1UNL     H2   51  -0.019  -0.103   0.348
    1UNL     H3   52   0.117  -0.077   0.062
    1UNL     H4   53   0.146   0.128   0.270
    1UNL     H5   54  -0.037   0.257   0.251
    1UNL     H6   55  -0.333   0.090   0.333
    1UNL     H7   56  -0.329   0.466   0.323
    1UNL     H8   57  -0.457   0.354   0.498
    1UNL     H9   58  -0.573   0.423   0.392
    1UNL    H10   59  -0.570   0.201   0.294
    1UNL    H11   60  -0.492   0.455   0.116
    1UNL    H12   61  -0.224   0.374   0.086
    1UNL    H13   62  -0.441   0.251  -0.020
    1UNL    H14   63  -0.586   0.085   0.122
    1UNL    H15   64  -0.249   0.129   0.033
    1UNL    H16   65  -0.451   0.013  -0.083
    1UNL    H17   66  -0.161  -0.073   0.066
    1UNL    H18   67  -0.106  -0.293  -0.160
    1UNL    H19   68  -0.005  -0.264  -0.017
    1UNL    H20   69  -0.077  -0.056  -0.181
    1UNL    H21   70  -0.301  -0.221   0.189
    1UNL    H22   71  -0.243  -0.463   0.117
    1UNL    H23   72  -0.359  -0.376  -0.052
    1UNL    H24   73  -0.510  -0.353   0.183
    1UNL    H25   74  -0.574  -0.176   0.058
    1UNL    H26   75  -0.497  -0.237  -0.212
    1UNL    H27   76  -0.077   0.260  -0.140
    1UNL    H28   77   0.405   0.221  -0.350
    1UNL    H29   78   0.309   0.089  -0.423
    1UNL    H30   79   0.495  -0.170  -0.018
    1UNL    H31   80   0.688  -0.316  -0.032
    1UNL    H32   81   1.004  -0.431  -0.166
    1UNL    H33   82   0.957  -0.281  -0.356
    1UNL    H34   83   0.819  -0.098  -0.437
    1UNL    H35   84   0.229  -0.048  -0.111
    1UNL    H36   85   0.341   0.045   0.103
    1UNL    H37   86   0.395   0.181   0.016
    1UNL    H38   87   0.200   0.270   0.095
   0.00000   0.00000   0.00000   0.00000   0.00000   0.00000   0.00000   0.00000   0.00000
Generated with MDTraj, t= 67.0
 87
    1UNL     C1    1   0.042  -0.142   0.239
    1UNL     C2    2   0.089  -0.061   0.149
    1UNL     C3    3   0.092   0.087   0.167
    1UNL     C4    4  -0.050   0.159   0.169
    1UNL     O1    5  -0.148   0.069   0.219
    1UNL     C5    6  -0.271   0.140   0.241
    1UNL     O2    7  -0.238   0.272   0.286
    1UNL     C6    8  -0.343   0.371   0.281
    1UNL     C7    9  -0.442   0.347   0.400
    1UNL     O3   10  -0.516   0.223   0.396
    1UNL     C8   11  -0.412   0.379   0.139
    1UNL     O4   12  -0.332   0.451   0.048
    1UNL     C9   13  -0.456   0.241   0.088
    1UNL     O5   14  -0.582   0.203   0.130
    1UNL    C10   15  -0.352   0.123   0.121
    1UNL     O6   16  -0.420  -0.008   0.122
    1UNL    C11   17  -0.419  -0.050  -0.014
    1UNL     O7   18  -0.284  -0.083  -0.070
    1UNL    C12   19  -0.205  -0.168   0.015
    1UNL    C13   20  -0.100  -0.255  -0.061
    1UNL     O8   21   0.013  -0.188  -0.108
    1UNL    C14   22  -0.295  -0.263   0.110
    1UNL     O9   23  -0.223  -0.370   0.153
    1UNL    C15   24  -0.422  -0.293   0.031
    1UNL    O10   25  -0.494  -0.384   0.106
    1UNL    C16   26  -0.512  -0.175  -0.022
    1UNL    O11   27  -0.558  -0.185  -0.158
    1UNL    O12   28  -0.103   0.232   0.057
    1UNL    C17   29  -0.031   0.229  -0.054
    1UNL    C18   30   0.097   0.188  -0.065
    1UNL    C19   31   0.154   0.189  -0.200
    1UNL    O13   32   0.112   0.255  -0.292
    1UNL     N1   33   0.260   0.103  -0.223
    1UNL    C20   34   0.366   0.126  -0.324
    1UNL    C21   35   0.478   0.037  -0.283
    1UNL    C22   36   0.443  -0.037  -0.175
    1UNL     N2   37   0.525  -0.132  -0.119
    1UNL    C23   38   0.644  -0.171  -0.175
    1UNL    C24   39   0.726  -0.263  -0.114
    1UNL    C25   40   0.851  -0.293  -0.174
    1UNL    O14   41   0.933  -0.372  -0.101
    1UNL    C26   42   0.882  -0.231  -0.298
    1UNL    C27   43   0.809  -0.128  -0.351
    1UNL    C28   44   0.678  -0.110  -0.299
    1UNL    C29   45   0.589  -0.004  -0.353
    1UNL    O15   46   0.619   0.060  -0.453
    1UNL    C30   47   0.309   0.007  -0.126
    1UNL    C31   48   0.307   0.073   0.021
    1UNL    C32   49   0.183   0.152   0.053
    1UNL     H1   50   0.023  -0.240   0.214
    1UNL     H2   51   0.006  -0.107   0.332
    1UNL     H3   52   0.089  -0.079   0.039
    1UNL     H4   53   0.142   0.121   0.263
    1UNL     H5   54  -0.042   0.241   0.242
    1UNL     H6   55  -0.320   0.102   0.336
    1UNL     H7   56  -0.295   0.466   0.309
    1UNL     H8   57  -0.400   0.349   0.501
    1UNL     H9   58  -0.522   0.424   0.411
    1UNL    H10   59  -0.556   0.213   0.311
    1UNL    H11   60  -0.500   0.443   0.160
    1UNL    H12   61  -0.253   0.386   0.046
    1UNL    H13   62  -0.460   0.256  -0.017
    1UNL    H14   63  -0.610   0.113   0.117
    1UNL    H15   64  -0.279   0.123   0.032
    1UNL    H16   65  -0.447   0.034  -0.076
    1UNL    H17   66  -0.148  -0.115   0.093
    1UNL    H18   67  -0.150  -0.301  -0.149
    1UNL    H19   68  -0.060  -0.337  -0.002
    1UNL    H20   69  -0.019  -0.124  -0.172
    1UNL    H21   70  -0.337  -0.217   0.197
    1UNL    H22   71  -0.259  -0.457   0.132
    1UNL    H23   72  -0.394  -0.359  -0.057
    1UNL    H24   73  -0.524  -0.336   0.184
    1UNL    H25   74  -0.603  -0.177   0.046
    1UNL    H26   75  -0.489  -0.152  -0.219
    1UNL    H27   76  -0.082   0.269  -0.140
    1UNL    H28   77   0.391   0.236  -0.331
    1UNL    H29   78   0.331   0.100  -0.429
    1UNL    H30   79   0.512  -0.172  -0.034
    1UNL    H31   80   0.699  -0.304  -0.016
    1UNL    H32   81   1.029  -0.360  -0.130
    1UNL    H33   82   0.971  -0.272  -0.341
    1UNL    H34   83   0.840  -0.065  -0.434
    1UNL    H35   84   0.236  -0.073  -0.145
    1UNL    H36   85   0.323  -0.007   0.089
    1UNL    H37   86   0.399   0.128   0.039
    1UNL    H38   87   0.212   0.248   0.095
   0.00000   0.00000   0.00000   0.00000   0.00000   0.00000   0.00000   0.00000   0.00000
Generated with MDTraj, t= 68.0
 87
    1UNL     C1    1   0.044  -0.139   0.259
    1UNL     C2    2   0.050  -0.057   0.159
    1UNL     C3    3   0.084   0.087   0.164
    1UNL     C4    4  -0.046   0.166   0.174
    1UNL     O1    5  -0.142   0.083   0.234
    1UNL     C5    6  -0.261   0.161   0.245
    1UNL     O2    7  -0.234   0.299   0.277
    1UNL     C6    8  -0.353   0.376   0.285
    1UNL     C7    9  -0.428   0.343   0.412
    1UNL     O3   10  -0.459   0.208   0.419
    1UNL     C8   11  -0.413   0.376   0.147
    1UNL     O4   12  -0.311   0.432   0.058
    1UNL     C9   13  -0.462   0.243   0.095
    1UNL     O5   14  -0.568   0.198   0.171
    1UNL    C10   15  -0.345   0.137   0.115
    1UNL     O6   16  -0.426   0.006   0.102
    1UNL    C11   17  -0.412  -0.050  -0.028
    1UNL     O7   18  -0.281  -0.084  -0.066
    1UNL    C12   19  -0.215  -0.179   0.016
    1UNL    C13   20  -0.139  -0.278  -0.074
    1UNL     O8   21  -0.055  -0.191  -0.150
    1UNL    C14   22  -0.320  -0.243   0.116
    1UNL     O9   23  -0.267  -0.351   0.192
    1UNL    C15   24  -0.441  -0.292   0.016
    1UNL    O10   25  -0.528  -0.377   0.095
    1UNL    C16   26  -0.507  -0.176  -0.043
    1UNL    O11   27  -0.552  -0.206  -0.177
    1UNL    O12   28  -0.098   0.231   0.058
    1UNL    C17   29  -0.038   0.207  -0.058
    1UNL    C18   30   0.087   0.162  -0.078
    1UNL    C19   31   0.150   0.177  -0.210
    1UNL    O13   32   0.109   0.257  -0.291
    1UNL     N1   33   0.249   0.083  -0.234
    1UNL    C20   34   0.360   0.096  -0.334
    1UNL    C21   35   0.478   0.014  -0.294
    1UNL    C22   36   0.448  -0.048  -0.178
    1UNL     N2   37   0.530  -0.132  -0.110
    1UNL    C23   38   0.662  -0.151  -0.170
    1UNL    C24   39   0.753  -0.236  -0.110
    1UNL    C25   40   0.878  -0.270  -0.167
    1UNL    O14   41   0.973  -0.353  -0.108
    1UNL    C26   42   0.910  -0.208  -0.286
    1UNL    C27   43   0.826  -0.120  -0.343
    1UNL    C28   44   0.705  -0.082  -0.287
    1UNL    C29   45   0.608   0.004  -0.353
    1UNL    O15   46   0.636   0.067  -0.457
    1UNL    C30   47   0.300  -0.016  -0.133
    1UNL    C31   48   0.296   0.047   0.011
    1UNL    C32   49   0.173   0.132   0.042
    1UNL     H1   50   0.013  -0.250   0.247
    1UNL     H2   51   0.037  -0.105   0.360
    1UNL     H3   52   0.058  -0.088   0.058
    1UNL     H4   53   0.142   0.122   0.255
    1UNL     H5   54  -0.039   0.241   0.251
    1UNL     H6   55  -0.318   0.123   0.336
    1UNL     H7   56  -0.310   0.477   0.301
    1UNL     H8   57  -0.363   0.361   0.498
    1UNL     H9   58  -0.520   0.399   0.430
    1UNL    H10   59  -0.504   0.178   0.334
    1UNL    H11   60  -0.494   0.448   0.148
    1UNL    H12   61  -0.226   0.374   0.061
    1UNL    H13   62  -0.489   0.246  -0.011
    1UNL    H14   63  -0.613   0.113   0.136
    1UNL    H15   64  -0.286   0.129   0.021
    1UNL    H16   65  -0.446   0.026  -0.099
    1UNL    H17   66  -0.133  -0.125   0.064
    1UNL    H18   67  -0.209  -0.343  -0.130
    1UNL    H19   68  -0.083  -0.344  -0.008
    1UNL    H20   69  -0.103  -0.106  -0.178
    1UNL    H21   70  -0.356  -0.164   0.181
    1UNL    H22   71  -0.332  -0.427   0.196
    1UNL    H23   72  -0.391  -0.354  -0.063
    1UNL    H24   73  -0.622  -0.340   0.104
    1UNL    H25   74  -0.604  -0.150   0.014
    1UNL    H26   75  -0.480  -0.189  -0.236
    1UNL    H27   76  -0.107   0.246  -0.144
    1UNL    H28   77   0.376   0.206  -0.342
    1UNL    H29   78   0.324   0.065  -0.434
    1UNL    H30   79   0.500  -0.184  -0.028
    1UNL    H31   80   0.744  -0.269  -0.007
    1UNL    H32   81   1.045  -0.371  -0.174
    1UNL    H33   82   1.003  -0.232  -0.339
    1UNL    H34   83   0.848  -0.065  -0.431
    1UNL    H35   84   0.238  -0.106  -0.146
    1UNL    H36   85   0.312  -0.028   0.087
    1UNL    H37   86   0.391   0.102   0.023
    1UNL    H38   87   0.212   0.228   0.070
   0.00000   0.00000   0.00000   0.00000   0.00000   0.00000   0.00000   0.00000   0.00000
Generated with MDTraj, t= 69.0
 87
    1UNL     C1    1   0.025  -0.158   0.245
    1UNL     C2    2   0.064  -0.089   0.143
    1UNL     C3    3   0.083   0.062   0.139
    1UNL     C4    4  -0.047   0.150   0.154
    1UNL     O1    5  -0.146   0.068   0.226
    1UNL     C5    6  -0.272   0.138   0.245
    1UNL     O2    7  -0.239   0.268   0.288
    1UNL     C6    8  -0.343   0.369   0.306
    1UNL     C7    9  -0.429   0.364   0.434
    1UNL     O3   10  -0.505   0.248   0.438
    1UNL     C8   11  -0.415   0.377   0.173
    1UNL     O4   12  -0.322   0.431   0.075
    1UNL     C9   13  -0.463   0.241   0.120
    1UNL     O5   14  -0.582   0.190   0.169
    1UNL    C10   15  -0.351   0.136   0.121
    1UNL     O6   16  -0.423   0.012   0.109
    1UNL    C11   17  -0.430  -0.032  -0.025
    1UNL     O7   18  -0.299  -0.080  -0.072
    1UNL    C12   19  -0.233  -0.170   0.021
    1UNL    C13   20  -0.142  -0.262  -0.048
    1UNL     O8   21  -0.076  -0.196  -0.153
    1UNL    C14   22  -0.328  -0.240   0.111
    1UNL     O9   23  -0.271  -0.363   0.159
    1UNL    C15   24  -0.463  -0.271   0.029
    1UNL    O10   25  -0.551  -0.335   0.120
    1UNL    C16   26  -0.528  -0.152  -0.035
    1UNL    O11   27  -0.549  -0.182  -0.174
    1UNL    O12   28  -0.086   0.229   0.040
    1UNL    C17   29  -0.017   0.212  -0.080
    1UNL    C18   30   0.107   0.163  -0.091
    1UNL    C19   31   0.163   0.141  -0.226
    1UNL    O13   32   0.119   0.203  -0.321
    1UNL     N1   33   0.262   0.047  -0.242
    1UNL    C20   34   0.364   0.067  -0.346
    1UNL    C21   35   0.482  -0.001  -0.298
    1UNL    C22   36   0.455  -0.062  -0.176
    1UNL     N2   37   0.551  -0.133  -0.115
    1UNL    C23   38   0.679  -0.143  -0.168
    1UNL    C24   39   0.766  -0.232  -0.108
    1UNL    C25   40   0.896  -0.242  -0.159
    1UNL    O14   41   0.994  -0.327  -0.104
    1UNL    C26   42   0.931  -0.159  -0.273
    1UNL    C27   43   0.839  -0.089  -0.341
    1UNL    C28   44   0.713  -0.066  -0.284
    1UNL    C29   45   0.610   0.008  -0.353
    1UNL    O15   46   0.633   0.059  -0.463
    1UNL    C30   47   0.317  -0.027  -0.125
    1UNL    C31   48   0.309   0.051   0.007
    1UNL    C32   49   0.180   0.134   0.035
    1UNL     H1   50   0.007  -0.263   0.239
    1UNL     H2   51   0.012  -0.120   0.338
    1UNL     H3   52   0.081  -0.130   0.044
    1UNL     H4   53   0.136   0.091   0.233
    1UNL     H5   54  -0.030   0.231   0.225
    1UNL     H6   55  -0.319   0.083   0.332
    1UNL     H7   56  -0.274   0.455   0.307
    1UNL     H8   57  -0.372   0.355   0.526
    1UNL     H9   58  -0.494   0.451   0.435
    1UNL    H10   59  -0.537   0.224   0.346
    1UNL    H11   60  -0.504   0.436   0.180
    1UNL    H12   61  -0.234   0.394   0.065
    1UNL    H13   62  -0.493   0.248   0.010
    1UNL    H14   63  -0.584   0.097   0.154
    1UNL    H15   64  -0.285   0.137   0.031
    1UNL    H16   65  -0.457   0.054  -0.093
    1UNL    H17   66  -0.169  -0.096   0.070
    1UNL    H18   67  -0.212  -0.332  -0.098
    1UNL    H19   68  -0.084  -0.327   0.019
    1UNL    H20   69  -0.124  -0.120  -0.188
    1UNL    H21   70  -0.352  -0.166   0.191
    1UNL    H22   71  -0.336  -0.428   0.200
    1UNL    H23   72  -0.440  -0.339  -0.056
    1UNL    H24   73  -0.620  -0.395   0.072
    1UNL    H25   74  -0.633  -0.128   0.013
    1UNL    H26   75  -0.467  -0.161  -0.219
    1UNL    H27   76  -0.067   0.241  -0.165
    1UNL    H28   77   0.380   0.176  -0.352
    1UNL    H29   78   0.316   0.034  -0.438
    1UNL    H30   79   0.526  -0.182  -0.021
    1UNL    H31   80   0.746  -0.279  -0.014
    1UNL    H32   81   1.054  -0.359  -0.174
    1UNL    H33   82   1.030  -0.158  -0.308
    1UNL    H34   83   0.851  -0.049  -0.444
    1UNL    H35   84   0.267  -0.124  -0.112
    1UNL    H36   85   0.312  -0.015   0.091
    1UNL    H37   86   0.393   0.118   0.021
    1UNL    H38   87   0.215   0.227   0.075
   0.00000   0.00000   0.00000   0.00000   0.00000   0.00000   0.00000   0.00000   0.00000
Generated with MDTraj, t= 70.0
 87
    1UNL     C1    1   0.021  -0.174   0.189
    1UNL     C2    2   0.060  -0.084   0.105
    1UNL     C3    3   0.079   0.060   0.146
    1UNL     C4    4  -0.057   0.146   0.162
    1UNL     O1    5  -0.158   0.063   0.227
    1UNL     C5    6  -0.273   0.137   0.252
    1UNL     O2    7  -0.224   0.266   0.296
    1UNL     C6    8  -0.323   0.368   0.309
    1UNL     C7    9  -0.409   0.354   0.438
    1UNL     O3   10  -0.492   0.246   0.439
    1UNL     C8   11  -0.397   0.393   0.176
    1UNL     O4   12  -0.303   0.443   0.088
    1UNL     C9   13  -0.457   0.260   0.119
    1UNL     O5   14  -0.589   0.233   0.173
    1UNL    C10   15  -0.356   0.129   0.129
    1UNL     O6   16  -0.440   0.022   0.115
    1UNL    C11   17  -0.450  -0.026  -0.018
    1UNL     O7   18  -0.323  -0.070  -0.087
    1UNL    C12   19  -0.246  -0.167  -0.009
    1UNL    C13   20  -0.155  -0.254  -0.109
    1UNL     O8   21  -0.040  -0.190  -0.140
    1UNL    C14   22  -0.336  -0.242   0.101
    1UNL     O9   23  -0.286  -0.365   0.153
    1UNL    C15   24  -0.473  -0.276   0.037
    1UNL    O10   25  -0.562  -0.328   0.137
    1UNL    C16   26  -0.536  -0.149  -0.025
    1UNL    O11   27  -0.571  -0.166  -0.162
    1UNL    O12   28  -0.105   0.202   0.044
    1UNL    C17   29  -0.046   0.160  -0.076
    1UNL    C18   30   0.086   0.134  -0.091
    1UNL    C19   31   0.143   0.116  -0.227
    1UNL    O13   32   0.096   0.166  -0.329
    1UNL     N1   33   0.256   0.036  -0.238
    1UNL    C20   34   0.354   0.058  -0.346
    1UNL    C21   35   0.486  -0.005  -0.297
    1UNL    C22   36   0.464  -0.056  -0.171
    1UNL     N2   37   0.566  -0.120  -0.106
    1UNL    C23   38   0.693  -0.141  -0.157
    1UNL    C24   39   0.797  -0.215  -0.101
    1UNL    C25   40   0.926  -0.216  -0.152
    1UNL    O14   41   1.029  -0.281  -0.089
    1UNL    C26   42   0.951  -0.142  -0.270
    1UNL    C27   43   0.852  -0.081  -0.339
    1UNL    C28   44   0.721  -0.083  -0.284
    1UNL    C29   45   0.619  -0.013  -0.358
    1UNL    O15   46   0.635   0.046  -0.466
    1UNL    C30   47   0.323  -0.031  -0.125
    1UNL    C31   48   0.304   0.040   0.006
    1UNL    C32   49   0.170   0.122   0.034
    1UNL     H1   50   0.038  -0.278   0.170
    1UNL     H2   51   0.001  -0.152   0.300
    1UNL     H3   52   0.079  -0.107  -0.001
    1UNL     H4   53   0.134   0.065   0.242
    1UNL     H5   54  -0.037   0.233   0.228
    1UNL     H6   55  -0.323   0.088   0.339
    1UNL     H7   56  -0.250   0.451   0.321
    1UNL     H8   57  -0.344   0.344   0.526
    1UNL     H9   58  -0.473   0.441   0.443
    1UNL    H10   59  -0.531   0.240   0.353
    1UNL    H11   60  -0.477   0.461   0.188
    1UNL    H12   61  -0.229   0.386   0.062
    1UNL    H13   62  -0.484   0.280   0.009
    1UNL    H14   63  -0.600   0.132   0.159
    1UNL    H15   64  -0.297   0.136   0.040
    1UNL    H16   65  -0.482   0.062  -0.083
    1UNL    H17   66  -0.180  -0.109   0.055
    1UNL    H18   67  -0.200  -0.293  -0.203
    1UNL    H19   68  -0.126  -0.344  -0.058
    1UNL    H20   69  -0.063  -0.097  -0.162
    1UNL    H21   70  -0.359  -0.172   0.190
    1UNL    H22   71  -0.345  -0.417   0.209
    1UNL    H23   72  -0.476  -0.359  -0.035
    1UNL    H24   73  -0.533  -0.300   0.228
    1UNL    H25   74  -0.630  -0.125   0.046
    1UNL    H26   75  -0.494  -0.145  -0.221
    1UNL    H27   76  -0.100   0.165  -0.166
    1UNL    H28   77   0.370   0.164  -0.364
    1UNL    H29   78   0.312   0.011  -0.432
    1UNL    H30   79   0.542  -0.177  -0.018
    1UNL    H31   80   0.769  -0.290  -0.026
    1UNL    H32   81   1.103  -0.312  -0.142
    1UNL    H33   82   1.055  -0.150  -0.308
    1UNL    H34   83   0.863  -0.044  -0.436
    1UNL    H35   84   0.265  -0.125  -0.118
    1UNL    H36   85   0.315  -0.026   0.091
    1UNL    H37   86   0.380   0.117   0.020
    1UNL    H38   87   0.209   0.219   0.060
   0.00000   0.00000   0.00000   0.00000   0.00000   0.00000   0.00000   0.00000   0.00000
Generated with MDTraj, t= 71.0
 87
    1UNL     C1    1  -0.007  -0.194   0.207
    1UNL     C2    2   0.033  -0.114   0.112
    1UNL     C3    3   0.077   0.031   0.135
    1UNL     C4    4  -0.052   0.112   0.154
    1UNL     O1    5  -0.153   0.042   0.230
    1UNL     C5    6  -0.254   0.136   0.246
    1UNL     O2    7  -0.198   0.262   0.290
    1UNL     C6    8  -0.297   0.363   0.298
    1UNL     C7    9  -0.392   0.332   0.427
    1UNL     O3   10  -0.456   0.209   0.430
    1UNL     C8   11  -0.363   0.392   0.158
    1UNL     O4   12  -0.255   0.432   0.079
    1UNL     C9   13  -0.442   0.267   0.111
    1UNL     O5   14  -0.559   0.244   0.188
    1UNL    C10   15  -0.351   0.134   0.121
    1UNL     O6   16  -0.438   0.027   0.118
    1UNL    C11   17  -0.459  -0.009  -0.016
    1UNL     O7   18  -0.337  -0.044  -0.080
    1UNL    C12   19  -0.257  -0.141  -0.008
    1UNL    C13   20  -0.197  -0.227  -0.122
    1UNL     O8   21  -0.091  -0.171  -0.194
    1UNL    C14   22  -0.332  -0.229   0.098
    1UNL     O9   23  -0.267  -0.353   0.127
    1UNL    C15   24  -0.477  -0.256   0.049
    1UNL    O10   25  -0.561  -0.323   0.135
    1UNL    C16   26  -0.550  -0.132  -0.006
    1UNL    O11   27  -0.598  -0.168  -0.139
    1UNL    O12   28  -0.108   0.177   0.037
    1UNL    C17   29  -0.050   0.157  -0.083
    1UNL    C18   30   0.079   0.119  -0.097
    1UNL    C19   31   0.133   0.089  -0.227
    1UNL    O13   32   0.074   0.116  -0.330
    1UNL     N1   33   0.254   0.026  -0.231
    1UNL    C20   34   0.350   0.051  -0.341
    1UNL    C21   35   0.481   0.006  -0.282
    1UNL    C22   36   0.463  -0.050  -0.161
    1UNL     N2   37   0.569  -0.096  -0.085
    1UNL    C23   38   0.698  -0.115  -0.146
    1UNL    C24   39   0.810  -0.162  -0.078
    1UNL    C25   40   0.935  -0.184  -0.137
    1UNL    O14   41   1.043  -0.234  -0.059
    1UNL    C26   42   0.946  -0.150  -0.274
    1UNL    C27   43   0.843  -0.086  -0.339
    1UNL    C28   44   0.714  -0.078  -0.281
    1UNL    C29   45   0.608  -0.013  -0.353
    1UNL    O15   46   0.619   0.031  -0.470
    1UNL    C30   47   0.327  -0.039  -0.119
    1UNL    C31   48   0.309   0.048   0.007
    1UNL    C32   49   0.163   0.103   0.028
    1UNL     H1   50  -0.041  -0.289   0.195
    1UNL     H2   51  -0.027  -0.156   0.307
    1UNL     H3   52   0.051  -0.154   0.016
    1UNL     H4   53   0.130   0.034   0.231
    1UNL     H5   54  -0.022   0.197   0.225
    1UNL     H6   55  -0.315   0.087   0.324
    1UNL     H7   56  -0.238   0.454   0.319
    1UNL     H8   57  -0.325   0.333   0.516
    1UNL     H9   58  -0.466   0.411   0.428
    1UNL    H10   59  -0.515   0.204   0.347
    1UNL    H11   60  -0.419   0.482   0.165
    1UNL    H12   61  -0.203   0.356   0.039
    1UNL    H13   62  -0.478   0.282   0.004
    1UNL    H14   63  -0.600   0.170   0.146
    1UNL    H15   64  -0.299   0.121   0.027
    1UNL    H16   65  -0.519   0.067  -0.076
    1UNL    H17   66  -0.182  -0.086   0.046
    1UNL    H18   67  -0.271  -0.261  -0.195
    1UNL    H19   68  -0.154  -0.322  -0.094
    1UNL    H20   69  -0.115  -0.080  -0.227
    1UNL    H21   70  -0.342  -0.172   0.198
    1UNL    H22   71  -0.324  -0.392   0.194
    1UNL    H23   72  -0.449  -0.316  -0.035
    1UNL    H24   73  -0.597  -0.399   0.090
    1UNL    H25   74  -0.646  -0.099   0.059
    1UNL    H26   75  -0.524  -0.173  -0.208
    1UNL    H27   76  -0.120   0.164  -0.176
    1UNL    H28   77   0.347   0.155  -0.367
    1UNL    H29   78   0.338  -0.014  -0.423
    1UNL    H30   79   0.557  -0.113   0.013
    1UNL    H31   80   0.801  -0.203   0.019
    1UNL    H32   81   1.118  -0.250  -0.116
    1UNL    H33   82   1.031  -0.175  -0.329
    1UNL    H34   83   0.860  -0.058  -0.446
    1UNL    H35   84   0.284  -0.138  -0.098
    1UNL    H36   85   0.333  -0.005   0.098
    1UNL    H37   86   0.379   0.131   0.005
    1UNL    H38   87   0.180   0.203   0.068
   0.00000   0.00000   0.00000   0.00000   0.00000   0.00000   0.00000   0.00000   0.00000
Generated with MDTraj, t= 72.0
 87
    1UNL     C1    1  -0.008  -0.211   0.181
    1UNL     C2    2   0.063  -0.130   0.109
    1UNL     C3    3   0.086   0.013   0.137
    1UNL     C4    4  -0.042   0.104   0.161
    1UNL     O1    5  -0.144   0.029   0.230
    1UNL     C5    6  -0.255   0.118   0.256
    1UNL     O2    7  -0.204   0.244   0.296
    1UNL     C6    8  -0.285   0.355   0.310
    1UNL     C7    9  -0.376   0.347   0.436
    1UNL     O3   10  -0.455   0.234   0.432
    1UNL     C8   11  -0.353   0.397   0.181
    1UNL     O4   12  -0.250   0.442   0.091
    1UNL     C9   13  -0.431   0.279   0.117
    1UNL     O5   14  -0.559   0.261   0.167
    1UNL    C10   15  -0.354   0.140   0.134
    1UNL     O6   16  -0.441   0.027   0.131
    1UNL    C11   17  -0.479  -0.013  -0.004
    1UNL     O7   18  -0.370  -0.041  -0.085
    1UNL    C12   19  -0.270  -0.125  -0.025
    1UNL    C13   20  -0.212  -0.214  -0.133
    1UNL     O8   21  -0.156  -0.133  -0.245
    1UNL    C14   22  -0.337  -0.210   0.088
    1UNL     O9   23  -0.264  -0.325   0.132
    1UNL    C15   24  -0.478  -0.258   0.032
    1UNL    O10   25  -0.544  -0.351   0.118
    1UNL    C16   26  -0.574  -0.137  -0.005
    1UNL    O11   27  -0.643  -0.157  -0.128
    1UNL    O12   28  -0.097   0.177   0.041
    1UNL    C17   29  -0.039   0.152  -0.079
    1UNL    C18   30   0.089   0.103  -0.094
    1UNL    C19   31   0.137   0.064  -0.229
    1UNL    O13   32   0.078   0.093  -0.332
    1UNL     N1   33   0.254  -0.011  -0.237
    1UNL    C20   34   0.344  -0.004  -0.351
    1UNL    C21   35   0.483  -0.022  -0.292
    1UNL    C22   36   0.472  -0.053  -0.159
    1UNL     N2   37   0.583  -0.081  -0.090
    1UNL    C23   38   0.714  -0.086  -0.146
    1UNL    C24   39   0.817  -0.121  -0.064
    1UNL    C25   40   0.940  -0.149  -0.117
    1UNL    O14   41   1.044  -0.198  -0.034
    1UNL    C26   42   0.952  -0.131  -0.258
    1UNL    C27   43   0.850  -0.081  -0.339
    1UNL    C28   44   0.726  -0.063  -0.285
    1UNL    C29   45   0.609  -0.026  -0.361
    1UNL    O15   46   0.616   0.001  -0.479
    1UNL    C30   47   0.331  -0.057  -0.119
    1UNL    C31   48   0.314   0.037   0.010
    1UNL    C32   49   0.169   0.085   0.030
    1UNL     H1   50  -0.067  -0.296   0.139
    1UNL     H2   51  -0.047  -0.181   0.277
    1UNL     H3   52   0.090  -0.163   0.006
    1UNL     H4   53   0.145   0.006   0.228
    1UNL     H5   54  -0.017   0.187   0.234
    1UNL     H6   55  -0.303   0.056   0.333
    1UNL     H7   56  -0.225   0.445   0.331
    1UNL     H8   57  -0.302   0.338   0.520
    1UNL     H9   58  -0.441   0.434   0.447
    1UNL    H10   59  -0.498   0.237   0.344
    1UNL    H11   60  -0.410   0.482   0.213
    1UNL    H12   61  -0.213   0.361   0.050
    1UNL    H13   62  -0.448   0.299   0.010
    1UNL    H14   63  -0.605   0.176   0.131
    1UNL    H15   64  -0.305   0.115   0.041
    1UNL    H16   65  -0.537   0.074  -0.048
    1UNL    H17   66  -0.189  -0.062   0.013
    1UNL    H18   67  -0.282  -0.287  -0.178
    1UNL    H19   68  -0.139  -0.284  -0.095
    1UNL    H20   69  -0.224  -0.069  -0.280
    1UNL    H21   70  -0.358  -0.148   0.183
    1UNL    H22   71  -0.332  -0.398   0.151
    1UNL    H23   72  -0.468  -0.317  -0.055
    1UNL    H24   73  -0.512  -0.338   0.205
    1UNL    H25   74  -0.654  -0.128   0.085
    1UNL    H26   75  -0.572  -0.174  -0.197
    1UNL    H27   76  -0.102   0.164  -0.162
    1UNL    H28   77   0.324   0.093  -0.388
    1UNL    H29   78   0.319  -0.081  -0.419
    1UNL    H30   79   0.568  -0.104   0.000
    1UNL    H31   80   0.805  -0.102   0.043
    1UNL    H32   81   1.127  -0.188  -0.084
    1UNL    H33   82   1.051  -0.147  -0.305
    1UNL    H34   83   0.868  -0.052  -0.436
    1UNL    H35   84   0.307  -0.159  -0.088
    1UNL    H36   85   0.354  -0.016   0.096
    1UNL    H37   86   0.383   0.119   0.004
    1UNL    H38   87   0.173   0.189   0.066
   0.00000   0.00000   0.00000   0.00000   0.00000   0.00000   0.00000   0.00000   0.00000
Generated with MDTraj, t= 73.0
 87
    1UNL     C1    1  -0.001  -0.218   0.161
    1UNL     C2    2   0.035  -0.118   0.086
    1UNL     C3    3   0.074   0.024   0.132
    1UNL     C4    4  -0.050   0.115   0.149
    1UNL     O1    5  -0.152   0.038   0.208
    1UNL     C5    6  -0.255   0.124   0.248
    1UNL     O2    7  -0.202   0.249   0.311
    1UNL     C6    8  -0.283   0.363   0.333
    1UNL     C7    9  -0.374   0.359   0.460
    1UNL     O3   10  -0.468   0.260   0.443
    1UNL     C8   11  -0.355   0.390   0.197
    1UNL     O4   12  -0.244   0.425   0.105
    1UNL     C9   13  -0.440   0.270   0.129
    1UNL     O5   14  -0.571   0.274   0.183
    1UNL    C10   15  -0.355   0.143   0.133
    1UNL     O6   16  -0.440   0.032   0.137
    1UNL    C11   17  -0.485  -0.009   0.004
    1UNL     O7   18  -0.379  -0.033  -0.083
    1UNL    C12   19  -0.278  -0.137  -0.044
    1UNL    C13   20  -0.217  -0.207  -0.170
    1UNL     O8   21  -0.202  -0.107  -0.273
    1UNL    C14   22  -0.338  -0.232   0.065
    1UNL     O9   23  -0.261  -0.353   0.084
    1UNL    C15   24  -0.485  -0.261   0.029
    1UNL    O10   25  -0.534  -0.352   0.127
    1UNL    C16   26  -0.575  -0.129   0.018
    1UNL    O11   27  -0.665  -0.128  -0.084
    1UNL    O12   28  -0.094   0.165   0.020
    1UNL    C17   29  -0.029   0.146  -0.095
    1UNL    C18   30   0.091   0.089  -0.106
    1UNL    C19   31   0.149   0.056  -0.234
    1UNL    O13   32   0.111   0.111  -0.336
    1UNL     N1   33   0.256  -0.034  -0.232
    1UNL    C20   34   0.345  -0.049  -0.344
    1UNL    C21   35   0.485  -0.076  -0.288
    1UNL    C22   36   0.478  -0.079  -0.151
    1UNL     N2   37   0.585  -0.095  -0.073
    1UNL    C23   38   0.713  -0.095  -0.132
    1UNL    C24   39   0.835  -0.114  -0.057
    1UNL    C25   40   0.961  -0.109  -0.122
    1UNL    O14   41   1.076  -0.135  -0.050
    1UNL    C26   42   0.975  -0.077  -0.257
    1UNL    C27   43   0.859  -0.071  -0.330
    1UNL    C28   44   0.732  -0.066  -0.270
    1UNL    C29   45   0.613  -0.059  -0.355
    1UNL    O15   46   0.618  -0.042  -0.478
    1UNL    C30   47   0.335  -0.070  -0.108
    1UNL    C31   48   0.307   0.015   0.020
    1UNL    C32   49   0.166   0.082   0.020
    1UNL     H1   50  -0.023  -0.322   0.125
    1UNL     H2   51  -0.019  -0.205   0.260
    1UNL     H3   52   0.043  -0.132  -0.018
    1UNL     H4   53   0.133   0.011   0.221
    1UNL     H5   54  -0.024   0.205   0.209
    1UNL     H6   55  -0.303   0.079   0.334
    1UNL     H7   56  -0.219   0.453   0.339
    1UNL     H8   57  -0.306   0.334   0.548
    1UNL     H9   58  -0.426   0.453   0.478
    1UNL    H10   59  -0.509   0.279   0.357
    1UNL    H11   60  -0.411   0.482   0.214
    1UNL    H12   61  -0.201   0.342   0.070
    1UNL    H13   62  -0.451   0.306   0.029
    1UNL    H14   63  -0.616   0.191   0.194
    1UNL    H15   64  -0.300   0.144   0.040
    1UNL    H16   65  -0.544   0.072  -0.044
    1UNL    H17   66  -0.201  -0.074   0.004
    1UNL    H18   67  -0.287  -0.289  -0.195
    1UNL    H19   68  -0.126  -0.258  -0.142
    1UNL    H20   69  -0.283  -0.056  -0.280
    1UNL    H21   70  -0.330  -0.174   0.163
    1UNL    H22   71  -0.317  -0.422   0.123
    1UNL    H23   72  -0.495  -0.309  -0.064
    1UNL    H24   73  -0.594  -0.296   0.182
    1UNL    H25   74  -0.641  -0.133   0.119
    1UNL    H26   75  -0.628  -0.143  -0.173
    1UNL    H27   76  -0.081   0.174  -0.182
    1UNL    H28   77   0.349   0.038  -0.400
    1UNL    H29   78   0.301  -0.128  -0.399
    1UNL    H30   79   0.577  -0.108   0.024
    1UNL    H31   80   0.835  -0.118   0.049
    1UNL    H32   81   1.155  -0.106  -0.105
    1UNL    H33   82   1.073  -0.067  -0.299
    1UNL    H34   83   0.869  -0.049  -0.441
    1UNL    H35   84   0.293  -0.169  -0.085
    1UNL    H36   85   0.313  -0.039   0.115
    1UNL    H37   86   0.385   0.088   0.034
    1UNL    H38   87   0.182   0.190   0.044
   0.00000   0.00000   0.00000   0.00000   0.00000   0.00000   0.00000   0.00000   0.00000
Generated with MDTraj, t= 74.0
 87
    1UNL     C1    1  -0.027  -0.221   0.157
    1UNL     C2    2   0.035  -0.135   0.080
    1UNL     C3    3   0.075   0.009   0.129
    1UNL     C4    4  -0.050   0.106   0.133
    1UNL     O1    5  -0.146   0.048   0.220
    1UNL     C5    6  -0.248   0.137   0.250
    1UNL     O2    7  -0.186   0.264   0.290
    1UNL     C6    8  -0.279   0.373   0.313
    1UNL     C7    9  -0.363   0.358   0.440
    1UNL     O3   10  -0.418   0.230   0.452
    1UNL     C8   11  -0.358   0.403   0.187
    1UNL     O4   12  -0.260   0.439   0.095
    1UNL     C9   13  -0.435   0.270   0.129
    1UNL     O5   14  -0.549   0.258   0.215
    1UNL    C10   15  -0.345   0.142   0.128
    1UNL     O6   16  -0.434   0.035   0.151
    1UNL    C11   17  -0.496  -0.003   0.025
    1UNL     O7   18  -0.401  -0.016  -0.078
    1UNL    C12   19  -0.306  -0.124  -0.058
    1UNL    C13   20  -0.282  -0.188  -0.196
    1UNL     O8   21  -0.207  -0.101  -0.265
    1UNL    C14   22  -0.347  -0.233   0.042
    1UNL     O9   23  -0.267  -0.349   0.031
    1UNL    C15   24  -0.493  -0.264   0.023
    1UNL    O10   25  -0.542  -0.356   0.121
    1UNL    C16   26  -0.583  -0.133   0.033
    1UNL    O11   27  -0.680  -0.128  -0.061
    1UNL    O12   28  -0.104   0.144   0.006
    1UNL    C17   29  -0.017   0.143  -0.098
    1UNL    C18   30   0.103   0.088  -0.100
    1UNL    C19   31   0.166   0.057  -0.222
    1UNL    O13   32   0.139   0.113  -0.325
    1UNL     N1   33   0.267  -0.034  -0.217
    1UNL    C20   34   0.349  -0.063  -0.333
    1UNL    C21   35   0.484  -0.094  -0.281
    1UNL    C22   36   0.480  -0.102  -0.146
    1UNL     N2   37   0.597  -0.115  -0.072
    1UNL    C23   38   0.721  -0.105  -0.131
    1UNL    C24   39   0.840  -0.103  -0.054
    1UNL    C25   40   0.963  -0.071  -0.116
    1UNL    O14   41   1.072  -0.054  -0.034
    1UNL    C26   42   0.961  -0.056  -0.255
    1UNL    C27   43   0.852  -0.068  -0.335
    1UNL    C28   44   0.733  -0.091  -0.272
    1UNL    C29   45   0.609  -0.088  -0.353
    1UNL    O15   46   0.616  -0.081  -0.478
    1UNL    C30   47   0.335  -0.075  -0.093
    1UNL    C31   48   0.319   0.021   0.022
    1UNL    C32   49   0.173   0.076   0.034
    1UNL     H1   50  -0.081  -0.301   0.109
    1UNL     H2   51  -0.049  -0.208   0.261
    1UNL     H3   52   0.031  -0.148  -0.028
    1UNL     H4   53   0.102  -0.002   0.233
    1UNL     H5   54  -0.011   0.199   0.174
    1UNL     H6   55  -0.299   0.115   0.340
    1UNL     H7   56  -0.203   0.456   0.316
    1UNL     H8   57  -0.292   0.373   0.527
    1UNL     H9   58  -0.439   0.436   0.446
    1UNL    H10   59  -0.489   0.223   0.379
    1UNL    H11   60  -0.437   0.479   0.210
    1UNL    H12   61  -0.216   0.355   0.070
    1UNL    H13   62  -0.471   0.281   0.031
    1UNL    H14   63  -0.579   0.163   0.210
    1UNL    H15   64  -0.286   0.125   0.039
    1UNL    H16   65  -0.564   0.078  -0.005
    1UNL    H17   66  -0.219  -0.064  -0.023
    1UNL    H18   67  -0.379  -0.211  -0.244
    1UNL    H19   68  -0.226  -0.280  -0.180
    1UNL    H20   69  -0.255  -0.014  -0.273
    1UNL    H21   70  -0.334  -0.196   0.146
    1UNL    H22   71  -0.285  -0.402  -0.047
    1UNL    H23   72  -0.511  -0.312  -0.069
    1UNL    H24   73  -0.539  -0.323   0.220
    1UNL    H25   74  -0.631  -0.140   0.142
    1UNL    H26   75  -0.642  -0.140  -0.148
    1UNL    H27   76  -0.068   0.175  -0.198
    1UNL    H28   77   0.355   0.022  -0.394
    1UNL    H29   78   0.309  -0.142  -0.391
    1UNL    H30   79   0.596  -0.131   0.035
    1UNL    H31   80   0.830  -0.132   0.050
    1UNL    H32   81   1.152  -0.028  -0.089
    1UNL    H33   82   1.058  -0.029  -0.296
    1UNL    H34   83   0.859  -0.075  -0.438
    1UNL    H35   84   0.306  -0.176  -0.059
    1UNL    H36   85   0.344  -0.031   0.114
    1UNL    H37   86   0.384   0.105   0.018
    1UNL    H38   87   0.178   0.180   0.077
   0.00000   0.00000   0.00000   0.00000   0.00000   0.00000   0.00000   0.00000   0.00000
Generated with MDTraj, t= 75.0
 87
    1UNL     C1    1  -0.049  -0.208   0.132
    1UNL     C2    2   0.046  -0.132   0.083
    1UNL     C3    3   0.090  -0.001   0.131
    1UNL     C4    4  -0.036   0.096   0.148
    1UNL     O1    5  -0.122   0.032   0.240
    1UNL     C5    6  -0.229   0.127   0.255
    1UNL     O2    7  -0.173   0.262   0.255
    1UNL     C6    8  -0.259   0.372   0.287
    1UNL     C7    9  -0.305   0.354   0.432
    1UNL     O3   10  -0.391   0.245   0.456
    1UNL     C8   11  -0.362   0.390   0.180
    1UNL     O4   12  -0.304   0.427   0.059
    1UNL     C9   13  -0.443   0.253   0.159
    1UNL     O5   14  -0.555   0.230   0.240
    1UNL    C10   15  -0.350   0.129   0.143
    1UNL     O6   16  -0.430   0.010   0.153
    1UNL    C11   17  -0.496  -0.000   0.030
    1UNL     O7   18  -0.417  -0.013  -0.087
    1UNL    C12   19  -0.317  -0.106  -0.068
    1UNL    C13   20  -0.274  -0.161  -0.207
    1UNL     O8   21  -0.235  -0.061  -0.286
    1UNL    C14   22  -0.363  -0.226   0.021
    1UNL     O9   23  -0.286  -0.344   0.022
    1UNL    C15   24  -0.510  -0.254   0.016
    1UNL    O10   25  -0.544  -0.346   0.120
    1UNL    C16   26  -0.594  -0.123   0.040
    1UNL    O11   27  -0.707  -0.112  -0.040
    1UNL    O12   28  -0.096   0.147   0.023
    1UNL    C17   29  -0.015   0.137  -0.088
    1UNL    C18   30   0.111   0.087  -0.093
    1UNL    C19   31   0.169   0.048  -0.220
    1UNL    O13   32   0.145   0.112  -0.323
    1UNL     N1   33   0.263  -0.055  -0.220
    1UNL    C20   34   0.352  -0.068  -0.338
    1UNL    C21   35   0.487  -0.095  -0.282
    1UNL    C22   36   0.479  -0.115  -0.148
    1UNL     N2   37   0.591  -0.107  -0.070
    1UNL    C23   38   0.714  -0.081  -0.124
    1UNL    C24   39   0.828  -0.055  -0.045
    1UNL    C25   40   0.953  -0.039  -0.101
    1UNL    O14   41   1.065  -0.005  -0.021
    1UNL    C26   42   0.964  -0.061  -0.242
    1UNL    C27   43   0.856  -0.081  -0.322
    1UNL    C28   44   0.734  -0.094  -0.264
    1UNL    C29   45   0.613  -0.104  -0.350
    1UNL    O15   46   0.629  -0.112  -0.471
    1UNL    C30   47   0.331  -0.105  -0.106
    1UNL    C31   48   0.324  -0.007   0.009
    1UNL    C32   49   0.190   0.066   0.032
    1UNL     H1   50  -0.083  -0.295   0.083
    1UNL     H2   51  -0.107  -0.187   0.227
    1UNL     H3   52   0.096  -0.161  -0.006
    1UNL     H4   53   0.136  -0.022   0.226
    1UNL     H5   54   0.010   0.186   0.189
    1UNL     H6   55  -0.278   0.114   0.349
    1UNL     H7   56  -0.179   0.446   0.262
    1UNL     H8   57  -0.225   0.339   0.510
    1UNL     H9   58  -0.354   0.446   0.460
    1UNL    H10   59  -0.455   0.246   0.383
    1UNL    H11   60  -0.439   0.472   0.201
    1UNL    H12   61  -0.242   0.354   0.031
    1UNL    H13   62  -0.478   0.264   0.058
    1UNL    H14   63  -0.615   0.163   0.194
    1UNL    H15   64  -0.297   0.110   0.053
    1UNL    H16   65  -0.561   0.085   0.022
    1UNL    H17   66  -0.231  -0.046  -0.027
    1UNL    H18   67  -0.357  -0.212  -0.261
    1UNL    H19   68  -0.189  -0.230  -0.192
    1UNL    H20   69  -0.312   0.001  -0.305
    1UNL    H21   70  -0.346  -0.190   0.122
    1UNL    H22   71  -0.328  -0.418  -0.034
    1UNL    H23   72  -0.534  -0.280  -0.085
    1UNL    H24   73  -0.537  -0.301   0.213
    1UNL    H25   74  -0.638  -0.110   0.147
    1UNL    H26   75  -0.688  -0.118  -0.133
    1UNL    H27   76  -0.063   0.156  -0.180
    1UNL    H28   77   0.348   0.013  -0.406
    1UNL    H29   78   0.319  -0.152  -0.397
    1UNL    H30   79   0.577  -0.097   0.038
    1UNL    H31   80   0.817  -0.063   0.062
    1UNL    H32   81   1.145  -0.019  -0.080
    1UNL    H33   82   1.064  -0.068  -0.285
    1UNL    H34   83   0.853  -0.095  -0.434
    1UNL    H35   84   0.288  -0.205  -0.089
    1UNL    H36   85   0.360  -0.058   0.099
    1UNL    H37   86   0.401   0.062  -0.018
    1UNL    H38   87   0.209   0.167   0.077
   0.00000   0.00000   0.00000   0.00000   0.00000   0.00000   0.00000   0.00000   0.00000
Generated with MDTraj, t= 76.0
 87
    1UNL     C1    1  -0.048  -0.236   0.136
    1UNL     C2    2   0.009  -0.144   0.061
    1UNL     C3    3   0.062  -0.015   0.111
    1UNL     C4    4  -0.050   0.094   0.132
    1UNL     O1    5  -0.146   0.040   0.215
    1UNL     C5    6  -0.232   0.139   0.254
    1UNL     O2    7  -0.170   0.268   0.278
    1UNL     C6    8  -0.255   0.378   0.293
    1UNL     C7    9  -0.311   0.401   0.438
    1UNL     O3   10  -0.364   0.292   0.503
    1UNL     C8   11  -0.359   0.388   0.177
    1UNL     O4   12  -0.293   0.433   0.063
    1UNL     C9   13  -0.448   0.257   0.171
    1UNL     O5   14  -0.524   0.227   0.285
    1UNL    C10   15  -0.354   0.138   0.148
    1UNL     O6   16  -0.420   0.016   0.156
    1UNL    C11   17  -0.501   0.001   0.040
    1UNL     O7   18  -0.427  -0.012  -0.083
    1UNL    C12   19  -0.330  -0.116  -0.073
    1UNL    C13   20  -0.286  -0.155  -0.215
    1UNL     O8   21  -0.272  -0.031  -0.294
    1UNL    C14   22  -0.361  -0.243   0.022
    1UNL     O9   23  -0.300  -0.368  -0.008
    1UNL    C15   24  -0.510  -0.259   0.015
    1UNL    O10   25  -0.549  -0.375   0.096
    1UNL    C16   26  -0.591  -0.125   0.052
    1UNL    O11   27  -0.698  -0.112  -0.034
    1UNL    O12   28  -0.092   0.151   0.009
    1UNL    C17   29  -0.017   0.133  -0.105
    1UNL    C18   30   0.111   0.083  -0.112
    1UNL    C19   31   0.173   0.035  -0.234
    1UNL    O13   32   0.141   0.083  -0.342
    1UNL     N1   33   0.277  -0.061  -0.224
    1UNL    C20   34   0.366  -0.101  -0.340
    1UNL    C21   35   0.503  -0.116  -0.282
    1UNL    C22   36   0.490  -0.108  -0.145
    1UNL     N2   37   0.593  -0.086  -0.061
    1UNL    C23   38   0.722  -0.083  -0.121
    1UNL    C24   39   0.832  -0.052  -0.039
    1UNL    C25   40   0.955  -0.029  -0.097
    1UNL    O14   41   1.058   0.009  -0.011
    1UNL    C26   42   0.982  -0.038  -0.235
    1UNL    C27   43   0.873  -0.070  -0.314
    1UNL    C28   44   0.745  -0.094  -0.260
    1UNL    C29   45   0.628  -0.111  -0.346
    1UNL    O15   46   0.628  -0.114  -0.467
    1UNL    C30   47   0.346  -0.102  -0.103
    1UNL    C31   48   0.317  -0.016   0.018
    1UNL    C32   49   0.174   0.051   0.015
    1UNL     H1   50  -0.065  -0.332   0.107
    1UNL     H2   51  -0.063  -0.224   0.241
    1UNL     H3   52   0.036  -0.174  -0.038
    1UNL     H4   53   0.102  -0.033   0.209
    1UNL     H5   54   0.003   0.175   0.186
    1UNL     H6   55  -0.267   0.116   0.351
    1UNL     H7   56  -0.178   0.456   0.271
    1UNL     H8   57  -0.222   0.423   0.503
    1UNL     H9   58  -0.373   0.487   0.456
    1UNL    H10   59  -0.419   0.245   0.436
    1UNL    H11   60  -0.431   0.471   0.208
    1UNL    H12   61  -0.219   0.367   0.049
    1UNL    H13   62  -0.510   0.280   0.082
    1UNL    H14   63  -0.588   0.163   0.265
    1UNL    H15   64  -0.307   0.141   0.053
    1UNL    H16   65  -0.568   0.084   0.035
    1UNL    H17   66  -0.244  -0.064  -0.023
    1UNL    H18   67  -0.362  -0.223  -0.259
    1UNL    H19   68  -0.187  -0.203  -0.216
    1UNL    H20   69  -0.359   0.007  -0.303
    1UNL    H21   70  -0.330  -0.229   0.123
    1UNL    H22   71  -0.350  -0.403  -0.089
    1UNL    H23   72  -0.538  -0.293  -0.086
    1UNL    H24   73  -0.549  -0.467   0.060
    1UNL    H25   74  -0.627  -0.142   0.157
    1UNL    H26   75  -0.670  -0.089  -0.125
    1UNL    H27   76  -0.076   0.144  -0.191
    1UNL    H28   77   0.356  -0.033  -0.422
    1UNL    H29   78   0.337  -0.197  -0.380
    1UNL    H30   79   0.582  -0.072   0.039
    1UNL    H31   80   0.824  -0.025   0.064
    1UNL    H32   81   1.147   0.022  -0.052
    1UNL    H33   82   1.078  -0.018  -0.277
    1UNL    H34   83   0.884  -0.060  -0.419
    1UNL    H35   84   0.311  -0.207  -0.092
    1UNL    H36   85   0.334  -0.080   0.106
    1UNL    H37   86   0.397   0.054   0.012
    1UNL    H38   87   0.189   0.153   0.061
   0.00000   0.00000   0.00000   0.00000   0.00000   0.00000   0.00000   0.00000   0.00000
Generated with MDTraj, t= 77.0
 87
    1UNL     C1    1  -0.036  -0.232   0.130
    1UNL     C2    2   0.032  -0.147   0.055
    1UNL     C3    3   0.060  -0.011   0.112
    1UNL     C4    4  -0.062   0.087   0.119
    1UNL     O1    5  -0.151   0.040   0.219
    1UNL     C5    6  -0.238   0.144   0.257
    1UNL     O2    7  -0.164   0.266   0.255
    1UNL     C6    8  -0.234   0.378   0.290
    1UNL     C7    9  -0.261   0.396   0.444
    1UNL     O3   10  -0.344   0.306   0.500
    1UNL     C8   11  -0.362   0.400   0.188
    1UNL     O4   12  -0.294   0.418   0.064
    1UNL     C9   13  -0.452   0.269   0.183
    1UNL     O5   14  -0.538   0.254   0.291
    1UNL    C10   15  -0.361   0.149   0.153
    1UNL     O6   16  -0.445   0.033   0.168
    1UNL    C11   17  -0.508  -0.004   0.046
    1UNL     O7   18  -0.420  -0.004  -0.066
    1UNL    C12   19  -0.315  -0.109  -0.077
    1UNL    C13   20  -0.305  -0.144  -0.226
    1UNL     O8   21  -0.269  -0.020  -0.301
    1UNL    C14   22  -0.354  -0.242   0.006
    1UNL     O9   23  -0.294  -0.354  -0.045
    1UNL    C15   24  -0.509  -0.259   0.006
    1UNL    O10   25  -0.545  -0.384   0.060
    1UNL    C16   26  -0.582  -0.136   0.068
    1UNL    O11   27  -0.707  -0.125   0.011
    1UNL    O12   28  -0.113   0.119  -0.016
    1UNL    C17   29  -0.029   0.083  -0.117
    1UNL    C18   30   0.105   0.061  -0.122
    1UNL    C19   31   0.166   0.008  -0.244
    1UNL    O13   32   0.116   0.038  -0.352
    1UNL     N1   33   0.277  -0.077  -0.233
    1UNL    C20   34   0.375  -0.097  -0.340
    1UNL    C21   35   0.506  -0.105  -0.271
    1UNL    C22   36   0.492  -0.106  -0.137
    1UNL     N2   37   0.604  -0.100  -0.052
    1UNL    C23   38   0.731  -0.081  -0.109
    1UNL    C24   39   0.840  -0.055  -0.031
    1UNL    C25   40   0.964  -0.026  -0.086
    1UNL    O14   41   1.072  -0.004  -0.007
    1UNL    C26   42   0.970  -0.023  -0.226
    1UNL    C27   43   0.862  -0.048  -0.311
    1UNL    C28   44   0.740  -0.070  -0.251
    1UNL    C29   45   0.629  -0.090  -0.336
    1UNL    O15   46   0.634  -0.100  -0.456
    1UNL    C30   47   0.343  -0.103  -0.096
    1UNL    C31   48   0.307  -0.008   0.015
    1UNL    C32   49   0.162   0.055   0.014
    1UNL     H1   50  -0.094  -0.322   0.091
    1UNL     H2   51  -0.053  -0.219   0.237
    1UNL     H3   52   0.045  -0.168  -0.052
    1UNL     H4   53   0.090  -0.015   0.214
    1UNL     H5   54  -0.015   0.180   0.162
    1UNL     H6   55  -0.261   0.124   0.359
    1UNL     H7   56  -0.172   0.467   0.269
    1UNL     H8   57  -0.168   0.407   0.504
    1UNL     H9   58  -0.304   0.493   0.457
    1UNL    H10   59  -0.422   0.272   0.441
    1UNL    H11   60  -0.418   0.492   0.228
    1UNL    H12   61  -0.215   0.359   0.061
    1UNL    H13   62  -0.509   0.302   0.089
    1UNL    H14   63  -0.588   0.170   0.284
    1UNL    H15   64  -0.318   0.159   0.058
    1UNL    H16   65  -0.588   0.062   0.028
    1UNL    H17   66  -0.221  -0.068  -0.035
    1UNL    H18   67  -0.401  -0.174  -0.268
    1UNL    H19   68  -0.232  -0.225  -0.242
    1UNL    H20   69  -0.351   0.037  -0.297
    1UNL    H21   70  -0.313  -0.235   0.103
    1UNL    H22   71  -0.343  -0.428  -0.003
    1UNL    H23   72  -0.544  -0.264  -0.100
    1UNL    H24   73  -0.633  -0.380   0.091
    1UNL    H25   74  -0.606  -0.153   0.173
    1UNL    H26   75  -0.707  -0.095  -0.085
    1UNL    H27   76  -0.096   0.048  -0.207
    1UNL    H28   77   0.372  -0.010  -0.406
    1UNL    H29   78   0.360  -0.184  -0.406
    1UNL    H30   79   0.595  -0.109   0.042
    1UNL    H31   80   0.820  -0.035   0.074
    1UNL    H32   81   1.150   0.022  -0.059
    1UNL    H33   82   1.059   0.009  -0.282
    1UNL    H34   83   0.875  -0.042  -0.418
    1UNL    H35   84   0.315  -0.207  -0.072
    1UNL    H36   85   0.325  -0.061   0.110
    1UNL    H37   86   0.372   0.077  -0.001
    1UNL    H38   87   0.175   0.160   0.049
   0.00000   0.00000   0.00000   0.00000   0.00000   0.00000   0.00000   0.00000   0.00000
Generated with MDTraj, t= 78.0
 87
    1UNL     C1    1  -0.053  -0.233   0.153
    1UNL     C2    2   0.036  -0.162   0.086
    1UNL     C3    3   0.067  -0.021   0.111
    1UNL     C4    4  -0.059   0.062   0.120
    1UNL     O1    5  -0.143   0.022   0.231
    1UNL     C5    6  -0.224   0.139   0.255
    1UNL     O2    7  -0.152   0.259   0.233
    1UNL     C6    8  -0.217   0.380   0.274
    1UNL     C7    9  -0.253   0.389   0.426
    1UNL     O3   10  -0.316   0.272   0.467
    1UNL     C8   11  -0.352   0.401   0.188
    1UNL     O4   12  -0.318   0.455   0.057
    1UNL     C9   13  -0.429   0.261   0.166
    1UNL     O5   14  -0.527   0.245   0.261
    1UNL    C10   15  -0.341   0.141   0.145
    1UNL     O6   16  -0.427   0.022   0.162
    1UNL    C11   17  -0.518  -0.000   0.053
    1UNL     O7   18  -0.451  -0.008  -0.072
    1UNL    C12   19  -0.331  -0.085  -0.071
    1UNL    C13   20  -0.288  -0.110  -0.214
    1UNL     O8   21  -0.286   0.013  -0.279
    1UNL    C14   22  -0.359  -0.217   0.010
    1UNL     O9   23  -0.279  -0.321  -0.033
    1UNL    C15   24  -0.514  -0.254   0.005
    1UNL    O10   25  -0.553  -0.387   0.037
    1UNL    C16   26  -0.591  -0.138   0.084
    1UNL    O11   27  -0.725  -0.129   0.062
    1UNL    O12   28  -0.115   0.083  -0.018
    1UNL    C17   29  -0.038   0.064  -0.128
    1UNL    C18   30   0.093   0.036  -0.130
    1UNL    C19   31   0.154  -0.025  -0.250
    1UNL    O13   32   0.101   0.010  -0.357
    1UNL     N1   33   0.273  -0.098  -0.232
    1UNL    C20   34   0.370  -0.102  -0.340
    1UNL    C21   35   0.500  -0.082  -0.276
    1UNL    C22   36   0.488  -0.089  -0.141
    1UNL     N2   37   0.594  -0.091  -0.053
    1UNL    C23   38   0.720  -0.063  -0.105
    1UNL    C24   39   0.833  -0.052  -0.027
    1UNL    C25   40   0.963  -0.040  -0.074
    1UNL    O14   41   1.072  -0.023   0.015
    1UNL    C26   42   0.983  -0.028  -0.213
    1UNL    C27   43   0.871  -0.038  -0.297
    1UNL    C28   44   0.739  -0.051  -0.244
    1UNL    C29   45   0.628  -0.064  -0.337
    1UNL    O15   46   0.640  -0.059  -0.458
    1UNL    C30   47   0.347  -0.099  -0.099
    1UNL    C31   48   0.311   0.012  -0.004
    1UNL    C32   49   0.161   0.052  -0.002
    1UNL     H1   50  -0.061  -0.338   0.142
    1UNL     H2   51  -0.121  -0.186   0.209
    1UNL     H3   52   0.104  -0.218   0.025
    1UNL     H4   53   0.125  -0.022   0.199
    1UNL     H5   54  -0.013   0.163   0.141
    1UNL     H6   55  -0.264   0.117   0.351
    1UNL     H7   56  -0.161   0.466   0.234
    1UNL     H8   57  -0.158   0.400   0.482
    1UNL     H9   58  -0.311   0.473   0.460
    1UNL    H10   59  -0.389   0.255   0.409
    1UNL    H11   60  -0.425   0.468   0.243
    1UNL    H12   61  -0.268   0.396  -0.000
    1UNL    H13   62  -0.483   0.271   0.065
    1UNL    H14   63  -0.552   0.147   0.269
    1UNL    H15   64  -0.307   0.131   0.048
    1UNL    H16   65  -0.589   0.077   0.055
    1UNL    H17   66  -0.257  -0.022  -0.018
    1UNL    H18   67  -0.350  -0.189  -0.258
    1UNL    H19   68  -0.182  -0.142  -0.214
    1UNL    H20   69  -0.379   0.044  -0.280
    1UNL    H21   70  -0.330  -0.200   0.111
    1UNL    H22   71  -0.339  -0.394  -0.053
    1UNL    H23   72  -0.544  -0.233  -0.102
    1UNL    H24   73  -0.583  -0.382   0.129
    1UNL    H25   74  -0.579  -0.154   0.187
    1UNL    H26   75  -0.732  -0.084  -0.029
    1UNL    H27   76  -0.092   0.062  -0.219
    1UNL    H28   77   0.361  -0.026  -0.423
    1UNL    H29   78   0.359  -0.202  -0.387
    1UNL    H30   79   0.574  -0.098   0.044
    1UNL    H31   80   0.827  -0.072   0.077
    1UNL    H32   81   1.151  -0.005  -0.036
    1UNL    H33   82   1.079  -0.016  -0.254
    1UNL    H34   83   0.883  -0.042  -0.408
    1UNL    H35   84   0.333  -0.203  -0.064
    1UNL    H36   85   0.331  -0.017   0.100
    1UNL    H37   86   0.369   0.099  -0.034
    1UNL    H38   87   0.166   0.159   0.021
   0.00000   0.00000   0.00000   0.00000   0.00000   0.00000   0.00000   0.00000   0.00000
Generated with MDTraj, t= 79.0
 87
    1UNL     C1    1  -0.047  -0.229   0.166
    1UNL     C2    2   0.041  -0.164   0.093
    1UNL     C3    3   0.074  -0.017   0.108
    1UNL     C4    4  -0.046   0.084   0.101
    1UNL     O1    5  -0.139   0.050   0.199
    1UNL     C5    6  -0.227   0.161   0.236
    1UNL     O2    7  -0.163   0.288   0.230
    1UNL     C6    8  -0.241   0.393   0.280
    1UNL     C7    9  -0.268   0.383   0.428
    1UNL     O3   10  -0.347   0.276   0.473
    1UNL     C8   11  -0.363   0.411   0.188
    1UNL     O4   12  -0.323   0.448   0.057
    1UNL     C9   13  -0.442   0.267   0.178
    1UNL     O5   14  -0.525   0.247   0.288
    1UNL    C10   15  -0.354   0.145   0.156
    1UNL     O6   16  -0.426   0.022   0.186
    1UNL    C11   17  -0.513   0.002   0.077
    1UNL     O7   18  -0.448   0.002  -0.054
    1UNL    C12   19  -0.350  -0.106  -0.079
    1UNL    C13   20  -0.338  -0.110  -0.233
    1UNL     O8   21  -0.306   0.012  -0.277
    1UNL    C14   22  -0.372  -0.235  -0.006
    1UNL     O9   23  -0.312  -0.340  -0.073
    1UNL    C15   24  -0.523  -0.261   0.020
    1UNL    O10   25  -0.544  -0.388   0.077
    1UNL    C16   26  -0.589  -0.136   0.096
    1UNL    O11   27  -0.728  -0.127   0.073
    1UNL    O12   28  -0.105   0.097  -0.025
    1UNL    C17   29  -0.028   0.068  -0.137
    1UNL    C18   30   0.102   0.029  -0.134
    1UNL    C19   31   0.154  -0.037  -0.254
    1UNL    O13   32   0.096  -0.030  -0.362
    1UNL     N1   33   0.280  -0.090  -0.249
    1UNL    C20   34   0.388  -0.082  -0.355
    1UNL    C21   35   0.523  -0.084  -0.288
    1UNL    C22   36   0.505  -0.102  -0.154
    1UNL     N2   37   0.606  -0.089  -0.066
    1UNL    C23   38   0.735  -0.059  -0.111
    1UNL    C24   39   0.838  -0.053  -0.019
    1UNL    C25   40   0.967  -0.038  -0.064
    1UNL    O14   41   1.072  -0.050   0.030
    1UNL    C26   42   0.994  -0.028  -0.203
    1UNL    C27   43   0.893  -0.026  -0.292
    1UNL    C28   44   0.765  -0.051  -0.247
    1UNL    C29   45   0.654  -0.052  -0.343
    1UNL    O15   46   0.659  -0.023  -0.459
    1UNL    C30   47   0.356  -0.121  -0.124
    1UNL    C31   48   0.316  -0.040   0.003
    1UNL    C32   49   0.177   0.033   0.001
    1UNL     H1   50  -0.077  -0.335   0.150
    1UNL     H2   51  -0.105  -0.162   0.237
    1UNL     H3   52   0.087  -0.222   0.012
    1UNL     H4   53   0.106  -0.016   0.210
    1UNL     H5   54  -0.003   0.184   0.125
    1UNL     H6   55  -0.240   0.145   0.340
    1UNL     H7   56  -0.186   0.485   0.252
    1UNL     H8   57  -0.170   0.373   0.480
    1UNL     H9   58  -0.309   0.476   0.466
    1UNL    H10   59  -0.426   0.280   0.410
    1UNL    H11   60  -0.441   0.476   0.232
    1UNL    H12   61  -0.280   0.375   0.007
    1UNL    H13   62  -0.515   0.268   0.091
    1UNL    H14   63  -0.565   0.161   0.281
    1UNL    H15   64  -0.317   0.136   0.058
    1UNL    H16   65  -0.584   0.079   0.073
    1UNL    H17   66  -0.256  -0.058  -0.040
    1UNL    H18   67  -0.435  -0.132  -0.275
    1UNL    H19   68  -0.259  -0.179  -0.270
    1UNL    H20   69  -0.376   0.079  -0.258
    1UNL    H21   70  -0.326  -0.233   0.092
    1UNL    H22   71  -0.375  -0.421  -0.067
    1UNL    H23   72  -0.576  -0.270  -0.082
    1UNL    H24   73  -0.645  -0.402   0.086
    1UNL    H25   74  -0.584  -0.164   0.194
    1UNL    H26   75  -0.753  -0.115  -0.023
    1UNL    H27   76  -0.082   0.062  -0.226
    1UNL    H28   77   0.367   0.013  -0.413
    1UNL    H29   78   0.373  -0.168  -0.426
    1UNL    H30   79   0.583  -0.101   0.038
    1UNL    H31   80   0.821  -0.081   0.085
    1UNL    H32   81   1.158  -0.044  -0.010
    1UNL    H33   82   1.100  -0.031  -0.231
    1UNL    H34   83   0.918  -0.027  -0.391
    1UNL    H35   84   0.347  -0.231  -0.112
    1UNL    H36   85   0.327  -0.107   0.089
    1UNL    H37   86   0.392   0.037   0.015
    1UNL    H38   87   0.186   0.139   0.027
   0.00000   0.00000   0.00000   0.00000   0.00000   0.00000   0.00000   0.00000   0.00000
Generated with MDTraj, t= 80.0
 87
    1UNL     C1    1  -0.061  -0.206   0.189
    1UNL     C2    2   0.015  -0.149   0.091
    1UNL     C3    3   0.078  -0.003   0.103
    1UNL     C4    4  -0.046   0.093   0.093
    1UNL     O1    5  -0.123   0.057   0.210
    1UNL     C5    6  -0.224   0.161   0.235
    1UNL     O2    7  -0.167   0.293   0.249
    1UNL     C6    8  -0.260   0.395   0.279
    1UNL     C7    9  -0.278   0.405   0.433
    1UNL     O3   10  -0.338   0.290   0.482
    1UNL     C8   11  -0.380   0.401   0.187
    1UNL     O4   12  -0.340   0.447   0.059
    1UNL     C9   13  -0.455   0.261   0.180
    1UNL     O5   14  -0.528   0.232   0.296
    1UNL    C10   15  -0.353   0.145   0.150
    1UNL     O6   16  -0.421   0.023   0.179
    1UNL    C11   17  -0.514  -0.006   0.080
    1UNL     O7   18  -0.460   0.001  -0.058
    1UNL    C12   19  -0.357  -0.102  -0.084
    1UNL    C13   20  -0.350  -0.127  -0.236
    1UNL     O8   21  -0.320  -0.006  -0.298
    1UNL    C14   22  -0.385  -0.230  -0.010
    1UNL     O9   23  -0.343  -0.347  -0.090
    1UNL    C15   24  -0.542  -0.252   0.023
    1UNL    O10   25  -0.547  -0.379   0.092
    1UNL    C16   26  -0.593  -0.136   0.117
    1UNL    O11   27  -0.739  -0.129   0.107
    1UNL    O12   28  -0.105   0.092  -0.039
    1UNL    C17   29  -0.034   0.043  -0.149
    1UNL    C18   30   0.095   0.006  -0.143
    1UNL    C19   31   0.165  -0.031  -0.263
    1UNL    O13   32   0.124  -0.007  -0.376
    1UNL     N1   33   0.296  -0.080  -0.255
    1UNL    C20   34   0.405  -0.054  -0.358
    1UNL    C21   35   0.530  -0.061  -0.281
    1UNL    C22   36   0.511  -0.105  -0.157
    1UNL     N2   37   0.619  -0.111  -0.072
    1UNL    C23   38   0.751  -0.095  -0.115
    1UNL    C24   39   0.863  -0.102  -0.027
    1UNL    C25   40   0.990  -0.053  -0.062
    1UNL    O14   41   1.089  -0.051   0.032
    1UNL    C26   42   1.002  -0.009  -0.196
    1UNL    C27   43   0.900  -0.008  -0.286
    1UNL    C28   44   0.775  -0.053  -0.247
    1UNL    C29   45   0.664  -0.043  -0.337
    1UNL    O15   46   0.684  -0.013  -0.453
    1UNL    C30   47   0.367  -0.129  -0.130
    1UNL    C31   48   0.306  -0.055  -0.003
    1UNL    C32   49   0.171   0.025  -0.016
    1UNL     H1   50  -0.119  -0.282   0.164
    1UNL     H2   51  -0.071  -0.156   0.284
    1UNL     H3   52   0.001  -0.187  -0.008
    1UNL     H4   53   0.120   0.002   0.201
    1UNL     H5   54  -0.006   0.194   0.109
    1UNL     H6   55  -0.266   0.151   0.334
    1UNL     H7   56  -0.197   0.481   0.248
    1UNL     H8   57  -0.172   0.409   0.470
    1UNL     H9   58  -0.329   0.499   0.459
    1UNL    H10   59  -0.414   0.267   0.426
    1UNL    H11   60  -0.448   0.482   0.216
    1UNL    H12   61  -0.301   0.374   0.003
    1UNL    H13   62  -0.525   0.273   0.097
    1UNL    H14   63  -0.565   0.134   0.293
    1UNL    H15   64  -0.318   0.152   0.050
    1UNL    H16   65  -0.574   0.081   0.081
    1UNL    H17   66  -0.267  -0.049  -0.050
    1UNL    H18   67  -0.443  -0.163  -0.276
    1UNL    H19   68  -0.268  -0.200  -0.253
    1UNL    H20   69  -0.394   0.062  -0.303
    1UNL    H21   70  -0.326  -0.240   0.084
    1UNL    H22   71  -0.419  -0.409  -0.094
    1UNL    H23   72  -0.596  -0.267  -0.077
    1UNL    H24   73  -0.527  -0.371   0.194
    1UNL    H25   74  -0.569  -0.157   0.213
    1UNL    H26   75  -0.779  -0.153   0.023
    1UNL    H27   76  -0.092   0.012  -0.246
    1UNL    H28   77   0.384   0.050  -0.404
    1UNL    H29   78   0.405  -0.136  -0.437
    1UNL    H30   79   0.602  -0.143   0.031
    1UNL    H31   80   0.837  -0.123   0.074
    1UNL    H32   81   1.167  -0.023  -0.017
    1UNL    H33   82   1.097   0.022  -0.233
    1UNL    H34   83   0.899   0.050  -0.385
    1UNL    H35   84   0.352  -0.238  -0.130
    1UNL    H36   85   0.296  -0.128   0.078
    1UNL    H37   86   0.387   0.007   0.036
    1UNL    H38   87   0.189   0.131  -0.020
   0.00000   0.00000   0.00000   0.00000   0.00000   0.00000   0.00000   0.00000   0.00000
Generated with MDTraj, t= 81.0
 87
    1UNL     C1    1  -0.039  -0.225   0.193
    1UNL     C2    2   0.050  -0.162   0.114
    1UNL     C3    3   0.076  -0.015   0.108
    1UNL     C4    4  -0.048   0.081   0.093
    1UNL     O1    5  -0.135   0.058   0.202
    1UNL     C5    6  -0.228   0.165   0.221
    1UNL     O2    7  -0.164   0.289   0.217
    1UNL     C6    8  -0.251   0.397   0.258
    1UNL     C7    9  -0.253   0.406   0.416
    1UNL     O3   10  -0.316   0.289   0.463
    1UNL     C8   11  -0.389   0.401   0.183
    1UNL     O4   12  -0.371   0.464   0.064
    1UNL     C9   13  -0.454   0.263   0.165
    1UNL     O5   14  -0.523   0.218   0.277
    1UNL    C10   15  -0.344   0.157   0.127
    1UNL     O6   16  -0.396   0.024   0.142
    1UNL    C11   17  -0.513  -0.011   0.071
    1UNL     O7   18  -0.487  -0.027  -0.067
    1UNL    C12   19  -0.372  -0.110  -0.084
    1UNL    C13   20  -0.351  -0.121  -0.232
    1UNL     O8   21  -0.338   0.012  -0.288
    1UNL    C14   22  -0.390  -0.239  -0.005
    1UNL     O9   23  -0.333  -0.359  -0.062
    1UNL    C15   24  -0.538  -0.253   0.033
    1UNL    O10   25  -0.565  -0.373   0.099
    1UNL    C16   26  -0.579  -0.140   0.129
    1UNL    O11   27  -0.724  -0.113   0.141
    1UNL    O12   28  -0.116   0.040  -0.028
    1UNL    C17   29  -0.035   0.027  -0.139
    1UNL    C18   30   0.102   0.022  -0.137
    1UNL    C19   31   0.176   0.001  -0.262
    1UNL    O13   32   0.126   0.041  -0.368
    1UNL     N1   33   0.300  -0.059  -0.255
    1UNL    C20   34   0.396  -0.038  -0.357
    1UNL    C21   35   0.527  -0.063  -0.287
    1UNL    C22   36   0.505  -0.105  -0.161
    1UNL     N2   37   0.605  -0.131  -0.076
    1UNL    C23   38   0.737  -0.092  -0.112
    1UNL    C24   39   0.851  -0.104  -0.029
    1UNL    C25   40   0.985  -0.067  -0.062
    1UNL    O14   41   1.084  -0.082   0.033
    1UNL    C26   42   1.005  -0.020  -0.190
    1UNL    C27   43   0.898  -0.008  -0.274
    1UNL    C28   44   0.767  -0.036  -0.235
    1UNL    C29   45   0.659  -0.021  -0.333
    1UNL    O15   46   0.684   0.018  -0.445
    1UNL    C30   47   0.359  -0.118  -0.136
    1UNL    C31   48   0.321  -0.057  -0.000
    1UNL    C32   49   0.178   0.017  -0.003
    1UNL     H1   50  -0.041  -0.335   0.196
    1UNL     H2   51  -0.110  -0.163   0.257
    1UNL     H3   52   0.128  -0.221   0.067
    1UNL     H4   53   0.109   0.003   0.208
    1UNL     H5   54  -0.019   0.186   0.093
    1UNL     H6   55  -0.272   0.156   0.320
    1UNL     H7   56  -0.186   0.482   0.234
    1UNL     H8   57  -0.148   0.408   0.449
    1UNL     H9   58  -0.301   0.503   0.443
    1UNL    H10   59  -0.397   0.273   0.411
    1UNL    H11   60  -0.446   0.468   0.242
    1UNL    H12   61  -0.315   0.399   0.011
    1UNL    H13   62  -0.517   0.260   0.081
    1UNL    H14   63  -0.524   0.124   0.276
    1UNL    H15   64  -0.311   0.173   0.025
    1UNL    H16   65  -0.579   0.071   0.086
    1UNL    H17   66  -0.293  -0.052  -0.038
    1UNL    H18   67  -0.441  -0.169  -0.267
    1UNL    H19   68  -0.263  -0.183  -0.261
    1UNL    H20   69  -0.424   0.057  -0.279
    1UNL    H21   70  -0.330  -0.232   0.092
    1UNL    H22   71  -0.404  -0.415  -0.091
    1UNL    H23   72  -0.602  -0.242  -0.061
    1UNL    H24   73  -0.664  -0.388   0.097
    1UNL    H25   74  -0.550  -0.152   0.224
    1UNL    H26   75  -0.770  -0.130   0.058
    1UNL    H27   76  -0.078   0.040  -0.237
    1UNL    H28   77   0.388   0.072  -0.393
    1UNL    H29   78   0.374  -0.117  -0.437
    1UNL    H30   79   0.588  -0.154   0.022
    1UNL    H31   80   0.834  -0.127   0.075
    1UNL    H32   81   1.174  -0.065  -0.004
    1UNL    H33   82   1.105   0.020  -0.208
    1UNL    H34   83   0.908   0.028  -0.369
    1UNL    H35   84   0.329  -0.224  -0.140
    1UNL    H36   85   0.327  -0.127   0.084
    1UNL    H37   86   0.400   0.012   0.033
    1UNL    H38   87   0.201   0.121   0.007
   0.00000   0.00000   0.00000   0.00000   0.00000   0.00000   0.00000   0.00000   0.00000
Generated with MDTraj, t= 82.0
 87
    1UNL     C1    1  -0.034  -0.231   0.181
    1UNL     C2    2   0.058  -0.169   0.106
    1UNL     C3    3   0.080  -0.022   0.110
    1UNL     C4    4  -0.046   0.061   0.105
    1UNL     O1    5  -0.129   0.052   0.218
    1UNL     C5    6  -0.222   0.156   0.221
    1UNL     O2    7  -0.159   0.287   0.185
    1UNL     C6    8  -0.228   0.398   0.239
    1UNL     C7    9  -0.221   0.407   0.392
    1UNL     O3   10  -0.303   0.309   0.443
    1UNL     C8   11  -0.373   0.402   0.168
    1UNL     O4   12  -0.369   0.471   0.043
    1UNL     C9   13  -0.448   0.261   0.164
    1UNL     O5   14  -0.533   0.252   0.284
    1UNL    C10   15  -0.349   0.137   0.137
    1UNL     O6   16  -0.414   0.020   0.183
    1UNL    C11   17  -0.516  -0.011   0.092
    1UNL     O7   18  -0.474  -0.018  -0.040
    1UNL    C12   19  -0.371  -0.114  -0.071
    1UNL    C13   20  -0.360  -0.137  -0.223
    1UNL     O8   21  -0.332  -0.025  -0.307
    1UNL    C14   22  -0.390  -0.255  -0.002
    1UNL     O9   23  -0.352  -0.363  -0.094
    1UNL    C15   24  -0.535  -0.261   0.039
    1UNL    O10   25  -0.564  -0.387   0.094
    1UNL    C16   26  -0.584  -0.146   0.132
    1UNL    O11   27  -0.730  -0.128   0.134
    1UNL    O12   28  -0.116   0.023  -0.023
    1UNL    C17   29  -0.031   0.019  -0.129
    1UNL    C18   30   0.102   0.018  -0.131
    1UNL    C19   31   0.170   0.023  -0.259
    1UNL    O13   32   0.134   0.083  -0.360
    1UNL     N1   33   0.286  -0.049  -0.262
    1UNL    C20   34   0.392  -0.015  -0.360
    1UNL    C21   35   0.524  -0.036  -0.288
    1UNL    C22   36   0.505  -0.094  -0.167
    1UNL     N2   37   0.608  -0.112  -0.083
    1UNL    C23   38   0.739  -0.085  -0.110
    1UNL    C24   39   0.834  -0.113  -0.015
    1UNL    C25   40   0.967  -0.094  -0.053
    1UNL    O14   41   1.064  -0.125   0.045
    1UNL    C26   42   0.996  -0.039  -0.181
    1UNL    C27   43   0.901  -0.011  -0.272
    1UNL    C28   44   0.767  -0.029  -0.234
    1UNL    C29   45   0.656   0.000  -0.330
    1UNL    O15   46   0.680   0.042  -0.440
    1UNL    C30   47   0.355  -0.100  -0.136
    1UNL    C31   48   0.315  -0.024  -0.009
    1UNL    C32   49   0.174   0.033  -0.000
    1UNL     H1   50  -0.050  -0.338   0.180
    1UNL     H2   51  -0.087  -0.166   0.238
    1UNL     H3   52   0.124  -0.234   0.050
    1UNL     H4   53   0.128  -0.001   0.202
    1UNL     H5   54  -0.018   0.165   0.091
    1UNL     H6   55  -0.239   0.157   0.327
    1UNL     H7   56  -0.159   0.474   0.197
    1UNL     H8   57  -0.120   0.379   0.425
    1UNL     H9   58  -0.258   0.508   0.424
    1UNL    H10   59  -0.389   0.326   0.391
    1UNL    H11   60  -0.435   0.469   0.223
    1UNL    H12   61  -0.338   0.411  -0.030
    1UNL    H13   62  -0.518   0.256   0.087
    1UNL    H14   63  -0.558   0.155   0.310
    1UNL    H15   64  -0.311   0.129   0.033
    1UNL    H16   65  -0.597   0.061   0.097
    1UNL    H17   66  -0.281  -0.068  -0.032
    1UNL    H18   67  -0.431  -0.204  -0.271
    1UNL    H19   68  -0.260  -0.187  -0.229
    1UNL    H20   69  -0.411   0.030  -0.295
    1UNL    H21   70  -0.319  -0.267   0.088
    1UNL    H22   71  -0.387  -0.447  -0.055
    1UNL    H23   72  -0.596  -0.258  -0.055
    1UNL    H24   73  -0.506  -0.410   0.165
    1UNL    H25   74  -0.566  -0.173   0.227
    1UNL    H26   75  -0.752  -0.175   0.050
    1UNL    H27   76  -0.082   0.002  -0.215
    1UNL    H28   77   0.382   0.097  -0.381
    1UNL    H29   78   0.384  -0.082  -0.454
    1UNL    H30   79   0.594  -0.167  -0.007
    1UNL    H31   80   0.816  -0.166   0.078
    1UNL    H32   81   1.154  -0.101   0.011
    1UNL    H33   82   1.097  -0.014  -0.203
    1UNL    H34   83   0.929   0.023  -0.376
    1UNL    H35   84   0.333  -0.205  -0.110
    1UNL    H36   85   0.327  -0.085   0.081
    1UNL    H37   86   0.390   0.052   0.019
    1UNL    H38   87   0.188   0.139   0.010
   0.00000   0.00000   0.00000   0.00000   0.00000   0.00000   0.00000   0.00000   0.00000
Generated with MDTraj, t= 83.0
 87
    1UNL     C1    1  -0.039  -0.229   0.158
    1UNL     C2    2   0.048  -0.164   0.080
    1UNL     C3    3   0.068  -0.019   0.098
    1UNL     C4    4  -0.061   0.062   0.094
    1UNL     O1    5  -0.138   0.040   0.207
    1UNL     C5    6  -0.223   0.144   0.238
    1UNL     O2    7  -0.153   0.273   0.218
    1UNL     C6    8  -0.230   0.394   0.225
    1UNL     C7    9  -0.240   0.446   0.369
    1UNL     O3   10  -0.292   0.347   0.459
    1UNL     C8   11  -0.364   0.393   0.143
    1UNL     O4   12  -0.321   0.409   0.008
    1UNL     C9   13  -0.433   0.258   0.164
    1UNL     O5   14  -0.484   0.254   0.291
    1UNL    C10   15  -0.348   0.130   0.146
    1UNL     O6   16  -0.420   0.012   0.183
    1UNL    C11   17  -0.518  -0.026   0.086
    1UNL     O7   18  -0.469  -0.026  -0.049
    1UNL    C12   19  -0.367  -0.130  -0.071
    1UNL    C13   20  -0.362  -0.137  -0.225
    1UNL     O8   21  -0.326  -0.011  -0.277
    1UNL    C14   22  -0.401  -0.269   0.003
    1UNL     O9   23  -0.344  -0.394  -0.048
    1UNL    C15   24  -0.547  -0.277   0.036
    1UNL    O10   25  -0.580  -0.394   0.107
    1UNL    C16   26  -0.591  -0.164   0.127
    1UNL    O11   27  -0.733  -0.143   0.144
    1UNL    O12   28  -0.128   0.055  -0.038
    1UNL    C17   29  -0.044   0.043  -0.141
    1UNL    C18   30   0.090   0.046  -0.141
    1UNL    C19   31   0.164   0.052  -0.265
    1UNL    O13   32   0.116   0.085  -0.373
    1UNL     N1   33   0.292  -0.003  -0.259
    1UNL    C20   34   0.406   0.025  -0.346
    1UNL    C21   35   0.530  -0.018  -0.278
    1UNL    C22   36   0.496  -0.072  -0.158
    1UNL     N2   37   0.594  -0.115  -0.066
    1UNL    C23   38   0.735  -0.102  -0.104
    1UNL    C24   39   0.840  -0.137  -0.021
    1UNL    C25   40   0.975  -0.110  -0.049
    1UNL    O14   41   1.075  -0.151   0.034
    1UNL    C26   42   1.007  -0.048  -0.170
    1UNL    C27   43   0.904  -0.016  -0.257
    1UNL    C28   44   0.769  -0.044  -0.230
    1UNL    C29   45   0.670   0.002  -0.326
    1UNL    O15   46   0.689   0.059  -0.433
    1UNL    C30   47   0.345  -0.075  -0.148
    1UNL    C31   48   0.297  -0.025  -0.015
    1UNL    C32   49   0.164   0.049  -0.011
    1UNL     H1   50  -0.095  -0.326   0.137
    1UNL     H2   51  -0.063  -0.169   0.245
    1UNL     H3   52   0.076  -0.213  -0.011
    1UNL     H4   53   0.109   0.002   0.193
    1UNL     H5   54  -0.034   0.169   0.096
    1UNL     H6   55  -0.257   0.122   0.339
    1UNL     H7   56  -0.164   0.453   0.157
    1UNL     H8   57  -0.137   0.457   0.403
    1UNL     H9   58  -0.299   0.541   0.363
    1UNL    H10   59  -0.379   0.330   0.421
    1UNL    H11   60  -0.434   0.474   0.164
    1UNL    H12   61  -0.255   0.340  -0.013
    1UNL    H13   62  -0.520   0.257   0.108
    1UNL    H14   63  -0.517   0.170   0.319
    1UNL    H15   64  -0.332   0.103   0.039
    1UNL    H16   65  -0.585   0.061   0.090
    1UNL    H17   66  -0.275  -0.085  -0.036
    1UNL    H18   67  -0.464  -0.147  -0.260
    1UNL    H19   68  -0.302  -0.215  -0.280
    1UNL    H20   69  -0.390   0.054  -0.233
    1UNL    H21   70  -0.342  -0.257   0.101
    1UNL    H22   71  -0.424  -0.448  -0.080
    1UNL    H23   72  -0.606  -0.275  -0.058
    1UNL    H24   73  -0.511  -0.458   0.103
    1UNL    H25   74  -0.561  -0.185   0.222
    1UNL    H26   75  -0.770  -0.220   0.199
    1UNL    H27   76  -0.097   0.033  -0.243
    1UNL    H28   77   0.407   0.138  -0.362
    1UNL    H29   78   0.385  -0.035  -0.443
    1UNL    H30   79   0.569  -0.143   0.025
    1UNL    H31   80   0.820  -0.207   0.057
    1UNL    H32   81   1.160  -0.102   0.009
    1UNL    H33   82   1.110  -0.038  -0.205
    1UNL    H34   83   0.917   0.028  -0.352
    1UNL    H35   84   0.304  -0.177  -0.154
    1UNL    H36   85   0.302  -0.099   0.066
    1UNL    H37   86   0.375   0.041   0.026
    1UNL    H38   87   0.186   0.151   0.016
   0.00000   0.00000   0.00000   0.00000   0.00000   0.00000   0.00000   0.00000   0.00000
Generated with MDTraj, t= 84.0
 87
    1UNL     C1    1  -0.061  -0.248   0.112
    1UNL     C2    2   0.018  -0.163   0.043
    1UNL     C3    3   0.063  -0.031   0.087
    1UNL     C4    4  -0.057   0.068   0.104
    1UNL     O1    5  -0.139   0.029   0.207
    1UNL     C5    6  -0.224   0.137   0.239
    1UNL     O2    7  -0.159   0.276   0.214
    1UNL     C6    8  -0.232   0.393   0.215
    1UNL     C7    9  -0.247   0.452   0.356
    1UNL     O3   10  -0.311   0.362   0.440
    1UNL     C8   11  -0.355   0.372   0.116
    1UNL     O4   12  -0.297   0.347  -0.010
    1UNL     C9   13  -0.442   0.254   0.161
    1UNL     O5   14  -0.512   0.263   0.282
    1UNL    C10   15  -0.353   0.117   0.153
    1UNL     O6   16  -0.425   0.007   0.200
    1UNL    C11   17  -0.523  -0.025   0.105
    1UNL     O7   18  -0.468  -0.033  -0.032
    1UNL    C12   19  -0.358  -0.128  -0.039
    1UNL    C13   20  -0.316  -0.147  -0.186
    1UNL     O8   21  -0.328  -0.032  -0.267
    1UNL    C14   22  -0.398  -0.263   0.030
    1UNL     O9   23  -0.349  -0.385  -0.039
    1UNL    C15   24  -0.555  -0.268   0.050
    1UNL    O10   25  -0.582  -0.400   0.098
    1UNL    C16   26  -0.593  -0.159   0.145
    1UNL    O11   27  -0.729  -0.139   0.155
    1UNL    O12   28  -0.120   0.097  -0.027
    1UNL    C17   29  -0.040   0.076  -0.139
    1UNL    C18   30   0.097   0.059  -0.141
    1UNL    C19   31   0.171   0.057  -0.263
    1UNL    O13   32   0.116   0.095  -0.365
    1UNL     N1   33   0.299   0.000  -0.262
    1UNL    C20   34   0.410   0.052  -0.346
    1UNL    C21   35   0.533   0.007  -0.279
    1UNL    C22   36   0.503  -0.064  -0.171
    1UNL     N2   37   0.602  -0.110  -0.087
    1UNL    C23   38   0.738  -0.097  -0.114
    1UNL    C24   39   0.827  -0.151  -0.024
    1UNL    C25   40   0.961  -0.135  -0.049
    1UNL    O14   41   1.051  -0.187   0.039
    1UNL    C26   42   1.002  -0.068  -0.170
    1UNL    C27   43   0.912  -0.020  -0.262
    1UNL    C28   44   0.772  -0.041  -0.238
    1UNL    C29   45   0.671   0.020  -0.320
    1UNL    O15   46   0.697   0.082  -0.422
    1UNL    C30   47   0.358  -0.069  -0.151
    1UNL    C31   48   0.316  -0.009  -0.015
    1UNL    C32   49   0.169   0.044  -0.014
    1UNL     H1   50  -0.063  -0.347   0.087
    1UNL     H2   51  -0.121  -0.217   0.198
    1UNL     H3   52   0.072  -0.207  -0.043
    1UNL     H4   53   0.109  -0.027   0.182
    1UNL     H5   54  -0.018   0.166   0.141
    1UNL     H6   55  -0.238   0.135   0.348
    1UNL     H7   56  -0.170   0.465   0.157
    1UNL     H8   57  -0.147   0.463   0.391
    1UNL     H9   58  -0.304   0.547   0.352
    1UNL    H10   59  -0.394   0.322   0.389
    1UNL    H11   60  -0.407   0.470   0.119
    1UNL    H12   61  -0.246   0.263  -0.005
    1UNL    H13   62  -0.521   0.248   0.092
    1UNL    H14   63  -0.546   0.170   0.301
    1UNL    H15   64  -0.324   0.083   0.048
    1UNL    H16   65  -0.596   0.058   0.089
    1UNL    H17   66  -0.282  -0.076   0.015
    1UNL    H18   67  -0.376  -0.223  -0.235
    1UNL    H19   68  -0.210  -0.184  -0.198
    1UNL    H20   69  -0.415   0.007  -0.251
    1UNL    H21   70  -0.356  -0.277   0.134
    1UNL    H22   71  -0.352  -0.376  -0.139
    1UNL    H23   72  -0.610  -0.268  -0.044
    1UNL    H24   73  -0.511  -0.458   0.049
    1UNL    H25   74  -0.577  -0.186   0.244
    1UNL    H26   75  -0.780  -0.221   0.136
    1UNL    H27   76  -0.087   0.104  -0.237
    1UNL    H28   77   0.398   0.164  -0.360
    1UNL    H29   78   0.402   0.002  -0.448
    1UNL    H30   79   0.566  -0.157   0.002
    1UNL    H31   80   0.800  -0.198   0.070
    1UNL    H32   81   1.148  -0.168   0.017
    1UNL    H33   82   1.107  -0.052  -0.178
    1UNL    H34   83   0.952   0.047  -0.336
    1UNL    H35   84   0.312  -0.169  -0.153
    1UNL    H36   85   0.326  -0.086   0.060
    1UNL    H37   86   0.384   0.066   0.029
    1UNL    H38   87   0.182   0.147   0.020
   0.00000   0.00000   0.00000   0.00000   0.00000   0.00000   0.00000   0.00000   0.00000
Generated with MDTraj, t= 85.0
 87
    1UNL     C1    1  -0.071  -0.230   0.067
    1UNL     C2    2   0.024  -0.149   0.013
    1UNL     C3    3   0.067  -0.032   0.085
    1UNL     C4    4  -0.048   0.078   0.108
    1UNL     O1    5  -0.134   0.044   0.215
    1UNL     C5    6  -0.226   0.149   0.238
    1UNL     O2    7  -0.152   0.267   0.212
    1UNL     C6    8  -0.225   0.388   0.206
    1UNL     C7    9  -0.264   0.438   0.347
    1UNL     O3   10  -0.335   0.340   0.412
    1UNL     C8   11  -0.346   0.371   0.102
    1UNL     O4   12  -0.293   0.378  -0.029
    1UNL     C9   13  -0.439   0.244   0.128
    1UNL     O5   14  -0.532   0.263   0.220
    1UNL    C10   15  -0.351   0.123   0.155
    1UNL     O6   16  -0.421   0.015   0.213
    1UNL    C11   17  -0.518  -0.031   0.120
    1UNL     O7   18  -0.466  -0.043  -0.014
    1UNL    C12   19  -0.364  -0.145  -0.027
    1UNL    C13   20  -0.332  -0.158  -0.173
    1UNL     O8   21  -0.289  -0.032  -0.211
    1UNL    C14   22  -0.389  -0.270   0.047
    1UNL     O9   23  -0.343  -0.384  -0.017
    1UNL    C15   24  -0.538  -0.285   0.065
    1UNL    O10   25  -0.582  -0.415   0.107
    1UNL    C16   26  -0.588  -0.168   0.151
    1UNL    O11   27  -0.728  -0.159   0.142
    1UNL    O12   28  -0.115   0.104  -0.014
    1UNL    C17   29  -0.029   0.108  -0.127
    1UNL    C18   30   0.106   0.080  -0.126
    1UNL    C19   31   0.179   0.091  -0.251
    1UNL    O13   32   0.127   0.141  -0.348
    1UNL     N1   33   0.293   0.013  -0.267
    1UNL    C20   34   0.412   0.044  -0.353
    1UNL    C21   35   0.533   0.002  -0.281
    1UNL    C22   36   0.497  -0.073  -0.174
    1UNL     N2   37   0.589  -0.126  -0.088
    1UNL    C23   38   0.722  -0.108  -0.115
    1UNL    C24   39   0.824  -0.158  -0.034
    1UNL    C25   40   0.958  -0.148  -0.062
    1UNL    O14   41   1.056  -0.219   0.018
    1UNL    C26   42   0.994  -0.077  -0.181
    1UNL    C27   43   0.898  -0.018  -0.255
    1UNL    C28   44   0.761  -0.023  -0.220
    1UNL    C29   45   0.671   0.037  -0.308
    1UNL    O15   46   0.699   0.102  -0.406
    1UNL    C30   47   0.345  -0.074  -0.157
    1UNL    C31   48   0.307  -0.038  -0.009
    1UNL    C32   49   0.173   0.040   0.000
    1UNL     H1   50  -0.102  -0.316   0.015
    1UNL     H2   51  -0.137  -0.207   0.156
    1UNL     H3   52   0.066  -0.168  -0.082
    1UNL     H4   53   0.112  -0.046   0.181
    1UNL     H5   54  -0.005   0.176   0.139
    1UNL     H6   55  -0.251   0.155   0.347
    1UNL     H7   56  -0.155   0.456   0.152
    1UNL     H8   57  -0.174   0.446   0.403
    1UNL     H9   58  -0.323   0.532   0.342
    1UNL    H10   59  -0.398   0.309   0.347
    1UNL    H11   60  -0.403   0.469   0.103
    1UNL    H12   61  -0.254   0.290  -0.049
    1UNL    H13   62  -0.487   0.229   0.032
    1UNL    H14   63  -0.570   0.176   0.248
    1UNL    H15   64  -0.316   0.078   0.058
    1UNL    H16   65  -0.591   0.053   0.095
    1UNL    H17   66  -0.282  -0.093   0.017
    1UNL    H18   67  -0.411  -0.187  -0.239
    1UNL    H19   68  -0.252  -0.235  -0.186
    1UNL    H20   69  -0.345   0.042  -0.168
    1UNL    H21   70  -0.341  -0.269   0.147
    1UNL    H22   71  -0.386  -0.460   0.024
    1UNL    H23   72  -0.584  -0.283  -0.031
    1UNL    H24   73  -0.655  -0.387   0.163
    1UNL    H25   74  -0.570  -0.182   0.255
    1UNL    H26   75  -0.756  -0.144   0.051
    1UNL    H27   76  -0.069   0.115  -0.218
    1UNL    H28   77   0.413   0.156  -0.361
    1UNL    H29   78   0.414   0.004  -0.459
    1UNL    H30   79   0.554  -0.200  -0.015
    1UNL    H31   80   0.796  -0.208   0.055
    1UNL    H32   81   1.143  -0.221  -0.028
    1UNL    H33   82   1.097  -0.067  -0.214
    1UNL    H34   83   0.927   0.049  -0.340
    1UNL    H35   84   0.311  -0.177  -0.176
    1UNL    H36   85   0.305  -0.122   0.059
    1UNL    H37   86   0.390   0.020   0.034
    1UNL    H38   87   0.201   0.137   0.044
   0.00000   0.00000   0.00000   0.00000   0.00000   0.00000   0.00000   0.00000   0.00000
Generated with MDTraj, t= 86.0
 87
    1UNL     C1    1  -0.063  -0.248   0.109
    1UNL     C2    2   0.002  -0.157   0.034
    1UNL     C3    3   0.059  -0.033   0.093
    1UNL     C4    4  -0.057   0.074   0.114
    1UNL     O1    5  -0.141   0.046   0.227
    1UNL     C5    6  -0.230   0.161   0.241
    1UNL     O2    7  -0.167   0.279   0.214
    1UNL     C6    8  -0.255   0.391   0.210
    1UNL     C7    9  -0.305   0.426   0.351
    1UNL     O3   10  -0.365   0.321   0.417
    1UNL     C8   11  -0.349   0.374   0.087
    1UNL     O4   12  -0.273   0.356  -0.024
    1UNL     C9   13  -0.448   0.248   0.113
    1UNL     O5   14  -0.539   0.266   0.219
    1UNL    C10   15  -0.346   0.131   0.136
    1UNL     O6   16  -0.429   0.028   0.181
    1UNL    C11   17  -0.516  -0.027   0.080
    1UNL     O7   18  -0.455  -0.053  -0.050
    1UNL    C12   19  -0.344  -0.147  -0.031
    1UNL    C13   20  -0.303  -0.190  -0.177
    1UNL     O8   21  -0.255  -0.073  -0.234
    1UNL    C14   22  -0.390  -0.275   0.048
    1UNL     O9   23  -0.347  -0.395  -0.010
    1UNL    C15   24  -0.540  -0.279   0.078
    1UNL    O10   25  -0.574  -0.390   0.168
    1UNL    C16   26  -0.574  -0.153   0.154
    1UNL    O11   27  -0.717  -0.141   0.154
    1UNL    O12   28  -0.110   0.121  -0.014
    1UNL    C17   29  -0.021   0.129  -0.124
    1UNL    C18   30   0.105   0.088  -0.125
    1UNL    C19   31   0.193   0.117  -0.239
    1UNL    O13   32   0.167   0.209  -0.314
    1UNL     N1   33   0.295   0.026  -0.264
    1UNL    C20   34   0.409   0.063  -0.344
    1UNL    C21   35   0.529   0.009  -0.279
    1UNL    C22   36   0.493  -0.075  -0.181
    1UNL     N2   37   0.585  -0.149  -0.107
    1UNL    C23   38   0.723  -0.129  -0.128
    1UNL    C24   39   0.821  -0.196  -0.059
    1UNL    C25   40   0.956  -0.170  -0.082
    1UNL    O14   41   1.049  -0.229  -0.003
    1UNL    C26   42   0.995  -0.074  -0.181
    1UNL    C27   43   0.898  -0.007  -0.252
    1UNL    C28   44   0.764  -0.034  -0.225
    1UNL    C29   45   0.667   0.037  -0.307
    1UNL    O15   46   0.696   0.109  -0.401
    1UNL    C30   47   0.344  -0.072  -0.163
    1UNL    C31   48   0.298  -0.043  -0.019
    1UNL    C32   49   0.168   0.039   0.002
    1UNL     H1   50  -0.123  -0.326   0.063
    1UNL     H2   51  -0.073  -0.233   0.213
    1UNL     H3   52  -0.017  -0.158  -0.076
    1UNL     H4   53   0.095  -0.048   0.193
    1UNL     H5   54  -0.018   0.171   0.150
    1UNL     H6   55  -0.278   0.157   0.344
    1UNL     H7   56  -0.183   0.470   0.183
    1UNL     H8   57  -0.218   0.455   0.406
    1UNL     H9   58  -0.380   0.507   0.336
    1UNL    H10   59  -0.436   0.290   0.363
    1UNL    H11   60  -0.415   0.465   0.085
    1UNL    H12   61  -0.207   0.279  -0.018
    1UNL    H13   62  -0.517   0.245   0.024
    1UNL    H14   63  -0.581   0.181   0.243
    1UNL    H15   64  -0.296   0.095   0.042
    1UNL    H16   65  -0.610   0.032   0.054
    1UNL    H17   66  -0.260  -0.088   0.005
    1UNL    H18   67  -0.385  -0.233  -0.229
    1UNL    H19   68  -0.221  -0.264  -0.184
    1UNL    H20   69  -0.319  -0.003  -0.206
    1UNL    H21   70  -0.338  -0.267   0.141
    1UNL    H22   71  -0.342  -0.469   0.053
    1UNL    H23   72  -0.604  -0.292  -0.005
    1UNL    H24   73  -0.546  -0.471   0.129
    1UNL    H25   74  -0.539  -0.150   0.257
    1UNL    H26   75  -0.735  -0.217   0.214
    1UNL    H27   76  -0.056   0.185  -0.217
    1UNL    H28   77   0.425   0.172  -0.354
    1UNL    H29   78   0.395   0.023  -0.446
    1UNL    H30   79   0.546  -0.209  -0.033
    1UNL    H31   80   0.789  -0.273   0.011
    1UNL    H32   81   1.138  -0.208  -0.034
    1UNL    H33   82   1.095  -0.037  -0.176
    1UNL    H34   83   0.912   0.061  -0.327
    1UNL    H35   84   0.306  -0.167  -0.204
    1UNL    H36   85   0.277  -0.138   0.027
    1UNL    H37   86   0.383  -0.006   0.040
    1UNL    H38   87   0.200   0.135   0.050
   0.00000   0.00000   0.00000   0.00000   0.00000   0.00000   0.00000   0.00000   0.00000
Generated with MDTraj, t= 87.0
 87
    1UNL     C1    1  -0.022  -0.250   0.148
    1UNL     C2    2   0.003  -0.149   0.067
    1UNL     C3    3   0.058  -0.015   0.105
    1UNL     C4    4  -0.049   0.094   0.116
    1UNL     O1    5  -0.142   0.054   0.214
    1UNL     C5    6  -0.238   0.165   0.230
    1UNL     O2    7  -0.176   0.290   0.205
    1UNL     C6    8  -0.259   0.408   0.216
    1UNL     C7    9  -0.308   0.428   0.369
    1UNL     O3   10  -0.400   0.330   0.421
    1UNL     C8   11  -0.364   0.404   0.107
    1UNL     O4   12  -0.289   0.433  -0.018
    1UNL     C9   13  -0.440   0.267   0.110
    1UNL     O5   14  -0.548   0.260   0.189
    1UNL    C10   15  -0.351   0.138   0.124
    1UNL     O6   16  -0.427   0.027   0.169
    1UNL    C11   17  -0.510  -0.030   0.070
    1UNL     O7   18  -0.449  -0.071  -0.052
    1UNL    C12   19  -0.339  -0.176  -0.030
    1UNL    C13   20  -0.285  -0.230  -0.166
    1UNL     O8   21  -0.238  -0.128  -0.251
    1UNL    C14   22  -0.379  -0.298   0.065
    1UNL     O9   23  -0.348  -0.421   0.011
    1UNL    C15   24  -0.529  -0.297   0.086
    1UNL    O10   25  -0.573  -0.411   0.174
    1UNL    C16   26  -0.576  -0.161   0.141
    1UNL    O11   27  -0.719  -0.135   0.140
    1UNL    O12   28  -0.108   0.122  -0.010
    1UNL    C17   29  -0.012   0.139  -0.107
    1UNL    C18   30   0.117   0.095  -0.115
    1UNL    C19   31   0.197   0.141  -0.225
    1UNL    O13   32   0.174   0.239  -0.295
    1UNL     N1   33   0.303   0.056  -0.250
    1UNL    C20   34   0.423   0.097  -0.328
    1UNL    C21   35   0.533   0.011  -0.281
    1UNL    C22   36   0.488  -0.076  -0.189
    1UNL     N2   37   0.578  -0.150  -0.124
    1UNL    C23   38   0.716  -0.135  -0.149
    1UNL    C24   39   0.807  -0.207  -0.072
    1UNL    C25   40   0.945  -0.185  -0.088
    1UNL    O14   41   1.029  -0.262  -0.011
    1UNL    C26   42   0.988  -0.089  -0.181
    1UNL    C27   43   0.903  -0.016  -0.258
    1UNL    C28   44   0.766  -0.041  -0.244
    1UNL    C29   45   0.666   0.035  -0.318
    1UNL    O15   46   0.695   0.125  -0.397
    1UNL    C30   47   0.334  -0.071  -0.179
    1UNL    C31   48   0.279  -0.075  -0.034
    1UNL    C32   49   0.178   0.028   0.010
    1UNL     H1   50  -0.042  -0.353   0.111
    1UNL     H2   51  -0.026  -0.223   0.248
    1UNL     H3   52  -0.003  -0.170  -0.035
    1UNL     H4   53   0.103  -0.032   0.202
    1UNL     H5   54  -0.004   0.189   0.145
    1UNL     H6   55  -0.275   0.153   0.339
    1UNL     H7   56  -0.188   0.485   0.181
    1UNL     H8   57  -0.218   0.414   0.427
    1UNL     H9   58  -0.352   0.531   0.379
    1UNL    H10   59  -0.469   0.317   0.344
    1UNL    H11   60  -0.435   0.491   0.108
    1UNL    H12   61  -0.209   0.383  -0.029
    1UNL    H13   62  -0.474   0.253   0.001
    1UNL    H14   63  -0.575   0.163   0.201
    1UNL    H15   64  -0.296   0.104   0.032
    1UNL    H16   65  -0.594   0.040   0.038
    1UNL    H17   66  -0.267  -0.108   0.016
    1UNL    H18   67  -0.362  -0.285  -0.215
    1UNL    H19   68  -0.204  -0.302  -0.141
    1UNL    H20   69  -0.314  -0.068  -0.252
    1UNL    H21   70  -0.328  -0.285   0.156
    1UNL    H22   71  -0.372  -0.487   0.083
    1UNL    H23   72  -0.571  -0.313  -0.010
    1UNL    H24   73  -0.599  -0.494   0.128
    1UNL    H25   74  -0.541  -0.143   0.242
    1UNL    H26   75  -0.745  -0.178   0.053
    1UNL    H27   76  -0.041   0.225  -0.177
    1UNL    H28   77   0.448   0.202  -0.314
    1UNL    H29   78   0.393   0.080  -0.431
    1UNL    H30   79   0.560  -0.219  -0.060
    1UNL    H31   80   0.784  -0.290  -0.009
    1UNL    H32   81   1.119  -0.233  -0.022
    1UNL    H33   82   1.094  -0.076  -0.192
    1UNL    H34   83   0.947   0.064  -0.326
    1UNL    H35   84   0.298  -0.147  -0.250
    1UNL    H36   85   0.240  -0.175  -0.030
    1UNL    H37   86   0.365  -0.074   0.034
    1UNL    H38   87   0.241   0.107   0.059
   0.00000   0.00000   0.00000   0.00000   0.00000   0.00000   0.00000   0.00000   0.00000
Generated with MDTraj, t= 88.0
 87
    1UNL     C1    1  -0.022  -0.229   0.149
    1UNL     C2    2   0.022  -0.137   0.067
    1UNL     C3    3   0.071   0.001   0.105
    1UNL     C4    4  -0.044   0.102   0.119
    1UNL     O1    5  -0.139   0.069   0.225
    1UNL     C5    6  -0.235   0.170   0.237
    1UNL     O2    7  -0.178   0.300   0.212
    1UNL     C6    8  -0.268   0.403   0.219
    1UNL     C7    9  -0.328   0.425   0.362
    1UNL     O3   10  -0.394   0.315   0.417
    1UNL     C8   11  -0.374   0.393   0.109
    1UNL     O4   12  -0.318   0.446  -0.009
    1UNL     C9   13  -0.444   0.252   0.101
    1UNL     O5   14  -0.556   0.238   0.187
    1UNL    C10   15  -0.347   0.131   0.135
    1UNL     O6   16  -0.425   0.013   0.172
    1UNL    C11   17  -0.489  -0.038   0.061
    1UNL     O7   18  -0.406  -0.080  -0.043
    1UNL    C12   19  -0.323  -0.190  -0.012
    1UNL    C13   20  -0.278  -0.251  -0.143
    1UNL     O8   21  -0.225  -0.153  -0.232
    1UNL    C14   22  -0.382  -0.298   0.091
    1UNL     O9   23  -0.317  -0.432   0.078
    1UNL    C15   24  -0.535  -0.293   0.073
    1UNL    O10   25  -0.599  -0.394   0.154
    1UNL    C16   26  -0.576  -0.155   0.116
    1UNL    O11   27  -0.707  -0.121   0.085
    1UNL    O12   28  -0.105   0.123  -0.012
    1UNL    C17   29  -0.024   0.147  -0.115
    1UNL    C18   30   0.110   0.108  -0.119
    1UNL    C19   31   0.190   0.155  -0.230
    1UNL    O13   32   0.157   0.257  -0.288
    1UNL     N1   33   0.300   0.073  -0.269
    1UNL    C20   34   0.426   0.125  -0.331
    1UNL    C21   35   0.538   0.038  -0.284
    1UNL    C22   36   0.488  -0.061  -0.200
    1UNL     N2   37   0.567  -0.147  -0.133
    1UNL    C23   38   0.707  -0.141  -0.150
    1UNL    C24   39   0.795  -0.223  -0.080
    1UNL    C25   40   0.935  -0.211  -0.094
    1UNL    O14   41   1.013  -0.303  -0.018
    1UNL    C26   42   0.982  -0.125  -0.190
    1UNL    C27   43   0.899  -0.043  -0.258
    1UNL    C28   44   0.765  -0.050  -0.240
    1UNL    C29   45   0.677   0.046  -0.309
    1UNL    O15   46   0.719   0.134  -0.382
    1UNL    C30   47   0.335  -0.055  -0.192
    1UNL    C31   48   0.277  -0.060  -0.046
    1UNL    C32   49   0.179   0.048   0.001
    1UNL     H1   50  -0.077  -0.316   0.114
    1UNL     H2   51   0.005  -0.211   0.254
    1UNL     H3   52   0.006  -0.156  -0.043
    1UNL     H4   53   0.107  -0.012   0.206
    1UNL     H5   54  -0.005   0.196   0.161
    1UNL     H6   55  -0.277   0.173   0.345
    1UNL     H7   56  -0.208   0.495   0.204
    1UNL     H8   57  -0.245   0.444   0.429
    1UNL     H9   58  -0.398   0.515   0.359
    1UNL    H10   59  -0.456   0.287   0.351
    1UNL    H11   60  -0.455   0.456   0.152
    1UNL    H12   61  -0.251   0.382  -0.038
    1UNL    H13   62  -0.487   0.225  -0.005
    1UNL    H14   63  -0.590   0.149   0.187
    1UNL    H15   64  -0.294   0.100   0.041
    1UNL    H16   65  -0.556   0.036   0.006
    1UNL    H17   66  -0.240  -0.133   0.037
    1UNL    H18   67  -0.360  -0.300  -0.194
    1UNL    H19   68  -0.196  -0.320  -0.119
    1UNL    H20   69  -0.278  -0.071  -0.208
    1UNL    H21   70  -0.355  -0.267   0.187
    1UNL    H22   71  -0.347  -0.487   0.158
    1UNL    H23   72  -0.559  -0.320  -0.027
    1UNL    H24   73  -0.571  -0.488   0.121
    1UNL    H25   74  -0.574  -0.142   0.227
    1UNL    H26   75  -0.766  -0.201   0.070
    1UNL    H27   76  -0.060   0.185  -0.203
    1UNL    H28   77   0.430   0.226  -0.294
    1UNL    H29   78   0.418   0.123  -0.437
    1UNL    H30   79   0.531  -0.206  -0.065
    1UNL    H31   80   0.751  -0.291  -0.010
    1UNL    H32   81   1.106  -0.280  -0.020
    1UNL    H33   82   1.088  -0.120  -0.212
    1UNL    H34   83   0.924   0.034  -0.322
    1UNL    H35   84   0.300  -0.139  -0.254
    1UNL    H36   85   0.233  -0.157  -0.031
    1UNL    H37   86   0.373  -0.053   0.006
    1UNL    H38   87   0.239   0.130   0.050
   0.00000   0.00000   0.00000   0.00000   0.00000   0.00000   0.00000   0.00000   0.00000
Generated with MDTraj, t= 89.0
 87
    1UNL     C1    1  -0.025  -0.212   0.147
    1UNL     C2    2   0.023  -0.123   0.057
    1UNL     C3    3   0.065   0.018   0.096
    1UNL     C4    4  -0.054   0.111   0.103
    1UNL     O1    5  -0.127   0.074   0.217
    1UNL     C5    6  -0.228   0.163   0.223
    1UNL     O2    7  -0.183   0.301   0.213
    1UNL     C6    8  -0.280   0.401   0.225
    1UNL     C7    9  -0.342   0.410   0.370
    1UNL     O3   10  -0.395   0.294   0.418
    1UNL     C8   11  -0.393   0.377   0.114
    1UNL     O4   12  -0.303   0.376  -0.004
    1UNL     C9   13  -0.462   0.239   0.118
    1UNL     O5   14  -0.556   0.221   0.223
    1UNL    C10   15  -0.348   0.132   0.133
    1UNL     O6   16  -0.415   0.015   0.170
    1UNL    C11   17  -0.491  -0.037   0.059
    1UNL     O7   18  -0.402  -0.087  -0.054
    1UNL    C12   19  -0.311  -0.173   0.005
    1UNL    C13   20  -0.244  -0.266  -0.096
    1UNL     O8   21  -0.179  -0.192  -0.194
    1UNL    C14   22  -0.380  -0.270   0.108
    1UNL     O9   23  -0.313  -0.397   0.126
    1UNL    C15   24  -0.522  -0.287   0.065
    1UNL    O10   25  -0.593  -0.381   0.142
    1UNL    C16   26  -0.587  -0.150   0.097
    1UNL    O11   27  -0.710  -0.128   0.028
    1UNL    O12   28  -0.116   0.142  -0.030
    1UNL    C17   29  -0.026   0.159  -0.132
    1UNL    C18   30   0.108   0.130  -0.125
    1UNL    C19   31   0.191   0.162  -0.249
    1UNL    O13   32   0.149   0.252  -0.322
    1UNL     N1   33   0.312   0.091  -0.265
    1UNL    C20   34   0.435   0.140  -0.333
    1UNL    C21   35   0.538   0.048  -0.276
    1UNL    C22   36   0.486  -0.051  -0.201
    1UNL     N2   37   0.556  -0.147  -0.138
    1UNL    C23   38   0.693  -0.146  -0.148
    1UNL    C24   39   0.774  -0.246  -0.093
    1UNL    C25   40   0.912  -0.247  -0.111
    1UNL    O14   41   0.985  -0.343  -0.048
    1UNL    C26   42   0.974  -0.144  -0.192
    1UNL    C27   43   0.893  -0.049  -0.250
    1UNL    C28   44   0.757  -0.049  -0.228
    1UNL    C29   45   0.676   0.054  -0.292
    1UNL    O15   46   0.727   0.140  -0.365
    1UNL    C30   47   0.343  -0.030  -0.178
    1UNL    C31   48   0.305  -0.012  -0.029
    1UNL    C32   49   0.175   0.075  -0.003
    1UNL     H1   50  -0.056  -0.306   0.124
    1UNL     H2   51  -0.013  -0.196   0.255
    1UNL     H3   52   0.026  -0.147  -0.044
    1UNL     H4   53   0.103   0.001   0.197
    1UNL     H5   54  -0.013   0.208   0.139
    1UNL     H6   55  -0.270   0.165   0.328
    1UNL     H7   56  -0.224   0.495   0.204
    1UNL     H8   57  -0.257   0.433   0.435
    1UNL     H9   58  -0.421   0.491   0.376
    1UNL    H10   59  -0.453   0.261   0.347
    1UNL    H11   60  -0.460   0.459   0.084
    1UNL    H12   61  -0.232   0.303   0.001
    1UNL    H13   62  -0.524   0.234   0.016
    1UNL    H14   63  -0.604   0.129   0.230
    1UNL    H15   64  -0.308   0.117   0.028
    1UNL    H16   65  -0.540   0.045   0.003
    1UNL    H17   66  -0.234  -0.110   0.053
    1UNL    H18   67  -0.325  -0.311  -0.153
    1UNL    H19   68  -0.169  -0.340  -0.056
    1UNL    H20   69  -0.227  -0.108  -0.206
    1UNL    H21   70  -0.377  -0.224   0.204
    1UNL    H22   71  -0.376  -0.459   0.169
    1UNL    H23   72  -0.549  -0.323  -0.036
    1UNL    H24   73  -0.570  -0.477   0.108
    1UNL    H25   74  -0.622  -0.147   0.206
    1UNL    H26   75  -0.730  -0.208  -0.023
    1UNL    H27   76  -0.066   0.194  -0.227
    1UNL    H28   77   0.446   0.243  -0.311
    1UNL    H29   78   0.429   0.127  -0.437
    1UNL    H30   79   0.507  -0.230  -0.092
    1UNL    H31   80   0.732  -0.326  -0.034
    1UNL    H32   81   1.078  -0.324  -0.071
    1UNL    H33   82   1.079  -0.139  -0.193
    1UNL    H34   83   0.931   0.043  -0.302
    1UNL    H35   84   0.290  -0.112  -0.228
    1UNL    H36   85   0.276  -0.112   0.000
    1UNL    H37   86   0.392   0.030   0.025
    1UNL    H38   87   0.217   0.170   0.040
   0.00000   0.00000   0.00000   0.00000   0.00000   0.00000   0.00000   0.00000   0.00000
Generated with MDTraj, t= 90.0
 87
    1UNL     C1    1   0.019  -0.194   0.143
    1UNL     C2    2   0.048  -0.100   0.055
    1UNL     C3    3   0.072   0.043   0.097
    1UNL     C4    4  -0.054   0.127   0.110
    1UNL     O1    5  -0.153   0.056   0.184
    1UNL     C5    6  -0.259   0.138   0.223
    1UNL     O2    7  -0.198   0.271   0.241
    1UNL     C6    8  -0.267   0.392   0.235
    1UNL     C7    9  -0.333   0.419   0.377
    1UNL     O3   10  -0.397   0.307   0.426
    1UNL     C8   11  -0.375   0.392   0.123
    1UNL     O4   12  -0.313   0.416  -0.004
    1UNL     C9   13  -0.457   0.261   0.112
    1UNL     O5   14  -0.560   0.252   0.210
    1UNL    C10   15  -0.369   0.129   0.116
    1UNL     O6   16  -0.454   0.014   0.151
    1UNL    C11   17  -0.499  -0.049   0.038
    1UNL     O7   18  -0.397  -0.095  -0.058
    1UNL    C12   19  -0.312  -0.185   0.006
    1UNL    C13   20  -0.233  -0.274  -0.098
    1UNL     O8   21  -0.130  -0.191  -0.151
    1UNL    C14   22  -0.378  -0.275   0.117
    1UNL     O9   23  -0.307  -0.397   0.156
    1UNL    C15   24  -0.518  -0.305   0.076
    1UNL    O10   25  -0.575  -0.386   0.176
    1UNL    C16   26  -0.594  -0.169   0.068
    1UNL    O11   27  -0.706  -0.185  -0.020
    1UNL    O12   28  -0.113   0.159  -0.019
    1UNL    C17   29  -0.023   0.171  -0.124
    1UNL    C18   30   0.108   0.149  -0.126
    1UNL    C19   31   0.185   0.159  -0.256
    1UNL    O13   32   0.146   0.239  -0.341
    1UNL     N1   33   0.309   0.093  -0.260
    1UNL    C20   34   0.433   0.142  -0.317
    1UNL    C21   35   0.540   0.046  -0.262
    1UNL    C22   36   0.482  -0.048  -0.182
    1UNL     N2   37   0.554  -0.155  -0.138
    1UNL    C23   38   0.689  -0.154  -0.166
    1UNL    C24   39   0.764  -0.260  -0.114
    1UNL    C25   40   0.902  -0.266  -0.126
    1UNL    O14   41   0.972  -0.377  -0.081
    1UNL    C26   42   0.962  -0.164  -0.194
    1UNL    C27   43   0.895  -0.058  -0.244
    1UNL    C28   44   0.756  -0.047  -0.227
    1UNL    C29   45   0.679   0.057  -0.283
    1UNL    O15   46   0.729   0.146  -0.356
    1UNL    C30   47   0.337  -0.018  -0.170
    1UNL    C31   48   0.302   0.027  -0.025
    1UNL    C32   49   0.174   0.110  -0.001
    1UNL     H1   50   0.018  -0.303   0.122
    1UNL     H2   51  -0.004  -0.176   0.248
    1UNL     H3   52   0.090  -0.137  -0.041
    1UNL     H4   53   0.122   0.030   0.194
    1UNL     H5   54  -0.029   0.224   0.156
    1UNL     H6   55  -0.298   0.098   0.322
    1UNL     H7   56  -0.199   0.479   0.223
    1UNL     H8   57  -0.257   0.449   0.448
    1UNL     H9   58  -0.402   0.507   0.368
    1UNL    H10   59  -0.464   0.277   0.353
    1UNL    H11   60  -0.445   0.470   0.152
    1UNL    H12   61  -0.256   0.337  -0.024
    1UNL    H13   62  -0.525   0.267   0.013
    1UNL    H14   63  -0.595   0.167   0.225
    1UNL    H15   64  -0.314   0.092   0.023
    1UNL    H16   65  -0.552   0.034  -0.012
    1UNL    H17   66  -0.233  -0.118   0.047
    1UNL    H18   67  -0.292  -0.301  -0.187
    1UNL    H19   68  -0.193  -0.363  -0.044
    1UNL    H20   69  -0.146  -0.096  -0.146
    1UNL    H21   70  -0.374  -0.213   0.206
    1UNL    H22   71  -0.354  -0.436   0.230
    1UNL    H23   72  -0.528  -0.359  -0.023
    1UNL    H24   73  -0.553  -0.478   0.146
    1UNL    H25   74  -0.640  -0.130   0.169
    1UNL    H26   75  -0.674  -0.184  -0.110
    1UNL    H27   76  -0.076   0.215  -0.219
    1UNL    H28   77   0.452   0.242  -0.289
    1UNL    H29   78   0.422   0.145  -0.421
    1UNL    H30   79   0.505  -0.235  -0.081
    1UNL    H31   80   0.709  -0.345  -0.080
    1UNL    H32   81   1.067  -0.385  -0.112
    1UNL    H33   82   1.072  -0.173  -0.210
    1UNL    H34   83   0.955   0.011  -0.295
    1UNL    H35   84   0.277  -0.100  -0.213
    1UNL    H36   85   0.295  -0.058   0.041
    1UNL    H37   86   0.381   0.101  -0.000
    1UNL    H38   87   0.200   0.206   0.051
   0.00000   0.00000   0.00000   0.00000   0.00000   0.00000   0.00000   0.00000   0.00000
Generated with MDTraj, t= 91.0
 87
    1UNL     C1    1   0.029  -0.198   0.144
    1UNL     C2    2   0.057  -0.104   0.059
    1UNL     C3    3   0.070   0.037   0.097
    1UNL     C4    4  -0.073   0.103   0.101
    1UNL     O1    5  -0.166   0.044   0.189
    1UNL     C5    6  -0.264   0.141   0.215
    1UNL     O2    7  -0.208   0.271   0.242
    1UNL     C6    8  -0.291   0.388   0.240
    1UNL     C7    9  -0.341   0.398   0.393
    1UNL     O3   10  -0.442   0.305   0.425
    1UNL     C8   11  -0.383   0.381   0.118
    1UNL     O4   12  -0.295   0.406   0.006
    1UNL     C9   13  -0.466   0.259   0.100
    1UNL     O5   14  -0.570   0.256   0.195
    1UNL    C10   15  -0.370   0.136   0.102
    1UNL     O6   16  -0.457   0.021   0.135
    1UNL    C11   17  -0.496  -0.044   0.022
    1UNL     O7   18  -0.380  -0.089  -0.054
    1UNL    C12   19  -0.290  -0.179   0.022
    1UNL    C13   20  -0.200  -0.265  -0.065
    1UNL     O8   21  -0.129  -0.175  -0.153
    1UNL    C14   22  -0.357  -0.260   0.138
    1UNL     O9   23  -0.286  -0.378   0.161
    1UNL    C15   24  -0.499  -0.289   0.093
    1UNL    O10   25  -0.563  -0.372   0.190
    1UNL    C16   26  -0.585  -0.169   0.056
    1UNL    O11   27  -0.671  -0.204  -0.062
    1UNL    O12   28  -0.123   0.146  -0.025
    1UNL    C17   29  -0.032   0.173  -0.127
    1UNL    C18   30   0.100   0.157  -0.124
    1UNL    C19   31   0.177   0.172  -0.250
    1UNL    O13   32   0.155   0.253  -0.339
    1UNL     N1   33   0.301   0.107  -0.243
    1UNL    C20   34   0.430   0.142  -0.308
    1UNL    C21   35   0.537   0.052  -0.252
    1UNL    C22   36   0.480  -0.044  -0.169
    1UNL     N2   37   0.558  -0.146  -0.115
    1UNL    C23   38   0.691  -0.159  -0.154
    1UNL    C24   39   0.762  -0.269  -0.116
    1UNL    C25   40   0.890  -0.287  -0.151
    1UNL    O14   41   0.966  -0.395  -0.107
    1UNL    C26   42   0.961  -0.187  -0.225
    1UNL    C27   43   0.888  -0.079  -0.270
    1UNL    C28   44   0.752  -0.066  -0.246
    1UNL    C29   45   0.678   0.050  -0.287
    1UNL    O15   46   0.725   0.143  -0.351
    1UNL    C30   47   0.337  -0.007  -0.153
    1UNL    C31   48   0.306   0.050  -0.010
    1UNL    C32   49   0.168   0.125   0.006
    1UNL     H1   50   0.008  -0.304   0.126
    1UNL     H2   51   0.036  -0.185   0.244
    1UNL     H3   52   0.033  -0.135  -0.041
    1UNL     H4   53   0.111   0.031   0.202
    1UNL     H5   54  -0.059   0.205   0.146
    1UNL     H6   55  -0.313   0.101   0.308
    1UNL     H7   56  -0.224   0.475   0.226
    1UNL     H8   57  -0.254   0.384   0.456
    1UNL     H9   58  -0.377   0.498   0.424
    1UNL    H10   59  -0.494   0.300   0.347
    1UNL    H11   60  -0.448   0.470   0.120
    1UNL    H12   61  -0.226   0.339  -0.005
    1UNL    H13   62  -0.505   0.255  -0.015
    1UNL    H14   63  -0.620   0.165   0.188
    1UNL    H15   64  -0.314   0.108   0.007
    1UNL    H16   65  -0.564   0.016  -0.040
    1UNL    H17   66  -0.234  -0.091   0.064
    1UNL    H18   67  -0.266  -0.343  -0.108
    1UNL    H19   68  -0.129  -0.313   0.008
    1UNL    H20   69  -0.191  -0.107  -0.188
    1UNL    H21   70  -0.358  -0.197   0.230
    1UNL    H22   71  -0.351  -0.438   0.205
    1UNL    H23   72  -0.490  -0.370   0.012
    1UNL    H24   73  -0.563  -0.326   0.270
    1UNL    H25   74  -0.656  -0.145   0.149
    1UNL    H26   75  -0.613  -0.210  -0.138
    1UNL    H27   76  -0.071   0.176  -0.223
    1UNL    H28   77   0.463   0.240  -0.295
    1UNL    H29   78   0.424   0.131  -0.412
    1UNL    H30   79   0.518  -0.212  -0.047
    1UNL    H31   80   0.709  -0.345  -0.058
    1UNL    H32   81   1.057  -0.392  -0.151
    1UNL    H33   82   1.065  -0.188  -0.233
    1UNL    H34   83   0.938   0.005  -0.319
    1UNL    H35   84   0.279  -0.099  -0.168
    1UNL    H36   85   0.301  -0.031   0.061
    1UNL    H37   86   0.375   0.130   0.021
    1UNL    H38   87   0.168   0.213   0.074
   0.00000   0.00000   0.00000   0.00000   0.00000   0.00000   0.00000   0.00000   0.00000
Generated with MDTraj, t= 92.0
 87
    1UNL     C1    1   0.061  -0.207   0.163
    1UNL     C2    2   0.043  -0.113   0.077
    1UNL     C3    3   0.068   0.032   0.118
    1UNL     C4    4  -0.067   0.115   0.113
    1UNL     O1    5  -0.158   0.067   0.209
    1UNL     C5    6  -0.265   0.155   0.234
    1UNL     O2    7  -0.226   0.292   0.245
    1UNL     C6    8  -0.326   0.398   0.241
    1UNL     C7    9  -0.401   0.384   0.380
    1UNL     O3   10  -0.446   0.261   0.406
    1UNL     C8   11  -0.390   0.394   0.105
    1UNL     O4   12  -0.290   0.401   0.004
    1UNL     C9   13  -0.462   0.253   0.080
    1UNL     O5   14  -0.580   0.231   0.157
    1UNL    C10   15  -0.364   0.138   0.119
    1UNL     O6   16  -0.438   0.016   0.149
    1UNL    C11   17  -0.478  -0.044   0.023
    1UNL     O7   18  -0.367  -0.084  -0.061
    1UNL    C12   19  -0.270  -0.159   0.010
    1UNL    C13   20  -0.212  -0.252  -0.099
    1UNL     O8   21  -0.138  -0.187  -0.196
    1UNL    C14   22  -0.346  -0.237   0.134
    1UNL     O9   23  -0.264  -0.336   0.184
    1UNL    C15   24  -0.491  -0.285   0.096
    1UNL    O10   25  -0.551  -0.353   0.200
    1UNL    C16   26  -0.576  -0.165   0.048
    1UNL    O11   27  -0.633  -0.203  -0.084
    1UNL    O12   28  -0.120   0.123  -0.016
    1UNL    C17   29  -0.032   0.147  -0.118
    1UNL    C18   30   0.106   0.146  -0.108
    1UNL    C19   31   0.186   0.173  -0.229
    1UNL    O13   32   0.158   0.265  -0.303
    1UNL     N1   33   0.305   0.107  -0.228
    1UNL    C20   34   0.422   0.152  -0.298
    1UNL    C21   35   0.535   0.061  -0.248
    1UNL    C22   36   0.487  -0.023  -0.153
    1UNL     N2   37   0.563  -0.121  -0.096
    1UNL    C23   38   0.690  -0.153  -0.151
    1UNL    C24   39   0.762  -0.259  -0.110
    1UNL    C25   40   0.887  -0.290  -0.158
    1UNL    O14   41   0.943  -0.411  -0.119
    1UNL    C26   42   0.944  -0.207  -0.259
    1UNL    C27   43   0.867  -0.098  -0.303
    1UNL    C28   44   0.743  -0.072  -0.248
    1UNL    C29   45   0.666   0.041  -0.300
    1UNL    O15   46   0.710   0.121  -0.386
    1UNL    C30   47   0.340  -0.002  -0.139
    1UNL    C31   48   0.305   0.031   0.006
    1UNL    C32   49   0.172   0.107   0.025
    1UNL     H1   50   0.033  -0.312   0.141
    1UNL     H2   51   0.094  -0.193   0.267
    1UNL     H3   52  -0.003  -0.140  -0.019
    1UNL     H4   53   0.123   0.028   0.218
    1UNL     H5   54  -0.042   0.218   0.144
    1UNL     H6   55  -0.317   0.128   0.329
    1UNL     H7   56  -0.262   0.486   0.251
    1UNL     H8   57  -0.335   0.412   0.462
    1UNL     H9   58  -0.481   0.456   0.392
    1UNL    H10   59  -0.501   0.238   0.324
    1UNL    H11   60  -0.467   0.474   0.091
    1UNL    H12   61  -0.222   0.331   0.020
    1UNL    H13   62  -0.486   0.254  -0.039
    1UNL    H14   63  -0.596   0.140   0.173
    1UNL    H15   64  -0.301   0.118   0.028
    1UNL    H16   65  -0.531   0.030  -0.037
    1UNL    H17   66  -0.196  -0.086   0.052
    1UNL    H18   67  -0.300  -0.303  -0.142
    1UNL    H19   68  -0.156  -0.331  -0.043
    1UNL    H20   69  -0.196  -0.115  -0.230
    1UNL    H21   70  -0.354  -0.157   0.214
    1UNL    H22   71  -0.316  -0.372   0.261
    1UNL    H23   72  -0.489  -0.360   0.008
    1UNL    H24   73  -0.605  -0.290   0.245
    1UNL    H25   74  -0.661  -0.125   0.125
    1UNL    H26   75  -0.580  -0.175  -0.161
    1UNL    H27   76  -0.071   0.167  -0.216
    1UNL    H28   77   0.442   0.252  -0.276
    1UNL    H29   78   0.414   0.143  -0.401
    1UNL    H30   79   0.519  -0.177  -0.033
    1UNL    H31   80   0.724  -0.325  -0.036
    1UNL    H32   81   1.035  -0.417  -0.159
    1UNL    H33   82   1.037  -0.231  -0.314
    1UNL    H34   83   0.908  -0.025  -0.371
    1UNL    H35   84   0.284  -0.094  -0.162
    1UNL    H36   85   0.305  -0.056   0.071
    1UNL    H37   86   0.384   0.097   0.045
    1UNL    H38   87   0.196   0.197   0.082
   0.00000   0.00000   0.00000   0.00000   0.00000   0.00000   0.00000   0.00000   0.00000
Generated with MDTraj, t= 93.0
 87
    1UNL     C1    1   0.056  -0.201   0.170
    1UNL     C2    2   0.038  -0.098   0.091
    1UNL     C3    3   0.065   0.037   0.142
    1UNL     C4    4  -0.067   0.121   0.147
    1UNL     O1    5  -0.170   0.061   0.229
    1UNL     C5    6  -0.278   0.148   0.233
    1UNL     O2    7  -0.228   0.285   0.255
    1UNL     C6    8  -0.325   0.390   0.242
    1UNL     C7    9  -0.413   0.384   0.371
    1UNL     O3   10  -0.471   0.266   0.374
    1UNL     C8   11  -0.396   0.388   0.103
    1UNL     O4   12  -0.302   0.421  -0.002
    1UNL     C9   13  -0.462   0.247   0.069
    1UNL     O5   14  -0.597   0.239   0.115
    1UNL    C10   15  -0.375   0.127   0.114
    1UNL     O6   16  -0.454   0.007   0.139
    1UNL    C11   17  -0.485  -0.051   0.010
    1UNL     O7   18  -0.363  -0.065  -0.074
    1UNL    C12   19  -0.269  -0.153  -0.017
    1UNL    C13   20  -0.216  -0.259  -0.116
    1UNL     O8   21  -0.143  -0.208  -0.221
    1UNL    C14   22  -0.319  -0.222   0.124
    1UNL     O9   23  -0.238  -0.330   0.165
    1UNL    C15   24  -0.463  -0.283   0.105
    1UNL    O10   25  -0.514  -0.327   0.227
    1UNL    C16   26  -0.558  -0.185   0.033
    1UNL    O11   27  -0.617  -0.223  -0.089
    1UNL    O12   28  -0.109   0.166   0.022
    1UNL    C17   29  -0.019   0.175  -0.076
    1UNL    C18   30   0.115   0.153  -0.070
    1UNL    C19   31   0.187   0.186  -0.195
    1UNL    O13   32   0.141   0.261  -0.281
    1UNL     N1   33   0.316   0.124  -0.197
    1UNL    C20   34   0.422   0.145  -0.302
    1UNL    C21   35   0.526   0.051  -0.256
    1UNL    C22   36   0.484  -0.023  -0.152
    1UNL     N2   37   0.568  -0.119  -0.103
    1UNL    C23   38   0.693  -0.153  -0.153
    1UNL    C24   39   0.774  -0.261  -0.111
    1UNL    C25   40   0.893  -0.297  -0.177
    1UNL    O14   41   0.954  -0.413  -0.122
    1UNL    C26   42   0.927  -0.222  -0.287
    1UNL    C27   43   0.850  -0.117  -0.332
    1UNL    C28   44   0.734  -0.079  -0.266
    1UNL    C29   45   0.651   0.027  -0.314
    1UNL    O15   46   0.697   0.091  -0.410
    1UNL    C30   47   0.343   0.005  -0.114
    1UNL    C31   48   0.308   0.025   0.034
    1UNL    C32   49   0.178   0.104   0.058
    1UNL     H1   50   0.033  -0.296   0.145
    1UNL     H2   51   0.063  -0.189   0.279
    1UNL     H3   52   0.026  -0.096  -0.019
    1UNL     H4   53   0.093   0.026   0.253
    1UNL     H5   54  -0.044   0.206   0.213
    1UNL     H6   55  -0.331   0.129   0.328
    1UNL     H7   56  -0.265   0.482   0.241
    1UNL     H8   57  -0.362   0.403   0.466
    1UNL     H9   58  -0.487   0.461   0.371
    1UNL    H10   59  -0.522   0.253   0.283
    1UNL    H11   60  -0.486   0.458   0.099
    1UNL    H12   61  -0.227   0.353   0.004
    1UNL    H13   62  -0.466   0.248  -0.053
    1UNL    H14   63  -0.619   0.150   0.158
    1UNL    H15   64  -0.303   0.104   0.030
    1UNL    H16   65  -0.546   0.025  -0.040
    1UNL    H17   66  -0.174  -0.098   0.003
    1UNL    H18   67  -0.298  -0.315  -0.160
    1UNL    H19   68  -0.153  -0.339  -0.072
    1UNL    H20   69  -0.176  -0.123  -0.251
    1UNL    H21   70  -0.303  -0.138   0.203
    1UNL    H22   71  -0.279  -0.367   0.243
    1UNL    H23   72  -0.471  -0.383   0.046
    1UNL    H24   73  -0.564  -0.256   0.275
    1UNL    H25   74  -0.644  -0.160   0.115
    1UNL    H26   75  -0.576  -0.179  -0.171
    1UNL    H27   76  -0.058   0.218  -0.178
    1UNL    H28   77   0.450   0.247  -0.303
    1UNL    H29   78   0.384   0.115  -0.395
    1UNL    H30   79   0.539  -0.179  -0.032
    1UNL    H31   80   0.745  -0.321  -0.027
    1UNL    H32   81   1.044  -0.443  -0.151
    1UNL    H33   82   1.018  -0.238  -0.339
    1UNL    H34   83   0.886  -0.065  -0.418
    1UNL    H35   84   0.276  -0.074  -0.153
    1UNL    H36   85   0.303  -0.069   0.091
    1UNL    H37   86   0.393   0.071   0.085
    1UNL    H38   87   0.202   0.196   0.109
   0.00000   0.00000   0.00000   0.00000   0.00000   0.00000   0.00000   0.00000   0.00000
Generated with MDTraj, t= 94.0
 87
    1UNL     C1    1   0.008  -0.191   0.162
    1UNL     C2    2   0.048  -0.093   0.087
    1UNL     C3    3   0.070   0.048   0.143
    1UNL     C4    4  -0.062   0.130   0.157
    1UNL     O1    5  -0.174   0.062   0.218
    1UNL     C5    6  -0.289   0.147   0.232
    1UNL     O2    7  -0.242   0.279   0.268
    1UNL     C6    8  -0.338   0.379   0.246
    1UNL     C7    9  -0.438   0.399   0.361
    1UNL     O3   10  -0.528   0.297   0.374
    1UNL     C8   11  -0.394   0.381   0.103
    1UNL     O4   12  -0.277   0.415   0.024
    1UNL     C9   13  -0.457   0.247   0.064
    1UNL     O5   14  -0.583   0.238   0.124
    1UNL    C10   15  -0.360   0.130   0.092
    1UNL     O6   16  -0.440   0.008   0.103
    1UNL    C11   17  -0.481  -0.056  -0.017
    1UNL     O7   18  -0.365  -0.086  -0.094
    1UNL    C12   19  -0.271  -0.158  -0.023
    1UNL    C13   20  -0.204  -0.250  -0.119
    1UNL     O8   21  -0.160  -0.188  -0.237
    1UNL    C14   22  -0.306  -0.236   0.116
    1UNL     O9   23  -0.212  -0.343   0.144
    1UNL    C15   24  -0.451  -0.287   0.113
    1UNL    O10   25  -0.479  -0.302   0.249
    1UNL    C16   26  -0.549  -0.196   0.026
    1UNL    O11   27  -0.585  -0.272  -0.085
    1UNL    O12   28  -0.099   0.200   0.036
    1UNL    C17   29  -0.006   0.212  -0.060
    1UNL    C18   30   0.128   0.183  -0.051
    1UNL    C19   31   0.199   0.200  -0.175
    1UNL    O13   32   0.155   0.264  -0.269
    1UNL     N1   33   0.319   0.125  -0.178
    1UNL    C20   34   0.415   0.133  -0.288
    1UNL    C21   35   0.518   0.032  -0.251
    1UNL    C22   36   0.481  -0.037  -0.136
    1UNL     N2   37   0.556  -0.141  -0.096
    1UNL    C23   38   0.677  -0.168  -0.159
    1UNL    C24   39   0.768  -0.268  -0.120
    1UNL    C25   40   0.885  -0.298  -0.186
    1UNL    O14   41   0.966  -0.389  -0.130
    1UNL    C26   42   0.921  -0.226  -0.302
    1UNL    C27   43   0.833  -0.131  -0.343
    1UNL    C28   44   0.721  -0.099  -0.273
    1UNL    C29   45   0.633   0.003  -0.324
    1UNL    O15   46   0.652   0.066  -0.426
    1UNL    C30   47   0.343   0.005  -0.087
    1UNL    C31   48   0.322   0.045   0.057
    1UNL    C32   49   0.188   0.122   0.076
    1UNL     H1   50  -0.005  -0.290   0.119
    1UNL     H2   51  -0.015  -0.170   0.268
    1UNL     H3   52   0.049  -0.097  -0.016
    1UNL     H4   53   0.103   0.040   0.253
    1UNL     H5   54  -0.037   0.211   0.228
    1UNL     H6   55  -0.346   0.115   0.320
    1UNL     H7   56  -0.271   0.467   0.233
    1UNL     H8   57  -0.378   0.408   0.455
    1UNL     H9   58  -0.490   0.494   0.367
    1UNL    H10   59  -0.568   0.282   0.291
    1UNL    H11   60  -0.472   0.462   0.086
    1UNL    H12   61  -0.216   0.341   0.032
    1UNL    H13   62  -0.460   0.241  -0.057
    1UNL    H14   63  -0.587   0.140   0.147
    1UNL    H15   64  -0.285   0.108   0.011
    1UNL    H16   65  -0.561  -0.001  -0.070
    1UNL    H17   66  -0.193  -0.080  -0.005
    1UNL    H18   67  -0.276  -0.326  -0.150
    1UNL    H19   68  -0.122  -0.312  -0.079
    1UNL    H20   69  -0.199  -0.098  -0.247
    1UNL    H21   70  -0.294  -0.150   0.195
    1UNL    H22   71  -0.253  -0.392   0.216
    1UNL    H23   72  -0.465  -0.389   0.060
    1UNL    H24   73  -0.532  -0.217   0.274
    1UNL    H25   74  -0.652  -0.186   0.085
    1UNL    H26   75  -0.556  -0.227  -0.170
    1UNL    H27   76  -0.052   0.235  -0.150
    1UNL    H28   77   0.455   0.231  -0.288
    1UNL    H29   78   0.365   0.113  -0.380
    1UNL    H30   79   0.526  -0.197  -0.011
    1UNL    H31   80   0.741  -0.332  -0.037
    1UNL    H32   81   1.047  -0.391  -0.184
    1UNL    H33   82   1.018  -0.234  -0.345
    1UNL    H34   83   0.848  -0.068  -0.432
    1UNL    H35   84   0.262  -0.064  -0.118
    1UNL    H36   85   0.332  -0.040   0.127
    1UNL    H37   86   0.409   0.102   0.092
    1UNL    H38   87   0.216   0.211   0.130
   0.00000   0.00000   0.00000   0.00000   0.00000   0.00000   0.00000   0.00000   0.00000
Generated with MDTraj, t= 95.0
 87
    1UNL     C1    1   0.025  -0.180   0.174
    1UNL     C2    2   0.052  -0.081   0.096
    1UNL     C3    3   0.070   0.060   0.155
    1UNL     C4    4  -0.064   0.140   0.173
    1UNL     O1    5  -0.160   0.071   0.247
    1UNL     C5    6  -0.283   0.146   0.249
    1UNL     O2    7  -0.251   0.280   0.269
    1UNL     C6    8  -0.344   0.383   0.249
    1UNL     C7    9  -0.441   0.394   0.364
    1UNL     O3   10  -0.525   0.281   0.374
    1UNL     C8   11  -0.400   0.382   0.103
    1UNL     O4   12  -0.304   0.417   0.003
    1UNL     C9   13  -0.456   0.234   0.077
    1UNL     O5   14  -0.592   0.210   0.105
    1UNL    C10   15  -0.359   0.118   0.118
    1UNL     O6   16  -0.427  -0.003   0.125
    1UNL    C11   17  -0.457  -0.061   0.000
    1UNL     O7   18  -0.344  -0.073  -0.083
    1UNL    C12   19  -0.248  -0.163  -0.033
    1UNL    C13   20  -0.199  -0.259  -0.137
    1UNL     O8   21  -0.183  -0.185  -0.255
    1UNL    C14   22  -0.293  -0.244   0.096
    1UNL     O9   23  -0.206  -0.361   0.128
    1UNL    C15   24  -0.443  -0.282   0.103
    1UNL    O10   25  -0.478  -0.273   0.240
    1UNL    C16   26  -0.528  -0.201   0.011
    1UNL    O11   27  -0.561  -0.255  -0.112
    1UNL    O12   28  -0.111   0.198   0.043
    1UNL    C17   29  -0.013   0.215  -0.055
    1UNL    C18   30   0.118   0.202  -0.050
    1UNL    C19   31   0.204   0.219  -0.169
    1UNL    O13   32   0.175   0.307  -0.246
    1UNL     N1   33   0.303   0.120  -0.192
    1UNL    C20   34   0.412   0.123  -0.292
    1UNL    C21   35   0.508   0.020  -0.257
    1UNL    C22   36   0.477  -0.041  -0.139
    1UNL     N2   37   0.564  -0.136  -0.088
    1UNL    C23   38   0.677  -0.177  -0.162
    1UNL    C24   39   0.761  -0.274  -0.104
    1UNL    C25   40   0.877  -0.301  -0.171
    1UNL    O14   41   0.960  -0.396  -0.115
    1UNL    C26   42   0.911  -0.243  -0.297
    1UNL    C27   43   0.827  -0.150  -0.348
    1UNL    C28   44   0.712  -0.114  -0.282
    1UNL    C29   45   0.622  -0.009  -0.339
    1UNL    O15   46   0.643   0.041  -0.453
    1UNL    C30   47   0.333   0.013  -0.097
    1UNL    C31   48   0.309   0.072   0.046
    1UNL    C32   49   0.176   0.146   0.080
    1UNL     H1   50   0.016  -0.284   0.143
    1UNL     H2   51   0.011  -0.158   0.272
    1UNL     H3   52   0.071  -0.092  -0.016
    1UNL     H4   53   0.105   0.062   0.265
    1UNL     H5   54  -0.047   0.237   0.224
    1UNL     H6   55  -0.341   0.112   0.333
    1UNL     H7   56  -0.277   0.473   0.244
    1UNL     H8   57  -0.392   0.405   0.466
    1UNL     H9   58  -0.496   0.488   0.362
    1UNL    H10   59  -0.562   0.262   0.283
    1UNL    H11   60  -0.495   0.440   0.101
    1UNL    H12   61  -0.230   0.350   0.015
    1UNL    H13   62  -0.461   0.241  -0.043
    1UNL    H14   63  -0.611   0.114   0.095
    1UNL    H15   64  -0.294   0.095   0.030
    1UNL    H16   65  -0.536   0.007  -0.039
    1UNL    H17   66  -0.178  -0.084   0.007
    1UNL    H18   67  -0.263  -0.344  -0.155
    1UNL    H19   68  -0.108  -0.302  -0.094
    1UNL    H20   69  -0.233  -0.102  -0.240
    1UNL    H21   70  -0.286  -0.163   0.179
    1UNL    H22   71  -0.258  -0.418   0.190
    1UNL    H23   72  -0.453  -0.391   0.069
    1UNL    H24   73  -0.498  -0.173   0.267
    1UNL    H25   74  -0.623  -0.181   0.076
    1UNL    H26   75  -0.498  -0.233  -0.182
    1UNL    H27   76  -0.053   0.252  -0.144
    1UNL    H28   77   0.457   0.221  -0.289
    1UNL    H29   78   0.367   0.110  -0.389
    1UNL    H30   79   0.535  -0.187   0.005
    1UNL    H31   80   0.726  -0.318  -0.012
    1UNL    H32   81   1.034  -0.411  -0.173
    1UNL    H33   82   1.003  -0.276  -0.349
    1UNL    H34   83   0.843  -0.098  -0.438
    1UNL    H35   84   0.274  -0.078  -0.116
    1UNL    H36   85   0.327  -0.007   0.120
    1UNL    H37   86   0.397   0.129   0.072
    1UNL    H38   87   0.204   0.230   0.143
   0.00000   0.00000   0.00000   0.00000   0.00000   0.00000   0.00000   0.00000   0.00000
Generated with MDTraj, t= 96.0
 87
    1UNL     C1    1   0.046  -0.169   0.197
    1UNL     C2    2   0.063  -0.069   0.113
    1UNL     C3    3   0.087   0.070   0.156
    1UNL     C4    4  -0.052   0.148   0.166
    1UNL     O1    5  -0.149   0.088   0.248
    1UNL     C5    6  -0.268   0.169   0.242
    1UNL     O2    7  -0.241   0.306   0.258
    1UNL     C6    8  -0.356   0.385   0.248
    1UNL     C7    9  -0.453   0.365   0.367
    1UNL     O3   10  -0.480   0.232   0.398
    1UNL     C8   11  -0.414   0.372   0.101
    1UNL     O4   12  -0.317   0.407   0.003
    1UNL     C9   13  -0.464   0.223   0.077
    1UNL     O5   14  -0.587   0.199   0.141
    1UNL    C10   15  -0.353   0.121   0.119
    1UNL     O6   16  -0.412  -0.001   0.138
    1UNL    C11   17  -0.439  -0.054   0.010
    1UNL     O7   18  -0.320  -0.070  -0.076
    1UNL    C12   19  -0.237  -0.178  -0.045
    1UNL    C13   20  -0.244  -0.269  -0.168
    1UNL     O8   21  -0.183  -0.200  -0.275
    1UNL    C14   22  -0.281  -0.241   0.087
    1UNL     O9   23  -0.204  -0.360   0.105
    1UNL    C15   24  -0.434  -0.281   0.098
    1UNL    O10   25  -0.476  -0.271   0.231
    1UNL    C16   26  -0.512  -0.192   0.003
    1UNL    O11   27  -0.510  -0.238  -0.132
    1UNL    O12   28  -0.102   0.185   0.039
    1UNL    C17   29  -0.006   0.210  -0.056
    1UNL    C18   30   0.127   0.202  -0.051
    1UNL    C19   31   0.204   0.222  -0.175
    1UNL    O13   32   0.186   0.313  -0.251
    1UNL     N1   33   0.284   0.117  -0.211
    1UNL    C20   34   0.392   0.120  -0.310
    1UNL    C21   35   0.496   0.025  -0.264
    1UNL    C22   36   0.462  -0.031  -0.145
    1UNL     N2   37   0.549  -0.114  -0.075
    1UNL    C23   38   0.659  -0.152  -0.141
    1UNL    C24   39   0.737  -0.249  -0.085
    1UNL    C25   40   0.846  -0.304  -0.152
    1UNL    O14   41   0.918  -0.401  -0.084
    1UNL    C26   42   0.877  -0.263  -0.279
    1UNL    C27   43   0.805  -0.165  -0.339
    1UNL    C28   44   0.692  -0.114  -0.276
    1UNL    C29   45   0.614  -0.010  -0.340
    1UNL    O15   46   0.644   0.040  -0.448
    1UNL    C30   47   0.321   0.010  -0.111
    1UNL    C31   48   0.311   0.063   0.034
    1UNL    C32   49   0.194   0.151   0.075
    1UNL     H1   50   0.050  -0.278   0.174
    1UNL     H2   51   0.036  -0.152   0.303
    1UNL     H3   52   0.098  -0.080   0.018
    1UNL     H4   53   0.117   0.079   0.266
    1UNL     H5   54  -0.043   0.252   0.209
    1UNL     H6   55  -0.317   0.139   0.332
    1UNL     H7   56  -0.309   0.487   0.243
    1UNL     H8   57  -0.400   0.410   0.457
    1UNL     H9   58  -0.544   0.427   0.363
    1UNL    H10   59  -0.533   0.195   0.316
    1UNL    H11   60  -0.494   0.444   0.079
    1UNL    H12   61  -0.240   0.346   0.011
    1UNL    H13   62  -0.477   0.233  -0.042
    1UNL    H14   63  -0.625   0.112   0.106
    1UNL    H15   64  -0.294   0.101   0.028
    1UNL    H16   65  -0.494   0.030  -0.043
    1UNL    H17   66  -0.138  -0.132  -0.025
    1UNL    H18   67  -0.349  -0.289  -0.187
    1UNL    H19   68  -0.194  -0.364  -0.150
    1UNL    H20   69  -0.201  -0.105  -0.268
    1UNL    H21   70  -0.250  -0.172   0.170
    1UNL    H22   71  -0.258  -0.423   0.162
    1UNL    H23   72  -0.447  -0.385   0.056
    1UNL    H24   73  -0.457  -0.187   0.263
    1UNL    H25   74  -0.621  -0.184   0.040
    1UNL    H26   75  -0.563  -0.202  -0.203
    1UNL    H27   76  -0.044   0.250  -0.160
    1UNL    H28   77   0.433   0.221  -0.318
    1UNL    H29   78   0.349   0.091  -0.406
    1UNL    H30   79   0.535  -0.157   0.019
    1UNL    H31   80   0.722  -0.287   0.015
    1UNL    H32   81   0.985  -0.435  -0.142
    1UNL    H33   82   0.961  -0.306  -0.323
    1UNL    H34   83   0.848  -0.127  -0.436
    1UNL    H35   84   0.252  -0.072  -0.137
    1UNL    H36   85   0.316  -0.029   0.097
    1UNL    H37   86   0.410   0.094   0.068
    1UNL    H38   87   0.232   0.235   0.134
   0.00000   0.00000   0.00000   0.00000   0.00000   0.00000   0.00000   0.00000   0.00000
Generated with MDTraj, t= 97.0
 87
    1UNL     C1    1   0.016  -0.137   0.198
    1UNL     C2    2   0.070  -0.054   0.111
    1UNL     C3    3   0.088   0.088   0.149
    1UNL     C4    4  -0.055   0.157   0.162
    1UNL     O1    5  -0.154   0.078   0.229
    1UNL     C5    6  -0.274   0.159   0.245
    1UNL     O2    7  -0.231   0.296   0.268
    1UNL     C6    8  -0.345   0.379   0.270
    1UNL     C7    9  -0.421   0.365   0.405
    1UNL     O3   10  -0.489   0.245   0.420
    1UNL     C8   11  -0.417   0.368   0.129
    1UNL     O4   12  -0.330   0.417   0.041
    1UNL     C9   13  -0.459   0.223   0.087
    1UNL     O5   14  -0.572   0.183   0.158
    1UNL    C10   15  -0.343   0.124   0.107
    1UNL     O6   16  -0.387  -0.012   0.107
    1UNL    C11   17  -0.433  -0.051  -0.016
    1UNL     O7   18  -0.323  -0.073  -0.112
    1UNL    C12   19  -0.232  -0.182  -0.062
    1UNL    C13   20  -0.211  -0.295  -0.178
    1UNL     O8   21  -0.186  -0.221  -0.297
    1UNL    C14   22  -0.260  -0.246   0.074
    1UNL     O9   23  -0.173  -0.354   0.096
    1UNL    C15   24  -0.412  -0.285   0.087
    1UNL    O10   25  -0.446  -0.284   0.221
    1UNL    C16   26  -0.506  -0.192   0.009
    1UNL    O11   27  -0.546  -0.248  -0.117
    1UNL    O12   28  -0.102   0.226   0.044
    1UNL    C17   29  -0.023   0.237  -0.069
    1UNL    C18   30   0.110   0.201  -0.071
    1UNL    C19   31   0.185   0.225  -0.196
    1UNL    O13   32   0.165   0.312  -0.278
    1UNL     N1   33   0.281   0.126  -0.219
    1UNL    C20   34   0.385   0.121  -0.324
    1UNL    C21   35   0.489   0.028  -0.267
    1UNL    C22   36   0.451  -0.027  -0.147
    1UNL     N2   37   0.522  -0.123  -0.083
    1UNL    C23   38   0.646  -0.173  -0.138
    1UNL    C24   39   0.726  -0.267  -0.078
    1UNL    C25   40   0.841  -0.318  -0.135
    1UNL    O14   41   0.904  -0.416  -0.066
    1UNL    C26   42   0.885  -0.267  -0.255
    1UNL    C27   43   0.807  -0.168  -0.319
    1UNL    C28   44   0.687  -0.123  -0.258
    1UNL    C29   45   0.611  -0.022  -0.325
    1UNL    O15   46   0.654   0.025  -0.427
    1UNL    C30   47   0.322   0.031  -0.111
    1UNL    C31   48   0.317   0.101   0.025
    1UNL    C32   49   0.181   0.166   0.056
    1UNL     H1   50   0.001  -0.235   0.180
    1UNL     H2   51  -0.011  -0.114   0.302
    1UNL     H3   52   0.063  -0.074   0.001
    1UNL     H4   53   0.143   0.099   0.247
    1UNL     H5   54  -0.040   0.243   0.232
    1UNL     H6   55  -0.327   0.129   0.333
    1UNL     H7   56  -0.305   0.483   0.271
    1UNL     H8   57  -0.347   0.378   0.491
    1UNL     H9   58  -0.489   0.451   0.410
    1UNL    H10   59  -0.537   0.233   0.339
    1UNL    H11   60  -0.506   0.430   0.140
    1UNL    H12   61  -0.254   0.356   0.051
    1UNL    H13   62  -0.484   0.222  -0.029
    1UNL    H14   63  -0.595   0.101   0.120
    1UNL    H15   64  -0.274   0.120   0.021
    1UNL    H16   65  -0.496   0.029  -0.067
    1UNL    H17   66  -0.129  -0.139  -0.055
    1UNL    H18   67  -0.303  -0.348  -0.199
    1UNL    H19   68  -0.131  -0.367  -0.161
    1UNL    H20   69  -0.214  -0.125  -0.298
    1UNL    H21   70  -0.242  -0.179   0.158
    1UNL    H22   71  -0.211  -0.407   0.171
    1UNL    H23   72  -0.439  -0.388   0.052
    1UNL    H24   73  -0.460  -0.188   0.263
    1UNL    H25   74  -0.599  -0.165   0.068
    1UNL    H26   75  -0.582  -0.173  -0.171
    1UNL    H27   76  -0.069   0.275  -0.158
    1UNL    H28   77   0.430   0.222  -0.337
    1UNL    H29   78   0.346   0.082  -0.420
    1UNL    H30   79   0.491  -0.151   0.003
    1UNL    H31   80   0.682  -0.310   0.010
    1UNL    H32   81   0.985  -0.442  -0.110
    1UNL    H33   82   0.978  -0.308  -0.302
    1UNL    H34   83   0.837  -0.121  -0.406
    1UNL    H35   84   0.242  -0.045  -0.122
    1UNL    H36   85   0.340   0.023   0.101
    1UNL    H37   86   0.408   0.159   0.040
    1UNL    H38   87   0.210   0.268   0.094
   0.00000   0.00000   0.00000   0.00000   0.00000   0.00000   0.00000   0.00000   0.00000
Generated with MDTraj, t= 98.0
 87
    1UNL     C1    1   0.038  -0.118   0.171
    1UNL     C2    2   0.066  -0.022   0.088
    1UNL     C3    3   0.095   0.113   0.145
    1UNL     C4    4  -0.045   0.178   0.157
    1UNL     O1    5  -0.134   0.082   0.212
    1UNL     C5    6  -0.263   0.141   0.246
    1UNL     O2    7  -0.249   0.278   0.282
    1UNL     C6    8  -0.358   0.382   0.294
    1UNL     C7    9  -0.450   0.370   0.422
    1UNL     O3   10  -0.497   0.245   0.434
    1UNL     C8   11  -0.427   0.381   0.157
    1UNL     O4   12  -0.340   0.437   0.058
    1UNL     C9   13  -0.459   0.230   0.115
    1UNL     O5   14  -0.576   0.179   0.173
    1UNL    C10   15  -0.348   0.126   0.121
    1UNL     O6   16  -0.406  -0.007   0.119
    1UNL    C11   17  -0.434  -0.056  -0.017
    1UNL     O7   18  -0.322  -0.060  -0.105
    1UNL    C12   19  -0.226  -0.169  -0.076
    1UNL    C13   20  -0.242  -0.276  -0.187
    1UNL     O8   21  -0.188  -0.239  -0.312
    1UNL    C14   22  -0.250  -0.239   0.058
    1UNL     O9   23  -0.156  -0.332   0.092
    1UNL    C15   24  -0.395  -0.298   0.072
    1UNL    O10   25  -0.428  -0.315   0.211
    1UNL    C16   26  -0.497  -0.203  -0.000
    1UNL    O11   27  -0.539  -0.265  -0.115
    1UNL    O12   28  -0.087   0.252   0.038
    1UNL    C17   29  -0.013   0.251  -0.074
    1UNL    C18   30   0.120   0.214  -0.084
    1UNL    C19   31   0.179   0.205  -0.216
    1UNL    O13   32   0.127   0.258  -0.314
    1UNL     N1   33   0.289   0.114  -0.223
    1UNL    C20   34   0.402   0.129  -0.312
    1UNL    C21   35   0.500   0.030  -0.261
    1UNL    C22   36   0.447  -0.035  -0.153
    1UNL     N2   37   0.514  -0.140  -0.097
    1UNL    C23   38   0.639  -0.186  -0.145
    1UNL    C24   39   0.710  -0.284  -0.079
    1UNL    C25   40   0.836  -0.326  -0.118
    1UNL    O14   41   0.885  -0.432  -0.036
    1UNL    C26   42   0.888  -0.263  -0.239
    1UNL    C27   43   0.813  -0.166  -0.300
    1UNL    C28   44   0.690  -0.122  -0.255
    1UNL    C29   45   0.621  -0.016  -0.324
    1UNL    O15   46   0.657   0.024  -0.432
    1UNL    C30   47   0.323   0.030  -0.109
    1UNL    C31   48   0.325   0.106   0.024
    1UNL    C32   49   0.192   0.182   0.044
    1UNL     H1   50   0.002  -0.213   0.137
    1UNL     H2   51   0.031  -0.090   0.280
    1UNL     H3   52   0.045  -0.035  -0.021
    1UNL     H4   53   0.134   0.108   0.250
    1UNL     H5   54  -0.047   0.244   0.246
    1UNL     H6   55  -0.297   0.090   0.333
    1UNL     H7   56  -0.296   0.472   0.299
    1UNL     H8   57  -0.379   0.386   0.508
    1UNL     H9   58  -0.529   0.444   0.413
    1UNL    H10   59  -0.533   0.214   0.347
    1UNL    H11   60  -0.509   0.453   0.147
    1UNL    H12   61  -0.255   0.382   0.054
    1UNL    H13   62  -0.489   0.253   0.002
    1UNL    H14   63  -0.607   0.087   0.135
    1UNL    H15   64  -0.284   0.129   0.032
    1UNL    H16   65  -0.514  -0.005  -0.078
    1UNL    H17   66  -0.127  -0.120  -0.082
    1UNL    H18   67  -0.345  -0.311  -0.204
    1UNL    H19   68  -0.178  -0.364  -0.162
    1UNL    H20   69  -0.172  -0.143  -0.325
    1UNL    H21   70  -0.230  -0.162   0.128
    1UNL    H22   71  -0.170  -0.371   0.179
    1UNL    H23   72  -0.402  -0.399   0.033
    1UNL    H24   73  -0.429  -0.217   0.241
    1UNL    H25   74  -0.579  -0.206   0.073
    1UNL    H26   75  -0.585  -0.195  -0.172
    1UNL    H27   76  -0.059   0.296  -0.155
    1UNL    H28   77   0.428   0.239  -0.305
    1UNL    H29   78   0.366   0.101  -0.415
    1UNL    H30   79   0.471  -0.197  -0.032
    1UNL    H31   80   0.667  -0.339   0.004
    1UNL    H32   81   0.973  -0.454  -0.071
    1UNL    H33   82   0.984  -0.276  -0.279
    1UNL    H34   83   0.854  -0.126  -0.398
    1UNL    H35   84   0.246  -0.048  -0.098
    1UNL    H36   85   0.339   0.037   0.109
    1UNL    H37   86   0.406   0.176   0.030
    1UNL    H38   87   0.210   0.285   0.090
   0.00000   0.00000   0.00000   0.00000   0.00000   0.00000   0.00000   0.00000   0.00000
Generated with MDTraj, t= 99.0
 87
    1UNL     C1    1   0.119  -0.142   0.153
    1UNL     C2    2   0.068  -0.035   0.095
    1UNL     C3    3   0.088   0.109   0.130
    1UNL     C4    4  -0.052   0.177   0.152
    1UNL     O1    5  -0.139   0.098   0.228
    1UNL     C5    6  -0.264   0.168   0.251
    1UNL     O2    7  -0.241   0.309   0.273
    1UNL     C6    8  -0.366   0.384   0.288
    1UNL     C7    9  -0.445   0.337   0.408
    1UNL     O3   10  -0.475   0.199   0.414
    1UNL     C8   11  -0.439   0.373   0.154
    1UNL     O4   12  -0.353   0.434   0.057
    1UNL     C9   13  -0.473   0.227   0.114
    1UNL     O5   14  -0.587   0.170   0.177
    1UNL    C10   15  -0.351   0.137   0.127
    1UNL     O6   16  -0.392  -0.003   0.142
    1UNL    C11   17  -0.425  -0.048   0.007
    1UNL     O7   18  -0.322  -0.045  -0.085
    1UNL    C12   19  -0.230  -0.156  -0.079
    1UNL    C13   20  -0.246  -0.249  -0.198
    1UNL     O8   21  -0.198  -0.207  -0.325
    1UNL    C14   22  -0.239  -0.227   0.055
    1UNL     O9   23  -0.157  -0.334   0.078
    1UNL    C15   24  -0.387  -0.281   0.074
    1UNL    O10   25  -0.415  -0.326   0.211
    1UNL    C16   26  -0.495  -0.188   0.009
    1UNL    O11   27  -0.535  -0.234  -0.113
    1UNL    O12   28  -0.105   0.236   0.034
    1UNL    C17   29  -0.029   0.234  -0.079
    1UNL    C18   30   0.098   0.199  -0.098
    1UNL    C19   31   0.167   0.198  -0.228
    1UNL    O13   32   0.116   0.253  -0.325
    1UNL     N1   33   0.284   0.116  -0.224
    1UNL    C20   34   0.388   0.101  -0.325
    1UNL    C21   35   0.496   0.011  -0.262
    1UNL    C22   36   0.455  -0.030  -0.145
    1UNL     N2   37   0.521  -0.125  -0.076
    1UNL    C23   38   0.639  -0.179  -0.124
    1UNL    C24   39   0.708  -0.284  -0.065
    1UNL    C25   40   0.830  -0.329  -0.116
    1UNL    O14   41   0.893  -0.434  -0.051
    1UNL    C26   42   0.887  -0.274  -0.230
    1UNL    C27   43   0.814  -0.181  -0.296
    1UNL    C28   44   0.695  -0.128  -0.245
    1UNL    C29   45   0.625  -0.025  -0.315
    1UNL    O15   46   0.670   0.037  -0.409
    1UNL    C30   47   0.319   0.026  -0.110
    1UNL    C31   48   0.318   0.109   0.014
    1UNL    C32   49   0.178   0.178   0.025
    1UNL     H1   50   0.081  -0.241   0.128
    1UNL     H2   51   0.176  -0.130   0.236
    1UNL     H3   52   0.016  -0.053   0.010
    1UNL     H4   53   0.153   0.101   0.220
    1UNL     H5   54  -0.024   0.256   0.223
    1UNL     H6   55  -0.312   0.135   0.341
    1UNL     H7   56  -0.339   0.488   0.306
    1UNL     H8   57  -0.379   0.355   0.497
    1UNL     H9   58  -0.540   0.389   0.404
    1UNL    H10   59  -0.533   0.188   0.329
    1UNL    H11   60  -0.537   0.420   0.172
    1UNL    H12   61  -0.270   0.381   0.049
    1UNL    H13   62  -0.518   0.235   0.004
    1UNL    H14   63  -0.593   0.077   0.164
    1UNL    H15   64  -0.292   0.130   0.036
    1UNL    H16   65  -0.494   0.025  -0.044
    1UNL    H17   66  -0.135  -0.101  -0.082
    1UNL    H18   67  -0.352  -0.271  -0.219
    1UNL    H19   68  -0.196  -0.347  -0.177
    1UNL    H20   69  -0.191  -0.111  -0.321
    1UNL    H21   70  -0.227  -0.156   0.131
    1UNL    H22   71  -0.178  -0.357   0.169
    1UNL    H23   72  -0.405  -0.376   0.025
    1UNL    H24   73  -0.390  -0.255   0.270
    1UNL    H25   74  -0.577  -0.181   0.074
    1UNL    H26   75  -0.550  -0.150  -0.166
    1UNL    H27   76  -0.090   0.262  -0.173
    1UNL    H28   77   0.430   0.200  -0.359
    1UNL    H29   78   0.347   0.047  -0.415
    1UNL    H30   79   0.475  -0.150   0.015
    1UNL    H31   80   0.675  -0.335   0.022
    1UNL    H32   81   0.983  -0.467  -0.085
    1UNL    H33   82   0.984  -0.313  -0.260
    1UNL    H34   83   0.853  -0.133  -0.379
    1UNL    H35   84   0.243  -0.052  -0.099
    1UNL    H36   85   0.333   0.056   0.109
    1UNL    H37   86   0.387   0.191   0.006
    1UNL    H38   87   0.192   0.279   0.078
   0.00000   0.00000   0.00000   0.00000   0.00000   0.00000   0.00000   0.00000   0.00000
