1TPCN04874
29
    1res  C1    1   -0.614  -0.520  -0.019
    1res  C2    2   -0.721  -0.296   0.140
    1res  C3    3   -0.505  -0.261  -0.023
    1res  C4    4   -0.724   0.011   0.038
    1res  C5    5   -0.914   0.215   0.045
    1res  C6    6   -1.198   0.235   0.180
    1res  C7    7   -1.027   0.460   0.040
    1res  C8    8   -0.856   0.486   0.239
    1res  C9    9   -0.685   0.318   0.216
    1res  C10   10   -0.439   0.003   0.174
    1res  C11   11   -0.378   0.086  -0.113
    1res  C12   12   -0.257  -0.147  -0.266
    1res  C13   13   -0.117   0.035  -0.053
    1res  C14   14    0.037  -0.291  -0.107
    1res  C15   15    0.173  -0.015  -0.200
    1res  C16   16    0.349  -0.035  -0.008
    1res  C17   17    0.601  -0.083   0.024
    1res  C18   18    0.764  -0.371   0.124
    1res  C19   19    0.905  -0.099   0.003
    1res  C20   20    0.811   0.092  -0.051
    1res  C21   21    0.951   0.319  -0.031
    1res  C22   22    0.949   0.360   0.221
    1res  C23   23    1.190   0.401   0.014
    1res  C24   24    1.111   0.424  -0.219
    1res  C25   25    1.105   0.192  -0.258
    1res  C26   26    0.619   0.122  -0.120
    1res  C27   27    0.291  -0.191   0.187
    1res  C28   28    0.335  -0.346  -0.069
    1res  C29   29   -0.050  -0.063   0.170
  10.00000  10.00000  10.00000
