1TPCN04444
30
    1res  C1    1    0.810  -0.287   0.159
    1res  C2    2    0.672  -0.383  -0.075
    1res  C3    3    0.548  -0.120   0.011
    1res  C4    4    0.754  -0.033  -0.075
    1res  C5    5    0.845   0.237  -0.038
    1res  C6    6    0.942   0.338  -0.262
    1res  C7    7    0.848   0.504  -0.014
    1res  C8    8    0.811   0.391   0.228
    1res  C9    9    0.838   0.174   0.215
    1res  C10   10    0.458  -0.144  -0.253
    1res  C11   11    0.305  -0.334  -0.064
    1res  C12   12    0.193  -0.095   0.160
    1res  C13   13    0.088  -0.213  -0.186
    1res  C14   14   -0.152  -0.191  -0.092
    1res  C15   15   -0.252  -0.112   0.152
    1res  C16   16   -0.381   0.035  -0.007
    1res  C17   17   -0.567   0.219   0.000
    1res  C18   18   -0.705   0.520  -0.017
    1res  C19   19   -0.744   0.333   0.216
    1res  C20   20   -0.690   0.109   0.283
    1res  C21   21   -0.687   0.011   0.061
    1res  C22   22   -0.845  -0.124  -0.017
    1res  C23   23   -1.020   0.041  -0.191
    1res  C24   24   -1.203  -0.082  -0.073
    1res  C25   25   -1.129  -0.231   0.112
    1res  C26   26   -0.970  -0.013   0.159
    1res  C27   27   -0.153   0.196   0.038
    1res  C28   28   -0.299   0.186  -0.235
    1res  C29   29    0.108   0.064  -0.172
    1res  C30   30    0.503  -0.276   0.254
  10.00000  10.00000  10.00000
