1TPCN05299
24
    1res  C1    1   -0.891   0.052   0.093
    1res  C2    2   -0.745  -0.137  -0.117
    1res  C3    3   -0.527  -0.099  -0.140
    1res  C4    4   -0.422  -0.195   0.078
    1res  C5    5   -0.327   0.045   0.086
    1res  C6    6   -0.072   0.146  -0.050
    1res  C7    7   -0.122   0.160   0.230
    1res  C8    8   -0.008  -0.198   0.183
    1res  C9    9    0.130   0.011   0.211
    1res  C10   10    0.344  -0.118   0.210
    1res  C11   11    0.557  -0.300   0.267
    1res  C12   12    0.598  -0.032   0.166
    1res  C13   13    0.423   0.129  -0.031
    1res  C14   14    0.617   0.099  -0.252
    1res  C15   15    0.773   0.254  -0.183
    1res  C16   16    0.820   0.004  -0.373
    1res  C17   17    0.602  -0.087  -0.444
    1res  C18   18    0.528  -0.165  -0.234
    1res  C19   19    0.277   0.208   0.252
    1res  C20   20    0.108   0.030   0.470
    1res  C21   21   -0.364   0.050  -0.243
    1res  C22   22   -0.833  -0.099  -0.302
    1res  C23   23   -0.896   0.110  -0.326
    1res  C24   24   -0.885   0.198  -0.093
  10.00000  10.00000  10.00000
