[ moleculetype ]
; name        nrexcl
res           1

[ atoms ]
;    nr  type resnr resid  atom  cgnr     charge       mass
      1 TC4       1 res   C1        1      0.000     36.000
      2 SN6a      1 res   C2        2      0.000     54.000
      3 TC5       1 res   C3        3      0.000     36.000
      4 TN4a      1 res   C4        4      0.000     36.000
      5 SN6a      1 res   C5        5      0.000     54.000
      6 SC3       1 res   C6        6      0.000     54.000
      7 TC4       1 res   C7        7      0.000     36.000
      8 TC3       1 res   C8        8      0.000     36.000
      9 TC5       1 res   C9        9      0.000     36.000
     10 TN6a      1 res   C10      10      0.000     36.000
     11 TN4a      1 res   C11      11      0.000     36.000

[ bonds ]
;  ai    aj   funct      b0(nm)        k
    1     2     1      0.31273    20000
    1     7     1      0.29034    20000
    2     3     1      0.30143    20000
    3     4     1      0.24152    20000
    3     5     1      0.31895    20000
    3     6     1      0.25652    20000
    3     7     1      0.25906    20000
    4     5     1      0.26513    20000
    5     6     1      0.34384    20000
    7     8     1      0.27436    20000
    8     9     1      0.23982    20000
    9    10     1      0.22465    20000
    9    11     1      0.25853    20000
   10    11     1      0.28811    20000
