1TPCN05532
30
    1res  C1    1    0.970   0.160  -0.155
    1res  C2    2    0.759   0.033  -0.257
    1res  C3    3    0.669  -0.071  -0.070
    1res  C4    4    0.830  -0.294   0.188
    1res  C5    5    1.043  -0.125   0.384
    1res  C6    6    1.104   0.125   0.396
    1res  C7    7    0.866   0.072   0.240
    1res  C8    8    0.557  -0.338  -0.185
    1res  C9    9    0.389  -0.104  -0.164
    1res  C10   10    0.155   0.122   0.010
    1res  C11   11    0.067   0.017  -0.300
    1res  C12   12    0.015  -0.141  -0.080
    1res  C13   13   -0.260  -0.099  -0.139
    1res  C14   14   -0.344   0.163  -0.185
    1res  C15   15   -0.555   0.044  -0.096
    1res  C16   16   -0.669   0.270  -0.041
    1res  C17   17   -0.521   0.491   0.160
    1res  C18   18   -0.878   0.429   0.121
    1res  C19   19   -0.906   0.382  -0.115
    1res  C20   20   -0.876   0.162  -0.098
    1res  C21   21   -0.876  -0.117   0.020
    1res  C22   22   -0.926  -0.366   0.028
    1res  C23   23   -1.036  -0.147   0.249
    1res  C24   24   -1.198  -0.019   0.101
    1res  C25   25   -1.124  -0.032  -0.119
    1res  C26   26   -0.485  -0.084   0.101
    1res  C27   27   -0.127  -0.132   0.140
    1res  C28   28    0.236  -0.064   0.174
    1res  C29   29    0.466  -0.017   0.159
    1res  C30   30    0.481   0.239  -0.041
  10.00000  10.00000  10.00000
