[ moleculetype ]
; name        nrexcl
res           1

[ atoms ]
;    nr  type resnr resid  atom  cgnr     charge       mass
      1 C1        1 res   C1        1      0.000     72.000
      2 SN4a      1 res   C2        2      0.000     54.000
      3 TC3       1 res   C3        3      0.000     36.000
      4 N4a       1 res   C4        4      0.000     72.000
      5 TC5       1 res   C5        5      0.000     36.000
      6 TC5       1 res   C6        6      0.000     36.000
      7 TC5       1 res   C7        7      0.000     36.000
      8 SC4       1 res   C8        8      0.000     54.000
      9 SC5       1 res   C9        9      0.000     54.000
     10 SC4       1 res   C10      10      0.000     54.000
     11 TC3       1 res   C11      11      0.000     36.000
     12 SC4       1 res   C12      12      0.000     54.000
     13 SC4       1 res   C13      13      0.000     54.000
     14 TC3       1 res   C14      14      0.000     36.000
     15 TN6       1 res   C15      15      0.000     36.000
     16 SN4a      1 res   C16      16      0.000     54.000
     17 SP2       1 res   C17      17      0.000     54.000
     18 TN6       1 res   C18      18      0.000     36.000
     19 TN6       1 res   C19      19      0.000     36.000
     20 TN6       1 res   C20      20      0.000     36.000
     21 SN4a      1 res   C21      21      0.000     54.000
     22 TP1       1 res   C22      22      0.000     36.000
     23 TN6       1 res   C23      23      0.000     36.000
     24 TN6       1 res   C24      24      0.000     36.000
     25 TN6       1 res   C25      25      0.000     36.000
     26 SC4       1 res   C26      26      0.000     54.000
     27 TC3       1 res   C27      27      0.000     36.000
     28 TN6       1 res   C28      28      0.000     36.000
     29 TN6       1 res   C29      29      0.000     36.000
     30 TP1       1 res   C30      30      0.000     36.000

[ bonds ]
;  ai    aj   funct      b0(nm)        k
    1     2     1      0.26691    20000
    2     3     1      0.23153    20000
    3     4     1      0.37688    20000
    3     8     1      0.31219    20000
    3     9     1      0.29753    20000
    4     5     1      0.33578    20000
    5     6     1      0.25824    20000
    5     7     1      0.30187    20000
    6     7     1      0.29024    20000
    8     9     1      0.28912    20000
    9    10     1      0.36871    20000
    9    29     1      0.34267    20000
    9    30     1      0.37548    20000
   10    11     1      0.33851    20000
   10    12     1      0.31138    20000
   10    28     1      0.26065    20000
   11    12     1      0.27653    20000
   12    13     1      0.28355    20000
   12    27     1      0.26157    20000
   13    14     1      0.27887    20000
   13    26     1      0.33003    20000
   13    27     1      0.31108    20000
   14    15     1      0.25832    20000
   15    16     1      0.25883    20000
   15    26     1      0.24573    20000
   16    17     1      0.33316    20000
   16    18     1      0.30854    20000
   16    20     1      0.24045    20000
   18    19     1      0.24212    20000
   19    20     1      0.22283    20000
   20    21     1      0.30289    20000
   21    22     1      0.25390    20000
   21    23     1      0.28060    20000
   21    25     1      0.29652    20000
   23    24     1      0.25374    20000
   24    25     1      0.23282    20000
   28    29     1      0.23503    20000
