1TPCN04836
27
    1res  C1    1   -0.859  -0.239  -0.162
    1res  C2    2   -0.710  -0.302   0.094
    1res  C3    3   -0.606  -0.136  -0.106
    1res  C4    4   -0.672  -0.015   0.208
    1res  C5    5   -0.973   0.111   0.247
    1res  C6    6   -1.150   0.225   0.047
    1res  C7    7   -0.919   0.284  -0.034
    1res  C8    8   -0.802   0.338   0.149
    1res  C9    9   -0.349  -0.098   0.153
    1res  C10   10   -0.435   0.135  -0.010
    1res  C11   11   -0.265  -0.176  -0.185
    1res  C12   12   -0.221   0.155  -0.204
    1res  C13   13    0.069  -0.010  -0.269
    1res  C14   14    0.126  -0.092   0.019
    1res  C15   15    0.345  -0.005  -0.074
    1res  C16   16    0.637   0.037   0.023
    1res  C17   17    0.827  -0.106   0.094
    1res  C18   18    1.074   0.035   0.178
    1res  C19   19    1.239   0.269   0.143
    1res  C20   20    1.340  -0.034   0.268
    1res  C21   21    1.307  -0.197   0.094
    1res  C22   22    1.067  -0.249   0.124
    1res  C23   23    0.715  -0.263   0.003
    1res  C24   24    0.504  -0.228  -0.018
    1res  C25   25    0.294   0.263  -0.081
    1res  C26   26    0.295   0.169  -0.344
    1res  C27   27   -0.048   0.216   0.011
  10.00000  10.00000  10.00000
