1TPCN05265
38
    1res  C1    1    0.099  -0.048   0.329
    1res  C2    2    0.293   0.078   0.174
    1res  C3    3    0.054   0.064  -0.010
    1res  C4    4    0.245   0.054  -0.154
    1res  C5    5    0.484  -0.095  -0.249
    1res  C6    6    0.740   0.033  -0.170
    1res  C7    7    0.988   0.067  -0.023
    1res  C8    8    0.992  -0.197   0.114
    1res  C9    9    1.233  -0.035   0.011
    1res  C10   10    1.444  -0.020   0.005
    1res  C11   11    1.659   0.077  -0.172
    1res  C12   12    1.732   0.075   0.067
    1res  C13   13    1.684  -0.145   0.167
    1res  C14   14    1.449  -0.038   0.247
    1res  C15   15    1.227   0.133  -0.167
    1res  C16   16    1.059  -0.033  -0.283
    1res  C17   17    0.630  -0.189   0.003
    1res  C18   18    0.468  -0.329  -0.017
    1res  C19   19    0.377  -0.314  -0.256
    1res  C20   20    0.057   0.318  -0.070
    1res  C21   21   -0.120   0.323   0.131
    1res  C22   22   -0.284   0.065   0.206
    1res  C23   23   -0.335   0.352  -0.039
    1res  C24   24   -0.574   0.234  -0.028
    1res  C25   25   -0.711   0.073   0.130
    1res  C26   26   -0.892  -0.149   0.061
    1res  C27   27   -0.890  -0.423  -0.010
    1res  C28   28   -0.994  -0.461   0.213
    1res  C29   29   -1.198  -0.331   0.123
    1res  C30   30   -1.093  -0.172   0.023
    1res  C31   31   -1.368  -0.025   0.033
    1res  C32   32   -1.564  -0.182  -0.011
    1res  C33   33   -1.495   0.134  -0.146
    1res  C34   34   -1.318   0.242  -0.104
    1res  C35   35   -1.128   0.133  -0.068
    1res  C36   36   -0.700  -0.010  -0.210
    1res  C37   37   -0.351   0.116  -0.199
    1res  C38   38   -0.012  -0.187   0.092
  10.00000  10.00000  10.00000
