1D-fucose
7
    1res  C1    1   -0.288   0.044   0.079
    1res  C2    2   -0.042  -0.113   0.055
    1res  C3    3    0.078   0.041  -0.008
    1res  C4    4    0.022  -0.237  -0.074
    1res  C5    5    0.304  -0.092  -0.029
    1res  C6    6    0.197   0.174  -0.051
    1res  C7    7   -0.075   0.225  -0.119
  10.00000  10.00000  10.00000
