[ moleculetype ]
; name        nrexcl
res           1

[ atoms ]
;    nr  type  resnr resid  atom  cgnr     charge       mass
      1 SN4a      1 res   C1        1      0.000     54.000
      2 TC3       1 res   C2        2      0.000     36.000
      3 TC3       1 res   C3        3      0.000     36.000
      4 SN6d      1 res   C4        4      0.000     54.000
      5 TN6d      1 res   C5        5      0.000     36.000
      6 TC5       1 res   C6        6      0.000     36.000
      7 TC5       1 res   C7        7      0.000     36.000
      8 TC5       1 res   C8        8      0.000     36.000
      9 SC3       1 res   C9        9      0.000     54.000
     10 SC4       1 res   C10      10      0.000     54.000
     11 TN4a      1 res   C11      11      0.000     36.000

[ constraints ]
;  ai    aj   funct      b0(nm)
   10    11     1      0.29748
    4     9     1      0.26422
    2     3     1      0.24618
    4     5     1      0.24144
    6     9     1      0.32978
    2     9     1      0.24632
    6     8     1      0.24876
    3     4     1      0.24702
    3    10     1      0.36221
    5     6     1      0.18022
    7     8     1      0.28977
    4    10     1      0.33604
    6     7     1      0.24808

[ bonds ]
;  ai    aj   funct      b0(nm)          k(kJ/mol/nm^2)
    1     2     1      0.31893          10041.2

[ angles ]
;  ai    aj    ak  funct     th0(deg)        k(kJ/mol/rad^2)
    1     2     3     1    136.27104           182.61
    1     2     9     1    116.69733           190.94
    2     3     4     1     78.15345          2539.45
    2     3    10     1     86.21798          1914.27
    2     9     4     1     74.93334          2716.02
    2     9     6     1     80.58988          1341.42
    3     2     9     1    103.95453          1739.60
    3     4     5     1    108.46711           281.72
    3     4     9     1     98.66075          3078.48
    3     4    10     1     75.08162          3079.68
    3    10     4     1     41.21404         10622.79
    3    10    11     1     53.57689          1237.84
    4     3    10     1     63.70431          2839.32
    4     5     6     1    112.78119          2657.48
    4     9     6     1     71.91035          3487.65
    4    10    11     1     89.18203           665.59
    5     4     9     1     89.38611          1302.96
    5     4    10     1    167.49996           789.08
    5     6     7     1    101.58975          1643.47
    5     6     8     1    170.22691           730.54
    5     6     9     1     82.98092          2222.93
    6     7     8     1     54.42976          7538.76
    6     8     7     1     54.20941          9541.82
    7     6     8     1     71.36082          5518.24
    7     6     9     1    159.28960           173.03
    8     6     9     1    103.53828           655.84
    9     4    10     1     79.48562          1839.26

[ dihedrals ]
;  ai    aj    ak    al  funct   phi0(deg)        k(kJ/mol)   mult
    1     2     3     4     1    -37.45158       20.926      1
    1     2     3    10     1     28.41152       21.464      1
    1     2     9     4     1     28.97700       17.099      1
    1     2     9     6     1    103.65337       15.754      1
    2     3     4     5     1    103.93589        6.272      1
    2     3     4     9     1   -164.96477        5.511      1
    2     3     4    10     1    -88.93048        5.534      1
    2     3    10     4     1    101.04533        5.502      1
    2     3    10    11     1    -42.08943       10.733      1
    2     9     4     3     1    164.95471        5.517      1
    2     9     4     5     1    -87.08360        9.982      1
    2     9     4    10     1     91.04481        5.513      1
    2     9     6     5     1     91.01690        8.586      1
    2     9     6     7     1    -18.62683       15.530      1
    2     9     6     8     1    -87.09275       14.406      1
    3     2     9     4     1   -164.00502        6.244      1
    3     2     9     6     1    -90.05659        6.262      1
    3     4     5     6     1    -98.91088       14.340      1
    3     4     9     6     1     79.80660        6.293      1
    3     4    10    11     1   -152.95983        8.521      1
    3    10     4     5     1    -77.68784       25.848      1
    3    10     4     9     1    -76.14405        4.709      1
    4     3     2     9     1    162.08402        6.247      1
    4     3    10    11     1     33.98255       10.735      1
    4     5     6     7     1     -6.88940       12.973      1
    4     5     6     8     1     -2.89604       29.987      1
    4     5     6     9     1   -165.91770        9.321      1
    4     9     6     5     1    168.02535        7.863      1
    4     9     6     7     1     56.68239       14.882      1
    4     9     6     8     1     -9.07078       14.405      1
    5     4     3    10     1     11.04476        5.541      1
    5     4     9     6     1   -171.03982        7.043      1
    5     4    10    11     1    -54.92372       28.499      1
    5     6     7     8     1     -2.13969       13.650      1
    5     6     8     7     1    178.01068       30.325      1
    6     5     4     9     1    163.05574       11.525      1
    6     5     4    10     1    164.88921       29.683      1
    6     9     4    10     1      7.55250        7.741      1
    7     8     6     9     1    -21.06361       12.954      1
    8     7     6     9     1    105.03538       19.665      1
    9     2     3    10     1   -133.93059        6.325      1
    9     4     3    10     1    104.89561        5.515      1
    9     4    10    11     1    -50.96364        8.564      1
