1TPCN03196
12
    1res  C1    1    0.757  -0.040  -0.177
    1res  C2    2    0.571   0.018   0.009
    1res  C3    3    0.303  -0.022   0.186
    1res  C4    4    0.157   0.105  -0.019
    1res  C5    5   -0.047   0.123   0.156
    1res  C6    6   -0.225  -0.098   0.212
    1res  C7    7   -0.067  -0.301   0.113
    1res  C8    8   -0.394  -0.235   0.088
    1res  C9    9   -0.227  -0.107  -0.152
    1res  C10   10   -0.543   0.079   0.023
    1res  C11   11   -0.387   0.211  -0.180
    1res  C12   12   -0.144   0.132  -0.183
  10.00000  10.00000  10.00000
