1TPCN02193
13
    1res  C1    1    0.105   0.236  -0.187
    1res  C2    2   -0.124   0.215  -0.260
    1res  C3    3   -0.257   0.116  -0.069
    1res  C4    4   -0.250  -0.021  -0.224
    1res  C5    5   -0.404  -0.075  -0.021
    1res  C6    6   -0.287  -0.250   0.100
    1res  C7    7   -0.097  -0.086   0.219
    1res  C8    8   -0.042   0.190   0.118
    1res  C9    9    0.046  -0.059  -0.127
    1res  C10   10    0.226  -0.029   0.022
    1res  C11   11    0.450  -0.031   0.131
    1res  C12   12    0.553  -0.175  -0.062
    1res  C13   13    0.610  -0.055   0.091
  10.00000  10.00000  10.00000
