1TPCN06210
24
    1res  C1    1   -0.549   0.171   0.239
    1res  C2    2   -0.394   0.131  -0.040
    1res  C3    3   -0.540  -0.047  -0.113
    1res  C4    4   -0.755  -0.081  -0.014
    1res  C5    5   -0.935   0.170  -0.039
    1res  C6    6   -1.021  -0.049   0.123
    1res  C7    7   -0.909  -0.279   0.183
    1res  C8    8   -0.669  -0.259   0.158
    1res  C9    9   -0.259   0.038  -0.269
    1res  C10   10   -0.192  -0.173  -0.056
    1res  C11   11   -0.007   0.158  -0.082
    1res  C12   12    0.038  -0.168  -0.273
    1res  C13   13    0.300   0.086  -0.157
    1res  C14   14    0.410  -0.160  -0.245
    1res  C15   15    0.534  -0.225   0.004
    1res  C16   16    0.431  -0.082   0.186
    1res  C17   17    0.536   0.100   0.018
    1res  C18   18    0.823   0.173   0.008
    1res  C19   19    0.899  -0.075  -0.056
    1res  C20   20    1.049   0.177   0.180
    1res  C21   21    0.849   0.089   0.321
    1res  C22   22    0.723   0.271   0.273
    1res  C23   23    0.124  -0.197   0.033
    1res  C24   24   -0.247   0.182   0.218
  10.00000  10.00000  10.00000
