1TPCN06121
25
    1res  C1    1   -1.155  -0.131  -0.052
    1res  C2    2   -0.919  -0.113  -0.012
    1res  C3    3   -0.861   0.004   0.172
    1res  C4    4   -0.803   0.179  -0.055
    1res  C5    5   -0.591  -0.043  -0.040
    1res  C6    6   -0.656  -0.054  -0.288
    1res  C7    7   -0.420  -0.135  -0.173
    1res  C8    8   -0.235   0.009  -0.047
    1res  C9    9   -0.075  -0.028  -0.215
    1res  C10   10   -0.073  -0.169   0.043
    1res  C11   11    0.266  -0.127  -0.041
    1res  C12   12    0.245   0.085   0.084
    1res  C13   13    0.497   0.161   0.058
    1res  C14   14    0.731   0.052  -0.089
    1res  C15   15    1.035  -0.001   0.029
    1res  C16   16    0.928  -0.177   0.184
    1res  C17   17    1.136  -0.253  -0.058
    1res  C18   18    1.042  -0.190  -0.235
    1res  C19   19    1.022   0.049  -0.238
    1res  C20   20    0.767   0.288   0.103
    1res  C21   21    0.604   0.395   0.246
    1res  C22   22    0.421   0.289   0.260
    1res  C23   23    0.058   0.035   0.243
    1res  C24   24   -0.391  -0.009   0.183
    1res  C25   25   -0.465   0.238  -0.015
  10.00000  10.00000  10.00000
