1TPCN05059
34
    1res  C1    1   -0.835  -0.513  -0.081
    1res  C2    2   -0.936  -0.241  -0.132
    1res  C3    3   -0.687  -0.279  -0.030
    1res  C4    4   -0.866   0.017   0.048
    1res  C5    5   -0.977   0.315   0.085
    1res  C6    6   -0.919   0.586   0.022
    1res  C7    7   -1.198   0.461  -0.035
    1res  C8    8   -1.278   0.253   0.048
    1res  C9    9   -1.130   0.099   0.029
    1res  C10   10   -0.625   0.026  -0.154
    1res  C11   11   -0.489   0.016   0.120
    1res  C12   12   -0.387  -0.260   0.186
    1res  C13   13   -0.321  -0.151  -0.131
    1res  C14   14   -0.037  -0.239   0.031
    1res  C15   15   -0.021   0.029   0.220
    1res  C16   16    0.215  -0.032   0.119
    1res  C17   17    0.453  -0.082   0.213
    1res  C18   18    0.618  -0.270   0.075
    1res  C19   19    0.725  -0.037   0.259
    1res  C20   20    0.649   0.150   0.207
    1res  C21   21    0.811   0.300   0.069
    1res  C22   22    1.011   0.458  -0.063
    1res  C23   23    0.881   0.181  -0.148
    1res  C24   24    1.075  -0.017  -0.029
    1res  C25   25    1.319   0.038  -0.011
    1res  C26   26    1.226  -0.237  -0.067
    1res  C27   27    1.000  -0.322  -0.090
    1res  C28   28    0.906  -0.152  -0.242
    1res  C29   29    0.681   0.260  -0.247
    1res  C30   30    0.594   0.396  -0.088
    1res  C31   31    0.447   0.161   0.305
    1res  C32   32    0.203  -0.170  -0.104
    1res  C33   33    0.220   0.103  -0.167
    1res  C34   34   -0.180   0.089  -0.090
  10.00000  10.00000  10.00000
