1TPCN03671
21
    1res  C1    1    0.180  -0.611  -0.037
    1res  C2    2    0.042  -0.328  -0.086
    1res  C3    3    0.221  -0.037  -0.070
    1res  C4    4    0.428  -0.018   0.148
    1res  C5    5    0.515   0.179   0.057
    1res  C6    6    0.752   0.286  -0.141
    1res  C7    7    0.988   0.286  -0.206
    1res  C8    8    0.914   0.053  -0.223
    1res  C9    9    0.702   0.012  -0.205
    1res  C10   10    0.559   0.074   0.345
    1res  C11   11    0.447  -0.101   0.456
    1res  C12   12    0.292  -0.176   0.321
    1res  C13   13   -0.016  -0.049   0.134
    1res  C14   14   -0.127   0.161   0.104
    1res  C15   15   -0.228  -0.044  -0.176
    1res  C16   16   -0.332   0.224  -0.107
    1res  C17   17   -0.557  -0.035   0.103
    1res  C18   18   -0.674  -0.137  -0.129
    1res  C19   19   -0.918  -0.027  -0.053
    1res  C20   20   -0.801   0.212  -0.093
    1res  C21   21   -0.501   0.295   0.093
  10.00000  10.00000  10.00000
