[ moleculetype ]
; name        nrexcl
res           1

[ atoms ]
;    nr  type resnr resid  atom  cgnr     charge       mass
      1 SN6       1 res   C1        1      0.000     54.000
      2 TC3       1 res   C2        2      0.000     36.000
      3 SC5       1 res   C3        3      0.000     54.000
      4 SP2       1 res   C4        4      0.000     54.000
      5 TC3       1 res   C5        5      0.000     36.000
      6 SC4       1 res   C6        6      0.000     54.000
      7 TC3       1 res   C7        7      0.000     36.000
      8 SC4       1 res   C8        8      0.000     54.000
      9 SC4       1 res   C9        9      0.000     54.000
     10 TC3       1 res   C10      10      0.000     36.000
     11 TN6       1 res   C11      11      0.000     36.000
     12 SN4a      1 res   C12      12      0.000     54.000
     13 TP1       1 res   C13      13      0.000     36.000
     14 TN6       1 res   C14      14      0.000     36.000
     15 TN6       1 res   C15      15      0.000     36.000
     16 TN6       1 res   C16      16      0.000     36.000
     17 SN4a      1 res   C17      17      0.000     54.000
     18 TN6       1 res   C18      18      0.000     36.000
     19 TN6       1 res   C19      19      0.000     36.000
     20 TN6       1 res   C20      20      0.000     36.000
     21 SC4       1 res   C21      21      0.000     54.000
     22 TC3       1 res   C22      22      0.000     36.000

[ bonds ]
;  ai    aj   funct      b0(nm)        k
    1     2     1      0.30028    20000
    1     3     1      0.28677    20000
    2     3     1      0.27945    20000
    3     4     1      0.33779    20000
    3     5     1      0.36823    20000
    3     6     1      0.34858    20000
    5     6     1      0.27883    20000
    6     7     1      0.37019    20000
    6     8     1      0.31896    20000
    7     8     1      0.27713    20000
    8     9     1      0.33671    20000
    8    22     1      0.28602    20000
    9    10     1      0.27325    20000
    9    21     1      0.32755    20000
    9    22     1      0.32295    20000
   10    11     1      0.25655    20000
   11    12     1      0.27639    20000
   11    21     1      0.24896    20000
   12    13     1      0.29145    20000
   12    14     1      0.27093    20000
   12    16     1      0.26324    20000
   14    15     1      0.21505    20000
   15    16     1      0.22806    20000
   16    17     1      0.25126    20000
   17    18     1      0.27495    20000
   17    20     1      0.29137    20000
   18    19     1      0.26647    20000
   19    20     1      0.21100    20000
