Generated with MDTraj, t= 0.0
 48
    1UNL     C1    1  -0.507   0.101  -0.019
    1UNL     C2    2  -0.422   0.074   0.099
    1UNL     C3    3  -0.292   0.049   0.093
    1UNL     C4    4  -0.209   0.023   0.214
    1UNL     N1    5  -0.063  -0.006   0.173
    1UNL     C5    6   0.017  -0.030   0.299
    1UNL     C6    7  -0.006   0.115   0.095
    1UNL     C7    8  -0.099   0.148  -0.025
    1UNL     C8    9  -0.212   0.043  -0.035
    1UNL     C9   10  -0.151  -0.100  -0.047
    1UNL    C10   11  -0.083  -0.119  -0.183
    1UNL     O1   12  -0.166  -0.083  -0.291
    1UNL    C11   13  -0.060  -0.129   0.078
    1UNL    C12   14   0.086  -0.168   0.045
    1UNL    C13   15   0.172  -0.048   0.021
    1UNL    C14   16   0.131   0.081   0.046
    1UNL     N2   17   0.233   0.168   0.013
    1UNL    C15   18   0.340   0.095  -0.034
    1UNL    C16   19   0.467   0.134  -0.081
    1UNL    C17   20   0.554   0.036  -0.122
    1UNL    C18   21   0.519  -0.100  -0.118
    1UNL    C19   22   0.396  -0.140  -0.073
    1UNL    C20   23   0.305  -0.042  -0.030
    1UNL     H1   24  -0.472   0.188  -0.074
    1UNL     H2   25  -0.507   0.016  -0.088
    1UNL     H3   26  -0.611   0.119   0.009
    1UNL     H4   27  -0.468   0.076   0.197
    1UNL     H5   28  -0.248  -0.063   0.270
    1UNL     H6   29  -0.211   0.109   0.281
    1UNL     H7   30  -0.020  -0.119   0.351
    1UNL     H8   31   0.122  -0.045   0.275
    1UNL     H9   32   0.009   0.055   0.365
    1UNL    H10   33   0.001   0.199   0.164
    1UNL    H11   34  -0.142   0.248  -0.013
    1UNL    H12   35  -0.041   0.152  -0.117
    1UNL    H13   36  -0.275   0.063  -0.122
    1UNL    H14   37  -0.236  -0.171  -0.044
    1UNL    H15   38  -0.050  -0.223  -0.198
    1UNL    H16   39   0.007  -0.056  -0.190
    1UNL    H17   40  -0.250  -0.134  -0.288
    1UNL    H18   41  -0.106  -0.211   0.136
    1UNL    H19   42   0.129  -0.227   0.127
    1UNL    H20   43   0.089  -0.234  -0.042
    1UNL    H21   44   0.229   0.270   0.019
    1UNL    H22   45   0.493   0.238  -0.084
    1UNL    H23   46   0.651   0.065  -0.159
    1UNL    H24   47   0.590  -0.173  -0.152
    1UNL    H25   48   0.368  -0.243  -0.070
   0.00000   0.00000   0.00000   0.00000   0.00000   0.00000   0.00000   0.00000   0.00000
Generated with MDTraj, t= 1.0
 48
    1UNL     C1    1  -0.502   0.118  -0.014
    1UNL     C2    2  -0.429   0.074   0.105
    1UNL     C3    3  -0.295   0.055   0.096
    1UNL     C4    4  -0.209   0.017   0.217
    1UNL     N1    5  -0.068  -0.009   0.175
    1UNL     C5    6   0.014  -0.032   0.296
    1UNL     C6    7  -0.003   0.110   0.101
    1UNL     C7    8  -0.094   0.153  -0.022
    1UNL     C8    9  -0.212   0.048  -0.031
    1UNL     C9   10  -0.157  -0.094  -0.052
    1UNL    C10   11  -0.086  -0.132  -0.187
    1UNL     O1   12  -0.150  -0.102  -0.307
    1UNL    C11   13  -0.062  -0.132   0.075
    1UNL    C12   14   0.081  -0.168   0.041
    1UNL    C13   15   0.175  -0.053   0.030
    1UNL    C14   16   0.133   0.075   0.055
    1UNL     N2   17   0.232   0.168   0.013
    1UNL    C15   18   0.336   0.092  -0.040
    1UNL    C16   19   0.458   0.140  -0.083
    1UNL    C17   20   0.550   0.048  -0.122
    1UNL    C18   21   0.523  -0.090  -0.120
    1UNL    C19   22   0.402  -0.139  -0.069
    1UNL    C20   23   0.305  -0.042  -0.026
    1UNL     H1   24  -0.567   0.043  -0.048
    1UNL     H2   25  -0.563   0.211   0.009
    1UNL     H3   26  -0.434   0.136  -0.097
    1UNL     H4   27  -0.476   0.053   0.201
    1UNL     H5   28  -0.250  -0.068   0.261
    1UNL     H6   29  -0.216   0.092   0.297
    1UNL     H7   30  -0.018  -0.128   0.336
    1UNL     H8   31   0.120  -0.037   0.274
    1UNL     H9   32   0.002   0.044   0.372
    1UNL    H10   33   0.006   0.186   0.184
    1UNL    H11   34  -0.123   0.257  -0.009
    1UNL    H12   35  -0.035   0.145  -0.118
    1UNL    H13   36  -0.259   0.080  -0.123
    1UNL    H14   37  -0.252  -0.148  -0.042
    1UNL    H15   38  -0.055  -0.236  -0.185
    1UNL    H16   39   0.007  -0.070  -0.194
    1UNL    H17   40  -0.225  -0.163  -0.320
    1UNL    H18   41  -0.103  -0.219   0.125
    1UNL    H19   42   0.121  -0.232   0.121
    1UNL    H20   43   0.080  -0.219  -0.054
    1UNL    H21   44   0.241   0.264   0.036
    1UNL    H22   45   0.481   0.244  -0.109
    1UNL    H23   46   0.627   0.073  -0.197
    1UNL    H24   47   0.572  -0.159  -0.202
    1UNL    H25   48   0.378  -0.249  -0.081
   0.00000   0.00000   0.00000   0.00000   0.00000   0.00000   0.00000   0.00000   0.00000
Generated with MDTraj, t= 2.0
 48
    1UNL     C1    1  -0.501   0.123  -0.019
    1UNL     C2    2  -0.422   0.092   0.096
    1UNL     C3    3  -0.295   0.039   0.097
    1UNL     C4    4  -0.212   0.002   0.216
    1UNL     N1    5  -0.068  -0.013   0.173
    1UNL     C5    6   0.002  -0.036   0.307
    1UNL     C6    7  -0.011   0.108   0.101
    1UNL     C7    8  -0.103   0.143  -0.021
    1UNL     C8    9  -0.212   0.034  -0.032
    1UNL     C9   10  -0.151  -0.104  -0.053
    1UNL    C10   11  -0.074  -0.107  -0.191
    1UNL     O1   12  -0.174  -0.105  -0.298
    1UNL    C11   13  -0.053  -0.131   0.077
    1UNL    C12   14   0.096  -0.166   0.048
    1UNL    C13   15   0.178  -0.046   0.039
    1UNL    C14   16   0.128   0.082   0.055
    1UNL     N2   17   0.227   0.172   0.016
    1UNL    C15   18   0.340   0.106  -0.037
    1UNL    C16   19   0.471   0.136  -0.081
    1UNL    C17   20   0.559   0.037  -0.127
    1UNL    C18   21   0.517  -0.097  -0.129
    1UNL    C19   22   0.395  -0.136  -0.083
    1UNL    C20   23   0.307  -0.036  -0.033
    1UNL     H1   24  -0.527   0.225  -0.022
    1UNL     H2   25  -0.441   0.111  -0.116
    1UNL     H3   26  -0.589   0.059  -0.011
    1UNL     H4   27  -0.462   0.115   0.191
    1UNL     H5   28  -0.251  -0.075   0.271
    1UNL     H6   29  -0.231   0.084   0.290
    1UNL     H7   30  -0.033  -0.125   0.360
    1UNL     H8   31   0.111  -0.035   0.310
    1UNL     H9   32  -0.018   0.049   0.371
    1UNL    H10   33  -0.009   0.202   0.170
    1UNL    H11   34  -0.157   0.236  -0.015
    1UNL    H12   35  -0.033   0.147  -0.111
    1UNL    H13   36  -0.279   0.049  -0.118
    1UNL    H14   37  -0.237  -0.173  -0.043
    1UNL    H15   38  -0.017  -0.197  -0.199
    1UNL    H16   39  -0.006  -0.018  -0.209
    1UNL    H17   40  -0.140  -0.151  -0.379
    1UNL    H18   41  -0.087  -0.212   0.139
    1UNL    H19   42   0.136  -0.225   0.131
    1UNL    H20   43   0.096  -0.224  -0.041
    1UNL    H21   44   0.219   0.270   0.014
    1UNL    H22   45   0.506   0.235  -0.074
    1UNL    H23   46   0.656   0.068  -0.161
    1UNL    H24   47   0.583  -0.164  -0.162
    1UNL    H25   48   0.369  -0.234  -0.076
   0.00000   0.00000   0.00000   0.00000   0.00000   0.00000   0.00000   0.00000   0.00000
Generated with MDTraj, t= 3.0
 48
    1UNL     C1    1  -0.504   0.117  -0.024
    1UNL     C2    2  -0.422   0.077   0.091
    1UNL     C3    3  -0.290   0.049   0.088
    1UNL     C4    4  -0.205   0.031   0.211
    1UNL     N1    5  -0.065  -0.011   0.173
    1UNL     C5    6   0.019  -0.039   0.302
    1UNL     C6    7  -0.007   0.109   0.098
    1UNL     C7    8  -0.094   0.138  -0.027
    1UNL     C8    9  -0.206   0.035  -0.038
    1UNL     C9   10  -0.156  -0.112  -0.044
    1UNL    C10   11  -0.090  -0.137  -0.178
    1UNL     O1   12  -0.165  -0.080  -0.291
    1UNL    C11   13  -0.063  -0.138   0.084
    1UNL    C12   14   0.086  -0.169   0.041
    1UNL    C13   15   0.171  -0.053   0.021
    1UNL    C14   16   0.133   0.075   0.053
    1UNL     N2   17   0.232   0.163   0.027
    1UNL    C15   18   0.340   0.098  -0.026
    1UNL    C16   19   0.462   0.144  -0.083
    1UNL    C17   20   0.548   0.053  -0.128
    1UNL    C18   21   0.517  -0.083  -0.127
    1UNL    C19   22   0.396  -0.134  -0.084
    1UNL    C20   23   0.303  -0.042  -0.029
    1UNL     H1   24  -0.468   0.075  -0.119
    1UNL     H2   25  -0.606   0.069  -0.029
    1UNL     H3   26  -0.518   0.225  -0.023
    1UNL     H4   27  -0.456   0.085   0.198
    1UNL     H5   28  -0.256  -0.042   0.265
    1UNL     H6   29  -0.211   0.109   0.288
    1UNL     H7   30  -0.009  -0.129   0.356
    1UNL     H8   31   0.126  -0.043   0.281
    1UNL     H9   32   0.030   0.042   0.374
    1UNL    H10   33  -0.015   0.203   0.169
    1UNL    H11   34  -0.144   0.235  -0.020
    1UNL    H12   35  -0.033   0.134  -0.123
    1UNL    H13   36  -0.262   0.040  -0.132
    1UNL    H14   37  -0.243  -0.182  -0.036
    1UNL    H15   38  -0.080  -0.240  -0.200
    1UNL    H16   39   0.005  -0.075  -0.183
    1UNL    H17   40  -0.164   0.020  -0.288
    1UNL    H18   41  -0.096  -0.227   0.132
    1UNL    H19   42   0.126  -0.227   0.123
    1UNL    H20   43   0.091  -0.231  -0.047
    1UNL    H21   44   0.227   0.258   0.006
    1UNL    H22   45   0.483   0.251  -0.068
    1UNL    H23   46   0.653   0.084  -0.124
    1UNL    H24   47   0.599  -0.161  -0.126
    1UNL    H25   48   0.365  -0.241  -0.063
   0.00000   0.00000   0.00000   0.00000   0.00000   0.00000   0.00000   0.00000   0.00000
Generated with MDTraj, t= 4.0
 48
    1UNL     C1    1  -0.530   0.106  -0.008
    1UNL     C2    2  -0.430   0.059   0.099
    1UNL     C3    3  -0.294   0.039   0.088
    1UNL     C4    4  -0.210   0.016   0.208
    1UNL     N1    5  -0.058  -0.010   0.168
    1UNL     C5    6   0.018  -0.036   0.299
    1UNL     C6    7  -0.002   0.116   0.099
    1UNL     C7    8  -0.094   0.158  -0.019
    1UNL     C8    9  -0.209   0.050  -0.038
    1UNL     C9   10  -0.146  -0.093  -0.055
    1UNL    C10   11  -0.076  -0.122  -0.185
    1UNL     O1   12  -0.163  -0.104  -0.291
    1UNL    C11   13  -0.060  -0.129   0.071
    1UNL    C12   14   0.084  -0.165   0.038
    1UNL    C13   15   0.168  -0.048   0.010
    1UNL    C14   16   0.131   0.080   0.047
    1UNL     N2   17   0.234   0.173   0.018
    1UNL    C15   18   0.343   0.096  -0.019
    1UNL    C16   19   0.463   0.140  -0.079
    1UNL    C17   20   0.552   0.041  -0.122
    1UNL    C18   21   0.519  -0.100  -0.119
    1UNL    C19   22   0.395  -0.136  -0.073
    1UNL    C20   23   0.306  -0.041  -0.022
    1UNL     H1   24  -0.633   0.087   0.028
    1UNL     H2   25  -0.524   0.211  -0.031
    1UNL     H3   26  -0.503   0.061  -0.110
    1UNL     H4   27  -0.450   0.070   0.200
    1UNL     H5   28  -0.244  -0.059   0.273
    1UNL     H6   29  -0.224   0.100   0.274
    1UNL     H7   30  -0.025  -0.126   0.340
    1UNL     H8   31   0.126  -0.052   0.286
    1UNL     H9   32   0.031   0.039   0.380
    1UNL    H10   33   0.012   0.201   0.181
    1UNL    H11   34  -0.147   0.252   0.012
    1UNL    H12   35  -0.034   0.181  -0.111
    1UNL    H13   36  -0.266   0.081  -0.127
    1UNL    H14   37  -0.226  -0.170  -0.046
    1UNL    H15   38  -0.058  -0.225  -0.192
    1UNL    H16   39   0.008  -0.049  -0.205
    1UNL    H17   40  -0.177  -0.009  -0.312
    1UNL    H18   41  -0.111  -0.205   0.126
    1UNL    H19   42   0.134  -0.223   0.116
    1UNL    H20   43   0.087  -0.226  -0.049
    1UNL    H21   44   0.232   0.269   0.039
    1UNL    H22   45   0.481   0.243  -0.097
    1UNL    H23   46   0.649   0.066  -0.164
    1UNL    H24   47   0.592  -0.176  -0.159
    1UNL    H25   48   0.367  -0.238  -0.092
   0.00000   0.00000   0.00000   0.00000   0.00000   0.00000   0.00000   0.00000   0.00000
Generated with MDTraj, t= 5.0
 48
    1UNL     C1    1  -0.524   0.079  -0.009
    1UNL     C2    2  -0.421   0.078   0.100
    1UNL     C3    3  -0.287   0.050   0.095
    1UNL     C4    4  -0.214   0.014   0.213
    1UNL     N1    5  -0.062  -0.012   0.176
    1UNL     C5    6   0.014  -0.038   0.301
    1UNL     C6    7  -0.009   0.114   0.098
    1UNL     C7    8  -0.105   0.159  -0.014
    1UNL     C8    9  -0.207   0.047  -0.036
    1UNL     C9   10  -0.137  -0.094  -0.053
    1UNL    C10   11  -0.071  -0.098  -0.200
    1UNL     O1   12  -0.174  -0.100  -0.295
    1UNL    C11   13  -0.053  -0.131   0.075
    1UNL    C12   14   0.091  -0.168   0.033
    1UNL    C13   15   0.176  -0.046   0.013
    1UNL    C14   16   0.129   0.080   0.035
    1UNL     N2   17   0.228   0.174   0.006
    1UNL    C15   18   0.336   0.095  -0.033
    1UNL    C16   19   0.468   0.134  -0.069
    1UNL    C17   20   0.560   0.035  -0.109
    1UNL    C18   21   0.520  -0.104  -0.107
    1UNL    C19   22   0.393  -0.137  -0.068
    1UNL    C20   23   0.304  -0.038  -0.036
    1UNL     H1   24  -0.603   0.156   0.009
    1UNL     H2   25  -0.478   0.094  -0.103
    1UNL     H3   26  -0.562  -0.029  -0.027
    1UNL     H4   27  -0.461   0.096   0.205
    1UNL     H5   28  -0.256  -0.072   0.256
    1UNL     H6   29  -0.217   0.084   0.291
    1UNL     H7   30  -0.011  -0.129   0.356
    1UNL     H8   31   0.120  -0.031   0.273
    1UNL     H9   32   0.019   0.047   0.372
    1UNL    H10   33   0.006   0.192   0.184
    1UNL    H11   34  -0.160   0.250   0.024
    1UNL    H12   35  -0.048   0.194  -0.103
    1UNL    H13   36  -0.271   0.080  -0.122
    1UNL    H14   37  -0.218  -0.168  -0.049
    1UNL    H15   38  -0.021  -0.186  -0.217
    1UNL    H16   39  -0.012  -0.002  -0.208
    1UNL    H17   40  -0.229  -0.021  -0.290
    1UNL    H18   41  -0.102  -0.205   0.134
    1UNL    H19   42   0.134  -0.216   0.119
    1UNL    H20   43   0.094  -0.230  -0.054
    1UNL    H21   44   0.229   0.270   0.032
    1UNL    H22   45   0.503   0.238  -0.077
    1UNL    H23   46   0.645   0.056  -0.171
    1UNL    H24   47   0.572  -0.168  -0.163
    1UNL    H25   48   0.365  -0.238  -0.080
   0.00000   0.00000   0.00000   0.00000   0.00000   0.00000   0.00000   0.00000   0.00000
Generated with MDTraj, t= 6.0
 48
    1UNL     C1    1  -0.512   0.083  -0.006
    1UNL     C2    2  -0.426   0.054   0.110
    1UNL     C3    3  -0.292   0.048   0.096
    1UNL     C4    4  -0.205   0.035   0.216
    1UNL     N1    5  -0.057  -0.004   0.166
    1UNL     C5    6   0.016  -0.033   0.298
    1UNL     C6    7  -0.010   0.114   0.090
    1UNL     C7    8  -0.096   0.140  -0.029
    1UNL     C8    9  -0.217   0.046  -0.033
    1UNL     C9   10  -0.166  -0.099  -0.052
    1UNL    C10   11  -0.097  -0.124  -0.188
    1UNL     O1   12  -0.161  -0.068  -0.302
    1UNL    C11   13  -0.058  -0.127   0.070
    1UNL    C12   14   0.087  -0.171   0.034
    1UNL    C13   15   0.171  -0.050   0.015
    1UNL    C14   16   0.129   0.081   0.039
    1UNL     N2   17   0.230   0.164   0.017
    1UNL    C15   18   0.339   0.095  -0.034
    1UNL    C16   19   0.473   0.135  -0.072
    1UNL    C17   20   0.563   0.042  -0.117
    1UNL    C18   21   0.528  -0.091  -0.109
    1UNL    C19   22   0.404  -0.139  -0.063
    1UNL    C20   23   0.301  -0.044  -0.032
    1UNL     H1   24  -0.621   0.080   0.014
    1UNL     H2   25  -0.497   0.181  -0.049
    1UNL     H3   26  -0.487   0.013  -0.091
    1UNL     H4   27  -0.465   0.062   0.205
    1UNL     H5   28  -0.229  -0.041   0.288
    1UNL     H6   29  -0.202   0.117   0.278
    1UNL     H7   30  -0.017  -0.126   0.348
    1UNL     H8   31   0.124  -0.024   0.283
    1UNL     H9   32   0.006   0.054   0.366
    1UNL    H10   33  -0.005   0.199   0.167
    1UNL    H11   34  -0.129   0.250  -0.033
    1UNL    H12   35  -0.044   0.125  -0.124
    1UNL    H13   36  -0.295   0.067  -0.110
    1UNL    H14   37  -0.251  -0.168  -0.047
    1UNL    H15   38  -0.092  -0.225  -0.188
    1UNL    H16   39   0.005  -0.081  -0.188
    1UNL    H17   40  -0.180   0.028  -0.287
    1UNL    H18   41  -0.100  -0.205   0.129
    1UNL    H19   42   0.129  -0.225   0.118
    1UNL    H20   43   0.083  -0.224  -0.063
    1UNL    H21   44   0.216   0.266   0.014
    1UNL    H22   45   0.499   0.234  -0.043
    1UNL    H23   46   0.666   0.073  -0.144
    1UNL    H24   47   0.601  -0.172  -0.152
    1UNL    H25   48   0.389  -0.250  -0.043
   0.00000   0.00000   0.00000   0.00000   0.00000   0.00000   0.00000   0.00000   0.00000
Generated with MDTraj, t= 7.0
 48
    1UNL     C1    1  -0.517   0.087  -0.003
    1UNL     C2    2  -0.430   0.051   0.104
    1UNL     C3    3  -0.294   0.046   0.100
    1UNL     C4    4  -0.211   0.019   0.217
    1UNL     N1    5  -0.063  -0.004   0.169
    1UNL     C5    6   0.016  -0.022   0.295
    1UNL     C6    7  -0.001   0.110   0.091
    1UNL     C7    8  -0.101   0.141  -0.024
    1UNL     C8    9  -0.218   0.040  -0.035
    1UNL     C9   10  -0.160  -0.099  -0.054
    1UNL    C10   11  -0.085  -0.109  -0.186
    1UNL     O1   12  -0.173  -0.077  -0.298
    1UNL    C11   13  -0.061  -0.129   0.072
    1UNL    C12   14   0.085  -0.161   0.035
    1UNL    C13   15   0.174  -0.046   0.018
    1UNL    C14   16   0.137   0.086   0.038
    1UNL     N2   17   0.241   0.170   0.008
    1UNL    C15   18   0.346   0.095  -0.034
    1UNL    C16   19   0.473   0.134  -0.072
    1UNL    C17   20   0.558   0.034  -0.111
    1UNL    C18   21   0.522  -0.102  -0.109
    1UNL    C19   22   0.397  -0.138  -0.068
    1UNL    C20   23   0.306  -0.039  -0.036
    1UNL     H1   24  -0.606   0.024  -0.022
    1UNL     H2   25  -0.564   0.190   0.008
    1UNL     H3   26  -0.461   0.095  -0.096
    1UNL     H4   27  -0.485   0.059   0.202
    1UNL     H5   28  -0.235  -0.064   0.280
    1UNL     H6   29  -0.209   0.095   0.285
    1UNL     H7   30  -0.018  -0.117   0.343
    1UNL     H8   31   0.118  -0.024   0.255
    1UNL     H9   32   0.023   0.062   0.366
    1UNL    H10   33   0.018   0.193   0.163
    1UNL    H11   34  -0.145   0.248  -0.020
    1UNL    H12   35  -0.048   0.143  -0.119
    1UNL    H13   36  -0.291   0.047  -0.120
    1UNL    H14   37  -0.231  -0.180  -0.056
    1UNL    H15   38  -0.051  -0.203  -0.202
    1UNL    H16   39   0.000  -0.039  -0.175
    1UNL    H17   40  -0.143  -0.001  -0.356
    1UNL    H18   41  -0.097  -0.218   0.119
    1UNL    H19   42   0.123  -0.214   0.122
    1UNL    H20   43   0.079  -0.217  -0.060
    1UNL    H21   44   0.242   0.275   0.021
    1UNL    H22   45   0.508   0.234  -0.050
    1UNL    H23   46   0.659   0.068  -0.111
    1UNL    H24   47   0.605  -0.170  -0.120
    1UNL    H25   48   0.371  -0.237  -0.056
   0.00000   0.00000   0.00000   0.00000   0.00000   0.00000   0.00000   0.00000   0.00000
Generated with MDTraj, t= 8.0
 48
    1UNL     C1    1  -0.521   0.081  -0.003
    1UNL     C2    2  -0.423   0.083   0.104
    1UNL     C3    3  -0.292   0.051   0.095
    1UNL     C4    4  -0.212   0.019   0.215
    1UNL     N1    5  -0.063  -0.015   0.169
    1UNL     C5    6   0.024  -0.042   0.290
    1UNL     C6    7  -0.007   0.111   0.095
    1UNL     C7    8  -0.097   0.152  -0.025
    1UNL     C8    9  -0.210   0.046  -0.030
    1UNL     C9   10  -0.152  -0.089  -0.055
    1UNL    C10   11  -0.075  -0.101  -0.188
    1UNL     O1   12  -0.167  -0.092  -0.299
    1UNL    C11   13  -0.061  -0.134   0.076
    1UNL    C12   14   0.082  -0.173   0.040
    1UNL    C13   15   0.168  -0.044   0.012
    1UNL    C14   16   0.129   0.078   0.053
    1UNL     N2   17   0.224   0.172  -0.002
    1UNL    C15   18   0.341   0.100  -0.032
    1UNL    C16   19   0.469   0.130  -0.074
    1UNL    C17   20   0.561   0.036  -0.109
    1UNL    C18   21   0.524  -0.099  -0.110
    1UNL    C19   22   0.398  -0.134  -0.066
    1UNL    C20   23   0.303  -0.034  -0.032
    1UNL     H1   24  -0.579  -0.013  -0.013
    1UNL     H2   25  -0.600   0.166   0.013
    1UNL     H3   26  -0.474   0.107  -0.096
    1UNL     H4   27  -0.462   0.107   0.199
    1UNL     H5   28  -0.245  -0.066   0.270
    1UNL     H6   29  -0.209   0.086   0.294
    1UNL     H7   30  -0.020  -0.130   0.344
    1UNL     H8   31   0.130  -0.043   0.258
    1UNL     H9   32   0.016   0.046   0.354
    1UNL    H10   33  -0.011   0.180   0.175
    1UNL    H11   34  -0.142   0.255  -0.005
    1UNL    H12   35  -0.040   0.169  -0.116
    1UNL    H13   36  -0.275   0.085  -0.113
    1UNL    H14   37  -0.229  -0.164  -0.053
    1UNL    H15   38  -0.022  -0.187  -0.194
    1UNL    H16   39  -0.009  -0.014  -0.206
    1UNL    H17   40  -0.141  -0.148  -0.375
    1UNL    H18   41  -0.113  -0.212   0.130
    1UNL    H19   42   0.125  -0.225   0.123
    1UNL    H20   43   0.080  -0.234  -0.053
    1UNL    H21   44   0.231   0.276   0.022
    1UNL    H22   45   0.495   0.233  -0.094
    1UNL    H23   46   0.667   0.056  -0.134
    1UNL    H24   47   0.586  -0.171  -0.145
    1UNL    H25   48   0.365  -0.238  -0.087
   0.00000   0.00000   0.00000   0.00000   0.00000   0.00000   0.00000   0.00000   0.00000
Generated with MDTraj, t= 9.0
 48
    1UNL     C1    1  -0.512   0.114  -0.020
    1UNL     C2    2  -0.429   0.051   0.088
    1UNL     C3    3  -0.296   0.048   0.087
    1UNL     C4    4  -0.213   0.019   0.209
    1UNL     N1    5  -0.063  -0.016   0.178
    1UNL     C5    6   0.022  -0.030   0.306
    1UNL     C6    7  -0.004   0.106   0.095
    1UNL     C7    8  -0.095   0.143  -0.030
    1UNL     C8    9  -0.211   0.044  -0.041
    1UNL     C9   10  -0.154  -0.103  -0.044
    1UNL    C10   11  -0.095  -0.131  -0.182
    1UNL     O1   12  -0.181  -0.072  -0.284
    1UNL    C11   13  -0.060  -0.134   0.082
    1UNL    C12   14   0.087  -0.164   0.040
    1UNL    C13   15   0.178  -0.048   0.023
    1UNL    C14   16   0.134   0.081   0.049
    1UNL     N2   17   0.232   0.175   0.019
    1UNL    C15   18   0.345   0.098  -0.028
    1UNL    C16   19   0.473   0.137  -0.080
    1UNL    C17   20   0.559   0.042  -0.124
    1UNL    C18   21   0.521  -0.092  -0.117
    1UNL    C19   22   0.401  -0.140  -0.070
    1UNL    C20   23   0.310  -0.037  -0.030
    1UNL     H1   24  -0.471   0.103  -0.123
    1UNL     H2   25  -0.621   0.081  -0.016
    1UNL     H3   26  -0.507   0.221   0.000
    1UNL     H4   27  -0.477   0.037   0.186
    1UNL     H5   28  -0.247  -0.064   0.264
    1UNL     H6   29  -0.215   0.089   0.291
    1UNL     H7   30  -0.017  -0.117   0.362
    1UNL     H8   31   0.124  -0.032   0.263
    1UNL     H9   32   0.020   0.062   0.367
    1UNL    H10   33  -0.003   0.187   0.158
    1UNL    H11   34  -0.128   0.247  -0.007
    1UNL    H12   35  -0.041   0.152  -0.124
    1UNL    H13   36  -0.261   0.066  -0.140
    1UNL    H14   37  -0.238  -0.167  -0.031
    1UNL    H15   38  -0.096  -0.229  -0.212
    1UNL    H16   39   0.009  -0.095  -0.191
    1UNL    H17   40  -0.116  -0.041  -0.350
    1UNL    H18   41  -0.121  -0.204   0.140
    1UNL    H19   42   0.127  -0.219   0.123
    1UNL    H20   43   0.079  -0.238  -0.047
    1UNL    H21   44   0.219   0.278  -0.007
    1UNL    H22   45   0.498   0.240  -0.087
    1UNL    H23   46   0.653   0.065  -0.167
    1UNL    H24   47   0.590  -0.168  -0.177
    1UNL    H25   48   0.372  -0.243  -0.073
   0.00000   0.00000   0.00000   0.00000   0.00000   0.00000   0.00000   0.00000   0.00000
Generated with MDTraj, t= 10.0
 48
    1UNL     C1    1  -0.507   0.111  -0.022
    1UNL     C2    2  -0.413   0.092   0.096
    1UNL     C3    3  -0.288   0.050   0.096
    1UNL     C4    4  -0.203   0.026   0.213
    1UNL     N1    5  -0.059  -0.011   0.170
    1UNL     C5    6   0.013  -0.038   0.300
    1UNL     C6    7   0.001   0.109   0.098
    1UNL     C7    8  -0.097   0.141  -0.019
    1UNL     C8    9  -0.210   0.041  -0.034
    1UNL     C9   10  -0.152  -0.114  -0.049
    1UNL    C10   11  -0.083  -0.120  -0.181
    1UNL     O1   12  -0.162  -0.096  -0.300
    1UNL    C11   13  -0.058  -0.136   0.076
    1UNL    C12   14   0.087  -0.172   0.045
    1UNL    C13   15   0.165  -0.050   0.018
    1UNL    C14   16   0.125   0.079   0.041
    1UNL     N2   17   0.229   0.161   0.026
    1UNL    C15   18   0.339   0.099  -0.024
    1UNL    C16   19   0.462   0.142  -0.077
    1UNL    C17   20   0.547   0.045  -0.126
    1UNL    C18   21   0.513  -0.088  -0.121
    1UNL    C19   22   0.393  -0.130  -0.078
    1UNL    C20   23   0.300  -0.040  -0.031
    1UNL     H1   24  -0.501   0.215  -0.064
    1UNL     H2   25  -0.504   0.031  -0.098
    1UNL     H3   26  -0.613   0.109   0.016
    1UNL     H4   27  -0.447   0.132   0.193
    1UNL     H5   28  -0.246  -0.047   0.273
    1UNL     H6   29  -0.198   0.108   0.288
    1UNL     H7   30  -0.034  -0.130   0.339
    1UNL     H8   31   0.121  -0.042   0.272
    1UNL     H9   32   0.005   0.045   0.375
    1UNL    H10   33   0.004   0.189   0.161
    1UNL    H11   34  -0.141   0.241  -0.012
    1UNL    H12   35  -0.028   0.142  -0.106
    1UNL    H13   36  -0.279   0.071  -0.118
    1UNL    H14   37  -0.230  -0.188  -0.047
    1UNL    H15   38  -0.036  -0.212  -0.185
    1UNL    H16   39  -0.005  -0.040  -0.193
    1UNL    H17   40  -0.153  -0.172  -0.365
    1UNL    H18   41  -0.118  -0.211   0.130
    1UNL    H19   42   0.122  -0.235   0.123
    1UNL    H20   43   0.095  -0.236  -0.050
    1UNL    H21   44   0.219   0.267   0.036
    1UNL    H22   45   0.491   0.242  -0.043
    1UNL    H23   46   0.644   0.083  -0.163
    1UNL    H24   47   0.579  -0.163  -0.159
    1UNL    H25   48   0.370  -0.233  -0.069
   0.00000   0.00000   0.00000   0.00000   0.00000   0.00000   0.00000   0.00000   0.00000
Generated with MDTraj, t= 11.0
 48
    1UNL     C1    1  -0.515   0.122  -0.014
    1UNL     C2    2  -0.428   0.071   0.099
    1UNL     C3    3  -0.300   0.043   0.082
    1UNL     C4    4  -0.218   0.008   0.202
    1UNL     N1    5  -0.064  -0.013   0.176
    1UNL     C5    6  -0.000  -0.031   0.315
    1UNL     C6    7  -0.007   0.109   0.106
    1UNL     C7    8  -0.099   0.146  -0.011
    1UNL     C8    9  -0.204   0.045  -0.040
    1UNL     C9   10  -0.138  -0.100  -0.053
    1UNL    C10   11  -0.076  -0.117  -0.192
    1UNL     O1   12  -0.170  -0.102  -0.296
    1UNL    C11   13  -0.050  -0.129   0.077
    1UNL    C12   14   0.099  -0.161   0.048
    1UNL    C13   15   0.175  -0.039   0.017
    1UNL    C14   16   0.135   0.084   0.044
    1UNL     N2   17   0.236   0.170   0.015
    1UNL    C15   18   0.347   0.095  -0.035
    1UNL    C16   19   0.468   0.134  -0.081
    1UNL    C17   20   0.548   0.038  -0.126
    1UNL    C18   21   0.515  -0.098  -0.122
    1UNL    C19   22   0.393  -0.136  -0.074
    1UNL    C20   23   0.308  -0.037  -0.035
    1UNL     H1   24  -0.541   0.231   0.010
    1UNL     H2   25  -0.479   0.104  -0.114
    1UNL     H3   26  -0.620   0.076  -0.012
    1UNL     H4   27  -0.457   0.081   0.200
    1UNL     H5   28  -0.251  -0.077   0.252
    1UNL     H6   29  -0.241   0.082   0.284
    1UNL     H7   30  -0.042  -0.120   0.366
    1UNL     H8   31   0.111  -0.025   0.307
    1UNL     H9   32  -0.026   0.055   0.380
    1UNL    H10   33  -0.009   0.184   0.177
    1UNL    H11   34  -0.138   0.244   0.015
    1UNL    H12   35  -0.040   0.155  -0.106
    1UNL    H13   36  -0.265   0.060  -0.134
    1UNL    H14   37  -0.217  -0.174  -0.048
    1UNL    H15   38  -0.032  -0.210  -0.201
    1UNL    H16   39   0.005  -0.039  -0.188
    1UNL    H17   40  -0.256  -0.149  -0.283
    1UNL    H18   41  -0.100  -0.217   0.123
    1UNL    H19   42   0.145  -0.210   0.130
    1UNL    H20   43   0.111  -0.234  -0.040
    1UNL    H21   44   0.242   0.267   0.058
    1UNL    H22   45   0.495   0.237  -0.070
    1UNL    H23   46   0.645   0.063  -0.154
    1UNL    H24   47   0.576  -0.169  -0.161
    1UNL    H25   48   0.353  -0.239  -0.073
   0.00000   0.00000   0.00000   0.00000   0.00000   0.00000   0.00000   0.00000   0.00000
Generated with MDTraj, t= 12.0
 48
    1UNL     C1    1  -0.505   0.097  -0.032
    1UNL     C2    2  -0.421   0.068   0.094
    1UNL     C3    3  -0.289   0.056   0.099
    1UNL     C4    4  -0.201   0.029   0.220
    1UNL     N1    5  -0.063  -0.007   0.177
    1UNL     C5    6   0.028  -0.042   0.290
    1UNL     C6    7  -0.004   0.110   0.097
    1UNL     C7    8  -0.091   0.153  -0.033
    1UNL     C8    9  -0.203   0.048  -0.033
    1UNL     C9   10  -0.150  -0.097  -0.048
    1UNL    C10   11  -0.087  -0.132  -0.187
    1UNL     O1   12  -0.160  -0.074  -0.293
    1UNL    C11   13  -0.063  -0.134   0.081
    1UNL    C12   14   0.074  -0.177   0.038
    1UNL    C13   15   0.169  -0.054   0.020
    1UNL    C14   16   0.127   0.076   0.056
    1UNL     N2   17   0.219   0.171   0.015
    1UNL    C15   18   0.331   0.096  -0.025
    1UNL    C16   19   0.459   0.139  -0.075
    1UNL    C17   20   0.548   0.047  -0.131
    1UNL    C18   21   0.518  -0.091  -0.122
    1UNL    C19   22   0.404  -0.140  -0.058
    1UNL    C20   23   0.306  -0.043  -0.026
    1UNL     H1   24  -0.458   0.183  -0.088
    1UNL     H2   25  -0.534   0.010  -0.088
    1UNL     H3   26  -0.597   0.155   0.010
    1UNL     H4   27  -0.469   0.071   0.196
    1UNL     H5   28  -0.245  -0.040   0.287
    1UNL     H6   29  -0.200   0.120   0.286
    1UNL     H7   30  -0.004  -0.125   0.359
    1UNL     H8   31   0.134  -0.046   0.258
    1UNL     H9   32   0.029   0.047   0.357
    1UNL    H10   33   0.002   0.187   0.169
    1UNL    H11   34  -0.132   0.249  -0.010
    1UNL    H12   35  -0.025   0.158  -0.122
    1UNL    H13   36  -0.271   0.071  -0.121
    1UNL    H14   37  -0.234  -0.164  -0.031
    1UNL    H15   38  -0.082  -0.236  -0.182
    1UNL    H16   39   0.018  -0.093  -0.189
    1UNL    H17   40  -0.199  -0.136  -0.357
    1UNL    H18   41  -0.110  -0.218   0.138
    1UNL    H19   42   0.127  -0.232   0.113
    1UNL    H20   43   0.080  -0.246  -0.051
    1UNL    H21   44   0.182   0.269   0.024
    1UNL    H22   45   0.478   0.244  -0.095
    1UNL    H23   46   0.645   0.078  -0.176
    1UNL    H24   47   0.589  -0.167  -0.178
    1UNL    H25   48   0.380  -0.240  -0.072
   0.00000   0.00000   0.00000   0.00000   0.00000   0.00000   0.00000   0.00000   0.00000
Generated with MDTraj, t= 13.0
 48
    1UNL     C1    1  -0.535   0.085  -0.009
    1UNL     C2    2  -0.433   0.069   0.100
    1UNL     C3    3  -0.305   0.045   0.086
    1UNL     C4    4  -0.217   0.021   0.206
    1UNL     N1    5  -0.068  -0.005   0.175
    1UNL     C5    6   0.010  -0.031   0.304
    1UNL     C6    7  -0.004   0.108   0.097
    1UNL     C7    8  -0.103   0.148  -0.023
    1UNL     C8    9  -0.210   0.038  -0.036
    1UNL     C9   10  -0.150  -0.102  -0.052
    1UNL    C10   11  -0.078  -0.108  -0.183
    1UNL     O1   12  -0.162  -0.078  -0.290
    1UNL    C11   13  -0.058  -0.128   0.083
    1UNL    C12   14   0.087  -0.161   0.047
    1UNL    C13   15   0.175  -0.042   0.018
    1UNL    C14   16   0.141   0.084   0.050
    1UNL     N2   17   0.238   0.167   0.004
    1UNL    C15   18   0.349   0.095  -0.035
    1UNL    C16   19   0.478   0.133  -0.077
    1UNL    C17   20   0.562   0.033  -0.122
    1UNL    C18   21   0.522  -0.103  -0.123
    1UNL    C19   22   0.397  -0.140  -0.074
    1UNL    C20   23   0.310  -0.037  -0.037
    1UNL     H1   24  -0.486   0.083  -0.109
    1UNL     H2   25  -0.621   0.017  -0.001
    1UNL     H3   26  -0.559   0.196  -0.003
    1UNL     H4   27  -0.468   0.067   0.196
    1UNL     H5   28  -0.254  -0.064   0.265
    1UNL     H6   29  -0.238   0.105   0.274
    1UNL     H7   30  -0.036  -0.119   0.359
    1UNL     H8   31   0.119  -0.046   0.291
    1UNL     H9   32   0.003   0.047   0.383
    1UNL    H10   33   0.006   0.185   0.171
    1UNL    H11   34  -0.146   0.245  -0.011
    1UNL    H12   35  -0.039   0.159  -0.113
    1UNL    H13   36  -0.266   0.060  -0.130
    1UNL    H14   37  -0.233  -0.175  -0.046
    1UNL    H15   38  -0.042  -0.206  -0.201
    1UNL    H16   39   0.011  -0.040  -0.169
    1UNL    H17   40  -0.182   0.019  -0.303
    1UNL    H18   41  -0.103  -0.216   0.135
    1UNL    H19   42   0.132  -0.222   0.125
    1UNL    H20   43   0.092  -0.220  -0.045
    1UNL    H21   44   0.231   0.269  -0.002
    1UNL    H22   45   0.512   0.235  -0.075
    1UNL    H23   46   0.663   0.052  -0.149
    1UNL    H24   47   0.588  -0.182  -0.149
    1UNL    H25   48   0.367  -0.249  -0.072
   0.00000   0.00000   0.00000   0.00000   0.00000   0.00000   0.00000   0.00000   0.00000
Generated with MDTraj, t= 14.0
 48
    1UNL     C1    1  -0.517   0.065  -0.008
    1UNL     C2    2  -0.420   0.066   0.103
    1UNL     C3    3  -0.291   0.043   0.098
    1UNL     C4    4  -0.196   0.021   0.223
    1UNL     N1    5  -0.057  -0.007   0.169
    1UNL     C5    6   0.034  -0.025   0.291
    1UNL     C6    7  -0.007   0.121   0.101
    1UNL     C7    8  -0.102   0.153  -0.018
    1UNL     C8    9  -0.214   0.051  -0.030
    1UNL     C9   10  -0.149  -0.091  -0.062
    1UNL    C10   11  -0.066  -0.088  -0.191
    1UNL     O1   12  -0.150  -0.094  -0.307
    1UNL    C11   13  -0.066  -0.125   0.073
    1UNL    C12   14   0.080  -0.162   0.040
    1UNL    C13   15   0.163  -0.044   0.020
    1UNL    C14   16   0.124   0.084   0.037
    1UNL     N2   17   0.232   0.164   0.014
    1UNL    C15   18   0.334   0.094  -0.034
    1UNL    C16   19   0.461   0.126  -0.079
    1UNL    C17   20   0.551   0.027  -0.110
    1UNL    C18   21   0.513  -0.105  -0.108
    1UNL    C19   22   0.382  -0.140  -0.074
    1UNL    C20   23   0.293  -0.045  -0.032
    1UNL     H1   24  -0.541  -0.031  -0.059
    1UNL     H2   25  -0.618   0.112   0.019
    1UNL     H3   26  -0.472   0.126  -0.088
    1UNL     H4   27  -0.467   0.062   0.207
    1UNL     H5   28  -0.245  -0.057   0.291
    1UNL     H6   29  -0.190   0.109   0.286
    1UNL     H7   30   0.004  -0.107   0.362
    1UNL     H8   31   0.142  -0.031   0.265
    1UNL     H9   32   0.028   0.059   0.364
    1UNL    H10   33   0.013   0.208   0.166
    1UNL    H11   34  -0.130   0.255  -0.001
    1UNL    H12   35  -0.054   0.158  -0.115
    1UNL    H13   36  -0.280   0.078  -0.117
    1UNL    H14   37  -0.236  -0.160  -0.077
    1UNL    H15   38   0.003  -0.171  -0.193
    1UNL    H16   39  -0.005   0.003  -0.210
    1UNL    H17   40  -0.173  -0.002  -0.339
    1UNL    H18   41  -0.124  -0.210   0.118
    1UNL    H19   42   0.124  -0.202   0.133
    1UNL    H20   43   0.086  -0.234  -0.037
    1UNL    H21   44   0.244   0.261   0.034
    1UNL    H22   45   0.492   0.228  -0.058
    1UNL    H23   46   0.653   0.061  -0.124
    1UNL    H24   47   0.584  -0.177  -0.132
    1UNL    H25   48   0.351  -0.236  -0.048
   0.00000   0.00000   0.00000   0.00000   0.00000   0.00000   0.00000   0.00000   0.00000
Generated with MDTraj, t= 15.0
 48
    1UNL     C1    1  -0.522   0.065  -0.010
    1UNL     C2    2  -0.432   0.038   0.101
    1UNL     C3    3  -0.300   0.057   0.097
    1UNL     C4    4  -0.211   0.038   0.216
    1UNL     N1    5  -0.071  -0.001   0.174
    1UNL     C5    6   0.008  -0.037   0.303
    1UNL     C6    7  -0.000   0.112   0.097
    1UNL     C7    8  -0.094   0.156  -0.019
    1UNL     C8    9  -0.217   0.057  -0.031
    1UNL     C9   10  -0.158  -0.092  -0.050
    1UNL    C10   11  -0.089  -0.102  -0.186
    1UNL     O1   12  -0.163  -0.075  -0.306
    1UNL    C11   13  -0.060  -0.116   0.078
    1UNL    C12   14   0.086  -0.168   0.042
    1UNL    C13   15   0.174  -0.054   0.018
    1UNL    C14   16   0.131   0.078   0.039
    1UNL     N2   17   0.232   0.165   0.008
    1UNL    C15   18   0.343   0.095  -0.041
    1UNL    C16   19   0.476   0.135  -0.086
    1UNL    C17   20   0.570   0.036  -0.119
    1UNL    C18   21   0.529  -0.102  -0.107
    1UNL    C19   22   0.406  -0.146  -0.069
    1UNL    C20   23   0.311  -0.043  -0.034
    1UNL     H1   24  -0.620   0.013  -0.013
    1UNL     H2   25  -0.539   0.181  -0.015
    1UNL     H3   26  -0.468   0.034  -0.098
    1UNL     H4   27  -0.479   0.002   0.186
    1UNL     H5   28  -0.254  -0.054   0.273
    1UNL     H6   29  -0.219   0.125   0.280
    1UNL     H7   30  -0.028  -0.130   0.355
    1UNL     H8   31   0.117  -0.047   0.277
    1UNL     H9   32  -0.004   0.029   0.394
    1UNL    H10   33   0.014   0.195   0.172
    1UNL    H11   34  -0.143   0.248   0.004
    1UNL    H12   35  -0.034   0.174  -0.107
    1UNL    H13   36  -0.283   0.077  -0.117
    1UNL    H14   37  -0.242  -0.166  -0.043
    1UNL    H15   38  -0.062  -0.208  -0.203
    1UNL    H16   39   0.002  -0.044  -0.185
    1UNL    H17   40  -0.171   0.023  -0.303
    1UNL    H18   41  -0.115  -0.190   0.142
    1UNL    H19   42   0.115  -0.230   0.128
    1UNL    H20   43   0.083  -0.224  -0.044
    1UNL    H21   44   0.235   0.262   0.026
    1UNL    H22   45   0.504   0.239  -0.092
    1UNL    H23   46   0.665   0.061  -0.166
    1UNL    H24   47   0.604  -0.183  -0.151
    1UNL    H25   48   0.383  -0.254  -0.065
   0.00000   0.00000   0.00000   0.00000   0.00000   0.00000   0.00000   0.00000   0.00000
Generated with MDTraj, t= 16.0
 48
    1UNL     C1    1  -0.514   0.070  -0.021
    1UNL     C2    2  -0.424   0.069   0.098
    1UNL     C3    3  -0.293   0.045   0.096
    1UNL     C4    4  -0.205   0.017   0.221
    1UNL     N1    5  -0.061  -0.015   0.169
    1UNL     C5    6   0.023  -0.035   0.298
    1UNL     C6    7  -0.007   0.114   0.090
    1UNL     C7    8  -0.100   0.147  -0.034
    1UNL     C8    9  -0.211   0.044  -0.032
    1UNL     C9   10  -0.148  -0.097  -0.050
    1UNL    C10   11  -0.086  -0.108  -0.188
    1UNL     O1   12  -0.174  -0.062  -0.289
    1UNL    C11   13  -0.059  -0.138   0.073
    1UNL    C12   14   0.088  -0.164   0.039
    1UNL    C13   15   0.176  -0.041   0.021
    1UNL    C14   16   0.131   0.086   0.051
    1UNL     N2   17   0.233   0.182   0.010
    1UNL    C15   18   0.346   0.095  -0.026
    1UNL    C16   19   0.472   0.128  -0.071
    1UNL    C17   20   0.551   0.032  -0.123
    1UNL    C18   21   0.512  -0.103  -0.118
    1UNL    C19   22   0.392  -0.137  -0.062
    1UNL    C20   23   0.305  -0.035  -0.022
    1UNL     H1   24  -0.607   0.133  -0.013
    1UNL     H2   25  -0.452   0.111  -0.106
    1UNL     H3   26  -0.540  -0.032  -0.044
    1UNL     H4   27  -0.476   0.084   0.194
    1UNL     H5   28  -0.256  -0.067   0.280
    1UNL     H6   29  -0.196   0.110   0.281
    1UNL     H7   30  -0.028  -0.113   0.359
    1UNL     H8   31   0.132  -0.061   0.285
    1UNL     H9   32   0.006   0.046   0.376
    1UNL    H10   33  -0.011   0.199   0.169
    1UNL    H11   34  -0.144   0.245  -0.027
    1UNL    H12   35  -0.051   0.145  -0.129
    1UNL    H13   36  -0.273   0.062  -0.121
    1UNL    H14   37  -0.232  -0.172  -0.047
    1UNL    H15   38  -0.060  -0.217  -0.206
    1UNL    H16   39  -0.002  -0.042  -0.193
    1UNL    H17   40  -0.125  -0.044  -0.371
    1UNL    H18   41  -0.108  -0.221   0.127
    1UNL    H19   42   0.138  -0.215   0.123
    1UNL    H20   43   0.089  -0.225  -0.044
    1UNL    H21   44   0.235   0.280   0.004
    1UNL    H22   45   0.492   0.231  -0.096
    1UNL    H23   46   0.639   0.049  -0.180
    1UNL    H24   47   0.565  -0.179  -0.158
    1UNL    H25   48   0.346  -0.234  -0.076
   0.00000   0.00000   0.00000   0.00000   0.00000   0.00000   0.00000   0.00000   0.00000
Generated with MDTraj, t= 17.0
 48
    1UNL     C1    1  -0.515   0.103  -0.004
    1UNL     C2    2  -0.420   0.072   0.103
    1UNL     C3    3  -0.292   0.050   0.087
    1UNL     C4    4  -0.212   0.013   0.209
    1UNL     N1    5  -0.068  -0.007   0.173
    1UNL     C5    6   0.013  -0.026   0.299
    1UNL     C6    7  -0.000   0.109   0.095
    1UNL     C7    8  -0.090   0.150  -0.021
    1UNL     C8    9  -0.208   0.045  -0.036
    1UNL     C9   10  -0.154  -0.101  -0.048
    1UNL    C10   11  -0.074  -0.116  -0.183
    1UNL     O1   12  -0.152  -0.088  -0.295
    1UNL    C11   13  -0.062  -0.132   0.077
    1UNL    C12   14   0.083  -0.171   0.044
    1UNL    C13   15   0.162  -0.056   0.005
    1UNL    C14   16   0.131   0.071   0.045
    1UNL     N2   17   0.231   0.164   0.017
    1UNL    C15   18   0.340   0.095  -0.029
    1UNL    C16   19   0.462   0.142  -0.064
    1UNL    C17   20   0.550   0.046  -0.118
    1UNL    C18   21   0.518  -0.090  -0.128
    1UNL    C19   22   0.398  -0.131  -0.084
    1UNL    C20   23   0.301  -0.041  -0.035
    1UNL     H1   24  -0.625   0.104   0.019
    1UNL     H2   25  -0.492   0.201  -0.048
    1UNL     H3   26  -0.500   0.028  -0.085
    1UNL     H4   27  -0.460   0.076   0.203
    1UNL     H5   28  -0.246  -0.089   0.245
    1UNL     H6   29  -0.228   0.099   0.283
    1UNL     H7   30  -0.020  -0.107   0.369
    1UNL     H8   31   0.120  -0.045   0.270
    1UNL     H9   32  -0.001   0.062   0.368
    1UNL    H10   33   0.011   0.193   0.177
    1UNL    H11   34  -0.138   0.244   0.003
    1UNL    H12   35  -0.046   0.167  -0.115
    1UNL    H13   36  -0.272   0.086  -0.115
    1UNL    H14   37  -0.241  -0.174  -0.052
    1UNL    H15   38  -0.042  -0.226  -0.185
    1UNL    H16   39   0.007  -0.046  -0.174
    1UNL    H17   40  -0.153  -0.154  -0.371
    1UNL    H18   41  -0.111  -0.215   0.130
    1UNL    H19   42   0.124  -0.214   0.136
    1UNL    H20   43   0.088  -0.247  -0.030
    1UNL    H21   44   0.225   0.261   0.035
    1UNL    H22   45   0.480   0.250  -0.061
    1UNL    H23   46   0.655   0.076  -0.126
    1UNL    H24   47   0.602  -0.159  -0.149
    1UNL    H25   48   0.378  -0.234  -0.090
   0.00000   0.00000   0.00000   0.00000   0.00000   0.00000   0.00000   0.00000   0.00000
Generated with MDTraj, t= 18.0
 48
    1UNL     C1    1  -0.502   0.135  -0.015
    1UNL     C2    2  -0.423   0.069   0.090
    1UNL     C3    3  -0.294   0.039   0.088
    1UNL     C4    4  -0.215   0.005   0.213
    1UNL     N1    5  -0.065  -0.014   0.175
    1UNL     C5    6   0.010  -0.048   0.303
    1UNL     C6    7  -0.013   0.105   0.104
    1UNL     C7    8  -0.098   0.146  -0.020
    1UNL     C8    9  -0.209   0.042  -0.041
    1UNL     C9   10  -0.150  -0.107  -0.047
    1UNL    C10   11  -0.080  -0.128  -0.186
    1UNL     O1   12  -0.176  -0.096  -0.285
    1UNL    C11   13  -0.055  -0.137   0.073
    1UNL    C12   14   0.091  -0.164   0.039
    1UNL    C13   15   0.172  -0.042   0.018
    1UNL    C14   16   0.132   0.088   0.047
    1UNL     N2   17   0.234   0.174   0.023
    1UNL    C15   18   0.343   0.103  -0.033
    1UNL    C16   19   0.470   0.139  -0.087
    1UNL    C17   20   0.556   0.045  -0.134
    1UNL    C18   21   0.518  -0.086  -0.119
    1UNL    C19   22   0.396  -0.131  -0.068
    1UNL    C20   23   0.301  -0.036  -0.028
    1UNL     H1   24  -0.596   0.189   0.019
    1UNL     H2   25  -0.435   0.196  -0.070
    1UNL     H3   26  -0.533   0.054  -0.090
    1UNL     H4   27  -0.476   0.061   0.180
    1UNL     H5   28  -0.249  -0.091   0.259
    1UNL     H6   29  -0.220   0.097   0.284
    1UNL     H7   30  -0.017  -0.144   0.356
    1UNL     H8   31   0.121  -0.044   0.293
    1UNL     H9   32  -0.031   0.028   0.376
    1UNL    H10   33  -0.011   0.197   0.179
    1UNL    H11   34  -0.149   0.239  -0.015
    1UNL    H12   35  -0.038   0.156  -0.106
    1UNL    H13   36  -0.271   0.062  -0.128
    1UNL    H14   37  -0.232  -0.185  -0.051
    1UNL    H15   38  -0.057  -0.242  -0.198
    1UNL    H16   39   0.007  -0.065  -0.185
    1UNL    H17   40  -0.130  -0.067  -0.368
    1UNL    H18   41  -0.100  -0.225   0.123
    1UNL    H19   42   0.132  -0.222   0.120
    1UNL    H20   43   0.096  -0.235  -0.046
    1UNL    H21   44   0.230   0.269   0.051
    1UNL    H22   45   0.510   0.238  -0.069
    1UNL    H23   46   0.649   0.084  -0.169
    1UNL    H24   47   0.597  -0.166  -0.122
    1UNL    H25   48   0.377  -0.237  -0.031
   0.00000   0.00000   0.00000   0.00000   0.00000   0.00000   0.00000   0.00000   0.00000
Generated with MDTraj, t= 19.0
 48
    1UNL     C1    1  -0.499   0.128  -0.017
    1UNL     C2    2  -0.411   0.095   0.096
    1UNL     C3    3  -0.289   0.046   0.084
    1UNL     C4    4  -0.211   0.020   0.210
    1UNL     N1    5  -0.067  -0.019   0.174
    1UNL     C5    6   0.018  -0.048   0.296
    1UNL     C6    7  -0.012   0.103   0.099
    1UNL     C7    8  -0.092   0.133  -0.028
    1UNL     C8    9  -0.208   0.034  -0.037
    1UNL     C9   10  -0.146  -0.107  -0.053
    1UNL    C10   11  -0.087  -0.122  -0.191
    1UNL     O1   12  -0.182  -0.087  -0.292
    1UNL    C11   13  -0.054  -0.139   0.073
    1UNL    C12   14   0.092  -0.175   0.045
    1UNL    C13   15   0.178  -0.056   0.026
    1UNL    C14   16   0.132   0.070   0.052
    1UNL     N2   17   0.219   0.169   0.021
    1UNL    C15   18   0.330   0.102  -0.027
    1UNL    C16   19   0.454   0.145  -0.074
    1UNL    C17   20   0.549   0.058  -0.126
    1UNL    C18   21   0.524  -0.079  -0.121
    1UNL    C19   22   0.409  -0.131  -0.066
    1UNL    C20   23   0.308  -0.039  -0.018
    1UNL     H1   24  -0.547   0.229  -0.009
    1UNL     H2   25  -0.451   0.107  -0.109
    1UNL     H3   26  -0.590   0.056  -0.018
    1UNL     H4   27  -0.454   0.121   0.197
    1UNL     H5   28  -0.253  -0.054   0.283
    1UNL     H6   29  -0.191   0.125   0.258
    1UNL     H7   30  -0.032  -0.125   0.362
    1UNL     H8   31   0.118  -0.089   0.267
    1UNL     H9   32   0.024   0.040   0.367
    1UNL    H10   33  -0.009   0.193   0.176
    1UNL    H11   34  -0.130   0.232  -0.016
    1UNL    H12   35  -0.046   0.136  -0.122
    1UNL    H13   36  -0.270   0.049  -0.125
    1UNL    H14   37  -0.228  -0.187  -0.052
    1UNL    H15   38  -0.039  -0.229  -0.202
    1UNL    H16   39  -0.010  -0.048  -0.202
    1UNL    H17   40  -0.172  -0.158  -0.357
    1UNL    H18   41  -0.103  -0.226   0.118
    1UNL    H19   42   0.133  -0.242   0.117
    1UNL    H20   43   0.094  -0.237  -0.049
    1UNL    H21   44   0.197   0.267   0.035
    1UNL    H22   45   0.470   0.252  -0.078
    1UNL    H23   46   0.623   0.088  -0.200
    1UNL    H24   47   0.576  -0.140  -0.183
    1UNL    H25   48   0.395  -0.232  -0.058
   0.00000   0.00000   0.00000   0.00000   0.00000   0.00000   0.00000   0.00000   0.00000
Generated with MDTraj, t= 20.0
 48
    1UNL     C1    1  -0.516   0.127  -0.008
    1UNL     C2    2  -0.425   0.075   0.099
    1UNL     C3    3  -0.296   0.041   0.092
    1UNL     C4    4  -0.218   0.004   0.212
    1UNL     N1    5  -0.067  -0.013   0.173
    1UNL     C5    6   0.009  -0.030   0.303
    1UNL     C6    7  -0.005   0.110   0.096
    1UNL     C7    8  -0.096   0.142  -0.022
    1UNL     C8    9  -0.213   0.036  -0.033
    1UNL     C9   10  -0.147  -0.109  -0.050
    1UNL    C10   11  -0.087  -0.138  -0.187
    1UNL     O1   12  -0.171  -0.100  -0.302
    1UNL    C11   13  -0.056  -0.133   0.077
    1UNL    C12   14   0.089  -0.163   0.039
    1UNL    C13   15   0.173  -0.042   0.019
    1UNL    C14   16   0.134   0.085   0.054
    1UNL     N2   17   0.243   0.173   0.016
    1UNL    C15   18   0.343   0.099  -0.036
    1UNL    C16   19   0.476   0.143  -0.057
    1UNL    C17   20   0.560   0.046  -0.109
    1UNL    C18   21   0.518  -0.092  -0.124
    1UNL    C19   22   0.394  -0.124  -0.086
    1UNL    C20   23   0.304  -0.032  -0.039
    1UNL     H1   24  -0.484   0.220  -0.061
    1UNL     H2   25  -0.546   0.042  -0.074
    1UNL     H3   26  -0.614   0.165   0.032
    1UNL     H4   27  -0.482   0.055   0.182
    1UNL     H5   28  -0.244  -0.105   0.234
    1UNL     H6   29  -0.230   0.068   0.306
    1UNL     H7   30  -0.021  -0.125   0.356
    1UNL     H8   31   0.121  -0.030   0.287
    1UNL     H9   32  -0.027   0.047   0.377
    1UNL    H10   33   0.007   0.191   0.180
    1UNL    H11   34  -0.142   0.235  -0.009
    1UNL    H12   35  -0.035   0.151  -0.108
    1UNL    H13   36  -0.282   0.065  -0.110
    1UNL    H14   37  -0.233  -0.182  -0.034
    1UNL    H15   38  -0.085  -0.255  -0.207
    1UNL    H16   39   0.013  -0.097  -0.191
    1UNL    H17   40  -0.121  -0.065  -0.381
    1UNL    H18   41  -0.104  -0.215   0.131
    1UNL    H19   42   0.128  -0.215   0.123
    1UNL    H20   43   0.099  -0.232  -0.052
    1UNL    H21   44   0.242   0.277   0.025
    1UNL    H22   45   0.513   0.244  -0.072
    1UNL    H23   46   0.653   0.070  -0.156
    1UNL    H24   47   0.594  -0.164  -0.176
    1UNL    H25   48   0.360  -0.231  -0.099
   0.00000   0.00000   0.00000   0.00000   0.00000   0.00000   0.00000   0.00000   0.00000
Generated with MDTraj, t= 21.0
 48
    1UNL     C1    1  -0.514   0.096  -0.020
    1UNL     C2    2  -0.426   0.073   0.102
    1UNL     C3    3  -0.297   0.041   0.096
    1UNL     C4    4  -0.205   0.017   0.212
    1UNL     N1    5  -0.055  -0.013   0.174
    1UNL     C5    6   0.040  -0.032   0.288
    1UNL     C6    7  -0.009   0.114   0.096
    1UNL     C7    8  -0.104   0.142  -0.019
    1UNL     C8    9  -0.217   0.044  -0.036
    1UNL     C9   10  -0.159  -0.097  -0.050
    1UNL    C10   11  -0.089  -0.110  -0.185
    1UNL     O1   12  -0.165  -0.087  -0.304
    1UNL    C11   13  -0.060  -0.129   0.076
    1UNL    C12   14   0.089  -0.169   0.034
    1UNL    C13   15   0.171  -0.048   0.010
    1UNL    C14   16   0.127   0.078   0.041
    1UNL     N2   17   0.228   0.169   0.021
    1UNL    C15   18   0.338   0.098  -0.021
    1UNL    C16   19   0.467   0.136  -0.061
    1UNL    C17   20   0.557   0.047  -0.108
    1UNL    C18   21   0.522  -0.090  -0.121
    1UNL    C19   22   0.397  -0.136  -0.081
    1UNL    C20   23   0.306  -0.040  -0.027
    1UNL     H1   24  -0.474   0.039  -0.109
    1UNL     H2   25  -0.621   0.059   0.007
    1UNL     H3   26  -0.515   0.197  -0.059
    1UNL     H4   27  -0.481   0.081   0.201
    1UNL     H5   28  -0.241  -0.068   0.282
    1UNL     H6   29  -0.185   0.114   0.267
    1UNL     H7   30   0.016  -0.125   0.344
    1UNL     H8   31   0.148  -0.039   0.251
    1UNL     H9   32   0.021   0.046   0.367
    1UNL    H10   33   0.005   0.212   0.157
    1UNL    H11   34  -0.150   0.234  -0.006
    1UNL    H12   35  -0.053   0.151  -0.111
    1UNL    H13   36  -0.265   0.071  -0.131
    1UNL    H14   37  -0.239  -0.176  -0.039
    1UNL    H15   38  -0.039  -0.218  -0.190
    1UNL    H16   39  -0.011  -0.036  -0.196
    1UNL    H17   40  -0.242  -0.149  -0.320
    1UNL    H18   41  -0.107  -0.204   0.141
    1UNL    H19   42   0.141  -0.220   0.111
    1UNL    H20   43   0.081  -0.231  -0.061
    1UNL    H21   44   0.231   0.271   0.048
    1UNL    H22   45   0.485   0.242  -0.065
    1UNL    H23   46   0.664   0.072  -0.124
    1UNL    H24   47   0.588  -0.169  -0.114
    1UNL    H25   48   0.373  -0.242  -0.085
   0.00000   0.00000   0.00000   0.00000   0.00000   0.00000   0.00000   0.00000   0.00000
Generated with MDTraj, t= 22.0
 48
    1UNL     C1    1  -0.537   0.068  -0.003
    1UNL     C2    2  -0.428   0.060   0.102
    1UNL     C3    3  -0.295   0.054   0.089
    1UNL     C4    4  -0.208   0.032   0.215
    1UNL     N1    5  -0.063  -0.014   0.174
    1UNL     C5    6   0.011  -0.050   0.299
    1UNL     C6    7  -0.003   0.104   0.096
    1UNL     C7    8  -0.097   0.153  -0.022
    1UNL     C8    9  -0.212   0.045  -0.036
    1UNL     C9   10  -0.147  -0.095  -0.056
    1UNL    C10   11  -0.087  -0.104  -0.198
    1UNL     O1   12  -0.186  -0.076  -0.298
    1UNL    C11   13  -0.056  -0.128   0.073
    1UNL    C12   14   0.087  -0.163   0.032
    1UNL    C13   15   0.172  -0.046   0.017
    1UNL    C14   16   0.135   0.083   0.044
    1UNL     N2   17   0.234   0.173   0.010
    1UNL    C15   18   0.342   0.105  -0.040
    1UNL    C16   19   0.477   0.140  -0.084
    1UNL    C17   20   0.569   0.039  -0.109
    1UNL    C18   21   0.530  -0.095  -0.101
    1UNL    C19   22   0.402  -0.141  -0.064
    1UNL    C20   23   0.311  -0.039  -0.025
    1UNL     H1   24  -0.621  -0.005   0.024
    1UNL     H2   25  -0.590   0.169   0.004
    1UNL     H3   26  -0.517   0.034  -0.104
    1UNL     H4   27  -0.450   0.036   0.200
    1UNL     H5   28  -0.244  -0.062   0.273
    1UNL     H6   29  -0.188   0.118   0.284
    1UNL     H7   30  -0.044  -0.125   0.362
    1UNL     H8   31   0.113  -0.094   0.277
    1UNL     H9   32   0.020   0.035   0.373
    1UNL    H10   33  -0.000   0.187   0.171
    1UNL    H11   34  -0.131   0.250  -0.020
    1UNL    H12   35  -0.048   0.150  -0.116
    1UNL    H13   36  -0.277   0.063  -0.121
    1UNL    H14   37  -0.227  -0.174  -0.057
    1UNL    H15   38  -0.050  -0.214  -0.224
    1UNL    H16   39  -0.001  -0.037  -0.198
    1UNL    H17   40  -0.144  -0.014  -0.360
    1UNL    H18   41  -0.104  -0.215   0.119
    1UNL    H19   42   0.127  -0.228   0.108
    1UNL    H20   43   0.084  -0.215  -0.067
    1UNL    H21   44   0.236   0.280   0.016
    1UNL    H22   45   0.505   0.243  -0.090
    1UNL    H23   46   0.668   0.068  -0.125
    1UNL    H24   47   0.617  -0.166  -0.096
    1UNL    H25   48   0.370  -0.237  -0.034
   0.00000   0.00000   0.00000   0.00000   0.00000   0.00000   0.00000   0.00000   0.00000
Generated with MDTraj, t= 23.0
 48
    1UNL     C1    1  -0.509   0.064  -0.014
    1UNL     C2    2  -0.426   0.042   0.102
    1UNL     C3    3  -0.290   0.032   0.103
    1UNL     C4    4  -0.204   0.013   0.212
    1UNL     N1    5  -0.058  -0.003   0.168
    1UNL     C5    6   0.036  -0.021   0.285
    1UNL     C6    7  -0.006   0.115   0.092
    1UNL     C7    8  -0.105   0.156  -0.021
    1UNL     C8    9  -0.214   0.046  -0.033
    1UNL     C9   10  -0.149  -0.090  -0.052
    1UNL    C10   11  -0.081  -0.098  -0.190
    1UNL     O1   12  -0.166  -0.061  -0.298
    1UNL    C11   13  -0.060  -0.127   0.075
    1UNL    C12   14   0.080  -0.168   0.031
    1UNL    C13   15   0.163  -0.051   0.003
    1UNL    C14   16   0.125   0.077   0.037
    1UNL     N2   17   0.228   0.168   0.004
    1UNL    C15   18   0.341   0.099  -0.030
    1UNL    C16   19   0.470   0.134  -0.058
    1UNL    C17   20   0.556   0.035  -0.102
    1UNL    C18   21   0.520  -0.102  -0.102
    1UNL    C19   22   0.396  -0.135  -0.064
    1UNL    C20   23   0.306  -0.036  -0.027
    1UNL     H1   24  -0.607   0.114   0.014
    1UNL     H2   25  -0.460   0.140  -0.081
    1UNL     H3   26  -0.544  -0.032  -0.058
    1UNL     H4   27  -0.483   0.023   0.198
    1UNL     H5   28  -0.234  -0.074   0.285
    1UNL     H6   29  -0.206   0.114   0.261
    1UNL     H7   30   0.030  -0.124   0.332
    1UNL     H8   31   0.142  -0.001   0.258
    1UNL     H9   32   0.007   0.044   0.374
    1UNL    H10   33   0.012   0.202   0.158
    1UNL    H11   34  -0.151   0.246  -0.004
    1UNL    H12   35  -0.053   0.168  -0.112
    1UNL    H13   36  -0.291   0.071  -0.105
    1UNL    H14   37  -0.237  -0.159  -0.051
    1UNL    H15   38  -0.047  -0.209  -0.206
    1UNL    H16   39   0.005  -0.034  -0.203
    1UNL    H17   40  -0.249  -0.029  -0.257
    1UNL    H18   41  -0.115  -0.211   0.121
    1UNL    H19   42   0.131  -0.216   0.114
    1UNL    H20   43   0.081  -0.238  -0.052
    1UNL    H21   44   0.222   0.276   0.005
    1UNL    H22   45   0.496   0.238  -0.064
    1UNL    H23   46   0.636   0.064  -0.178
    1UNL    H24   47   0.581  -0.182  -0.148
    1UNL    H25   48   0.362  -0.245  -0.055
   0.00000   0.00000   0.00000   0.00000   0.00000   0.00000   0.00000   0.00000   0.00000
Generated with MDTraj, t= 24.0
 48
    1UNL     C1    1  -0.526   0.071   0.004
    1UNL     C2    2  -0.427   0.056   0.114
    1UNL     C3    3  -0.294   0.052   0.096
    1UNL     C4    4  -0.206   0.023   0.217
    1UNL     N1    5  -0.065  -0.010   0.169
    1UNL     C5    6   0.004  -0.040   0.297
    1UNL     C6    7  -0.008   0.114   0.096
    1UNL     C7    8  -0.101   0.153  -0.019
    1UNL     C8    9  -0.214   0.047  -0.032
    1UNL     C9   10  -0.157  -0.094  -0.053
    1UNL    C10   11  -0.077  -0.108  -0.184
    1UNL     O1   12  -0.145  -0.081  -0.304
    1UNL    C11   13  -0.064  -0.135   0.072
    1UNL    C12   14   0.080  -0.160   0.031
    1UNL    C13   15   0.168  -0.042   0.003
    1UNL    C14   16   0.128   0.086   0.032
    1UNL     N2   17   0.235   0.175   0.010
    1UNL    C15   18   0.340   0.093  -0.042
    1UNL    C16   19   0.471   0.133  -0.057
    1UNL    C17   20   0.561   0.042  -0.103
    1UNL    C18   21   0.527  -0.095  -0.113
    1UNL    C19   22   0.400  -0.138  -0.078
    1UNL    C20   23   0.304  -0.039  -0.040
    1UNL     H1   24  -0.622   0.025   0.036
    1UNL     H2   25  -0.541   0.179  -0.013
    1UNL     H3   26  -0.500   0.011  -0.091
    1UNL     H4   27  -0.451   0.026   0.213
    1UNL     H5   28  -0.241  -0.068   0.276
    1UNL     H6   29  -0.204   0.111   0.289
    1UNL     H7   30  -0.042  -0.119   0.365
    1UNL     H8   31   0.116  -0.048   0.288
    1UNL     H9   32  -0.014   0.051   0.363
    1UNL    H10   33  -0.006   0.183   0.178
    1UNL    H11   34  -0.154   0.239   0.006
    1UNL    H12   35  -0.046   0.171  -0.107
    1UNL    H13   36  -0.272   0.065  -0.123
    1UNL    H14   37  -0.240  -0.164  -0.070
    1UNL    H15   38  -0.042  -0.218  -0.200
    1UNL    H16   39   0.008  -0.042  -0.179
    1UNL    H17   40  -0.084  -0.065  -0.382
    1UNL    H18   41  -0.116  -0.213   0.128
    1UNL    H19   42   0.137  -0.215   0.107
    1UNL    H20   43   0.087  -0.219  -0.054
    1UNL    H21   44   0.245   0.276   0.040
    1UNL    H22   45   0.500   0.237  -0.057
    1UNL    H23   46   0.645   0.067  -0.159
    1UNL    H24   47   0.592  -0.170  -0.144
    1UNL    H25   48   0.370  -0.235  -0.076
   0.00000   0.00000   0.00000   0.00000   0.00000   0.00000   0.00000   0.00000   0.00000
Generated with MDTraj, t= 25.0
 48
    1UNL     C1    1  -0.498   0.082  -0.029
    1UNL     C2    2  -0.425   0.063   0.096
    1UNL     C3    3  -0.294   0.034   0.094
    1UNL     C4    4  -0.207   0.005   0.209
    1UNL     N1    5  -0.061  -0.013   0.172
    1UNL     C5    6   0.009  -0.032   0.305
    1UNL     C6    7  -0.009   0.113   0.097
    1UNL     C7    8  -0.096   0.142  -0.024
    1UNL     C8    9  -0.214   0.040  -0.034
    1UNL     C9   10  -0.149  -0.100  -0.049
    1UNL    C10   11  -0.086  -0.101  -0.189
    1UNL     O1   12  -0.181  -0.066  -0.290
    1UNL    C11   13  -0.052  -0.132   0.069
    1UNL    C12   14   0.090  -0.167   0.033
    1UNL    C13   15   0.171  -0.050   0.024
    1UNL    C14   16   0.131   0.080   0.048
    1UNL     N2   17   0.232   0.171   0.027
    1UNL    C15   18   0.342   0.106  -0.031
    1UNL    C16   19   0.475   0.145  -0.076
    1UNL    C17   20   0.556   0.041  -0.132
    1UNL    C18   21   0.512  -0.093  -0.124
    1UNL    C19   22   0.397  -0.133  -0.067
    1UNL    C20   23   0.309  -0.036  -0.019
    1UNL     H1   24  -0.607   0.083  -0.011
    1UNL     H2   25  -0.470   0.179  -0.072
    1UNL     H3   26  -0.489  -0.009  -0.101
    1UNL     H4   27  -0.476   0.052   0.192
    1UNL     H5   28  -0.246  -0.080   0.269
    1UNL     H6   29  -0.215   0.098   0.277
    1UNL     H7   30  -0.041  -0.113   0.368
    1UNL     H8   31   0.119  -0.049   0.283
    1UNL     H9   32   0.002   0.054   0.377
    1UNL    H10   33  -0.014   0.184   0.176
    1UNL    H11   34  -0.129   0.240  -0.020
    1UNL    H12   35  -0.037   0.133  -0.109
    1UNL    H13   36  -0.271   0.068  -0.124
    1UNL    H14   37  -0.226  -0.177  -0.052
    1UNL    H15   38  -0.037  -0.204  -0.207
    1UNL    H16   39   0.001  -0.036  -0.192
    1UNL    H17   40  -0.275  -0.068  -0.264
    1UNL    H18   41  -0.098  -0.219   0.120
    1UNL    H19   42   0.136  -0.222   0.117
    1UNL    H20   43   0.100  -0.225  -0.052
    1UNL    H21   44   0.214   0.270   0.052
    1UNL    H22   45   0.499   0.249  -0.091
    1UNL    H23   46   0.660   0.070  -0.164
    1UNL    H24   47   0.598  -0.167  -0.133
    1UNL    H25   48   0.377  -0.240  -0.039
   0.00000   0.00000   0.00000   0.00000   0.00000   0.00000   0.00000   0.00000   0.00000
Generated with MDTraj, t= 26.0
 48
    1UNL     C1    1  -0.510   0.099  -0.028
    1UNL     C2    2  -0.424   0.069   0.089
    1UNL     C3    3  -0.288   0.063   0.094
    1UNL     C4    4  -0.217   0.019   0.216
    1UNL     N1    5  -0.067  -0.020   0.173
    1UNL     C5    6   0.013  -0.059   0.300
    1UNL     C6    7  -0.006   0.104   0.109
    1UNL     C7    8  -0.086   0.152  -0.019
    1UNL     C8    9  -0.198   0.053  -0.034
    1UNL     C9   10  -0.148  -0.095  -0.052
    1UNL    C10   11  -0.079  -0.121  -0.188
    1UNL     O1   12  -0.169  -0.097  -0.294
    1UNL    C11   13  -0.063  -0.134   0.074
    1UNL    C12   14   0.086  -0.170   0.046
    1UNL    C13   15   0.176  -0.055   0.022
    1UNL    C14   16   0.139   0.071   0.060
    1UNL     N2   17   0.228   0.168   0.025
    1UNL    C15   18   0.338   0.102  -0.034
    1UNL    C16   19   0.459   0.150  -0.076
    1UNL    C17   20   0.547   0.058  -0.123
    1UNL    C18   21   0.519  -0.079  -0.129
    1UNL    C19   22   0.398  -0.125  -0.086
    1UNL    C20   23   0.306  -0.038  -0.028
    1UNL     H1   24  -0.581   0.182  -0.010
    1UNL     H2   25  -0.450   0.136  -0.114
    1UNL     H3   26  -0.576   0.011  -0.055
    1UNL     H4   27  -0.477   0.033   0.178
    1UNL     H5   28  -0.273  -0.059   0.269
    1UNL     H6   29  -0.219   0.105   0.295
    1UNL     H7   30  -0.015  -0.165   0.327
    1UNL     H8   31   0.123  -0.039   0.280
    1UNL     H9   32  -0.018  -0.005   0.394
    1UNL    H10   33   0.007   0.192   0.167
    1UNL    H11   34  -0.125   0.249  -0.016
    1UNL    H12   35  -0.018   0.147  -0.097
    1UNL    H13   36  -0.267   0.088  -0.112
    1UNL    H14   37  -0.239  -0.153  -0.046
    1UNL    H15   38  -0.031  -0.225  -0.191
    1UNL    H16   39   0.009  -0.059  -0.192
    1UNL    H17   40  -0.223  -0.175  -0.311
    1UNL    H18   41  -0.117  -0.219   0.119
    1UNL    H19   42   0.127  -0.233   0.125
    1UNL    H20   43   0.092  -0.229  -0.041
    1UNL    H21   44   0.215   0.267   0.038
    1UNL    H22   45   0.473   0.258  -0.089
    1UNL    H23   46   0.636   0.093  -0.161
    1UNL    H24   47   0.594  -0.149  -0.127
    1UNL    H25   48   0.377  -0.234  -0.067
   0.00000   0.00000   0.00000   0.00000   0.00000   0.00000   0.00000   0.00000   0.00000
Generated with MDTraj, t= 27.0
 48
    1UNL     C1    1  -0.507   0.134  -0.018
    1UNL     C2    2  -0.430   0.075   0.099
    1UNL     C3    3  -0.304   0.029   0.086
    1UNL     C4    4  -0.218  -0.004   0.207
    1UNL     N1    5  -0.068  -0.021   0.172
    1UNL     C5    6   0.014  -0.040   0.300
    1UNL     C6    7  -0.010   0.110   0.102
    1UNL     C7    8  -0.097   0.147  -0.023
    1UNL     C8    9  -0.213   0.037  -0.034
    1UNL     C9   10  -0.151  -0.106  -0.052
    1UNL    C10   11  -0.073  -0.125  -0.186
    1UNL     O1   12  -0.152  -0.101  -0.300
    1UNL    C11   13  -0.057  -0.139   0.082
    1UNL    C12   14   0.093  -0.164   0.044
    1UNL    C13   15   0.174  -0.039   0.020
    1UNL    C14   16   0.135   0.087   0.064
    1UNL     N2   17   0.236   0.179   0.031
    1UNL    C15   18   0.340   0.104  -0.015
    1UNL    C16   19   0.468   0.141  -0.066
    1UNL    C17   20   0.552   0.045  -0.126
    1UNL    C18   21   0.514  -0.087  -0.144
    1UNL    C19   22   0.390  -0.124  -0.096
    1UNL    C20   23   0.309  -0.031  -0.017
    1UNL     H1   24  -0.618   0.142   0.003
    1UNL     H2   25  -0.470   0.239  -0.043
    1UNL     H3   26  -0.499   0.071  -0.108
    1UNL     H4   27  -0.474   0.058   0.192
    1UNL     H5   28  -0.257  -0.096   0.254
    1UNL     H6   29  -0.231   0.069   0.295
    1UNL     H7   30  -0.038  -0.107   0.374
    1UNL     H8   31   0.118  -0.073   0.267
    1UNL     H9   32   0.031   0.058   0.354
    1UNL    H10   33  -0.036   0.186   0.172
    1UNL    H11   34  -0.139   0.240  -0.000
    1UNL    H12   35  -0.044   0.155  -0.112
    1UNL    H13   36  -0.261   0.060  -0.131
    1UNL    H14   37  -0.230  -0.179  -0.051
    1UNL    H15   38  -0.020  -0.225  -0.192
    1UNL    H16   39   0.017  -0.062  -0.192
    1UNL    H17   40  -0.215  -0.176  -0.319
    1UNL    H18   41  -0.097  -0.231   0.127
    1UNL    H19   42   0.141  -0.212   0.129
    1UNL    H20   43   0.110  -0.239  -0.034
    1UNL    H21   44   0.225   0.276   0.021
    1UNL    H22   45   0.494   0.241  -0.087
    1UNL    H23   46   0.628   0.079  -0.202
    1UNL    H24   47   0.579  -0.157  -0.204
    1UNL    H25   48   0.360  -0.218  -0.105
   0.00000   0.00000   0.00000   0.00000   0.00000   0.00000   0.00000   0.00000   0.00000
Generated with MDTraj, t= 28.0
 48
    1UNL     C1    1  -0.502   0.122  -0.024
    1UNL     C2    2  -0.412   0.099   0.090
    1UNL     C3    3  -0.292   0.042   0.089
    1UNL     C4    4  -0.214   0.008   0.213
    1UNL     N1    5  -0.065  -0.022   0.178
    1UNL     C5    6   0.019  -0.043   0.305
    1UNL     C6    7  -0.008   0.100   0.102
    1UNL     C7    8  -0.102   0.140  -0.020
    1UNL     C8    9  -0.211   0.029  -0.038
    1UNL     C9   10  -0.150  -0.115  -0.053
    1UNL    C10   11  -0.083  -0.127  -0.191
    1UNL     O1   12  -0.161  -0.078  -0.299
    1UNL    C11   13  -0.057  -0.141   0.077
    1UNL    C12   14   0.089  -0.176   0.052
    1UNL    C13   15   0.174  -0.056   0.025
    1UNL    C14   16   0.131   0.071   0.053
    1UNL     N2   17   0.228   0.167   0.022
    1UNL    C15   18   0.333   0.102  -0.038
    1UNL    C16   19   0.460   0.155  -0.076
    1UNL    C17   20   0.552   0.063  -0.122
    1UNL    C18   21   0.517  -0.076  -0.119
    1UNL    C19   22   0.395  -0.126  -0.086
    1UNL    C20   23   0.306  -0.038  -0.028
    1UNL     H1   24  -0.599   0.064  -0.009
    1UNL     H2   25  -0.526   0.233  -0.037
    1UNL     H3   26  -0.464   0.083  -0.119
    1UNL     H4   27  -0.460   0.120   0.191
    1UNL     H5   28  -0.270  -0.073   0.268
    1UNL     H6   29  -0.222   0.092   0.286
    1UNL     H7   30  -0.011  -0.142   0.352
    1UNL     H8   31   0.127  -0.039   0.274
    1UNL     H9   32   0.000   0.034   0.387
    1UNL    H10   33   0.012   0.182   0.168
    1UNL    H11   34  -0.155   0.228   0.003
    1UNL    H12   35  -0.037   0.149  -0.100
    1UNL    H13   36  -0.269   0.043  -0.131
    1UNL    H14   37  -0.232  -0.185  -0.039
    1UNL    H15   38  -0.045  -0.227  -0.216
    1UNL    H16   39   0.013  -0.069  -0.193
    1UNL    H17   40  -0.259  -0.091  -0.288
    1UNL    H18   41  -0.102  -0.219   0.141
    1UNL    H19   42   0.131  -0.227   0.137
    1UNL    H20   43   0.095  -0.256  -0.028
    1UNL    H21   44   0.212   0.263   0.031
    1UNL    H22   45   0.486   0.262  -0.081
    1UNL    H23   46   0.643   0.085  -0.174
    1UNL    H24   47   0.593  -0.140  -0.151
    1UNL    H25   48   0.389  -0.241  -0.079
   0.00000   0.00000   0.00000   0.00000   0.00000   0.00000   0.00000   0.00000   0.00000
Generated with MDTraj, t= 29.0
 48
    1UNL     C1    1  -0.511   0.113  -0.007
    1UNL     C2    2  -0.423   0.055   0.095
    1UNL     C3    3  -0.291   0.034   0.089
    1UNL     C4    4  -0.206   0.017   0.213
    1UNL     N1    5  -0.063  -0.014   0.170
    1UNL     C5    6   0.009  -0.050   0.301
    1UNL     C6    7  -0.009   0.114   0.107
    1UNL     C7    8  -0.101   0.151  -0.010
    1UNL     C8    9  -0.206   0.040  -0.034
    1UNL     C9   10  -0.148  -0.100  -0.062
    1UNL    C10   11  -0.090  -0.115  -0.201
    1UNL     O1   12  -0.172  -0.087  -0.311
    1UNL    C11   13  -0.058  -0.130   0.066
    1UNL    C12   14   0.092  -0.169   0.046
    1UNL    C13   15   0.176  -0.045   0.027
    1UNL    C14   16   0.128   0.081   0.046
    1UNL     N2   17   0.231   0.170   0.023
    1UNL    C15   18   0.333   0.102  -0.043
    1UNL    C16   19   0.463   0.139  -0.091
    1UNL    C17   20   0.556   0.048  -0.126
    1UNL    C18   21   0.529  -0.085  -0.112
    1UNL    C19   22   0.407  -0.129  -0.061
    1UNL    C20   23   0.308  -0.036  -0.020
    1UNL     H1   24  -0.599   0.164   0.043
    1UNL     H2   25  -0.457   0.190  -0.071
    1UNL     H3   26  -0.560   0.035  -0.070
    1UNL     H4   27  -0.468   0.043   0.186
    1UNL     H5   28  -0.251  -0.061   0.283
    1UNL     H6   29  -0.220   0.106   0.274
    1UNL     H7   30  -0.033  -0.148   0.341
    1UNL     H8   31   0.120  -0.053   0.284
    1UNL     H9   32  -0.008   0.023   0.387
    1UNL    H10   33   0.004   0.183   0.187
    1UNL    H11   34  -0.156   0.237   0.008
    1UNL    H12   35  -0.031   0.155  -0.088
    1UNL    H13   36  -0.274   0.069  -0.117
    1UNL    H14   37  -0.237  -0.162  -0.048
    1UNL    H15   38  -0.046  -0.212  -0.208
    1UNL    H16   39  -0.002  -0.043  -0.209
    1UNL    H17   40  -0.260  -0.128  -0.305
    1UNL    H18   41  -0.105  -0.216   0.113
    1UNL    H19   42   0.128  -0.225   0.128
    1UNL    H20   43   0.106  -0.242  -0.043
    1UNL    H21   44   0.232   0.266   0.041
    1UNL    H22   45   0.482   0.242  -0.094
    1UNL    H23   46   0.650   0.085  -0.160
    1UNL    H24   47   0.608  -0.163  -0.102
    1UNL    H25   48   0.389  -0.233  -0.038
   0.00000   0.00000   0.00000   0.00000   0.00000   0.00000   0.00000   0.00000   0.00000
Generated with MDTraj, t= 30.0
 48
    1UNL     C1    1  -0.515   0.079  -0.010
    1UNL     C2    2  -0.429   0.059   0.110
    1UNL     C3    3  -0.300   0.042   0.096
    1UNL     C4    4  -0.208   0.021   0.214
    1UNL     N1    5  -0.064  -0.009   0.170
    1UNL     C5    6   0.023  -0.042   0.288
    1UNL     C6    7  -0.005   0.115   0.094
    1UNL     C7    8  -0.106   0.150  -0.020
    1UNL     C8    9  -0.221   0.042  -0.036
    1UNL     C9   10  -0.147  -0.096  -0.056
    1UNL    C10   11  -0.079  -0.112  -0.194
    1UNL     O1   12  -0.170  -0.073  -0.295
    1UNL    C11   13  -0.059  -0.130   0.073
    1UNL    C12   14   0.091  -0.164   0.031
    1UNL    C13   15   0.167  -0.044   0.011
    1UNL    C14   16   0.129   0.088   0.040
    1UNL     N2   17   0.236   0.173   0.015
    1UNL    C15   18   0.343   0.097  -0.027
    1UNL    C16   19   0.474   0.137  -0.055
    1UNL    C17   20   0.554   0.041  -0.112
    1UNL    C18   21   0.523  -0.096  -0.115
    1UNL    C19   22   0.399  -0.137  -0.071
    1UNL    C20   23   0.307  -0.039  -0.030
    1UNL     H1   24  -0.598   0.149   0.014
    1UNL     H2   25  -0.458   0.120  -0.098
    1UNL     H3   26  -0.566  -0.019  -0.038
    1UNL     H4   27  -0.469   0.065   0.217
    1UNL     H5   28  -0.255  -0.063   0.275
    1UNL     H6   29  -0.210   0.105   0.280
    1UNL     H7   30  -0.017  -0.121   0.361
    1UNL     H8   31   0.128  -0.059   0.249
    1UNL     H9   32   0.040   0.049   0.353
    1UNL    H10   33  -0.007   0.194   0.166
    1UNL    H11   34  -0.150   0.237   0.015
    1UNL    H12   35  -0.066   0.164  -0.116
    1UNL    H13   36  -0.274   0.058  -0.134
    1UNL    H14   37  -0.229  -0.170  -0.056
    1UNL    H15   38  -0.054  -0.213  -0.200
    1UNL    H16   39   0.018  -0.050  -0.192
    1UNL    H17   40  -0.204  -0.144  -0.354
    1UNL    H18   41  -0.099  -0.217   0.123
    1UNL    H19   42   0.133  -0.221   0.111
    1UNL    H20   43   0.103  -0.241  -0.054
    1UNL    H21   44   0.240   0.271   0.034
    1UNL    H22   45   0.488   0.246  -0.067
    1UNL    H23   46   0.648   0.078  -0.159
    1UNL    H24   47   0.605  -0.160  -0.137
    1UNL    H25   48   0.372  -0.236  -0.071
   0.00000   0.00000   0.00000   0.00000   0.00000   0.00000   0.00000   0.00000   0.00000
Generated with MDTraj, t= 31.0
 48
    1UNL     C1    1  -0.528   0.053  -0.005
    1UNL     C2    2  -0.423   0.067   0.104
    1UNL     C3    3  -0.291   0.053   0.098
    1UNL     C4    4  -0.207   0.015   0.216
    1UNL     N1    5  -0.062  -0.002   0.164
    1UNL     C5    6   0.022  -0.030   0.283
    1UNL     C6    7  -0.004   0.115   0.087
    1UNL     C7    8  -0.102   0.156  -0.034
    1UNL     C8    9  -0.212   0.045  -0.033
    1UNL     C9   10  -0.152  -0.099  -0.046
    1UNL    C10   11  -0.093  -0.120  -0.186
    1UNL     O1   12  -0.173  -0.063  -0.288
    1UNL    C11   13  -0.063  -0.128   0.077
    1UNL    C12   14   0.079  -0.171   0.036
    1UNL    C13   15   0.167  -0.047  -0.001
    1UNL    C14   16   0.133   0.077   0.044
    1UNL     N2   17   0.232   0.172   0.011
    1UNL    C15   18   0.348   0.096  -0.027
    1UNL    C16   19   0.480   0.131  -0.042
    1UNL    C17   20   0.569   0.041  -0.094
    1UNL    C18   21   0.526  -0.093  -0.119
    1UNL    C19   22   0.398  -0.133  -0.084
    1UNL    C20   23   0.307  -0.038  -0.038
    1UNL     H1   24  -0.600  -0.028   0.021
    1UNL     H2   25  -0.583   0.147  -0.024
    1UNL     H3   26  -0.482   0.018  -0.105
    1UNL     H4   27  -0.455   0.085   0.200
    1UNL     H5   28  -0.244  -0.082   0.260
    1UNL     H6   29  -0.223   0.092   0.289
    1UNL     H7   30  -0.013  -0.126   0.333
    1UNL     H8   31   0.134  -0.018   0.265
    1UNL     H9   32  -0.001   0.048   0.361
    1UNL    H10   33  -0.007   0.206   0.141
    1UNL    H11   34  -0.150   0.247  -0.045
    1UNL    H12   35  -0.044   0.142  -0.121
    1UNL    H13   36  -0.278   0.069  -0.120
    1UNL    H14   37  -0.241  -0.165  -0.035
    1UNL    H15   38  -0.088  -0.221  -0.200
    1UNL    H16   39   0.013  -0.079  -0.187
    1UNL    H17   40  -0.119   0.006  -0.335
    1UNL    H18   41  -0.110  -0.203   0.140
    1UNL    H19   42   0.132  -0.230   0.108
    1UNL    H20   43   0.071  -0.241  -0.050
    1UNL    H21   44   0.225   0.275   0.017
    1UNL    H22   45   0.502   0.235  -0.046
    1UNL    H23   46   0.657   0.071  -0.139
    1UNL    H24   47   0.591  -0.167  -0.165
    1UNL    H25   48   0.370  -0.245  -0.088
   0.00000   0.00000   0.00000   0.00000   0.00000   0.00000   0.00000   0.00000   0.00000
Generated with MDTraj, t= 32.0
 48
    1UNL     C1    1  -0.515   0.067   0.001
    1UNL     C2    2  -0.420   0.031   0.112
    1UNL     C3    3  -0.290   0.049   0.096
    1UNL     C4    4  -0.201   0.013   0.209
    1UNL     N1    5  -0.060  -0.006   0.172
    1UNL     C5    6   0.023  -0.032   0.296
    1UNL     C6    7  -0.005   0.118   0.087
    1UNL     C7    8  -0.102   0.154  -0.029
    1UNL     C8    9  -0.221   0.054  -0.038
    1UNL     C9   10  -0.155  -0.087  -0.058
    1UNL    C10   11  -0.091  -0.098  -0.194
    1UNL     O1   12  -0.178  -0.090  -0.304
    1UNL    C11   13  -0.065  -0.121   0.067
    1UNL    C12   14   0.080  -0.157   0.028
    1UNL    C13   15   0.170  -0.037   0.013
    1UNL    C14   16   0.132   0.090   0.039
    1UNL     N2   17   0.239   0.174   0.016
    1UNL    C15   18   0.344   0.094  -0.035
    1UNL    C16   19   0.473   0.134  -0.076
    1UNL    C17   20   0.562   0.033  -0.103
    1UNL    C18   21   0.526  -0.104  -0.099
    1UNL    C19   22   0.399  -0.145  -0.063
    1UNL    C20   23   0.308  -0.040  -0.025
    1UNL     H1   24  -0.485   0.018  -0.097
    1UNL     H2   25  -0.619   0.040   0.030
    1UNL     H3   26  -0.514   0.178  -0.015
    1UNL     H4   27  -0.461   0.013   0.215
    1UNL     H5   28  -0.244  -0.077   0.252
    1UNL     H6   29  -0.207   0.095   0.281
    1UNL     H7   30  -0.029  -0.114   0.356
    1UNL     H8   31   0.131  -0.052   0.263
    1UNL     H9   32   0.029   0.055   0.367
    1UNL    H10   33  -0.005   0.193   0.164
    1UNL    H11   34  -0.134   0.251  -0.019
    1UNL    H12   35  -0.059   0.143  -0.126
    1UNL    H13   36  -0.293   0.090  -0.118
    1UNL    H14   37  -0.246  -0.152  -0.056
    1UNL    H15   38  -0.045  -0.188  -0.209
    1UNL    H16   39  -0.014  -0.017  -0.209
    1UNL    H17   40  -0.223  -0.003  -0.300
    1UNL    H18   41  -0.115  -0.205   0.114
    1UNL    H19   42   0.117  -0.216   0.111
    1UNL    H20   43   0.084  -0.217  -0.061
    1UNL    H21   44   0.241   0.277   0.039
    1UNL    H22   45   0.496   0.239  -0.065
    1UNL    H23   46   0.667   0.065  -0.135
    1UNL    H24   47   0.605  -0.181  -0.105
    1UNL    H25   48   0.379  -0.243  -0.032
   0.00000   0.00000   0.00000   0.00000   0.00000   0.00000   0.00000   0.00000   0.00000
Generated with MDTraj, t= 33.0
 48
    1UNL     C1    1  -0.515   0.081  -0.009
    1UNL     C2    2  -0.425   0.062   0.111
    1UNL     C3    3  -0.294   0.047   0.098
    1UNL     C4    4  -0.199   0.026   0.220
    1UNL     N1    5  -0.059  -0.007   0.169
    1UNL     C5    6   0.013  -0.054   0.292
    1UNL     C6    7  -0.008   0.118   0.095
    1UNL     C7    8  -0.097   0.151  -0.026
    1UNL     C8    9  -0.219   0.050  -0.029
    1UNL     C9   10  -0.156  -0.093  -0.051
    1UNL    C10   11  -0.085  -0.093  -0.186
    1UNL     O1   12  -0.168  -0.095  -0.300
    1UNL    C11   13  -0.065  -0.129   0.073
    1UNL    C12   14   0.084  -0.170   0.034
    1UNL    C13   15   0.169  -0.048   0.011
    1UNL    C14   16   0.120   0.084   0.030
    1UNL     N2   17   0.229   0.160   0.002
    1UNL    C15   18   0.343   0.097  -0.044
    1UNL    C16   19   0.471   0.138  -0.079
    1UNL    C17   20   0.567   0.043  -0.105
    1UNL    C18   21   0.534  -0.095  -0.091
    1UNL    C19   22   0.402  -0.133  -0.070
    1UNL    C20   23   0.308  -0.041  -0.032
    1UNL     H1   24  -0.515   0.187  -0.050
    1UNL     H2   25  -0.489   0.008  -0.094
    1UNL     H3   26  -0.618   0.054   0.016
    1UNL     H4   27  -0.464   0.083   0.208
    1UNL     H5   28  -0.231  -0.060   0.269
    1UNL     H6   29  -0.203   0.112   0.290
    1UNL     H7   30  -0.040  -0.146   0.333
    1UNL     H8   31   0.126  -0.058   0.284
    1UNL     H9   32  -0.008   0.024   0.372
    1UNL    H10   33   0.016   0.199   0.162
    1UNL    H11   34  -0.134   0.246  -0.019
    1UNL    H12   35  -0.045   0.144  -0.117
    1UNL    H13   36  -0.289   0.065  -0.115
    1UNL    H14   37  -0.234  -0.171  -0.070
    1UNL    H15   38  -0.037  -0.184  -0.199
    1UNL    H16   39  -0.014  -0.011  -0.208
    1UNL    H17   40  -0.239  -0.029  -0.295
    1UNL    H18   41  -0.114  -0.202   0.138
    1UNL    H19   42   0.127  -0.224   0.120
    1UNL    H20   43   0.078  -0.228  -0.053
    1UNL    H21   44   0.225   0.263   0.032
    1UNL    H22   45   0.487   0.247  -0.078
    1UNL    H23   46   0.663   0.073  -0.129
    1UNL    H24   47   0.618  -0.160  -0.087
    1UNL    H25   48   0.377  -0.235  -0.055
   0.00000   0.00000   0.00000   0.00000   0.00000   0.00000   0.00000   0.00000   0.00000
Generated with MDTraj, t= 34.0
 48
    1UNL     C1    1  -0.517   0.104  -0.010
    1UNL     C2    2  -0.428   0.065   0.099
    1UNL     C3    3  -0.296   0.048   0.094
    1UNL     C4    4  -0.211   0.005   0.209
    1UNL     N1    5  -0.066  -0.009   0.171
    1UNL     C5    6   0.020  -0.030   0.293
    1UNL     C6    7  -0.010   0.113   0.092
    1UNL     C7    8  -0.104   0.145  -0.023
    1UNL     C8    9  -0.210   0.039  -0.036
    1UNL     C9   10  -0.146  -0.105  -0.048
    1UNL    C10   11  -0.088  -0.135  -0.187
    1UNL     O1   12  -0.165  -0.076  -0.293
    1UNL    C11   13  -0.058  -0.130   0.079
    1UNL    C12   14   0.094  -0.166   0.043
    1UNL    C13   15   0.179  -0.040   0.014
    1UNL    C14   16   0.132   0.083   0.039
    1UNL     N2   17   0.233   0.170   0.016
    1UNL    C15   18   0.342   0.100  -0.030
    1UNL    C16   19   0.471   0.143  -0.064
    1UNL    C17   20   0.550   0.042  -0.111
    1UNL    C18   21   0.517  -0.096  -0.117
    1UNL    C19   22   0.397  -0.142  -0.075
    1UNL    C20   23   0.312  -0.035  -0.026
    1UNL     H1   24  -0.509   0.213  -0.035
    1UNL     H2   25  -0.491   0.039  -0.102
    1UNL     H3   26  -0.622   0.079   0.013
    1UNL     H4   27  -0.478   0.085   0.192
    1UNL     H5   28  -0.245  -0.087   0.244
    1UNL     H6   29  -0.217   0.081   0.288
    1UNL     H7   30  -0.016  -0.124   0.345
    1UNL     H8   31   0.130  -0.024   0.266
    1UNL     H9   32   0.009   0.050   0.373
    1UNL    H10   33   0.004   0.192   0.164
    1UNL    H11   34  -0.160   0.232  -0.008
    1UNL    H12   35  -0.051   0.156  -0.112
    1UNL    H13   36  -0.275   0.061  -0.125
    1UNL    H14   37  -0.227  -0.180  -0.050
    1UNL    H15   38  -0.091  -0.242  -0.210
    1UNL    H16   39   0.011  -0.092  -0.196
    1UNL    H17   40  -0.126   0.012  -0.313
    1UNL    H18   41  -0.098  -0.216   0.133
    1UNL    H19   42   0.136  -0.220   0.129
    1UNL    H20   43   0.097  -0.226  -0.043
    1UNL    H21   44   0.218   0.274  -0.005
    1UNL    H22   45   0.493   0.242  -0.089
    1UNL    H23   46   0.644   0.074  -0.167
    1UNL    H24   47   0.582  -0.176  -0.162
    1UNL    H25   48   0.354  -0.246  -0.101
   0.00000   0.00000   0.00000   0.00000   0.00000   0.00000   0.00000   0.00000   0.00000
Generated with MDTraj, t= 35.0
 48
    1UNL     C1    1  -0.516   0.106  -0.019
    1UNL     C2    2  -0.425   0.078   0.091
    1UNL     C3    3  -0.297   0.046   0.086
    1UNL     C4    4  -0.207   0.021   0.212
    1UNL     N1    5  -0.059  -0.019   0.173
    1UNL     C5    6   0.024  -0.035   0.299
    1UNL     C6    7  -0.009   0.108   0.105
    1UNL     C7    8  -0.099   0.162  -0.015
    1UNL     C8    9  -0.208   0.046  -0.034
    1UNL     C9   10  -0.139  -0.097  -0.051
    1UNL    C10   11  -0.073  -0.127  -0.188
    1UNL     O1   12  -0.156  -0.101  -0.303
    1UNL    C11   13  -0.056  -0.140   0.076
    1UNL    C12   14   0.086  -0.176   0.043
    1UNL    C13   15   0.169  -0.055   0.023
    1UNL    C14   16   0.127   0.075   0.058
    1UNL     N2   17   0.226   0.169   0.028
    1UNL    C15   18   0.331   0.099  -0.024
    1UNL    C16   19   0.455   0.144  -0.070
    1UNL    C17   20   0.548   0.052  -0.122
    1UNL    C18   21   0.518  -0.088  -0.131
    1UNL    C19   22   0.396  -0.136  -0.083
    1UNL    C20   23   0.301  -0.043  -0.029
    1UNL     H1   24  -0.466   0.139  -0.114
    1UNL     H2   25  -0.577   0.014  -0.037
    1UNL     H3   26  -0.590   0.189   0.009
    1UNL     H4   27  -0.463   0.115   0.189
    1UNL     H5   28  -0.242  -0.060   0.269
    1UNL     H6   29  -0.195   0.108   0.276
    1UNL     H7   30  -0.032  -0.098   0.376
    1UNL     H8   31   0.131  -0.062   0.277
    1UNL     H9   32   0.039   0.065   0.351
    1UNL    H10   33   0.012   0.186   0.177
    1UNL    H11   34  -0.134   0.260  -0.001
    1UNL    H12   35  -0.052   0.166  -0.108
    1UNL    H13   36  -0.271   0.073  -0.124
    1UNL    H14   37  -0.218  -0.175  -0.050
    1UNL    H15   38  -0.050  -0.239  -0.195
    1UNL    H16   39   0.013  -0.068  -0.195
    1UNL    H17   40  -0.152  -0.006  -0.333
    1UNL    H18   41  -0.101  -0.223   0.134
    1UNL    H19   42   0.129  -0.232   0.126
    1UNL    H20   43   0.092  -0.242  -0.040
    1UNL    H21   44   0.201   0.272   0.034
    1UNL    H22   45   0.484   0.250  -0.092
    1UNL    H23   46   0.638   0.082  -0.170
    1UNL    H24   47   0.595  -0.145  -0.172
    1UNL    H25   48   0.374  -0.233  -0.096
   0.00000   0.00000   0.00000   0.00000   0.00000   0.00000   0.00000   0.00000   0.00000
Generated with MDTraj, t= 36.0
 48
    1UNL     C1    1  -0.509   0.117  -0.027
    1UNL     C2    2  -0.427   0.071   0.087
    1UNL     C3    3  -0.298   0.040   0.083
    1UNL     C4    4  -0.221   0.022   0.208
    1UNL     N1    5  -0.072  -0.016   0.181
    1UNL     C5    6   0.002  -0.054   0.310
    1UNL     C6    7  -0.010   0.108   0.114
    1UNL     C7    8  -0.101   0.145  -0.003
    1UNL     C8    9  -0.203   0.034  -0.037
    1UNL     C9   10  -0.144  -0.106  -0.054
    1UNL    C10   11  -0.071  -0.114  -0.191
    1UNL     O1   12  -0.168  -0.104  -0.296
    1UNL    C11   13  -0.055  -0.136   0.080
    1UNL    C12   14   0.098  -0.165   0.047
    1UNL    C13   15   0.183  -0.043   0.033
    1UNL    C14   16   0.138   0.081   0.064
    1UNL     N2   17   0.234   0.171   0.022
    1UNL    C15   18   0.343   0.107  -0.035
    1UNL    C16   19   0.464   0.144  -0.096
    1UNL    C17   20   0.548   0.042  -0.140
    1UNL    C18   21   0.512  -0.090  -0.130
    1UNL    C19   22   0.392  -0.130  -0.081
    1UNL    C20   23   0.310  -0.028  -0.028
    1UNL     H1   24  -0.446   0.159  -0.110
    1UNL     H2   25  -0.566   0.033  -0.068
    1UNL     H3   26  -0.585   0.204  -0.006
    1UNL     H4   27  -0.472   0.098   0.177
    1UNL     H5   28  -0.258  -0.058   0.271
    1UNL     H6   29  -0.218   0.114   0.259
    1UNL     H7   30  -0.017  -0.165   0.330
    1UNL     H8   31   0.109  -0.021   0.295
    1UNL     H9   32  -0.035  -0.001   0.402
    1UNL    H10   33  -0.004   0.188   0.188
    1UNL    H11   34  -0.154   0.232   0.020
    1UNL    H12   35  -0.055   0.176  -0.092
    1UNL    H13   36  -0.262   0.072  -0.126
    1UNL    H14   37  -0.224  -0.181  -0.056
    1UNL    H15   38  -0.023  -0.219  -0.203
    1UNL    H16   39   0.002  -0.042  -0.194
    1UNL    H17   40  -0.191  -0.011  -0.317
    1UNL    H18   41  -0.090  -0.224   0.136
    1UNL    H19   42   0.144  -0.230   0.121
    1UNL    H20   43   0.098  -0.227  -0.042
    1UNL    H21   44   0.240   0.271   0.051
    1UNL    H22   45   0.502   0.240  -0.093
    1UNL    H23   46   0.653   0.060  -0.164
    1UNL    H24   47   0.588  -0.171  -0.147
    1UNL    H25   48   0.374  -0.232  -0.037
   0.00000   0.00000   0.00000   0.00000   0.00000   0.00000   0.00000   0.00000   0.00000
Generated with MDTraj, t= 37.0
 48
    1UNL     C1    1  -0.506   0.109  -0.028
    1UNL     C2    2  -0.416   0.073   0.092
    1UNL     C3    3  -0.288   0.042   0.091
    1UNL     C4    4  -0.211   0.026   0.221
    1UNL     N1    5  -0.065  -0.016   0.174
    1UNL     C5    6   0.013  -0.032   0.301
    1UNL     C6    7  -0.006   0.108   0.109
    1UNL     C7    8  -0.088   0.141  -0.017
    1UNL     C8    9  -0.205   0.040  -0.037
    1UNL     C9   10  -0.151  -0.103  -0.057
    1UNL    C10   11  -0.075  -0.124  -0.186
    1UNL     O1   12  -0.154  -0.092  -0.298
    1UNL    C11   13  -0.063  -0.139   0.071
    1UNL    C12   14   0.083  -0.175   0.044
    1UNL    C13   15   0.171  -0.052   0.036
    1UNL    C14   16   0.130   0.077   0.064
    1UNL     N2   17   0.230   0.166   0.028
    1UNL    C15   18   0.333   0.099  -0.028
    1UNL    C16   19   0.454   0.145  -0.085
    1UNL    C17   20   0.541   0.052  -0.136
    1UNL    C18   21   0.508  -0.083  -0.139
    1UNL    C19   22   0.399  -0.131  -0.077
    1UNL    C20   23   0.302  -0.042  -0.020
    1UNL     H1   24  -0.502   0.220  -0.052
    1UNL     H2   25  -0.469   0.052  -0.114
    1UNL     H3   26  -0.618   0.081  -0.017
    1UNL     H4   27  -0.467   0.106   0.187
    1UNL     H5   28  -0.246  -0.062   0.275
    1UNL     H6   29  -0.200   0.108   0.283
    1UNL     H7   30  -0.042  -0.106   0.369
    1UNL     H8   31   0.123  -0.045   0.278
    1UNL     H9   32   0.007   0.066   0.355
    1UNL    H10   33  -0.006   0.189   0.183
    1UNL    H11   34  -0.141   0.230  -0.013
    1UNL    H12   35  -0.028   0.152  -0.102
    1UNL    H13   36  -0.275   0.073  -0.121
    1UNL    H14   37  -0.236  -0.173  -0.068
    1UNL    H15   38  -0.037  -0.234  -0.197
    1UNL    H16   39   0.008  -0.063  -0.187
    1UNL    H17   40  -0.140  -0.001  -0.328
    1UNL    H18   41  -0.105  -0.227   0.123
    1UNL    H19   42   0.117  -0.236   0.127
    1UNL    H20   43   0.100  -0.239  -0.045
    1UNL    H21   44   0.223   0.268   0.027
    1UNL    H22   45   0.489   0.250  -0.069
    1UNL    H23   46   0.634   0.093  -0.179
    1UNL    H24   47   0.576  -0.156  -0.172
    1UNL    H25   48   0.383  -0.240  -0.062
   0.00000   0.00000   0.00000   0.00000   0.00000   0.00000   0.00000   0.00000   0.00000
Generated with MDTraj, t= 38.0
 48
    1UNL     C1    1  -0.501   0.091  -0.021
    1UNL     C2    2  -0.427   0.056   0.103
    1UNL     C3    3  -0.297   0.048   0.090
    1UNL     C4    4  -0.225   0.008   0.207
    1UNL     N1    5  -0.072  -0.014   0.177
    1UNL     C5    6   0.010  -0.028   0.309
    1UNL     C6    7  -0.009   0.110   0.104
    1UNL     C7    8  -0.094   0.151  -0.017
    1UNL     C8    9  -0.211   0.049  -0.033
    1UNL     C9   10  -0.152  -0.099  -0.045
    1UNL    C10   11  -0.076  -0.115  -0.175
    1UNL     O1   12  -0.142  -0.084  -0.296
    1UNL    C11   13  -0.060  -0.129   0.077
    1UNL    C12   14   0.085  -0.169   0.042
    1UNL    C13   15   0.169  -0.051   0.024
    1UNL    C14   16   0.134   0.082   0.053
    1UNL     N2   17   0.232   0.177   0.014
    1UNL    C15   18   0.340   0.098  -0.039
    1UNL    C16   19   0.471   0.133  -0.069
    1UNL    C17   20   0.555   0.041  -0.127
    1UNL    C18   21   0.514  -0.093  -0.132
    1UNL    C19   22   0.392  -0.132  -0.084
    1UNL    C20   23   0.302  -0.037  -0.035
    1UNL     H1   24  -0.456   0.180  -0.073
    1UNL     H2   25  -0.491   0.001  -0.093
    1UNL     H3   26  -0.610   0.114  -0.012
    1UNL     H4   27  -0.476   0.070   0.192
    1UNL     H5   28  -0.261  -0.087   0.245
    1UNL     H6   29  -0.232   0.085   0.276
    1UNL     H7   30  -0.032  -0.116   0.366
    1UNL     H8   31   0.116  -0.042   0.271
    1UNL     H9   32   0.010   0.059   0.381
    1UNL    H10   33  -0.001   0.189   0.180
    1UNL    H11   34  -0.129   0.246   0.001
    1UNL    H12   35  -0.040   0.150  -0.108
    1UNL    H13   36  -0.270   0.066  -0.128
    1UNL    H14   37  -0.236  -0.171  -0.053
    1UNL    H15   38  -0.054  -0.226  -0.188
    1UNL    H16   39   0.017  -0.067  -0.177
    1UNL    H17   40  -0.148   0.013  -0.310
    1UNL    H18   41  -0.106  -0.210   0.139
    1UNL    H19   42   0.133  -0.229   0.118
    1UNL    H20   43   0.080  -0.232  -0.049
    1UNL    H21   44   0.213   0.274   0.002
    1UNL    H22   45   0.497   0.235  -0.076
    1UNL    H23   46   0.643   0.067  -0.185
    1UNL    H24   47   0.575  -0.154  -0.201
    1UNL    H25   48   0.355  -0.223  -0.109
   0.00000   0.00000   0.00000   0.00000   0.00000   0.00000   0.00000   0.00000   0.00000
Generated with MDTraj, t= 39.0
 48
    1UNL     C1    1  -0.517   0.075  -0.017
    1UNL     C2    2  -0.422   0.052   0.096
    1UNL     C3    3  -0.292   0.051   0.102
    1UNL     C4    4  -0.212   0.016   0.226
    1UNL     N1    5  -0.065  -0.010   0.170
    1UNL     C5    6   0.010  -0.042   0.299
    1UNL     C6    7  -0.004   0.114   0.089
    1UNL     C7    8  -0.105   0.153  -0.025
    1UNL     C8    9  -0.216   0.052  -0.029
    1UNL     C9   10  -0.147  -0.090  -0.051
    1UNL    C10   11  -0.067  -0.095  -0.183
    1UNL     O1   12  -0.154  -0.081  -0.294
    1UNL    C11   13  -0.062  -0.132   0.072
    1UNL    C12   14   0.084  -0.169   0.039
    1UNL    C13   15   0.175  -0.046   0.024
    1UNL    C14   16   0.132   0.081   0.042
    1UNL     N2   17   0.230   0.176   0.007
    1UNL    C15   18   0.339   0.097  -0.033
    1UNL    C16   19   0.469   0.131  -0.079
    1UNL    C17   20   0.554   0.033  -0.126
    1UNL    C18   21   0.519  -0.099  -0.115
    1UNL    C19   22   0.396  -0.136  -0.068
    1UNL    C20   23   0.303  -0.037  -0.026
    1UNL     H1   24  -0.504   0.173  -0.072
    1UNL     H2   25  -0.504  -0.010  -0.095
    1UNL     H3   26  -0.624   0.073   0.009
    1UNL     H4   27  -0.474   0.055   0.198
    1UNL     H5   28  -0.250  -0.079   0.259
    1UNL     H6   29  -0.210   0.088   0.303
    1UNL     H7   30  -0.015  -0.145   0.337
    1UNL     H8   31   0.119  -0.016   0.290
    1UNL     H9   32  -0.028   0.025   0.383
    1UNL    H10   33  -0.008   0.186   0.173
    1UNL    H11   34  -0.151   0.245  -0.014
    1UNL    H12   35  -0.047   0.155  -0.115
    1UNL    H13   36  -0.286   0.085  -0.113
    1UNL    H14   37  -0.236  -0.154  -0.064
    1UNL    H15   38  -0.007  -0.186  -0.198
    1UNL    H16   39   0.010  -0.014  -0.182
    1UNL    H17   40  -0.170   0.017  -0.303
    1UNL    H18   41  -0.114  -0.214   0.127
    1UNL    H19   42   0.125  -0.223   0.123
    1UNL    H20   43   0.098  -0.233  -0.052
    1UNL    H21   44   0.224   0.272   0.024
    1UNL    H22   45   0.490   0.235  -0.096
    1UNL    H23   46   0.655   0.058  -0.166
    1UNL    H24   47   0.579  -0.183  -0.143
    1UNL    H25   48   0.353  -0.244  -0.069
   0.00000   0.00000   0.00000   0.00000   0.00000   0.00000   0.00000   0.00000   0.00000
Generated with MDTraj, t= 40.0
 48
    1UNL     C1    1  -0.514   0.071  -0.007
    1UNL     C2    2  -0.424   0.043   0.105
    1UNL     C3    3  -0.293   0.049   0.091
    1UNL     C4    4  -0.205   0.031   0.211
    1UNL     N1    5  -0.060  -0.007   0.170
    1UNL     C5    6   0.018  -0.035   0.300
    1UNL     C6    7  -0.003   0.109   0.096
    1UNL     C7    8  -0.096   0.147  -0.029
    1UNL     C8    9  -0.216   0.049  -0.039
    1UNL     C9   10  -0.154  -0.092  -0.052
    1UNL    C10   11  -0.079  -0.096  -0.185
    1UNL     O1   12  -0.162  -0.063  -0.293
    1UNL    C11   13  -0.056  -0.127   0.071
    1UNL    C12   14   0.090  -0.174   0.034
    1UNL    C13   15   0.164  -0.053   0.007
    1UNL    C14   16   0.131   0.078   0.044
    1UNL     N2   17   0.227   0.166   0.011
    1UNL    C15   18   0.338   0.093  -0.032
    1UNL    C16   19   0.456   0.140  -0.093
    1UNL    C17   20   0.551   0.042  -0.114
    1UNL    C18   21   0.518  -0.099  -0.102
    1UNL    C19   22   0.397  -0.139  -0.060
    1UNL    C20   23   0.306  -0.046  -0.025
    1UNL     H1   24  -0.524   0.182  -0.025
    1UNL     H2   25  -0.467   0.015  -0.095
    1UNL     H3   26  -0.614   0.029   0.011
    1UNL     H4   27  -0.460   0.053   0.201
    1UNL     H5   28  -0.235  -0.049   0.271
    1UNL     H6   29  -0.207   0.126   0.260
    1UNL     H7   30  -0.023  -0.117   0.364
    1UNL     H8   31   0.122  -0.055   0.267
    1UNL     H9   32   0.034   0.053   0.369
    1UNL    H10   33   0.002   0.198   0.164
    1UNL    H11   34  -0.132   0.244  -0.009
    1UNL    H12   35  -0.041   0.143  -0.120
    1UNL    H13   36  -0.275   0.075  -0.133
    1UNL    H14   37  -0.244  -0.159  -0.052
    1UNL    H15   38  -0.053  -0.199  -0.195
    1UNL    H16   39   0.024  -0.039  -0.191
    1UNL    H17   40  -0.130   0.017  -0.344
    1UNL    H18   41  -0.106  -0.205   0.132
    1UNL    H19   42   0.137  -0.237   0.108
    1UNL    H20   43   0.079  -0.239  -0.057
    1UNL    H21   44   0.225   0.262   0.028
    1UNL    H22   45   0.474   0.250  -0.096
    1UNL    H23   46   0.652   0.069  -0.118
    1UNL    H24   47   0.600  -0.172  -0.098
    1UNL    H25   48   0.386  -0.240  -0.036
   0.00000   0.00000   0.00000   0.00000   0.00000   0.00000   0.00000   0.00000   0.00000
Generated with MDTraj, t= 41.0
 48
    1UNL     C1    1  -0.529   0.075  -0.017
    1UNL     C2    2  -0.433   0.046   0.096
    1UNL     C3    3  -0.298   0.045   0.096
    1UNL     C4    4  -0.208   0.013   0.221
    1UNL     N1    5  -0.058  -0.007   0.171
    1UNL     C5    6   0.015  -0.025   0.299
    1UNL     C6    7  -0.003   0.113   0.095
    1UNL     C7    8  -0.109   0.155  -0.019
    1UNL     C8    9  -0.212   0.042  -0.028
    1UNL     C9   10  -0.149  -0.100  -0.044
    1UNL    C10   11  -0.089  -0.120  -0.189
    1UNL     O1   12  -0.161  -0.052  -0.291
    1UNL    C11   13  -0.058  -0.131   0.080
    1UNL    C12   14   0.085  -0.164   0.032
    1UNL    C13   15   0.171  -0.041   0.008
    1UNL    C14   16   0.132   0.088   0.029
    1UNL     N2   17   0.238   0.177   0.006
    1UNL    C15   18   0.345   0.097  -0.029
    1UNL    C16   19   0.478   0.130  -0.068
    1UNL    C17   20   0.566   0.032  -0.107
    1UNL    C18   21   0.528  -0.101  -0.106
    1UNL    C19   22   0.396  -0.136  -0.080
    1UNL    C20   23   0.301  -0.039  -0.038
    1UNL     H1   24  -0.482   0.129  -0.106
    1UNL     H2   25  -0.574  -0.020  -0.049
    1UNL     H3   26  -0.612   0.143   0.020
    1UNL     H4   27  -0.476   0.050   0.200
    1UNL     H5   28  -0.247  -0.074   0.259
    1UNL     H6   29  -0.212   0.091   0.295
    1UNL     H7   30  -0.007  -0.126   0.343
    1UNL     H8   31   0.124  -0.018   0.282
    1UNL     H9   32  -0.000   0.056   0.376
    1UNL    H10   33  -0.004   0.194   0.171
    1UNL    H11   34  -0.156   0.248   0.005
    1UNL    H12   35  -0.058   0.154  -0.113
    1UNL    H13   36  -0.278   0.061  -0.118
    1UNL    H14   37  -0.238  -0.167  -0.035
    1UNL    H15   38  -0.070  -0.220  -0.214
    1UNL    H16   39   0.019  -0.068  -0.178
    1UNL    H17   40  -0.173  -0.101  -0.374
    1UNL    H18   41  -0.098  -0.223   0.128
    1UNL    H19   42   0.132  -0.226   0.108
    1UNL    H20   43   0.087  -0.225  -0.062
    1UNL    H21   44   0.234   0.276  -0.003
    1UNL    H22   45   0.499   0.230  -0.051
    1UNL    H23   46   0.670   0.067  -0.137
    1UNL    H24   47   0.599  -0.176  -0.128
    1UNL    H25   48   0.364  -0.237  -0.058
   0.00000   0.00000   0.00000   0.00000   0.00000   0.00000   0.00000   0.00000   0.00000
Generated with MDTraj, t= 42.0
 48
    1UNL     C1    1  -0.518   0.081  -0.000
    1UNL     C2    2  -0.421   0.078   0.107
    1UNL     C3    3  -0.294   0.042   0.094
    1UNL     C4    4  -0.205   0.025   0.211
    1UNL     N1    5  -0.059  -0.011   0.170
    1UNL     C5    6   0.032  -0.037   0.290
    1UNL     C6    7  -0.006   0.112   0.096
    1UNL     C7    8  -0.107   0.151  -0.021
    1UNL     C8    9  -0.214   0.044  -0.036
    1UNL     C9   10  -0.154  -0.092  -0.059
    1UNL    C10   11  -0.083  -0.112  -0.196
    1UNL     O1   12  -0.170  -0.100  -0.309
    1UNL    C11   13  -0.063  -0.124   0.068
    1UNL    C12   14   0.083  -0.168   0.032
    1UNL    C13   15   0.172  -0.050   0.017
    1UNL    C14   16   0.129   0.075   0.042
    1UNL     N2   17   0.225   0.166   0.015
    1UNL    C15   18   0.343   0.099  -0.021
    1UNL    C16   19   0.473   0.137  -0.050
    1UNL    C17   20   0.558   0.046  -0.105
    1UNL    C18   21   0.522  -0.095  -0.119
    1UNL    C19   22   0.399  -0.136  -0.069
    1UNL    C20   23   0.309  -0.036  -0.022
    1UNL     H1   24  -0.482   0.070  -0.106
    1UNL     H2   25  -0.590   0.002   0.019
    1UNL     H3   26  -0.582   0.178  -0.003
    1UNL     H4   27  -0.453   0.105   0.203
    1UNL     H5   28  -0.248  -0.047   0.272
    1UNL     H6   29  -0.218   0.122   0.258
    1UNL     H7   30   0.010  -0.134   0.342
    1UNL     H8   31   0.138  -0.043   0.258
    1UNL     H9   32   0.031   0.046   0.364
    1UNL    H10   33   0.001   0.197   0.169
    1UNL    H11   34  -0.161   0.242   0.007
    1UNL    H12   35  -0.048   0.158  -0.109
    1UNL    H13   36  -0.282   0.070  -0.123
    1UNL    H14   37  -0.232  -0.172  -0.049
    1UNL    H15   38  -0.045  -0.210  -0.192
    1UNL    H16   39   0.008  -0.038  -0.209
    1UNL    H17   40  -0.145  -0.029  -0.373
    1UNL    H18   41  -0.110  -0.205   0.128
    1UNL    H19   42   0.126  -0.236   0.106
    1UNL    H20   43   0.089  -0.224  -0.063
    1UNL    H21   44   0.210   0.267   0.014
    1UNL    H22   45   0.499   0.247  -0.062
    1UNL    H23   46   0.635   0.079  -0.163
    1UNL    H24   47   0.579  -0.152  -0.193
    1UNL    H25   48   0.363  -0.240  -0.100
   0.00000   0.00000   0.00000   0.00000   0.00000   0.00000   0.00000   0.00000   0.00000
Generated with MDTraj, t= 43.0
 48
    1UNL     C1    1  -0.518   0.112  -0.014
    1UNL     C2    2  -0.427   0.060   0.097
    1UNL     C3    3  -0.294   0.038   0.088
    1UNL     C4    4  -0.208   0.016   0.211
    1UNL     N1    5  -0.065  -0.015   0.170
    1UNL     C5    6   0.009  -0.039   0.302
    1UNL     C6    7  -0.007   0.112   0.106
    1UNL     C7    8  -0.093   0.142  -0.018
    1UNL     C8    9  -0.205   0.038  -0.036
    1UNL     C9   10  -0.149  -0.106  -0.056
    1UNL    C10   11  -0.095  -0.130  -0.199
    1UNL     O1   12  -0.192  -0.094  -0.299
    1UNL    C11   13  -0.058  -0.137   0.072
    1UNL    C12   14   0.087  -0.160   0.028
    1UNL    C13   15   0.175  -0.039   0.023
    1UNL    C14   16   0.132   0.089   0.060
    1UNL     N2   17   0.242   0.171   0.020
    1UNL    C15   18   0.344   0.101  -0.042
    1UNL    C16   19   0.474   0.145  -0.072
    1UNL    C17   20   0.567   0.047  -0.104
    1UNL    C18   21   0.527  -0.089  -0.112
    1UNL    C19   22   0.402  -0.133  -0.073
    1UNL    C20   23   0.306  -0.034  -0.037
    1UNL     H1   24  -0.539   0.036  -0.090
    1UNL     H2   25  -0.608   0.145   0.041
    1UNL     H3   26  -0.476   0.205  -0.070
    1UNL     H4   27  -0.474   0.029   0.192
    1UNL     H5   28  -0.258  -0.063   0.260
    1UNL     H6   29  -0.214   0.096   0.282
    1UNL     H7   30  -0.033  -0.124   0.361
    1UNL     H8   31   0.115  -0.065   0.279
    1UNL     H9   32   0.013   0.052   0.365
    1UNL    H10   33  -0.001   0.197   0.180
    1UNL    H11   34  -0.132   0.243  -0.005
    1UNL    H12   35  -0.025   0.132  -0.098
    1UNL    H13   36  -0.267   0.063  -0.125
    1UNL    H14   37  -0.235  -0.176  -0.043
    1UNL    H15   38  -0.080  -0.235  -0.225
    1UNL    H16   39   0.005  -0.074  -0.213
    1UNL    H17   40  -0.243  -0.013  -0.272
    1UNL    H18   41  -0.100  -0.222   0.129
    1UNL    H19   42   0.137  -0.227   0.099
    1UNL    H20   43   0.090  -0.213  -0.068
    1UNL    H21   44   0.255   0.270   0.052
    1UNL    H22   45   0.502   0.245  -0.073
    1UNL    H23   46   0.675   0.083  -0.121
    1UNL    H24   47   0.603  -0.158  -0.140
    1UNL    H25   48   0.378  -0.230  -0.089
   0.00000   0.00000   0.00000   0.00000   0.00000   0.00000   0.00000   0.00000   0.00000
Generated with MDTraj, t= 44.0
 48
    1UNL     C1    1  -0.508   0.124  -0.016
    1UNL     C2    2  -0.420   0.091   0.102
    1UNL     C3    3  -0.296   0.041   0.087
    1UNL     C4    4  -0.206   0.013   0.210
    1UNL     N1    5  -0.062  -0.016   0.165
    1UNL     C5    6   0.030  -0.048   0.284
    1UNL     C6    7  -0.005   0.111   0.096
    1UNL     C7    8  -0.098   0.143  -0.020
    1UNL     C8    9  -0.213   0.038  -0.042
    1UNL     C9   10  -0.154  -0.106  -0.053
    1UNL    C10   11  -0.090  -0.122  -0.187
    1UNL     O1   12  -0.186  -0.114  -0.290
    1UNL    C11   13  -0.057  -0.134   0.074
    1UNL    C12   14   0.087  -0.173   0.032
    1UNL    C13   15   0.176  -0.049   0.014
    1UNL    C14   16   0.131   0.076   0.047
    1UNL     N2   17   0.223   0.165   0.031
    1UNL    C15   18   0.336   0.102  -0.019
    1UNL    C16   19   0.463   0.150  -0.056
    1UNL    C17   20   0.548   0.056  -0.116
    1UNL    C18   21   0.527  -0.080  -0.118
    1UNL    C19   22   0.407  -0.132  -0.080
    1UNL    C20   23   0.308  -0.036  -0.035
    1UNL     H1   24  -0.524   0.035  -0.080
    1UNL     H2   25  -0.604   0.163   0.031
    1UNL     H3   26  -0.472   0.201  -0.087
    1UNL     H4   27  -0.456   0.097   0.204
    1UNL     H5   28  -0.247  -0.057   0.281
    1UNL     H6   29  -0.206   0.102   0.266
    1UNL     H7   30   0.012  -0.153   0.315
    1UNL     H8   31   0.137  -0.043   0.252
    1UNL     H9   32   0.010   0.018   0.371
    1UNL    H10   33   0.007   0.189   0.176
    1UNL    H11   34  -0.138   0.244  -0.006
    1UNL    H12   35  -0.037   0.144  -0.104
    1UNL    H13   36  -0.272   0.067  -0.130
    1UNL    H14   37  -0.240  -0.177  -0.046
    1UNL    H15   38  -0.027  -0.219  -0.195
    1UNL    H16   39  -0.022  -0.034  -0.211
    1UNL    H17   40  -0.146  -0.066  -0.367
    1UNL    H18   41  -0.104  -0.219   0.126
    1UNL    H19   42   0.124  -0.245   0.108
    1UNL    H20   43   0.080  -0.227  -0.060
    1UNL    H21   44   0.231   0.267   0.062
    1UNL    H22   45   0.492   0.251  -0.023
    1UNL    H23   46   0.647   0.081  -0.118
    1UNL    H24   47   0.613  -0.150  -0.119
    1UNL    H25   48   0.389  -0.242  -0.057
   0.00000   0.00000   0.00000   0.00000   0.00000   0.00000   0.00000   0.00000   0.00000
Generated with MDTraj, t= 45.0
 48
    1UNL     C1    1  -0.514   0.139  -0.006
    1UNL     C2    2  -0.421   0.089   0.102
    1UNL     C3    3  -0.296   0.044   0.089
    1UNL     C4    4  -0.212  -0.006   0.199
    1UNL     N1    5  -0.061  -0.020   0.168
    1UNL     C5    6   0.016  -0.045   0.299
    1UNL     C6    7  -0.015   0.108   0.092
    1UNL     C7    8  -0.107   0.146  -0.034
    1UNL     C8    9  -0.215   0.033  -0.040
    1UNL     C9   10  -0.149  -0.115  -0.049
    1UNL    C10   11  -0.087  -0.137  -0.187
    1UNL     O1   12  -0.172  -0.095  -0.291
    1UNL    C11   13  -0.051  -0.142   0.071
    1UNL    C12   14   0.096  -0.166   0.032
    1UNL    C13   15   0.174  -0.041   0.011
    1UNL    C14   16   0.130   0.086   0.051
    1UNL     N2   17   0.237   0.171   0.024
    1UNL    C15   18   0.348   0.105  -0.021
    1UNL    C16   19   0.473   0.145  -0.060
    1UNL    C17   20   0.559   0.050  -0.106
    1UNL    C18   21   0.517  -0.084  -0.123
    1UNL    C19   22   0.398  -0.127  -0.075
    1UNL    C20   23   0.308  -0.032  -0.032
    1UNL     H1   24  -0.481   0.121  -0.110
    1UNL     H2   25  -0.617   0.090   0.013
    1UNL     H3   26  -0.542   0.243  -0.007
    1UNL     H4   27  -0.465   0.065   0.198
    1UNL     H5   28  -0.253  -0.101   0.231
    1UNL     H6   29  -0.225   0.055   0.282
    1UNL     H7   30  -0.029  -0.121   0.365
    1UNL     H8   31   0.121  -0.073   0.275
    1UNL     H9   32   0.018   0.052   0.352
    1UNL    H10   33  -0.016   0.200   0.156
    1UNL    H11   34  -0.147   0.247  -0.035
    1UNL    H12   35  -0.047   0.143  -0.122
    1UNL    H13   36  -0.284   0.048  -0.124
    1UNL    H14   37  -0.235  -0.183  -0.037
    1UNL    H15   38  -0.073  -0.255  -0.207
    1UNL    H16   39   0.014  -0.091  -0.194
    1UNL    H17   40  -0.263  -0.093  -0.257
    1UNL    H18   41  -0.095  -0.223   0.131
    1UNL    H19   42   0.147  -0.226   0.111
    1UNL    H20   43   0.095  -0.230  -0.054
    1UNL    H21   44   0.221   0.277   0.025
    1UNL    H22   45   0.508   0.247  -0.045
    1UNL    H23   46   0.656   0.091  -0.148
    1UNL    H24   47   0.586  -0.147  -0.173
    1UNL    H25   48   0.377  -0.232  -0.068
   0.00000   0.00000   0.00000   0.00000   0.00000   0.00000   0.00000   0.00000   0.00000
Generated with MDTraj, t= 46.0
 48
    1UNL     C1    1  -0.504   0.120  -0.012
    1UNL     C2    2  -0.418   0.077   0.103
    1UNL     C3    3  -0.289   0.044   0.094
    1UNL     C4    4  -0.211   0.010   0.214
    1UNL     N1    5  -0.061  -0.015   0.176
    1UNL     C5    6   0.011  -0.049   0.299
    1UNL     C6    7  -0.004   0.107   0.094
    1UNL     C7    8  -0.093   0.152  -0.022
    1UNL     C8    9  -0.206   0.049  -0.031
    1UNL     C9   10  -0.149  -0.096  -0.052
    1UNL    C10   11  -0.090  -0.117  -0.194
    1UNL     O1   12  -0.186  -0.105  -0.301
    1UNL    C11   13  -0.059  -0.138   0.070
    1UNL    C12   14   0.088  -0.176   0.034
    1UNL    C13   15   0.173  -0.051   0.012
    1UNL    C14   16   0.127   0.074   0.039
    1UNL     N2   17   0.222   0.171   0.017
    1UNL    C15   18   0.338   0.101  -0.026
    1UNL    C16   19   0.462   0.149  -0.071
    1UNL    C17   20   0.556   0.055  -0.102
    1UNL    C18   21   0.531  -0.086  -0.108
    1UNL    C19   22   0.407  -0.134  -0.074
    1UNL    C20   23   0.309  -0.034  -0.030
    1UNL     H1   24  -0.493   0.050  -0.101
    1UNL     H2   25  -0.610   0.119   0.032
    1UNL     H3   26  -0.489   0.218  -0.050
    1UNL     H4   27  -0.466   0.051   0.200
    1UNL     H5   28  -0.252  -0.066   0.282
    1UNL     H6   29  -0.212   0.092   0.277
    1UNL     H7   30  -0.034  -0.142   0.337
    1UNL     H8   31   0.118  -0.064   0.281
    1UNL     H9   32  -0.005   0.037   0.368
    1UNL    H10   33  -0.003   0.188   0.171
    1UNL    H11   34  -0.133   0.249  -0.005
    1UNL    H12   35  -0.046   0.167  -0.120
    1UNL    H13   36  -0.268   0.078  -0.116
    1UNL    H14   37  -0.235  -0.165  -0.050
    1UNL    H15   38  -0.035  -0.225  -0.196
    1UNL    H16   39  -0.014  -0.040  -0.212
    1UNL    H17   40  -0.149  -0.126  -0.391
    1UNL    H18   41  -0.108  -0.224   0.119
    1UNL    H19   42   0.130  -0.232   0.123
    1UNL    H20   43   0.102  -0.248  -0.045
    1UNL    H21   44   0.202   0.272   0.050
    1UNL    H22   45   0.482   0.251  -0.089
    1UNL    H23   46   0.643   0.088  -0.153
    1UNL    H24   47   0.593  -0.147  -0.175
    1UNL    H25   48   0.378  -0.234  -0.086
   0.00000   0.00000   0.00000   0.00000   0.00000   0.00000   0.00000   0.00000   0.00000
Generated with MDTraj, t= 47.0
 48
    1UNL     C1    1  -0.508   0.091  -0.014
    1UNL     C2    2  -0.430   0.067   0.109
    1UNL     C3    3  -0.295   0.048   0.096
    1UNL     C4    4  -0.205   0.016   0.212
    1UNL     N1    5  -0.061  -0.016   0.172
    1UNL     C5    6   0.013  -0.044   0.299
    1UNL     C6    7  -0.004   0.112   0.098
    1UNL     C7    8  -0.098   0.144  -0.018
    1UNL     C8    9  -0.216   0.040  -0.036
    1UNL     C9   10  -0.156  -0.103  -0.060
    1UNL    C10   11  -0.091  -0.112  -0.195
    1UNL     O1   12  -0.174  -0.081  -0.306
    1UNL    C11   13  -0.060  -0.131   0.061
    1UNL    C12   14   0.090  -0.168   0.038
    1UNL    C13   15   0.176  -0.045   0.019
    1UNL    C14   16   0.131   0.085   0.043
    1UNL     N2   17   0.238   0.176   0.024
    1UNL    C15   18   0.349   0.102  -0.023
    1UNL    C16   19   0.468   0.140  -0.077
    1UNL    C17   20   0.554   0.043  -0.123
    1UNL    C18   21   0.526  -0.093  -0.100
    1UNL    C19   22   0.397  -0.130  -0.068
    1UNL    C20   23   0.310  -0.036  -0.027
    1UNL     H1   24  -0.617   0.058  -0.003
    1UNL     H2   25  -0.502   0.200  -0.035
    1UNL     H3   26  -0.480   0.033  -0.104
    1UNL     H4   27  -0.482   0.032   0.193
    1UNL     H5   28  -0.237  -0.058   0.285
    1UNL     H6   29  -0.202   0.099   0.276
    1UNL     H7   30  -0.006  -0.146   0.336
    1UNL     H8   31   0.120  -0.033   0.282
    1UNL     H9   32  -0.017   0.034   0.372
    1UNL    H10   33  -0.001   0.189   0.179
    1UNL    H11   34  -0.134   0.243  -0.025
    1UNL    H12   35  -0.037   0.140  -0.110
    1UNL    H13   36  -0.280   0.062  -0.120
    1UNL    H14   37  -0.236  -0.178  -0.062
    1UNL    H15   38  -0.060  -0.225  -0.215
    1UNL    H16   39   0.003  -0.053  -0.192
    1UNL    H17   40  -0.262  -0.037  -0.287
    1UNL    H18   41  -0.104  -0.220   0.107
    1UNL    H19   42   0.132  -0.239   0.115
    1UNL    H20   43   0.093  -0.220  -0.056
    1UNL    H21   44   0.227   0.283   0.024
    1UNL    H22   45   0.487   0.250  -0.083
    1UNL    H23   46   0.656   0.058  -0.158
    1UNL    H24   47   0.596  -0.170  -0.120
    1UNL    H25   48   0.362  -0.240  -0.072
   0.00000   0.00000   0.00000   0.00000   0.00000   0.00000   0.00000   0.00000   0.00000
Generated with MDTraj, t= 48.0
 48
    1UNL     C1    1  -0.529   0.059  -0.008
    1UNL     C2    2  -0.429   0.059   0.097
    1UNL     C3    3  -0.296   0.042   0.091
    1UNL     C4    4  -0.216   0.018   0.214
    1UNL     N1    5  -0.066  -0.008   0.172
    1UNL     C5    6   0.017  -0.026   0.296
    1UNL     C6    7  -0.011   0.112   0.091
    1UNL     C7    8  -0.102   0.152  -0.017
    1UNL     C8    9  -0.219   0.051  -0.033
    1UNL     C9   10  -0.155  -0.097  -0.049
    1UNL    C10   11  -0.086  -0.104  -0.187
    1UNL     O1   12  -0.164  -0.058  -0.296
    1UNL    C11   13  -0.058  -0.134   0.071
    1UNL    C12   14   0.093  -0.172   0.038
    1UNL    C13   15   0.168  -0.046   0.013
    1UNL    C14   16   0.130   0.081   0.042
    1UNL     N2   17   0.241   0.165   0.023
    1UNL    C15   18   0.349   0.096  -0.028
    1UNL    C16   19   0.480   0.137  -0.066
    1UNL    C17   20   0.564   0.036  -0.113
    1UNL    C18   21   0.520  -0.096  -0.125
    1UNL    C19   22   0.399  -0.133  -0.077
    1UNL    C20   23   0.309  -0.038  -0.034
    1UNL     H1   24  -0.548   0.163  -0.045
    1UNL     H2   25  -0.499   0.007  -0.098
    1UNL     H3   26  -0.636   0.030   0.023
    1UNL     H4   27  -0.475   0.031   0.197
    1UNL     H5   28  -0.254  -0.056   0.281
    1UNL     H6   29  -0.211   0.105   0.275
    1UNL     H7   30  -0.030  -0.101   0.360
    1UNL     H8   31   0.118  -0.062   0.275
    1UNL     H9   32   0.027   0.072   0.346
    1UNL    H10   33   0.013   0.198   0.160
    1UNL    H11   34  -0.142   0.248  -0.005
    1UNL    H12   35  -0.044   0.166  -0.111
    1UNL    H13   36  -0.283   0.070  -0.119
    1UNL    H14   37  -0.235  -0.171  -0.047
    1UNL    H15   38  -0.029  -0.206  -0.199
    1UNL    H16   39  -0.004  -0.024  -0.182
    1UNL    H17   40  -0.129  -0.099  -0.377
    1UNL    H18   41  -0.100  -0.216   0.130
    1UNL    H19   42   0.131  -0.212   0.136
    1UNL    H20   43   0.104  -0.248  -0.037
    1UNL    H21   44   0.232   0.268   0.007
    1UNL    H22   45   0.512   0.232  -0.042
    1UNL    H23   46   0.669   0.072  -0.110
    1UNL    H24   47   0.589  -0.179  -0.145
    1UNL    H25   48   0.365  -0.228  -0.087
   0.00000   0.00000   0.00000   0.00000   0.00000   0.00000   0.00000   0.00000   0.00000
Generated with MDTraj, t= 49.0
 48
    1UNL     C1    1  -0.521   0.051  -0.014
    1UNL     C2    2  -0.426   0.053   0.099
    1UNL     C3    3  -0.291   0.048   0.089
    1UNL     C4    4  -0.210   0.023   0.212
    1UNL     N1    5  -0.063  -0.013   0.172
    1UNL     C5    6   0.037  -0.040   0.290
    1UNL     C6    7  -0.003   0.117   0.094
    1UNL     C7    8  -0.098   0.161  -0.017
    1UNL     C8    9  -0.214   0.051  -0.036
    1UNL     C9   10  -0.146  -0.091  -0.059
    1UNL    C10   11  -0.070  -0.102  -0.187
    1UNL     O1   12  -0.151  -0.065  -0.294
    1UNL    C11   13  -0.066  -0.129   0.075
    1UNL    C12   14   0.083  -0.174   0.048
    1UNL    C13   15   0.170  -0.050   0.015
    1UNL    C14   16   0.134   0.081   0.046
    1UNL     N2   17   0.223   0.181   0.007
    1UNL    C15   18   0.332   0.107  -0.029
    1UNL    C16   19   0.466   0.127  -0.064
    1UNL    C17   20   0.554   0.034  -0.110
    1UNL    C18   21   0.514  -0.101  -0.116
    1UNL    C19   22   0.384  -0.139  -0.071
    1UNL    C20   23   0.297  -0.033  -0.035
    1UNL     H1   24  -0.465   0.056  -0.106
    1UNL     H2   25  -0.577  -0.042  -0.024
    1UNL     H3   26  -0.589   0.144  -0.014
    1UNL     H4   27  -0.463   0.016   0.188
    1UNL     H5   28  -0.245  -0.060   0.267
    1UNL     H6   29  -0.205   0.106   0.282
    1UNL     H7   30   0.021  -0.136   0.340
    1UNL     H8   31   0.142  -0.044   0.256
    1UNL     H9   32   0.033   0.043   0.360
    1UNL    H10   33   0.005   0.197   0.171
    1UNL    H11   34  -0.139   0.254   0.013
    1UNL    H12   35  -0.045   0.188  -0.111
    1UNL    H13   36  -0.275   0.077  -0.121
    1UNL    H14   37  -0.230  -0.160  -0.072
    1UNL    H15   38  -0.054  -0.214  -0.211
    1UNL    H16   39   0.037  -0.049  -0.196
    1UNL    H17   40  -0.198   0.015  -0.263
    1UNL    H18   41  -0.126  -0.208   0.121
    1UNL    H19   42   0.131  -0.231   0.132
    1UNL    H20   43   0.084  -0.241  -0.037
    1UNL    H21   44   0.244   0.266   0.060
    1UNL    H22   45   0.502   0.232  -0.056
    1UNL    H23   46   0.653   0.052  -0.136
    1UNL    H24   47   0.579  -0.173  -0.157
    1UNL    H25   48   0.348  -0.245  -0.072
   0.00000   0.00000   0.00000   0.00000   0.00000   0.00000   0.00000   0.00000   0.00000
Generated with MDTraj, t= 50.0
 48
    1UNL     C1    1  -0.530   0.066  -0.010
    1UNL     C2    2  -0.431   0.038   0.096
    1UNL     C3    3  -0.295   0.036   0.090
    1UNL     C4    4  -0.217   0.023   0.214
    1UNL     N1    5  -0.070  -0.012   0.170
    1UNL     C5    6   0.002  -0.042   0.298
    1UNL     C6    7  -0.004   0.112   0.104
    1UNL     C7    8  -0.100   0.162  -0.011
    1UNL     C8    9  -0.212   0.050  -0.032
    1UNL     C9   10  -0.143  -0.085  -0.056
    1UNL    C10   11  -0.077  -0.096  -0.190
    1UNL     O1   12  -0.160  -0.068  -0.301
    1UNL    C11   13  -0.060  -0.130   0.069
    1UNL    C12   14   0.085  -0.170   0.049
    1UNL    C13   15   0.171  -0.046   0.022
    1UNL    C14   16   0.136   0.084   0.052
    1UNL     N2   17   0.239   0.171   0.007
    1UNL    C15   18   0.343   0.093  -0.031
    1UNL    C16   19   0.470   0.136  -0.087
    1UNL    C17   20   0.559   0.043  -0.131
    1UNL    C18   21   0.526  -0.098  -0.113
    1UNL    C19   22   0.406  -0.140  -0.058
    1UNL    C20   23   0.307  -0.040  -0.029
    1UNL     H1   24  -0.548  -0.030  -0.057
    1UNL     H2   25  -0.627   0.109   0.023
    1UNL     H3   26  -0.483   0.137  -0.083
    1UNL     H4   27  -0.479  -0.009   0.188
    1UNL     H5   28  -0.259  -0.048   0.278
    1UNL     H6   29  -0.205   0.121   0.263
    1UNL     H7   30  -0.038  -0.141   0.323
    1UNL     H8   31   0.110  -0.056   0.285
    1UNL     H9   32  -0.012   0.033   0.374
    1UNL    H10   33   0.010   0.200   0.172
    1UNL    H11   34  -0.143   0.257   0.019
    1UNL    H12   35  -0.038   0.182  -0.099
    1UNL    H13   36  -0.273   0.076  -0.118
    1UNL    H14   37  -0.228  -0.154  -0.060
    1UNL    H15   38  -0.021  -0.194  -0.209
    1UNL    H16   39   0.005  -0.006  -0.195
    1UNL    H17   40  -0.174   0.031  -0.311
    1UNL    H18   41  -0.121  -0.209   0.118
    1UNL    H19   42   0.121  -0.220   0.142
    1UNL    H20   43   0.102  -0.247  -0.027
    1UNL    H21   44   0.247   0.272   0.015
    1UNL    H22   45   0.500   0.236  -0.098
    1UNL    H23   46   0.654   0.076  -0.186
    1UNL    H24   47   0.592  -0.163  -0.173
    1UNL    H25   48   0.394  -0.247  -0.036
   0.00000   0.00000   0.00000   0.00000   0.00000   0.00000   0.00000   0.00000   0.00000
Generated with MDTraj, t= 51.0
 48
    1UNL     C1    1  -0.490   0.076  -0.023
    1UNL     C2    2  -0.418   0.065   0.101
    1UNL     C3    3  -0.287   0.041   0.097
    1UNL     C4    4  -0.209   0.012   0.221
    1UNL     N1    5  -0.067  -0.014   0.180
    1UNL     C5    6   0.016  -0.043   0.301
    1UNL     C6    7  -0.006   0.111   0.108
    1UNL     C7    8  -0.103   0.149  -0.011
    1UNL     C8    9  -0.215   0.039  -0.032
    1UNL     C9   10  -0.152  -0.094  -0.059
    1UNL    C10   11  -0.072  -0.104  -0.190
    1UNL     O1   12  -0.145  -0.077  -0.308
    1UNL    C11   13  -0.061  -0.126   0.070
    1UNL    C12   14   0.085  -0.169   0.044
    1UNL    C13   15   0.167  -0.045   0.015
    1UNL    C14   16   0.125   0.081   0.044
    1UNL     N2   17   0.229   0.168   0.026
    1UNL    C15   18   0.333   0.101  -0.031
    1UNL    C16   19   0.454   0.142  -0.086
    1UNL    C17   20   0.544   0.043  -0.124
    1UNL    C18   21   0.513  -0.094  -0.116
    1UNL    C19   22   0.392  -0.129  -0.069
    1UNL    C20   23   0.295  -0.035  -0.038
    1UNL     H1   24  -0.595   0.112  -0.009
    1UNL     H2   25  -0.447   0.131  -0.109
    1UNL     H3   26  -0.499  -0.024  -0.063
    1UNL     H4   27  -0.470   0.044   0.187
    1UNL     H5   28  -0.248  -0.072   0.270
    1UNL     H6   29  -0.214   0.107   0.277
    1UNL     H7   30  -0.024  -0.132   0.351
    1UNL     H8   31   0.122  -0.061   0.281
    1UNL     H9   32   0.016   0.050   0.359
    1UNL    H10   33   0.008   0.194   0.181
    1UNL    H11   34  -0.146   0.251   0.012
    1UNL    H12   35  -0.042   0.156  -0.099
    1UNL    H13   36  -0.272   0.075  -0.116
    1UNL    H14   37  -0.229  -0.172  -0.066
    1UNL    H15   38  -0.036  -0.213  -0.196
    1UNL    H16   39   0.026  -0.038  -0.182
    1UNL    H17   40  -0.131   0.011  -0.355
    1UNL    H18   41  -0.112  -0.212   0.113
    1UNL    H19   42   0.136  -0.222   0.127
    1UNL    H20   43   0.093  -0.238  -0.042
    1UNL    H21   44   0.223   0.266   0.011
    1UNL    H22   45   0.483   0.246  -0.066
    1UNL    H23   46   0.637   0.069  -0.157
    1UNL    H24   47   0.580  -0.173  -0.142
    1UNL    H25   48   0.372  -0.229  -0.055
   0.00000   0.00000   0.00000   0.00000   0.00000   0.00000   0.00000   0.00000   0.00000
Generated with MDTraj, t= 52.0
 48
    1UNL     C1    1  -0.519   0.112  -0.012
    1UNL     C2    2  -0.430   0.070   0.099
    1UNL     C3    3  -0.298   0.041   0.089
    1UNL     C4    4  -0.217  -0.004   0.213
    1UNL     N1    5  -0.070  -0.010   0.178
    1UNL     C5    6  -0.005  -0.036   0.313
    1UNL     C6    7  -0.013   0.109   0.096
    1UNL     C7    8  -0.101   0.138  -0.024
    1UNL     C8    9  -0.213   0.038  -0.035
    1UNL     C9   10  -0.146  -0.101  -0.051
    1UNL    C10   11  -0.069  -0.116  -0.188
    1UNL     O1   12  -0.146  -0.085  -0.306
    1UNL    C11   13  -0.059  -0.134   0.080
    1UNL    C12   14   0.093  -0.173   0.052
    1UNL    C13   15   0.177  -0.051   0.033
    1UNL    C14   16   0.130   0.082   0.048
    1UNL     N2   17   0.229   0.171   0.026
    1UNL    C15   18   0.346   0.098  -0.022
    1UNL    C16   19   0.472   0.143  -0.076
    1UNL    C17   20   0.558   0.051  -0.135
    1UNL    C18   21   0.522  -0.081  -0.138
    1UNL    C19   22   0.397  -0.123  -0.092
    1UNL    C20   23   0.307  -0.040  -0.029
    1UNL     H1   24  -0.576   0.210   0.007
    1UNL     H2   25  -0.476   0.103  -0.114
    1UNL     H3   26  -0.595   0.039  -0.016
    1UNL     H4   27  -0.481   0.042   0.197
    1UNL     H5   28  -0.250  -0.103   0.237
    1UNL     H6   29  -0.237   0.068   0.292
    1UNL     H7   30  -0.037  -0.133   0.352
    1UNL     H8   31   0.102  -0.033   0.314
    1UNL     H9   32  -0.037   0.050   0.371
    1UNL    H10   33  -0.011   0.200   0.162
    1UNL    H11   34  -0.143   0.243  -0.008
    1UNL    H12   35  -0.041   0.130  -0.112
    1UNL    H13   36  -0.277   0.059  -0.121
    1UNL    H14   37  -0.220  -0.184  -0.057
    1UNL    H15   38  -0.035  -0.229  -0.197
    1UNL    H16   39   0.031  -0.060  -0.170
    1UNL    H17   40  -0.134   0.008  -0.333
    1UNL    H18   41  -0.105  -0.216   0.136
    1UNL    H19   42   0.134  -0.235   0.135
    1UNL    H20   43   0.105  -0.231  -0.043
    1UNL    H21   44   0.234   0.266   0.052
    1UNL    H22   45   0.494   0.247  -0.064
    1UNL    H23   46   0.664   0.079  -0.163
    1UNL    H24   47   0.591  -0.150  -0.185
    1UNL    H25   48   0.357  -0.228  -0.115
   0.00000   0.00000   0.00000   0.00000   0.00000   0.00000   0.00000   0.00000   0.00000
Generated with MDTraj, t= 53.0
 48
    1UNL     C1    1  -0.497   0.127  -0.025
    1UNL     C2    2  -0.422   0.072   0.093
    1UNL     C3    3  -0.291   0.041   0.090
    1UNL     C4    4  -0.211   0.003   0.214
    1UNL     N1    5  -0.064  -0.020   0.177
    1UNL     C5    6   0.025  -0.063   0.293
    1UNL     C6    7  -0.008   0.104   0.101
    1UNL     C7    8  -0.093   0.140  -0.028
    1UNL     C8    9  -0.208   0.042  -0.040
    1UNL     C9   10  -0.146  -0.102  -0.049
    1UNL    C10   11  -0.082  -0.121  -0.182
    1UNL     O1   12  -0.155  -0.102  -0.303
    1UNL    C11   13  -0.059  -0.135   0.075
    1UNL    C12   14   0.092  -0.167   0.042
    1UNL    C13   15   0.174  -0.049   0.030
    1UNL    C14   16   0.134   0.078   0.067
    1UNL     N2   17   0.223   0.179   0.019
    1UNL    C15   18   0.331   0.105  -0.026
    1UNL    C16   19   0.450   0.156  -0.075
    1UNL    C17   20   0.541   0.058  -0.117
    1UNL    C18   21   0.508  -0.077  -0.127
    1UNL    C19   22   0.395  -0.134  -0.077
    1UNL    C20   23   0.306  -0.037  -0.020
    1UNL     H1   24  -0.491   0.239  -0.036
    1UNL     H2   25  -0.469   0.067  -0.112
    1UNL     H3   26  -0.600   0.102  -0.009
    1UNL     H4   27  -0.472   0.075   0.185
    1UNL     H5   28  -0.258  -0.087   0.253
    1UNL     H6   29  -0.217   0.089   0.277
    1UNL     H7   30  -0.007  -0.160   0.329
    1UNL     H8   31   0.128  -0.076   0.266
    1UNL     H9   32   0.021   0.014   0.369
    1UNL    H10   33  -0.024   0.190   0.173
    1UNL    H11   34  -0.133   0.247  -0.023
    1UNL    H12   35  -0.022   0.129  -0.107
    1UNL    H13   36  -0.277   0.057  -0.123
    1UNL    H14   37  -0.228  -0.180  -0.047
    1UNL    H15   38  -0.033  -0.231  -0.185
    1UNL    H16   39   0.007  -0.051  -0.195
    1UNL    H17   40  -0.209  -0.022  -0.296
    1UNL    H18   41  -0.106  -0.226   0.115
    1UNL    H19   42   0.138  -0.230   0.120
    1UNL    H20   43   0.105  -0.227  -0.053
    1UNL    H21   44   0.213   0.274   0.041
    1UNL    H22   45   0.467   0.261  -0.093
    1UNL    H23   46   0.634   0.102  -0.139
    1UNL    H24   47   0.570  -0.140  -0.193
    1UNL    H25   48   0.363  -0.223  -0.118
   0.00000   0.00000   0.00000   0.00000   0.00000   0.00000   0.00000   0.00000   0.00000
Generated with MDTraj, t= 54.0
 48
    1UNL     C1    1  -0.514   0.131  -0.030
    1UNL     C2    2  -0.428   0.073   0.083
    1UNL     C3    3  -0.299   0.042   0.087
    1UNL     C4    4  -0.212  -0.005   0.205
    1UNL     N1    5  -0.062  -0.021   0.172
    1UNL     C5    6   0.011  -0.054   0.299
    1UNL     C6    7  -0.004   0.109   0.109
    1UNL     C7    8  -0.097   0.150  -0.009
    1UNL     C8    9  -0.205   0.035  -0.030
    1UNL     C9   10  -0.143  -0.109  -0.053
    1UNL    C10   11  -0.086  -0.120  -0.191
    1UNL     O1   12  -0.182  -0.108  -0.289
    1UNL    C11   13  -0.054  -0.141   0.076
    1UNL    C12   14   0.091  -0.169   0.039
    1UNL    C13   15   0.175  -0.050   0.020
    1UNL    C14   16   0.137   0.074   0.060
    1UNL     N2   17   0.232   0.173   0.028
    1UNL    C15   18   0.343   0.104  -0.029
    1UNL    C16   19   0.458   0.153  -0.079
    1UNL    C17   20   0.548   0.064  -0.122
    1UNL    C18   21   0.534  -0.076  -0.118
    1UNL    C19   22   0.410  -0.123  -0.076
    1UNL    C20   23   0.304  -0.032  -0.036
    1UNL     H1   24  -0.468   0.162  -0.124
    1UNL     H2   25  -0.594   0.060  -0.049
    1UNL     H3   26  -0.569   0.223   0.002
    1UNL     H4   27  -0.475   0.065   0.183
    1UNL     H5   28  -0.253  -0.102   0.237
    1UNL     H6   29  -0.221   0.069   0.279
    1UNL     H7   30  -0.044  -0.133   0.345
    1UNL     H8   31   0.112  -0.091   0.290
    1UNL     H9   32   0.012   0.032   0.363
    1UNL    H10   33  -0.007   0.191   0.187
    1UNL    H11   34  -0.151   0.245   0.017
    1UNL    H12   35  -0.035   0.169  -0.095
    1UNL    H13   36  -0.265   0.058  -0.118
    1UNL    H14   37  -0.234  -0.177  -0.055
    1UNL    H15   38  -0.045  -0.230  -0.222
    1UNL    H16   39  -0.001  -0.047  -0.215
    1UNL    H17   40  -0.221  -0.017  -0.283
    1UNL    H18   41  -0.106  -0.224   0.127
    1UNL    H19   42   0.130  -0.234   0.120
    1UNL    H20   43   0.101  -0.229  -0.055
    1UNL    H21   44   0.227   0.270   0.016
    1UNL    H22   45   0.490   0.257  -0.067
    1UNL    H23   46   0.647   0.092  -0.157
    1UNL    H24   47   0.615  -0.138  -0.145
    1UNL    H25   48   0.388  -0.231  -0.073
   0.00000   0.00000   0.00000   0.00000   0.00000   0.00000   0.00000   0.00000   0.00000
Generated with MDTraj, t= 55.0
 48
    1UNL     C1    1  -0.517   0.099   0.002
    1UNL     C2    2  -0.416   0.083   0.108
    1UNL     C3    3  -0.296   0.035   0.086
    1UNL     C4    4  -0.210   0.015   0.204
    1UNL     N1    5  -0.067  -0.017   0.174
    1UNL     C5    6   0.019  -0.050   0.294
    1UNL     C6    7  -0.014   0.109   0.099
    1UNL     C7    8  -0.101   0.145  -0.022
    1UNL     C8    9  -0.213   0.038  -0.047
    1UNL     C9   10  -0.148  -0.102  -0.061
    1UNL    C10   11  -0.088  -0.135  -0.196
    1UNL     O1   12  -0.168  -0.106  -0.311
    1UNL    C11   13  -0.056  -0.137   0.070
    1UNL    C12   14   0.093  -0.161   0.026
    1UNL    C13   15   0.173  -0.041   0.018
    1UNL    C14   16   0.121   0.083   0.047
    1UNL     N2   17   0.233   0.169   0.042
    1UNL    C15   18   0.343   0.106  -0.011
    1UNL    C16   19   0.472   0.153  -0.064
    1UNL    C17   20   0.555   0.053  -0.118
    1UNL    C18   21   0.518  -0.082  -0.118
    1UNL    C19   22   0.402  -0.127  -0.079
    1UNL    C20   23   0.308  -0.029  -0.031
    1UNL     H1   24  -0.512   0.023  -0.072
    1UNL     H2   25  -0.612   0.098   0.055
    1UNL     H3   26  -0.508   0.201  -0.049
    1UNL     H4   27  -0.438   0.121   0.208
    1UNL     H5   28  -0.254  -0.074   0.254
    1UNL     H6   29  -0.215   0.097   0.269
    1UNL     H7   30  -0.003  -0.144   0.338
    1UNL     H8   31   0.126  -0.050   0.279
    1UNL     H9   32   0.003   0.031   0.363
    1UNL    H10   33  -0.010   0.198   0.169
    1UNL    H11   34  -0.147   0.246  -0.010
    1UNL    H12   35  -0.037   0.162  -0.112
    1UNL    H13   36  -0.268   0.074  -0.135
    1UNL    H14   37  -0.241  -0.165  -0.051
    1UNL    H15   38  -0.056  -0.248  -0.198
    1UNL    H16   39   0.007  -0.072  -0.219
    1UNL    H17   40  -0.202  -0.012  -0.302
    1UNL    H18   41  -0.100  -0.221   0.124
    1UNL    H19   42   0.152  -0.218   0.101
    1UNL    H20   43   0.095  -0.232  -0.060
    1UNL    H21   44   0.240   0.262   0.072
    1UNL    H22   45   0.507   0.247  -0.032
    1UNL    H23   46   0.657   0.081  -0.145
    1UNL    H24   47   0.597  -0.152  -0.162
    1UNL    H25   48   0.384  -0.233  -0.055
   0.00000   0.00000   0.00000   0.00000   0.00000   0.00000   0.00000   0.00000   0.00000
Generated with MDTraj, t= 56.0
 48
    1UNL     C1    1  -0.515   0.088  -0.013
    1UNL     C2    2  -0.422   0.046   0.101
    1UNL     C3    3  -0.290   0.037   0.097
    1UNL     C4    4  -0.198   0.016   0.215
    1UNL     N1    5  -0.061  -0.012   0.167
    1UNL     C5    6   0.021  -0.028   0.297
    1UNL     C6    7  -0.009   0.116   0.098
    1UNL     C7    8  -0.109   0.153  -0.009
    1UNL     C8    9  -0.210   0.032  -0.034
    1UNL     C9   10  -0.147  -0.108  -0.065
    1UNL    C10   11  -0.091  -0.127  -0.205
    1UNL     O1   12  -0.185  -0.081  -0.297
    1UNL    C11   13  -0.058  -0.133   0.067
    1UNL    C12   14   0.087  -0.164   0.033
    1UNL    C13   15   0.166  -0.045   0.002
    1UNL    C14   16   0.123   0.084   0.033
    1UNL     N2   17   0.223   0.174   0.013
    1UNL    C15   18   0.341   0.102  -0.022
    1UNL    C16   19   0.477   0.140  -0.044
    1UNL    C17   20   0.570   0.051  -0.086
    1UNL    C18   21   0.527  -0.084  -0.116
    1UNL    C19   22   0.404  -0.131  -0.081
    1UNL    C20   23   0.304  -0.039  -0.039
    1UNL     H1   24  -0.615   0.055  -0.000
    1UNL     H2   25  -0.515   0.198   0.001
    1UNL     H3   26  -0.480   0.067  -0.117
    1UNL     H4   27  -0.464   0.050   0.199
    1UNL     H5   28  -0.232  -0.068   0.279
    1UNL     H6   29  -0.198   0.098   0.282
    1UNL     H7   30  -0.009  -0.117   0.348
    1UNL     H8   31   0.126  -0.043   0.287
    1UNL     H9   32   0.006   0.057   0.359
    1UNL    H10   33   0.011   0.201   0.172
    1UNL    H11   34  -0.166   0.246   0.002
    1UNL    H12   35  -0.051   0.168  -0.106
    1UNL    H13   36  -0.282   0.058  -0.112
    1UNL    H14   37  -0.238  -0.174  -0.068
    1UNL    H15   38  -0.074  -0.238  -0.225
    1UNL    H16   39   0.017  -0.076  -0.202
    1UNL    H17   40  -0.191   0.017  -0.295
    1UNL    H18   41  -0.101  -0.215   0.128
    1UNL    H19   42   0.131  -0.230   0.112
    1UNL    H20   43   0.088  -0.224  -0.058
    1UNL    H21   44   0.243   0.263   0.052
    1UNL    H22   45   0.508   0.246  -0.031
    1UNL    H23   46   0.670   0.080  -0.114
    1UNL    H24   47   0.581  -0.144  -0.178
    1UNL    H25   48   0.376  -0.228  -0.105
   0.00000   0.00000   0.00000   0.00000   0.00000   0.00000   0.00000   0.00000   0.00000
Generated with MDTraj, t= 57.0
 48
    1UNL     C1    1  -0.526   0.058   0.007
    1UNL     C2    2  -0.425   0.050   0.113
    1UNL     C3    3  -0.296   0.033   0.095
    1UNL     C4    4  -0.206   0.019   0.210
    1UNL     N1    5  -0.062  -0.014   0.163
    1UNL     C5    6   0.024  -0.052   0.282
    1UNL     C6    7  -0.004   0.110   0.091
    1UNL     C7    8  -0.101   0.155  -0.019
    1UNL     C8    9  -0.218   0.050  -0.035
    1UNL     C9   10  -0.157  -0.098  -0.055
    1UNL    C10   11  -0.097  -0.111  -0.196
    1UNL     O1   12  -0.176  -0.070  -0.312
    1UNL    C11   13  -0.062  -0.131   0.065
    1UNL    C12   14   0.086  -0.162   0.020
    1UNL    C13   15   0.176  -0.042   0.013
    1UNL    C14   16   0.135   0.082   0.037
    1UNL     N2   17   0.236   0.178   0.004
    1UNL    C15   18   0.346   0.105  -0.031
    1UNL    C16   19   0.473   0.150  -0.058
    1UNL    C17   20   0.559   0.045  -0.094
    1UNL    C18   21   0.535  -0.091  -0.085
    1UNL    C19   22   0.404  -0.136  -0.053
    1UNL    C20   23   0.308  -0.032  -0.039
    1UNL     H1   24  -0.572   0.158   0.007
    1UNL     H2   25  -0.478   0.057  -0.092
    1UNL     H3   26  -0.607  -0.012   0.008
    1UNL     H4   27  -0.464   0.083   0.213
    1UNL     H5   28  -0.247  -0.053   0.281
    1UNL     H6   29  -0.208   0.107   0.271
    1UNL     H7   30  -0.010  -0.146   0.323
    1UNL     H8   31   0.124  -0.077   0.256
    1UNL     H9   32   0.018   0.027   0.353
    1UNL    H10   33   0.008   0.189   0.172
    1UNL    H11   34  -0.144   0.252   0.003
    1UNL    H12   35  -0.052   0.163  -0.123
    1UNL    H13   36  -0.288   0.075  -0.115
    1UNL    H14   37  -0.239  -0.173  -0.064
    1UNL    H15   38  -0.051  -0.214  -0.204
    1UNL    H16   39  -0.004  -0.034  -0.192
    1UNL    H17   40  -0.238   0.001  -0.291
    1UNL    H18   41  -0.091  -0.228   0.113
    1UNL    H19   42   0.139  -0.226   0.095
    1UNL    H20   43   0.089  -0.221  -0.069
    1UNL    H21   44   0.226   0.278   0.004
    1UNL    H22   45   0.494   0.253  -0.070
    1UNL    H23   46   0.659   0.073  -0.127
    1UNL    H24   47   0.613  -0.168  -0.113
    1UNL    H25   48   0.368  -0.241  -0.067
   0.00000   0.00000   0.00000   0.00000   0.00000   0.00000   0.00000   0.00000   0.00000
Generated with MDTraj, t= 58.0
 48
    1UNL     C1    1  -0.533   0.061   0.001
    1UNL     C2    2  -0.433   0.041   0.110
    1UNL     C3    3  -0.299   0.045   0.101
    1UNL     C4    4  -0.198   0.005   0.211
    1UNL     N1    5  -0.056  -0.012   0.163
    1UNL     C5    6   0.038  -0.035   0.284
    1UNL     C6    7  -0.014   0.117   0.090
    1UNL     C7    8  -0.114   0.154  -0.026
    1UNL     C8    9  -0.223   0.045  -0.028
    1UNL     C9   10  -0.154  -0.092  -0.061
    1UNL    C10   11  -0.082  -0.089  -0.195
    1UNL     O1   12  -0.178  -0.073  -0.303
    1UNL    C11   13  -0.060  -0.135   0.060
    1UNL    C12   14   0.087  -0.171   0.024
    1UNL    C13   15   0.170  -0.046   0.008
    1UNL    C14   16   0.127   0.085   0.036
    1UNL     N2   17   0.234   0.173   0.016
    1UNL    C15   18   0.343   0.099  -0.026
    1UNL    C16   19   0.469   0.138  -0.070
    1UNL    C17   20   0.569   0.044  -0.101
    1UNL    C18   21   0.537  -0.095  -0.092
    1UNL    C19   22   0.405  -0.129  -0.055
    1UNL    C20   23   0.312  -0.035  -0.027
    1UNL     H1   24  -0.483   0.114  -0.086
    1UNL     H2   25  -0.568  -0.032  -0.043
    1UNL     H3   26  -0.613   0.122   0.030
    1UNL     H4   27  -0.481   0.033   0.201
    1UNL     H5   28  -0.227  -0.089   0.254
    1UNL     H6   29  -0.205   0.065   0.303
    1UNL     H7   30   0.022  -0.127   0.336
    1UNL     H8   31   0.138  -0.040   0.252
    1UNL     H9   32   0.012   0.049   0.345
    1UNL    H10   33  -0.006   0.200   0.170
    1UNL    H11   34  -0.174   0.242  -0.004
    1UNL    H12   35  -0.064   0.170  -0.127
    1UNL    H13   36  -0.298   0.067  -0.106
    1UNL    H14   37  -0.233  -0.169  -0.070
    1UNL    H15   38  -0.047  -0.195  -0.221
    1UNL    H16   39   0.012  -0.015  -0.195
    1UNL    H17   40  -0.173   0.018  -0.342
    1UNL    H18   41  -0.101  -0.220   0.122
    1UNL    H19   42   0.130  -0.244   0.097
    1UNL    H20   43   0.097  -0.218  -0.070
    1UNL    H21   44   0.214   0.271   0.024
    1UNL    H22   45   0.506   0.241  -0.073
    1UNL    H23   46   0.673   0.077  -0.096
    1UNL    H24   47   0.611  -0.171  -0.109
    1UNL    H25   48   0.379  -0.230  -0.054
   0.00000   0.00000   0.00000   0.00000   0.00000   0.00000   0.00000   0.00000   0.00000
Generated with MDTraj, t= 59.0
 48
    1UNL     C1    1  -0.514   0.076  -0.002
    1UNL     C2    2  -0.424   0.047   0.102
    1UNL     C3    3  -0.293   0.043   0.095
    1UNL     C4    4  -0.212   0.014   0.217
    1UNL     N1    5  -0.064  -0.012   0.175
    1UNL     C5    6   0.018  -0.045   0.298
    1UNL     C6    7  -0.014   0.105   0.092
    1UNL     C7    8  -0.099   0.141  -0.032
    1UNL     C8    9  -0.219   0.044  -0.036
    1UNL     C9   10  -0.151  -0.098  -0.050
    1UNL    C10   11  -0.086  -0.112  -0.180
    1UNL     O1   12  -0.158  -0.070  -0.294
    1UNL    C11   13  -0.056  -0.132   0.069
    1UNL    C12   14   0.090  -0.171   0.029
    1UNL    C13   15   0.174  -0.045   0.005
    1UNL    C14   16   0.129   0.080   0.035
    1UNL     N2   17   0.223   0.176   0.012
    1UNL    C15   18   0.335   0.108  -0.033
    1UNL    C16   19   0.471   0.151  -0.064
    1UNL    C17   20   0.562   0.050  -0.079
    1UNL    C18   21   0.525  -0.089  -0.109
    1UNL    C19   22   0.396  -0.129  -0.096
    1UNL    C20   23   0.304  -0.034  -0.046
    1UNL     H1   24  -0.463   0.151  -0.071
    1UNL     H2   25  -0.531  -0.012  -0.062
    1UNL     H3   26  -0.603   0.120   0.038
    1UNL     H4   27  -0.477   0.049   0.203
    1UNL     H5   28  -0.248  -0.069   0.273
    1UNL     H6   29  -0.224   0.094   0.294
    1UNL     H7   30  -0.019  -0.137   0.336
    1UNL     H8   31   0.114  -0.071   0.264
    1UNL     H9   32   0.010   0.036   0.367
    1UNL    H10   33  -0.009   0.189   0.171
    1UNL    H11   34  -0.134   0.244  -0.021
    1UNL    H12   35  -0.043   0.135  -0.130
    1UNL    H13   36  -0.275   0.076  -0.125
    1UNL    H14   37  -0.234  -0.169  -0.037
    1UNL    H15   38  -0.062  -0.224  -0.208
    1UNL    H16   39   0.010  -0.053  -0.190
    1UNL    H17   40  -0.122   0.017  -0.332
    1UNL    H18   41  -0.095  -0.225   0.120
    1UNL    H19   42   0.143  -0.218   0.116
    1UNL    H20   43   0.091  -0.240  -0.051
    1UNL    H21   44   0.211   0.266   0.062
    1UNL    H22   45   0.494   0.246  -0.026
    1UNL    H23   46   0.669   0.061  -0.073
    1UNL    H24   47   0.594  -0.166  -0.136
    1UNL    H25   48   0.361  -0.231  -0.118
   0.00000   0.00000   0.00000   0.00000   0.00000   0.00000   0.00000   0.00000   0.00000
Generated with MDTraj, t= 60.0
 48
    1UNL     C1    1  -0.514   0.098  -0.012
    1UNL     C2    2  -0.425   0.062   0.100
    1UNL     C3    3  -0.297   0.039   0.092
    1UNL     C4    4  -0.206   0.001   0.210
    1UNL     N1    5  -0.062  -0.018   0.162
    1UNL     C5    6   0.009  -0.042   0.294
    1UNL     C6    7  -0.008   0.112   0.097
    1UNL     C7    8  -0.101   0.143  -0.025
    1UNL     C8    9  -0.218   0.036  -0.033
    1UNL     C9   10  -0.147  -0.109  -0.059
    1UNL    C10   11  -0.081  -0.111  -0.194
    1UNL     O1   12  -0.173  -0.088  -0.295
    1UNL    C11   13  -0.054  -0.140   0.066
    1UNL    C12   14   0.091  -0.173   0.034
    1UNL    C13   15   0.175  -0.045   0.028
    1UNL    C14   16   0.136   0.085   0.051
    1UNL     N2   17   0.241   0.175   0.027
    1UNL    C15   18   0.347   0.098  -0.004
    1UNL    C16   19   0.467   0.147  -0.065
    1UNL    C17   20   0.546   0.060  -0.131
    1UNL    C18   21   0.515  -0.079  -0.122
    1UNL    C19   22   0.399  -0.122  -0.072
    1UNL    C20   23   0.309  -0.036  -0.013
    1UNL     H1   24  -0.569   0.191   0.006
    1UNL     H2   25  -0.456   0.127  -0.099
    1UNL     H3   26  -0.587   0.021  -0.040
    1UNL     H4   27  -0.460   0.072   0.196
    1UNL     H5   28  -0.241  -0.085   0.261
    1UNL     H6   29  -0.205   0.079   0.291
    1UNL     H7   30  -0.019  -0.134   0.336
    1UNL     H8   31   0.111  -0.054   0.267
    1UNL     H9   32  -0.011   0.042   0.357
    1UNL    H10   33  -0.002   0.203   0.170
    1UNL    H11   34  -0.142   0.246  -0.028
    1UNL    H12   35  -0.043   0.129  -0.117
    1UNL    H13   36  -0.277   0.063  -0.121
    1UNL    H14   37  -0.230  -0.181  -0.068
    1UNL    H15   38  -0.032  -0.217  -0.221
    1UNL    H16   39   0.003  -0.041  -0.206
    1UNL    H17   40  -0.143  -0.007  -0.343
    1UNL    H18   41  -0.100  -0.227   0.120
    1UNL    H19   42   0.125  -0.250   0.108
    1UNL    H20   43   0.097  -0.218  -0.062
    1UNL    H21   44   0.227   0.278   0.019
    1UNL    H22   45   0.480   0.257  -0.055
    1UNL    H23   46   0.625   0.090  -0.199
    1UNL    H24   47   0.569  -0.144  -0.198
    1UNL    H25   48   0.360  -0.222  -0.075
   0.00000   0.00000   0.00000   0.00000   0.00000   0.00000   0.00000   0.00000   0.00000
Generated with MDTraj, t= 61.0
 48
    1UNL     C1    1  -0.490   0.114  -0.031
    1UNL     C2    2  -0.413   0.074   0.087
    1UNL     C3    3  -0.289   0.040   0.089
    1UNL     C4    4  -0.219   0.003   0.212
    1UNL     N1    5  -0.070  -0.024   0.177
    1UNL     C5    6   0.003  -0.062   0.307
    1UNL     C6    7  -0.004   0.101   0.113
    1UNL     C7    8  -0.090   0.147  -0.000
    1UNL     C8    9  -0.201   0.048  -0.037
    1UNL     C9   10  -0.154  -0.105  -0.053
    1UNL    C10   11  -0.087  -0.126  -0.186
    1UNL     O1   12  -0.166  -0.107  -0.303
    1UNL    C11   13  -0.062  -0.139   0.075
    1UNL    C12   14   0.089  -0.168   0.033
    1UNL    C13   15   0.176  -0.046   0.022
    1UNL    C14   16   0.132   0.081   0.063
    1UNL     N2   17   0.230   0.174   0.035
    1UNL    C15   18   0.333   0.111  -0.033
    1UNL    C16   19   0.453   0.155  -0.081
    1UNL    C17   20   0.544   0.062  -0.131
    1UNL    C18   21   0.525  -0.079  -0.126
    1UNL    C19   22   0.404  -0.121  -0.073
    1UNL    C20   23   0.306  -0.027  -0.040
    1UNL     H1   24  -0.579   0.057  -0.049
    1UNL     H2   25  -0.517   0.216  -0.011
    1UNL     H3   26  -0.429   0.106  -0.128
    1UNL     H4   27  -0.465   0.076   0.188
    1UNL     H5   28  -0.266  -0.089   0.239
    1UNL     H6   29  -0.241   0.080   0.291
    1UNL     H7   30  -0.029  -0.154   0.344
    1UNL     H8   31   0.109  -0.073   0.290
    1UNL     H9   32  -0.015   0.015   0.375
    1UNL    H10   33  -0.004   0.183   0.195
    1UNL    H11   34  -0.143   0.243   0.029
    1UNL    H12   35  -0.032   0.161  -0.089
    1UNL    H13   36  -0.260   0.084  -0.122
    1UNL    H14   37  -0.249  -0.162  -0.057
    1UNL    H15   38  -0.049  -0.240  -0.190
    1UNL    H16   39   0.006  -0.068  -0.193
    1UNL    H17   40  -0.214  -0.024  -0.297
    1UNL    H18   41  -0.107  -0.226   0.128
    1UNL    H19   42   0.136  -0.237   0.107
    1UNL    H20   43   0.094  -0.231  -0.055
    1UNL    H21   44   0.217   0.279   0.029
    1UNL    H22   45   0.478   0.256  -0.087
    1UNL    H23   46   0.633   0.105  -0.175
    1UNL    H24   47   0.585  -0.144  -0.175
    1UNL    H25   48   0.384  -0.227  -0.081
   0.00000   0.00000   0.00000   0.00000   0.00000   0.00000   0.00000   0.00000   0.00000
Generated with MDTraj, t= 62.0
 48
    1UNL     C1    1  -0.499   0.127  -0.024
    1UNL     C2    2  -0.415   0.078   0.093
    1UNL     C3    3  -0.291   0.036   0.088
    1UNL     C4    4  -0.215  -0.002   0.213
    1UNL     N1    5  -0.071  -0.025   0.179
    1UNL     C5    6  -0.002  -0.045   0.315
    1UNL     C6    7  -0.013   0.106   0.113
    1UNL     C7    8  -0.096   0.146  -0.016
    1UNL     C8    9  -0.205   0.038  -0.041
    1UNL     C9   10  -0.140  -0.101  -0.059
    1UNL    C10   11  -0.066  -0.116  -0.190
    1UNL     O1   12  -0.151  -0.109  -0.304
    1UNL    C11   13  -0.060  -0.142   0.072
    1UNL    C12   14   0.086  -0.176   0.045
    1UNL    C13   15   0.170  -0.051   0.033
    1UNL    C14   16   0.125   0.073   0.067
    1UNL     N2   17   0.223   0.170   0.029
    1UNL    C15   18   0.340   0.103  -0.026
    1UNL    C16   19   0.462   0.153  -0.077
    1UNL    C17   20   0.550   0.063  -0.136
    1UNL    C18   21   0.512  -0.067  -0.149
    1UNL    C19   22   0.398  -0.127  -0.086
    1UNL    C20   23   0.301  -0.032  -0.029
    1UNL     H1   24  -0.461   0.105  -0.120
    1UNL     H2   25  -0.599   0.089  -0.006
    1UNL     H3   26  -0.501   0.242  -0.017
    1UNL     H4   27  -0.453   0.082   0.191
    1UNL     H5   28  -0.267  -0.088   0.256
    1UNL     H6   29  -0.221   0.085   0.281
    1UNL     H7   30  -0.026  -0.136   0.361
    1UNL     H8   31   0.103  -0.050   0.299
    1UNL     H9   32  -0.019   0.035   0.380
    1UNL    H10   33  -0.012   0.188   0.195
    1UNL    H11   34  -0.156   0.241  -0.001
    1UNL    H12   35  -0.033   0.154  -0.101
    1UNL    H13   36  -0.273   0.063  -0.123
    1UNL    H14   37  -0.224  -0.172  -0.070
    1UNL    H15   38  -0.013  -0.218  -0.189
    1UNL    H16   39   0.019  -0.043  -0.194
    1UNL    H17   40  -0.236  -0.061  -0.290
    1UNL    H18   41  -0.110  -0.224   0.128
    1UNL    H19   42   0.131  -0.239   0.125
    1UNL    H20   43   0.104  -0.247  -0.036
    1UNL    H21   44   0.245   0.263   0.076
    1UNL    H22   45   0.491   0.258  -0.068
    1UNL    H23   46   0.657   0.089  -0.146
    1UNL    H24   47   0.595  -0.141  -0.184
    1UNL    H25   48   0.370  -0.232  -0.093
   0.00000   0.00000   0.00000   0.00000   0.00000   0.00000   0.00000   0.00000   0.00000
Generated with MDTraj, t= 63.0
 48
    1UNL     C1    1  -0.505   0.119  -0.015
    1UNL     C2    2  -0.423   0.074   0.098
    1UNL     C3    3  -0.298   0.035   0.086
    1UNL     C4    4  -0.217   0.004   0.208
    1UNL     N1    5  -0.067  -0.017   0.170
    1UNL     C5    6   0.011  -0.048   0.296
    1UNL     C6    7  -0.009   0.107   0.104
    1UNL     C7    8  -0.097   0.139  -0.022
    1UNL     C8    9  -0.205   0.027  -0.041
    1UNL     C9   10  -0.140  -0.110  -0.057
    1UNL    C10   11  -0.068  -0.121  -0.187
    1UNL     O1   12  -0.146  -0.075  -0.293
    1UNL    C11   13  -0.056  -0.138   0.074
    1UNL    C12   14   0.090  -0.168   0.047
    1UNL    C13   15   0.175  -0.047   0.033
    1UNL    C14   16   0.134   0.082   0.066
    1UNL     N2   17   0.229   0.180   0.022
    1UNL    C15   18   0.344   0.107  -0.013
    1UNL    C16   19   0.458   0.147  -0.075
    1UNL    C17   20   0.535   0.052  -0.137
    1UNL    C18   21   0.500  -0.086  -0.139
    1UNL    C19   22   0.389  -0.128  -0.083
    1UNL    C20   23   0.307  -0.034  -0.019
    1UNL     H1   24  -0.479   0.217  -0.047
    1UNL     H2   25  -0.495   0.044  -0.095
    1UNL     H3   26  -0.614   0.128   0.013
    1UNL     H4   27  -0.462   0.075   0.202
    1UNL     H5   28  -0.256  -0.093   0.249
    1UNL     H6   29  -0.230   0.090   0.274
    1UNL     H7   30  -0.017  -0.143   0.334
    1UNL     H8   31   0.115  -0.057   0.283
    1UNL     H9   32  -0.002   0.025   0.370
    1UNL    H10   33  -0.021   0.185   0.189
    1UNL    H11   34  -0.153   0.238  -0.019
    1UNL    H12   35  -0.036   0.136  -0.108
    1UNL    H13   36  -0.257   0.054  -0.133
    1UNL    H14   37  -0.222  -0.184  -0.064
    1UNL    H15   38  -0.025  -0.219  -0.210
    1UNL    H16   39   0.028  -0.058  -0.177
    1UNL    H17   40  -0.207  -0.143  -0.334
    1UNL    H18   41  -0.103  -0.221   0.129
    1UNL    H19   42   0.130  -0.238   0.123
    1UNL    H20   43   0.102  -0.235  -0.040
    1UNL    H21   44   0.216   0.287   0.017
    1UNL    H22   45   0.492   0.252  -0.068
    1UNL    H23   46   0.636   0.084  -0.158
    1UNL    H24   47   0.572  -0.148  -0.179
    1UNL    H25   48   0.362  -0.231  -0.075
   0.00000   0.00000   0.00000   0.00000   0.00000   0.00000   0.00000   0.00000   0.00000
Generated with MDTraj, t= 64.0
 48
    1UNL     C1    1  -0.524   0.091  -0.031
    1UNL     C2    2  -0.429   0.057   0.082
    1UNL     C3    3  -0.298   0.047   0.090
    1UNL     C4    4  -0.218   0.010   0.214
    1UNL     N1    5  -0.065  -0.015   0.178
    1UNL     C5    6   0.010  -0.053   0.302
    1UNL     C6    7  -0.001   0.105   0.111
    1UNL     C7    8  -0.090   0.161  -0.004
    1UNL     C8    9  -0.204   0.054  -0.029
    1UNL     C9   10  -0.148  -0.095  -0.046
    1UNL    C10   11  -0.080  -0.110  -0.182
    1UNL     O1   12  -0.151  -0.062  -0.288
    1UNL    C11   13  -0.058  -0.140   0.082
    1UNL    C12   14   0.092  -0.171   0.040
    1UNL    C13   15   0.175  -0.054   0.016
    1UNL    C14   16   0.135   0.073   0.054
    1UNL     N2   17   0.227   0.165   0.013
    1UNL    C15   18   0.332   0.094  -0.043
    1UNL    C16   19   0.451   0.148  -0.095
    1UNL    C17   20   0.548   0.055  -0.118
    1UNL    C18   21   0.533  -0.085  -0.108
    1UNL    C19   22   0.410  -0.130  -0.080
    1UNL    C20   23   0.302  -0.044  -0.043
    1UNL     H1   24  -0.547   0.197  -0.036
    1UNL     H2   25  -0.484   0.053  -0.129
    1UNL     H3   26  -0.617   0.037  -0.020
    1UNL     H4   27  -0.483   0.035   0.173
    1UNL     H5   28  -0.261  -0.082   0.265
    1UNL     H6   29  -0.219   0.096   0.278
    1UNL     H7   30  -0.020  -0.140   0.356
    1UNL     H8   31   0.109  -0.069   0.280
    1UNL     H9   32   0.011   0.031   0.365
    1UNL    H10   33   0.005   0.189   0.190
    1UNL    H11   34  -0.144   0.256   0.021
    1UNL    H12   35  -0.037   0.176  -0.094
    1UNL    H13   36  -0.258   0.090  -0.117
    1UNL    H14   37  -0.238  -0.158  -0.044
    1UNL    H15   38  -0.051  -0.210  -0.200
    1UNL    H16   39   0.025  -0.060  -0.189
    1UNL    H17   40  -0.228  -0.122  -0.308
    1UNL    H18   41  -0.102  -0.225   0.135
    1UNL    H19   42   0.143  -0.228   0.120
    1UNL    H20   43   0.097  -0.254  -0.036
    1UNL    H21   44   0.203   0.268  -0.006
    1UNL    H22   45   0.463   0.250  -0.093
    1UNL    H23   46   0.636   0.092  -0.164
    1UNL    H24   47   0.608  -0.158  -0.144
    1UNL    H25   48   0.385  -0.236  -0.086
   0.00000   0.00000   0.00000   0.00000   0.00000   0.00000   0.00000   0.00000   0.00000
Generated with MDTraj, t= 65.0
 48
    1UNL     C1    1  -0.521   0.054  -0.017
    1UNL     C2    2  -0.429   0.047   0.102
    1UNL     C3    3  -0.296   0.040   0.093
    1UNL     C4    4  -0.203   0.013   0.214
    1UNL     N1    5  -0.054  -0.011   0.172
    1UNL     C5    6   0.033  -0.041   0.299
    1UNL     C6    7  -0.010   0.113   0.099
    1UNL     C7    8  -0.112   0.158  -0.015
    1UNL     C8    9  -0.220   0.045  -0.038
    1UNL     C9   10  -0.141  -0.090  -0.064
    1UNL    C10   11  -0.075  -0.086  -0.198
    1UNL     O1   12  -0.161  -0.054  -0.304
    1UNL    C11   13  -0.054  -0.127   0.070
    1UNL    C12   14   0.094  -0.165   0.037
    1UNL    C13   15   0.174  -0.045   0.029
    1UNL    C14   16   0.128   0.086   0.040
    1UNL     N2   17   0.233   0.174   0.025
    1UNL    C15   18   0.343   0.099  -0.020
    1UNL    C16   19   0.464   0.138  -0.088
    1UNL    C17   20   0.551   0.033  -0.125
    1UNL    C18   21   0.512  -0.101  -0.110
    1UNL    C19   22   0.388  -0.139  -0.059
    1UNL    C20   23   0.304  -0.038  -0.011
    1UNL     H1   24  -0.479   0.123  -0.095
    1UNL     H2   25  -0.538  -0.051  -0.054
    1UNL     H3   26  -0.616   0.090   0.006
    1UNL     H4   27  -0.481   0.028   0.194
    1UNL     H5   28  -0.232  -0.080   0.272
    1UNL     H6   29  -0.203   0.096   0.280
    1UNL     H7   30   0.011  -0.131   0.350
    1UNL     H8   31   0.131  -0.057   0.266
    1UNL     H9   32   0.033   0.041   0.364
    1UNL    H10   33  -0.007   0.198   0.178
    1UNL    H11   34  -0.166   0.251   0.013
    1UNL    H12   35  -0.065   0.171  -0.109
    1UNL    H13   36  -0.293   0.070  -0.115
    1UNL    H14   37  -0.222  -0.164  -0.071
    1UNL    H15   38  -0.020  -0.174  -0.221
    1UNL    H16   39   0.012  -0.009  -0.197
    1UNL    H17   40  -0.220  -0.129  -0.321
    1UNL    H18   41  -0.109  -0.204   0.124
    1UNL    H19   42   0.131  -0.248   0.100
    1UNL    H20   43   0.101  -0.220  -0.061
    1UNL    H21   44   0.225   0.276   0.059
    1UNL    H22   45   0.490   0.246  -0.111
    1UNL    H23   46   0.643   0.046  -0.188
    1UNL    H24   47   0.566  -0.176  -0.170
    1UNL    H25   48   0.353  -0.239  -0.070
   0.00000   0.00000   0.00000   0.00000   0.00000   0.00000   0.00000   0.00000   0.00000
Generated with MDTraj, t= 66.0
 48
    1UNL     C1    1  -0.524   0.042  -0.003
    1UNL     C2    2  -0.423   0.045   0.105
    1UNL     C3    3  -0.292   0.038   0.096
    1UNL     C4    4  -0.210   0.035   0.215
    1UNL     N1    5  -0.063  -0.002   0.172
    1UNL     C5    6   0.003  -0.039   0.305
    1UNL     C6    7  -0.005   0.115   0.094
    1UNL     C7    8  -0.103   0.149  -0.018
    1UNL     C8    9  -0.213   0.043  -0.031
    1UNL     C9   10  -0.151  -0.096  -0.053
    1UNL    C10   11  -0.085  -0.108  -0.188
    1UNL     O1   12  -0.143  -0.041  -0.303
    1UNL    C11   13  -0.065  -0.125   0.076
    1UNL    C12   14   0.086  -0.166   0.040
    1UNL    C13   15   0.174  -0.049   0.013
    1UNL    C14   16   0.128   0.078   0.028
    1UNL     N2   17   0.233   0.170   0.012
    1UNL    C15   18   0.341   0.098  -0.034
    1UNL    C16   19   0.474   0.136  -0.060
    1UNL    C17   20   0.567   0.039  -0.099
    1UNL    C18   21   0.524  -0.095  -0.121
    1UNL    C19   22   0.392  -0.131  -0.094
    1UNL    C20   23   0.305  -0.039  -0.042
    1UNL     H1   24  -0.506   0.122  -0.080
    1UNL     H2   25  -0.527  -0.056  -0.053
    1UNL     H3   26  -0.623   0.058   0.027
    1UNL     H4   27  -0.472   0.034   0.204
    1UNL     H5   28  -0.249  -0.033   0.295
    1UNL     H6   29  -0.201   0.133   0.261
    1UNL     H7   30  -0.034  -0.132   0.331
    1UNL     H8   31   0.107  -0.053   0.289
    1UNL     H9   32  -0.026   0.030   0.380
    1UNL    H10   33   0.014   0.194   0.176
    1UNL    H11   34  -0.160   0.242   0.002
    1UNL    H12   35  -0.050   0.155  -0.111
    1UNL    H13   36  -0.268   0.066  -0.122
    1UNL    H14   37  -0.231  -0.171  -0.064
    1UNL    H15   38  -0.053  -0.209  -0.209
    1UNL    H16   39   0.016  -0.059  -0.178
    1UNL    H17   40  -0.241  -0.053  -0.314
    1UNL    H18   41  -0.116  -0.202   0.133
    1UNL    H19   42   0.126  -0.224   0.124
    1UNL    H20   43   0.086  -0.243  -0.042
    1UNL    H21   44   0.227   0.275   0.032
    1UNL    H22   45   0.512   0.233  -0.051
    1UNL    H23   46   0.668   0.063  -0.090
    1UNL    H24   47   0.594  -0.164  -0.155
    1UNL    H25   48   0.370  -0.236  -0.113
   0.00000   0.00000   0.00000   0.00000   0.00000   0.00000   0.00000   0.00000   0.00000
Generated with MDTraj, t= 67.0
 48
    1UNL     C1    1  -0.502   0.064  -0.018
    1UNL     C2    2  -0.425   0.038   0.107
    1UNL     C3    3  -0.293   0.036   0.099
    1UNL     C4    4  -0.205   0.014   0.214
    1UNL     N1    5  -0.061  -0.011   0.167
    1UNL     C5    6   0.029  -0.026   0.290
    1UNL     C6    7  -0.010   0.120   0.098
    1UNL     C7    8  -0.107   0.154  -0.018
    1UNL     C8    9  -0.217   0.042  -0.031
    1UNL     C9   10  -0.150  -0.093  -0.062
    1UNL    C10   11  -0.083  -0.102  -0.196
    1UNL     O1   12  -0.173  -0.059  -0.297
    1UNL    C11   13  -0.059  -0.126   0.065
    1UNL    C12   14   0.084  -0.164   0.032
    1UNL    C13   15   0.164  -0.040   0.008
    1UNL    C14   16   0.131   0.087   0.048
    1UNL     N2   17   0.238   0.169   0.018
    1UNL    C15   18   0.341   0.092  -0.023
    1UNL    C16   19   0.473   0.135  -0.060
    1UNL    C17   20   0.555   0.041  -0.109
    1UNL    C18   21   0.521  -0.095  -0.114
    1UNL    C19   22   0.398  -0.137  -0.065
    1UNL    C20   23   0.298  -0.040  -0.036
    1UNL     H1   24  -0.504   0.173  -0.041
    1UNL     H2   25  -0.467   0.007  -0.104
    1UNL     H3   26  -0.605   0.032  -0.013
    1UNL     H4   27  -0.477   0.008   0.190
    1UNL     H5   28  -0.231  -0.073   0.276
    1UNL     H6   29  -0.204   0.099   0.285
    1UNL     H7   30   0.009  -0.108   0.350
    1UNL     H8   31   0.127  -0.039   0.249
    1UNL     H9   32   0.014   0.062   0.345
    1UNL    H10   33   0.016   0.194   0.184
    1UNL    H11   34  -0.165   0.243   0.004
    1UNL    H12   35  -0.060   0.171  -0.116
    1UNL    H13   36  -0.286   0.073  -0.110
    1UNL    H14   37  -0.229  -0.169  -0.065
    1UNL    H15   38  -0.063  -0.212  -0.214
    1UNL    H16   39   0.015  -0.061  -0.199
    1UNL    H17   40  -0.258  -0.110  -0.282
    1UNL    H18   41  -0.102  -0.204   0.127
    1UNL    H19   42   0.127  -0.211   0.122
    1UNL    H20   43   0.095  -0.236  -0.054
    1UNL    H21   44   0.237   0.271  -0.014
    1UNL    H22   45   0.495   0.237  -0.044
    1UNL    H23   46   0.659   0.072  -0.140
    1UNL    H24   47   0.601  -0.176  -0.132
    1UNL    H25   48   0.370  -0.241  -0.067
   0.00000   0.00000   0.00000   0.00000   0.00000   0.00000   0.00000   0.00000   0.00000
Generated with MDTraj, t= 68.0
 48
    1UNL     C1    1  -0.524   0.076   0.002
    1UNL     C2    2  -0.424   0.073   0.109
    1UNL     C3    3  -0.296   0.040   0.091
    1UNL     C4    4  -0.217   0.004   0.211
    1UNL     N1    5  -0.069  -0.014   0.166
    1UNL     C5    6   0.013  -0.058   0.280
    1UNL     C6    7  -0.008   0.108   0.099
    1UNL     C7    8  -0.094   0.155  -0.020
    1UNL     C8    9  -0.208   0.056  -0.041
    1UNL     C9   10  -0.147  -0.089  -0.061
    1UNL    C10   11  -0.089  -0.108  -0.197
    1UNL     O1   12  -0.182  -0.089  -0.299
    1UNL    C11   13  -0.059  -0.131   0.064
    1UNL    C12   14   0.086  -0.166   0.025
    1UNL    C13   15   0.179  -0.044   0.019
    1UNL    C14   16   0.137   0.084   0.058
    1UNL     N2   17   0.230   0.177   0.018
    1UNL    C15   18   0.339   0.107  -0.030
    1UNL    C16   19   0.474   0.138  -0.074
    1UNL    C17   20   0.562   0.045  -0.120
    1UNL    C18   21   0.534  -0.094  -0.101
    1UNL    C19   22   0.412  -0.130  -0.054
    1UNL    C20   23   0.314  -0.032  -0.029
    1UNL     H1   24  -0.478   0.117  -0.087
    1UNL     H2   25  -0.562  -0.022  -0.013
    1UNL     H3   26  -0.612   0.145   0.028
    1UNL     H4   27  -0.468   0.053   0.212
    1UNL     H5   28  -0.254  -0.083   0.264
    1UNL     H6   29  -0.215   0.085   0.290
    1UNL     H7   30  -0.033  -0.143   0.322
    1UNL     H8   31   0.111  -0.085   0.249
    1UNL     H9   32   0.007   0.020   0.351
    1UNL    H10   33  -0.008   0.189   0.181
    1UNL    H11   34  -0.137   0.253  -0.010
    1UNL    H12   35  -0.046   0.168  -0.120
    1UNL    H13   36  -0.272   0.092  -0.122
    1UNL    H14   37  -0.236  -0.152  -0.056
    1UNL    H15   38  -0.037  -0.208  -0.212
    1UNL    H16   39  -0.021  -0.032  -0.213
    1UNL    H17   40  -0.260  -0.148  -0.286
    1UNL    H18   41  -0.103  -0.216   0.116
    1UNL    H19   42   0.139  -0.229   0.097
    1UNL    H20   43   0.082  -0.224  -0.071
    1UNL    H21   44   0.241   0.274   0.061
    1UNL    H22   45   0.496   0.251  -0.073
    1UNL    H23   46   0.656   0.068  -0.160
    1UNL    H24   47   0.603  -0.159  -0.138
    1UNL    H25   48   0.394  -0.234  -0.031
   0.00000   0.00000   0.00000   0.00000   0.00000   0.00000   0.00000   0.00000   0.00000
Generated with MDTraj, t= 69.0
 48
    1UNL     C1    1  -0.499   0.128  -0.016
    1UNL     C2    2  -0.423   0.079   0.100
    1UNL     C3    3  -0.295   0.043   0.095
    1UNL     C4    4  -0.210   0.004   0.211
    1UNL     N1    5  -0.065  -0.019   0.169
    1UNL     C5    6   0.021  -0.045   0.294
    1UNL     C6    7  -0.009   0.101   0.088
    1UNL     C7    8  -0.104   0.136  -0.032
    1UNL     C8    9  -0.218   0.033  -0.035
    1UNL     C9   10  -0.154  -0.117  -0.052
    1UNL    C10   11  -0.089  -0.124  -0.186
    1UNL     O1   12  -0.179  -0.078  -0.282
    1UNL    C11   13  -0.058  -0.141   0.074
    1UNL    C12   14   0.083  -0.174   0.038
    1UNL    C13   15   0.172  -0.049   0.010
    1UNL    C14   16   0.132   0.074   0.040
    1UNL     N2   17   0.230   0.172   0.019
    1UNL    C15   18   0.338   0.101  -0.034
    1UNL    C16   19   0.471   0.147  -0.055
    1UNL    C17   20   0.566   0.062  -0.093
    1UNL    C18   21   0.528  -0.071  -0.118
    1UNL    C19   22   0.405  -0.121  -0.086
    1UNL    C20   23   0.308  -0.035  -0.037
    1UNL     H1   24  -0.451   0.213  -0.056
    1UNL     H2   25  -0.514   0.051  -0.088
    1UNL     H3   26  -0.605   0.163   0.014
    1UNL     H4   27  -0.468   0.043   0.184
    1UNL     H5   28  -0.239  -0.084   0.265
    1UNL     H6   29  -0.203   0.090   0.284
    1UNL     H7   30  -0.004  -0.138   0.341
    1UNL     H8   31   0.121  -0.056   0.265
    1UNL     H9   32   0.011   0.032   0.364
    1UNL    H10   33  -0.009   0.192   0.157
    1UNL    H11   34  -0.148   0.233  -0.039
    1UNL    H12   35  -0.058   0.138  -0.134
    1UNL    H13   36  -0.281   0.055  -0.121
    1UNL    H14   37  -0.234  -0.190  -0.059
    1UNL    H15   38  -0.076  -0.233  -0.217
    1UNL    H16   39  -0.000  -0.069  -0.191
    1UNL    H17   40  -0.267  -0.120  -0.279
    1UNL    H18   41  -0.100  -0.225   0.130
    1UNL    H19   42   0.127  -0.238   0.115
    1UNL    H20   43   0.091  -0.232  -0.058
    1UNL    H21   44   0.234   0.259   0.076
    1UNL    H22   45   0.499   0.241  -0.023
    1UNL    H23   46   0.669   0.102  -0.108
    1UNL    H24   47   0.598  -0.140  -0.173
    1UNL    H25   48   0.383  -0.227  -0.092
   0.00000   0.00000   0.00000   0.00000   0.00000   0.00000   0.00000   0.00000   0.00000
Generated with MDTraj, t= 70.0
 48
    1UNL     C1    1  -0.491   0.146   0.005
    1UNL     C2    2  -0.411   0.085   0.107
    1UNL     C3    3  -0.290   0.031   0.090
    1UNL     C4    4  -0.207  -0.003   0.205
    1UNL     N1    5  -0.058  -0.018   0.166
    1UNL     C5    6   0.023  -0.040   0.292
    1UNL     C6    7  -0.012   0.109   0.093
    1UNL     C7    8  -0.100   0.129  -0.033
    1UNL     C8    9  -0.218   0.033  -0.041
    1UNL     C9   10  -0.159  -0.120  -0.055
    1UNL    C10   11  -0.092  -0.130  -0.186
    1UNL     O1   12  -0.162  -0.105  -0.313
    1UNL    C11   13  -0.054  -0.137   0.063
    1UNL    C12   14   0.091  -0.168   0.029
    1UNL    C13   15   0.168  -0.043   0.020
    1UNL    C14   16   0.123   0.083   0.049
    1UNL     N2   17   0.229   0.172   0.034
    1UNL    C15   18   0.341   0.107  -0.017
    1UNL    C16   19   0.464   0.150  -0.055
    1UNL    C17   20   0.551   0.055  -0.103
    1UNL    C18   21   0.519  -0.078  -0.117
    1UNL    C19   22   0.389  -0.125  -0.085
    1UNL    C20   23   0.303  -0.029  -0.032
    1UNL     H1   24  -0.515   0.245   0.037
    1UNL     H2   25  -0.449   0.146  -0.096
    1UNL     H3   26  -0.588   0.088  -0.007
    1UNL     H4   27  -0.452   0.056   0.209
    1UNL     H5   28  -0.242  -0.092   0.254
    1UNL     H6   29  -0.216   0.085   0.275
    1UNL     H7   30  -0.009  -0.125   0.350
    1UNL     H8   31   0.126  -0.048   0.280
    1UNL     H9   32   0.004   0.044   0.353
    1UNL    H10   33  -0.015   0.194   0.170
    1UNL    H11   34  -0.136   0.228  -0.034
    1UNL    H12   35  -0.050   0.126  -0.133
    1UNL    H13   36  -0.284   0.063  -0.122
    1UNL    H14   37  -0.239  -0.191  -0.040
    1UNL    H15   38  -0.054  -0.232  -0.191
    1UNL    H16   39  -0.010  -0.061  -0.190
    1UNL    H17   40  -0.257  -0.131  -0.298
    1UNL    H18   41  -0.090  -0.223   0.119
    1UNL    H19   42   0.140  -0.216   0.114
    1UNL    H20   43   0.106  -0.242  -0.052
    1UNL    H21   44   0.215   0.274   0.039
    1UNL    H22   45   0.491   0.255  -0.037
    1UNL    H23   46   0.646   0.082  -0.141
    1UNL    H24   47   0.592  -0.153  -0.142
    1UNL    H25   48   0.358  -0.225  -0.105
   0.00000   0.00000   0.00000   0.00000   0.00000   0.00000   0.00000   0.00000   0.00000
Generated with MDTraj, t= 71.0
 48
    1UNL     C1    1  -0.507   0.139  -0.014
    1UNL     C2    2  -0.422   0.100   0.109
    1UNL     C3    3  -0.296   0.043   0.095
    1UNL     C4    4  -0.215  -0.007   0.215
    1UNL     N1    5  -0.071  -0.025   0.173
    1UNL     C5    6  -0.004  -0.059   0.303
    1UNL     C6    7  -0.007   0.102   0.099
    1UNL     C7    8  -0.102   0.144  -0.016
    1UNL     C8    9  -0.206   0.042  -0.031
    1UNL     C9   10  -0.147  -0.107  -0.060
    1UNL    C10   11  -0.089  -0.117  -0.197
    1UNL     O1   12  -0.189  -0.115  -0.303
    1UNL    C11   13  -0.059  -0.141   0.065
    1UNL    C12   14   0.092  -0.172   0.033
    1UNL    C13   15   0.179  -0.052   0.018
    1UNL    C14   16   0.130   0.076   0.041
    1UNL     N2   17   0.231   0.172   0.025
    1UNL    C15   18   0.344   0.105  -0.026
    1UNL    C16   19   0.466   0.151  -0.076
    1UNL    C17   20   0.561   0.063  -0.119
    1UNL    C18   21   0.538  -0.072  -0.109
    1UNL    C19   22   0.416  -0.123  -0.073
    1UNL    C20   23   0.321  -0.033  -0.027
    1UNL     H1   24  -0.608   0.158   0.017
    1UNL     H2   25  -0.464   0.228  -0.070
    1UNL     H3   26  -0.504   0.061  -0.090
    1UNL     H4   27  -0.465   0.078   0.200
    1UNL     H5   28  -0.255  -0.102   0.254
    1UNL     H6   29  -0.222   0.068   0.296
    1UNL     H7   30  -0.040  -0.146   0.351
    1UNL     H8   31   0.102  -0.067   0.296
    1UNL     H9   32  -0.022   0.019   0.371
    1UNL    H10   33   0.009   0.176   0.184
    1UNL    H11   34  -0.149   0.234   0.005
    1UNL    H12   35  -0.045   0.153  -0.113
    1UNL    H13   36  -0.265   0.069  -0.119
    1UNL    H14   37  -0.232  -0.174  -0.062
    1UNL    H15   38  -0.040  -0.206  -0.214
    1UNL    H16   39  -0.022  -0.030  -0.204
    1UNL    H17   40  -0.255  -0.190  -0.290
    1UNL    H18   41  -0.111  -0.221   0.120
    1UNL    H19   42   0.120  -0.251   0.103
    1UNL    H20   43   0.089  -0.219  -0.064
    1UNL    H21   44   0.226   0.270  -0.003
    1UNL    H22   45   0.478   0.257  -0.105
    1UNL    H23   46   0.656   0.104  -0.153
    1UNL    H24   47   0.612  -0.140  -0.140
    1UNL    H25   48   0.386  -0.228  -0.079
   0.00000   0.00000   0.00000   0.00000   0.00000   0.00000   0.00000   0.00000   0.00000
Generated with MDTraj, t= 72.0
 48
    1UNL     C1    1  -0.493   0.106  -0.033
    1UNL     C2    2  -0.423   0.072   0.093
    1UNL     C3    3  -0.289   0.041   0.088
    1UNL     C4    4  -0.207   0.003   0.210
    1UNL     N1    5  -0.060  -0.021   0.174
    1UNL     C5    6   0.028  -0.055   0.297
    1UNL     C6    7  -0.004   0.105   0.106
    1UNL     C7    8  -0.095   0.150  -0.022
    1UNL     C8    9  -0.205   0.050  -0.039
    1UNL     C9   10  -0.148  -0.103  -0.051
    1UNL    C10   11  -0.101  -0.133  -0.192
    1UNL     O1   12  -0.188  -0.078  -0.286
    1UNL    C11   13  -0.051  -0.138   0.069
    1UNL    C12   14   0.095  -0.166   0.025
    1UNL    C13   15   0.170  -0.041   0.014
    1UNL    C14   16   0.127   0.079   0.059
    1UNL     N2   17   0.224   0.174   0.022
    1UNL    C15   18   0.337   0.111  -0.021
    1UNL    C16   19   0.461   0.150  -0.074
    1UNL    C17   20   0.553   0.053  -0.110
    1UNL    C18   21   0.519  -0.087  -0.115
    1UNL    C19   22   0.401  -0.132  -0.072
    1UNL    C20   23   0.305  -0.031  -0.020
    1UNL     H1   24  -0.601   0.108  -0.018
    1UNL     H2   25  -0.460   0.207  -0.078
    1UNL     H3   26  -0.471   0.040  -0.112
    1UNL     H4   27  -0.482   0.039   0.183
    1UNL     H5   28  -0.257  -0.082   0.265
    1UNL     H6   29  -0.217   0.090   0.276
    1UNL     H7   30  -0.003  -0.146   0.338
    1UNL     H8   31   0.133  -0.060   0.280
    1UNL     H9   32   0.015   0.015   0.377
    1UNL    H10   33   0.005   0.182   0.189
    1UNL    H11   34  -0.135   0.244  -0.002
    1UNL    H12   35  -0.032   0.151  -0.113
    1UNL    H13   36  -0.258   0.074  -0.131
    1UNL    H14   37  -0.232  -0.173  -0.042
    1UNL    H15   38  -0.102  -0.232  -0.214
    1UNL    H16   39  -0.005  -0.083  -0.215
    1UNL    H17   40  -0.282  -0.103  -0.278
    1UNL    H18   41  -0.094  -0.226   0.120
    1UNL    H19   42   0.141  -0.225   0.106
    1UNL    H20   43   0.092  -0.232  -0.061
    1UNL    H21   44   0.232   0.269   0.053
    1UNL    H22   45   0.472   0.247  -0.106
    1UNL    H23   46   0.647   0.079  -0.156
    1UNL    H24   47   0.592  -0.163  -0.155
    1UNL    H25   48   0.369  -0.230  -0.088
   0.00000   0.00000   0.00000   0.00000   0.00000   0.00000   0.00000   0.00000   0.00000
Generated with MDTraj, t= 73.0
 48
    1UNL     C1    1  -0.540   0.072   0.003
    1UNL     C2    2  -0.428   0.051   0.096
    1UNL     C3    3  -0.291   0.044   0.084
    1UNL     C4    4  -0.203   0.031   0.206
    1UNL     N1    5  -0.067  -0.005   0.162
    1UNL     C5    6   0.011  -0.037   0.294
    1UNL     C6    7  -0.001   0.112   0.095
    1UNL     C7    8  -0.102   0.160  -0.026
    1UNL     C8    9  -0.207   0.046  -0.037
    1UNL     C9   10  -0.148  -0.099  -0.057
    1UNL    C10   11  -0.075  -0.107  -0.192
    1UNL     O1   12  -0.160  -0.078  -0.298
    1UNL    C11   13  -0.061  -0.132   0.075
    1UNL    C12   14   0.089  -0.172   0.036
    1UNL    C13   15   0.176  -0.052   0.017
    1UNL    C14   16   0.135   0.077   0.052
    1UNL     N2   17   0.237   0.163   0.036
    1UNL    C15   18   0.344   0.093  -0.016
    1UNL    C16   19   0.473   0.137  -0.047
    1UNL    C17   20   0.555   0.052  -0.113
    1UNL    C18   21   0.516  -0.084  -0.135
    1UNL    C19   22   0.393  -0.131  -0.099
    1UNL    C20   23   0.305  -0.038  -0.034
    1UNL     H1   24  -0.626   0.115   0.061
    1UNL     H2   25  -0.521   0.141  -0.084
    1UNL     H3   26  -0.574  -0.014  -0.043
    1UNL     H4   27  -0.469   0.016   0.188
    1UNL     H5   28  -0.243  -0.042   0.285
    1UNL     H6   29  -0.203   0.128   0.254
    1UNL     H7   30  -0.035  -0.107   0.357
    1UNL     H8   31   0.113  -0.067   0.278
    1UNL     H9   32   0.016   0.053   0.351
    1UNL    H10   33   0.009   0.202   0.163
    1UNL    H11   34  -0.144   0.251   0.005
    1UNL    H12   35  -0.051   0.174  -0.123
    1UNL    H13   36  -0.273   0.079  -0.117
    1UNL    H14   37  -0.231  -0.171  -0.056
    1UNL    H15   38  -0.035  -0.200  -0.204
    1UNL    H16   39   0.004  -0.033  -0.193
    1UNL    H17   40  -0.219  -0.156  -0.298
    1UNL    H18   41  -0.110  -0.213   0.131
    1UNL    H19   42   0.125  -0.231   0.123
    1UNL    H20   43   0.094  -0.237  -0.049
    1UNL    H21   44   0.244   0.259   0.060
    1UNL    H22   45   0.520   0.235  -0.011
    1UNL    H23   46   0.654   0.079  -0.149
    1UNL    H24   47   0.596  -0.146  -0.161
    1UNL    H25   48   0.364  -0.240  -0.088
   0.00000   0.00000   0.00000   0.00000   0.00000   0.00000   0.00000   0.00000   0.00000
Generated with MDTraj, t= 74.0
 48
    1UNL     C1    1  -0.503   0.052  -0.023
    1UNL     C2    2  -0.434   0.055   0.104
    1UNL     C3    3  -0.300   0.037   0.094
    1UNL     C4    4  -0.207   0.016   0.215
    1UNL     N1    5  -0.063  -0.007   0.167
    1UNL     C5    6   0.031  -0.040   0.291
    1UNL     C6    7  -0.006   0.117   0.105
    1UNL     C7    8  -0.112   0.152  -0.010
    1UNL     C8    9  -0.216   0.038  -0.032
    1UNL     C9   10  -0.151  -0.098  -0.053
    1UNL    C10   11  -0.078  -0.101  -0.187
    1UNL     O1   12  -0.154  -0.054  -0.296
    1UNL    C11   13  -0.060  -0.125   0.075
    1UNL    C12   14   0.084  -0.161   0.032
    1UNL    C13   15   0.168  -0.037   0.009
    1UNL    C14   16   0.130   0.092   0.042
    1UNL     N2   17   0.239   0.176   0.024
    1UNL    C15   18   0.340   0.104  -0.040
    1UNL    C16   19   0.474   0.131  -0.061
    1UNL    C17   20   0.560   0.027  -0.110
    1UNL    C18   21   0.510  -0.102  -0.116
    1UNL    C19   22   0.384  -0.137  -0.077
    1UNL    C20   23   0.298  -0.031  -0.038
    1UNL     H1   24  -0.612   0.030  -0.007
    1UNL     H2   25  -0.494   0.143  -0.081
    1UNL     H3   26  -0.462  -0.022  -0.090
    1UNL     H4   27  -0.492   0.043   0.196
    1UNL     H5   28  -0.243  -0.071   0.279
    1UNL     H6   29  -0.211   0.103   0.280
    1UNL     H7   30   0.008  -0.132   0.336
    1UNL     H8   31   0.137  -0.034   0.273
    1UNL     H9   32   0.008   0.038   0.362
    1UNL    H10   33  -0.004   0.196   0.186
    1UNL    H11   34  -0.164   0.240   0.021
    1UNL    H12   35  -0.060   0.175  -0.101
    1UNL    H13   36  -0.270   0.069  -0.121
    1UNL    H14   37  -0.224  -0.180  -0.059
    1UNL    H15   38  -0.030  -0.191  -0.206
    1UNL    H16   39  -0.002  -0.033  -0.177
    1UNL    H17   40  -0.214  -0.121  -0.342
    1UNL    H18   41  -0.102  -0.212   0.128
    1UNL    H19   42   0.143  -0.215   0.108
    1UNL    H20   43   0.086  -0.215  -0.062
    1UNL    H21   44   0.224   0.273   0.027
    1UNL    H22   45   0.513   0.223  -0.036
    1UNL    H23   46   0.664   0.053  -0.125
    1UNL    H24   47   0.575  -0.187  -0.148
    1UNL    H25   48   0.367  -0.236  -0.049
   0.00000   0.00000   0.00000   0.00000   0.00000   0.00000   0.00000   0.00000   0.00000
Generated with MDTraj, t= 75.0
 48
    1UNL     C1    1  -0.517   0.054  -0.016
    1UNL     C2    2  -0.427   0.043   0.101
    1UNL     C3    3  -0.293   0.041   0.101
    1UNL     C4    4  -0.212   0.013   0.220
    1UNL     N1    5  -0.073  -0.014   0.175
    1UNL     C5    6   0.010  -0.031   0.304
    1UNL     C6    7  -0.008   0.107   0.105
    1UNL     C7    8  -0.100   0.159  -0.009
    1UNL     C8    9  -0.213   0.057  -0.028
    1UNL     C9   10  -0.151  -0.080  -0.061
    1UNL    C10   11  -0.084  -0.092  -0.197
    1UNL     O1   12  -0.166  -0.040  -0.304
    1UNL    C11   13  -0.064  -0.128   0.065
    1UNL    C12   14   0.080  -0.169   0.036
    1UNL    C13   15   0.169  -0.053   0.025
    1UNL    C14   16   0.132   0.076   0.044
    1UNL     N2   17   0.224   0.159  -0.002
    1UNL    C15   18   0.340   0.085  -0.048
    1UNL    C16   19   0.464   0.138  -0.086
    1UNL    C17   20   0.565   0.047  -0.115
    1UNL    C18   21   0.546  -0.092  -0.103
    1UNL    C19   22   0.420  -0.135  -0.055
    1UNL    C20   23   0.309  -0.052  -0.026
    1UNL     H1   24  -0.624   0.037   0.013
    1UNL     H2   25  -0.507   0.146  -0.065
    1UNL     H3   26  -0.483  -0.016  -0.097
    1UNL     H4   27  -0.483   0.018   0.192
    1UNL     H5   28  -0.250  -0.070   0.287
    1UNL     H6   29  -0.214   0.103   0.284
    1UNL     H7   30  -0.019  -0.125   0.347
    1UNL     H8   31   0.111  -0.036   0.272
    1UNL     H9   32   0.001   0.049   0.375
    1UNL    H10   33   0.012   0.184   0.186
    1UNL    H11   34  -0.146   0.254   0.018
    1UNL    H12   35  -0.040   0.177  -0.093
    1UNL    H13   36  -0.275   0.088  -0.112
    1UNL    H14   37  -0.234  -0.155  -0.068
    1UNL    H15   38  -0.057  -0.193  -0.219
    1UNL    H16   39   0.007  -0.049  -0.195
    1UNL    H17   40  -0.235  -0.096  -0.347
    1UNL    H18   41  -0.117  -0.209   0.119
    1UNL    H19   42   0.123  -0.223   0.121
    1UNL    H20   43   0.099  -0.229  -0.052
    1UNL    H21   44   0.231   0.252   0.024
    1UNL    H22   45   0.479   0.241  -0.126
    1UNL    H23   46   0.644   0.089  -0.174
    1UNL    H24   47   0.626  -0.154  -0.131
    1UNL    H25   48   0.396  -0.242  -0.055
   0.00000   0.00000   0.00000   0.00000   0.00000   0.00000   0.00000   0.00000   0.00000
Generated with MDTraj, t= 76.0
 48
    1UNL     C1    1  -0.511   0.079  -0.000
    1UNL     C2    2  -0.420   0.047   0.110
    1UNL     C3    3  -0.289   0.035   0.092
    1UNL     C4    4  -0.212   0.009   0.215
    1UNL     N1    5  -0.061  -0.011   0.173
    1UNL     C5    6   0.019  -0.050   0.294
    1UNL     C6    7  -0.007   0.116   0.095
    1UNL     C7    8  -0.107   0.148  -0.020
    1UNL     C8    9  -0.209   0.040  -0.035
    1UNL     C9   10  -0.143  -0.098  -0.065
    1UNL    C10   11  -0.068  -0.099  -0.197
    1UNL     O1   12  -0.144  -0.050  -0.306
    1UNL    C11   13  -0.057  -0.127   0.073
    1UNL    C12   14   0.084  -0.165   0.038
    1UNL    C13   15   0.174  -0.046   0.021
    1UNL    C14   16   0.128   0.082   0.045
    1UNL     N2   17   0.224   0.179   0.010
    1UNL    C15   18   0.333   0.107  -0.033
    1UNL    C16   19   0.466   0.137  -0.078
    1UNL    C17   20   0.551   0.033  -0.112
    1UNL    C18   21   0.509  -0.099  -0.101
    1UNL    C19   22   0.386  -0.134  -0.066
    1UNL    C20   23   0.301  -0.031  -0.027
    1UNL     H1   24  -0.609   0.115   0.031
    1UNL     H2   25  -0.470   0.147  -0.068
    1UNL     H3   26  -0.524  -0.009  -0.074
    1UNL     H4   27  -0.462   0.017   0.202
    1UNL     H5   28  -0.251  -0.082   0.266
    1UNL     H6   29  -0.218   0.088   0.295
    1UNL     H7   30  -0.022  -0.144   0.331
    1UNL     H8   31   0.122  -0.058   0.271
    1UNL     H9   32   0.006   0.031   0.362
    1UNL    H10   33  -0.007   0.191   0.180
    1UNL    H11   34  -0.156   0.243  -0.002
    1UNL    H12   35  -0.054   0.165  -0.108
    1UNL    H13   36  -0.281   0.063  -0.113
    1UNL    H14   37  -0.230  -0.167  -0.066
    1UNL    H15   38  -0.034  -0.198  -0.212
    1UNL    H16   39   0.020  -0.047  -0.192
    1UNL    H17   40  -0.209  -0.119  -0.330
    1UNL    H18   41  -0.114  -0.206   0.125
    1UNL    H19   42   0.144  -0.226   0.106
    1UNL    H20   43   0.094  -0.226  -0.051
    1UNL    H21   44   0.205   0.275  -0.003
    1UNL    H22   45   0.473   0.242  -0.108
    1UNL    H23   46   0.645   0.055  -0.162
    1UNL    H24   47   0.584  -0.181  -0.120
    1UNL    H25   48   0.351  -0.236  -0.071
   0.00000   0.00000   0.00000   0.00000   0.00000   0.00000   0.00000   0.00000   0.00000
Generated with MDTraj, t= 77.0
 48
    1UNL     C1    1  -0.516   0.106  -0.021
    1UNL     C2    2  -0.428   0.070   0.094
    1UNL     C3    3  -0.301   0.031   0.094
    1UNL     C4    4  -0.209   0.009   0.206
    1UNL     N1    5  -0.058  -0.016   0.170
    1UNL     C5    6   0.014  -0.043   0.301
    1UNL     C6    7  -0.011   0.109   0.090
    1UNL     C7    8  -0.111   0.143  -0.027
    1UNL     C8    9  -0.220   0.036  -0.033
    1UNL     C9   10  -0.147  -0.108  -0.044
    1UNL    C10   11  -0.072  -0.107  -0.175
    1UNL     O1   12  -0.147  -0.063  -0.281
    1UNL    C11   13  -0.052  -0.139   0.084
    1UNL    C12   14   0.090  -0.170   0.041
    1UNL    C13   15   0.165  -0.051   0.002
    1UNL    C14   16   0.127   0.077   0.038
    1UNL     N2   17   0.233   0.169   0.033
    1UNL    C15   18   0.340   0.089  -0.016
    1UNL    C16   19   0.467   0.142  -0.061
    1UNL    C17   20   0.557   0.059  -0.115
    1UNL    C18   21   0.518  -0.079  -0.136
    1UNL    C19   22   0.395  -0.124  -0.104
    1UNL    C20   23   0.305  -0.045  -0.032
    1UNL     H1   24  -0.621   0.105   0.001
    1UNL     H2   25  -0.490   0.201  -0.064
    1UNL     H3   26  -0.493   0.041  -0.113
    1UNL     H4   27  -0.476   0.072   0.197
    1UNL     H5   28  -0.239  -0.074   0.271
    1UNL     H6   29  -0.211   0.100   0.275
    1UNL     H7   30  -0.027  -0.133   0.346
    1UNL     H8   31   0.117  -0.058   0.279
    1UNL     H9   32   0.008   0.043   0.366
    1UNL    H10   33  -0.007   0.195   0.162
    1UNL    H11   34  -0.153   0.241  -0.011
    1UNL    H12   35  -0.060   0.156  -0.116
    1UNL    H13   36  -0.285   0.041  -0.122
    1UNL    H14   37  -0.229  -0.182  -0.057
    1UNL    H15   38  -0.027  -0.197  -0.197
    1UNL    H16   39   0.009  -0.040  -0.165
    1UNL    H17   40  -0.221  -0.127  -0.301
    1UNL    H18   41  -0.103  -0.219   0.142
    1UNL    H19   42   0.139  -0.211   0.130
    1UNL    H20   43   0.103  -0.257  -0.026
    1UNL    H21   44   0.244   0.267   0.023
    1UNL    H22   45   0.492   0.241  -0.045
    1UNL    H23   46   0.662   0.081  -0.122
    1UNL    H24   47   0.594  -0.144  -0.166
    1UNL    H25   48   0.381  -0.230  -0.109
   0.00000   0.00000   0.00000   0.00000   0.00000   0.00000   0.00000   0.00000   0.00000
Generated with MDTraj, t= 78.0
 48
    1UNL     C1    1  -0.503   0.107  -0.023
    1UNL     C2    2  -0.414   0.077   0.089
    1UNL     C3    3  -0.283   0.057   0.089
    1UNL     C4    4  -0.216  -0.005   0.206
    1UNL     N1    5  -0.066  -0.018   0.172
    1UNL     C5    6   0.009  -0.062   0.301
    1UNL     C6    7  -0.002   0.106   0.108
    1UNL     C7    8  -0.080   0.150  -0.022
    1UNL     C8    9  -0.204   0.051  -0.042
    1UNL     C9   10  -0.151  -0.099  -0.054
    1UNL    C10   11  -0.099  -0.137  -0.189
    1UNL     O1   12  -0.179  -0.102  -0.301
    1UNL    C11   13  -0.054  -0.135   0.067
    1UNL    C12   14   0.092  -0.163   0.031
    1UNL    C13   15   0.174  -0.046   0.023
    1UNL    C14   16   0.136   0.076   0.068
    1UNL     N2   17   0.238   0.173   0.045
    1UNL    C15   18   0.341   0.108  -0.016
    1UNL    C16   19   0.454   0.155  -0.078
    1UNL    C17   20   0.542   0.059  -0.127
    1UNL    C18   21   0.518  -0.076  -0.129
    1UNL    C19   22   0.394  -0.124  -0.084
    1UNL    C20   23   0.307  -0.034  -0.022
    1UNL     H1   24  -0.592   0.145   0.020
    1UNL     H2   25  -0.456   0.186  -0.089
    1UNL     H3   26  -0.515   0.018  -0.088
    1UNL     H4   27  -0.461   0.041   0.173
    1UNL     H5   28  -0.255  -0.103   0.230
    1UNL     H6   29  -0.224   0.052   0.305
    1UNL     H7   30  -0.030  -0.153   0.343
    1UNL     H8   31   0.113  -0.081   0.273
    1UNL     H9   32   0.013   0.016   0.375
    1UNL    H10   33  -0.016   0.187   0.186
    1UNL    H11   34  -0.125   0.246  -0.005
    1UNL    H12   35  -0.012   0.165  -0.100
    1UNL    H13   36  -0.277   0.083  -0.118
    1UNL    H14   37  -0.239  -0.166  -0.044
    1UNL    H15   38  -0.083  -0.235  -0.187
    1UNL    H16   39  -0.004  -0.091  -0.207
    1UNL    H17   40  -0.278  -0.093  -0.288
    1UNL    H18   41  -0.096  -0.223   0.122
    1UNL    H19   42   0.137  -0.234   0.099
    1UNL    H20   43   0.091  -0.220  -0.064
    1UNL    H21   44   0.247   0.259   0.095
    1UNL    H22   45   0.480   0.267  -0.069
    1UNL    H23   46   0.628   0.094  -0.183
    1UNL    H24   47   0.597  -0.151  -0.142
    1UNL    H25   48   0.381  -0.233  -0.076
   0.00000   0.00000   0.00000   0.00000   0.00000   0.00000   0.00000   0.00000   0.00000
Generated with MDTraj, t= 79.0
 48
    1UNL     C1    1  -0.482   0.122  -0.031
    1UNL     C2    2  -0.418   0.084   0.091
    1UNL     C3    3  -0.293   0.038   0.093
    1UNL     C4    4  -0.214  -0.006   0.211
    1UNL     N1    5  -0.063  -0.019   0.171
    1UNL     C5    6   0.006  -0.061   0.302
    1UNL     C6    7  -0.010   0.108   0.105
    1UNL     C7    8  -0.093   0.143  -0.016
    1UNL     C8    9  -0.204   0.041  -0.035
    1UNL     C9   10  -0.146  -0.093  -0.061
    1UNL    C10   11  -0.100  -0.112  -0.204
    1UNL     O1   12  -0.214  -0.118  -0.292
    1UNL    C11   13  -0.055  -0.136   0.064
    1UNL    C12   14   0.096  -0.172   0.033
    1UNL    C13   15   0.182  -0.055   0.029
    1UNL    C14   16   0.137   0.074   0.061
    1UNL     N2   17   0.229   0.172   0.036
    1UNL    C15   18   0.343   0.106  -0.020
    1UNL    C16   19   0.471   0.151  -0.061
    1UNL    C17   20   0.555   0.065  -0.126
    1UNL    C18   21   0.523  -0.067  -0.133
    1UNL    C19   22   0.405  -0.120  -0.076
    1UNL    C20   23   0.317  -0.032  -0.016
    1UNL     H1   24  -0.583   0.154  -0.015
    1UNL     H2   25  -0.425   0.210  -0.079
    1UNL     H3   26  -0.477   0.043  -0.103
    1UNL     H4   27  -0.481   0.079   0.187
    1UNL     H5   28  -0.250  -0.096   0.262
    1UNL     H6   29  -0.226   0.076   0.290
    1UNL     H7   30  -0.037  -0.149   0.347
    1UNL     H8   31   0.114  -0.075   0.295
    1UNL     H9   32  -0.009   0.021   0.370
    1UNL    H10   33  -0.016   0.189   0.184
    1UNL    H11   34  -0.129   0.241   0.000
    1UNL    H12   35  -0.035   0.150  -0.106
    1UNL    H13   36  -0.265   0.079  -0.118
    1UNL    H14   37  -0.223  -0.172  -0.049
    1UNL    H15   38  -0.040  -0.190  -0.217
    1UNL    H16   39  -0.039  -0.026  -0.226
    1UNL    H17   40  -0.264  -0.197  -0.267
    1UNL    H18   41  -0.100  -0.221   0.121
    1UNL    H19   42   0.120  -0.239   0.113
    1UNL    H20   43   0.091  -0.237  -0.058
    1UNL    H21   44   0.208   0.272   0.030
    1UNL    H22   45   0.485   0.251  -0.074
    1UNL    H23   46   0.630   0.109  -0.192
    1UNL    H24   47   0.576  -0.134  -0.198
    1UNL    H25   48   0.376  -0.223  -0.084
   0.00000   0.00000   0.00000   0.00000   0.00000   0.00000   0.00000   0.00000   0.00000
Generated with MDTraj, t= 80.0
 48
    1UNL     C1    1  -0.505   0.133  -0.001
    1UNL     C2    2  -0.419   0.088   0.110
    1UNL     C3    3  -0.296   0.041   0.092
    1UNL     C4    4  -0.210   0.015   0.211
    1UNL     N1    5  -0.069  -0.025   0.172
    1UNL     C5    6   0.009  -0.061   0.289
    1UNL     C6    7  -0.012   0.099   0.097
    1UNL     C7    8  -0.100   0.131  -0.031
    1UNL     C8    9  -0.213   0.028  -0.037
    1UNL     C9   10  -0.162  -0.117  -0.053
    1UNL    C10   11  -0.095  -0.148  -0.185
    1UNL     O1   12  -0.164  -0.097  -0.298
    1UNL    C11   13  -0.061  -0.142   0.068
    1UNL    C12   14   0.090  -0.161   0.028
    1UNL    C13   15   0.170  -0.038   0.012
    1UNL    C14   16   0.128   0.086   0.048
    1UNL     N2   17   0.240   0.179   0.035
    1UNL    C15   18   0.340   0.108  -0.032
    1UNL    C16   19   0.476   0.152  -0.043
    1UNL    C17   20   0.568   0.063  -0.097
    1UNL    C18   21   0.528  -0.074  -0.125
    1UNL    C19   22   0.404  -0.120  -0.096
    1UNL    C20   23   0.298  -0.033  -0.046
    1UNL     H1   24  -0.612   0.136   0.022
    1UNL     H2   25  -0.473   0.238  -0.033
    1UNL     H3   26  -0.487   0.076  -0.087
    1UNL     H4   27  -0.453   0.088   0.208
    1UNL     H5   28  -0.257  -0.056   0.280
    1UNL     H6   29  -0.204   0.115   0.266
    1UNL     H7   30  -0.021  -0.152   0.338
    1UNL     H8   31   0.113  -0.065   0.260
    1UNL     H9   32   0.004   0.020   0.361
    1UNL    H10   33  -0.009   0.182   0.173
    1UNL    H11   34  -0.138   0.228  -0.036
    1UNL    H12   35  -0.031   0.124  -0.115
    1UNL    H13   36  -0.282   0.058  -0.118
    1UNL    H14   37  -0.237  -0.198  -0.043
    1UNL    H15   38  -0.083  -0.251  -0.205
    1UNL    H16   39   0.001  -0.106  -0.191
    1UNL    H17   40  -0.259  -0.117  -0.294
    1UNL    H18   41  -0.089  -0.238   0.116
    1UNL    H19   42   0.130  -0.217   0.112
    1UNL    H20   43   0.094  -0.231  -0.061
    1UNL    H21   44   0.221   0.281   0.029
    1UNL    H22   45   0.498   0.260  -0.038
    1UNL    H23   46   0.667   0.092  -0.126
    1UNL    H24   47   0.601  -0.145  -0.157
    1UNL    H25   48   0.389  -0.227  -0.105
   0.00000   0.00000   0.00000   0.00000   0.00000   0.00000   0.00000   0.00000   0.00000
Generated with MDTraj, t= 81.0
 48
    1UNL     C1    1  -0.504   0.119  -0.002
    1UNL     C2    2  -0.419   0.065   0.108
    1UNL     C3    3  -0.292   0.023   0.096
    1UNL     C4    4  -0.204  -0.004   0.213
    1UNL     N1    5  -0.060  -0.014   0.162
    1UNL     C5    6   0.042  -0.013   0.273
    1UNL     C6    7  -0.012   0.109   0.090
    1UNL     C7    8  -0.115   0.141  -0.022
    1UNL     C8    9  -0.216   0.028  -0.036
    1UNL     C9   10  -0.157  -0.113  -0.063
    1UNL    C10   11  -0.088  -0.109  -0.194
    1UNL     O1   12  -0.179  -0.073  -0.295
    1UNL    C11   13  -0.059  -0.139   0.065
    1UNL    C12   14   0.092  -0.172   0.029
    1UNL    C13   15   0.171  -0.051   0.004
    1UNL    C14   16   0.125   0.074   0.035
    1UNL     N2   17   0.224   0.164   0.024
    1UNL    C15   18   0.337   0.099  -0.019
    1UNL    C16   19   0.469   0.146  -0.054
    1UNL    C17   20   0.559   0.054  -0.100
    1UNL    C18   21   0.530  -0.088  -0.107
    1UNL    C19   22   0.404  -0.123  -0.069
    1UNL    C20   23   0.303  -0.032  -0.029
    1UNL     H1   24  -0.574   0.197   0.042
    1UNL     H2   25  -0.441   0.166  -0.077
    1UNL     H3   26  -0.556   0.040  -0.052
    1UNL     H4   27  -0.469   0.056   0.206
    1UNL     H5   28  -0.240  -0.099   0.265
    1UNL     H6   29  -0.215   0.081   0.283
    1UNL     H7   30   0.008  -0.092   0.341
    1UNL     H8   31   0.146  -0.021   0.247
    1UNL     H9   32   0.029   0.077   0.334
    1UNL    H10   33  -0.005   0.193   0.166
    1UNL    H11   34  -0.160   0.232  -0.007
    1UNL    H12   35  -0.071   0.149  -0.122
    1UNL    H13   36  -0.290   0.048  -0.115
    1UNL    H14   37  -0.239  -0.187  -0.071
    1UNL    H15   38  -0.047  -0.205  -0.220
    1UNL    H16   39  -0.016  -0.036  -0.201
    1UNL    H17   40  -0.264  -0.124  -0.286
    1UNL    H18   41  -0.105  -0.222   0.122
    1UNL    H19   42   0.133  -0.229   0.111
    1UNL    H20   43   0.091  -0.234  -0.066
    1UNL    H21   44   0.228   0.260   0.071
    1UNL    H22   45   0.497   0.255  -0.054
    1UNL    H23   46   0.660   0.076  -0.135
    1UNL    H24   47   0.619  -0.152  -0.095
    1UNL    H25   48   0.378  -0.227  -0.060
   0.00000   0.00000   0.00000   0.00000   0.00000   0.00000   0.00000   0.00000   0.00000
Generated with MDTraj, t= 82.0
 48
    1UNL     C1    1  -0.533   0.074   0.013
    1UNL     C2    2  -0.427   0.074   0.116
    1UNL     C3    3  -0.298   0.054   0.093
    1UNL     C4    4  -0.204   0.015   0.209
    1UNL     N1    5  -0.067  -0.024   0.164
    1UNL     C5    6   0.017  -0.070   0.293
    1UNL     C6    7  -0.006   0.101   0.092
    1UNL     C7    8  -0.099   0.157  -0.020
    1UNL     C8    9  -0.217   0.055  -0.034
    1UNL     C9   10  -0.148  -0.091  -0.058
    1UNL    C10   11  -0.085  -0.111  -0.196
    1UNL     O1   12  -0.175  -0.073  -0.302
    1UNL    C11   13  -0.062  -0.138   0.066
    1UNL    C12   14   0.089  -0.173   0.025
    1UNL    C13   15   0.178  -0.046   0.009
    1UNL    C14   16   0.133   0.084   0.036
    1UNL     N2   17   0.229   0.174  -0.011
    1UNL    C15   18   0.339   0.106  -0.056
    1UNL    C16   19   0.472   0.145  -0.082
    1UNL    C17   20   0.570   0.050  -0.087
    1UNL    C18   21   0.535  -0.088  -0.077
    1UNL    C19   22   0.406  -0.132  -0.056
    1UNL    C20   23   0.310  -0.032  -0.031
    1UNL     H1   24  -0.631   0.051   0.065
    1UNL     H2   25  -0.542   0.167  -0.036
    1UNL     H3   26  -0.516   0.003  -0.069
    1UNL     H4   27  -0.458   0.066   0.219
    1UNL     H5   28  -0.246  -0.078   0.262
    1UNL     H6   29  -0.194   0.100   0.278
    1UNL     H7   30  -0.015  -0.164   0.343
    1UNL     H8   31   0.120  -0.081   0.265
    1UNL     H9   32   0.010   0.005   0.372
    1UNL    H10   33   0.004   0.180   0.171
    1UNL    H11   34  -0.143   0.246   0.007
    1UNL    H12   35  -0.046   0.180  -0.112
    1UNL    H13   36  -0.284   0.082  -0.117
    1UNL    H14   37  -0.238  -0.154  -0.060
    1UNL    H15   38  -0.059  -0.216  -0.214
    1UNL    H16   39  -0.008  -0.046  -0.202
    1UNL    H17   40  -0.262  -0.116  -0.279
    1UNL    H18   41  -0.116  -0.217   0.122
    1UNL    H19   42   0.141  -0.219   0.107
    1UNL    H20   43   0.100  -0.235  -0.069
    1UNL    H21   44   0.226   0.280   0.007
    1UNL    H22   45   0.490   0.243  -0.099
    1UNL    H23   46   0.671   0.088  -0.090
    1UNL    H24   47   0.615  -0.158  -0.084
    1UNL    H25   48   0.396  -0.234  -0.017
   0.00000   0.00000   0.00000   0.00000   0.00000   0.00000   0.00000   0.00000   0.00000
Generated with MDTraj, t= 83.0
 48
    1UNL     C1    1  -0.526   0.060  -0.010
    1UNL     C2    2  -0.430   0.030   0.099
    1UNL     C3    3  -0.297   0.036   0.098
    1UNL     C4    4  -0.202   0.018   0.214
    1UNL     N1    5  -0.058  -0.007   0.160
    1UNL     C5    6   0.034  -0.027   0.285
    1UNL     C6    7  -0.005   0.118   0.085
    1UNL     C7    8  -0.108   0.157  -0.025
    1UNL     C8    9  -0.218   0.044  -0.034
    1UNL     C9   10  -0.147  -0.097  -0.050
    1UNL    C10   11  -0.095  -0.094  -0.191
    1UNL     O1   12  -0.183  -0.050  -0.292
    1UNL    C11   13  -0.052  -0.127   0.071
    1UNL    C12   14   0.089  -0.170   0.031
    1UNL    C13   15   0.172  -0.045   0.011
    1UNL    C14   16   0.131   0.082   0.034
    1UNL     N2   17   0.226   0.177   0.012
    1UNL    C15   18   0.346   0.100  -0.018
    1UNL    C16   19   0.475   0.134  -0.057
    1UNL    C17   20   0.562   0.034  -0.102
    1UNL    C18   21   0.527  -0.103  -0.108
    1UNL    C19   22   0.401  -0.141  -0.068
    1UNL    C20   23   0.317  -0.039  -0.016
    1UNL     H1   24  -0.626   0.015   0.015
    1UNL     H2   25  -0.548   0.161  -0.023
    1UNL     H3   26  -0.492   0.030  -0.114
    1UNL     H4   27  -0.480   0.010   0.190
    1UNL     H5   28  -0.240  -0.072   0.277
    1UNL     H6   29  -0.194   0.111   0.270
    1UNL     H7   30  -0.005  -0.106   0.351
    1UNL     H8   31   0.141  -0.040   0.262
    1UNL     H9   32   0.017   0.061   0.346
    1UNL    H10   33   0.015   0.197   0.164
    1UNL    H11   34  -0.159   0.246  -0.004
    1UNL    H12   35  -0.067   0.174  -0.123
    1UNL    H13   36  -0.275   0.067  -0.127
    1UNL    H14   37  -0.223  -0.177  -0.048
    1UNL    H15   38  -0.070  -0.197  -0.210
    1UNL    H16   39  -0.021  -0.025  -0.195
    1UNL    H17   40  -0.252  -0.117  -0.307
    1UNL    H18   41  -0.097  -0.209   0.127
    1UNL    H19   42   0.140  -0.223   0.111
    1UNL    H20   43   0.098  -0.226  -0.067
    1UNL    H21   44   0.212   0.276  -0.027
    1UNL    H22   45   0.504   0.244  -0.058
    1UNL    H23   46   0.641   0.077  -0.160
    1UNL    H24   47   0.603  -0.171  -0.148
    1UNL    H25   48   0.366  -0.240  -0.078
   0.00000   0.00000   0.00000   0.00000   0.00000   0.00000   0.00000   0.00000   0.00000
Generated with MDTraj, t= 84.0
 48
    1UNL     C1    1  -0.524   0.034  -0.011
    1UNL     C2    2  -0.427   0.043   0.109
    1UNL     C3    3  -0.295   0.052   0.094
    1UNL     C4    4  -0.200   0.037   0.214
    1UNL     N1    5  -0.061  -0.003   0.174
    1UNL     C5    6   0.020  -0.029   0.299
    1UNL     C6    7  -0.002   0.114   0.099
    1UNL     C7    8  -0.099   0.151  -0.016
    1UNL     C8    9  -0.210   0.051  -0.029
    1UNL     C9   10  -0.149  -0.092  -0.056
    1UNL    C10   11  -0.079  -0.111  -0.191
    1UNL     O1   12  -0.142  -0.067  -0.305
    1UNL    C11   13  -0.063  -0.125   0.070
    1UNL    C12   14   0.077  -0.164   0.029
    1UNL    C13   15   0.166  -0.043   0.006
    1UNL    C14   16   0.130   0.084   0.043
    1UNL     N2   17   0.243   0.165   0.032
    1UNL    C15   18   0.345   0.096  -0.031
    1UNL    C16   19   0.472   0.139  -0.053
    1UNL    C17   20   0.554   0.037  -0.099
    1UNL    C18   21   0.510  -0.093  -0.115
    1UNL    C19   22   0.378  -0.131  -0.099
    1UNL    C20   23   0.298  -0.036  -0.046
    1UNL     H1   24  -0.613   0.095   0.003
    1UNL     H2   25  -0.481   0.062  -0.104
    1UNL     H3   26  -0.557  -0.074  -0.026
    1UNL     H4   27  -0.473   0.021   0.210
    1UNL     H5   28  -0.231  -0.047   0.287
    1UNL     H6   29  -0.195   0.134   0.266
    1UNL     H7   30  -0.017  -0.125   0.337
    1UNL     H8   31   0.128  -0.039   0.274
    1UNL     H9   32   0.003   0.045   0.378
    1UNL    H10   33   0.007   0.199   0.172
    1UNL    H11   34  -0.143   0.248  -0.012
    1UNL    H12   35  -0.050   0.143  -0.109
    1UNL    H13   36  -0.268   0.090  -0.117
    1UNL    H14   37  -0.233  -0.162  -0.055
    1UNL    H15   38  -0.066  -0.214  -0.212
    1UNL    H16   39   0.006  -0.053  -0.180
    1UNL    H17   40  -0.216  -0.122  -0.340
    1UNL    H18   41  -0.108  -0.207   0.124
    1UNL    H19   42   0.132  -0.215   0.107
    1UNL    H20   43   0.087  -0.224  -0.065
    1UNL    H21   44   0.248   0.271   0.045
    1UNL    H22   45   0.499   0.242  -0.035
    1UNL    H23   46   0.652   0.068  -0.145
    1UNL    H24   47   0.581  -0.171  -0.136
    1UNL    H25   48   0.336  -0.232  -0.120
   0.00000   0.00000   0.00000   0.00000   0.00000   0.00000   0.00000   0.00000   0.00000
Generated with MDTraj, t= 85.0
 48
    1UNL     C1    1  -0.520   0.053  -0.028
    1UNL     C2    2  -0.429   0.049   0.092
    1UNL     C3    3  -0.297   0.034   0.089
    1UNL     C4    4  -0.217   0.016   0.212
    1UNL     N1    5  -0.067  -0.009   0.183
    1UNL     C5    6   0.004  -0.034   0.307
    1UNL     C6    7  -0.002   0.112   0.111
    1UNL     C7    8  -0.096   0.151  -0.010
    1UNL     C8    9  -0.212   0.049  -0.033
    1UNL     C9   10  -0.147  -0.095  -0.055
    1UNL    C10   11  -0.076  -0.087  -0.191
    1UNL     O1   12  -0.169  -0.062  -0.296
    1UNL    C11   13  -0.056  -0.127   0.078
    1UNL    C12   14   0.087  -0.160   0.038
    1UNL    C13   15   0.175  -0.044   0.023
    1UNL    C14   16   0.130   0.085   0.047
    1UNL     N2   17   0.235   0.167   0.027
    1UNL    C15   18   0.346   0.095  -0.031
    1UNL    C16   19   0.473   0.135  -0.079
    1UNL    C17   20   0.557   0.040  -0.135
    1UNL    C18   21   0.519  -0.097  -0.136
    1UNL    C19   22   0.405  -0.133  -0.077
    1UNL    C20   23   0.317  -0.037  -0.017
    1UNL     H1   24  -0.596   0.129  -0.024
    1UNL     H2   25  -0.469   0.067  -0.128
    1UNL     H3   26  -0.576  -0.045  -0.031
    1UNL     H4   27  -0.485   0.056   0.177
    1UNL     H5   28  -0.262  -0.070   0.271
    1UNL     H6   29  -0.229   0.110   0.272
    1UNL     H7   30  -0.026  -0.125   0.359
    1UNL     H8   31   0.114  -0.024   0.299
    1UNL     H9   32  -0.031   0.055   0.364
    1UNL    H10   33   0.004   0.200   0.182
    1UNL    H11   34  -0.143   0.247   0.013
    1UNL    H12   35  -0.050   0.165  -0.101
    1UNL    H13   36  -0.276   0.084  -0.120
    1UNL    H14   37  -0.226  -0.170  -0.056
    1UNL    H15   38  -0.041  -0.183  -0.208
    1UNL    H16   39   0.000  -0.010  -0.199
    1UNL    H17   40  -0.221  -0.143  -0.326
    1UNL    H18   41  -0.096  -0.211   0.134
    1UNL    H19   42   0.133  -0.228   0.111
    1UNL    H20   43   0.091  -0.217  -0.056
    1UNL    H21   44   0.227   0.268   0.052
    1UNL    H22   45   0.491   0.235  -0.102
    1UNL    H23   46   0.651   0.066  -0.165
    1UNL    H24   47   0.579  -0.176  -0.180
    1UNL    H25   48   0.387  -0.235  -0.061
   0.00000   0.00000   0.00000   0.00000   0.00000   0.00000   0.00000   0.00000   0.00000
Generated with MDTraj, t= 86.0
 48
    1UNL     C1    1  -0.503   0.091  -0.024
    1UNL     C2    2  -0.415   0.057   0.091
    1UNL     C3    3  -0.284   0.050   0.088
    1UNL     C4    4  -0.207   0.009   0.214
    1UNL     N1    5  -0.066  -0.017   0.178
    1UNL     C5    6   0.015  -0.054   0.304
    1UNL     C6    7  -0.011   0.105   0.110
    1UNL     C7    8  -0.093   0.152  -0.017
    1UNL     C8    9  -0.200   0.050  -0.036
    1UNL     C9   10  -0.139  -0.098  -0.059
    1UNL    C10   11  -0.068  -0.117  -0.188
    1UNL     O1   12  -0.144  -0.068  -0.302
    1UNL    C11   13  -0.061  -0.134   0.078
    1UNL    C12   14   0.083  -0.168   0.042
    1UNL    C13   15   0.176  -0.047   0.039
    1UNL    C14   16   0.130   0.081   0.068
    1UNL     N2   17   0.213   0.173   0.001
    1UNL    C15   18   0.327   0.103  -0.034
    1UNL    C16   19   0.454   0.142  -0.085
    1UNL    C17   20   0.538   0.052  -0.141
    1UNL    C18   21   0.507  -0.085  -0.125
    1UNL    C19   22   0.398  -0.134  -0.058
    1UNL    C20   23   0.300  -0.041  -0.020
    1UNL     H1   24  -0.602   0.119   0.002
    1UNL     H2   25  -0.458   0.176  -0.090
    1UNL     H3   26  -0.522  -0.004  -0.081
    1UNL     H4   27  -0.469   0.046   0.190
    1UNL     H5   28  -0.243  -0.086   0.259
    1UNL     H6   29  -0.217   0.086   0.298
    1UNL     H7   30  -0.016  -0.153   0.341
    1UNL     H8   31   0.122  -0.065   0.280
    1UNL     H9   32   0.016   0.026   0.384
    1UNL    H10   33  -0.020   0.190   0.185
    1UNL    H11   34  -0.141   0.249   0.000
    1UNL    H12   35  -0.030   0.158  -0.099
    1UNL    H13   36  -0.261   0.081  -0.128
    1UNL    H14   37  -0.226  -0.163  -0.065
    1UNL    H15   38  -0.044  -0.214  -0.204
    1UNL    H16   39   0.026  -0.057  -0.179
    1UNL    H17   40  -0.238  -0.095  -0.289
    1UNL    H18   41  -0.112  -0.222   0.116
    1UNL    H19   42   0.113  -0.245   0.114
    1UNL    H20   43   0.081  -0.223  -0.050
    1UNL    H21   44   0.192   0.271   0.006
    1UNL    H22   45   0.468   0.252  -0.110
    1UNL    H23   46   0.626   0.076  -0.210
    1UNL    H24   47   0.593  -0.150  -0.138
    1UNL    H25   48   0.372  -0.239  -0.032
   0.00000   0.00000   0.00000   0.00000   0.00000   0.00000   0.00000   0.00000   0.00000
Generated with MDTraj, t= 87.0
 48
    1UNL     C1    1  -0.510   0.137  -0.013
    1UNL     C2    2  -0.433   0.068   0.089
    1UNL     C3    3  -0.307   0.026   0.081
    1UNL     C4    4  -0.227  -0.003   0.205
    1UNL     N1    5  -0.071  -0.016   0.175
    1UNL     C5    6   0.001  -0.039   0.308
    1UNL     C6    7  -0.007   0.105   0.104
    1UNL     C7    8  -0.101   0.142  -0.018
    1UNL     C8    9  -0.211   0.033  -0.036
    1UNL     C9   10  -0.131  -0.102  -0.048
    1UNL    C10   11  -0.050  -0.108  -0.171
    1UNL     O1   12  -0.130  -0.082  -0.287
    1UNL    C11   13  -0.054  -0.138   0.086
    1UNL    C12   14   0.092  -0.173   0.055
    1UNL    C13   15   0.168  -0.055   0.018
    1UNL    C14   16   0.137   0.070   0.059
    1UNL     N2   17   0.225   0.165   0.013
    1UNL    C15   18   0.331   0.101  -0.041
    1UNL    C16   19   0.456   0.148  -0.081
    1UNL    C17   20   0.544   0.060  -0.134
    1UNL    C18   21   0.516  -0.080  -0.141
    1UNL    C19   22   0.401  -0.131  -0.085
    1UNL    C20   23   0.302  -0.037  -0.035
    1UNL     H1   24  -0.617   0.130   0.006
    1UNL     H2   25  -0.487   0.249  -0.015
    1UNL     H3   26  -0.497   0.080  -0.108
    1UNL     H4   27  -0.465   0.084   0.185
    1UNL     H5   28  -0.269  -0.090   0.257
    1UNL     H6   29  -0.239   0.081   0.283
    1UNL     H7   30  -0.039  -0.133   0.354
    1UNL     H8   31   0.109  -0.055   0.300
    1UNL     H9   32  -0.006   0.051   0.376
    1UNL    H10   33   0.010   0.187   0.181
    1UNL    H11   34  -0.144   0.238   0.006
    1UNL    H12   35  -0.049   0.152  -0.108
    1UNL    H13   36  -0.260   0.054  -0.137
    1UNL    H14   37  -0.205  -0.179  -0.063
    1UNL    H15   38   0.001  -0.194  -0.174
    1UNL    H16   39   0.030  -0.027  -0.170
    1UNL    H17   40  -0.216  -0.126  -0.277
    1UNL    H18   41  -0.106  -0.220   0.135
    1UNL    H19   42   0.128  -0.227   0.144
    1UNL    H20   43   0.085  -0.251  -0.017
    1UNL    H21   44   0.209   0.262   0.019
    1UNL    H22   45   0.476   0.248  -0.071
    1UNL    H23   46   0.634   0.094  -0.176
    1UNL    H24   47   0.594  -0.151  -0.170
    1UNL    H25   48   0.386  -0.234  -0.070
   0.00000   0.00000   0.00000   0.00000   0.00000   0.00000   0.00000   0.00000   0.00000
Generated with MDTraj, t= 88.0
 48
    1UNL     C1    1  -0.488   0.121  -0.038
    1UNL     C2    2  -0.416   0.082   0.086
    1UNL     C3    3  -0.290   0.039   0.096
    1UNL     C4    4  -0.211   0.003   0.218
    1UNL     N1    5  -0.068  -0.022   0.176
    1UNL     C5    6   0.016  -0.049   0.298
    1UNL     C6    7  -0.014   0.106   0.104
    1UNL     C7    8  -0.099   0.130  -0.023
    1UNL     C8    9  -0.208   0.025  -0.032
    1UNL     C9   10  -0.144  -0.117  -0.052
    1UNL    C10   11  -0.065  -0.118  -0.186
    1UNL     O1   12  -0.143  -0.083  -0.295
    1UNL    C11   13  -0.055  -0.142   0.077
    1UNL    C12   14   0.094  -0.164   0.036
    1UNL    C13   15   0.170  -0.037   0.026
    1UNL    C14   16   0.124   0.089   0.064
    1UNL     N2   17   0.234   0.177   0.043
    1UNL    C15   18   0.325   0.108  -0.030
    1UNL    C16   19   0.447   0.146  -0.087
    1UNL    C17   20   0.530   0.050  -0.143
    1UNL    C18   21   0.509  -0.086  -0.131
    1UNL    C19   22   0.385  -0.124  -0.075
    1UNL    C20   23   0.302  -0.030  -0.017
    1UNL     H1   24  -0.589   0.173  -0.020
    1UNL     H2   25  -0.432   0.199  -0.097
    1UNL     H3   26  -0.520   0.026  -0.083
    1UNL     H4   27  -0.471   0.100   0.182
    1UNL     H5   28  -0.252  -0.091   0.258
    1UNL     H6   29  -0.225   0.076   0.307
    1UNL     H7   30  -0.001  -0.152   0.342
    1UNL     H8   31   0.123  -0.047   0.270
    1UNL     H9   32   0.009   0.038   0.367
    1UNL    H10   33  -0.020   0.187   0.184
    1UNL    H11   34  -0.152   0.222  -0.018
    1UNL    H12   35  -0.029   0.133  -0.104
    1UNL    H13   36  -0.280   0.046  -0.119
    1UNL    H14   37  -0.223  -0.190  -0.056
    1UNL    H15   38  -0.035  -0.212  -0.209
    1UNL    H16   39   0.031  -0.060  -0.175
    1UNL    H17   40  -0.233  -0.124  -0.287
    1UNL    H18   41  -0.095  -0.220   0.141
    1UNL    H19   42   0.137  -0.219   0.122
    1UNL    H20   43   0.101  -0.233  -0.045
    1UNL    H21   44   0.245   0.271   0.065
    1UNL    H22   45   0.489   0.248  -0.084
    1UNL    H23   46   0.623   0.086  -0.181
    1UNL    H24   47   0.573  -0.159  -0.174
    1UNL    H25   48   0.364  -0.228  -0.055
   0.00000   0.00000   0.00000   0.00000   0.00000   0.00000   0.00000   0.00000   0.00000
Generated with MDTraj, t= 89.0
 48
    1UNL     C1    1  -0.504   0.111  -0.029
    1UNL     C2    2  -0.425   0.065   0.090
    1UNL     C3    3  -0.293   0.047   0.082
    1UNL     C4    4  -0.221   0.011   0.206
    1UNL     N1    5  -0.067  -0.019   0.182
    1UNL     C5    6  -0.009  -0.042   0.324
    1UNL     C6    7  -0.004   0.101   0.112
    1UNL     C7    8  -0.085   0.143  -0.013
    1UNL     C8    9  -0.202   0.050  -0.039
    1UNL     C9   10  -0.151  -0.094  -0.053
    1UNL    C10   11  -0.098  -0.128  -0.192
    1UNL     O1   12  -0.174  -0.095  -0.298
    1UNL    C11   13  -0.056  -0.132   0.076
    1UNL    C12   14   0.094  -0.178   0.047
    1UNL    C13   15   0.181  -0.059   0.034
    1UNL    C14   16   0.135   0.066   0.059
    1UNL     N2   17   0.224   0.165   0.020
    1UNL    C15   18   0.340   0.099  -0.033
    1UNL    C16   19   0.464   0.156  -0.078
    1UNL    C17   20   0.561   0.071  -0.133
    1UNL    C18   21   0.527  -0.067  -0.130
    1UNL    C19   22   0.410  -0.127  -0.087
    1UNL    C20   23   0.314  -0.039  -0.030
    1UNL     H1   24  -0.619   0.128  -0.017
    1UNL     H2   25  -0.466   0.209  -0.062
    1UNL     H3   26  -0.501   0.027  -0.099
    1UNL     H4   27  -0.465   0.066   0.188
    1UNL     H5   28  -0.272  -0.076   0.253
    1UNL     H6   29  -0.233   0.090   0.286
    1UNL     H7   30  -0.052  -0.142   0.357
    1UNL     H8   31   0.102  -0.057   0.327
    1UNL     H9   32  -0.024   0.049   0.384
    1UNL    H10   33  -0.001   0.180   0.194
    1UNL    H11   34  -0.120   0.240  -0.002
    1UNL    H12   35  -0.029   0.142  -0.107
    1UNL    H13   36  -0.257   0.077  -0.136
    1UNL    H14   37  -0.239  -0.157  -0.040
    1UNL    H15   38  -0.071  -0.232  -0.196
    1UNL    H16   39  -0.005  -0.074  -0.215
    1UNL    H17   40  -0.274  -0.097  -0.286
    1UNL    H18   41  -0.104  -0.214   0.127
    1UNL    H19   42   0.134  -0.234   0.133
    1UNL    H20   43   0.105  -0.246  -0.035
    1UNL    H21   44   0.224   0.262   0.031
    1UNL    H22   45   0.478   0.263  -0.067
    1UNL    H23   46   0.641   0.099  -0.209
    1UNL    H24   47   0.608  -0.136  -0.164
    1UNL    H25   48   0.400  -0.236  -0.098
   0.00000   0.00000   0.00000   0.00000   0.00000   0.00000   0.00000   0.00000   0.00000
Generated with MDTraj, t= 90.0
 48
    1UNL     C1    1  -0.502   0.096  -0.026
    1UNL     C2    2  -0.418   0.062   0.096
    1UNL     C3    3  -0.286   0.043   0.098
    1UNL     C4    4  -0.204   0.010   0.218
    1UNL     N1    5  -0.059  -0.016   0.167
    1UNL     C5    6   0.028  -0.048   0.292
    1UNL     C6    7  -0.002   0.113   0.099
    1UNL     C7    8  -0.101   0.152  -0.019
    1UNL     C8    9  -0.209   0.038  -0.033
    1UNL     C9   10  -0.149  -0.106  -0.057
    1UNL    C10   11  -0.092  -0.119  -0.197
    1UNL     O1   12  -0.186  -0.102  -0.302
    1UNL    C11   13  -0.058  -0.137   0.069
    1UNL    C12   14   0.090  -0.163   0.035
    1UNL    C13   15   0.170  -0.037   0.018
    1UNL    C14   16   0.128   0.092   0.046
    1UNL     N2   17   0.231   0.189   0.026
    1UNL    C15   18   0.341   0.108  -0.017
    1UNL    C16   19   0.476   0.141  -0.054
    1UNL    C17   20   0.555   0.040  -0.103
    1UNL    C18   21   0.506  -0.091  -0.128
    1UNL    C19   22   0.385  -0.124  -0.075
    1UNL    C20   23   0.302  -0.029  -0.020
    1UNL     H1   24  -0.617   0.088  -0.011
    1UNL     H2   25  -0.482   0.198  -0.059
    1UNL     H3   26  -0.486   0.016  -0.100
    1UNL     H4   27  -0.458   0.072   0.196
    1UNL     H5   28  -0.240  -0.080   0.277
    1UNL     H6   29  -0.198   0.091   0.293
    1UNL     H7   30   0.006  -0.154   0.327
    1UNL     H8   31   0.135  -0.054   0.256
    1UNL     H9   32   0.034   0.042   0.358
    1UNL    H10   33   0.007   0.196   0.177
    1UNL    H11   34  -0.151   0.242  -0.015
    1UNL    H12   35  -0.047   0.165  -0.114
    1UNL    H13   36  -0.276   0.060  -0.122
    1UNL    H14   37  -0.232  -0.175  -0.049
    1UNL    H15   38  -0.034  -0.219  -0.210
    1UNL    H16   39  -0.014  -0.048  -0.203
    1UNL    H17   40  -0.227  -0.188  -0.321
    1UNL    H18   41  -0.101  -0.225   0.119
    1UNL    H19   42   0.144  -0.221   0.109
    1UNL    H20   43   0.109  -0.211  -0.062
    1UNL    H21   44   0.225   0.286   0.010
    1UNL    H22   45   0.491   0.243  -0.076
    1UNL    H23   46   0.644   0.076  -0.139
    1UNL    H24   47   0.565  -0.162  -0.176
    1UNL    H25   48   0.347  -0.221  -0.075
   0.00000   0.00000   0.00000   0.00000   0.00000   0.00000   0.00000   0.00000   0.00000
Generated with MDTraj, t= 91.0
 48
    1UNL     C1    1  -0.541   0.082   0.010
    1UNL     C2    2  -0.435   0.060   0.108
    1UNL     C3    3  -0.303   0.045   0.091
    1UNL     C4    4  -0.213   0.026   0.205
    1UNL     N1    5  -0.064  -0.009   0.161
    1UNL     C5    6   0.025  -0.031   0.287
    1UNL     C6    7  -0.007   0.104   0.081
    1UNL     C7    8  -0.103   0.145  -0.029
    1UNL     C8    9  -0.222   0.041  -0.040
    1UNL     C9   10  -0.159  -0.108  -0.051
    1UNL    C10   11  -0.093  -0.124  -0.189
    1UNL     O1   12  -0.184  -0.074  -0.292
    1UNL    C11   13  -0.060  -0.134   0.070
    1UNL    C12   14   0.094  -0.167   0.025
    1UNL    C13   15   0.173  -0.048  -0.007
    1UNL    C14   16   0.137   0.079   0.034
    1UNL     N2   17   0.241   0.165   0.025
    1UNL    C15   18   0.354   0.098  -0.018
    1UNL    C16   19   0.480   0.144  -0.048
    1UNL    C17   20   0.569   0.051  -0.093
    1UNL    C18   21   0.539  -0.089  -0.104
    1UNL    C19   22   0.412  -0.125  -0.081
    1UNL    C20   23   0.314  -0.031  -0.040
    1UNL     H1   24  -0.630   0.137   0.052
    1UNL     H2   25  -0.507   0.145  -0.072
    1UNL     H3   26  -0.579  -0.021  -0.018
    1UNL     H4   27  -0.463   0.073   0.214
    1UNL     H5   28  -0.243  -0.062   0.271
    1UNL     H6   29  -0.212   0.113   0.272
    1UNL     H7   30  -0.013  -0.121   0.346
    1UNL     H8   31   0.133  -0.052   0.261
    1UNL     H9   32   0.034   0.071   0.332
    1UNL    H10   33  -0.016   0.187   0.160
    1UNL    H11   34  -0.146   0.237  -0.012
    1UNL    H12   35  -0.052   0.158  -0.124
    1UNL    H13   36  -0.280   0.069  -0.133
    1UNL    H14   37  -0.248  -0.170  -0.035
    1UNL    H15   38  -0.049  -0.234  -0.206
    1UNL    H16   39  -0.006  -0.067  -0.193
    1UNL    H17   40  -0.251  -0.141  -0.315
    1UNL    H18   41  -0.101  -0.214   0.133
    1UNL    H19   42   0.148  -0.204   0.111
    1UNL    H20   43   0.104  -0.241  -0.056
    1UNL    H21   44   0.246   0.259   0.061
    1UNL    H22   45   0.482   0.254  -0.072
    1UNL    H23   46   0.676   0.089  -0.110
    1UNL    H24   47   0.626  -0.158  -0.117
    1UNL    H25   48   0.388  -0.234  -0.079
   0.00000   0.00000   0.00000   0.00000   0.00000   0.00000   0.00000   0.00000   0.00000
Generated with MDTraj, t= 92.0
 48
    1UNL     C1    1  -0.512   0.081  -0.000
    1UNL     C2    2  -0.421   0.056   0.114
    1UNL     C3    3  -0.288   0.042   0.101
    1UNL     C4    4  -0.192   0.011   0.217
    1UNL     N1    5  -0.052  -0.015   0.161
    1UNL     C5    6   0.047  -0.033   0.276
    1UNL     C6    7  -0.010   0.116   0.085
    1UNL     C7    8  -0.109   0.150  -0.035
    1UNL     C8    9  -0.217   0.039  -0.032
    1UNL     C9   10  -0.157  -0.102  -0.055
    1UNL    C10   11  -0.104  -0.117  -0.196
    1UNL     O1   12  -0.196  -0.068  -0.290
    1UNL    C11   13  -0.055  -0.137   0.063
    1UNL    C12   14   0.087  -0.169   0.022
    1UNL    C13   15   0.166  -0.044  -0.010
    1UNL    C14   16   0.119   0.080   0.022
    1UNL     N2   17   0.222   0.176   0.007
    1UNL    C15   18   0.340   0.106  -0.035
    1UNL    C16   19   0.477   0.141  -0.058
    1UNL    C17   20   0.572   0.044  -0.082
    1UNL    C18   21   0.530  -0.090  -0.070
    1UNL    C19   22   0.399  -0.132  -0.053
    1UNL    C20   23   0.301  -0.033  -0.035
    1UNL     H1   24  -0.615   0.071   0.031
    1UNL     H2   25  -0.505   0.185  -0.038
    1UNL     H3   26  -0.498  -0.002  -0.079
    1UNL     H4   27  -0.456   0.078   0.210
    1UNL     H5   28  -0.224  -0.082   0.278
    1UNL     H6   29  -0.182   0.092   0.289
    1UNL     H7   30   0.029  -0.134   0.326
    1UNL     H8   31   0.151  -0.029   0.239
    1UNL     H9   32   0.038   0.064   0.335
    1UNL    H10   33  -0.000   0.204   0.158
    1UNL    H11   34  -0.157   0.241  -0.015
    1UNL    H12   35  -0.055   0.152  -0.129
    1UNL    H13   36  -0.287   0.054  -0.120
    1UNL    H14   37  -0.252  -0.161  -0.049
    1UNL    H15   38  -0.081  -0.230  -0.222
    1UNL    H16   39  -0.010  -0.068  -0.208
    1UNL    H17   40  -0.199  -0.119  -0.377
    1UNL    H18   41  -0.102  -0.216   0.125
    1UNL    H19   42   0.138  -0.222   0.101
    1UNL    H20   43   0.085  -0.236  -0.066
    1UNL    H21   44   0.211   0.268   0.050
    1UNL    H22   45   0.511   0.238  -0.045
    1UNL    H23   46   0.670   0.070  -0.108
    1UNL    H24   47   0.609  -0.156  -0.049
    1UNL    H25   48   0.370  -0.232  -0.045
   0.00000   0.00000   0.00000   0.00000   0.00000   0.00000   0.00000   0.00000   0.00000
Generated with MDTraj, t= 93.0
 48
    1UNL     C1    1  -0.527   0.085   0.028
    1UNL     C2    2  -0.424   0.053   0.125
    1UNL     C3    3  -0.293   0.043   0.099
    1UNL     C4    4  -0.201   0.016   0.209
    1UNL     N1    5  -0.060  -0.012   0.161
    1UNL     C5    6   0.019  -0.039   0.287
    1UNL     C6    7  -0.007   0.108   0.075
    1UNL     C7    8  -0.110   0.151  -0.033
    1UNL     C8    9  -0.219   0.039  -0.035
    1UNL     C9   10  -0.157  -0.103  -0.060
    1UNL    C10   11  -0.104  -0.105  -0.205
    1UNL     O1   12  -0.202  -0.089  -0.304
    1UNL    C11   13  -0.056  -0.129   0.062
    1UNL    C12   14   0.089  -0.159   0.029
    1UNL    C13   15   0.175  -0.042   0.005
    1UNL    C14   16   0.129   0.087   0.014
    1UNL     N2   17   0.229   0.176  -0.011
    1UNL    C15   18   0.346   0.103  -0.044
    1UNL    C16   19   0.482   0.145  -0.053
    1UNL    C17   20   0.575   0.043  -0.075
    1UNL    C18   21   0.540  -0.095  -0.081
    1UNL    C19   22   0.415  -0.137  -0.050
    1UNL    C20   23   0.317  -0.034  -0.018
    1UNL     H1   24  -0.616   0.028   0.040
    1UNL     H2   25  -0.559   0.192   0.038
    1UNL     H3   26  -0.500   0.060  -0.082
    1UNL     H4   27  -0.459   0.059   0.232
    1UNL     H5   28  -0.242  -0.081   0.254
    1UNL     H6   29  -0.209   0.095   0.286
    1UNL     H7   30  -0.027  -0.139   0.313
    1UNL     H8   31   0.124  -0.062   0.261
    1UNL     H9   32   0.019   0.045   0.365
    1UNL    H10   33   0.014   0.184   0.158
    1UNL    H11   34  -0.159   0.238   0.000
    1UNL    H12   35  -0.054   0.159  -0.125
    1UNL    H13   36  -0.287   0.064  -0.121
    1UNL    H14   37  -0.239  -0.178  -0.058
    1UNL    H15   38  -0.047  -0.203  -0.225
    1UNL    H16   39  -0.031  -0.023  -0.223
    1UNL    H17   40  -0.158  -0.073  -0.392
    1UNL    H18   41  -0.096  -0.220   0.112
    1UNL    H19   42   0.126  -0.211   0.115
    1UNL    H20   43   0.088  -0.239  -0.047
    1UNL    H21   44   0.221   0.280  -0.029
    1UNL    H22   45   0.518   0.248  -0.024
    1UNL    H23   46   0.677   0.066  -0.105
    1UNL    H24   47   0.608  -0.171  -0.121
    1UNL    H25   48   0.397  -0.247  -0.054
   0.00000   0.00000   0.00000   0.00000   0.00000   0.00000   0.00000   0.00000   0.00000
Generated with MDTraj, t= 94.0
 48
    1UNL     C1    1  -0.509   0.079  -0.009
    1UNL     C2    2  -0.425   0.059   0.116
    1UNL     C3    3  -0.292   0.042   0.103
    1UNL     C4    4  -0.194   0.018   0.218
    1UNL     N1    5  -0.055  -0.011   0.162
    1UNL     C5    6   0.028  -0.037   0.284
    1UNL     C6    7  -0.008   0.119   0.083
    1UNL     C7    8  -0.104   0.141  -0.040
    1UNL     C8    9  -0.223   0.042  -0.030
    1UNL     C9   10  -0.169  -0.101  -0.047
    1UNL    C10   11  -0.109  -0.128  -0.190
    1UNL     O1   12  -0.185  -0.081  -0.302
    1UNL    C11   13  -0.061  -0.132   0.070
    1UNL    C12   14   0.083  -0.162   0.024
    1UNL    C13   15   0.169  -0.043  -0.001
    1UNL    C14   16   0.130   0.083   0.041
    1UNL     N2   17   0.237   0.167   0.014
    1UNL    C15   18   0.346   0.102  -0.025
    1UNL    C16   19   0.477   0.141  -0.046
    1UNL    C17   20   0.565   0.046  -0.093
    1UNL    C18   21   0.533  -0.085  -0.094
    1UNL    C19   22   0.403  -0.125  -0.074
    1UNL    C20   23   0.306  -0.034  -0.036
    1UNL     H1   24  -0.610   0.097   0.018
    1UNL     H2   25  -0.480   0.175  -0.063
    1UNL     H3   26  -0.513  -0.009  -0.078
    1UNL     H4   27  -0.468   0.079   0.208
    1UNL     H5   28  -0.237  -0.065   0.280
    1UNL     H6   29  -0.189   0.108   0.284
    1UNL     H7   30  -0.012  -0.118   0.350
    1UNL     H8   31   0.136  -0.057   0.265
    1UNL     H9   32   0.027   0.065   0.335
    1UNL    H10   33  -0.003   0.214   0.148
    1UNL    H11   34  -0.141   0.240  -0.037
    1UNL    H12   35  -0.052   0.115  -0.131
    1UNL    H13   36  -0.293   0.067  -0.113
    1UNL    H14   37  -0.253  -0.176  -0.035
    1UNL    H15   38  -0.098  -0.238  -0.205
    1UNL    H16   39   0.001  -0.085  -0.185
    1UNL    H17   40  -0.125  -0.066  -0.376
    1UNL    H18   41  -0.092  -0.210   0.143
    1UNL    H19   42   0.126  -0.226   0.099
    1UNL    H20   43   0.087  -0.230  -0.063
    1UNL    H21   44   0.238   0.271   0.042
    1UNL    H22   45   0.501   0.244  -0.049
    1UNL    H23   46   0.657   0.085  -0.144
    1UNL    H24   47   0.603  -0.158  -0.133
    1UNL    H25   48   0.370  -0.227  -0.072
   0.00000   0.00000   0.00000   0.00000   0.00000   0.00000   0.00000   0.00000   0.00000
Generated with MDTraj, t= 95.0
 48
    1UNL     C1    1  -0.510   0.085  -0.029
    1UNL     C2    2  -0.426   0.066   0.096
    1UNL     C3    3  -0.293   0.050   0.092
    1UNL     C4    4  -0.215   0.010   0.214
    1UNL     N1    5  -0.068  -0.008   0.176
    1UNL     C5    6   0.021  -0.028   0.300
    1UNL     C6    7  -0.009   0.105   0.096
    1UNL     C7    8  -0.098   0.140  -0.022
    1UNL     C8    9  -0.212   0.039  -0.036
    1UNL     C9   10  -0.147  -0.104  -0.047
    1UNL    C10   11  -0.086  -0.116  -0.190
    1UNL     O1   12  -0.192  -0.093  -0.288
    1UNL    C11   13  -0.059  -0.129   0.080
    1UNL    C12   14   0.090  -0.160   0.038
    1UNL    C13   15   0.172  -0.041   0.006
    1UNL    C14   16   0.137   0.082   0.048
    1UNL     N2   17   0.237   0.169   0.038
    1UNL    C15   18   0.344   0.103  -0.024
    1UNL    C16   19   0.474   0.142  -0.063
    1UNL    C17   20   0.563   0.048  -0.107
    1UNL    C18   21   0.522  -0.087  -0.128
    1UNL    C19   22   0.396  -0.132  -0.091
    1UNL    C20   23   0.305  -0.032  -0.045
    1UNL     H1   24  -0.603   0.133  -0.000
    1UNL     H2   25  -0.460   0.165  -0.095
    1UNL     H3   26  -0.536  -0.005  -0.082
    1UNL     H4   27  -0.486   0.063   0.193
    1UNL     H5   28  -0.251  -0.089   0.246
    1UNL     H6   29  -0.238   0.085   0.297
    1UNL     H7   30   0.002  -0.127   0.346
    1UNL     H8   31   0.130  -0.024   0.271
    1UNL     H9   32   0.009   0.052   0.381
    1UNL    H10   33  -0.009   0.200   0.161
    1UNL    H11   34  -0.143   0.237  -0.011
    1UNL    H12   35  -0.043   0.143  -0.111
    1UNL    H13   36  -0.265   0.073  -0.128
    1UNL    H14   37  -0.223  -0.187  -0.042
    1UNL    H15   38  -0.033  -0.212  -0.199
    1UNL    H16   39  -0.004  -0.028  -0.201
    1UNL    H17   40  -0.173  -0.143  -0.371
    1UNL    H18   41  -0.092  -0.221   0.132
    1UNL    H19   42   0.145  -0.225   0.105
    1UNL    H20   43   0.080  -0.228  -0.047
    1UNL    H21   44   0.235   0.264   0.087
    1UNL    H22   45   0.501   0.246  -0.071
    1UNL    H23   46   0.657   0.072  -0.135
    1UNL    H24   47   0.602  -0.157  -0.125
    1UNL    H25   48   0.374  -0.239  -0.088
   0.00000   0.00000   0.00000   0.00000   0.00000   0.00000   0.00000   0.00000   0.00000
Generated with MDTraj, t= 96.0
 48
    1UNL     C1    1  -0.521   0.101  -0.021
    1UNL     C2    2  -0.420   0.072   0.090
    1UNL     C3    3  -0.290   0.047   0.084
    1UNL     C4    4  -0.211   0.017   0.209
    1UNL     N1    5  -0.065  -0.015   0.175
    1UNL     C5    6   0.007  -0.060   0.300
    1UNL     C6    7  -0.004   0.108   0.112
    1UNL     C7    8  -0.084   0.149  -0.017
    1UNL     C8    9  -0.204   0.049  -0.040
    1UNL     C9   10  -0.139  -0.095  -0.052
    1UNL    C10   11  -0.073  -0.117  -0.188
    1UNL     O1   12  -0.165  -0.113  -0.296
    1UNL    C11   13  -0.058  -0.132   0.073
    1UNL    C12   14   0.085  -0.168   0.046
    1UNL    C13   15   0.174  -0.045   0.032
    1UNL    C14   16   0.130   0.081   0.063
    1UNL     N2   17   0.228   0.174   0.030
    1UNL    C15   18   0.335   0.102  -0.023
    1UNL    C16   19   0.462   0.144  -0.082
    1UNL    C17   20   0.547   0.053  -0.140
    1UNL    C18   21   0.508  -0.082  -0.140
    1UNL    C19   22   0.395  -0.128  -0.076
    1UNL    C20   23   0.307  -0.037  -0.014
    1UNL     H1   24  -0.619   0.059   0.011
    1UNL     H2   25  -0.539   0.214  -0.023
    1UNL     H3   26  -0.507   0.068  -0.122
    1UNL     H4   27  -0.457   0.089   0.186
    1UNL     H5   28  -0.260  -0.061   0.268
    1UNL     H6   29  -0.209   0.113   0.273
    1UNL     H7   30  -0.050  -0.148   0.340
    1UNL     H8   31   0.117  -0.083   0.283
    1UNL     H9   32   0.009   0.018   0.380
    1UNL    H10   33   0.001   0.195   0.187
    1UNL    H11   34  -0.116   0.253  -0.018
    1UNL    H12   35  -0.023   0.146  -0.100
    1UNL    H13   36  -0.260   0.082  -0.130
    1UNL    H14   37  -0.232  -0.162  -0.056
    1UNL    H15   38  -0.031  -0.221  -0.187
    1UNL    H16   39   0.015  -0.039  -0.201
    1UNL    H17   40  -0.117  -0.119  -0.384
    1UNL    H18   41  -0.106  -0.221   0.117
    1UNL    H19   42   0.116  -0.234   0.126
    1UNL    H20   43   0.112  -0.225  -0.043
    1UNL    H21   44   0.194   0.276   0.030
    1UNL    H22   45   0.475   0.249  -0.107
    1UNL    H23   46   0.658   0.080  -0.166
    1UNL    H24   47   0.577  -0.160  -0.177
    1UNL    H25   48   0.381  -0.236  -0.071
   0.00000   0.00000   0.00000   0.00000   0.00000   0.00000   0.00000   0.00000   0.00000
Generated with MDTraj, t= 97.0
 48
    1UNL     C1    1  -0.485   0.115  -0.046
    1UNL     C2    2  -0.424   0.056   0.079
    1UNL     C3    3  -0.294   0.037   0.082
    1UNL     C4    4  -0.218   0.003   0.207
    1UNL     N1    5  -0.066  -0.018   0.186
    1UNL     C5    6   0.010  -0.037   0.313
    1UNL     C6    7  -0.009   0.107   0.112
    1UNL     C7    8  -0.098   0.142  -0.007
    1UNL     C8    9  -0.203   0.036  -0.033
    1UNL     C9   10  -0.142  -0.109  -0.043
    1UNL    C10   11  -0.074  -0.122  -0.180
    1UNL     O1   12  -0.144  -0.063  -0.284
    1UNL    C11   13  -0.056  -0.133   0.086
    1UNL    C12   14   0.092  -0.170   0.055
    1UNL    C13   15   0.176  -0.049   0.037
    1UNL    C14   16   0.132   0.079   0.060
    1UNL     N2   17   0.226   0.165   0.007
    1UNL    C15   18   0.334   0.093  -0.036
    1UNL    C16   19   0.452   0.147  -0.083
    1UNL    C17   20   0.527   0.056  -0.150
    1UNL    C18   21   0.504  -0.083  -0.136
    1UNL    C19   22   0.391  -0.127  -0.076
    1UNL    C20   23   0.305  -0.037  -0.024
    1UNL     H1   24  -0.598   0.117  -0.029
    1UNL     H2   25  -0.447   0.220  -0.054
    1UNL     H3   26  -0.469   0.075  -0.144
    1UNL     H4   27  -0.484   0.044   0.173
    1UNL     H5   28  -0.254  -0.090   0.252
    1UNL     H6   29  -0.238   0.091   0.277
    1UNL     H7   30  -0.036  -0.116   0.382
    1UNL     H8   31   0.120  -0.044   0.292
    1UNL     H9   32   0.001   0.058   0.370
    1UNL    H10   33  -0.005   0.190   0.191
    1UNL    H11   34  -0.155   0.230   0.019
    1UNL    H12   35  -0.055   0.173  -0.095
    1UNL    H13   36  -0.251   0.051  -0.131
    1UNL    H14   37  -0.239  -0.169  -0.037
    1UNL    H15   38  -0.059  -0.235  -0.214
    1UNL    H16   39   0.029  -0.072  -0.179
    1UNL    H17   40  -0.088  -0.032  -0.358
    1UNL    H18   41  -0.102  -0.219   0.139
    1UNL    H19   42   0.147  -0.225   0.131
    1UNL    H20   43   0.087  -0.233  -0.033
    1UNL    H21   44   0.218   0.268  -0.005
    1UNL    H22   45   0.466   0.253  -0.085
    1UNL    H23   46   0.604   0.081  -0.218
    1UNL    H24   47   0.571  -0.150  -0.184
    1UNL    H25   48   0.366  -0.229  -0.075
   0.00000   0.00000   0.00000   0.00000   0.00000   0.00000   0.00000   0.00000   0.00000
Generated with MDTraj, t= 98.0
 48
    1UNL     C1    1  -0.523   0.094  -0.020
    1UNL     C2    2  -0.419   0.084   0.089
    1UNL     C3    3  -0.296   0.031   0.088
    1UNL     C4    4  -0.218   0.008   0.216
    1UNL     N1    5  -0.070  -0.016   0.182
    1UNL     C5    6  -0.007  -0.035   0.314
    1UNL     C6    7  -0.008   0.103   0.106
    1UNL     C7    8  -0.095   0.143  -0.012
    1UNL     C8    9  -0.202   0.038  -0.035
    1UNL     C9   10  -0.132  -0.103  -0.052
    1UNL    C10   11  -0.047  -0.104  -0.179
    1UNL     O1   12  -0.107  -0.059  -0.298
    1UNL    C11   13  -0.058  -0.137   0.082
    1UNL    C12   14   0.090  -0.176   0.061
    1UNL    C13   15   0.168  -0.052   0.030
    1UNL    C14   16   0.127   0.073   0.062
    1UNL     N2   17   0.218   0.170   0.025
    1UNL    C15   18   0.318   0.104  -0.047
    1UNL    C16   19   0.443   0.140  -0.104
    1UNL    C17   20   0.537   0.046  -0.146
    1UNL    C18   21   0.511  -0.090  -0.138
    1UNL    C19   22   0.395  -0.132  -0.079
    1UNL    C20   23   0.298  -0.040  -0.033
    1UNL     H1   24  -0.606   0.161   0.023
    1UNL     H2   25  -0.477   0.144  -0.104
    1UNL     H3   26  -0.574   0.006  -0.059
    1UNL     H4   27  -0.461   0.109   0.185
    1UNL     H5   28  -0.257  -0.085   0.263
    1UNL     H6   29  -0.229   0.091   0.292
    1UNL     H7   30  -0.037  -0.141   0.347
    1UNL     H8   31   0.100  -0.004   0.312
    1UNL     H9   32  -0.060   0.025   0.392
    1UNL    H10   33   0.003   0.178   0.193
    1UNL    H11   34  -0.148   0.237  -0.012
    1UNL    H12   35  -0.033   0.158  -0.094
    1UNL    H13   36  -0.253   0.051  -0.132
    1UNL    H14   37  -0.218  -0.176  -0.064
    1UNL    H15   38  -0.010  -0.220  -0.194
    1UNL    H16   39   0.049  -0.043  -0.178
    1UNL    H17   40  -0.047  -0.063  -0.375
    1UNL    H18   41  -0.105  -0.218   0.141
    1UNL    H19   42   0.124  -0.212   0.159
    1UNL    H20   43   0.115  -0.241  -0.023
    1UNL    H21   44   0.212   0.270   0.045
    1UNL    H22   45   0.471   0.245  -0.094
    1UNL    H23   46   0.610   0.089  -0.210
    1UNL    H24   47   0.580  -0.168  -0.176
    1UNL    H25   48   0.369  -0.241  -0.078
   0.00000   0.00000   0.00000   0.00000   0.00000   0.00000   0.00000   0.00000   0.00000
Generated with MDTraj, t= 99.0
 48
    1UNL     C1    1  -0.498   0.084  -0.032
    1UNL     C2    2  -0.434   0.048   0.093
    1UNL     C3    3  -0.302   0.040   0.091
    1UNL     C4    4  -0.217   0.009   0.212
    1UNL     N1    5  -0.070  -0.018   0.181
    1UNL     C5    6   0.015  -0.039   0.313
    1UNL     C6    7  -0.012   0.109   0.109
    1UNL     C7    8  -0.107   0.148  -0.010
    1UNL     C8    9  -0.210   0.039  -0.036
    1UNL     C9   10  -0.131  -0.093  -0.054
    1UNL    C10   11  -0.050  -0.086  -0.187
    1UNL     O1   12  -0.137  -0.063  -0.298
    1UNL    C11   13  -0.056  -0.130   0.078
    1UNL    C12   14   0.094  -0.167   0.050
    1UNL    C13   15   0.166  -0.044   0.031
    1UNL    C14   16   0.128   0.084   0.062
    1UNL     N2   17   0.229   0.174   0.026
    1UNL    C15   18   0.336   0.099  -0.033
    1UNL    C16   19   0.454   0.136  -0.106
    1UNL    C17   20   0.534   0.038  -0.155
    1UNL    C18   21   0.502  -0.097  -0.129
    1UNL    C19   22   0.384  -0.142  -0.065
    1UNL    C20   23   0.304  -0.037  -0.015
    1UNL     H1   24  -0.609   0.096  -0.015
    1UNL     H2   25  -0.455   0.177  -0.062
    1UNL     H3   26  -0.491   0.017  -0.122
    1UNL     H4   27  -0.488   0.048   0.187
    1UNL     H5   28  -0.257  -0.072   0.278
    1UNL     H6   29  -0.215   0.101   0.275
    1UNL     H7   30  -0.018  -0.135   0.365
    1UNL     H8   31   0.119  -0.036   0.276
    1UNL     H9   32   0.006   0.038   0.394
    1UNL    H10   33   0.008   0.194   0.183
    1UNL    H11   34  -0.157   0.242   0.004
    1UNL    H12   35  -0.059   0.172  -0.101
    1UNL    H13   36  -0.274   0.050  -0.126
    1UNL    H14   37  -0.210  -0.171  -0.074
    1UNL    H15   38   0.004  -0.190  -0.220
    1UNL    H16   39   0.033  -0.009  -0.183
    1UNL    H17   40  -0.099  -0.100  -0.383
    1UNL    H18   41  -0.103  -0.222   0.118
    1UNL    H19   42   0.146  -0.216   0.134
    1UNL    H20   43   0.094  -0.224  -0.041
    1UNL    H21   44   0.232   0.273   0.042
    1UNL    H22   45   0.479   0.239  -0.115
    1UNL    H23   46   0.633   0.071  -0.206
    1UNL    H24   47   0.571  -0.167  -0.169
    1UNL    H25   48   0.373  -0.240  -0.028
   0.00000   0.00000   0.00000   0.00000   0.00000   0.00000   0.00000   0.00000   0.00000
