[ moleculetype ]
; name        nrexcl
res           1

[ atoms ]
;    nr  type  resnr resid  atom  cgnr     charge       mass
      1 TC3       1 res   C1        1      0.000     36.000
      2 TC3       1 res   C2        2      0.000     36.000
      3 SN1       1 res   C3        3      0.000     54.000
      4 TC3       1 res   C4        4      0.000     36.000
      5 SC3       1 res   C5        5      0.000     54.000
      6 TP1       1 res   C6        6      0.000     36.000
      7 TC5       1 res   C7        7      0.000     36.000
      8 TN6d      1 res   C8        8      0.000     36.000
      9 TC5       1 res   C9        9      0.000     36.000
     10 TC5       1 res   C10      10      0.000     36.000
     11 TC5       1 res   C11      11      0.000     36.000

[ constraints ]
;  ai    aj   funct      b0(nm)
    1     2     1      0.25194
   10    11     1      0.29135
    3     5     1      0.29896
    2     3     1      0.35845
    7     9     1      0.18338
    5     7     1      0.26880
    9    11     1      0.25014
    2     5     1      0.32636
    3     4     1      0.31479
    7     8     1      0.21888
    5     6     1      0.28708
    9    10     1      0.25025
    4     7     1      0.26048
    2     4     1      0.23852
    8     9     1      0.21876

[ bonds ]
;  ai    aj   funct      b0(nm)          k(kJ/mol/nm^2)

[ angles ]
;  ai    aj    ak  funct     th0(deg)        k(kJ/mol/rad^2)
    1     2     3     1    111.74019          1173.97
    1     2     4     1    134.97274           194.91
    1     2     5     1    138.42119           238.45
    2     3     4     1     40.85079          9646.55
    2     3     5     1     58.69825          7718.41
    2     4     3     1     79.45129          3633.22
    2     4     7     1    113.15809          1424.61
    2     5     3     1     69.79106          7680.01
    2     5     6     1     61.80209          1311.82
    2     5     7     1     88.28551          6112.16
    3     2     4     1     59.69785          3424.42
    3     2     5     1     51.51065          6530.69
    3     4     7     1     70.94996          1839.64
    3     5     6     1    128.37790           986.46
    3     5     7     1     72.54127          1917.28
    4     2     5     1     74.49407          4550.57
    4     3     5     1     69.24891          3569.15
    4     7     5     1     82.48183          3952.61
    4     7     8     1     74.75724           731.61
    4     7     9     1    134.55394           813.30
    5     7     8     1    156.58997           661.16
    5     7     9     1    134.08430          1428.87
    6     5     7     1     89.39079           408.35
    7     8     9     1     49.54440          5843.09
    7     9     8     1     65.26089          4335.15
    7     9    10     1    161.53840          1672.73
    7     9    11     1    126.45376          1813.03
    8     7     9     1     65.19463          3466.34
    8     9    10     1     96.79886          1519.93
    8     9    11     1    166.75975          1212.25
    9    10    11     1     54.36859          9928.93
    9    11    10     1     54.40987          7154.28
   10     9    11     1     71.22151          6020.01

[ dihedrals ]
;  ai    aj    ak    al  funct   phi0(deg)        k(kJ/mol)   mult
    1     2     3     4     1     48.91375       12.933      1
    1     2     3     5     1    -45.03904       12.935      1
    1     2     4     3     1    -90.21057       10.748      1
    1     2     4     7     1    -27.03415       10.027      1
    1     2     5     3     1    104.06095       12.224      1
    1     2     5     6     1    -60.52240       12.894      1
    1     2     5     7     1     31.95425       12.213      1
    2     3     4     7     1     60.05219        6.286      1
    2     3     5     6     1   -162.04472       12.151      1
    2     3     5     7     1    -85.02539        3.988      1
    2     4     3     5     1   -114.95702        4.024      1
    2     4     7     5     1    168.04011        6.295      1
    2     4     7     8     1    -14.32371       12.131      1
    2     4     7     9     1    -40.94260       11.489      1
    2     5     3     4     1    135.95003        3.188      1
    2     5     7     4     1   -172.03859        4.754      1
    2     5     7     8     1   -173.69514       19.039      1
    2     5     7     9     1     37.99235       12.234      1
    3     2     4     7     1   -116.01159        6.261      1
    3     2     5     6     1     15.14254       11.446      1
    3     2     5     7     1    107.98882        4.775      1
    3     4     2     5     1    125.97978        3.240      1
    3     4     7     5     1   -122.02360        4.710      1
    3     4     7     8     1     55.67201       10.724      1
    3     4     7     9     1     28.88378       11.490      1
    3     5     2     4     1   -116.98009        4.051      1
    3     5     7     4     1    118.04164        4.783      1
    3     5     7     8     1    115.30673       18.334      1
    3     5     7     9     1    -32.88991       12.909      1
    4     2     3     5     1     86.00153        4.786      1
    4     2     5     6     1     80.06674       10.738      1
    4     2     5     7     1    171.94677        4.793      1
    4     3     2     5     1    -86.00153        4.786      1
    4     3     5     6     1    153.94759       12.166      1
    4     3     5     7     1   -129.02134        3.977      1
    4     7     5     6     1   -109.11403        6.994      1
    4     7     8     9     1     19.82189        9.254      1
    4     7     9     8     1   -150.11236       12.120      1
    4     7     9    10     1   -150.13835       23.268      1
    4     7     9    11     1     29.90434       13.567      1
    5     2     4     7     1   -170.02573        4.813      1
    5     3     4     7     1    126.97066        4.033      1
    5     7     8     9     1     23.73979       19.531      1
    5     7     9     8     1    -13.34913       14.267      1
    5     7     9    10     1    -15.96855       24.117      1
    5     7     9    11     1    166.20995       15.031      1
    6     5     7     8     1   -113.34023       17.691      1
    6     5     7     9     1     99.99289       13.589      1
    7     8     9    10     1     -0.95997        9.982      1
    7     8     9    11     1     -0.28868       26.437      1
    7     9    10    11     1      3.17517       23.333      1
    7     9    11    10     1     -2.04725       12.160      1
    8     7     9    10     1    178.42902       22.206      1
    8     7     9    11     1      1.91951       13.652      1
    8     9    10    11     1      0.94936       11.492      1
    8     9    11    10     1   -179.00727       31.982      1
