1TPCN00257
11
    1res  C1    1   -0.484   0.042   0.072
    1res  C2    2   -0.235   0.027   0.083
    1res  C3    3   -0.094   0.015  -0.247
    1res  C4    4   -0.061   0.177   0.021
    1res  C5    5    0.023  -0.153  -0.020
    1res  C6    6   -0.215  -0.272   0.088
    1res  C7    7    0.160   0.046  -0.028
    1res  C8    8    0.214   0.257  -0.003
    1res  C9    9    0.328   0.072   0.019
    1res  C10   10    0.540   0.188   0.082
    1res  C11   11    0.504  -0.102   0.059
  10.00000  10.00000  10.00000
