Generated with MDTraj, t= 0.0
 49
    1UNL     C1    1  -0.231  -0.208   0.169
    1UNL     C2    2  -0.180  -0.067   0.145
    1UNL     C3    3  -0.127  -0.039   0.002
    1UNL     C4    4  -0.247  -0.043  -0.101
    1UNL     C5    5  -0.274   0.089  -0.177
    1UNL     C6    6  -0.147   0.155  -0.234
    1UNL     N1    7  -0.030   0.139  -0.143
    1UNL     C7    8   0.069   0.249  -0.143
    1UNL     C8    9   0.142   0.243  -0.008
    1UNL     C9   10   0.067   0.140   0.081
    1UNL    C10   11   0.153   0.025   0.128
    1UNL    C11   12   0.152  -0.010   0.262
    1UNL    C12   13   0.231  -0.111   0.311
    1UNL    C13   14   0.315  -0.180   0.225
    1UNL    C14   15   0.319  -0.147   0.092
    1UNL    C15   16   0.238  -0.045   0.041
    1UNL     N2   17   0.243  -0.016  -0.099
    1UNL    C16   18   0.154  -0.049  -0.201
    1UNL     O1   19   0.172  -0.006  -0.313
    1UNL    C17   20   0.039  -0.143  -0.178
    1UNL    C18   21  -0.025  -0.150  -0.038
    1UNL    C19   22  -0.065   0.107   0.000
    1UNL     O2   23  -0.164   0.201   0.043
    1UNL     H1   24  -0.151  -0.282   0.164
    1UNL     H2   25  -0.307  -0.237   0.097
    1UNL     H3   26  -0.277  -0.218   0.268
    1UNL     H4   27  -0.260   0.005   0.165
    1UNL     H5   28  -0.101  -0.044   0.217
    1UNL     H6   29  -0.337  -0.072  -0.047
    1UNL     H7   30  -0.230  -0.124  -0.173
    1UNL     H8   31  -0.346   0.071  -0.258
    1UNL     H9   32  -0.323   0.159  -0.109
    1UNL    H10   33  -0.164   0.261  -0.251
    1UNL    H11   34  -0.120   0.111  -0.330
    1UNL    H12   35   0.016   0.344  -0.156
    1UNL    H13   36   0.136   0.236  -0.228
    1UNL    H14   37   0.146   0.342   0.039
    1UNL    H15   38   0.246   0.211  -0.021
    1UNL    H16   39   0.033   0.193   0.172
    1UNL    H17   40   0.088   0.044   0.330
    1UNL    H18   41   0.229  -0.137   0.415
    1UNL    H19   42   0.378  -0.259   0.263
    1UNL    H20   43   0.384  -0.199   0.024
    1UNL    H21   44   0.325   0.033  -0.132
    1UNL    H22   45  -0.037  -0.119  -0.253
    1UNL    H23   46   0.075  -0.243  -0.206
    1UNL    H24   47  -0.080  -0.245  -0.033
    1UNL    H25   48   0.051  -0.160   0.038
    1UNL    H26   49  -0.176   0.196   0.140
   0.00000   0.00000   0.00000   0.00000   0.00000   0.00000   0.00000   0.00000   0.00000
Generated with MDTraj, t= 1.0
 49
    1UNL     C1    1  -0.260  -0.190   0.155
    1UNL     C2    2  -0.173  -0.072   0.142
    1UNL     C3    3  -0.134  -0.033  -0.000
    1UNL     C4    4  -0.254  -0.048  -0.105
    1UNL     C5    5  -0.299   0.082  -0.172
    1UNL     C6    6  -0.176   0.171  -0.215
    1UNL     N1    7  -0.046   0.143  -0.138
    1UNL     C7    8   0.058   0.247  -0.153
    1UNL     C8    9   0.154   0.235  -0.024
    1UNL     C9   10   0.071   0.137   0.069
    1UNL    C10   11   0.161   0.025   0.122
    1UNL    C11   12   0.156  -0.003   0.256
    1UNL    C12   13   0.233  -0.099   0.315
    1UNL    C13   14   0.327  -0.169   0.242
    1UNL    C14   15   0.331  -0.153   0.107
    1UNL    C15   16   0.239  -0.067   0.045
    1UNL     N2   17   0.254  -0.035  -0.094
    1UNL    C16   18   0.174  -0.045  -0.204
    1UNL     O1   19   0.200  -0.009  -0.316
    1UNL    C17   20   0.047  -0.136  -0.189
    1UNL    C18   21  -0.025  -0.149  -0.046
    1UNL    C19   22  -0.068   0.107   0.001
    1UNL     O2   23  -0.164   0.195   0.073
    1UNL     H1   24  -0.214  -0.283   0.106
    1UNL     H2   25  -0.356  -0.178   0.110
    1UNL     H3   26  -0.256  -0.236   0.256
    1UNL     H4   27  -0.205   0.015   0.198
    1UNL     H5   28  -0.074  -0.100   0.179
    1UNL     H6   29  -0.342  -0.098  -0.060
    1UNL     H7   30  -0.225  -0.116  -0.177
    1UNL     H8   31  -0.354   0.057  -0.263
    1UNL     H9   32  -0.375   0.132  -0.116
    1UNL    H10   33  -0.192   0.268  -0.172
    1UNL    H11   34  -0.155   0.198  -0.320
    1UNL    H12   35   0.017   0.348  -0.157
    1UNL    H13   36   0.117   0.234  -0.243
    1UNL    H14   37   0.171   0.333   0.015
    1UNL    H15   38   0.251   0.184  -0.062
    1UNL    H16   39   0.051   0.201   0.156
    1UNL    H17   40   0.102   0.058   0.329
    1UNL    H18   41   0.202  -0.131   0.416
    1UNL    H19   42   0.402  -0.234   0.284
    1UNL    H20   43   0.395  -0.201   0.046
    1UNL    H21   44   0.340   0.022  -0.110
    1UNL    H22   45  -0.021  -0.106  -0.266
    1UNL    H23   46   0.067  -0.236  -0.233
    1UNL    H24   47  -0.073  -0.249  -0.048
    1UNL    H25   48   0.042  -0.148   0.038
    1UNL    H26   49  -0.253   0.186   0.034
   0.00000   0.00000   0.00000   0.00000   0.00000   0.00000   0.00000   0.00000   0.00000
Generated with MDTraj, t= 2.0
 49
    1UNL     C1    1  -0.248  -0.203   0.156
    1UNL     C2    2  -0.170  -0.076   0.141
    1UNL     C3    3  -0.129  -0.040  -0.001
    1UNL     C4    4  -0.249  -0.049  -0.100
    1UNL     C5    5  -0.300   0.086  -0.147
    1UNL     C6    6  -0.188   0.173  -0.206
    1UNL     N1    7  -0.053   0.145  -0.142
    1UNL     C7    8   0.044   0.247  -0.155
    1UNL     C8    9   0.155   0.219  -0.044
    1UNL     C9   10   0.081   0.134   0.063
    1UNL    C10   11   0.154   0.016   0.122
    1UNL    C11   12   0.147   0.001   0.261
    1UNL    C12   13   0.225  -0.096   0.324
    1UNL    C13   14   0.315  -0.169   0.250
    1UNL    C14   15   0.329  -0.148   0.114
    1UNL    C15   16   0.248  -0.058   0.045
    1UNL     N2   17   0.261  -0.052  -0.098
    1UNL    C16   18   0.172  -0.052  -0.203
    1UNL     O1   19   0.214  -0.003  -0.302
    1UNL    C17   20   0.036  -0.105  -0.201
    1UNL    C18   21  -0.027  -0.138  -0.056
    1UNL    C19   22  -0.063   0.107   0.001
    1UNL     O2   23  -0.164   0.193   0.054
    1UNL     H1   24  -0.178  -0.295   0.135
    1UNL     H2   25  -0.331  -0.204   0.087
    1UNL     H3   26  -0.261  -0.238   0.260
    1UNL     H4   27  -0.237   0.005   0.172
    1UNL     H5   28  -0.085  -0.074   0.210
    1UNL     H6   29  -0.335  -0.114  -0.067
    1UNL     H7   30  -0.224  -0.097  -0.186
    1UNL     H8   31  -0.384   0.075  -0.217
    1UNL     H9   32  -0.337   0.144  -0.070
    1UNL    H10   33  -0.200   0.280  -0.213
    1UNL    H11   34  -0.168   0.145  -0.313
    1UNL    H12   35   0.008   0.348  -0.133
    1UNL    H13   36   0.092   0.258  -0.250
    1UNL    H14   37   0.198   0.308  -0.004
    1UNL    H15   38   0.234   0.154  -0.102
    1UNL    H16   39   0.068   0.206   0.146
    1UNL    H17   40   0.065   0.045   0.312
    1UNL    H18   41   0.238  -0.109   0.428
    1UNL    H19   42   0.369  -0.249   0.298
    1UNL    H20   43   0.420  -0.189   0.052
    1UNL    H21   44   0.356  -0.075  -0.143
    1UNL    H22   45  -0.025  -0.060  -0.274
    1UNL    H23   46   0.041  -0.205  -0.253
    1UNL    H24   47  -0.080  -0.236  -0.050
    1UNL    H25   48   0.055  -0.142   0.016
    1UNL    H26   49  -0.128   0.286   0.070
   0.00000   0.00000   0.00000   0.00000   0.00000   0.00000   0.00000   0.00000   0.00000
Generated with MDTraj, t= 3.0
 49
    1UNL     C1    1  -0.186  -0.222   0.167
    1UNL     C2    2  -0.164  -0.073   0.136
    1UNL     C3    3  -0.121  -0.042  -0.009
    1UNL     C4    4  -0.252  -0.044  -0.099
    1UNL     C5    5  -0.297   0.095  -0.152
    1UNL     C6    6  -0.192   0.198  -0.205
    1UNL     N1    7  -0.062   0.156  -0.150
    1UNL     C7    8   0.051   0.246  -0.161
    1UNL     C8    9   0.150   0.211  -0.056
    1UNL     C9   10   0.074   0.149   0.058
    1UNL    C10   11   0.157   0.033   0.121
    1UNL    C11   12   0.142   0.004   0.257
    1UNL    C12   13   0.215  -0.094   0.327
    1UNL    C13   14   0.295  -0.179   0.251
    1UNL    C14   15   0.307  -0.160   0.116
    1UNL    C15   16   0.241  -0.057   0.050
    1UNL     N2   17   0.266  -0.051  -0.091
    1UNL    C16   18   0.176  -0.059  -0.204
    1UNL     O1   19   0.214  -0.005  -0.302
    1UNL    C17   20   0.038  -0.125  -0.205
    1UNL    C18   21  -0.027  -0.154  -0.059
    1UNL    C19   22  -0.070   0.114  -0.003
    1UNL     O2   23  -0.161   0.189   0.078
    1UNL     H1   24  -0.088  -0.287   0.163
    1UNL     H2   25  -0.259  -0.261   0.094
    1UNL     H3   26  -0.207  -0.246   0.271
    1UNL     H4   27  -0.261  -0.024   0.146
    1UNL     H5   28  -0.107  -0.030   0.218
    1UNL     H6   29  -0.343  -0.089  -0.051
    1UNL     H7   30  -0.246  -0.107  -0.184
    1UNL     H8   31  -0.372   0.092  -0.234
    1UNL     H9   32  -0.340   0.142  -0.072
    1UNL    H10   33  -0.210   0.302  -0.182
    1UNL    H11   34  -0.179   0.187  -0.315
    1UNL    H12   35   0.020   0.351  -0.146
    1UNL    H13   36   0.093   0.243  -0.258
    1UNL    H14   37   0.200   0.298  -0.016
    1UNL    H15   38   0.222   0.140  -0.093
    1UNL    H16   39   0.045   0.226   0.135
    1UNL    H17   40   0.076   0.072   0.313
    1UNL    H18   41   0.182  -0.123   0.429
    1UNL    H19   42   0.360  -0.245   0.306
    1UNL    H20   43   0.366  -0.230   0.062
    1UNL    H21   44   0.359  -0.011  -0.122
    1UNL    H22   45  -0.035  -0.082  -0.266
    1UNL    H23   46   0.044  -0.219  -0.267
    1UNL    H24   47  -0.100  -0.239  -0.064
    1UNL    H25   48   0.046  -0.180   0.020
    1UNL    H26   49  -0.121   0.277   0.073
   0.00000   0.00000   0.00000   0.00000   0.00000   0.00000   0.00000   0.00000   0.00000
Generated with MDTraj, t= 4.0
 49
    1UNL     C1    1  -0.176  -0.221   0.181
    1UNL     C2    2  -0.169  -0.073   0.140
    1UNL     C3    3  -0.121  -0.043  -0.005
    1UNL     C4    4  -0.246  -0.038  -0.095
    1UNL     C5    5  -0.310   0.098  -0.131
    1UNL     C6    6  -0.198   0.170  -0.208
    1UNL     N1    7  -0.061   0.150  -0.145
    1UNL     C7    8   0.041   0.266  -0.163
    1UNL     C8    9   0.153   0.234  -0.062
    1UNL     C9   10   0.084   0.139   0.050
    1UNL    C10   11   0.149   0.026   0.118
    1UNL    C11   12   0.137   0.015   0.256
    1UNL    C12   13   0.198  -0.096   0.310
    1UNL    C13   14   0.278  -0.191   0.247
    1UNL    C14   15   0.295  -0.171   0.114
    1UNL    C15   16   0.237  -0.061   0.048
    1UNL     N2   17   0.267  -0.053  -0.087
    1UNL    C16   18   0.183  -0.051  -0.201
    1UNL     O1   19   0.227  -0.011  -0.304
    1UNL    C17   20   0.052  -0.108  -0.201
    1UNL    C18   21  -0.018  -0.153  -0.062
    1UNL    C19   22  -0.062   0.105  -0.002
    1UNL     O2   23  -0.154   0.196   0.068
    1UNL     H1   24  -0.070  -0.268   0.173
    1UNL     H2   25  -0.233  -0.282   0.105
    1UNL     H3   26  -0.202  -0.253   0.280
    1UNL     H4   27  -0.258  -0.020   0.171
    1UNL     H5   28  -0.091  -0.031   0.204
    1UNL     H6   29  -0.325  -0.093  -0.040
    1UNL     H7   30  -0.242  -0.092  -0.196
    1UNL     H8   31  -0.397   0.088  -0.199
    1UNL     H9   32  -0.335   0.159  -0.051
    1UNL    H10   33  -0.210   0.279  -0.210
    1UNL    H11   34  -0.184   0.130  -0.311
    1UNL    H12   35  -0.017   0.358  -0.159
    1UNL    H13   36   0.063   0.251  -0.265
    1UNL    H14   37   0.198   0.324  -0.023
    1UNL    H15   38   0.235   0.184  -0.095
    1UNL    H16   39   0.067   0.209   0.137
    1UNL    H17   40   0.072   0.078   0.310
    1UNL    H18   41   0.178  -0.102   0.412
    1UNL    H19   42   0.308  -0.284   0.290
    1UNL    H20   43   0.365  -0.232   0.066
    1UNL    H21   44   0.366  -0.026  -0.107
    1UNL    H22   45  -0.009  -0.033  -0.247
    1UNL    H23   46   0.033  -0.183  -0.283
    1UNL    H24   47  -0.078  -0.248  -0.067
    1UNL    H25   48   0.057  -0.183   0.013
    1UNL    H26   49  -0.108   0.281   0.072
   0.00000   0.00000   0.00000   0.00000   0.00000   0.00000   0.00000   0.00000   0.00000
Generated with MDTraj, t= 5.0
 49
    1UNL     C1    1  -0.205  -0.222   0.170
    1UNL     C2    2  -0.148  -0.083   0.148
    1UNL     C3    3  -0.121  -0.035   0.004
    1UNL     C4    4  -0.246  -0.050  -0.084
    1UNL     C5    5  -0.298   0.072  -0.153
    1UNL     C6    6  -0.192   0.175  -0.202
    1UNL     N1    7  -0.059   0.157  -0.150
    1UNL     C7    8   0.055   0.258  -0.166
    1UNL     C8    9   0.151   0.226  -0.058
    1UNL     C9   10   0.076   0.147   0.055
    1UNL    C10   11   0.157   0.028   0.117
    1UNL    C11   12   0.144   0.007   0.253
    1UNL    C12   13   0.196  -0.102   0.320
    1UNL    C13   14   0.281  -0.182   0.246
    1UNL    C14   15   0.303  -0.164   0.110
    1UNL    C15   16   0.238  -0.058   0.048
    1UNL     N2   17   0.265  -0.044  -0.090
    1UNL    C16   18   0.174  -0.047  -0.205
    1UNL     O1   19   0.232  -0.023  -0.309
    1UNL    C17   20   0.032  -0.092  -0.197
    1UNL    C18   21  -0.030  -0.138  -0.060
    1UNL    C19   22  -0.064   0.113  -0.004
    1UNL     O2   23  -0.155   0.194   0.071
    1UNL     H1   24  -0.139  -0.302   0.120
    1UNL     H2   25  -0.302  -0.249   0.112
    1UNL     H3   26  -0.213  -0.247   0.273
    1UNL     H4   27  -0.205  -0.007   0.202
    1UNL     H5   28  -0.056  -0.079   0.205
    1UNL     H6   29  -0.330  -0.091  -0.027
    1UNL     H7   30  -0.236  -0.133  -0.170
    1UNL     H8   31  -0.375   0.053  -0.228
    1UNL     H9   32  -0.355   0.125  -0.079
    1UNL    H10   33  -0.211   0.278  -0.164
    1UNL    H11   34  -0.182   0.184  -0.310
    1UNL    H12   35  -0.008   0.347  -0.162
    1UNL    H13   36   0.090   0.243  -0.262
    1UNL    H14   37   0.194   0.312  -0.013
    1UNL    H15   38   0.242   0.177  -0.094
    1UNL    H16   39   0.061   0.220   0.140
    1UNL    H17   40   0.086   0.077   0.314
    1UNL    H18   41   0.176  -0.136   0.425
    1UNL    H19   42   0.336  -0.257   0.301
    1UNL    H20   43   0.373  -0.231   0.044
    1UNL    H21   44   0.366  -0.043  -0.108
    1UNL    H22   45  -0.034  -0.041  -0.267
    1UNL    H23   46   0.033  -0.186  -0.262
    1UNL    H24   47  -0.086  -0.236  -0.068
    1UNL    H25   48   0.046  -0.165   0.014
    1UNL    H26   49  -0.144   0.295   0.063
   0.00000   0.00000   0.00000   0.00000   0.00000   0.00000   0.00000   0.00000   0.00000
Generated with MDTraj, t= 6.0
 49
    1UNL     C1    1  -0.236  -0.215   0.151
    1UNL     C2    2  -0.172  -0.077   0.133
    1UNL     C3    3  -0.126  -0.045  -0.014
    1UNL     C4    4  -0.250  -0.041  -0.113
    1UNL     C5    5  -0.300   0.102  -0.134
    1UNL     C6    6  -0.193   0.190  -0.202
    1UNL     N1    7  -0.059   0.155  -0.147
    1UNL     C7    8   0.056   0.254  -0.156
    1UNL     C8    9   0.148   0.234  -0.037
    1UNL     C9   10   0.075   0.140   0.064
    1UNL    C10   11   0.148   0.023   0.123
    1UNL    C11   12   0.153   0.009   0.260
    1UNL    C12   13   0.239  -0.086   0.316
    1UNL    C13   14   0.319  -0.174   0.245
    1UNL    C14   15   0.320  -0.153   0.109
    1UNL    C15   16   0.236  -0.059   0.044
    1UNL     N2   17   0.253  -0.033  -0.092
    1UNL    C16   18   0.169  -0.065  -0.198
    1UNL     O1   19   0.216  -0.021  -0.304
    1UNL    C17   20   0.049  -0.146  -0.189
    1UNL    C18   21  -0.025  -0.151  -0.054
    1UNL    C19   22  -0.066   0.103  -0.003
    1UNL     O2   23  -0.159   0.185   0.067
    1UNL     H1   24  -0.173  -0.307   0.123
    1UNL     H2   25  -0.309  -0.230   0.062
    1UNL     H3   26  -0.283  -0.215   0.248
    1UNL     H4   27  -0.250  -0.001   0.148
    1UNL     H5   28  -0.102  -0.060   0.216
    1UNL     H6   29  -0.336  -0.104  -0.085
    1UNL     H7   30  -0.223  -0.086  -0.220
    1UNL     H8   31  -0.384   0.104  -0.198
    1UNL     H9   32  -0.335   0.140  -0.040
    1UNL    H10   33  -0.212   0.301  -0.209
    1UNL    H11   34  -0.173   0.157  -0.304
    1UNL    H12   35   0.024   0.358  -0.147
    1UNL    H13   36   0.106   0.239  -0.246
    1UNL    H14   37   0.189   0.320   0.007
    1UNL    H15   38   0.235   0.168  -0.073
    1UNL    H16   39   0.045   0.200   0.155
    1UNL    H17   40   0.102   0.078   0.323
    1UNL    H18   41   0.247  -0.086   0.420
    1UNL    H19   42   0.396  -0.234   0.293
    1UNL    H20   43   0.383  -0.208   0.050
    1UNL    H21   44   0.334   0.017  -0.119
    1UNL    H22   45  -0.027  -0.128  -0.266
    1UNL    H23   46   0.068  -0.252  -0.224
    1UNL    H24   47  -0.086  -0.246  -0.052
    1UNL    H25   48   0.053  -0.165   0.020
    1UNL    H26   49  -0.141   0.282   0.057
   0.00000   0.00000   0.00000   0.00000   0.00000   0.00000   0.00000   0.00000   0.00000
Generated with MDTraj, t= 7.0
 49
    1UNL     C1    1  -0.257  -0.204   0.157
    1UNL     C2    2  -0.204  -0.062   0.127
    1UNL     C3    3  -0.131  -0.046  -0.007
    1UNL     C4    4  -0.244  -0.050  -0.123
    1UNL     C5    5  -0.290   0.089  -0.181
    1UNL     C6    6  -0.171   0.189  -0.212
    1UNL     N1    7  -0.050   0.156  -0.137
    1UNL     C7    8   0.060   0.258  -0.137
    1UNL     C8    9   0.156   0.223  -0.019
    1UNL     C9   10   0.072   0.130   0.067
    1UNL    C10   11   0.157   0.016   0.119
    1UNL    C11   12   0.156  -0.004   0.255
    1UNL    C12   13   0.241  -0.095   0.315
    1UNL    C13   14   0.342  -0.152   0.234
    1UNL    C14   15   0.345  -0.138   0.101
    1UNL    C15   16   0.254  -0.051   0.045
    1UNL     N2   17   0.259  -0.046  -0.097
    1UNL    C16   18   0.158  -0.059  -0.193
    1UNL     O1   19   0.171  -0.007  -0.307
    1UNL    C17   20   0.041  -0.149  -0.174
    1UNL    C18   21  -0.022  -0.158  -0.031
    1UNL    C19   22  -0.070   0.104  -0.002
    1UNL     O2   23  -0.168   0.185   0.066
    1UNL     H1   24  -0.171  -0.277   0.151
    1UNL     H2   25  -0.324  -0.254   0.077
    1UNL     H3   26  -0.303  -0.196   0.254
    1UNL     H4   27  -0.283   0.012   0.141
    1UNL     H5   28  -0.126  -0.029   0.197
    1UNL     H6   29  -0.335  -0.106  -0.090
    1UNL     H7   30  -0.211  -0.105  -0.213
    1UNL     H8   31  -0.343   0.072  -0.265
    1UNL     H9   32  -0.353   0.138  -0.107
    1UNL    H10   33  -0.187   0.301  -0.189
    1UNL    H11   34  -0.150   0.180  -0.318
    1UNL    H12   35   0.030   0.359  -0.105
    1UNL    H13   36   0.119   0.266  -0.222
    1UNL    H14   37   0.177   0.306   0.038
    1UNL    H15   38   0.252   0.168  -0.057
    1UNL    H16   39   0.032   0.187   0.157
    1UNL    H17   40   0.081   0.048   0.315
    1UNL    H18   41   0.236  -0.097   0.426
    1UNL    H19   42   0.403  -0.229   0.277
    1UNL    H20   43   0.423  -0.190   0.047
    1UNL    H21   44   0.343  -0.013  -0.136
    1UNL    H22   45  -0.031  -0.124  -0.255
    1UNL    H23   46   0.059  -0.253  -0.218
    1UNL    H24   47  -0.072  -0.257  -0.015
    1UNL    H25   48   0.067  -0.155   0.032
    1UNL    H26   49  -0.135   0.275   0.068
   0.00000   0.00000   0.00000   0.00000   0.00000   0.00000   0.00000   0.00000   0.00000
Generated with MDTraj, t= 8.0
 49
    1UNL     C1    1  -0.251  -0.196   0.160
    1UNL     C2    2  -0.191  -0.063   0.134
    1UNL     C3    3  -0.128  -0.043  -0.003
    1UNL     C4    4  -0.244  -0.043  -0.107
    1UNL     C5    5  -0.281   0.090  -0.160
    1UNL     C6    6  -0.156   0.150  -0.236
    1UNL     N1    7  -0.026   0.134  -0.155
    1UNL     C7    8   0.077   0.244  -0.144
    1UNL     C8    9   0.138   0.236   0.004
    1UNL     C9   10   0.058   0.125   0.081
    1UNL    C10   11   0.154   0.019   0.131
    1UNL    C11   12   0.150  -0.021   0.267
    1UNL    C12   13   0.247  -0.112   0.312
    1UNL    C13   14   0.332  -0.172   0.224
    1UNL    C14   15   0.335  -0.130   0.090
    1UNL    C15   16   0.247  -0.037   0.039
    1UNL     N2   17   0.252  -0.016  -0.101
    1UNL    C16   18   0.153  -0.050  -0.192
    1UNL     O1   19   0.146   0.013  -0.300
    1UNL    C17   20   0.051  -0.149  -0.163
    1UNL    C18   21  -0.027  -0.156  -0.034
    1UNL    C19   22  -0.064   0.102  -0.013
    1UNL     O2   23  -0.170   0.199   0.035
    1UNL     H1   24  -0.181  -0.279   0.130
    1UNL     H2   25  -0.339  -0.220   0.092
    1UNL     H3   26  -0.285  -0.183   0.263
    1UNL     H4   27  -0.255   0.020   0.161
    1UNL     H5   28  -0.104  -0.053   0.200
    1UNL     H6   29  -0.331  -0.095  -0.060
    1UNL     H7   30  -0.216  -0.111  -0.182
    1UNL     H8   31  -0.356   0.079  -0.226
    1UNL     H9   32  -0.313   0.155  -0.079
    1UNL    H10   33  -0.181   0.262  -0.242
    1UNL    H11   34  -0.136   0.114  -0.338
    1UNL    H12   35   0.045   0.347  -0.169
    1UNL    H13   36   0.160   0.232  -0.206
    1UNL    H14   37   0.129   0.329   0.052
    1UNL    H15   38   0.248   0.218   0.002
    1UNL    H16   39   0.027   0.173   0.178
    1UNL    H17   40   0.092   0.041   0.334
    1UNL    H18   41   0.242  -0.162   0.405
    1UNL    H19   42   0.402  -0.244   0.269
    1UNL    H20   43   0.395  -0.187   0.009
    1UNL    H21   44   0.331   0.031  -0.136
    1UNL    H22   45  -0.016  -0.154  -0.250
    1UNL    H23   46   0.100  -0.247  -0.188
    1UNL    H24   47  -0.074  -0.259  -0.038
    1UNL    H25   48   0.036  -0.148   0.055
    1UNL    H26   49  -0.128   0.289   0.036
   0.00000   0.00000   0.00000   0.00000   0.00000   0.00000   0.00000   0.00000   0.00000
Generated with MDTraj, t= 9.0
 49
    1UNL     C1    1  -0.236  -0.199   0.171
    1UNL     C2    2  -0.174  -0.059   0.157
    1UNL     C3    3  -0.118  -0.038   0.006
    1UNL     C4    4  -0.246  -0.052  -0.097
    1UNL     C5    5  -0.257   0.058  -0.207
    1UNL     C6    6  -0.130   0.140  -0.240
    1UNL     N1    7  -0.029   0.155  -0.126
    1UNL     C7    8   0.072   0.259  -0.119
    1UNL     C8    9   0.135   0.257   0.019
    1UNL     C9   10   0.056   0.147   0.099
    1UNL    C10   11   0.148   0.030   0.133
    1UNL    C11   12   0.162  -0.011   0.262
    1UNL    C12   13   0.232  -0.121   0.297
    1UNL    C13   14   0.302  -0.189   0.198
    1UNL    C14   15   0.308  -0.139   0.070
    1UNL    C15   16   0.229  -0.032   0.038
    1UNL     N2   17   0.233   0.009  -0.104
    1UNL    C16   18   0.153  -0.048  -0.204
    1UNL     O1   19   0.174  -0.034  -0.326
    1UNL    C17   20   0.036  -0.147  -0.172
    1UNL    C18   21  -0.015  -0.150  -0.026
    1UNL    C19   22  -0.063   0.108   0.007
    1UNL     O2   23  -0.172   0.191   0.041
    1UNL     H1   24  -0.166  -0.287   0.164
    1UNL     H2   25  -0.304  -0.221   0.084
    1UNL     H3   26  -0.304  -0.193   0.257
    1UNL     H4   27  -0.249   0.021   0.165
    1UNL     H5   28  -0.100  -0.034   0.233
    1UNL     H6   29  -0.332  -0.060  -0.026
    1UNL     H7   30  -0.236  -0.146  -0.136
    1UNL     H8   31  -0.300   0.011  -0.292
    1UNL     H9   32  -0.327   0.127  -0.165
    1UNL    H10   33  -0.146   0.246  -0.281
    1UNL    H11   34  -0.078   0.088  -0.324
    1UNL    H12   35   0.021   0.355  -0.144
    1UNL    H13   36   0.143   0.252  -0.198
    1UNL    H14   37   0.141   0.354   0.065
    1UNL    H15   38   0.237   0.234   0.007
    1UNL    H16   39   0.020   0.184   0.197
    1UNL    H17   40   0.098   0.032   0.336
    1UNL    H18   41   0.249  -0.138   0.405
    1UNL    H19   42   0.350  -0.282   0.212
    1UNL    H20   43   0.369  -0.180   0.003
    1UNL    H21   44   0.326   0.032  -0.136
    1UNL    H22   45  -0.047  -0.123  -0.243
    1UNL    H23   46   0.056  -0.249  -0.210
    1UNL    H24   47  -0.071  -0.244  -0.007
    1UNL    H25   48   0.075  -0.161   0.036
    1UNL    H26   49  -0.151   0.284   0.006
   0.00000   0.00000   0.00000   0.00000   0.00000   0.00000   0.00000   0.00000   0.00000
Generated with MDTraj, t= 10.0
 49
    1UNL     C1    1  -0.216  -0.204   0.187
    1UNL     C2    2  -0.170  -0.064   0.145
    1UNL     C3    3  -0.122  -0.043  -0.005
    1UNL     C4    4  -0.248  -0.043  -0.101
    1UNL     C5    5  -0.249   0.093  -0.186
    1UNL     C6    6  -0.116   0.127  -0.248
    1UNL     N1    7  -0.013   0.146  -0.140
    1UNL     C7    8   0.072   0.269  -0.113
    1UNL     C8    9   0.114   0.268   0.034
    1UNL     C9   10   0.051   0.146   0.102
    1UNL    C10   11   0.156   0.041   0.130
    1UNL    C11   12   0.160  -0.006   0.263
    1UNL    C12   13   0.228  -0.123   0.293
    1UNL    C13   14   0.309  -0.189   0.204
    1UNL    C14   15   0.304  -0.142   0.073
    1UNL    C15   16   0.224  -0.030   0.029
    1UNL     N2   17   0.219   0.012  -0.111
    1UNL    C16   18   0.152  -0.062  -0.206
    1UNL     O1   19   0.179  -0.044  -0.320
    1UNL    C17   20   0.043  -0.158  -0.173
    1UNL    C18   21  -0.030  -0.155  -0.040
    1UNL    C19   22  -0.064   0.106   0.001
    1UNL     O2   23  -0.174   0.194   0.047
    1UNL     H1   24  -0.142  -0.282   0.159
    1UNL     H2   25  -0.309  -0.241   0.140
    1UNL     H3   26  -0.246  -0.197   0.297
    1UNL     H4   27  -0.247   0.012   0.161
    1UNL     H5   28  -0.087  -0.035   0.211
    1UNL     H6   29  -0.331  -0.039  -0.026
    1UNL     H7   30  -0.255  -0.133  -0.151
    1UNL     H8   31  -0.322   0.075  -0.270
    1UNL     H9   32  -0.284   0.170  -0.123
    1UNL    H10   33  -0.129   0.219  -0.316
    1UNL    H11   34  -0.078   0.041  -0.310
    1UNL    H12   35   0.009   0.358  -0.135
    1UNL    H13   36   0.146   0.268  -0.190
    1UNL    H14   37   0.083   0.362   0.078
    1UNL    H15   38   0.214   0.260   0.044
    1UNL    H16   39  -0.003   0.167   0.196
    1UNL    H17   40   0.094   0.042   0.338
    1UNL    H18   41   0.215  -0.155   0.394
    1UNL    H19   42   0.373  -0.274   0.236
    1UNL    H20   43   0.361  -0.197  -0.005
    1UNL    H21   44   0.295   0.076  -0.145
    1UNL    H22   45  -0.040  -0.156  -0.251
    1UNL    H23   46   0.083  -0.258  -0.190
    1UNL    H24   47  -0.094  -0.246  -0.041
    1UNL    H25   48   0.045  -0.183   0.037
    1UNL    H26   49  -0.172   0.274  -0.006
   0.00000   0.00000   0.00000   0.00000   0.00000   0.00000   0.00000   0.00000   0.00000
Generated with MDTraj, t= 11.0
 49
    1UNL     C1    1  -0.248  -0.204   0.161
    1UNL     C2    2  -0.198  -0.061   0.142
    1UNL     C3    3  -0.132  -0.041   0.005
    1UNL     C4    4  -0.240  -0.054  -0.114
    1UNL     C5    5  -0.267   0.073  -0.205
    1UNL     C6    6  -0.141   0.159  -0.221
    1UNL     N1    7  -0.027   0.146  -0.134
    1UNL     C7    8   0.081   0.258  -0.137
    1UNL     C8    9   0.141   0.241   0.006
    1UNL     C9   10   0.067   0.131   0.088
    1UNL    C10   11   0.154   0.016   0.128
    1UNL    C11   12   0.157  -0.018   0.261
    1UNL    C12   13   0.255  -0.102   0.314
    1UNL    C13   14   0.323  -0.172   0.215
    1UNL    C14   15   0.329  -0.141   0.079
    1UNL    C15   16   0.243  -0.043   0.037
    1UNL     N2   17   0.231  -0.001  -0.095
    1UNL    C16   18   0.145  -0.051  -0.198
    1UNL     O1   19   0.150  -0.006  -0.309
    1UNL    C17   20   0.041  -0.154  -0.165
    1UNL    C18   21  -0.032  -0.151  -0.025
    1UNL    C19   22  -0.061   0.106   0.003
    1UNL     O2   23  -0.161   0.196   0.040
    1UNL     H1   24  -0.165  -0.277   0.176
    1UNL     H2   25  -0.303  -0.257   0.083
    1UNL     H3   26  -0.330  -0.202   0.245
    1UNL     H4   27  -0.277   0.009   0.173
    1UNL     H5   28  -0.112  -0.050   0.209
    1UNL     H6   29  -0.335  -0.092  -0.068
    1UNL     H7   30  -0.203  -0.133  -0.170
    1UNL     H8   31  -0.309   0.039  -0.309
    1UNL     H9   32  -0.336   0.131  -0.151
    1UNL    H10   33  -0.171   0.269  -0.227
    1UNL    H11   34  -0.108   0.132  -0.326
    1UNL    H12   35   0.023   0.349  -0.159
    1UNL    H13   36   0.144   0.227  -0.220
    1UNL    H14   37   0.123   0.333   0.059
    1UNL    H15   38   0.241   0.217  -0.010
    1UNL    H16   39   0.027   0.182   0.177
    1UNL    H17   40   0.095   0.041   0.322
    1UNL    H18   41   0.263  -0.135   0.417
    1UNL    H19   42   0.381  -0.252   0.251
    1UNL    H20   43   0.401  -0.189   0.004
    1UNL    H21   44   0.295   0.078  -0.128
    1UNL    H22   45  -0.037  -0.143  -0.248
    1UNL    H23   46   0.081  -0.252  -0.191
    1UNL    H24   47  -0.070  -0.252   0.002
    1UNL    H25   48   0.039  -0.144   0.058
    1UNL    H26   49  -0.158   0.278  -0.013
   0.00000   0.00000   0.00000   0.00000   0.00000   0.00000   0.00000   0.00000   0.00000
Generated with MDTraj, t= 12.0
 49
    1UNL     C1    1  -0.285  -0.184   0.150
    1UNL     C2    2  -0.191  -0.070   0.132
    1UNL     C3    3  -0.131  -0.049  -0.008
    1UNL     C4    4  -0.249  -0.050  -0.118
    1UNL     C5    5  -0.285   0.093  -0.158
    1UNL     C6    6  -0.165   0.159  -0.236
    1UNL     N1    7  -0.040   0.147  -0.152
    1UNL     C7    8   0.069   0.257  -0.138
    1UNL     C8    9   0.142   0.235  -0.001
    1UNL     C9   10   0.069   0.125   0.078
    1UNL    C10   11   0.158   0.011   0.118
    1UNL    C11   12   0.149  -0.020   0.250
    1UNL    C12   13   0.245  -0.098   0.310
    1UNL    C13   14   0.358  -0.149   0.240
    1UNL    C14   15   0.352  -0.140   0.102
    1UNL    C15   16   0.255  -0.054   0.039
    1UNL     N2   17   0.256  -0.022  -0.099
    1UNL    C16   18   0.156  -0.047  -0.192
    1UNL     O1   19   0.155   0.007  -0.300
    1UNL    C17   20   0.053  -0.162  -0.163
    1UNL    C18   21  -0.029  -0.163  -0.034
    1UNL    C19   22  -0.061   0.099  -0.005
    1UNL     O2   23  -0.156   0.197   0.057
    1UNL     H1   24  -0.255  -0.278   0.102
    1UNL     H2   25  -0.381  -0.172   0.097
    1UNL     H3   26  -0.339  -0.202   0.254
    1UNL     H4   27  -0.243   0.023   0.158
    1UNL     H5   28  -0.111  -0.080   0.206
    1UNL     H6   29  -0.336  -0.106  -0.078
    1UNL     H7   30  -0.207  -0.099  -0.205
    1UNL     H8   31  -0.377   0.081  -0.233
    1UNL     H9   32  -0.309   0.153  -0.077
    1UNL    H10   33  -0.207   0.265  -0.245
    1UNL    H11   34  -0.161   0.129  -0.348
    1UNL    H12   35   0.022   0.356  -0.145
    1UNL    H13   36   0.135   0.236  -0.225
    1UNL    H14   37   0.146   0.329   0.050
    1UNL    H15   38   0.240   0.189  -0.023
    1UNL    H16   39   0.028   0.172   0.167
    1UNL    H17   40   0.061   0.003   0.315
    1UNL    H18   41   0.234  -0.111   0.416
    1UNL    H19   42   0.431  -0.219   0.284
    1UNL    H20   43   0.423  -0.182   0.048
    1UNL    H21   44   0.322   0.052  -0.134
    1UNL    H22   45  -0.017  -0.140  -0.253
    1UNL    H23   46   0.087  -0.261  -0.189
    1UNL    H24   47  -0.092  -0.255  -0.039
    1UNL    H25   48   0.034  -0.190   0.051
    1UNL    H26   49  -0.169   0.282   0.004
   0.00000   0.00000   0.00000   0.00000   0.00000   0.00000   0.00000   0.00000   0.00000
Generated with MDTraj, t= 13.0
 49
    1UNL     C1    1  -0.280  -0.192   0.149
    1UNL     C2    2  -0.181  -0.073   0.133
    1UNL     C3    3  -0.122  -0.044  -0.009
    1UNL     C4    4  -0.243  -0.051  -0.117
    1UNL     C5    5  -0.301   0.086  -0.174
    1UNL     C6    6  -0.177   0.186  -0.210
    1UNL     N1    7  -0.051   0.161  -0.135
    1UNL     C7    8   0.070   0.245  -0.151
    1UNL     C8    9   0.144   0.235  -0.018
    1UNL     C9   10   0.068   0.136   0.070
    1UNL    C10   11   0.153   0.020   0.126
    1UNL    C11   12   0.155  -0.010   0.265
    1UNL    C12   13   0.250  -0.097   0.322
    1UNL    C13   14   0.333  -0.166   0.235
    1UNL    C14   15   0.341  -0.140   0.099
    1UNL    C15   16   0.249  -0.048   0.041
    1UNL     N2   17   0.262  -0.017  -0.098
    1UNL    C16   18   0.168  -0.060  -0.197
    1UNL     O1   19   0.186  -0.025  -0.310
    1UNL    C17   20   0.045  -0.145  -0.176
    1UNL    C18   21  -0.021  -0.153  -0.038
    1UNL    C19   22  -0.067   0.100  -0.000
    1UNL     O2   23  -0.166   0.182   0.068
    1UNL     H1   24  -0.240  -0.282   0.101
    1UNL     H2   25  -0.373  -0.171   0.097
    1UNL     H3   26  -0.328  -0.208   0.256
    1UNL     H4   27  -0.231   0.020   0.163
    1UNL     H5   28  -0.110  -0.095   0.214
    1UNL     H6   29  -0.323  -0.114  -0.075
    1UNL     H7   30  -0.202  -0.110  -0.203
    1UNL     H8   31  -0.377   0.070  -0.265
    1UNL     H9   32  -0.356   0.128  -0.096
    1UNL    H10   33  -0.218   0.292  -0.208
    1UNL    H11   34  -0.167   0.178  -0.326
    1UNL    H12   35   0.031   0.346  -0.166
    1UNL    H13   36   0.128   0.217  -0.245
    1UNL    H14   37   0.152   0.329   0.028
    1UNL    H15   38   0.255   0.201  -0.036
    1UNL    H16   39   0.033   0.190   0.157
    1UNL    H17   40   0.090   0.045   0.325
    1UNL    H18   41   0.243  -0.120   0.426
    1UNL    H19   42   0.409  -0.228   0.272
    1UNL    H20   43   0.404  -0.195   0.022
    1UNL    H21   44   0.357  -0.007  -0.130
    1UNL    H22   45  -0.031  -0.114  -0.253
    1UNL    H23   46   0.078  -0.241  -0.216
    1UNL    H24   47  -0.082  -0.244  -0.037
    1UNL    H25   48   0.060  -0.165   0.032
    1UNL    H26   49  -0.181   0.269   0.024
   0.00000   0.00000   0.00000   0.00000   0.00000   0.00000   0.00000   0.00000   0.00000
Generated with MDTraj, t= 14.0
 49
    1UNL     C1    1  -0.218  -0.222   0.163
    1UNL     C2    2  -0.178  -0.076   0.139
    1UNL     C3    3  -0.122  -0.045  -0.005
    1UNL     C4    4  -0.244  -0.048  -0.106
    1UNL     C5    5  -0.288   0.090  -0.151
    1UNL     C6    6  -0.176   0.174  -0.203
    1UNL     N1    7  -0.043   0.146  -0.156
    1UNL     C7    8   0.069   0.242  -0.159
    1UNL     C8    9   0.149   0.237  -0.018
    1UNL     C9   10   0.071   0.142   0.075
    1UNL    C10   11   0.156   0.030   0.132
    1UNL    C11   12   0.156   0.005   0.269
    1UNL    C12   13   0.223  -0.108   0.319
    1UNL    C13   14   0.297  -0.184   0.230
    1UNL    C14   15   0.305  -0.148   0.096
    1UNL    C15   16   0.240  -0.038   0.048
    1UNL     N2   17   0.253  -0.017  -0.095
    1UNL    C16   18   0.169  -0.052  -0.201
    1UNL     O1   19   0.195  -0.028  -0.315
    1UNL    C17   20   0.042  -0.127  -0.186
    1UNL    C18   21  -0.023  -0.151  -0.042
    1UNL    C19   22  -0.062   0.114  -0.008
    1UNL     O2   23  -0.173   0.196   0.048
    1UNL     H1   24  -0.131  -0.290   0.155
    1UNL     H2   25  -0.291  -0.250   0.085
    1UNL     H3   26  -0.279  -0.226   0.259
    1UNL     H4   27  -0.259  -0.012   0.180
    1UNL     H5   28  -0.092  -0.048   0.202
    1UNL     H6   29  -0.335  -0.088  -0.059
    1UNL     H7   30  -0.221  -0.117  -0.193
    1UNL     H8   31  -0.374   0.078  -0.231
    1UNL     H9   32  -0.330   0.136  -0.066
    1UNL    H10   33  -0.214   0.281  -0.207
    1UNL    H11   34  -0.181   0.154  -0.318
    1UNL    H12   35   0.046   0.338  -0.206
    1UNL    H13   36   0.137   0.203  -0.243
    1UNL    H14   37   0.159   0.333   0.024
    1UNL    H15   38   0.264   0.212  -0.024
    1UNL    H16   39   0.044   0.195   0.164
    1UNL    H17   40   0.093   0.070   0.334
    1UNL    H18   41   0.230  -0.133   0.424
    1UNL    H19   42   0.347  -0.274   0.274
    1UNL    H20   43   0.369  -0.207   0.027
    1UNL    H21   44   0.342   0.010  -0.123
    1UNL    H22   45  -0.029  -0.074  -0.245
    1UNL    H23   46   0.054  -0.218  -0.247
    1UNL    H24   47  -0.078  -0.245  -0.047
    1UNL    H25   48   0.056  -0.147   0.031
    1UNL    H26   49  -0.139   0.271   0.096
   0.00000   0.00000   0.00000   0.00000   0.00000   0.00000   0.00000   0.00000   0.00000
Generated with MDTraj, t= 15.0
 49
    1UNL     C1    1  -0.156  -0.213   0.198
    1UNL     C2    2  -0.165  -0.066   0.150
    1UNL     C3    3  -0.132  -0.033   0.001
    1UNL     C4    4  -0.260  -0.042  -0.080
    1UNL     C5    5  -0.291   0.075  -0.182
    1UNL     C6    6  -0.161   0.146  -0.243
    1UNL     N1    7  -0.047   0.158  -0.142
    1UNL     C7    8   0.064   0.259  -0.141
    1UNL     C8    9   0.148   0.238  -0.021
    1UNL     C9   10   0.069   0.143   0.070
    1UNL    C10   11   0.151   0.025   0.121
    1UNL    C11   12   0.135  -0.009   0.252
    1UNL    C12   13   0.198  -0.117   0.310
    1UNL    C13   14   0.286  -0.197   0.239
    1UNL    C14   15   0.307  -0.163   0.106
    1UNL    C15   16   0.239  -0.058   0.046
    1UNL     N2   17   0.252  -0.034  -0.092
    1UNL    C16   18   0.167  -0.040  -0.205
    1UNL     O1   19   0.201   0.001  -0.318
    1UNL    C17   20   0.041  -0.121  -0.197
    1UNL    C18   21  -0.027  -0.139  -0.056
    1UNL    C19   22  -0.069   0.110  -0.002
    1UNL     O2   23  -0.158   0.208   0.058
    1UNL     H1   24  -0.068  -0.270   0.159
    1UNL     H2   25  -0.244  -0.272   0.159
    1UNL     H3   26  -0.168  -0.229   0.305
    1UNL     H4   27  -0.247   0.001   0.184
    1UNL     H5   28  -0.085  -0.016   0.209
    1UNL     H6   29  -0.342  -0.058  -0.008
    1UNL     H7   30  -0.263  -0.144  -0.132
    1UNL     H8   31  -0.360   0.037  -0.262
    1UNL     H9   32  -0.350   0.153  -0.134
    1UNL    H10   33  -0.194   0.248  -0.280
    1UNL    H11   34  -0.135   0.100  -0.347
    1UNL    H12   35   0.022   0.359  -0.131
    1UNL    H13   36   0.127   0.269  -0.238
    1UNL    H14   37   0.180   0.329   0.027
    1UNL    H15   38   0.244   0.189  -0.046
    1UNL    H16   39   0.041   0.204   0.153
    1UNL    H17   40   0.085   0.064   0.311
    1UNL    H18   41   0.174  -0.128   0.415
    1UNL    H19   42   0.335  -0.281   0.275
    1UNL    H20   43   0.368  -0.221   0.052
    1UNL    H21   44   0.338   0.001  -0.122
    1UNL    H22   45  -0.024  -0.089  -0.272
    1UNL    H23   46   0.058  -0.223  -0.240
    1UNL    H24   47  -0.089  -0.227  -0.067
    1UNL    H25   48   0.044  -0.159   0.026
    1UNL    H26   49  -0.238   0.202   0.003
   0.00000   0.00000   0.00000   0.00000   0.00000   0.00000   0.00000   0.00000   0.00000
Generated with MDTraj, t= 16.0
 49
    1UNL     C1    1  -0.177  -0.205   0.208
    1UNL     C2    2  -0.172  -0.065   0.144
    1UNL     C3    3  -0.125  -0.041  -0.001
    1UNL     C4    4  -0.249  -0.052  -0.097
    1UNL     C5    5  -0.283   0.066  -0.189
    1UNL     C6    6  -0.165   0.158  -0.223
    1UNL     N1    7  -0.043   0.152  -0.142
    1UNL     C7    8   0.067   0.255  -0.147
    1UNL     C8    9   0.157   0.235  -0.023
    1UNL     C9   10   0.078   0.135   0.067
    1UNL    C10   11   0.150   0.020   0.119
    1UNL    C11   12   0.147  -0.001   0.260
    1UNL    C12   13   0.209  -0.113   0.315
    1UNL    C13   14   0.284  -0.199   0.235
    1UNL    C14   15   0.300  -0.166   0.101
    1UNL    C15   16   0.234  -0.057   0.041
    1UNL     N2   17   0.248  -0.028  -0.101
    1UNL    C16   18   0.154  -0.039  -0.200
    1UNL     O1   19   0.176   0.028  -0.302
    1UNL    C17   20   0.038  -0.131  -0.185
    1UNL    C18   21  -0.020  -0.146  -0.047
    1UNL    C19   22  -0.060   0.106  -0.008
    1UNL     O2   23  -0.152   0.207   0.048
    1UNL     H1   24  -0.072  -0.246   0.224
    1UNL     H2   25  -0.226  -0.281   0.137
    1UNL     H3   26  -0.244  -0.211   0.290
    1UNL     H4   27  -0.277  -0.025   0.146
    1UNL     H5   28  -0.130   0.017   0.204
    1UNL     H6   29  -0.328  -0.103  -0.041
    1UNL     H7   30  -0.227  -0.134  -0.172
    1UNL     H8   31  -0.329   0.033  -0.279
    1UNL     H9   32  -0.366   0.126  -0.148
    1UNL    H10   33  -0.199   0.266  -0.212
    1UNL    H11   34  -0.145   0.157  -0.338
    1UNL    H12   35   0.024   0.355  -0.141
    1UNL    H13   36   0.132   0.244  -0.243
    1UNL    H14   37   0.174   0.328   0.032
    1UNL    H15   38   0.247   0.192  -0.044
    1UNL    H16   39   0.050   0.189   0.155
    1UNL    H17   40   0.099   0.070   0.330
    1UNL    H18   41   0.209  -0.128   0.421
    1UNL    H19   42   0.336  -0.285   0.281
    1UNL    H20   43   0.348  -0.240   0.028
    1UNL    H21   44   0.329   0.027  -0.130
    1UNL    H22   45  -0.032  -0.116  -0.261
    1UNL    H23   46   0.073  -0.232  -0.218
    1UNL    H24   47  -0.068  -0.242  -0.038
    1UNL    H25   48   0.054  -0.154   0.035
    1UNL    H26   49  -0.204   0.254  -0.024
   0.00000   0.00000   0.00000   0.00000   0.00000   0.00000   0.00000   0.00000   0.00000
Generated with MDTraj, t= 17.0
 49
    1UNL     C1    1  -0.242  -0.214   0.167
    1UNL     C2    2  -0.176  -0.079   0.146
    1UNL     C3    3  -0.125  -0.042  -0.002
    1UNL     C4    4  -0.253  -0.042  -0.093
    1UNL     C5    5  -0.287   0.097  -0.157
    1UNL     C6    6  -0.166   0.165  -0.224
    1UNL     N1    7  -0.038   0.143  -0.159
    1UNL     C7    8   0.071   0.249  -0.151
    1UNL     C8    9   0.146   0.244  -0.009
    1UNL     C9   10   0.067   0.139   0.071
    1UNL    C10   11   0.154   0.026   0.130
    1UNL    C11   12   0.153  -0.009   0.260
    1UNL    C12   13   0.218  -0.120   0.310
    1UNL    C13   14   0.315  -0.176   0.226
    1UNL    C14   15   0.325  -0.139   0.093
    1UNL    C15   16   0.245  -0.037   0.046
    1UNL     N2   17   0.249  -0.009  -0.096
    1UNL    C16   18   0.162  -0.057  -0.198
    1UNL     O1   19   0.178  -0.014  -0.313
    1UNL    C17   20   0.055  -0.160  -0.177
    1UNL    C18   21  -0.028  -0.152  -0.045
    1UNL    C19   22  -0.064   0.109  -0.011
    1UNL     O2   23  -0.157   0.207   0.053
    1UNL     H1   24  -0.155  -0.288   0.171
    1UNL     H2   25  -0.316  -0.242   0.084
    1UNL     H3   26  -0.308  -0.203   0.249
    1UNL     H4   27  -0.251  -0.001   0.175
    1UNL     H5   28  -0.102  -0.057   0.223
    1UNL     H6   29  -0.345  -0.080  -0.048
    1UNL     H7   30  -0.231  -0.128  -0.163
    1UNL     H8   31  -0.370   0.100  -0.212
    1UNL     H9   32  -0.317   0.167  -0.073
    1UNL    H10   33  -0.189   0.273  -0.252
    1UNL    H11   34  -0.140   0.108  -0.322
    1UNL    H12   35   0.035   0.351  -0.163
    1UNL    H13   36   0.148   0.215  -0.232
    1UNL    H14   37   0.137   0.335   0.052
    1UNL    H15   38   0.244   0.215  -0.019
    1UNL    H16   39   0.033   0.187   0.160
    1UNL    H17   40   0.089   0.050   0.323
    1UNL    H18   41   0.213  -0.158   0.411
    1UNL    H19   42   0.375  -0.258   0.261
    1UNL    H20   43   0.378  -0.194   0.018
    1UNL    H21   44   0.323   0.061  -0.125
    1UNL    H22   45  -0.018  -0.162  -0.257
    1UNL    H23   46   0.096  -0.263  -0.178
    1UNL    H24   47  -0.087  -0.243  -0.043
    1UNL    H25   48   0.053  -0.163   0.028
    1UNL    H26   49  -0.118   0.299   0.044
   0.00000   0.00000   0.00000   0.00000   0.00000   0.00000   0.00000   0.00000   0.00000
Generated with MDTraj, t= 18.0
 49
    1UNL     C1    1  -0.273  -0.199   0.178
    1UNL     C2    2  -0.205  -0.059   0.138
    1UNL     C3    3  -0.135  -0.045  -0.007
    1UNL     C4    4  -0.246  -0.047  -0.117
    1UNL     C5    5  -0.274   0.082  -0.192
    1UNL     C6    6  -0.148   0.161  -0.235
    1UNL     N1    7  -0.040   0.158  -0.131
    1UNL     C7    8   0.078   0.250  -0.128
    1UNL     C8    9   0.138   0.248   0.010
    1UNL     C9   10   0.060   0.137   0.091
    1UNL    C10   11   0.150   0.019   0.132
    1UNL    C11   12   0.161  -0.021   0.267
    1UNL    C12   13   0.261  -0.108   0.307
    1UNL    C13   14   0.343  -0.173   0.214
    1UNL    C14   15   0.349  -0.126   0.084
    1UNL    C15   16   0.245  -0.036   0.036
    1UNL     N2   17   0.240  -0.016  -0.105
    1UNL    C16   18   0.155  -0.057  -0.205
    1UNL     O1   19   0.193  -0.051  -0.323
    1UNL    C17   20   0.031  -0.135  -0.175
    1UNL    C18   21  -0.030  -0.150  -0.036
    1UNL    C19   22  -0.076   0.104   0.006
    1UNL     O2   23  -0.173   0.195   0.058
    1UNL     H1   24  -0.202  -0.281   0.138
    1UNL     H2   25  -0.374  -0.212   0.129
    1UNL     H3   26  -0.307  -0.201   0.279
    1UNL     H4   27  -0.265   0.033   0.161
    1UNL     H5   28  -0.127  -0.044   0.213
    1UNL     H6   29  -0.337  -0.077  -0.065
    1UNL     H7   30  -0.239  -0.132  -0.192
    1UNL     H8   31  -0.328   0.063  -0.276
    1UNL     H9   32  -0.350   0.139  -0.131
    1UNL    H10   33  -0.160   0.271  -0.259
    1UNL    H11   34  -0.111   0.107  -0.330
    1UNL    H12   35   0.032   0.348  -0.147
    1UNL    H13   36   0.160   0.220  -0.205
    1UNL    H14   37   0.125   0.346   0.053
    1UNL    H15   38   0.245   0.221   0.019
    1UNL    H16   39   0.029   0.178   0.184
    1UNL    H17   40   0.108   0.038   0.340
    1UNL    H18   41   0.266  -0.129   0.412
    1UNL    H19   42   0.408  -0.253   0.245
    1UNL    H20   43   0.420  -0.167   0.020
    1UNL    H21   44   0.339   0.013  -0.134
    1UNL    H22   45  -0.047  -0.080  -0.236
    1UNL    H23   46   0.037  -0.229  -0.232
    1UNL    H24   47  -0.076  -0.248  -0.034
    1UNL    H25   48   0.051  -0.155   0.035
    1UNL    H26   49  -0.128   0.279   0.077
   0.00000   0.00000   0.00000   0.00000   0.00000   0.00000   0.00000   0.00000   0.00000
Generated with MDTraj, t= 19.0
 49
    1UNL     C1    1  -0.253  -0.210   0.161
    1UNL     C2    2  -0.182  -0.072   0.142
    1UNL     C3    3  -0.133  -0.036   0.003
    1UNL     C4    4  -0.259  -0.031  -0.099
    1UNL     C5    5  -0.259   0.077  -0.209
    1UNL     C6    6  -0.126   0.153  -0.243
    1UNL     N1    7  -0.017   0.146  -0.140
    1UNL     C7    8   0.079   0.259  -0.116
    1UNL     C8    9   0.132   0.245   0.028
    1UNL     C9   10   0.057   0.133   0.102
    1UNL    C10   11   0.153   0.020   0.137
    1UNL    C11   12   0.168  -0.011   0.271
    1UNL    C12   13   0.263  -0.105   0.308
    1UNL    C13   14   0.351  -0.152   0.212
    1UNL    C14   15   0.324  -0.137   0.079
    1UNL    C15   16   0.228  -0.048   0.043
    1UNL     N2   17   0.226  -0.012  -0.097
    1UNL    C16   18   0.142  -0.063  -0.202
    1UNL     O1   19   0.162  -0.030  -0.320
    1UNL    C17   20   0.023  -0.155  -0.180
    1UNL    C18   21  -0.039  -0.157  -0.042
    1UNL    C19   22  -0.065   0.106   0.005
    1UNL     O2   23  -0.165   0.211   0.041
    1UNL     H1   24  -0.183  -0.301   0.155
    1UNL     H2   25  -0.335  -0.231   0.089
    1UNL     H3   26  -0.316  -0.205   0.247
    1UNL     H4   27  -0.247   0.011   0.181
    1UNL     H5   28  -0.097  -0.061   0.210
    1UNL     H6   29  -0.348  -0.028  -0.036
    1UNL     H7   30  -0.274  -0.130  -0.153
    1UNL     H8   31  -0.311   0.032  -0.295
    1UNL     H9   32  -0.332   0.157  -0.179
    1UNL    H10   33  -0.157   0.261  -0.258
    1UNL    H11   34  -0.071   0.117  -0.339
    1UNL    H12   35   0.029   0.352  -0.148
    1UNL    H13   36   0.162   0.247  -0.193
    1UNL    H14   37   0.129   0.338   0.081
    1UNL    H15   38   0.244   0.217   0.027
    1UNL    H16   39   0.021   0.172   0.194
    1UNL    H17   40   0.102   0.035   0.347
    1UNL    H18   41   0.278  -0.129   0.414
    1UNL    H19   42   0.433  -0.218   0.242
    1UNL    H20   43   0.397  -0.174  -0.004
    1UNL    H21   44   0.302   0.056  -0.128
    1UNL    H22   45  -0.046  -0.139  -0.271
    1UNL    H23   46   0.067  -0.250  -0.210
    1UNL    H24   47  -0.099  -0.247  -0.033
    1UNL    H25   48   0.037  -0.179   0.030
    1UNL    H26   49  -0.216   0.237  -0.035
   0.00000   0.00000   0.00000   0.00000   0.00000   0.00000   0.00000   0.00000   0.00000
Generated with MDTraj, t= 20.0
 49
    1UNL     C1    1  -0.254  -0.191   0.174
    1UNL     C2    2  -0.169  -0.067   0.153
    1UNL     C3    3  -0.130  -0.042   0.009
    1UNL     C4    4  -0.248  -0.039  -0.096
    1UNL     C5    5  -0.246   0.047  -0.227
    1UNL     C6    6  -0.114   0.134  -0.244
    1UNL     N1    7  -0.017   0.151  -0.133
    1UNL     C7    8   0.073   0.270  -0.122
    1UNL     C8    9   0.130   0.261   0.025
    1UNL     C9   10   0.060   0.142   0.099
    1UNL    C10   11   0.153   0.023   0.126
    1UNL    C11   12   0.164  -0.014   0.260
    1UNL    C12   13   0.258  -0.107   0.303
    1UNL    C13   14   0.318  -0.190   0.212
    1UNL    C14   15   0.309  -0.155   0.074
    1UNL    C15   16   0.232  -0.048   0.028
    1UNL     N2   17   0.228  -0.001  -0.107
    1UNL    C16   18   0.140  -0.048  -0.200
    1UNL     O1   19   0.142   0.006  -0.308
    1UNL    C17   20   0.045  -0.157  -0.169
    1UNL    C18   21  -0.030  -0.157  -0.029
    1UNL    C19   22  -0.062   0.111   0.003
    1UNL     O2   23  -0.170   0.197   0.041
    1UNL     H1   24  -0.203  -0.292   0.191
    1UNL     H2   25  -0.333  -0.209   0.101
    1UNL     H3   26  -0.316  -0.163   0.257
    1UNL     H4   27  -0.232   0.022   0.176
    1UNL     H5   28  -0.084  -0.066   0.222
    1UNL     H6   29  -0.341  -0.021  -0.040
    1UNL     H7   30  -0.257  -0.147  -0.129
    1UNL     H8   31  -0.274  -0.028  -0.313
    1UNL     H9   32  -0.332   0.118  -0.227
    1UNL    H10   33  -0.148   0.242  -0.259
    1UNL    H11   34  -0.053   0.086  -0.331
    1UNL    H12   35   0.014   0.363  -0.147
    1UNL    H13   36   0.138   0.266  -0.215
    1UNL    H14   37   0.116   0.352   0.075
    1UNL    H15   38   0.246   0.247   0.021
    1UNL    H16   39   0.015   0.172   0.190
    1UNL    H17   40   0.104   0.034   0.331
    1UNL    H18   41   0.264  -0.130   0.407
    1UNL    H19   42   0.383  -0.267   0.243
    1UNL    H20   43   0.359  -0.208   0.003
    1UNL    H21   44   0.308   0.040  -0.162
    1UNL    H22   45  -0.033  -0.172  -0.254
    1UNL    H23   46   0.101  -0.250  -0.170
    1UNL    H24   47  -0.078  -0.254  -0.024
    1UNL    H25   48   0.049  -0.161   0.043
    1UNL    H26   49  -0.144   0.292   0.028
   0.00000   0.00000   0.00000   0.00000   0.00000   0.00000   0.00000   0.00000   0.00000
Generated with MDTraj, t= 21.0
 49
    1UNL     C1    1  -0.255  -0.186   0.192
    1UNL     C2    2  -0.168  -0.058   0.160
    1UNL     C3    3  -0.128  -0.033   0.008
    1UNL     C4    4  -0.247  -0.048  -0.097
    1UNL     C5    5  -0.215   0.016  -0.227
    1UNL     C6    6  -0.149   0.157  -0.214
    1UNL     N1    7  -0.027   0.152  -0.134
    1UNL     C7    8   0.077   0.256  -0.135
    1UNL     C8    9   0.133   0.257   0.008
    1UNL     C9   10   0.063   0.150   0.092
    1UNL    C10   11   0.150   0.029   0.125
    1UNL    C11   12   0.145  -0.023   0.254
    1UNL    C12   13   0.219  -0.134   0.288
    1UNL    C13   14   0.308  -0.191   0.197
    1UNL    C14   15   0.317  -0.144   0.067
    1UNL    C15   16   0.234  -0.035   0.032
    1UNL     N2   17   0.241   0.009  -0.105
    1UNL    C16   18   0.156  -0.044  -0.199
    1UNL     O1   19   0.173  -0.023  -0.317
    1UNL    C17   20   0.045  -0.145  -0.169
    1UNL    C18   21  -0.027  -0.147  -0.033
    1UNL    C19   22  -0.071   0.117   0.006
    1UNL     O2   23  -0.165   0.207   0.067
    1UNL     H1   24  -0.215  -0.282   0.151
    1UNL     H2   25  -0.359  -0.177   0.162
    1UNL     H3   26  -0.263  -0.202   0.300
    1UNL     H4   27  -0.209   0.030   0.214
    1UNL     H5   28  -0.075  -0.087   0.210
    1UNL     H6   29  -0.333   0.011  -0.060
    1UNL     H7   30  -0.281  -0.156  -0.101
    1UNL     H8   31  -0.138  -0.045  -0.292
    1UNL     H9   32  -0.309  -0.003  -0.286
    1UNL    H10   33  -0.219   0.233  -0.167
    1UNL    H11   34  -0.117   0.186  -0.322
    1UNL    H12   35   0.027   0.356  -0.155
    1UNL    H13   36   0.141   0.251  -0.228
    1UNL    H14   37   0.132   0.357   0.045
    1UNL    H15   38   0.243   0.225  -0.008
    1UNL    H16   39   0.034   0.202   0.180
    1UNL    H17   40   0.064   0.009   0.324
    1UNL    H18   41   0.196  -0.179   0.385
    1UNL    H19   42   0.373  -0.276   0.227
    1UNL    H20   43   0.392  -0.187   0.000
    1UNL    H21   44   0.291   0.092  -0.132
    1UNL    H22   45  -0.037  -0.137  -0.246
    1UNL    H23   46   0.084  -0.245  -0.192
    1UNL    H24   47  -0.092  -0.233  -0.032
    1UNL    H25   48   0.045  -0.160   0.049
    1UNL    H26   49  -0.254   0.195   0.020
   0.00000   0.00000   0.00000   0.00000   0.00000   0.00000   0.00000   0.00000   0.00000
Generated with MDTraj, t= 22.0
 49
    1UNL     C1    1  -0.262  -0.201   0.155
    1UNL     C2    2  -0.177  -0.070   0.145
    1UNL     C3    3  -0.124  -0.040   0.001
    1UNL     C4    4  -0.247  -0.040  -0.103
    1UNL     C5    5  -0.233   0.039  -0.232
    1UNL     C6    6  -0.161   0.172  -0.215
    1UNL     N1    7  -0.038   0.154  -0.137
    1UNL     C7    8   0.054   0.273  -0.133
    1UNL     C8    9   0.141   0.263  -0.004
    1UNL     C9   10   0.082   0.150   0.083
    1UNL    C10   11   0.170   0.034   0.125
    1UNL    C11   12   0.162  -0.008   0.257
    1UNL    C12   13   0.234  -0.117   0.300
    1UNL    C13   14   0.310  -0.191   0.210
    1UNL    C14   15   0.325  -0.151   0.080
    1UNL    C15   16   0.255  -0.038   0.037
    1UNL     N2   17   0.242  -0.006  -0.099
    1UNL    C16   18   0.144  -0.057  -0.191
    1UNL     O1   19   0.155  -0.020  -0.305
    1UNL    C17   20   0.036  -0.159  -0.158
    1UNL    C18   21  -0.026  -0.154  -0.026
    1UNL    C19   22  -0.061   0.109   0.008
    1UNL     O2   23  -0.160   0.196   0.068
    1UNL     H1   24  -0.203  -0.292   0.155
    1UNL     H2   25  -0.340  -0.210   0.080
    1UNL     H3   26  -0.318  -0.209   0.250
    1UNL     H4   27  -0.244   0.011   0.184
    1UNL     H5   28  -0.086  -0.068   0.209
    1UNL     H6   29  -0.343  -0.013  -0.055
    1UNL     H7   30  -0.259  -0.149  -0.126
    1UNL     H8   31  -0.185  -0.040  -0.299
    1UNL     H9   32  -0.332   0.054  -0.284
    1UNL    H10   33  -0.224   0.243  -0.151
    1UNL    H11   34  -0.148   0.228  -0.315
    1UNL    H12   35  -0.011   0.366  -0.146
    1UNL    H13   36   0.122   0.277  -0.219
    1UNL    H14   37   0.143   0.365   0.041
    1UNL    H15   38   0.244   0.233  -0.035
    1UNL    H16   39   0.055   0.198   0.173
    1UNL    H17   40   0.091   0.041   0.318
    1UNL    H18   41   0.219  -0.161   0.397
    1UNL    H19   42   0.354  -0.282   0.240
    1UNL    H20   43   0.403  -0.187   0.005
    1UNL    H21   44   0.326   0.024  -0.138
    1UNL    H22   45  -0.035  -0.151  -0.232
    1UNL    H23   46   0.081  -0.259  -0.167
    1UNL    H24   47  -0.079  -0.245  -0.011
    1UNL    H25   48   0.046  -0.155   0.058
    1UNL    H26   49  -0.240   0.191   0.009
   0.00000   0.00000   0.00000   0.00000   0.00000   0.00000   0.00000   0.00000   0.00000
Generated with MDTraj, t= 23.0
 49
    1UNL     C1    1  -0.249  -0.187   0.166
    1UNL     C2    2  -0.168  -0.062   0.145
    1UNL     C3    3  -0.133  -0.039  -0.005
    1UNL     C4    4  -0.257  -0.025  -0.102
    1UNL     C5    5  -0.219   0.032  -0.247
    1UNL     C6    6  -0.136   0.163  -0.240
    1UNL     N1    7  -0.036   0.158  -0.140
    1UNL     C7    8   0.070   0.267  -0.118
    1UNL     C8    9   0.145   0.235   0.021
    1UNL     C9   10   0.059   0.130   0.090
    1UNL    C10   11   0.151   0.013   0.134
    1UNL    C11   12   0.172  -0.009   0.268
    1UNL    C12   13   0.276  -0.091   0.311
    1UNL    C13   14   0.348  -0.167   0.215
    1UNL    C14   15   0.316  -0.152   0.083
    1UNL    C15   16   0.226  -0.055   0.038
    1UNL     N2   17   0.231  -0.020  -0.099
    1UNL    C16   18   0.136  -0.051  -0.198
    1UNL     O1   19   0.141   0.012  -0.300
    1UNL    C17   20   0.034  -0.163  -0.173
    1UNL    C18   21  -0.049  -0.168  -0.045
    1UNL    C19   22  -0.072   0.109  -0.000
    1UNL     O2   23  -0.175   0.192   0.060
    1UNL     H1   24  -0.190  -0.275   0.179
    1UNL     H2   25  -0.335  -0.196   0.099
    1UNL     H3   26  -0.289  -0.182   0.270
    1UNL     H4   27  -0.229   0.029   0.168
    1UNL     H5   28  -0.079  -0.055   0.210
    1UNL     H6   29  -0.340   0.030  -0.052
    1UNL     H7   30  -0.294  -0.129  -0.120
    1UNL     H8   31  -0.166  -0.042  -0.309
    1UNL     H9   32  -0.319   0.026  -0.300
    1UNL    H10   33  -0.202   0.253  -0.213
    1UNL    H11   34  -0.079   0.192  -0.334
    1UNL    H12   35   0.017   0.369  -0.111
    1UNL    H13   36   0.136   0.271  -0.202
    1UNL    H14   37   0.142   0.331   0.081
    1UNL    H15   38   0.246   0.195   0.020
    1UNL    H16   39   0.020   0.171   0.181
    1UNL    H17   40   0.116   0.044   0.346
    1UNL    H18   41   0.291  -0.119   0.415
    1UNL    H19   42   0.433  -0.231   0.245
    1UNL    H20   43   0.371  -0.197   0.012
    1UNL    H21   44   0.307   0.035  -0.128
    1UNL    H22   45  -0.034  -0.158  -0.250
    1UNL    H23   46   0.092  -0.257  -0.175
    1UNL    H24   47  -0.105  -0.258  -0.046
    1UNL    H25   48   0.026  -0.192   0.034
    1UNL    H26   49  -0.222   0.249  -0.002
   0.00000   0.00000   0.00000   0.00000   0.00000   0.00000   0.00000   0.00000   0.00000
Generated with MDTraj, t= 24.0
 49
    1UNL     C1    1  -0.274  -0.198   0.150
    1UNL     C2    2  -0.195  -0.065   0.153
    1UNL     C3    3  -0.135  -0.038   0.009
    1UNL     C4    4  -0.248  -0.035  -0.101
    1UNL     C5    5  -0.227   0.037  -0.231
    1UNL     C6    6  -0.139   0.166  -0.214
    1UNL     N1    7  -0.018   0.141  -0.126
    1UNL     C7    8   0.093   0.243  -0.112
    1UNL     C8    9   0.130   0.250   0.032
    1UNL     C9   10   0.054   0.134   0.102
    1UNL    C10   11   0.143   0.015   0.126
    1UNL    C11   12   0.165  -0.007   0.260
    1UNL    C12   13   0.260  -0.102   0.294
    1UNL    C13   14   0.346  -0.159   0.201
    1UNL    C14   15   0.334  -0.126   0.072
    1UNL    C15   16   0.235  -0.036   0.031
    1UNL     N2   17   0.236  -0.009  -0.107
    1UNL    C16   18   0.143  -0.055  -0.202
    1UNL     O1   19   0.141  -0.023  -0.318
    1UNL    C17   20   0.031  -0.156  -0.166
    1UNL    C18   21  -0.035  -0.150  -0.032
    1UNL    C19   22  -0.068   0.105   0.006
    1UNL     O2   23  -0.167   0.200   0.044
    1UNL     H1   24  -0.199  -0.272   0.155
    1UNL     H2   25  -0.349  -0.195   0.071
    1UNL     H3   26  -0.320  -0.208   0.251
    1UNL     H4   27  -0.253   0.024   0.186
    1UNL     H5   28  -0.109  -0.080   0.221
    1UNL     H6   29  -0.329   0.023  -0.050
    1UNL     H7   30  -0.285  -0.139  -0.110
    1UNL     H8   31  -0.185  -0.039  -0.298
    1UNL     H9   32  -0.322   0.059  -0.291
    1UNL    H10   33  -0.198   0.263  -0.190
    1UNL    H11   34  -0.091   0.168  -0.316
    1UNL    H12   35   0.052   0.341  -0.150
    1UNL    H13   36   0.174   0.211  -0.176
    1UNL    H14   37   0.108   0.348   0.090
    1UNL    H15   38   0.233   0.235   0.040
    1UNL    H16   39   0.019   0.170   0.196
    1UNL    H17   40   0.094   0.034   0.329
    1UNL    H18   41   0.276  -0.111   0.401
    1UNL    H19   42   0.419  -0.229   0.231
    1UNL    H20   43   0.408  -0.167  -0.004
    1UNL    H21   44   0.317   0.035  -0.152
    1UNL    H22   45  -0.048  -0.139  -0.249
    1UNL    H23   46   0.073  -0.254  -0.188
    1UNL    H24   47  -0.093  -0.239  -0.019
    1UNL    H25   48   0.039  -0.172   0.047
    1UNL    H26   49  -0.136   0.286   0.016
   0.00000   0.00000   0.00000   0.00000   0.00000   0.00000   0.00000   0.00000   0.00000
Generated with MDTraj, t= 25.0
 49
    1UNL     C1    1  -0.285  -0.176   0.156
    1UNL     C2    2  -0.185  -0.058   0.136
    1UNL     C3    3  -0.126  -0.039  -0.004
    1UNL     C4    4  -0.244  -0.039  -0.102
    1UNL     C5    5  -0.200   0.025  -0.231
    1UNL     C6    6  -0.153   0.163  -0.203
    1UNL     N1    7  -0.027   0.161  -0.129
    1UNL     C7    8   0.052   0.280  -0.102
    1UNL     C8    9   0.128   0.258   0.023
    1UNL     C9   10   0.055   0.133   0.097
    1UNL    C10   11   0.154   0.028   0.125
    1UNL    C11   12   0.169  -0.016   0.255
    1UNL    C12   13   0.250  -0.126   0.288
    1UNL    C13   14   0.328  -0.181   0.191
    1UNL    C14   15   0.330  -0.126   0.062
    1UNL    C15   16   0.240  -0.023   0.028
    1UNL     N2   17   0.222   0.011  -0.109
    1UNL    C16   18   0.144  -0.069  -0.199
    1UNL     O1   19   0.173  -0.049  -0.315
    1UNL    C17   20   0.046  -0.174  -0.148
    1UNL    C18   21  -0.035  -0.161  -0.020
    1UNL    C19   22  -0.065   0.105   0.004
    1UNL     O2   23  -0.162   0.202   0.054
    1UNL     H1   24  -0.245  -0.272   0.135
    1UNL     H2   25  -0.384  -0.152   0.118
    1UNL     H3   26  -0.296  -0.189   0.268
    1UNL     H4   27  -0.240   0.037   0.147
    1UNL     H5   28  -0.101  -0.040   0.208
    1UNL     H6   29  -0.334   0.009  -0.052
    1UNL     H7   30  -0.274  -0.144  -0.120
    1UNL     H8   31  -0.125  -0.026  -0.290
    1UNL     H9   32  -0.290   0.025  -0.301
    1UNL    H10   33  -0.229   0.201  -0.129
    1UNL    H11   34  -0.151   0.227  -0.297
    1UNL    H12   35  -0.023   0.362  -0.089
    1UNL    H13   36   0.109   0.303  -0.192
    1UNL    H14   37   0.138   0.348   0.097
    1UNL    H15   38   0.226   0.232   0.001
    1UNL    H16   39   0.017   0.159   0.193
    1UNL    H17   40   0.118   0.036   0.335
    1UNL    H18   41   0.245  -0.167   0.387
    1UNL    H19   42   0.400  -0.255   0.229
    1UNL    H20   43   0.384  -0.176  -0.019
    1UNL    H21   44   0.296   0.060  -0.166
    1UNL    H22   45  -0.034  -0.196  -0.234
    1UNL    H23   46   0.106  -0.264  -0.140
    1UNL    H24   47  -0.097  -0.249  -0.015
    1UNL    H25   48   0.028  -0.164   0.069
    1UNL    H26   49  -0.116   0.288   0.030
   0.00000   0.00000   0.00000   0.00000   0.00000   0.00000   0.00000   0.00000   0.00000
Generated with MDTraj, t= 26.0
 49
    1UNL     C1    1  -0.269  -0.189   0.147
    1UNL     C2    2  -0.183  -0.063   0.153
    1UNL     C3    3  -0.124  -0.042   0.008
    1UNL     C4    4  -0.234  -0.044  -0.105
    1UNL     C5    5  -0.185   0.021  -0.244
    1UNL     C6    6  -0.137   0.163  -0.224
    1UNL     N1    7  -0.027   0.154  -0.127
    1UNL     C7    8   0.063   0.271  -0.106
    1UNL     C8    9   0.136   0.269   0.032
    1UNL     C9   10   0.067   0.144   0.092
    1UNL    C10   11   0.163   0.039   0.128
    1UNL    C11   12   0.170  -0.001   0.257
    1UNL    C12   13   0.239  -0.114   0.286
    1UNL    C13   14   0.313  -0.185   0.191
    1UNL    C14   15   0.315  -0.135   0.062
    1UNL    C15   16   0.240  -0.022   0.032
    1UNL     N2   17   0.213   0.002  -0.105
    1UNL    C16   18   0.134  -0.064  -0.197
    1UNL     O1   19   0.122  -0.026  -0.311
    1UNL    C17   20   0.050  -0.181  -0.160
    1UNL    C18   21  -0.031  -0.165  -0.021
    1UNL    C19   22  -0.062   0.106   0.010
    1UNL     O2   23  -0.160   0.194   0.064
    1UNL     H1   24  -0.206  -0.277   0.148
    1UNL     H2   25  -0.348  -0.185   0.074
    1UNL     H3   26  -0.325  -0.202   0.244
    1UNL     H4   27  -0.239   0.031   0.179
    1UNL     H5   28  -0.108  -0.068   0.237
    1UNL     H6   29  -0.325   0.015  -0.071
    1UNL     H7   30  -0.266  -0.147  -0.122
    1UNL     H8   31  -0.105  -0.037  -0.281
    1UNL     H9   32  -0.261   0.026  -0.331
    1UNL    H10   33  -0.221   0.219  -0.178
    1UNL    H11   34  -0.098   0.204  -0.322
    1UNL    H12   35   0.016   0.367  -0.131
    1UNL    H13   36   0.138   0.242  -0.183
    1UNL    H14   37   0.118   0.359   0.103
    1UNL    H15   38   0.242   0.258   0.034
    1UNL    H16   39   0.034   0.172   0.191
    1UNL    H17   40   0.129   0.058   0.338
    1UNL    H18   41   0.237  -0.148   0.391
    1UNL    H19   42   0.362  -0.276   0.211
    1UNL    H20   43   0.370  -0.179  -0.012
    1UNL    H21   44   0.265   0.083  -0.150
    1UNL    H22   45  -0.013  -0.204  -0.249
    1UNL    H23   46   0.114  -0.269  -0.145
    1UNL    H24   47  -0.086  -0.256  -0.007
    1UNL    H25   48   0.048  -0.154   0.050
    1UNL    H26   49  -0.166   0.278   0.005
   0.00000   0.00000   0.00000   0.00000   0.00000   0.00000   0.00000   0.00000   0.00000
Generated with MDTraj, t= 27.0
 49
    1UNL     C1    1  -0.249  -0.182   0.170
    1UNL     C2    2  -0.182  -0.051   0.136
    1UNL     C3    3  -0.130  -0.040  -0.003
    1UNL     C4    4  -0.240  -0.041  -0.113
    1UNL     C5    5  -0.212   0.029  -0.247
    1UNL     C6    6  -0.130   0.158  -0.229
    1UNL     N1    7  -0.020   0.150  -0.128
    1UNL     C7    8   0.077   0.264  -0.105
    1UNL     C8    9   0.130   0.244   0.034
    1UNL     C9   10   0.051   0.130   0.093
    1UNL    C10   11   0.151   0.019   0.129
    1UNL    C11   12   0.174  -0.012   0.266
    1UNL    C12   13   0.264  -0.114   0.300
    1UNL    C13   14   0.337  -0.178   0.200
    1UNL    C14   15   0.323  -0.137   0.070
    1UNL    C15   16   0.236  -0.035   0.031
    1UNL     N2   17   0.224  -0.006  -0.107
    1UNL    C16   18   0.128  -0.050  -0.193
    1UNL     O1   19   0.131  -0.002  -0.305
    1UNL    C17   20   0.038  -0.167  -0.155
    1UNL    C18   21  -0.032  -0.163  -0.019
    1UNL    C19   22  -0.076   0.106  -0.001
    1UNL     O2   23  -0.180   0.198   0.043
    1UNL     H1   24  -0.171  -0.252   0.204
    1UNL     H2   25  -0.310  -0.221   0.089
    1UNL     H3   26  -0.321  -0.171   0.253
    1UNL     H4   27  -0.247   0.033   0.166
    1UNL     H5   28  -0.099  -0.046   0.211
    1UNL     H6   29  -0.319   0.028  -0.067
    1UNL     H7   30  -0.287  -0.138  -0.133
    1UNL     H8   31  -0.164  -0.031  -0.317
    1UNL     H9   32  -0.317   0.053  -0.289
    1UNL    H10   33  -0.190   0.249  -0.222
    1UNL    H11   34  -0.066   0.156  -0.324
    1UNL    H12   35   0.019   0.355  -0.110
    1UNL    H13   36   0.164   0.278  -0.172
    1UNL    H14   37   0.113   0.336   0.099
    1UNL    H15   38   0.239   0.222   0.045
    1UNL    H16   39   0.008   0.165   0.185
    1UNL    H17   40   0.116   0.044   0.336
    1UNL    H18   41   0.283  -0.136   0.400
    1UNL    H19   42   0.396  -0.268   0.218
    1UNL    H20   43   0.384  -0.190  -0.013
    1UNL    H21   44   0.280   0.073  -0.140
    1UNL    H22   45  -0.035  -0.175  -0.228
    1UNL    H23   46   0.105  -0.255  -0.170
    1UNL    H24   47  -0.105  -0.241  -0.013
    1UNL    H25   48   0.032  -0.177   0.066
    1UNL    H26   49  -0.179   0.275  -0.014
   0.00000   0.00000   0.00000   0.00000   0.00000   0.00000   0.00000   0.00000   0.00000
Generated with MDTraj, t= 28.0
 49
    1UNL     C1    1  -0.269  -0.197   0.157
    1UNL     C2    2  -0.180  -0.068   0.143
    1UNL     C3    3  -0.135  -0.032  -0.001
    1UNL     C4    4  -0.256  -0.028  -0.096
    1UNL     C5    5  -0.224   0.038  -0.230
    1UNL     C6    6  -0.150   0.171  -0.218
    1UNL     N1    7  -0.029   0.150  -0.130
    1UNL     C7    8   0.069   0.258  -0.115
    1UNL     C8    9   0.143   0.240   0.023
    1UNL     C9   10   0.058   0.131   0.092
    1UNL    C10   11   0.149   0.018   0.121
    1UNL    C11   12   0.155  -0.020   0.254
    1UNL    C12   13   0.253  -0.109   0.295
    1UNL    C13   14   0.345  -0.160   0.204
    1UNL    C14   15   0.339  -0.117   0.075
    1UNL    C15   16   0.239  -0.039   0.033
    1UNL     N2   17   0.236  -0.006  -0.102
    1UNL    C16   18   0.146  -0.064  -0.190
    1UNL     O1   19   0.159  -0.038  -0.309
    1UNL    C17   20   0.039  -0.159  -0.163
    1UNL    C18   21  -0.037  -0.143  -0.038
    1UNL    C19   22  -0.070   0.111   0.007
    1UNL     O2   23  -0.173   0.197   0.050
    1UNL     H1   24  -0.217  -0.287   0.117
    1UNL     H2   25  -0.358  -0.187   0.095
    1UNL     H3   26  -0.318  -0.239   0.245
    1UNL     H4   27  -0.253   0.009   0.175
    1UNL     H5   28  -0.097  -0.053   0.216
    1UNL     H6   29  -0.346   0.022  -0.049
    1UNL     H7   30  -0.283  -0.132  -0.118
    1UNL     H8   31  -0.166  -0.032  -0.287
    1UNL     H9   32  -0.317   0.057  -0.294
    1UNL    H10   33  -0.211   0.246  -0.169
    1UNL    H11   34  -0.120   0.222  -0.314
    1UNL    H12   35   0.029   0.356  -0.120
    1UNL    H13   36   0.142   0.257  -0.199
    1UNL    H14   37   0.144   0.338   0.076
    1UNL    H15   38   0.253   0.202   0.015
    1UNL    H16   39   0.018   0.169   0.184
    1UNL    H17   40   0.083   0.027   0.322
    1UNL    H18   41   0.268  -0.139   0.402
    1UNL    H19   42   0.432  -0.214   0.238
    1UNL    H20   43   0.403  -0.157   0.004
    1UNL    H21   44   0.325   0.018  -0.136
    1UNL    H22   45  -0.025  -0.170  -0.245
    1UNL    H23   46   0.082  -0.263  -0.155
    1UNL    H24   47  -0.094  -0.234  -0.042
    1UNL    H25   48   0.030  -0.149   0.047
    1UNL    H26   49  -0.137   0.276   0.095
   0.00000   0.00000   0.00000   0.00000   0.00000   0.00000   0.00000   0.00000   0.00000
Generated with MDTraj, t= 29.0
 49
    1UNL     C1    1  -0.278  -0.175   0.164
    1UNL     C2    2  -0.178  -0.071   0.144
    1UNL     C3    3  -0.130  -0.047   0.005
    1UNL     C4    4  -0.258  -0.046  -0.104
    1UNL     C5    5  -0.229   0.028  -0.239
    1UNL     C6    6  -0.153   0.162  -0.209
    1UNL     N1    7  -0.026   0.150  -0.134
    1UNL     C7    8   0.071   0.264  -0.130
    1UNL     C8    9   0.128   0.261   0.018
    1UNL     C9   10   0.064   0.142   0.089
    1UNL    C10   11   0.158   0.033   0.126
    1UNL    C11   12   0.171  -0.009   0.256
    1UNL    C12   13   0.251  -0.110   0.303
    1UNL    C13   14   0.328  -0.182   0.212
    1UNL    C14   15   0.318  -0.136   0.081
    1UNL    C15   16   0.235  -0.036   0.035
    1UNL     N2   17   0.239  -0.010  -0.104
    1UNL    C16   18   0.152  -0.053  -0.200
    1UNL     O1   19   0.167  -0.017  -0.318
    1UNL    C17   20   0.042  -0.146  -0.167
    1UNL    C18   21  -0.034  -0.166  -0.033
    1UNL    C19   22  -0.067   0.105   0.005
    1UNL     O2   23  -0.165   0.188   0.065
    1UNL     H1   24  -0.229  -0.275   0.138
    1UNL     H2   25  -0.358  -0.155   0.091
    1UNL     H3   26  -0.325  -0.189   0.260
    1UNL     H4   27  -0.221   0.022   0.188
    1UNL     H5   28  -0.094  -0.093   0.215
    1UNL     H6   29  -0.352   0.001  -0.061
    1UNL     H7   30  -0.281  -0.152  -0.118
    1UNL     H8   31  -0.170  -0.023  -0.320
    1UNL     H9   32  -0.327   0.049  -0.295
    1UNL    H10   33  -0.208   0.227  -0.142
    1UNL    H11   34  -0.136   0.231  -0.296
    1UNL    H12   35   0.037   0.357  -0.164
    1UNL    H13   36   0.151   0.240  -0.203
    1UNL    H14   37   0.113   0.353   0.075
    1UNL    H15   38   0.246   0.253   0.007
    1UNL    H16   39   0.027   0.179   0.184
    1UNL    H17   40   0.105   0.031   0.329
    1UNL    H18   41   0.264  -0.122   0.406
    1UNL    H19   42   0.393  -0.264   0.236
    1UNL    H20   43   0.381  -0.178   0.005
    1UNL    H21   44   0.313   0.043  -0.141
    1UNL    H22   45  -0.037  -0.137  -0.246
    1UNL    H23   46   0.072  -0.251  -0.192
    1UNL    H24   47  -0.085  -0.261  -0.031
    1UNL    H25   48   0.039  -0.184   0.048
    1UNL    H26   49  -0.123   0.280   0.081
   0.00000   0.00000   0.00000   0.00000   0.00000   0.00000   0.00000   0.00000   0.00000
Generated with MDTraj, t= 30.0
 49
    1UNL     C1    1  -0.247  -0.191   0.171
    1UNL     C2    2  -0.166  -0.066   0.146
    1UNL     C3    3  -0.122  -0.035   0.004
    1UNL     C4    4  -0.245  -0.038  -0.092
    1UNL     C5    5  -0.219   0.017  -0.232
    1UNL     C6    6  -0.140   0.144  -0.229
    1UNL     N1    7  -0.022   0.147  -0.144
    1UNL     C7    8   0.066   0.267  -0.129
    1UNL     C8    9   0.131   0.258   0.009
    1UNL     C9   10   0.068   0.143   0.091
    1UNL    C10   11   0.161   0.035   0.135
    1UNL    C11   12   0.156  -0.014   0.265
    1UNL    C12   13   0.243  -0.114   0.304
    1UNL    C13   14   0.314  -0.181   0.205
    1UNL    C14   15   0.306  -0.155   0.072
    1UNL    C15   16   0.225  -0.044   0.039
    1UNL     N2   17   0.223   0.004  -0.095
    1UNL    C16   18   0.136  -0.040  -0.186
    1UNL     O1   19   0.138   0.002  -0.300
    1UNL    C17   20   0.044  -0.153  -0.170
    1UNL    C18   21  -0.035  -0.159  -0.042
    1UNL    C19   22  -0.058   0.110   0.003
    1UNL     O2   23  -0.156   0.191   0.047
    1UNL     H1   24  -0.180  -0.277   0.140
    1UNL     H2   25  -0.338  -0.188   0.106
    1UNL     H3   26  -0.275  -0.210   0.272
    1UNL     H4   27  -0.215   0.021   0.193
    1UNL     H5   28  -0.071  -0.077   0.206
    1UNL     H6   29  -0.327   0.021  -0.041
    1UNL     H7   30  -0.280  -0.143  -0.107
    1UNL     H8   31  -0.179  -0.067  -0.306
    1UNL     H9   32  -0.314   0.054  -0.282
    1UNL    H10   33  -0.193   0.239  -0.226
    1UNL    H11   34  -0.088   0.155  -0.327
    1UNL    H12   35  -0.002   0.345  -0.127
    1UNL    H13   36   0.129   0.284  -0.217
    1UNL    H14   37   0.126   0.357   0.057
    1UNL    H15   38   0.246   0.247  -0.006
    1UNL    H16   39   0.029   0.184   0.184
    1UNL    H17   40   0.096   0.037   0.341
    1UNL    H18   41   0.242  -0.143   0.411
    1UNL    H19   42   0.378  -0.261   0.243
    1UNL    H20   43   0.370  -0.204  -0.010
    1UNL    H21   44   0.309   0.039  -0.133
    1UNL    H22   45  -0.032  -0.147  -0.258
    1UNL    H23   46   0.099  -0.245  -0.205
    1UNL    H24   47  -0.106  -0.240  -0.057
    1UNL    H25   48   0.025  -0.213   0.036
    1UNL    H26   49  -0.113   0.280   0.060
   0.00000   0.00000   0.00000   0.00000   0.00000   0.00000   0.00000   0.00000   0.00000
Generated with MDTraj, t= 31.0
 49
    1UNL     C1    1  -0.223  -0.204   0.180
    1UNL     C2    2  -0.175  -0.056   0.148
    1UNL     C3    3  -0.125  -0.033  -0.000
    1UNL     C4    4  -0.246  -0.045  -0.097
    1UNL     C5    5  -0.226   0.037  -0.234
    1UNL     C6    6  -0.149   0.166  -0.220
    1UNL     N1    7  -0.029   0.154  -0.135
    1UNL     C7    8   0.082   0.259  -0.130
    1UNL     C8    9   0.128   0.260   0.013
    1UNL     C9   10   0.061   0.139   0.094
    1UNL    C10   11   0.151   0.021   0.124
    1UNL    C11   12   0.143  -0.029   0.249
    1UNL    C12   13   0.235  -0.119   0.298
    1UNL    C13   14   0.315  -0.181   0.205
    1UNL    C14   15   0.312  -0.142   0.073
    1UNL    C15   16   0.235  -0.037   0.028
    1UNL     N2   17   0.238   0.004  -0.105
    1UNL    C16   18   0.149  -0.055  -0.194
    1UNL     O1   19   0.157  -0.019  -0.310
    1UNL    C17   20   0.041  -0.153  -0.152
    1UNL    C18   21  -0.033  -0.156  -0.022
    1UNL    C19   22  -0.069   0.114   0.007
    1UNL     O2   23  -0.174   0.203   0.048
    1UNL     H1   24  -0.139  -0.273   0.161
    1UNL     H2   25  -0.306  -0.232   0.108
    1UNL     H3   26  -0.257  -0.230   0.279
    1UNL     H4   27  -0.257   0.017   0.144
    1UNL     H5   28  -0.109  -0.007   0.223
    1UNL     H6   29  -0.330   0.013  -0.050
    1UNL     H7   30  -0.275  -0.151  -0.116
    1UNL     H8   31  -0.147  -0.019  -0.293
    1UNL     H9   32  -0.324   0.051  -0.294
    1UNL    H10   33  -0.203   0.249  -0.173
    1UNL    H11   34  -0.127   0.218  -0.313
    1UNL    H12   35   0.047   0.345  -0.177
    1UNL    H13   36   0.160   0.212  -0.190
    1UNL    H14   37   0.117   0.364   0.055
    1UNL    H15   38   0.238   0.247   0.007
    1UNL    H16   39   0.024   0.170   0.191
    1UNL    H17   40   0.067   0.005   0.316
    1UNL    H18   41   0.245  -0.142   0.402
    1UNL    H19   42   0.372  -0.264   0.236
    1UNL    H20   43   0.371  -0.185   0.003
    1UNL    H21   44   0.327   0.042  -0.144
    1UNL    H22   45  -0.034  -0.134  -0.231
    1UNL    H23   46   0.080  -0.256  -0.178
    1UNL    H24   47  -0.097  -0.243  -0.029
    1UNL    H25   48   0.035  -0.192   0.059
    1UNL    H26   49  -0.136   0.288   0.062
   0.00000   0.00000   0.00000   0.00000   0.00000   0.00000   0.00000   0.00000   0.00000
Generated with MDTraj, t= 32.0
 49
    1UNL     C1    1  -0.250  -0.193   0.173
    1UNL     C2    2  -0.178  -0.061   0.156
    1UNL     C3    3  -0.128  -0.037   0.011
    1UNL     C4    4  -0.257  -0.033  -0.093
    1UNL     C5    5  -0.219   0.033  -0.232
    1UNL     C6    6  -0.148   0.167  -0.222
    1UNL     N1    7  -0.027   0.158  -0.139
    1UNL     C7    8   0.061   0.279  -0.112
    1UNL     C8    9   0.138   0.244   0.014
    1UNL     C9   10   0.056   0.140   0.094
    1UNL    C10   11   0.149   0.022   0.120
    1UNL    C11   12   0.152  -0.017   0.250
    1UNL    C12   13   0.244  -0.111   0.294
    1UNL    C13   14   0.328  -0.177   0.204
    1UNL    C14   15   0.321  -0.143   0.073
    1UNL    C15   16   0.233  -0.043   0.029
    1UNL     N2   17   0.238   0.001  -0.100
    1UNL    C16   18   0.153  -0.060  -0.198
    1UNL     O1   19   0.170  -0.035  -0.313
    1UNL    C17   20   0.046  -0.155  -0.167
    1UNL    C18   21  -0.030  -0.154  -0.031
    1UNL    C19   22  -0.073   0.114  -0.002
    1UNL     O2   23  -0.173   0.190   0.053
    1UNL     H1   24  -0.175  -0.268   0.193
    1UNL     H2   25  -0.311  -0.218   0.082
    1UNL     H3   26  -0.319  -0.182   0.259
    1UNL     H4   27  -0.252   0.021   0.165
    1UNL     H5   28  -0.103  -0.031   0.233
    1UNL     H6   29  -0.348   0.016  -0.050
    1UNL     H7   30  -0.281  -0.139  -0.120
    1UNL     H8   31  -0.162  -0.030  -0.296
    1UNL     H9   32  -0.317   0.065  -0.287
    1UNL    H10   33  -0.219   0.235  -0.177
    1UNL    H11   34  -0.121   0.223  -0.310
    1UNL    H12   35  -0.005   0.358  -0.095
    1UNL    H13   36   0.122   0.290  -0.201
    1UNL    H14   37   0.150   0.344   0.070
    1UNL    H15   38   0.238   0.213  -0.004
    1UNL    H16   39   0.026   0.185   0.189
    1UNL    H17   40   0.081   0.022   0.324
    1UNL    H18   41   0.254  -0.132   0.399
    1UNL    H19   42   0.397  -0.260   0.229
    1UNL    H20   43   0.373  -0.206  -0.006
    1UNL    H21   44   0.333   0.030  -0.137
    1UNL    H22   45  -0.022  -0.134  -0.242
    1UNL    H23   46   0.085  -0.259  -0.190
    1UNL    H24   47  -0.095  -0.239  -0.029
    1UNL    H25   48   0.037  -0.179   0.052
    1UNL    H26   49  -0.146   0.284   0.053
   0.00000   0.00000   0.00000   0.00000   0.00000   0.00000   0.00000   0.00000   0.00000
Generated with MDTraj, t= 33.0
 49
    1UNL     C1    1  -0.281  -0.177   0.148
    1UNL     C2    2  -0.173  -0.077   0.141
    1UNL     C3    3  -0.125  -0.045  -0.003
    1UNL     C4    4  -0.249  -0.035  -0.101
    1UNL     C5    5  -0.217   0.029  -0.235
    1UNL     C6    6  -0.149   0.170  -0.208
    1UNL     N1    7  -0.022   0.148  -0.131
    1UNL     C7    8   0.077   0.258  -0.128
    1UNL     C8    9   0.134   0.256   0.017
    1UNL     C9   10   0.067   0.139   0.095
    1UNL    C10   11   0.161   0.029   0.132
    1UNL    C11   12   0.172   0.003   0.270
    1UNL    C12   13   0.252  -0.105   0.304
    1UNL    C13   14   0.326  -0.174   0.208
    1UNL    C14   15   0.324  -0.135   0.077
    1UNL    C15   16   0.234  -0.040   0.035
    1UNL     N2   17   0.219  -0.007  -0.100
    1UNL    C16   18   0.136  -0.053  -0.201
    1UNL     O1   19   0.143  -0.004  -0.308
    1UNL    C17   20   0.039  -0.163  -0.172
    1UNL    C18   21  -0.035  -0.173  -0.033
    1UNL    C19   22  -0.061   0.102   0.006
    1UNL     O2   23  -0.165   0.180   0.051
    1UNL     H1   24  -0.244  -0.268   0.103
    1UNL     H2   25  -0.384  -0.149   0.115
    1UNL     H3   26  -0.283  -0.195   0.260
    1UNL     H4   27  -0.193   0.010   0.205
    1UNL     H5   28  -0.084  -0.122   0.188
    1UNL     H6   29  -0.322   0.026  -0.044
    1UNL     H7   30  -0.290  -0.139  -0.111
    1UNL     H8   31  -0.145  -0.017  -0.295
    1UNL     H9   32  -0.312   0.048  -0.301
    1UNL    H10   33  -0.207   0.252  -0.172
    1UNL    H11   34  -0.119   0.200  -0.305
    1UNL    H12   35   0.027   0.348  -0.155
    1UNL    H13   36   0.159   0.230  -0.194
    1UNL    H14   37   0.115   0.356   0.072
    1UNL    H15   38   0.238   0.245   0.020
    1UNL    H16   39   0.019   0.181   0.183
    1UNL    H17   40   0.137   0.078   0.338
    1UNL    H18   41   0.269  -0.125   0.411
    1UNL    H19   42   0.389  -0.254   0.239
    1UNL    H20   43   0.379  -0.188  -0.000
    1UNL    H21   44   0.296   0.053  -0.138
    1UNL    H22   45  -0.035  -0.159  -0.244
    1UNL    H23   46   0.098  -0.260  -0.184
    1UNL    H24   47  -0.098  -0.260  -0.031
    1UNL    H25   48   0.034  -0.187   0.048
    1UNL    H26   49  -0.140   0.278   0.048
   0.00000   0.00000   0.00000   0.00000   0.00000   0.00000   0.00000   0.00000   0.00000
Generated with MDTraj, t= 34.0
 49
    1UNL     C1    1  -0.288  -0.179   0.156
    1UNL     C2    2  -0.191  -0.055   0.147
    1UNL     C3    3  -0.134  -0.032  -0.003
    1UNL     C4    4  -0.250  -0.037  -0.109
    1UNL     C5    5  -0.214   0.017  -0.241
    1UNL     C6    6  -0.141   0.152  -0.232
    1UNL     N1    7  -0.023   0.145  -0.134
    1UNL     C7    8   0.062   0.261  -0.114
    1UNL     C8    9   0.129   0.249   0.028
    1UNL     C9   10   0.062   0.127   0.096
    1UNL    C10   11   0.158   0.022   0.132
    1UNL    C11   12   0.180  -0.012   0.264
    1UNL    C12   13   0.261  -0.119   0.301
    1UNL    C13   14   0.346  -0.174   0.205
    1UNL    C14   15   0.344  -0.132   0.074
    1UNL    C15   16   0.249  -0.037   0.038
    1UNL     N2   17   0.235  -0.008  -0.103
    1UNL    C16   18   0.139  -0.049  -0.196
    1UNL     O1   19   0.139   0.002  -0.304
    1UNL    C17   20   0.031  -0.160  -0.163
    1UNL    C18   21  -0.040  -0.159  -0.026
    1UNL    C19   22  -0.069   0.104   0.005
    1UNL     O2   23  -0.166   0.197   0.050
    1UNL     H1   24  -0.234  -0.265   0.120
    1UNL     H2   25  -0.378  -0.185   0.092
    1UNL     H3   26  -0.327  -0.210   0.260
    1UNL     H4   27  -0.249   0.036   0.172
    1UNL     H5   28  -0.111  -0.046   0.223
    1UNL     H6   29  -0.335   0.015  -0.062
    1UNL     H7   30  -0.274  -0.148  -0.117
    1UNL     H8   31  -0.155  -0.046  -0.303
    1UNL     H9   32  -0.308   0.038  -0.309
    1UNL    H10   33  -0.217   0.217  -0.196
    1UNL    H11   34  -0.113   0.194  -0.324
    1UNL    H12   35   0.008   0.354  -0.122
    1UNL    H13   36   0.142   0.256  -0.185
    1UNL    H14   37   0.113   0.346   0.087
    1UNL    H15   38   0.233   0.237   0.033
    1UNL    H16   39   0.017   0.161   0.191
    1UNL    H17   40   0.147   0.060   0.337
    1UNL    H18   41   0.288  -0.136   0.401
    1UNL    H19   42   0.407  -0.261   0.232
    1UNL    H20   43   0.397  -0.183   0.000
    1UNL    H21   44   0.311   0.037  -0.150
    1UNL    H22   45  -0.050  -0.164  -0.241
    1UNL    H23   46   0.081  -0.261  -0.168
    1UNL    H24   47  -0.104  -0.247  -0.028
    1UNL    H25   48   0.027  -0.168   0.056
    1UNL    H26   49  -0.136   0.286   0.016
   0.00000   0.00000   0.00000   0.00000   0.00000   0.00000   0.00000   0.00000   0.00000
Generated with MDTraj, t= 35.0
 49
    1UNL     C1    1  -0.258  -0.184   0.157
    1UNL     C2    2  -0.185  -0.053   0.138
    1UNL     C3    3  -0.128  -0.041   0.001
    1UNL     C4    4  -0.239  -0.043  -0.110
    1UNL     C5    5  -0.203   0.039  -0.237
    1UNL     C6    6  -0.142   0.180  -0.218
    1UNL     N1    7  -0.024   0.158  -0.125
    1UNL     C7    8   0.081   0.264  -0.107
    1UNL     C8    9   0.138   0.245   0.034
    1UNL     C9   10   0.050   0.137   0.100
    1UNL    C10   11   0.136   0.015   0.127
    1UNL    C11   12   0.148  -0.028   0.259
    1UNL    C12   13   0.247  -0.118   0.287
    1UNL    C13   14   0.347  -0.160   0.199
    1UNL    C14   15   0.341  -0.108   0.070
    1UNL    C15   16   0.233  -0.024   0.032
    1UNL     N2   17   0.221   0.002  -0.113
    1UNL    C16   18   0.139  -0.068  -0.200
    1UNL     O1   19   0.129  -0.044  -0.319
    1UNL    C17   20   0.048  -0.185  -0.147
    1UNL    C18   21  -0.031  -0.162  -0.019
    1UNL    C19   22  -0.074   0.112   0.005
    1UNL     O2   23  -0.169   0.201   0.050
    1UNL     H1   24  -0.183  -0.263   0.168
    1UNL     H2   25  -0.316  -0.216   0.072
    1UNL     H3   26  -0.330  -0.184   0.248
    1UNL     H4   27  -0.265   0.021   0.144
    1UNL     H5   28  -0.125  -0.031   0.228
    1UNL     H6   29  -0.334  -0.010  -0.065
    1UNL     H7   30  -0.254  -0.150  -0.147
    1UNL     H8   31  -0.137  -0.016  -0.304
    1UNL     H9   32  -0.302   0.051  -0.298
    1UNL    H10   33  -0.209   0.246  -0.170
    1UNL    H11   34  -0.120   0.227  -0.309
    1UNL    H12   35   0.045   0.366  -0.122
    1UNL    H13   36   0.161   0.248  -0.174
    1UNL    H14   37   0.150   0.332   0.107
    1UNL    H15   38   0.241   0.218   0.031
    1UNL    H16   39   0.019   0.180   0.196
    1UNL    H17   40   0.105   0.021   0.345
    1UNL    H18   41   0.252  -0.149   0.394
    1UNL    H19   42   0.421  -0.234   0.224
    1UNL    H20   43   0.400  -0.157  -0.017
    1UNL    H21   44   0.295   0.045  -0.159
    1UNL    H22   45  -0.028  -0.203  -0.237
    1UNL    H23   46   0.113  -0.276  -0.144
    1UNL    H24   47  -0.093  -0.251  -0.009
    1UNL    H25   48   0.028  -0.164   0.069
    1UNL    H26   49  -0.134   0.288   0.035
   0.00000   0.00000   0.00000   0.00000   0.00000   0.00000   0.00000   0.00000   0.00000
Generated with MDTraj, t= 36.0
 49
    1UNL     C1    1  -0.272  -0.189   0.157
    1UNL     C2    2  -0.198  -0.057   0.132
    1UNL     C3    3  -0.128  -0.035  -0.000
    1UNL     C4    4  -0.234  -0.035  -0.108
    1UNL     C5    5  -0.194   0.020  -0.247
    1UNL     C6    6  -0.127   0.158  -0.226
    1UNL     N1    7  -0.019   0.158  -0.127
    1UNL     C7    8   0.061   0.279  -0.097
    1UNL     C8    9   0.119   0.264   0.048
    1UNL     C9   10   0.054   0.139   0.105
    1UNL    C10   11   0.158   0.028   0.129
    1UNL    C11   12   0.192   0.003   0.262
    1UNL    C12   13   0.271  -0.107   0.293
    1UNL    C13   14   0.321  -0.183   0.191
    1UNL    C14   15   0.309  -0.148   0.060
    1UNL    C15   16   0.237  -0.035   0.028
    1UNL     N2   17   0.223   0.003  -0.109
    1UNL    C16   18   0.138  -0.067  -0.199
    1UNL     O1   19   0.127  -0.030  -0.317
    1UNL    C17   20   0.054  -0.183  -0.145
    1UNL    C18   21  -0.039  -0.161  -0.019
    1UNL    C19   22  -0.065   0.116   0.005
    1UNL     O2   23  -0.174   0.196   0.049
    1UNL     H1   24  -0.193  -0.268   0.173
    1UNL     H2   25  -0.335  -0.233   0.081
    1UNL     H3   26  -0.333  -0.192   0.251
    1UNL     H4   27  -0.266   0.024   0.162
    1UNL     H5   28  -0.118  -0.063   0.208
    1UNL     H6   29  -0.303   0.045  -0.079
    1UNL     H7   30  -0.288  -0.135  -0.118
    1UNL     H8   31  -0.132  -0.050  -0.304
    1UNL     H9   32  -0.292   0.028  -0.312
    1UNL    H10   33  -0.193   0.243  -0.223
    1UNL    H11   34  -0.066   0.173  -0.311
    1UNL    H12   35   0.001   0.372  -0.101
    1UNL    H13   36   0.135   0.286  -0.170
    1UNL    H14   37   0.114   0.354   0.114
    1UNL    H15   38   0.228   0.250   0.057
    1UNL    H16   39   0.010   0.160   0.203
    1UNL    H17   40   0.154   0.068   0.338
    1UNL    H18   41   0.281  -0.135   0.392
    1UNL    H19   42   0.376  -0.274   0.213
    1UNL    H20   43   0.340  -0.208  -0.017
    1UNL    H21   44   0.289   0.066  -0.149
    1UNL    H22   45  -0.005  -0.219  -0.237
    1UNL    H23   46   0.127  -0.269  -0.132
    1UNL    H24   47  -0.096  -0.253  -0.015
    1UNL    H25   48   0.029  -0.165   0.066
    1UNL    H26   49  -0.155   0.289   0.027
   0.00000   0.00000   0.00000   0.00000   0.00000   0.00000   0.00000   0.00000   0.00000
Generated with MDTraj, t= 37.0
 49
    1UNL     C1    1  -0.294  -0.174   0.156
    1UNL     C2    2  -0.188  -0.068   0.138
    1UNL     C3    3  -0.126  -0.050  -0.002
    1UNL     C4    4  -0.230  -0.050  -0.115
    1UNL     C5    5  -0.186   0.028  -0.243
    1UNL     C6    6  -0.128   0.162  -0.221
    1UNL     N1    7  -0.022   0.157  -0.125
    1UNL     C7    8   0.081   0.270  -0.107
    1UNL     C8    9   0.130   0.272   0.036
    1UNL     C9   10   0.063   0.141   0.102
    1UNL    C10   11   0.162   0.035   0.136
    1UNL    C11   12   0.178  -0.001   0.270
    1UNL    C12   13   0.268  -0.108   0.296
    1UNL    C13   14   0.342  -0.166   0.197
    1UNL    C14   15   0.316  -0.134   0.068
    1UNL    C15   16   0.225  -0.036   0.031
    1UNL     N2   17   0.206  -0.005  -0.105
    1UNL    C16   18   0.119  -0.066  -0.198
    1UNL     O1   19   0.118  -0.017  -0.311
    1UNL    C17   20   0.031  -0.179  -0.164
    1UNL    C18   21  -0.026  -0.170  -0.026
    1UNL    C19   22  -0.062   0.099   0.008
    1UNL     O2   23  -0.163   0.188   0.049
    1UNL     H1   24  -0.253  -0.270   0.108
    1UNL     H2   25  -0.383  -0.157   0.094
    1UNL     H3   26  -0.328  -0.203   0.256
    1UNL     H4   27  -0.236   0.027   0.163
    1UNL     H5   28  -0.104  -0.074   0.209
    1UNL     H6   29  -0.326  -0.008  -0.080
    1UNL     H7   30  -0.246  -0.159  -0.144
    1UNL     H8   31  -0.122  -0.037  -0.307
    1UNL     H9   32  -0.278   0.040  -0.313
    1UNL    H10   33  -0.204   0.221  -0.171
    1UNL    H11   34  -0.098   0.216  -0.309
    1UNL    H12   35   0.026   0.365  -0.131
    1UNL    H13   36   0.163   0.258  -0.171
    1UNL    H14   37   0.099   0.364   0.087
    1UNL    H15   38   0.242   0.280   0.050
    1UNL    H16   39   0.012   0.169   0.194
    1UNL    H17   40   0.113   0.040   0.347
    1UNL    H18   41   0.283  -0.147   0.401
    1UNL    H19   42   0.418  -0.234   0.229
    1UNL    H20   43   0.392  -0.175  -0.002
    1UNL    H21   44   0.273   0.065  -0.144
    1UNL    H22   45  -0.042  -0.195  -0.239
    1UNL    H23   46   0.085  -0.280  -0.179
    1UNL    H24   47  -0.083  -0.258  -0.002
    1UNL    H25   48   0.060  -0.175   0.044
    1UNL    H26   49  -0.133   0.280   0.016
   0.00000   0.00000   0.00000   0.00000   0.00000   0.00000   0.00000   0.00000   0.00000
Generated with MDTraj, t= 38.0
 49
    1UNL     C1    1  -0.304  -0.189   0.154
    1UNL     C2    2  -0.212  -0.063   0.139
    1UNL     C3    3  -0.136  -0.037   0.003
    1UNL     C4    4  -0.250  -0.038  -0.110
    1UNL     C5    5  -0.219   0.035  -0.243
    1UNL     C6    6  -0.145   0.170  -0.218
    1UNL     N1    7  -0.023   0.153  -0.139
    1UNL     C7    8   0.067   0.275  -0.108
    1UNL     C8    9   0.134   0.255   0.023
    1UNL     C9   10   0.060   0.131   0.089
    1UNL    C10   11   0.158   0.018   0.129
    1UNL    C11   12   0.169  -0.036   0.254
    1UNL    C12   13   0.276  -0.114   0.293
    1UNL    C13   14   0.370  -0.159   0.203
    1UNL    C14   15   0.354  -0.117   0.076
    1UNL    C15   16   0.246  -0.032   0.038
    1UNL     N2   17   0.230  -0.011  -0.101
    1UNL    C16   18   0.135  -0.066  -0.190
    1UNL     O1   19   0.150  -0.032  -0.308
    1UNL    C17   20   0.036  -0.169  -0.151
    1UNL    C18   21  -0.046  -0.156  -0.019
    1UNL    C19   22  -0.069   0.110   0.002
    1UNL     O2   23  -0.165   0.201   0.054
    1UNL     H1   24  -0.251  -0.279   0.107
    1UNL     H2   25  -0.387  -0.167   0.084
    1UNL     H3   26  -0.336  -0.210   0.256
    1UNL     H4   27  -0.271   0.030   0.149
    1UNL     H5   28  -0.141  -0.063   0.223
    1UNL     H6   29  -0.338   0.008  -0.063
    1UNL     H7   30  -0.280  -0.146  -0.129
    1UNL     H8   31  -0.146  -0.028  -0.303
    1UNL     H9   32  -0.304   0.037  -0.321
    1UNL    H10   33  -0.208   0.238  -0.162
    1UNL    H11   34  -0.115   0.219  -0.310
    1UNL    H12   35   0.007   0.371  -0.106
    1UNL    H13   36   0.141   0.271  -0.185
    1UNL    H14   37   0.137   0.345   0.080
    1UNL    H15   38   0.245   0.231   0.002
    1UNL    H16   39   0.024   0.168   0.185
    1UNL    H17   40   0.080  -0.035   0.315
    1UNL    H18   41   0.271  -0.158   0.387
    1UNL    H19   42   0.464  -0.208   0.231
    1UNL    H20   43   0.440  -0.123   0.008
    1UNL    H21   44   0.292   0.059  -0.151
    1UNL    H22   45  -0.025  -0.199  -0.227
    1UNL    H23   46   0.093  -0.269  -0.143
    1UNL    H24   47  -0.108  -0.243  -0.007
    1UNL    H25   48   0.024  -0.161   0.068
    1UNL    H26   49  -0.147   0.291   0.013
   0.00000   0.00000   0.00000   0.00000   0.00000   0.00000   0.00000   0.00000   0.00000
Generated with MDTraj, t= 39.0
 49
    1UNL     C1    1  -0.285  -0.186   0.165
    1UNL     C2    2  -0.204  -0.065   0.142
    1UNL     C3    3  -0.131  -0.037   0.003
    1UNL     C4    4  -0.244  -0.039  -0.104
    1UNL     C5    5  -0.212   0.036  -0.231
    1UNL     C6    6  -0.142   0.170  -0.211
    1UNL     N1    7  -0.029   0.157  -0.129
    1UNL     C7    8   0.087   0.262  -0.121
    1UNL     C8    9   0.133   0.252   0.029
    1UNL     C9   10   0.057   0.131   0.094
    1UNL    C10   11   0.148   0.016   0.125
    1UNL    C11   12   0.165  -0.024   0.258
    1UNL    C12   13   0.269  -0.099   0.297
    1UNL    C13   14   0.348  -0.161   0.203
    1UNL    C14   15   0.327  -0.139   0.067
    1UNL    C15   16   0.232  -0.047   0.030
    1UNL     N2   17   0.228  -0.007  -0.107
    1UNL    C16   18   0.141  -0.053  -0.194
    1UNL     O1   19   0.140  -0.016  -0.309
    1UNL    C17   20   0.053  -0.170  -0.158
    1UNL    C18   21  -0.030  -0.158  -0.024
    1UNL    C19   22  -0.070   0.106   0.003
    1UNL     O2   23  -0.174   0.196   0.041
    1UNL     H1   24  -0.221  -0.276   0.177
    1UNL     H2   25  -0.348  -0.205   0.073
    1UNL     H3   26  -0.349  -0.177   0.253
    1UNL     H4   27  -0.256   0.028   0.168
    1UNL     H5   28  -0.113  -0.062   0.204
    1UNL     H6   29  -0.333   0.011  -0.060
    1UNL     H7   30  -0.272  -0.147  -0.121
    1UNL     H8   31  -0.161  -0.031  -0.310
    1UNL     H9   32  -0.310   0.060  -0.285
    1UNL    H10   33  -0.208   0.256  -0.183
    1UNL    H11   34  -0.091   0.185  -0.309
    1UNL    H12   35   0.039   0.363  -0.137
    1UNL    H13   36   0.162   0.232  -0.192
    1UNL    H14   37   0.103   0.340   0.076
    1UNL    H15   38   0.250   0.246   0.034
    1UNL    H16   39   0.017   0.160   0.191
    1UNL    H17   40   0.085  -0.017   0.332
    1UNL    H18   41   0.277  -0.142   0.400
    1UNL    H19   42   0.440  -0.199   0.239
    1UNL    H20   43   0.401  -0.147  -0.006
    1UNL    H21   44   0.300   0.061  -0.142
    1UNL    H22   45  -0.004  -0.197  -0.243
    1UNL    H23   46   0.121  -0.264  -0.155
    1UNL    H24   47  -0.077  -0.254  -0.016
    1UNL    H25   48   0.045  -0.162   0.056
    1UNL    H26   49  -0.138   0.282   0.018
   0.00000   0.00000   0.00000   0.00000   0.00000   0.00000   0.00000   0.00000   0.00000
Generated with MDTraj, t= 40.0
 49
    1UNL     C1    1  -0.260  -0.198   0.170
    1UNL     C2    2  -0.173  -0.072   0.147
    1UNL     C3    3  -0.114  -0.044   0.002
    1UNL     C4    4  -0.231  -0.041  -0.092
    1UNL     C5    5  -0.209   0.025  -0.236
    1UNL     C6    6  -0.123   0.159  -0.234
    1UNL     N1    7  -0.022   0.158  -0.129
    1UNL     C7    8   0.070   0.283  -0.111
    1UNL     C8    9   0.135   0.269   0.026
    1UNL     C9   10   0.064   0.146   0.094
    1UNL    C10   11   0.154   0.036   0.128
    1UNL    C11   12   0.176   0.002   0.260
    1UNL    C12   13   0.254  -0.105   0.302
    1UNL    C13   14   0.311  -0.186   0.207
    1UNL    C14   15   0.289  -0.157   0.076
    1UNL    C15   16   0.221  -0.044   0.036
    1UNL     N2   17   0.217  -0.005  -0.108
    1UNL    C16   18   0.134  -0.056  -0.203
    1UNL     O1   19   0.131  -0.007  -0.313
    1UNL    C17   20   0.046  -0.172  -0.172
    1UNL    C18   21  -0.026  -0.167  -0.038
    1UNL    C19   22  -0.061   0.110   0.010
    1UNL     O2   23  -0.171   0.192   0.047
    1UNL     H1   24  -0.209  -0.288   0.139
    1UNL     H2   25  -0.353  -0.185   0.103
    1UNL     H3   26  -0.289  -0.201   0.276
    1UNL     H4   27  -0.230   0.019   0.175
    1UNL     H5   28  -0.087  -0.073   0.215
    1UNL     H6   29  -0.309   0.018  -0.037
    1UNL     H7   30  -0.265  -0.147  -0.099
    1UNL     H8   31  -0.170  -0.053  -0.314
    1UNL     H9   32  -0.318   0.043  -0.268
    1UNL    H10   33  -0.200   0.229  -0.190
    1UNL    H11   34  -0.081   0.184  -0.336
    1UNL    H12   35   0.009   0.375  -0.125
    1UNL    H13   36   0.146   0.280  -0.190
    1UNL    H14   37   0.124   0.361   0.079
    1UNL    H15   38   0.249   0.261   0.013
    1UNL    H16   39   0.018   0.185   0.185
    1UNL    H17   40   0.111   0.046   0.334
    1UNL    H18   41   0.252  -0.143   0.401
    1UNL    H19   42   0.389  -0.260   0.235
    1UNL    H20   43   0.362  -0.197  -0.002
    1UNL    H21   44   0.263   0.078  -0.141
    1UNL    H22   45  -0.017  -0.190  -0.261
    1UNL    H23   46   0.130  -0.250  -0.173
    1UNL    H24   47  -0.086  -0.258  -0.038
    1UNL    H25   48   0.041  -0.182   0.046
    1UNL    H26   49  -0.156   0.282   0.014
   0.00000   0.00000   0.00000   0.00000   0.00000   0.00000   0.00000   0.00000   0.00000
Generated with MDTraj, t= 41.0
 49
    1UNL     C1    1  -0.246  -0.192   0.182
    1UNL     C2    2  -0.189  -0.054   0.149
    1UNL     C3    3  -0.125  -0.041   0.001
    1UNL     C4    4  -0.243  -0.051  -0.106
    1UNL     C5    5  -0.219   0.030  -0.234
    1UNL     C6    6  -0.156   0.166  -0.220
    1UNL     N1    7  -0.036   0.155  -0.132
    1UNL     C7    8   0.065   0.270  -0.122
    1UNL     C8    9   0.130   0.266   0.014
    1UNL     C9   10   0.066   0.147   0.088
    1UNL    C10   11   0.157   0.031   0.132
    1UNL    C11   12   0.164  -0.021   0.264
    1UNL    C12   13   0.238  -0.135   0.293
    1UNL    C13   14   0.314  -0.198   0.200
    1UNL    C14   15   0.320  -0.139   0.073
    1UNL    C15   16   0.243  -0.026   0.038
    1UNL     N2   17   0.229   0.001  -0.096
    1UNL    C16   18   0.144  -0.050  -0.201
    1UNL     O1   19   0.164  -0.026  -0.319
    1UNL    C17   20   0.043  -0.161  -0.165
    1UNL    C18   21  -0.024  -0.156  -0.028
    1UNL    C19   22  -0.066   0.112  -0.000
    1UNL     O2   23  -0.165   0.202   0.057
    1UNL     H1   24  -0.191  -0.279   0.150
    1UNL     H2   25  -0.343  -0.198   0.124
    1UNL     H3   26  -0.273  -0.205   0.291
    1UNL     H4   27  -0.274   0.018   0.152
    1UNL     H5   28  -0.120  -0.022   0.228
    1UNL     H6   29  -0.331  -0.008  -0.050
    1UNL     H7   30  -0.259  -0.158  -0.129
    1UNL     H8   31  -0.159  -0.040  -0.301
    1UNL     H9   32  -0.324   0.033  -0.281
    1UNL    H10   33  -0.233   0.243  -0.186
    1UNL    H11   34  -0.121   0.187  -0.326
    1UNL    H12   35   0.017   0.367  -0.147
    1UNL    H13   36   0.137   0.255  -0.207
    1UNL    H14   37   0.130   0.364   0.059
    1UNL    H15   38   0.239   0.252   0.002
    1UNL    H16   39   0.016   0.195   0.172
    1UNL    H17   40   0.105   0.029   0.340
    1UNL    H18   41   0.216  -0.189   0.385
    1UNL    H19   42   0.377  -0.280   0.220
    1UNL    H20   43   0.385  -0.181   0.006
    1UNL    H21   44   0.292   0.068  -0.131
    1UNL    H22   45  -0.027  -0.172  -0.253
    1UNL    H23   46   0.111  -0.252  -0.158
    1UNL    H24   47  -0.078  -0.250  -0.015
    1UNL    H25   48   0.048  -0.150   0.051
    1UNL    H26   49  -0.145   0.298   0.030
   0.00000   0.00000   0.00000   0.00000   0.00000   0.00000   0.00000   0.00000   0.00000
Generated with MDTraj, t= 42.0
 49
    1UNL     C1    1  -0.253  -0.198   0.168
    1UNL     C2    2  -0.194  -0.067   0.147
    1UNL     C3    3  -0.131  -0.034   0.005
    1UNL     C4    4  -0.259  -0.025  -0.085
    1UNL     C5    5  -0.229   0.031  -0.226
    1UNL     C6    6  -0.154   0.163  -0.216
    1UNL     N1    7  -0.029   0.144  -0.134
    1UNL     C7    8   0.078   0.253  -0.129
    1UNL     C8    9   0.144   0.251   0.013
    1UNL     C9   10   0.061   0.137   0.085
    1UNL    C10   11   0.149   0.020   0.135
    1UNL    C11   12   0.150  -0.024   0.266
    1UNL    C12   13   0.236  -0.132   0.298
    1UNL    C13   14   0.336  -0.171   0.208
    1UNL    C14   15   0.343  -0.115   0.082
    1UNL    C15   16   0.245  -0.031   0.040
    1UNL     N2   17   0.235  -0.010  -0.105
    1UNL    C16   18   0.140  -0.054  -0.203
    1UNL     O1   19   0.159  -0.015  -0.314
    1UNL    C17   20   0.044  -0.160  -0.177
    1UNL    C18   21  -0.031  -0.150  -0.042
    1UNL    C19   22  -0.068   0.108   0.000
    1UNL     O2   23  -0.168   0.206   0.050
    1UNL     H1   24  -0.184  -0.282   0.181
    1UNL     H2   25  -0.319  -0.242   0.092
    1UNL     H3   26  -0.312  -0.202   0.264
    1UNL     H4   27  -0.261   0.014   0.185
    1UNL     H5   28  -0.107  -0.069   0.213
    1UNL     H6   29  -0.332   0.037  -0.022
    1UNL     H7   30  -0.296  -0.128  -0.088
    1UNL     H8   31  -0.173  -0.039  -0.283
    1UNL     H9   32  -0.332   0.029  -0.283
    1UNL    H10   33  -0.229   0.234  -0.168
    1UNL    H11   34  -0.121   0.198  -0.320
    1UNL    H12   35   0.034   0.351  -0.150
    1UNL    H13   36   0.150   0.240  -0.217
    1UNL    H14   37   0.132   0.349   0.060
    1UNL    H15   38   0.251   0.242   0.018
    1UNL    H16   39   0.007   0.187   0.167
    1UNL    H17   40   0.092   0.024   0.345
    1UNL    H18   41   0.230  -0.181   0.396
    1UNL    H19   42   0.406  -0.252   0.239
    1UNL    H20   43   0.422  -0.155   0.012
    1UNL    H21   44   0.298   0.051  -0.151
    1UNL    H22   45  -0.030  -0.172  -0.262
    1UNL    H23   46   0.106  -0.254  -0.168
    1UNL    H24   47  -0.086  -0.243  -0.030
    1UNL    H25   48   0.046  -0.148   0.031
    1UNL    H26   49  -0.135   0.301   0.037
   0.00000   0.00000   0.00000   0.00000   0.00000   0.00000   0.00000   0.00000   0.00000
Generated with MDTraj, t= 43.0
 49
    1UNL     C1    1  -0.274  -0.185   0.173
    1UNL     C2    2  -0.173  -0.071   0.143
    1UNL     C3    3  -0.125  -0.049  -0.005
    1UNL     C4    4  -0.255  -0.036  -0.094
    1UNL     C5    5  -0.229   0.034  -0.230
    1UNL     C6    6  -0.148   0.161  -0.224
    1UNL     N1    7  -0.028   0.148  -0.134
    1UNL     C7    8   0.071   0.258  -0.112
    1UNL     C8    9   0.142   0.237   0.025
    1UNL     C9   10   0.059   0.130   0.096
    1UNL    C10   11   0.148   0.023   0.132
    1UNL    C11   12   0.187   0.009   0.267
    1UNL    C12   13   0.268  -0.095   0.310
    1UNL    C13   14   0.335  -0.169   0.217
    1UNL    C14   15   0.315  -0.155   0.084
    1UNL    C15   16   0.232  -0.050   0.038
    1UNL     N2   17   0.234  -0.028  -0.105
    1UNL    C16   18   0.145  -0.045  -0.210
    1UNL     O1   19   0.154   0.022  -0.310
    1UNL    C17   20   0.037  -0.154  -0.187
    1UNL    C18   21  -0.032  -0.160  -0.049
    1UNL    C19   22  -0.064   0.103   0.004
    1UNL     O2   23  -0.181   0.191   0.035
    1UNL     H1   24  -0.240  -0.287   0.152
    1UNL     H2   25  -0.362  -0.172   0.114
    1UNL     H3   26  -0.303  -0.175   0.283
    1UNL     H4   27  -0.234   0.019   0.173
    1UNL     H5   28  -0.093  -0.080   0.216
    1UNL     H6   29  -0.330   0.021  -0.029
    1UNL     H7   30  -0.294  -0.138  -0.103
    1UNL     H8   31  -0.205  -0.036  -0.301
    1UNL     H9   32  -0.335   0.063  -0.274
    1UNL    H10   33  -0.218   0.235  -0.174
    1UNL    H11   34  -0.118   0.188  -0.331
    1UNL    H12   35   0.027   0.357  -0.121
    1UNL    H13   36   0.157   0.249  -0.189
    1UNL    H14   37   0.138   0.331   0.083
    1UNL    H15   38   0.241   0.211   0.013
    1UNL    H16   39   0.014   0.162   0.192
    1UNL    H17   40   0.155   0.079   0.341
    1UNL    H18   41   0.295  -0.100   0.412
    1UNL    H19   42   0.403  -0.242   0.249
    1UNL    H20   43   0.346  -0.221   0.006
    1UNL    H21   44   0.300   0.041  -0.132
    1UNL    H22   45  -0.032  -0.165  -0.275
    1UNL    H23   46   0.098  -0.249  -0.194
    1UNL    H24   47  -0.077  -0.256  -0.023
    1UNL    H25   48   0.046  -0.158   0.026
    1UNL    H26   49  -0.167   0.285   0.025
   0.00000   0.00000   0.00000   0.00000   0.00000   0.00000   0.00000   0.00000   0.00000
Generated with MDTraj, t= 44.0
 49
    1UNL     C1    1  -0.270  -0.200   0.149
    1UNL     C2    2  -0.182  -0.072   0.141
    1UNL     C3    3  -0.121  -0.041   0.001
    1UNL     C4    4  -0.248  -0.040  -0.097
    1UNL     C5    5  -0.230   0.043  -0.228
    1UNL     C6    6  -0.161   0.178  -0.218
    1UNL     N1    7  -0.038   0.158  -0.129
    1UNL     C7    8   0.073   0.262  -0.125
    1UNL     C8    9   0.142   0.247   0.010
    1UNL     C9   10   0.062   0.148   0.096
    1UNL    C10   11   0.159   0.034   0.135
    1UNL    C11   12   0.172   0.002   0.266
    1UNL    C12   13   0.255  -0.101   0.301
    1UNL    C13   14   0.330  -0.181   0.213
    1UNL    C14   15   0.325  -0.149   0.081
    1UNL    C15   16   0.238  -0.038   0.042
    1UNL     N2   17   0.228  -0.013  -0.105
    1UNL    C16   18   0.143  -0.057  -0.201
    1UNL     O1   19   0.152  -0.014  -0.315
    1UNL    C17   20   0.044  -0.169  -0.174
    1UNL    C18   21  -0.025  -0.157  -0.037
    1UNL    C19   22  -0.062   0.104   0.010
    1UNL     O2   23  -0.173   0.190   0.054
    1UNL     H1   24  -0.251  -0.271   0.065
    1UNL     H2   25  -0.372  -0.179   0.134
    1UNL     H3   26  -0.266  -0.254   0.249
    1UNL     H4   27  -0.234   0.018   0.185
    1UNL     H5   28  -0.095  -0.081   0.208
    1UNL     H6   29  -0.324   0.028  -0.045
    1UNL     H7   30  -0.294  -0.139  -0.114
    1UNL     H8   31  -0.187  -0.015  -0.304
    1UNL     H9   32  -0.339   0.051  -0.271
    1UNL    H10   33  -0.231   0.255  -0.173
    1UNL    H11   34  -0.131   0.208  -0.325
    1UNL    H12   35   0.033   0.363  -0.126
    1UNL    H13   36   0.148   0.236  -0.211
    1UNL    H14   37   0.154   0.343   0.061
    1UNL    H15   38   0.235   0.208  -0.006
    1UNL    H16   39   0.030   0.196   0.192
    1UNL    H17   40   0.143   0.072   0.345
    1UNL    H18   41   0.263  -0.127   0.409
    1UNL    H19   42   0.393  -0.265   0.245
    1UNL    H20   43   0.355  -0.222   0.008
    1UNL    H21   44   0.295   0.055  -0.145
    1UNL    H22   45  -0.033  -0.176  -0.256
    1UNL    H23   46   0.094  -0.270  -0.191
    1UNL    H24   47  -0.059  -0.257  -0.011
    1UNL    H25   48   0.059  -0.157   0.035
    1UNL    H26   49  -0.158   0.278   0.019
   0.00000   0.00000   0.00000   0.00000   0.00000   0.00000   0.00000   0.00000   0.00000
Generated with MDTraj, t= 45.0
 49
    1UNL     C1    1  -0.266  -0.179   0.180
    1UNL     C2    2  -0.193  -0.051   0.143
    1UNL     C3    3  -0.124  -0.038   0.008
    1UNL     C4    4  -0.247  -0.040  -0.093
    1UNL     C5    5  -0.217   0.022  -0.230
    1UNL     C6    6  -0.151   0.159  -0.219
    1UNL     N1    7  -0.033   0.157  -0.134
    1UNL     C7    8   0.059   0.278  -0.123
    1UNL     C8    9   0.131   0.266   0.014
    1UNL     C9   10   0.057   0.141   0.093
    1UNL    C10   11   0.156   0.022   0.130
    1UNL    C11   12   0.154  -0.037   0.258
    1UNL    C12   13   0.233  -0.145   0.292
    1UNL    C13   14   0.330  -0.181   0.201
    1UNL    C14   15   0.341  -0.122   0.072
    1UNL    C15   16   0.248  -0.029   0.031
    1UNL     N2   17   0.231   0.005  -0.108
    1UNL    C16   18   0.149  -0.059  -0.201
    1UNL     O1   19   0.161  -0.024  -0.319
    1UNL    C17   20   0.049  -0.171  -0.168
    1UNL    C18   21  -0.028  -0.159  -0.030
    1UNL    C19   22  -0.062   0.112   0.006
    1UNL     O2   23  -0.164   0.200   0.065
    1UNL     H1   24  -0.193  -0.259   0.215
    1UNL     H2   25  -0.307  -0.221   0.090
    1UNL     H3   26  -0.348  -0.156   0.252
    1UNL     H4   27  -0.250   0.044   0.158
    1UNL     H5   28  -0.112  -0.034   0.216
    1UNL     H6   29  -0.331   0.024  -0.050
    1UNL     H7   30  -0.284  -0.142  -0.110
    1UNL     H8   31  -0.164  -0.055  -0.292
    1UNL     H9   32  -0.311   0.026  -0.296
    1UNL    H10   33  -0.225   0.235  -0.183
    1UNL    H11   34  -0.112   0.192  -0.322
    1UNL    H12   35  -0.005   0.367  -0.131
    1UNL    H13   36   0.134   0.272  -0.211
    1UNL    H14   37   0.132   0.355   0.074
    1UNL    H15   38   0.235   0.244   0.008
    1UNL    H16   39   0.014   0.177   0.190
    1UNL    H17   40   0.093   0.013   0.330
    1UNL    H18   41   0.237  -0.182   0.389
    1UNL    H19   42   0.373  -0.276   0.229
    1UNL    H20   43   0.421  -0.165   0.007
    1UNL    H21   44   0.294   0.079  -0.149
    1UNL    H22   45  -0.027  -0.188  -0.252
    1UNL    H23   46   0.093  -0.276  -0.178
    1UNL    H24   47  -0.078  -0.254  -0.013
    1UNL    H25   48   0.045  -0.169   0.055
    1UNL    H26   49  -0.188   0.282   0.009
   0.00000   0.00000   0.00000   0.00000   0.00000   0.00000   0.00000   0.00000   0.00000
Generated with MDTraj, t= 46.0
 49
    1UNL     C1    1  -0.252  -0.194   0.181
    1UNL     C2    2  -0.200  -0.058   0.144
    1UNL     C3    3  -0.127  -0.035   0.010
    1UNL     C4    4  -0.242  -0.042  -0.101
    1UNL     C5    5  -0.198   0.016  -0.232
    1UNL     C6    6  -0.125   0.151  -0.225
    1UNL     N1    7  -0.013   0.147  -0.137
    1UNL     C7    8   0.075   0.260  -0.115
    1UNL     C8    9   0.128   0.266   0.025
    1UNL     C9   10   0.065   0.145   0.104
    1UNL    C10   11   0.156   0.027   0.132
    1UNL    C11   12   0.163  -0.024   0.267
    1UNL    C12   13   0.248  -0.130   0.290
    1UNL    C13   14   0.322  -0.180   0.189
    1UNL    C14   15   0.322  -0.132   0.059
    1UNL    C15   16   0.225  -0.039   0.029
    1UNL     N2   17   0.215   0.012  -0.105
    1UNL    C16   18   0.132  -0.050  -0.199
    1UNL     O1   19   0.120  -0.006  -0.314
    1UNL    C17   20   0.053  -0.165  -0.153
    1UNL    C18   21  -0.035  -0.158  -0.022
    1UNL    C19   22  -0.055   0.112   0.004
    1UNL     O2   23  -0.167   0.204   0.037
    1UNL     H1   24  -0.190  -0.277   0.138
    1UNL     H2   25  -0.350  -0.204   0.130
    1UNL     H3   26  -0.263  -0.200   0.290
    1UNL     H4   27  -0.281   0.019   0.149
    1UNL     H5   28  -0.133  -0.024   0.225
    1UNL     H6   29  -0.339  -0.001  -0.059
    1UNL     H7   30  -0.256  -0.149  -0.124
    1UNL     H8   31  -0.133  -0.057  -0.296
    1UNL     H9   32  -0.287   0.016  -0.302
    1UNL    H10   33  -0.193   0.224  -0.176
    1UNL    H11   34  -0.095   0.192  -0.327
    1UNL    H12   35   0.033   0.353  -0.158
    1UNL    H13   36   0.167   0.231  -0.179
    1UNL    H14   37   0.106   0.356   0.074
    1UNL    H15   38   0.238   0.255   0.039
    1UNL    H16   39   0.011   0.170   0.200
    1UNL    H17   40   0.104   0.028   0.344
    1UNL    H18   41   0.250  -0.169   0.395
    1UNL    H19   42   0.377  -0.271   0.209
    1UNL    H20   43   0.383  -0.175  -0.011
    1UNL    H21   44   0.272   0.096  -0.135
    1UNL    H22   45  -0.011  -0.200  -0.238
    1UNL    H23   46   0.122  -0.255  -0.144
    1UNL    H24   47  -0.087  -0.250  -0.002
    1UNL    H25   48   0.042  -0.156   0.058
    1UNL    H26   49  -0.134   0.297   0.050
   0.00000   0.00000   0.00000   0.00000   0.00000   0.00000   0.00000   0.00000   0.00000
Generated with MDTraj, t= 47.0
 49
    1UNL     C1    1  -0.272  -0.191   0.154
    1UNL     C2    2  -0.188  -0.067   0.140
    1UNL     C3    3  -0.121  -0.045   0.001
    1UNL     C4    4  -0.241  -0.042  -0.105
    1UNL     C5    5  -0.209   0.038  -0.235
    1UNL     C6    6  -0.138   0.178  -0.220
    1UNL     N1    7  -0.018   0.162  -0.132
    1UNL     C7    8   0.069   0.289  -0.106
    1UNL     C8    9   0.128   0.269   0.029
    1UNL     C9   10   0.060   0.145   0.099
    1UNL    C10   11   0.163   0.033   0.126
    1UNL    C11   12   0.180  -0.002   0.258
    1UNL    C12   13   0.268  -0.099   0.297
    1UNL    C13   14   0.335  -0.177   0.206
    1UNL    C14   15   0.312  -0.150   0.072
    1UNL    C15   16   0.220  -0.054   0.030
    1UNL     N2   17   0.220  -0.014  -0.108
    1UNL    C16   18   0.132  -0.066  -0.203
    1UNL     O1   19   0.126  -0.025  -0.319
    1UNL    C17   20   0.049  -0.184  -0.155
    1UNL    C18   21  -0.023  -0.165  -0.019
    1UNL    C19   22  -0.059   0.106   0.005
    1UNL     O2   23  -0.175   0.192   0.046
    1UNL     H1   24  -0.214  -0.286   0.152
    1UNL     H2   25  -0.345  -0.210   0.068
    1UNL     H3   26  -0.332  -0.196   0.244
    1UNL     H4   27  -0.248   0.022   0.169
    1UNL     H5   28  -0.104  -0.066   0.211
    1UNL     H6   29  -0.328   0.014  -0.059
    1UNL     H7   30  -0.262  -0.149  -0.121
    1UNL     H8   31  -0.141  -0.035  -0.295
    1UNL     H9   32  -0.295   0.050  -0.305
    1UNL    H10   33  -0.210   0.247  -0.172
    1UNL    H11   34  -0.111   0.227  -0.318
    1UNL    H12   35  -0.004   0.372  -0.088
    1UNL    H13   36   0.128   0.328  -0.196
    1UNL    H14   37   0.134   0.349   0.094
    1UNL    H15   38   0.236   0.238   0.022
    1UNL    H16   39   0.017   0.175   0.198
    1UNL    H17   40   0.120   0.037   0.338
    1UNL    H18   41   0.281  -0.126   0.397
    1UNL    H19   42   0.406  -0.257   0.233
    1UNL    H20   43   0.364  -0.221  -0.000
    1UNL    H21   44   0.281   0.061  -0.133
    1UNL    H22   45  -0.026  -0.197  -0.234
    1UNL    H23   46   0.117  -0.276  -0.152
    1UNL    H24   47  -0.086  -0.252  -0.008
    1UNL    H25   48   0.056  -0.169   0.056
    1UNL    H26   49  -0.147   0.280   0.068
   0.00000   0.00000   0.00000   0.00000   0.00000   0.00000   0.00000   0.00000   0.00000
Generated with MDTraj, t= 48.0
 49
    1UNL     C1    1  -0.307  -0.181   0.148
    1UNL     C2    2  -0.203  -0.062   0.145
    1UNL     C3    3  -0.128  -0.042   0.004
    1UNL     C4    4  -0.243  -0.034  -0.112
    1UNL     C5    5  -0.207   0.035  -0.241
    1UNL     C6    6  -0.147   0.173  -0.215
    1UNL     N1    7  -0.043   0.168  -0.120
    1UNL     C7    8   0.074   0.266  -0.124
    1UNL     C8    9   0.132   0.248   0.021
    1UNL     C9   10   0.062   0.135   0.105
    1UNL    C10   11   0.155   0.021   0.130
    1UNL    C11   12   0.181  -0.019   0.257
    1UNL    C12   13   0.282  -0.102   0.297
    1UNL    C13   14   0.357  -0.160   0.201
    1UNL    C14   15   0.332  -0.137   0.068
    1UNL    C15   16   0.233  -0.043   0.028
    1UNL     N2   17   0.223  -0.008  -0.109
    1UNL    C16   18   0.143  -0.069  -0.200
    1UNL     O1   19   0.156  -0.040  -0.315
    1UNL    C17   20   0.038  -0.173  -0.162
    1UNL    C18   21  -0.024  -0.153  -0.024
    1UNL    C19   22  -0.068   0.115   0.017
    1UNL     O2   23  -0.182   0.190   0.068
    1UNL     H1   24  -0.259  -0.280   0.141
    1UNL     H2   25  -0.374  -0.180   0.055
    1UNL     H3   26  -0.372  -0.177   0.233
    1UNL     H4   27  -0.261   0.024   0.185
    1UNL     H5   28  -0.129  -0.089   0.223
    1UNL     H6   29  -0.329   0.020  -0.064
    1UNL     H7   30  -0.267  -0.138  -0.138
    1UNL     H8   31  -0.132  -0.021  -0.307
    1UNL     H9   32  -0.304   0.042  -0.299
    1UNL    H10   33  -0.221   0.241  -0.173
    1UNL    H11   34  -0.105   0.216  -0.309
    1UNL    H12   35   0.049   0.373  -0.136
    1UNL    H13   36   0.141   0.247  -0.216
    1UNL    H14   37   0.113   0.332   0.077
    1UNL    H15   38   0.245   0.236   0.017
    1UNL    H16   39   0.028   0.182   0.202
    1UNL    H17   40   0.105   0.011   0.329
    1UNL    H18   41   0.325  -0.101   0.399
    1UNL    H19   42   0.434  -0.229   0.225
    1UNL    H20   43   0.401  -0.166  -0.005
    1UNL    H21   44   0.298   0.038  -0.151
    1UNL    H22   45  -0.035  -0.169  -0.239
    1UNL    H23   46   0.101  -0.269  -0.169
    1UNL    H24   47  -0.083  -0.241  -0.007
    1UNL    H25   48   0.047  -0.137   0.055
    1UNL    H26   49  -0.157   0.284   0.058
   0.00000   0.00000   0.00000   0.00000   0.00000   0.00000   0.00000   0.00000   0.00000
Generated with MDTraj, t= 49.0
 49
    1UNL     C1    1  -0.293  -0.175   0.162
    1UNL     C2    2  -0.196  -0.061   0.140
    1UNL     C3    3  -0.130  -0.037   0.004
    1UNL     C4    4  -0.249  -0.029  -0.101
    1UNL     C5    5  -0.212   0.030  -0.240
    1UNL     C6    6  -0.124   0.164  -0.232
    1UNL     N1    7  -0.018   0.143  -0.132
    1UNL     C7    8   0.073   0.259  -0.114
    1UNL     C8    9   0.119   0.248   0.033
    1UNL     C9   10   0.056   0.130   0.107
    1UNL    C10   11   0.161   0.027   0.134
    1UNL    C11   12   0.169  -0.039   0.258
    1UNL    C12   13   0.274  -0.122   0.296
    1UNL    C13   14   0.362  -0.158   0.197
    1UNL    C14   15   0.351  -0.113   0.070
    1UNL    C15   16   0.247  -0.023   0.035
    1UNL     N2   17   0.220  -0.009  -0.106
    1UNL    C16   18   0.129  -0.059  -0.192
    1UNL     O1   19   0.126  -0.021  -0.304
    1UNL    C17   20   0.031  -0.171  -0.161
    1UNL    C18   21  -0.037  -0.161  -0.024
    1UNL    C19   22  -0.064   0.102   0.004
    1UNL     O2   23  -0.174   0.202   0.030
    1UNL     H1   24  -0.281  -0.267   0.102
    1UNL     H2   25  -0.403  -0.151   0.147
    1UNL     H3   26  -0.288  -0.202   0.267
    1UNL     H4   27  -0.254   0.031   0.164
    1UNL     H5   28  -0.117  -0.070   0.220
    1UNL     H6   29  -0.323   0.036  -0.048
    1UNL     H7   30  -0.278  -0.135  -0.111
    1UNL     H8   31  -0.165  -0.051  -0.292
    1UNL     H9   32  -0.304   0.060  -0.300
    1UNL    H10   33  -0.189   0.241  -0.194
    1UNL    H11   34  -0.079   0.194  -0.326
    1UNL    H12   35   0.024   0.357  -0.136
    1UNL    H13   36   0.165   0.251  -0.179
    1UNL    H14   37   0.095   0.340   0.077
    1UNL    H15   38   0.230   0.225   0.029
    1UNL    H16   39  -0.000   0.167   0.197
    1UNL    H17   40   0.106  -0.012   0.342
    1UNL    H18   41   0.271  -0.169   0.391
    1UNL    H19   42   0.451  -0.214   0.233
    1UNL    H20   43   0.416  -0.145  -0.010
    1UNL    H21   44   0.261   0.070  -0.152
    1UNL    H22   45  -0.037  -0.169  -0.237
    1UNL    H23   46   0.094  -0.267  -0.164
    1UNL    H24   47  -0.107  -0.243  -0.025
    1UNL    H25   48   0.036  -0.159   0.055
    1UNL    H26   49  -0.143   0.264   0.103
   0.00000   0.00000   0.00000   0.00000   0.00000   0.00000   0.00000   0.00000   0.00000
Generated with MDTraj, t= 50.0
 49
    1UNL     C1    1  -0.276  -0.182   0.168
    1UNL     C2    2  -0.201  -0.054   0.145
    1UNL     C3    3  -0.123  -0.041   0.002
    1UNL     C4    4  -0.239  -0.038  -0.115
    1UNL     C5    5  -0.189   0.015  -0.244
    1UNL     C6    6  -0.137   0.157  -0.227
    1UNL     N1    7  -0.024   0.154  -0.127
    1UNL     C7    8   0.070   0.271  -0.108
    1UNL     C8    9   0.134   0.268   0.035
    1UNL     C9   10   0.062   0.141   0.098
    1UNL    C10   11   0.155   0.026   0.130
    1UNL    C11   12   0.176  -0.015   0.258
    1UNL    C12   13   0.260  -0.116   0.294
    1UNL    C13   14   0.334  -0.179   0.197
    1UNL    C14   15   0.323  -0.138   0.067
    1UNL    C15   16   0.236  -0.036   0.029
    1UNL     N2   17   0.214  -0.003  -0.106
    1UNL    C16   18   0.126  -0.058  -0.202
    1UNL     O1   19   0.116  -0.015  -0.314
    1UNL    C17   20   0.055  -0.177  -0.160
    1UNL    C18   21  -0.023  -0.163  -0.023
    1UNL    C19   22  -0.063   0.104   0.009
    1UNL     O2   23  -0.168   0.202   0.058
    1UNL     H1   24  -0.212  -0.266   0.196
    1UNL     H2   25  -0.332  -0.221   0.081
    1UNL     H3   26  -0.346  -0.164   0.251
    1UNL     H4   27  -0.262   0.038   0.146
    1UNL     H5   28  -0.133  -0.041   0.234
    1UNL     H6   29  -0.313   0.034  -0.072
    1UNL     H7   30  -0.276  -0.141  -0.123
    1UNL     H8   31  -0.111  -0.039  -0.290
    1UNL     H9   32  -0.278   0.012  -0.315
    1UNL    H10   33  -0.210   0.229  -0.193
    1UNL    H11   34  -0.100   0.191  -0.321
    1UNL    H12   35   0.001   0.361  -0.116
    1UNL    H13   36   0.144   0.273  -0.190
    1UNL    H14   37   0.121   0.366   0.077
    1UNL    H15   38   0.241   0.244   0.017
    1UNL    H16   39   0.017   0.176   0.196
    1UNL    H17   40   0.119   0.025   0.340
    1UNL    H18   41   0.275  -0.144   0.398
    1UNL    H19   42   0.390  -0.265   0.217
    1UNL    H20   43   0.383  -0.185  -0.018
    1UNL    H21   44   0.267   0.071  -0.153
    1UNL    H22   45  -0.014  -0.198  -0.235
    1UNL    H23   46   0.132  -0.262  -0.147
    1UNL    H24   47  -0.088  -0.249  -0.024
    1UNL    H25   48   0.046  -0.163   0.057
    1UNL    H26   49  -0.153   0.291   0.027
   0.00000   0.00000   0.00000   0.00000   0.00000   0.00000   0.00000   0.00000   0.00000
Generated with MDTraj, t= 51.0
 49
    1UNL     C1    1  -0.274  -0.197   0.149
    1UNL     C2    2  -0.192  -0.061   0.142
    1UNL     C3    3  -0.114  -0.042   0.003
    1UNL     C4    4  -0.235  -0.051  -0.107
    1UNL     C5    5  -0.204   0.032  -0.232
    1UNL     C6    6  -0.146   0.173  -0.211
    1UNL     N1    7  -0.026   0.160  -0.126
    1UNL     C7    8   0.064   0.275  -0.106
    1UNL     C8    9   0.138   0.265   0.028
    1UNL     C9   10   0.065   0.148   0.091
    1UNL    C10   11   0.155   0.031   0.129
    1UNL    C11   12   0.179   0.001   0.266
    1UNL    C12   13   0.244  -0.120   0.297
    1UNL    C13   14   0.313  -0.181   0.194
    1UNL    C14   15   0.307  -0.141   0.062
    1UNL    C15   16   0.224  -0.033   0.025
    1UNL     N2   17   0.220  -0.000  -0.117
    1UNL    C16   18   0.141  -0.070  -0.208
    1UNL     O1   19   0.134  -0.040  -0.327
    1UNL    C17   20   0.063  -0.183  -0.146
    1UNL    C18   21  -0.016  -0.157  -0.016
    1UNL    C19   22  -0.061   0.115   0.008
    1UNL     O2   23  -0.169   0.204   0.062
    1UNL     H1   24  -0.201  -0.274   0.172
    1UNL     H2   25  -0.327  -0.223   0.059
    1UNL     H3   26  -0.341  -0.182   0.237
    1UNL     H4   27  -0.258   0.024   0.164
    1UNL     H5   28  -0.112  -0.053   0.222
    1UNL     H6   29  -0.321  -0.014  -0.046
    1UNL     H7   30  -0.246  -0.158  -0.134
    1UNL     H8   31  -0.131  -0.026  -0.284
    1UNL     H9   32  -0.286   0.046  -0.309
    1UNL    H10   33  -0.218   0.231  -0.157
    1UNL    H11   34  -0.121   0.232  -0.295
    1UNL    H12   35   0.001   0.371  -0.115
    1UNL    H13   36   0.124   0.273  -0.197
    1UNL    H14   37   0.127   0.360   0.086
    1UNL    H15   38   0.244   0.254   0.006
    1UNL    H16   39   0.017   0.186   0.187
    1UNL    H17   40   0.140   0.066   0.345
    1UNL    H18   41   0.255  -0.160   0.397
    1UNL    H19   42   0.379  -0.268   0.221
    1UNL    H20   43   0.346  -0.201  -0.008
    1UNL    H21   44   0.288   0.075  -0.147
    1UNL    H22   45  -0.005  -0.219  -0.229
    1UNL    H23   46   0.141  -0.264  -0.129
    1UNL    H24   47  -0.071  -0.246   0.015
    1UNL    H25   48   0.056  -0.146   0.062
    1UNL    H26   49  -0.153   0.297   0.040
   0.00000   0.00000   0.00000   0.00000   0.00000   0.00000   0.00000   0.00000   0.00000
Generated with MDTraj, t= 52.0
 49
    1UNL     C1    1  -0.275  -0.172   0.174
    1UNL     C2    2  -0.178  -0.065   0.151
    1UNL     C3    3  -0.130  -0.038   0.008
    1UNL     C4    4  -0.241  -0.036  -0.101
    1UNL     C5    5  -0.212   0.032  -0.238
    1UNL     C6    6  -0.141   0.161  -0.233
    1UNL     N1    7  -0.027   0.153  -0.134
    1UNL     C7    8   0.065   0.274  -0.107
    1UNL     C8    9   0.130   0.246   0.029
    1UNL     C9   10   0.057   0.135   0.099
    1UNL    C10   11   0.146   0.018   0.135
    1UNL    C11   12   0.161  -0.026   0.268
    1UNL    C12   13   0.256  -0.126   0.295
    1UNL    C13   14   0.340  -0.176   0.198
    1UNL    C14   15   0.340  -0.121   0.073
    1UNL    C15   16   0.237  -0.033   0.037
    1UNL     N2   17   0.223  -0.002  -0.106
    1UNL    C16   18   0.143  -0.060  -0.205
    1UNL     O1   19   0.145  -0.030  -0.326
    1UNL    C17   20   0.049  -0.171  -0.159
    1UNL    C18   21  -0.037  -0.149  -0.028
    1UNL    C19   22  -0.064   0.108   0.003
    1UNL     O2   23  -0.177   0.200   0.037
    1UNL     H1   24  -0.256  -0.263   0.115
    1UNL     H2   25  -0.376  -0.149   0.161
    1UNL     H3   26  -0.264  -0.188   0.286
    1UNL     H4   27  -0.214   0.035   0.180
    1UNL     H5   28  -0.084  -0.071   0.215
    1UNL     H6   29  -0.332   0.011  -0.058
    1UNL     H7   30  -0.256  -0.144  -0.122
    1UNL     H8   31  -0.160  -0.027  -0.315
    1UNL     H9   32  -0.313   0.050  -0.279
    1UNL    H10   33  -0.203   0.240  -0.198
    1UNL    H11   34  -0.104   0.191  -0.327
    1UNL    H12   35   0.001   0.371  -0.106
    1UNL    H13   36   0.131   0.292  -0.189
    1UNL    H14   37   0.131   0.344   0.091
    1UNL    H15   38   0.233   0.219   0.021
    1UNL    H16   39   0.001   0.159   0.194
    1UNL    H17   40   0.111   0.032   0.341
    1UNL    H18   41   0.257  -0.165   0.395
    1UNL    H19   42   0.410  -0.249   0.221
    1UNL    H20   43   0.402  -0.176  -0.005
    1UNL    H21   44   0.291   0.069  -0.141
    1UNL    H22   45  -0.027  -0.192  -0.250
    1UNL    H23   46   0.111  -0.263  -0.150
    1UNL    H24   47  -0.083  -0.247  -0.014
    1UNL    H25   48   0.041  -0.151   0.050
    1UNL    H26   49  -0.142   0.295   0.025
   0.00000   0.00000   0.00000   0.00000   0.00000   0.00000   0.00000   0.00000   0.00000
Generated with MDTraj, t= 53.0
 49
    1UNL     C1    1  -0.292  -0.195   0.164
    1UNL     C2    2  -0.196  -0.068   0.146
    1UNL     C3    3  -0.135  -0.040   0.004
    1UNL     C4    4  -0.249  -0.031  -0.101
    1UNL     C5    5  -0.216   0.028  -0.240
    1UNL     C6    6  -0.142   0.163  -0.222
    1UNL     N1    7  -0.030   0.150  -0.127
    1UNL     C7    8   0.087   0.240  -0.131
    1UNL     C8    9   0.130   0.250   0.015
    1UNL     C9   10   0.055   0.134   0.094
    1UNL    C10   11   0.161   0.027   0.133
    1UNL    C11   12   0.178  -0.014   0.262
    1UNL    C12   13   0.259  -0.117   0.299
    1UNL    C13   14   0.353  -0.172   0.214
    1UNL    C14   15   0.340  -0.132   0.079
    1UNL    C15   16   0.250  -0.034   0.040
    1UNL     N2   17   0.230  -0.004  -0.103
    1UNL    C16   18   0.136  -0.048  -0.199
    1UNL     O1   19   0.133  -0.001  -0.314
    1UNL    C17   20   0.032  -0.162  -0.171
    1UNL    C18   21  -0.038  -0.161  -0.033
    1UNL    C19   22  -0.066   0.105   0.009
    1UNL     O2   23  -0.166   0.205   0.050
    1UNL     H1   24  -0.230  -0.285   0.178
    1UNL     H2   25  -0.347  -0.222   0.079
    1UNL     H3   26  -0.368  -0.179   0.246
    1UNL     H4   27  -0.239   0.027   0.186
    1UNL     H5   28  -0.102  -0.083   0.210
    1UNL     H6   29  -0.322   0.041  -0.059
    1UNL     H7   30  -0.295  -0.130  -0.115
    1UNL     H8   31  -0.168  -0.041  -0.309
    1UNL     H9   32  -0.306   0.054  -0.295
    1UNL    H10   33  -0.206   0.245  -0.197
    1UNL    H11   34  -0.091   0.192  -0.308
    1UNL    H12   35   0.054   0.341  -0.173
    1UNL    H13   36   0.160   0.201  -0.199
    1UNL    H14   37   0.096   0.352   0.061
    1UNL    H15   38   0.235   0.244   0.025
    1UNL    H16   39   0.020   0.178   0.192
    1UNL    H17   40   0.123   0.038   0.343
    1UNL    H18   41   0.267  -0.133   0.405
    1UNL    H19   42   0.412  -0.264   0.245
    1UNL    H20   43   0.411  -0.174   0.011
    1UNL    H21   44   0.293   0.062  -0.146
    1UNL    H22   45  -0.045  -0.171  -0.251
    1UNL    H23   46   0.084  -0.262  -0.186
    1UNL    H24   47  -0.076  -0.261  -0.005
    1UNL    H25   48   0.045  -0.152   0.041
    1UNL    H26   49  -0.140   0.303   0.042
   0.00000   0.00000   0.00000   0.00000   0.00000   0.00000   0.00000   0.00000   0.00000
Generated with MDTraj, t= 54.0
 49
    1UNL     C1    1  -0.274  -0.192   0.178
    1UNL     C2    2  -0.185  -0.072   0.137
    1UNL     C3    3  -0.123  -0.042  -0.003
    1UNL     C4    4  -0.243  -0.037  -0.109
    1UNL     C5    5  -0.211   0.034  -0.240
    1UNL     C6    6  -0.161   0.178  -0.214
    1UNL     N1    7  -0.033   0.165  -0.137
    1UNL     C7    8   0.054   0.281  -0.111
    1UNL     C8    9   0.147   0.249   0.008
    1UNL     C9   10   0.069   0.135   0.088
    1UNL    C10   11   0.158   0.022   0.128
    1UNL    C11   12   0.167  -0.009   0.267
    1UNL    C12   13   0.265  -0.099   0.309
    1UNL    C13   14   0.339  -0.174   0.222
    1UNL    C14   15   0.327  -0.152   0.084
    1UNL    C15   16   0.233  -0.052   0.038
    1UNL     N2   17   0.229  -0.012  -0.106
    1UNL    C16   18   0.136  -0.063  -0.200
    1UNL     O1   19   0.140  -0.012  -0.311
    1UNL    C17   20   0.034  -0.172  -0.175
    1UNL    C18   21  -0.032  -0.158  -0.039
    1UNL    C19   22  -0.064   0.103  -0.002
    1UNL     O2   23  -0.163   0.201   0.048
    1UNL     H1   24  -0.215  -0.282   0.183
    1UNL     H2   25  -0.335  -0.215   0.092
    1UNL     H3   26  -0.341  -0.180   0.266
    1UNL     H4   27  -0.241   0.021   0.164
    1UNL     H5   28  -0.100  -0.076   0.212
    1UNL     H6   29  -0.326   0.015  -0.062
    1UNL     H7   30  -0.273  -0.137  -0.149
    1UNL     H8   31  -0.138  -0.018  -0.302
    1UNL     H9   32  -0.297   0.037  -0.303
    1UNL    H10   33  -0.229   0.230  -0.149
    1UNL    H11   34  -0.152   0.238  -0.300
    1UNL    H12   35  -0.003   0.376  -0.096
    1UNL    H13   36   0.121   0.289  -0.197
    1UNL    H14   37   0.160   0.342   0.078
    1UNL    H15   38   0.241   0.207  -0.021
    1UNL    H16   39   0.026   0.175   0.183
    1UNL    H17   40   0.120   0.051   0.340
    1UNL    H18   41   0.275  -0.122   0.413
    1UNL    H19   42   0.415  -0.235   0.261
    1UNL    H20   43   0.390  -0.200   0.014
    1UNL    H21   44   0.299   0.041  -0.149
    1UNL    H22   45  -0.032  -0.190  -0.251
    1UNL    H23   46   0.091  -0.270  -0.171
    1UNL    H24   47  -0.085  -0.248  -0.006
    1UNL    H25   48   0.053  -0.160   0.035
    1UNL    H26   49  -0.118   0.282   0.072
   0.00000   0.00000   0.00000   0.00000   0.00000   0.00000   0.00000   0.00000   0.00000
Generated with MDTraj, t= 55.0
 49
    1UNL     C1    1  -0.264  -0.204   0.165
    1UNL     C2    2  -0.182  -0.080   0.146
    1UNL     C3    3  -0.129  -0.037   0.007
    1UNL     C4    4  -0.248  -0.039  -0.090
    1UNL     C5    5  -0.225   0.031  -0.225
    1UNL     C6    6  -0.146   0.170  -0.222
    1UNL     N1    7  -0.027   0.156  -0.142
    1UNL     C7    8   0.069   0.269  -0.123
    1UNL     C8    9   0.140   0.262   0.013
    1UNL     C9   10   0.061   0.145   0.090
    1UNL    C10   11   0.152   0.030   0.133
    1UNL    C11   12   0.161  -0.017   0.263
    1UNL    C12   13   0.251  -0.115   0.302
    1UNL    C13   14   0.320  -0.179   0.200
    1UNL    C14   15   0.311  -0.146   0.070
    1UNL    C15   16   0.235  -0.037   0.031
    1UNL     N2   17   0.232  -0.002  -0.106
    1UNL    C16   18   0.147  -0.059  -0.205
    1UNL     O1   19   0.151  -0.030  -0.323
    1UNL    C17   20   0.052  -0.164  -0.158
    1UNL    C18   21  -0.027  -0.145  -0.019
    1UNL    C19   22  -0.065   0.114   0.006
    1UNL     O2   23  -0.162   0.207   0.047
    1UNL     H1   24  -0.243  -0.286   0.099
    1UNL     H2   25  -0.368  -0.183   0.129
    1UNL     H3   26  -0.288  -0.237   0.267
    1UNL     H4   27  -0.243   0.002   0.191
    1UNL     H5   28  -0.098  -0.090   0.219
    1UNL     H6   29  -0.330   0.019  -0.051
    1UNL     H7   30  -0.274  -0.146  -0.105
    1UNL     H8   31  -0.171  -0.035  -0.294
    1UNL     H9   32  -0.315   0.051  -0.273
    1UNL    H10   33  -0.201   0.252  -0.180
    1UNL    H11   34  -0.117   0.197  -0.320
    1UNL    H12   35   0.021   0.368  -0.129
    1UNL    H13   36   0.148   0.264  -0.200
    1UNL    H14   37   0.130   0.355   0.081
    1UNL    H15   38   0.245   0.230   0.012
    1UNL    H16   39   0.015   0.182   0.185
    1UNL    H17   40   0.075   0.011   0.327
    1UNL    H18   41   0.252  -0.153   0.403
    1UNL    H19   42   0.384  -0.265   0.228
    1UNL    H20   43   0.378  -0.198  -0.005
    1UNL    H21   44   0.287   0.077  -0.128
    1UNL    H22   45  -0.019  -0.172  -0.233
    1UNL    H23   46   0.105  -0.264  -0.157
    1UNL    H24   47  -0.060  -0.245   0.014
    1UNL    H25   48   0.051  -0.128   0.057
    1UNL    H26   49  -0.120   0.291   0.067
   0.00000   0.00000   0.00000   0.00000   0.00000   0.00000   0.00000   0.00000   0.00000
Generated with MDTraj, t= 56.0
 49
    1UNL     C1    1  -0.277  -0.169   0.197
    1UNL     C2    2  -0.172  -0.061   0.155
    1UNL     C3    3  -0.123  -0.038   0.011
    1UNL     C4    4  -0.246  -0.044  -0.090
    1UNL     C5    5  -0.229   0.023  -0.231
    1UNL     C6    6  -0.131   0.144  -0.240
    1UNL     N1    7  -0.027   0.147  -0.138
    1UNL     C7    8   0.077   0.262  -0.125
    1UNL     C8    9   0.122   0.266   0.023
    1UNL     C9   10   0.058   0.139   0.093
    1UNL    C10   11   0.153   0.024   0.130
    1UNL    C11   12   0.155  -0.026   0.258
    1UNL    C12   13   0.240  -0.132   0.292
    1UNL    C13   14   0.322  -0.191   0.193
    1UNL    C14   15   0.315  -0.142   0.069
    1UNL    C15   16   0.234  -0.031   0.029
    1UNL     N2   17   0.233   0.012  -0.108
    1UNL    C16   18   0.148  -0.041  -0.203
    1UNL     O1   19   0.152  -0.011  -0.317
    1UNL    C17   20   0.056  -0.157  -0.164
    1UNL    C18   21  -0.016  -0.152  -0.028
    1UNL    C19   22  -0.065   0.113   0.002
    1UNL     O2   23  -0.172   0.196   0.054
    1UNL     H1   24  -0.235  -0.268   0.199
    1UNL     H2   25  -0.349  -0.192   0.114
    1UNL     H3   26  -0.341  -0.144   0.280
    1UNL     H4   27  -0.210   0.031   0.208
    1UNL     H5   28  -0.079  -0.087   0.210
    1UNL     H6   29  -0.320   0.020  -0.046
    1UNL     H7   30  -0.286  -0.147  -0.097
    1UNL     H8   31  -0.192  -0.052  -0.306
    1UNL     H9   32  -0.320   0.052  -0.272
    1UNL    H10   33  -0.185   0.237  -0.225
    1UNL    H11   34  -0.080   0.151  -0.333
    1UNL    H12   35   0.033   0.357  -0.148
    1UNL    H13   36   0.158   0.250  -0.202
    1UNL    H14   37   0.099   0.357   0.087
    1UNL    H15   38   0.234   0.250   0.035
    1UNL    H16   39   0.021   0.176   0.192
    1UNL    H17   40   0.074  -0.007   0.324
    1UNL    H18   41   0.226  -0.189   0.384
    1UNL    H19   42   0.385  -0.272   0.222
    1UNL    H20   43   0.387  -0.182   0.007
    1UNL    H21   44   0.318   0.058  -0.133
    1UNL    H22   45  -0.019  -0.169  -0.253
    1UNL    H23   46   0.125  -0.245  -0.170
    1UNL    H24   47  -0.069  -0.248  -0.008
    1UNL    H25   48   0.057  -0.159   0.050
    1UNL    H26   49  -0.140   0.292   0.053
   0.00000   0.00000   0.00000   0.00000   0.00000   0.00000   0.00000   0.00000   0.00000
Generated with MDTraj, t= 57.0
 49
    1UNL     C1    1  -0.269  -0.190   0.168
    1UNL     C2    2  -0.179  -0.067   0.141
    1UNL     C3    3  -0.123  -0.042   0.001
    1UNL     C4    4  -0.244  -0.035  -0.104
    1UNL     C5    5  -0.217   0.029  -0.242
    1UNL     C6    6  -0.154   0.163  -0.226
    1UNL     N1    7  -0.039   0.161  -0.134
    1UNL     C7    8   0.071   0.268  -0.129
    1UNL     C8    9   0.139   0.254   0.001
    1UNL     C9   10   0.071   0.138   0.088
    1UNL    C10   11   0.161   0.020   0.130
    1UNL    C11   12   0.166  -0.018   0.263
    1UNL    C12   13   0.248  -0.118   0.304
    1UNL    C13   14   0.322  -0.184   0.213
    1UNL    C14   15   0.325  -0.145   0.082
    1UNL    C15   16   0.236  -0.044   0.034
    1UNL     N2   17   0.228  -0.000  -0.103
    1UNL    C16   18   0.135  -0.051  -0.195
    1UNL     O1   19   0.125  -0.005  -0.305
    1UNL    C17   20   0.051  -0.168  -0.158
    1UNL    C18   21  -0.023  -0.160  -0.028
    1UNL    C19   22  -0.059   0.113   0.003
    1UNL     O2   23  -0.161   0.198   0.059
    1UNL     H1   24  -0.251  -0.260   0.088
    1UNL     H2   25  -0.378  -0.166   0.151
    1UNL     H3   26  -0.262  -0.226   0.267
    1UNL     H4   27  -0.233   0.029   0.167
    1UNL     H5   28  -0.097  -0.067   0.214
    1UNL     H6   29  -0.321   0.017  -0.050
    1UNL     H7   30  -0.278  -0.138  -0.129
    1UNL     H8   31  -0.146  -0.036  -0.294
    1UNL     H9   32  -0.299   0.036  -0.305
    1UNL    H10   33  -0.222   0.236  -0.181
    1UNL    H11   34  -0.121   0.206  -0.319
    1UNL    H12   35   0.024   0.362  -0.138
    1UNL    H13   36   0.142   0.270  -0.218
    1UNL    H14   37   0.133   0.350   0.057
    1UNL    H15   38   0.254   0.227  -0.009
    1UNL    H16   39   0.035   0.180   0.184
    1UNL    H17   40   0.098   0.032   0.333
    1UNL    H18   41   0.234  -0.165   0.399
    1UNL    H19   42   0.397  -0.255   0.246
    1UNL    H20   43   0.406  -0.156   0.002
    1UNL    H21   44   0.284   0.074  -0.149
    1UNL    H22   45  -0.026  -0.183  -0.244
    1UNL    H23   46   0.123  -0.254  -0.151
    1UNL    H24   47  -0.083  -0.253  -0.020
    1UNL    H25   48   0.050  -0.163   0.048
    1UNL    H26   49  -0.112   0.286   0.080
   0.00000   0.00000   0.00000   0.00000   0.00000   0.00000   0.00000   0.00000   0.00000
Generated with MDTraj, t= 58.0
 49
    1UNL     C1    1  -0.287  -0.195   0.148
    1UNL     C2    2  -0.201  -0.067   0.142
    1UNL     C3    3  -0.128  -0.036   0.003
    1UNL     C4    4  -0.242  -0.043  -0.105
    1UNL     C5    5  -0.214   0.038  -0.235
    1UNL     C6    6  -0.154   0.176  -0.208
    1UNL     N1    7  -0.029   0.155  -0.136
    1UNL     C7    8   0.075   0.261  -0.126
    1UNL     C8    9   0.135   0.250   0.014
    1UNL     C9   10   0.063   0.131   0.094
    1UNL    C10   11   0.167   0.028   0.126
    1UNL    C11   12   0.184  -0.000   0.259
    1UNL    C12   13   0.264  -0.099   0.306
    1UNL    C13   14   0.338  -0.173   0.215
    1UNL    C14   15   0.327  -0.145   0.078
    1UNL    C15   16   0.248  -0.044   0.036
    1UNL     N2   17   0.226  -0.019  -0.103
    1UNL    C16   18   0.130  -0.053  -0.202
    1UNL     O1   19   0.139  -0.017  -0.317
    1UNL    C17   20   0.031  -0.165  -0.167
    1UNL    C18   21  -0.029  -0.155  -0.028
    1UNL    C19   22  -0.062   0.107   0.008
    1UNL     O2   23  -0.165   0.194   0.059
    1UNL     H1   24  -0.231  -0.280   0.186
    1UNL     H2   25  -0.319  -0.231   0.048
    1UNL     H3   26  -0.374  -0.171   0.203
    1UNL     H4   27  -0.266   0.027   0.146
    1UNL     H5   28  -0.135  -0.058   0.230
    1UNL     H6   29  -0.333  -0.009  -0.060
    1UNL     H7   30  -0.251  -0.153  -0.121
    1UNL     H8   31  -0.144  -0.008  -0.295
    1UNL     H9   32  -0.299   0.048  -0.294
    1UNL    H10   33  -0.217   0.247  -0.150
    1UNL    H11   34  -0.123   0.231  -0.297
    1UNL    H12   35   0.036   0.355  -0.154
    1UNL    H13   36   0.153   0.236  -0.203
    1UNL    H14   37   0.116   0.348   0.064
    1UNL    H15   38   0.252   0.234   0.004
    1UNL    H16   39   0.038   0.172   0.194
    1UNL    H17   40   0.120   0.036   0.336
    1UNL    H18   41   0.269  -0.113   0.414
    1UNL    H19   42   0.403  -0.252   0.256
    1UNL    H20   43   0.403  -0.183   0.021
    1UNL    H21   44   0.277   0.063  -0.146
    1UNL    H22   45  -0.049  -0.164  -0.244
    1UNL    H23   46   0.086  -0.263  -0.172
    1UNL    H24   47  -0.087  -0.248  -0.011
    1UNL    H25   48   0.054  -0.150   0.039
    1UNL    H26   49  -0.140   0.276   0.104
   0.00000   0.00000   0.00000   0.00000   0.00000   0.00000   0.00000   0.00000   0.00000
Generated with MDTraj, t= 59.0
 49
    1UNL     C1    1  -0.272  -0.181   0.168
    1UNL     C2    2  -0.193  -0.054   0.150
    1UNL     C3    3  -0.135  -0.035   0.000
    1UNL     C4    4  -0.258  -0.023  -0.102
    1UNL     C5    5  -0.202   0.025  -0.242
    1UNL     C6    6  -0.127   0.163  -0.229
    1UNL     N1    7  -0.014   0.152  -0.129
    1UNL     C7    8   0.075   0.272  -0.102
    1UNL     C8    9   0.132   0.245   0.041
    1UNL     C9   10   0.049   0.127   0.106
    1UNL    C10   11   0.145   0.013   0.129
    1UNL    C11   12   0.172  -0.021   0.264
    1UNL    C12   13   0.279  -0.107   0.296
    1UNL    C13   14   0.352  -0.168   0.198
    1UNL    C14   15   0.334  -0.128   0.068
    1UNL    C15   16   0.230  -0.040   0.030
    1UNL     N2   17   0.212  -0.002  -0.108
    1UNL    C16   18   0.131  -0.063  -0.202
    1UNL     O1   19   0.151  -0.034  -0.318
    1UNL    C17   20   0.036  -0.168  -0.160
    1UNL    C18   21  -0.034  -0.157  -0.030
    1UNL    C19   22  -0.076   0.103   0.002
    1UNL     O2   23  -0.181   0.200   0.034
    1UNL     H1   24  -0.219  -0.263   0.116
    1UNL     H2   25  -0.374  -0.182   0.131
    1UNL     H3   26  -0.283  -0.197   0.273
    1UNL     H4   27  -0.258   0.032   0.187
    1UNL     H5   28  -0.101  -0.045   0.208
    1UNL     H6   29  -0.325   0.049  -0.061
    1UNL     H7   30  -0.314  -0.118  -0.112
    1UNL     H8   31  -0.141  -0.040  -0.288
    1UNL     H9   32  -0.281   0.046  -0.307
    1UNL    H10   33  -0.194   0.246  -0.200
    1UNL    H11   34  -0.086   0.194  -0.327
    1UNL    H12   35   0.019   0.360  -0.106
    1UNL    H13   36   0.151   0.278  -0.182
    1UNL    H14   37   0.109   0.341   0.098
    1UNL    H15   38   0.245   0.228   0.028
    1UNL    H16   39   0.001   0.151   0.202
    1UNL    H17   40   0.111   0.036   0.333
    1UNL    H18   41   0.292  -0.127   0.399
    1UNL    H19   42   0.443  -0.218   0.223
    1UNL    H20   43   0.397  -0.181  -0.005
    1UNL    H21   44   0.271   0.073  -0.152
    1UNL    H22   45  -0.031  -0.189  -0.239
    1UNL    H23   46   0.111  -0.255  -0.158
    1UNL    H24   47  -0.098  -0.245  -0.018
    1UNL    H25   48   0.037  -0.160   0.052
    1UNL    H26   49  -0.139   0.277   0.077
   0.00000   0.00000   0.00000   0.00000   0.00000   0.00000   0.00000   0.00000   0.00000
Generated with MDTraj, t= 60.0
 49
    1UNL     C1    1  -0.287  -0.176   0.143
    1UNL     C2    2  -0.187  -0.057   0.145
    1UNL     C3    3  -0.115  -0.041   0.001
    1UNL     C4    4  -0.234  -0.037  -0.102
    1UNL     C5    5  -0.204   0.029  -0.237
    1UNL     C6    6  -0.132   0.163  -0.223
    1UNL     N1    7  -0.011   0.150  -0.128
    1UNL     C7    8   0.082   0.265  -0.104
    1UNL     C8    9   0.124   0.265   0.045
    1UNL     C9   10   0.057   0.144   0.103
    1UNL    C10   11   0.158   0.028   0.128
    1UNL    C11   12   0.171  -0.016   0.258
    1UNL    C12   13   0.249  -0.127   0.287
    1UNL    C13   14   0.339  -0.167   0.189
    1UNL    C14   15   0.331  -0.125   0.056
    1UNL    C15   16   0.237  -0.026   0.025
    1UNL     N2   17   0.215  -0.002  -0.107
    1UNL    C16   18   0.127  -0.066  -0.194
    1UNL     O1   19   0.116  -0.034  -0.313
    1UNL    C17   20   0.042  -0.175  -0.144
    1UNL    C18   21  -0.017  -0.157  -0.008
    1UNL    C19   22  -0.064   0.111   0.006
    1UNL     O2   23  -0.179   0.183   0.038
    1UNL     H1   24  -0.236  -0.273   0.160
    1UNL     H2   25  -0.348  -0.192   0.057
    1UNL     H3   26  -0.358  -0.149   0.220
    1UNL     H4   27  -0.245   0.038   0.171
    1UNL     H5   28  -0.121  -0.075   0.230
    1UNL     H6   29  -0.317   0.016  -0.059
    1UNL     H7   30  -0.268  -0.139  -0.127
    1UNL     H8   31  -0.140  -0.035  -0.307
    1UNL     H9   32  -0.294   0.049  -0.282
    1UNL    H10   33  -0.206   0.243  -0.196
    1UNL    H11   34  -0.090   0.197  -0.322
    1UNL    H12   35   0.044   0.358  -0.141
    1UNL    H13   36   0.170   0.251  -0.168
    1UNL    H14   37   0.094   0.370   0.084
    1UNL    H15   38   0.234   0.254   0.048
    1UNL    H16   39   0.012   0.167   0.199
    1UNL    H17   40   0.111   0.038   0.330
    1UNL    H18   41   0.255  -0.176   0.385
    1UNL    H19   42   0.412  -0.246   0.214
    1UNL    H20   43   0.384  -0.175  -0.028
    1UNL    H21   44   0.287   0.053  -0.151
    1UNL    H22   45  -0.026  -0.202  -0.222
    1UNL    H23   46   0.117  -0.261  -0.131
    1UNL    H24   47  -0.060  -0.256   0.016
    1UNL    H25   48   0.058  -0.143   0.072
    1UNL    H26   49  -0.164   0.277   0.076
   0.00000   0.00000   0.00000   0.00000   0.00000   0.00000   0.00000   0.00000   0.00000
Generated with MDTraj, t= 61.0
 49
    1UNL     C1    1  -0.284  -0.176   0.152
    1UNL     C2    2  -0.209  -0.047   0.129
    1UNL     C3    3  -0.132  -0.035  -0.005
    1UNL     C4    4  -0.233  -0.052  -0.119
    1UNL     C5    5  -0.183   0.014  -0.248
    1UNL     C6    6  -0.142   0.159  -0.233
    1UNL     N1    7  -0.033   0.163  -0.123
    1UNL     C7    8   0.057   0.284  -0.110
    1UNL     C8    9   0.136   0.260   0.027
    1UNL     C9   10   0.064   0.144   0.094
    1UNL    C10   11   0.163   0.029   0.133
    1UNL    C11   12   0.177  -0.017   0.263
    1UNL    C12   13   0.266  -0.119   0.296
    1UNL    C13   14   0.340  -0.187   0.191
    1UNL    C14   15   0.324  -0.138   0.064
    1UNL    C15   16   0.241  -0.034   0.032
    1UNL     N2   17   0.225  -0.006  -0.112
    1UNL    C16   18   0.127  -0.059  -0.192
    1UNL     O1   19   0.120  -0.021  -0.309
    1UNL    C17   20   0.048  -0.175  -0.141
    1UNL    C18   21  -0.027  -0.151  -0.009
    1UNL    C19   22  -0.065   0.109   0.008
    1UNL     O2   23  -0.165   0.185   0.072
    1UNL     H1   24  -0.225  -0.268   0.131
    1UNL     H2   25  -0.375  -0.194   0.101
    1UNL     H3   26  -0.325  -0.172   0.254
    1UNL     H4   27  -0.294   0.029   0.132
    1UNL     H5   28  -0.146  -0.023   0.215
    1UNL     H6   29  -0.324  -0.002  -0.089
    1UNL     H7   30  -0.262  -0.159  -0.133
    1UNL     H8   31  -0.083  -0.034  -0.292
    1UNL     H9   32  -0.252   0.006  -0.322
    1UNL    H10   33  -0.228   0.217  -0.194
    1UNL    H11   34  -0.114   0.216  -0.329
    1UNL    H12   35  -0.004   0.373  -0.123
    1UNL    H13   36   0.125   0.291  -0.194
    1UNL    H14   37   0.141   0.360   0.091
    1UNL    H15   38   0.237   0.229   0.003
    1UNL    H16   39   0.028   0.188   0.185
    1UNL    H17   40   0.146   0.038   0.350
    1UNL    H18   41   0.288  -0.141   0.398
    1UNL    H19   42   0.386  -0.279   0.202
    1UNL    H20   43   0.354  -0.193  -0.018
    1UNL    H21   44   0.290   0.054  -0.155
    1UNL    H22   45  -0.025  -0.210  -0.210
    1UNL    H23   46   0.116  -0.267  -0.131
    1UNL    H24   47  -0.076  -0.244   0.016
    1UNL    H25   48   0.049  -0.144   0.075
    1UNL    H26   49  -0.141   0.280   0.075
   0.00000   0.00000   0.00000   0.00000   0.00000   0.00000   0.00000   0.00000   0.00000
Generated with MDTraj, t= 62.0
 49
    1UNL     C1    1  -0.267  -0.188   0.154
    1UNL     C2    2  -0.193  -0.058   0.141
    1UNL     C3    3  -0.127  -0.041  -0.003
    1UNL     C4    4  -0.244  -0.033  -0.103
    1UNL     C5    5  -0.215   0.039  -0.230
    1UNL     C6    6  -0.139   0.169  -0.213
    1UNL     N1    7  -0.012   0.153  -0.134
    1UNL     C7    8   0.083   0.265  -0.117
    1UNL     C8    9   0.134   0.256   0.031
    1UNL     C9   10   0.061   0.136   0.095
    1UNL    C10   11   0.150   0.028   0.131
    1UNL    C11   12   0.159  -0.020   0.267
    1UNL    C12   13   0.263  -0.110   0.302
    1UNL    C13   14   0.347  -0.158   0.207
    1UNL    C14   15   0.330  -0.126   0.077
    1UNL    C15   16   0.230  -0.034   0.035
    1UNL     N2   17   0.215  -0.002  -0.104
    1UNL    C16   18   0.131  -0.066  -0.199
    1UNL     O1   19   0.126  -0.028  -0.317
    1UNL    C17   20   0.041  -0.181  -0.167
    1UNL    C18   21  -0.033  -0.170  -0.034
    1UNL    C19   22  -0.059   0.109  -0.001
    1UNL     O2   23  -0.165   0.190   0.048
    1UNL     H1   24  -0.200  -0.275   0.139
    1UNL     H2   25  -0.344  -0.208   0.084
    1UNL     H3   26  -0.329  -0.198   0.246
    1UNL     H4   27  -0.262   0.028   0.169
    1UNL     H5   28  -0.115  -0.054   0.216
    1UNL     H6   29  -0.316   0.025  -0.045
    1UNL     H7   30  -0.289  -0.131  -0.122
    1UNL     H8   31  -0.154  -0.028  -0.301
    1UNL     H9   32  -0.302   0.063  -0.288
    1UNL    H10   33  -0.204   0.243  -0.160
    1UNL    H11   34  -0.118   0.226  -0.311
    1UNL    H12   35   0.035   0.360  -0.137
    1UNL    H13   36   0.153   0.264  -0.196
    1UNL    H14   37   0.097   0.351   0.088
    1UNL    H15   38   0.241   0.244   0.042
    1UNL    H16   39   0.016   0.167   0.188
    1UNL    H17   40   0.111   0.042   0.342
    1UNL    H18   41   0.282  -0.117   0.409
    1UNL    H19   42   0.417  -0.242   0.236
    1UNL    H20   43   0.365  -0.183  -0.017
    1UNL    H21   44   0.285   0.054  -0.146
    1UNL    H22   45  -0.034  -0.194  -0.243
    1UNL    H23   46   0.096  -0.280  -0.181
    1UNL    H24   47  -0.097  -0.256  -0.015
    1UNL    H25   48   0.045  -0.184   0.045
    1UNL    H26   49  -0.118   0.270   0.066
   0.00000   0.00000   0.00000   0.00000   0.00000   0.00000   0.00000   0.00000   0.00000
Generated with MDTraj, t= 63.0
 49
    1UNL     C1    1  -0.259  -0.188   0.172
    1UNL     C2    2  -0.193  -0.056   0.144
    1UNL     C3    3  -0.133  -0.040   0.005
    1UNL     C4    4  -0.255  -0.027  -0.088
    1UNL     C5    5  -0.236   0.032  -0.228
    1UNL     C6    6  -0.142   0.154  -0.227
    1UNL     N1    7  -0.025   0.146  -0.134
    1UNL     C7    8   0.072   0.256  -0.111
    1UNL     C8    9   0.128   0.253   0.029
    1UNL     C9   10   0.060   0.126   0.096
    1UNL    C10   11   0.157   0.014   0.128
    1UNL    C11   12   0.167  -0.015   0.256
    1UNL    C12   13   0.261  -0.106   0.305
    1UNL    C13   14   0.346  -0.167   0.211
    1UNL    C14   15   0.327  -0.145   0.073
    1UNL    C15   16   0.231  -0.053   0.032
    1UNL     N2   17   0.231  -0.003  -0.101
    1UNL    C16   18   0.154  -0.051  -0.205
    1UNL     O1   19   0.161  -0.012  -0.320
    1UNL    C17   20   0.039  -0.148  -0.171
    1UNL    C18   21  -0.041  -0.160  -0.035
    1UNL    C19   22  -0.069   0.109   0.006
    1UNL     O2   23  -0.173   0.199   0.033
    1UNL     H1   24  -0.188  -0.268   0.158
    1UNL     H2   25  -0.342  -0.208   0.106
    1UNL     H3   26  -0.317  -0.181   0.268
    1UNL     H4   27  -0.263   0.033   0.153
    1UNL     H5   28  -0.123  -0.041   0.226
    1UNL     H6   29  -0.334   0.032  -0.040
    1UNL     H7   30  -0.286  -0.132  -0.097
    1UNL     H8   31  -0.200  -0.037  -0.304
    1UNL     H9   32  -0.337   0.065  -0.262
    1UNL    H10   33  -0.190   0.254  -0.214
    1UNL    H11   34  -0.097   0.167  -0.332
    1UNL    H12   35   0.026   0.351  -0.135
    1UNL    H13   36   0.148   0.252  -0.183
    1UNL    H14   37   0.099   0.338   0.099
    1UNL    H15   38   0.239   0.248   0.022
    1UNL    H16   39   0.029   0.164   0.191
    1UNL    H17   40   0.107   0.036   0.327
    1UNL    H18   41   0.293  -0.106   0.407
    1UNL    H19   42   0.414  -0.234   0.251
    1UNL    H20   43   0.380  -0.205   0.010
    1UNL    H21   44   0.307   0.063  -0.125
    1UNL    H22   45  -0.031  -0.131  -0.252
    1UNL    H23   46   0.082  -0.252  -0.182
    1UNL    H24   47  -0.099  -0.253  -0.033
    1UNL    H25   48   0.034  -0.177   0.043
    1UNL    H26   49  -0.128   0.289   0.032
   0.00000   0.00000   0.00000   0.00000   0.00000   0.00000   0.00000   0.00000   0.00000
Generated with MDTraj, t= 64.0
 49
    1UNL     C1    1  -0.253  -0.198   0.170
    1UNL     C2    2  -0.167  -0.070   0.147
    1UNL     C3    3  -0.122  -0.033   0.009
    1UNL     C4    4  -0.243  -0.043  -0.087
    1UNL     C5    5  -0.221   0.029  -0.225
    1UNL     C6    6  -0.158   0.172  -0.212
    1UNL     N1    7  -0.038   0.158  -0.137
    1UNL     C7    8   0.081   0.253  -0.142
    1UNL     C8    9   0.149   0.250  -0.006
    1UNL     C9   10   0.066   0.141   0.081
    1UNL    C10   11   0.157   0.029   0.127
    1UNL    C11   12   0.146  -0.013   0.257
    1UNL    C12   13   0.230  -0.112   0.302
    1UNL    C13   14   0.314  -0.184   0.219
    1UNL    C14   15   0.322  -0.140   0.088
    1UNL    C15   16   0.234  -0.042   0.032
    1UNL     N2   17   0.233  -0.005  -0.102
    1UNL    C16   18   0.142  -0.047  -0.203
    1UNL     O1   19   0.154  -0.003  -0.316
    1UNL    C17   20   0.044  -0.155  -0.169
    1UNL    C18   21  -0.024  -0.151  -0.033
    1UNL    C19   22  -0.068   0.109   0.002
    1UNL     O2   23  -0.172   0.186   0.065
    1UNL     H1   24  -0.218  -0.271   0.102
    1UNL     H2   25  -0.358  -0.179   0.147
    1UNL     H3   26  -0.260  -0.230   0.277
    1UNL     H4   27  -0.228   0.012   0.194
    1UNL     H5   28  -0.073  -0.061   0.203
    1UNL     H6   29  -0.331  -0.000  -0.035
    1UNL     H7   30  -0.262  -0.149  -0.105
    1UNL     H8   31  -0.161  -0.030  -0.285
    1UNL     H9   32  -0.321   0.047  -0.279
    1UNL    H10   33  -0.229   0.250  -0.172
    1UNL    H11   34  -0.128   0.218  -0.312
    1UNL    H12   35   0.049   0.355  -0.166
    1UNL    H13   36   0.145   0.221  -0.216
    1UNL    H14   37   0.147   0.347   0.042
    1UNL    H15   38   0.254   0.208  -0.004
    1UNL    H16   39   0.040   0.186   0.175
    1UNL    H17   40   0.080   0.045   0.322
    1UNL    H18   41   0.231  -0.131   0.408
    1UNL    H19   42   0.388  -0.262   0.249
    1UNL    H20   43   0.382  -0.201   0.019
    1UNL    H21   44   0.313   0.054  -0.138
    1UNL    H22   45  -0.038  -0.145  -0.246
    1UNL    H23   46   0.106  -0.248  -0.186
    1UNL    H24   47  -0.089  -0.240  -0.040
    1UNL    H25   48   0.050  -0.178   0.038
    1UNL    H26   49  -0.157   0.281   0.035
   0.00000   0.00000   0.00000   0.00000   0.00000   0.00000   0.00000   0.00000   0.00000
Generated with MDTraj, t= 65.0
 49
    1UNL     C1    1  -0.255  -0.193   0.174
    1UNL     C2    2  -0.167  -0.068   0.155
    1UNL     C3    3  -0.123  -0.044   0.007
    1UNL     C4    4  -0.255  -0.040  -0.085
    1UNL     C5    5  -0.237   0.026  -0.222
    1UNL     C6    6  -0.159   0.156  -0.217
    1UNL     N1    7  -0.037   0.155  -0.150
    1UNL     C7    8   0.053   0.276  -0.137
    1UNL     C8    9   0.141   0.257  -0.017
    1UNL     C9   10   0.071   0.145   0.074
    1UNL    C10   11   0.168   0.035   0.126
    1UNL    C11   12   0.170  -0.008   0.263
    1UNL    C12   13   0.226  -0.130   0.304
    1UNL    C13   14   0.300  -0.200   0.212
    1UNL    C14   15   0.311  -0.150   0.085
    1UNL    C15   16   0.246  -0.039   0.043
    1UNL     N2   17   0.241  -0.007  -0.095
    1UNL    C16   18   0.155  -0.045  -0.196
    1UNL     O1   19   0.161   0.009  -0.303
    1UNL    C17   20   0.045  -0.150  -0.167
    1UNL    C18   21  -0.019  -0.154  -0.032
    1UNL    C19   22  -0.065   0.105  -0.007
    1UNL     O2   23  -0.160   0.186   0.050
    1UNL     H1   24  -0.189  -0.276   0.166
    1UNL     H2   25  -0.321  -0.207   0.087
    1UNL     H3   26  -0.332  -0.192   0.257
    1UNL     H4   27  -0.204   0.032   0.192
    1UNL     H5   28  -0.075  -0.078   0.217
    1UNL     H6   29  -0.327   0.018  -0.023
    1UNL     H7   30  -0.292  -0.140  -0.095
    1UNL     H8   31  -0.186  -0.031  -0.289
    1UNL     H9   32  -0.342   0.045  -0.273
    1UNL    H10   33  -0.219   0.238  -0.170
    1UNL    H11   34  -0.143   0.192  -0.323
    1UNL    H12   35  -0.003   0.370  -0.139
    1UNL    H13   36   0.120   0.277  -0.216
    1UNL    H14   37   0.138   0.344   0.045
    1UNL    H15   38   0.247   0.218  -0.036
    1UNL    H16   39   0.030   0.182   0.167
    1UNL    H17   40   0.111   0.050   0.330
    1UNL    H18   41   0.218  -0.155   0.408
    1UNL    H19   42   0.336  -0.296   0.239
    1UNL    H20   43   0.389  -0.189   0.014
    1UNL    H21   44   0.329   0.037  -0.132
    1UNL    H22   45  -0.027  -0.114  -0.250
    1UNL    H23   46   0.092  -0.246  -0.197
    1UNL    H24   47  -0.080  -0.246  -0.033
    1UNL    H25   48   0.050  -0.156   0.047
    1UNL    H26   49  -0.150   0.277   0.024
   0.00000   0.00000   0.00000   0.00000   0.00000   0.00000   0.00000   0.00000   0.00000
Generated with MDTraj, t= 66.0
 49
    1UNL     C1    1  -0.222  -0.203   0.190
    1UNL     C2    2  -0.167  -0.070   0.146
    1UNL     C3    3  -0.127  -0.033   0.004
    1UNL     C4    4  -0.257  -0.023  -0.087
    1UNL     C5    5  -0.234   0.023  -0.232
    1UNL     C6    6  -0.160   0.158  -0.226
    1UNL     N1    7  -0.036   0.152  -0.140
    1UNL     C7    8   0.083   0.247  -0.128
    1UNL     C8    9   0.137   0.251   0.016
    1UNL     C9   10   0.063   0.138   0.091
    1UNL    C10   11   0.151   0.024   0.132
    1UNL    C11   12   0.152  -0.015   0.262
    1UNL    C12   13   0.236  -0.116   0.306
    1UNL    C13   14   0.320  -0.181   0.214
    1UNL    C14   15   0.318  -0.137   0.083
    1UNL    C15   16   0.230  -0.047   0.039
    1UNL     N2   17   0.230  -0.016  -0.099
    1UNL    C16   18   0.150  -0.045  -0.203
    1UNL     O1   19   0.165   0.001  -0.312
    1UNL    C17   20   0.038  -0.147  -0.183
    1UNL    C18   21  -0.035  -0.151  -0.046
    1UNL    C19   22  -0.067   0.110   0.001
    1UNL     O2   23  -0.164   0.202   0.043
    1UNL     H1   24  -0.147  -0.273   0.159
    1UNL     H2   25  -0.320  -0.226   0.143
    1UNL     H3   26  -0.249  -0.198   0.298
    1UNL     H4   27  -0.239   0.012   0.167
    1UNL     H5   28  -0.080  -0.046   0.213
    1UNL     H6   29  -0.319   0.049  -0.030
    1UNL     H7   30  -0.305  -0.119  -0.084
    1UNL     H8   31  -0.182  -0.049  -0.287
    1UNL     H9   32  -0.332   0.043  -0.294
    1UNL    H10   33  -0.236   0.230  -0.187
    1UNL    H11   34  -0.133   0.201  -0.325
    1UNL    H12   35   0.048   0.346  -0.158
    1UNL    H13   36   0.151   0.217  -0.201
    1UNL    H14   37   0.119   0.340   0.070
    1UNL    H15   38   0.249   0.230   0.016
    1UNL    H16   39   0.036   0.176   0.188
    1UNL    H17   40   0.082   0.036   0.329
    1UNL    H18   41   0.226  -0.160   0.404
    1UNL    H19   42   0.396  -0.251   0.248
    1UNL    H20   43   0.386  -0.172   0.018
    1UNL    H21   44   0.308   0.035  -0.143
    1UNL    H22   45  -0.036  -0.115  -0.264
    1UNL    H23   46   0.080  -0.249  -0.206
    1UNL    H24   47  -0.106  -0.235  -0.053
    1UNL    H25   48   0.037  -0.172   0.032
    1UNL    H26   49  -0.159   0.286  -0.005
   0.00000   0.00000   0.00000   0.00000   0.00000   0.00000   0.00000   0.00000   0.00000
Generated with MDTraj, t= 67.0
 49
    1UNL     C1    1  -0.243  -0.215   0.170
    1UNL     C2    2  -0.188  -0.072   0.143
    1UNL     C3    3  -0.127  -0.036   0.004
    1UNL     C4    4  -0.253  -0.044  -0.095
    1UNL     C5    5  -0.248   0.053  -0.218
    1UNL     C6    6  -0.150   0.174  -0.218
    1UNL     N1    7  -0.030   0.152  -0.132
    1UNL     C7    8   0.081   0.247  -0.122
    1UNL     C8    9   0.141   0.240   0.019
    1UNL     C9   10   0.060   0.134   0.091
    1UNL    C10   11   0.150   0.024   0.128
    1UNL    C11   12   0.159  -0.005   0.263
    1UNL    C12   13   0.250  -0.099   0.306
    1UNL    C13   14   0.329  -0.171   0.218
    1UNL    C14   15   0.318  -0.138   0.084
    1UNL    C15   16   0.231  -0.034   0.035
    1UNL     N2   17   0.234  -0.014  -0.106
    1UNL    C16   18   0.149  -0.057  -0.206
    1UNL     O1   19   0.163  -0.018  -0.319
    1UNL    C17   20   0.034  -0.150  -0.182
    1UNL    C18   21  -0.025  -0.154  -0.033
    1UNL    C19   22  -0.064   0.109   0.006
    1UNL     O2   23  -0.166   0.207   0.043
    1UNL     H1   24  -0.156  -0.279   0.154
    1UNL     H2   25  -0.325  -0.258   0.106
    1UNL     H3   26  -0.291  -0.223   0.268
    1UNL     H4   27  -0.273  -0.002   0.155
    1UNL     H5   28  -0.109  -0.039   0.218
    1UNL     H6   29  -0.339  -0.023  -0.029
    1UNL     H7   30  -0.260  -0.146  -0.131
    1UNL     H8   31  -0.223  -0.010  -0.305
    1UNL     H9   32  -0.356   0.091  -0.239
    1UNL    H10   33  -0.197   0.273  -0.202
    1UNL    H11   34  -0.114   0.183  -0.323
    1UNL    H12   35   0.037   0.343  -0.148
    1UNL    H13   36   0.144   0.226  -0.205
    1UNL    H14   37   0.138   0.336   0.068
    1UNL    H15   38   0.247   0.202   0.013
    1UNL    H16   39   0.026   0.176   0.185
    1UNL    H17   40   0.078   0.024   0.326
    1UNL    H18   41   0.249  -0.123   0.413
    1UNL    H19   42   0.409  -0.236   0.249
    1UNL    H20   43   0.379  -0.191   0.004
    1UNL    H21   44   0.315   0.027  -0.148
    1UNL    H22   45  -0.054  -0.119  -0.242
    1UNL    H23   46   0.077  -0.250  -0.209
    1UNL    H24   47  -0.081  -0.248  -0.028
    1UNL    H25   48   0.051  -0.164   0.046
    1UNL    H26   49  -0.139   0.295  -0.004
   0.00000   0.00000   0.00000   0.00000   0.00000   0.00000   0.00000   0.00000   0.00000
Generated with MDTraj, t= 68.0
 49
    1UNL     C1    1  -0.286  -0.178   0.165
    1UNL     C2    2  -0.176  -0.069   0.149
    1UNL     C3    3  -0.130  -0.050  -0.005
    1UNL     C4    4  -0.255  -0.034  -0.094
    1UNL     C5    5  -0.232   0.035  -0.224
    1UNL     C6    6  -0.162   0.170  -0.216
    1UNL     N1    7  -0.036   0.163  -0.136
    1UNL     C7    8   0.053   0.285  -0.116
    1UNL     C8    9   0.139   0.245   0.006
    1UNL     C9   10   0.060   0.135   0.083
    1UNL    C10   11   0.153   0.026   0.127
    1UNL    C11   12   0.174  -0.006   0.261
    1UNL    C12   13   0.261  -0.107   0.311
    1UNL    C13   14   0.329  -0.184   0.214
    1UNL    C14   15   0.324  -0.147   0.082
    1UNL    C15   16   0.245  -0.036   0.040
    1UNL     N2   17   0.237  -0.006  -0.101
    1UNL    C16   18   0.157  -0.065  -0.201
    1UNL     O1   19   0.159  -0.015  -0.313
    1UNL    C17   20   0.061  -0.178  -0.179
    1UNL    C18   21  -0.029  -0.163  -0.044
    1UNL    C19   22  -0.066   0.106   0.001
    1UNL     O2   23  -0.163   0.195   0.057
    1UNL     H1   24  -0.253  -0.272   0.114
    1UNL     H2   25  -0.389  -0.160   0.127
    1UNL     H3   26  -0.315  -0.194   0.268
    1UNL     H4   27  -0.215   0.030   0.182
    1UNL     H5   28  -0.089  -0.097   0.216
    1UNL     H6   29  -0.332   0.026  -0.041
    1UNL     H7   30  -0.282  -0.139  -0.108
    1UNL     H8   31  -0.173  -0.034  -0.299
    1UNL     H9   32  -0.335   0.048  -0.275
    1UNL    H10   33  -0.231   0.245  -0.177
    1UNL    H11   34  -0.143   0.207  -0.318
    1UNL    H12   35  -0.012   0.371  -0.115
    1UNL    H13   36   0.110   0.304  -0.204
    1UNL    H14   37   0.140   0.333   0.070
    1UNL    H15   38   0.238   0.213  -0.024
    1UNL    H16   39   0.020   0.181   0.173
    1UNL    H17   40   0.111   0.046   0.335
    1UNL    H18   41   0.266  -0.120   0.415
    1UNL    H19   42   0.390  -0.265   0.251
    1UNL    H20   43   0.387  -0.187   0.008
    1UNL    H21   44   0.306   0.057  -0.127
    1UNL    H22   45   0.003  -0.165  -0.267
    1UNL    H23   46   0.120  -0.270  -0.167
    1UNL    H24   47  -0.093  -0.253  -0.047
    1UNL    H25   48   0.024  -0.192   0.052
    1UNL    H26   49  -0.154   0.276   0.002
   0.00000   0.00000   0.00000   0.00000   0.00000   0.00000   0.00000   0.00000   0.00000
Generated with MDTraj, t= 69.0
 49
    1UNL     C1    1  -0.285  -0.181   0.162
    1UNL     C2    2  -0.179  -0.066   0.144
    1UNL     C3    3  -0.123  -0.041   0.001
    1UNL     C4    4  -0.235  -0.048  -0.101
    1UNL     C5    5  -0.208   0.017  -0.234
    1UNL     C6    6  -0.147   0.162  -0.217
    1UNL     N1    7  -0.029   0.153  -0.126
    1UNL     C7    8   0.080   0.256  -0.128
    1UNL     C8    9   0.138   0.259   0.018
    1UNL     C9   10   0.069   0.145   0.093
    1UNL    C10   11   0.161   0.031   0.135
    1UNL    C11   12   0.160  -0.013   0.262
    1UNL    C12   13   0.238  -0.126   0.296
    1UNL    C13   14   0.331  -0.180   0.203
    1UNL    C14   15   0.334  -0.130   0.075
    1UNL    C15   16   0.241  -0.035   0.031
    1UNL     N2   17   0.222  -0.001  -0.106
    1UNL    C16   18   0.131  -0.049  -0.200
    1UNL     O1   19   0.129  -0.003  -0.316
    1UNL    C17   20   0.048  -0.171  -0.163
    1UNL    C18   21  -0.034  -0.155  -0.025
    1UNL    C19   22  -0.062   0.108   0.007
    1UNL     O2   23  -0.163   0.198   0.058
    1UNL     H1   24  -0.238  -0.280   0.131
    1UNL     H2   25  -0.380  -0.178   0.106
    1UNL     H3   26  -0.320  -0.179   0.264
    1UNL     H4   27  -0.241   0.020   0.178
    1UNL     H5   28  -0.094  -0.079   0.216
    1UNL     H6   29  -0.324  -0.004  -0.052
    1UNL     H7   30  -0.250  -0.155  -0.115
    1UNL     H8   31  -0.136  -0.046  -0.307
    1UNL     H9   32  -0.304   0.020  -0.297
    1UNL    H10   33  -0.229   0.224  -0.184
    1UNL    H11   34  -0.116   0.211  -0.309
    1UNL    H12   35   0.060   0.346  -0.181
    1UNL    H13   36   0.145   0.207  -0.202
    1UNL    H14   37   0.111   0.357   0.061
    1UNL    H15   38   0.240   0.243   0.010
    1UNL    H16   39   0.040   0.195   0.185
    1UNL    H17   40   0.117   0.048   0.339
    1UNL    H18   41   0.224  -0.185   0.390
    1UNL    H19   42   0.404  -0.254   0.236
    1UNL    H20   43   0.406  -0.160   0.003
    1UNL    H21   44   0.282   0.068  -0.145
    1UNL    H22   45  -0.029  -0.184  -0.227
    1UNL    H23   46   0.120  -0.253  -0.161
    1UNL    H24   47  -0.095  -0.245  -0.005
    1UNL    H25   48   0.039  -0.176   0.059
    1UNL    H26   49  -0.162   0.276   0.003
   0.00000   0.00000   0.00000   0.00000   0.00000   0.00000   0.00000   0.00000   0.00000
Generated with MDTraj, t= 70.0
 49
    1UNL     C1    1  -0.252  -0.188   0.180
    1UNL     C2    2  -0.202  -0.051   0.143
    1UNL     C3    3  -0.137  -0.033  -0.002
    1UNL     C4    4  -0.246  -0.041  -0.110
    1UNL     C5    5  -0.198   0.016  -0.243
    1UNL     C6    6  -0.127   0.153  -0.226
    1UNL     N1    7  -0.019   0.159  -0.130
    1UNL     C7    8   0.062   0.280  -0.103
    1UNL     C8    9   0.128   0.263   0.040
    1UNL     C9   10   0.062   0.141   0.098
    1UNL    C10   11   0.161   0.021   0.126
    1UNL    C11   12   0.171  -0.022   0.261
    1UNL    C12   13   0.248  -0.136   0.288
    1UNL    C13   14   0.343  -0.184   0.195
    1UNL    C14   15   0.336  -0.137   0.067
    1UNL    C15   16   0.239  -0.036   0.032
    1UNL     N2   17   0.219  -0.001  -0.106
    1UNL    C16   18   0.135  -0.059  -0.198
    1UNL     O1   19   0.126  -0.018  -0.315
    1UNL    C17   20   0.039  -0.170  -0.150
    1UNL    C18   21  -0.038  -0.147  -0.012
    1UNL    C19   22  -0.067   0.111   0.003
    1UNL     O2   23  -0.172   0.205   0.032
    1UNL     H1   24  -0.159  -0.254   0.197
    1UNL     H2   25  -0.304  -0.251   0.105
    1UNL     H3   26  -0.316  -0.188   0.267
    1UNL     H4   27  -0.284   0.024   0.154
    1UNL     H5   28  -0.134  -0.018   0.227
    1UNL     H6   29  -0.330   0.019  -0.070
    1UNL     H7   30  -0.271  -0.146  -0.121
    1UNL     H8   31  -0.138  -0.050  -0.316
    1UNL     H9   32  -0.290   0.037  -0.312
    1UNL    H10   33  -0.194   0.236  -0.214
    1UNL    H11   34  -0.084   0.172  -0.322
    1UNL    H12   35   0.005   0.367  -0.116
    1UNL    H13   36   0.129   0.299  -0.190
    1UNL    H14   37   0.115   0.357   0.096
    1UNL    H15   38   0.228   0.237   0.029
    1UNL    H16   39   0.015   0.169   0.192
    1UNL    H17   40   0.112   0.024   0.341
    1UNL    H18   41   0.254  -0.171   0.385
    1UNL    H19   42   0.408  -0.267   0.213
    1UNL    H20   43   0.403  -0.178  -0.016
    1UNL    H21   44   0.290   0.053  -0.157
    1UNL    H22   45  -0.024  -0.205  -0.224
    1UNL    H23   46   0.106  -0.250  -0.119
    1UNL    H24   47  -0.083  -0.246   0.009
    1UNL    H25   48   0.027  -0.151   0.081
    1UNL    H26   49  -0.151   0.300   0.004
   0.00000   0.00000   0.00000   0.00000   0.00000   0.00000   0.00000   0.00000   0.00000
Generated with MDTraj, t= 71.0
 49
    1UNL     C1    1  -0.259  -0.196   0.163
    1UNL     C2    2  -0.192  -0.064   0.141
    1UNL     C3    3  -0.129  -0.040  -0.002
    1UNL     C4    4  -0.239  -0.037  -0.107
    1UNL     C5    5  -0.194   0.039  -0.236
    1UNL     C6    6  -0.135   0.179  -0.210
    1UNL     N1    7  -0.014   0.165  -0.132
    1UNL     C7    8   0.093   0.269  -0.108
    1UNL     C8    9   0.136   0.260   0.039
    1UNL     C9   10   0.052   0.146   0.102
    1UNL    C10   11   0.139   0.029   0.132
    1UNL    C11   12   0.168  -0.015   0.263
    1UNL    C12   13   0.268  -0.108   0.291
    1UNL    C13   14   0.336  -0.174   0.192
    1UNL    C14   15   0.313  -0.129   0.063
    1UNL    C15   16   0.225  -0.029   0.031
    1UNL     N2   17   0.209   0.006  -0.108
    1UNL    C16   18   0.133  -0.075  -0.200
    1UNL     O1   19   0.123  -0.049  -0.321
    1UNL    C17   20   0.054  -0.191  -0.151
    1UNL    C18   21  -0.034  -0.163  -0.026
    1UNL    C19   22  -0.071   0.109   0.003
    1UNL     O2   23  -0.177   0.199   0.044
    1UNL     H1   24  -0.179  -0.276   0.148
    1UNL     H2   25  -0.335  -0.227   0.089
    1UNL     H3   26  -0.304  -0.211   0.262
    1UNL     H4   27  -0.252   0.026   0.167
    1UNL     H5   28  -0.110  -0.049   0.216
    1UNL     H6   29  -0.326   0.008  -0.055
    1UNL     H7   30  -0.256  -0.140  -0.136
    1UNL     H8   31  -0.119  -0.019  -0.288
    1UNL     H9   32  -0.271   0.045  -0.326
    1UNL    H10   33  -0.214   0.234  -0.161
    1UNL    H11   34  -0.115   0.242  -0.293
    1UNL    H12   35   0.043   0.358  -0.130
    1UNL    H13   36   0.180   0.277  -0.178
    1UNL    H14   37   0.114   0.357   0.085
    1UNL    H15   38   0.238   0.233   0.041
    1UNL    H16   39   0.013   0.174   0.199
    1UNL    H17   40   0.118   0.038   0.341
    1UNL    H18   41   0.290  -0.128   0.399
    1UNL    H19   42   0.414  -0.247   0.217
    1UNL    H20   43   0.344  -0.188  -0.015
    1UNL    H21   44   0.271   0.080  -0.151
    1UNL    H22   45  -0.010  -0.222  -0.236
    1UNL    H23   46   0.118  -0.274  -0.136
    1UNL    H24   47  -0.082  -0.259  -0.003
    1UNL    H25   48   0.028  -0.152   0.065
    1UNL    H26   49  -0.142   0.293   0.057
   0.00000   0.00000   0.00000   0.00000   0.00000   0.00000   0.00000   0.00000   0.00000
Generated with MDTraj, t= 72.0
 49
    1UNL     C1    1  -0.308  -0.178   0.158
    1UNL     C2    2  -0.205  -0.063   0.133
    1UNL     C3    3  -0.127  -0.043   0.002
    1UNL     C4    4  -0.241  -0.040  -0.106
    1UNL     C5    5  -0.204   0.023  -0.243
    1UNL     C6    6  -0.128   0.155  -0.231
    1UNL     N1    7  -0.030   0.157  -0.127
    1UNL     C7    8   0.056   0.273  -0.104
    1UNL     C8    9   0.131   0.263   0.033
    1UNL     C9   10   0.067   0.138   0.104
    1UNL    C10   11   0.167   0.025   0.132
    1UNL    C11   12   0.186  -0.008   0.265
    1UNL    C12   13   0.277  -0.101   0.297
    1UNL    C13   14   0.344  -0.172   0.198
    1UNL    C14   15   0.323  -0.140   0.064
    1UNL    C15   16   0.242  -0.036   0.031
    1UNL     N2   17   0.235  -0.012  -0.111
    1UNL    C16   18   0.132  -0.056  -0.201
    1UNL     O1   19   0.137  -0.023  -0.318
    1UNL    C17   20   0.041  -0.172  -0.160
    1UNL    C18   21  -0.035  -0.161  -0.022
    1UNL    C19   22  -0.066   0.103   0.011
    1UNL     O2   23  -0.172   0.192   0.062
    1UNL     H1   24  -0.246  -0.268   0.152
    1UNL     H2   25  -0.390  -0.172   0.081
    1UNL     H3   26  -0.355  -0.167   0.259
    1UNL     H4   27  -0.265   0.031   0.148
    1UNL     H5   28  -0.131  -0.058   0.214
    1UNL     H6   29  -0.323   0.021  -0.064
    1UNL     H7   30  -0.270  -0.143  -0.125
    1UNL     H8   31  -0.146  -0.038  -0.308
    1UNL     H9   32  -0.302   0.032  -0.310
    1UNL    H10   33  -0.192   0.240  -0.216
    1UNL    H11   34  -0.084   0.175  -0.326
    1UNL    H12   35   0.003   0.363  -0.118
    1UNL    H13   36   0.126   0.274  -0.192
    1UNL    H14   37   0.104   0.351   0.088
    1UNL    H15   38   0.236   0.257   0.015
    1UNL    H16   39   0.042   0.176   0.202
    1UNL    H17   40   0.136   0.053   0.340
    1UNL    H18   41   0.296  -0.114   0.400
    1UNL    H19   42   0.400  -0.255   0.233
    1UNL    H20   43   0.366  -0.211  -0.012
    1UNL    H21   44   0.310   0.053  -0.144
    1UNL    H22   45  -0.039  -0.177  -0.247
    1UNL    H23   46   0.095  -0.263  -0.172
    1UNL    H24   47  -0.103  -0.247  -0.007
    1UNL    H25   48   0.043  -0.168   0.052
    1UNL    H26   49  -0.139   0.279   0.087
   0.00000   0.00000   0.00000   0.00000   0.00000   0.00000   0.00000   0.00000   0.00000
Generated with MDTraj, t= 73.0
 49
    1UNL     C1    1  -0.303  -0.167   0.152
    1UNL     C2    2  -0.187  -0.061   0.144
    1UNL     C3    3  -0.123  -0.046   0.005
    1UNL     C4    4  -0.236  -0.037  -0.104
    1UNL     C5    5  -0.215   0.028  -0.245
    1UNL     C6    6  -0.140   0.160  -0.226
    1UNL     N1    7  -0.023   0.151  -0.136
    1UNL     C7    8   0.077   0.261  -0.117
    1UNL     C8    9   0.133   0.259   0.027
    1UNL     C9   10   0.061   0.138   0.098
    1UNL    C10   11   0.159   0.021   0.134
    1UNL    C11   12   0.166  -0.029   0.266
    1UNL    C12   13   0.264  -0.119   0.296
    1UNL    C13   14   0.358  -0.153   0.204
    1UNL    C14   15   0.342  -0.122   0.069
    1UNL    C15   16   0.237  -0.033   0.034
    1UNL     N2   17   0.219  -0.008  -0.104
    1UNL    C16   18   0.124  -0.057  -0.193
    1UNL     O1   19   0.120  -0.010  -0.302
    1UNL    C17   20   0.040  -0.174  -0.164
    1UNL    C18   21  -0.027  -0.169  -0.023
    1UNL    C19   22  -0.060   0.105   0.006
    1UNL     O2   23  -0.169   0.190   0.052
    1UNL     H1   24  -0.265  -0.258   0.112
    1UNL     H2   25  -0.394  -0.129   0.097
    1UNL     H3   26  -0.340  -0.181   0.260
    1UNL     H4   27  -0.217   0.045   0.164
    1UNL     H5   28  -0.104  -0.081   0.214
    1UNL     H6   29  -0.316   0.028  -0.066
    1UNL     H7   30  -0.261  -0.142  -0.122
    1UNL     H8   31  -0.159  -0.039  -0.304
    1UNL     H9   32  -0.310   0.048  -0.310
    1UNL    H10   33  -0.206   0.240  -0.199
    1UNL    H11   34  -0.100   0.194  -0.318
    1UNL    H12   35   0.029   0.355  -0.134
    1UNL    H13   36   0.154   0.255  -0.199
    1UNL    H14   37   0.112   0.351   0.071
    1UNL    H15   38   0.238   0.234   0.024
    1UNL    H16   39   0.019   0.165   0.195
    1UNL    H17   40   0.102   0.020   0.336
    1UNL    H18   41   0.274  -0.160   0.397
    1UNL    H19   42   0.432  -0.233   0.222
    1UNL    H20   43   0.410  -0.163  -0.008
    1UNL    H21   44   0.298   0.031  -0.156
    1UNL    H22   45  -0.033  -0.192  -0.253
    1UNL    H23   46   0.103  -0.260  -0.171
    1UNL    H24   47  -0.096  -0.255  -0.018
    1UNL    H25   48   0.053  -0.177   0.048
    1UNL    H26   49  -0.129   0.278   0.053
   0.00000   0.00000   0.00000   0.00000   0.00000   0.00000   0.00000   0.00000   0.00000
Generated with MDTraj, t= 74.0
 49
    1UNL     C1    1  -0.265  -0.190   0.163
    1UNL     C2    2  -0.199  -0.054   0.148
    1UNL     C3    3  -0.139  -0.035   0.010
    1UNL     C4    4  -0.256  -0.029  -0.100
    1UNL     C5    5  -0.206   0.021  -0.234
    1UNL     C6    6  -0.134   0.161  -0.224
    1UNL     N1    7  -0.020   0.155  -0.134
    1UNL     C7    8   0.073   0.269  -0.120
    1UNL     C8    9   0.123   0.258   0.024
    1UNL     C9   10   0.052   0.138   0.099
    1UNL    C10   11   0.144   0.019   0.126
    1UNL    C11   12   0.167  -0.028   0.256
    1UNL    C12   13   0.268  -0.124   0.292
    1UNL    C13   14   0.345  -0.178   0.192
    1UNL    C14   15   0.329  -0.130   0.064
    1UNL    C15   16   0.230  -0.043   0.029
    1UNL     N2   17   0.223  -0.001  -0.105
    1UNL    C16   18   0.140  -0.059  -0.194
    1UNL     O1   19   0.147  -0.024  -0.308
    1UNL    C17   20   0.049  -0.168  -0.150
    1UNL    C18   21  -0.030  -0.150  -0.020
    1UNL    C19   22  -0.067   0.112   0.002
    1UNL     O2   23  -0.170   0.204   0.046
    1UNL     H1   24  -0.198  -0.269   0.143
    1UNL     H2   25  -0.355  -0.201   0.097
    1UNL     H3   26  -0.311  -0.212   0.266
    1UNL     H4   27  -0.271   0.032   0.156
    1UNL     H5   28  -0.115  -0.031   0.214
    1UNL     H6   29  -0.331   0.042  -0.062
    1UNL     H7   30  -0.296  -0.129  -0.122
    1UNL     H8   31  -0.133  -0.042  -0.274
    1UNL     H9   32  -0.289   0.019  -0.311
    1UNL    H10   33  -0.201   0.238  -0.190
    1UNL    H11   34  -0.107   0.192  -0.323
    1UNL    H12   35   0.011   0.355  -0.145
    1UNL    H13   36   0.156   0.269  -0.191
    1UNL    H14   37   0.111   0.343   0.079
    1UNL    H15   38   0.225   0.223   0.018
    1UNL    H16   39   0.021   0.170   0.200
    1UNL    H17   40   0.111   0.019   0.336
    1UNL    H18   41   0.285  -0.160   0.393
    1UNL    H19   42   0.426  -0.242   0.216
    1UNL    H20   43   0.396  -0.163  -0.006
    1UNL    H21   44   0.272   0.077  -0.138
    1UNL    H22   45  -0.011  -0.204  -0.235
    1UNL    H23   46   0.119  -0.250  -0.141
    1UNL    H24   47  -0.088  -0.242  -0.007
    1UNL    H25   48   0.040  -0.144   0.060
    1UNL    H26   49  -0.120   0.290   0.069
   0.00000   0.00000   0.00000   0.00000   0.00000   0.00000   0.00000   0.00000   0.00000
Generated with MDTraj, t= 75.0
 49
    1UNL     C1    1  -0.238  -0.200   0.181
    1UNL     C2    2  -0.188  -0.060   0.145
    1UNL     C3    3  -0.119  -0.040   0.008
    1UNL     C4    4  -0.231  -0.048  -0.104
    1UNL     C5    5  -0.206   0.034  -0.233
    1UNL     C6    6  -0.128   0.173  -0.222
    1UNL     N1    7  -0.014   0.160  -0.131
    1UNL     C7    8   0.064   0.281  -0.115
    1UNL     C8    9   0.128   0.263   0.028
    1UNL     C9   10   0.059   0.144   0.102
    1UNL    C10   11   0.154   0.028   0.121
    1UNL    C11   12   0.167  -0.003   0.253
    1UNL    C12   13   0.241  -0.111   0.294
    1UNL    C13   14   0.311  -0.183   0.199
    1UNL    C14   15   0.304  -0.150   0.067
    1UNL    C15   16   0.224  -0.047   0.027
    1UNL     N2   17   0.217  -0.009  -0.110
    1UNL    C16   18   0.130  -0.057  -0.205
    1UNL     O1   19   0.152  -0.031  -0.323
    1UNL    C17   20   0.035  -0.167  -0.160
    1UNL    C18   21  -0.019  -0.150  -0.024
    1UNL    C19   22  -0.059   0.115   0.009
    1UNL     O2   23  -0.175   0.189   0.049
    1UNL     H1   24  -0.156  -0.269   0.185
    1UNL     H2   25  -0.314  -0.234   0.108
    1UNL     H3   26  -0.297  -0.203   0.280
    1UNL     H4   27  -0.281   0.004   0.149
    1UNL     H5   28  -0.119  -0.030   0.224
    1UNL     H6   29  -0.320  -0.004  -0.057
    1UNL     H7   30  -0.246  -0.154  -0.130
    1UNL     H8   31  -0.159  -0.023  -0.310
    1UNL     H9   32  -0.300   0.061  -0.276
    1UNL    H10   33  -0.198   0.244  -0.181
    1UNL    H11   34  -0.103   0.218  -0.316
    1UNL    H12   35   0.006   0.375  -0.129
    1UNL    H13   36   0.131   0.274  -0.199
    1UNL    H14   37   0.103   0.341   0.091
    1UNL    H15   38   0.232   0.240   0.033
    1UNL    H16   39   0.027   0.185   0.198
    1UNL    H17   40   0.093   0.035   0.322
    1UNL    H18   41   0.245  -0.121   0.402
    1UNL    H19   42   0.377  -0.262   0.236
    1UNL    H20   43   0.359  -0.209  -0.016
    1UNL    H21   44   0.266   0.068  -0.147
    1UNL    H22   45  -0.037  -0.184  -0.231
    1UNL    H23   46   0.090  -0.261  -0.159
    1UNL    H24   47  -0.069  -0.247  -0.012
    1UNL    H25   48   0.052  -0.146   0.057
    1UNL    H26   49  -0.142   0.272   0.089
   0.00000   0.00000   0.00000   0.00000   0.00000   0.00000   0.00000   0.00000   0.00000
Generated with MDTraj, t= 76.0
 49
    1UNL     C1    1  -0.242  -0.195   0.174
    1UNL     C2    2  -0.177  -0.059   0.154
    1UNL     C3    3  -0.121  -0.043   0.009
    1UNL     C4    4  -0.243  -0.029  -0.094
    1UNL     C5    5  -0.224   0.031  -0.235
    1UNL     C6    6  -0.145   0.163  -0.229
    1UNL     N1    7  -0.026   0.152  -0.134
    1UNL     C7    8   0.075   0.267  -0.133
    1UNL     C8    9   0.142   0.257   0.006
    1UNL     C9   10   0.069   0.145   0.089
    1UNL    C10   11   0.159   0.031   0.133
    1UNL    C11   12   0.157  -0.018   0.263
    1UNL    C12   13   0.239  -0.121   0.304
    1UNL    C13   14   0.315  -0.185   0.205
    1UNL    C14   15   0.315  -0.152   0.070
    1UNL    C15   16   0.226  -0.039   0.032
    1UNL     N2   17   0.217   0.008  -0.100
    1UNL    C16   18   0.135  -0.044  -0.195
    1UNL     O1   19   0.146  -0.004  -0.312
    1UNL    C17   20   0.051  -0.165  -0.161
    1UNL    C18   21  -0.026  -0.168  -0.035
    1UNL    C19   22  -0.063   0.106   0.007
    1UNL     O2   23  -0.173   0.190   0.048
    1UNL     H1   24  -0.169  -0.277   0.158
    1UNL     H2   25  -0.333  -0.210   0.113
    1UNL     H3   26  -0.280  -0.215   0.278
    1UNL     H4   27  -0.252   0.022   0.175
    1UNL     H5   28  -0.101  -0.053   0.231
    1UNL     H6   29  -0.312   0.036  -0.040
    1UNL     H7   30  -0.284  -0.131  -0.099
    1UNL     H8   31  -0.163  -0.035  -0.302
    1UNL     H9   32  -0.312   0.041  -0.282
    1UNL    H10   33  -0.208   0.250  -0.208
    1UNL    H11   34  -0.114   0.190  -0.331
    1UNL    H12   35   0.013   0.361  -0.145
    1UNL    H13   36   0.142   0.276  -0.216
    1UNL    H14   37   0.130   0.343   0.063
    1UNL    H15   38   0.244   0.230   0.006
    1UNL    H16   39   0.031   0.193   0.180
    1UNL    H17   40   0.095   0.032   0.337
    1UNL    H18   41   0.233  -0.167   0.404
    1UNL    H19   42   0.376  -0.268   0.237
    1UNL    H20   43   0.374  -0.197  -0.003
    1UNL    H21   44   0.263   0.093  -0.133
    1UNL    H22   45  -0.018  -0.183  -0.236
    1UNL    H23   46   0.123  -0.247  -0.164
    1UNL    H24   47  -0.083  -0.261  -0.039
    1UNL    H25   48   0.045  -0.182   0.048
    1UNL    H26   49  -0.139   0.279   0.038
   0.00000   0.00000   0.00000   0.00000   0.00000   0.00000   0.00000   0.00000   0.00000
Generated with MDTraj, t= 77.0
 49
    1UNL     C1    1  -0.268  -0.180   0.169
    1UNL     C2    2  -0.179  -0.055   0.150
    1UNL     C3    3  -0.131  -0.037   0.001
    1UNL     C4    4  -0.265  -0.032  -0.081
    1UNL     C5    5  -0.234   0.027  -0.220
    1UNL     C6    6  -0.161   0.157  -0.220
    1UNL     N1    7  -0.033   0.142  -0.145
    1UNL     C7    8   0.067   0.251  -0.134
    1UNL     C8    9   0.126   0.259   0.008
    1UNL     C9   10   0.065   0.135   0.080
    1UNL    C10   11   0.157   0.019   0.126
    1UNL    C11   12   0.158  -0.029   0.254
    1UNL    C12   13   0.245  -0.128   0.307
    1UNL    C13   14   0.335  -0.184   0.213
    1UNL    C14   15   0.334  -0.145   0.082
    1UNL    C15   16   0.247  -0.045   0.038
    1UNL     N2   17   0.250  -0.006  -0.100
    1UNL    C16   18   0.155  -0.041  -0.194
    1UNL     O1   19   0.157   0.008  -0.305
    1UNL    C17   20   0.047  -0.146  -0.175
    1UNL    C18   21  -0.027  -0.154  -0.043
    1UNL    C19   22  -0.069   0.106  -0.002
    1UNL     O2   23  -0.169   0.198   0.051
    1UNL     H1   24  -0.216  -0.282   0.157
    1UNL     H2   25  -0.368  -0.179   0.122
    1UNL     H3   26  -0.300  -0.186   0.275
    1UNL     H4   27  -0.244   0.029   0.184
    1UNL     H5   28  -0.093  -0.043   0.217
    1UNL     H6   29  -0.333   0.028  -0.022
    1UNL     H7   30  -0.303  -0.136  -0.093
    1UNL     H8   31  -0.178  -0.050  -0.282
    1UNL     H9   32  -0.319   0.038  -0.273
    1UNL    H10   33  -0.226   0.239  -0.187
    1UNL    H11   34  -0.141   0.191  -0.325
    1UNL    H12   35   0.021   0.348  -0.173
    1UNL    H13   36   0.147   0.241  -0.205
    1UNL    H14   37   0.102   0.348   0.061
    1UNL    H15   38   0.227   0.243   0.001
    1UNL    H16   39   0.032   0.171   0.179
    1UNL    H17   40   0.095   0.019   0.325
    1UNL    H18   41   0.250  -0.165   0.406
    1UNL    H19   42   0.389  -0.273   0.243
    1UNL    H20   43   0.419  -0.177   0.021
    1UNL    H21   44   0.330   0.060  -0.123
    1UNL    H22   45  -0.023  -0.149  -0.261
    1UNL    H23   46   0.109  -0.233  -0.180
    1UNL    H24   47  -0.071  -0.253  -0.020
    1UNL    H25   48   0.055  -0.164   0.034
    1UNL    H26   49  -0.144   0.294   0.043
   0.00000   0.00000   0.00000   0.00000   0.00000   0.00000   0.00000   0.00000   0.00000
Generated with MDTraj, t= 78.0
 49
    1UNL     C1    1  -0.266  -0.197   0.157
    1UNL     C2    2  -0.179  -0.070   0.145
    1UNL     C3    3  -0.123  -0.042   0.000
    1UNL     C4    4  -0.250  -0.044  -0.086
    1UNL     C5    5  -0.234   0.035  -0.221
    1UNL     C6    6  -0.156   0.167  -0.207
    1UNL     N1    7  -0.026   0.149  -0.136
    1UNL     C7    8   0.072   0.257  -0.126
    1UNL     C8    9   0.151   0.248   0.008
    1UNL     C9   10   0.065   0.143   0.091
    1UNL    C10   11   0.151   0.020   0.128
    1UNL    C11   12   0.151  -0.015   0.268
    1UNL    C12   13   0.245  -0.104   0.310
    1UNL    C13   14   0.331  -0.167   0.225
    1UNL    C14   15   0.326  -0.132   0.091
    1UNL    C15   16   0.236  -0.044   0.033
    1UNL     N2   17   0.241  -0.029  -0.111
    1UNL    C16   18   0.141  -0.049  -0.209
    1UNL     O1   19   0.157  -0.007  -0.322
    1UNL    C17   20   0.027  -0.140  -0.187
    1UNL    C18   21  -0.024  -0.148  -0.044
    1UNL    C19   22  -0.063   0.107   0.003
    1UNL     O2   23  -0.164   0.188   0.058
    1UNL     H1   24  -0.215  -0.298   0.127
    1UNL     H2   25  -0.371  -0.177   0.128
    1UNL     H3   26  -0.282  -0.204   0.266
    1UNL     H4   27  -0.231   0.023   0.180
    1UNL     H5   28  -0.100  -0.077   0.220
    1UNL     H6   29  -0.329   0.008  -0.031
    1UNL     H7   30  -0.275  -0.152  -0.099
    1UNL     H8   31  -0.185  -0.024  -0.304
    1UNL     H9   32  -0.337   0.053  -0.256
    1UNL    H10   33  -0.226   0.237  -0.155
    1UNL    H11   34  -0.145   0.221  -0.305
    1UNL    H12   35   0.030   0.364  -0.141
    1UNL    H13   36   0.128   0.244  -0.219
    1UNL    H14   37   0.152   0.344   0.053
    1UNL    H15   38   0.245   0.208  -0.007
    1UNL    H16   39   0.031   0.187   0.186
    1UNL    H17   40   0.079   0.031   0.334
    1UNL    H18   41   0.244  -0.119   0.420
    1UNL    H19   42   0.404  -0.242   0.251
    1UNL    H20   43   0.384  -0.179   0.010
    1UNL    H21   44   0.326   0.025  -0.143
    1UNL    H22   45  -0.058  -0.122  -0.262
    1UNL    H23   46   0.060  -0.240  -0.205
    1UNL    H24   47  -0.059  -0.249  -0.014
    1UNL    H25   48   0.064  -0.149   0.026
    1UNL    H26   49  -0.136   0.286   0.066
   0.00000   0.00000   0.00000   0.00000   0.00000   0.00000   0.00000   0.00000   0.00000
Generated with MDTraj, t= 79.0
 49
    1UNL     C1    1  -0.238  -0.203   0.166
    1UNL     C2    2  -0.185  -0.065   0.147
    1UNL     C3    3  -0.136  -0.041  -0.001
    1UNL     C4    4  -0.261  -0.022  -0.096
    1UNL     C5    5  -0.246   0.042  -0.232
    1UNL     C6    6  -0.163   0.170  -0.216
    1UNL     N1    7  -0.036   0.152  -0.138
    1UNL     C7    8   0.073   0.261  -0.121
    1UNL     C8    9   0.137   0.247   0.017
    1UNL     C9   10   0.060   0.134   0.097
    1UNL    C10   11   0.164   0.025   0.136
    1UNL    C11   12   0.183   0.002   0.273
    1UNL    C12   13   0.263  -0.107   0.312
    1UNL    C13   14   0.328  -0.179   0.214
    1UNL    C14   15   0.309  -0.154   0.077
    1UNL    C15   16   0.233  -0.046   0.041
    1UNL     N2   17   0.236  -0.007  -0.098
    1UNL    C16   18   0.149  -0.051  -0.204
    1UNL     O1   19   0.172  -0.012  -0.319
    1UNL    C17   20   0.048  -0.159  -0.177
    1UNL    C18   21  -0.039  -0.155  -0.048
    1UNL    C19   22  -0.070   0.101  -0.004
    1UNL     O2   23  -0.170   0.192   0.040
    1UNL     H1   24  -0.155  -0.281   0.147
    1UNL     H2   25  -0.337  -0.205   0.113
    1UNL     H3   26  -0.270  -0.218   0.271
    1UNL     H4   27  -0.258   0.012   0.179
    1UNL     H5   28  -0.101  -0.043   0.213
    1UNL     H6   29  -0.310   0.057  -0.036
    1UNL     H7   30  -0.332  -0.109  -0.101
    1UNL     H8   31  -0.195  -0.028  -0.302
    1UNL     H9   32  -0.353   0.063  -0.284
    1UNL    H10   33  -0.231   0.245  -0.166
    1UNL    H11   34  -0.147   0.219  -0.317
    1UNL    H12   35   0.006   0.355  -0.135
    1UNL    H13   36   0.147   0.268  -0.202
    1UNL    H14   37   0.116   0.341   0.056
    1UNL    H15   38   0.239   0.223  -0.000
    1UNL    H16   39   0.018   0.174   0.191
    1UNL    H17   40   0.125   0.057   0.346
    1UNL    H18   41   0.271  -0.140   0.410
    1UNL    H19   42   0.398  -0.256   0.242
    1UNL    H20   43   0.340  -0.232   0.016
    1UNL    H21   44   0.314   0.052  -0.132
    1UNL    H22   45  -0.022  -0.185  -0.264
    1UNL    H23   46   0.103  -0.250  -0.172
    1UNL    H24   47  -0.089  -0.253  -0.033
    1UNL    H25   48   0.032  -0.168   0.038
    1UNL    H26   49  -0.126   0.279   0.052
   0.00000   0.00000   0.00000   0.00000   0.00000   0.00000   0.00000   0.00000   0.00000
Generated with MDTraj, t= 80.0
 49
    1UNL     C1    1  -0.241  -0.197   0.173
    1UNL     C2    2  -0.166  -0.066   0.148
    1UNL     C3    3  -0.119  -0.038   0.002
    1UNL     C4    4  -0.244  -0.032  -0.085
    1UNL     C5    5  -0.231   0.030  -0.224
    1UNL     C6    6  -0.131   0.155  -0.230
    1UNL     N1    7  -0.026   0.151  -0.137
    1UNL     C7    8   0.083   0.258  -0.123
    1UNL     C8    9   0.135   0.259   0.024
    1UNL     C9   10   0.061   0.139   0.095
    1UNL    C10   11   0.148   0.023   0.131
    1UNL    C11   12   0.153  -0.014   0.264
    1UNL    C12   13   0.232  -0.121   0.296
    1UNL    C13   14   0.316  -0.183   0.208
    1UNL    C14   15   0.317  -0.135   0.077
    1UNL    C15   16   0.239  -0.031   0.035
    1UNL     N2   17   0.227  -0.001  -0.105
    1UNL    C16   18   0.139  -0.048  -0.207
    1UNL     O1   19   0.138  -0.009  -0.324
    1UNL    C17   20   0.039  -0.157  -0.172
    1UNL    C18   21  -0.023  -0.155  -0.038
    1UNL    C19   22  -0.062   0.111   0.010
    1UNL     O2   23  -0.175   0.191   0.049
    1UNL     H1   24  -0.170  -0.280   0.195
    1UNL     H2   25  -0.318  -0.215   0.091
    1UNL     H3   26  -0.308  -0.197   0.262
    1UNL     H4   27  -0.231   0.020   0.175
    1UNL     H5   28  -0.082  -0.055   0.216
    1UNL     H6   29  -0.308   0.033  -0.021
    1UNL     H7   30  -0.292  -0.133  -0.087
    1UNL     H8   31  -0.199  -0.042  -0.297
    1UNL     H9   32  -0.341   0.065  -0.266
    1UNL    H10   33  -0.189   0.251  -0.213
    1UNL    H11   34  -0.084   0.167  -0.333
    1UNL    H12   35   0.035   0.354  -0.163
    1UNL    H13   36   0.160   0.235  -0.198
    1UNL    H14   37   0.118   0.354   0.060
    1UNL    H15   38   0.240   0.232   0.019
    1UNL    H16   39   0.026   0.174   0.193
    1UNL    H17   40   0.097   0.046   0.333
    1UNL    H18   41   0.231  -0.150   0.404
    1UNL    H19   42   0.374  -0.269   0.244
    1UNL    H20   43   0.398  -0.181   0.010
    1UNL    H21   44   0.281   0.075  -0.139
    1UNL    H22   45  -0.025  -0.181  -0.253
    1UNL    H23   46   0.099  -0.247  -0.182
    1UNL    H24   47  -0.058  -0.256  -0.009
    1UNL    H25   48   0.060  -0.156   0.033
    1UNL    H26   49  -0.158   0.282   0.029
   0.00000   0.00000   0.00000   0.00000   0.00000   0.00000   0.00000   0.00000   0.00000
Generated with MDTraj, t= 81.0
 49
    1UNL     C1    1  -0.262  -0.179   0.181
    1UNL     C2    2  -0.186  -0.052   0.146
    1UNL     C3    3  -0.126  -0.035   0.008
    1UNL     C4    4  -0.245  -0.044  -0.099
    1UNL     C5    5  -0.204   0.010  -0.236
    1UNL     C6    6  -0.148   0.156  -0.225
    1UNL     N1    7  -0.041   0.153  -0.136
    1UNL     C7    8   0.066   0.267  -0.125
    1UNL     C8    9   0.137   0.251   0.011
    1UNL     C9   10   0.061   0.141   0.086
    1UNL    C10   11   0.153   0.021   0.126
    1UNL    C11   12   0.159  -0.027   0.259
    1UNL    C12   13   0.241  -0.134   0.292
    1UNL    C13   14   0.320  -0.199   0.197
    1UNL    C14   15   0.327  -0.146   0.070
    1UNL    C15   16   0.245  -0.032   0.036
    1UNL     N2   17   0.235   0.011  -0.107
    1UNL    C16   18   0.143  -0.042  -0.198
    1UNL     O1   19   0.142  -0.006  -0.312
    1UNL    C17   20   0.050  -0.155  -0.155
    1UNL    C18   21  -0.019  -0.144  -0.021
    1UNL    C19   22  -0.073   0.112   0.003
    1UNL     O2   23  -0.167   0.200   0.063
    1UNL     H1   24  -0.205  -0.269   0.159
    1UNL     H2   25  -0.362  -0.176   0.125
    1UNL     H3   26  -0.292  -0.196   0.288
    1UNL     H4   27  -0.253   0.036   0.159
    1UNL     H5   28  -0.107  -0.049   0.223
    1UNL     H6   29  -0.340   0.004  -0.068
    1UNL     H7   30  -0.255  -0.156  -0.103
    1UNL     H8   31  -0.135  -0.052  -0.292
    1UNL     H9   32  -0.297   0.015  -0.301
    1UNL    H10   33  -0.225   0.236  -0.198
    1UNL    H11   34  -0.116   0.188  -0.330
    1UNL    H12   35   0.023   0.373  -0.125
    1UNL    H13   36   0.119   0.261  -0.222
    1UNL    H14   37   0.132   0.336   0.069
    1UNL    H15   38   0.242   0.222  -0.008
    1UNL    H16   39   0.028   0.182   0.184
    1UNL    H17   40   0.119   0.035   0.339
    1UNL    H18   41   0.231  -0.170   0.390
    1UNL    H19   42   0.382  -0.280   0.228
    1UNL    H20   43   0.402  -0.173   0.005
    1UNL    H21   44   0.297   0.076  -0.145
    1UNL    H22   45  -0.007  -0.188  -0.236
    1UNL    H23   46   0.114  -0.242  -0.156
    1UNL    H24   47  -0.060  -0.244  -0.003
    1UNL    H25   48   0.063  -0.149   0.047
    1UNL    H26   49  -0.170   0.278   0.005
   0.00000   0.00000   0.00000   0.00000   0.00000   0.00000   0.00000   0.00000   0.00000
Generated with MDTraj, t= 82.0
 49
    1UNL     C1    1  -0.277  -0.196   0.153
    1UNL     C2    2  -0.187  -0.069   0.149
    1UNL     C3    3  -0.126  -0.044   0.007
    1UNL     C4    4  -0.240  -0.036  -0.110
    1UNL     C5    5  -0.216   0.040  -0.238
    1UNL     C6    6  -0.152   0.180  -0.209
    1UNL     N1    7  -0.025   0.152  -0.141
    1UNL     C7    8   0.066   0.275  -0.115
    1UNL     C8    9   0.134   0.263   0.022
    1UNL     C9   10   0.067   0.140   0.092
    1UNL    C10   11   0.163   0.029   0.127
    1UNL    C11   12   0.175  -0.008   0.261
    1UNL    C12   13   0.248  -0.117   0.303
    1UNL    C13   14   0.333  -0.173   0.207
    1UNL    C14   15   0.326  -0.139   0.073
    1UNL    C15   16   0.244  -0.033   0.031
    1UNL     N2   17   0.225  -0.005  -0.109
    1UNL    C16   18   0.131  -0.062  -0.203
    1UNL     O1   19   0.121  -0.020  -0.316
    1UNL    C17   20   0.049  -0.181  -0.149
    1UNL    C18   21  -0.028  -0.164  -0.016
    1UNL    C19   22  -0.057   0.102   0.000
    1UNL     O2   23  -0.159   0.196   0.047
    1UNL     H1   24  -0.220  -0.280   0.122
    1UNL     H2   25  -0.361  -0.181   0.078
    1UNL     H3   26  -0.327  -0.229   0.251
    1UNL     H4   27  -0.254   0.012   0.184
    1UNL     H5   28  -0.099  -0.078   0.214
    1UNL     H6   29  -0.320   0.019  -0.056
    1UNL     H7   30  -0.269  -0.140  -0.140
    1UNL     H8   31  -0.140  -0.022  -0.291
    1UNL     H9   32  -0.299   0.039  -0.298
    1UNL    H10   33  -0.225   0.247  -0.156
    1UNL    H11   34  -0.132   0.236  -0.306
    1UNL    H12   35   0.020   0.376  -0.140
    1UNL    H13   36   0.147   0.274  -0.189
    1UNL    H14   37   0.119   0.342   0.089
    1UNL    H15   38   0.244   0.255   0.010
    1UNL    H16   39   0.027   0.164   0.192
    1UNL    H17   40   0.102   0.026   0.330
    1UNL    H18   41   0.242  -0.167   0.402
    1UNL    H19   42   0.409  -0.244   0.240
    1UNL    H20   43   0.388  -0.187  -0.002
    1UNL    H21   44   0.282   0.070  -0.144
    1UNL    H22   45  -0.020  -0.213  -0.222
    1UNL    H23   46   0.112  -0.266  -0.144
    1UNL    H24   47  -0.084  -0.257   0.003
    1UNL    H25   48   0.046  -0.157   0.061
    1UNL    H26   49  -0.117   0.287   0.035
   0.00000   0.00000   0.00000   0.00000   0.00000   0.00000   0.00000   0.00000   0.00000
Generated with MDTraj, t= 83.0
 49
    1UNL     C1    1  -0.296  -0.187   0.166
    1UNL     C2    2  -0.198  -0.069   0.141
    1UNL     C3    3  -0.135  -0.041   0.003
    1UNL     C4    4  -0.244  -0.029  -0.104
    1UNL     C5    5  -0.191   0.024  -0.245
    1UNL     C6    6  -0.121   0.163  -0.225
    1UNL     N1    7  -0.018   0.147  -0.126
    1UNL     C7    8   0.074   0.260  -0.102
    1UNL     C8    9   0.130   0.256   0.040
    1UNL     C9   10   0.054   0.126   0.107
    1UNL    C10   11   0.149   0.013   0.136
    1UNL    C11   12   0.181  -0.003   0.269
    1UNL    C12   13   0.287  -0.089   0.296
    1UNL    C13   14   0.352  -0.162   0.193
    1UNL    C14   15   0.326  -0.136   0.061
    1UNL    C15   16   0.224  -0.046   0.028
    1UNL     N2   17   0.209  -0.002  -0.108
    1UNL    C16   18   0.126  -0.056  -0.205
    1UNL     O1   19   0.135  -0.022  -0.321
    1UNL    C17   20   0.033  -0.164  -0.165
    1UNL    C18   21  -0.035  -0.159  -0.027
    1UNL    C19   22  -0.063   0.103   0.011
    1UNL     O2   23  -0.165   0.196   0.045
    1UNL     H1   24  -0.246  -0.281   0.181
    1UNL     H2   25  -0.376  -0.212   0.092
    1UNL     H3   26  -0.356  -0.173   0.264
    1UNL     H4   27  -0.245   0.028   0.164
    1UNL     H5   28  -0.112  -0.077   0.210
    1UNL     H6   29  -0.314   0.048  -0.065
    1UNL     H7   30  -0.288  -0.132  -0.109
    1UNL     H8   31  -0.120  -0.044  -0.297
    1UNL     H9   32  -0.270   0.029  -0.305
    1UNL    H10   33  -0.196   0.233  -0.181
    1UNL    H11   34  -0.097   0.209  -0.326
    1UNL    H12   35   0.013   0.351  -0.124
    1UNL    H13   36   0.159   0.272  -0.173
    1UNL    H14   37   0.102   0.348   0.088
    1UNL    H15   38   0.234   0.240   0.064
    1UNL    H16   39   0.008   0.164   0.199
    1UNL    H17   40   0.113   0.036   0.346
    1UNL    H18   41   0.297  -0.124   0.396
    1UNL    H19   42   0.434  -0.225   0.223
    1UNL    H20   43   0.388  -0.190  -0.017
    1UNL    H21   44   0.286   0.055  -0.151
    1UNL    H22   45  -0.042  -0.172  -0.241
    1UNL    H23   46   0.084  -0.257  -0.174
    1UNL    H24   47  -0.099  -0.248  -0.019
    1UNL    H25   48   0.033  -0.160   0.058
    1UNL    H26   49  -0.161   0.286   0.005
   0.00000   0.00000   0.00000   0.00000   0.00000   0.00000   0.00000   0.00000   0.00000
Generated with MDTraj, t= 84.0
 49
    1UNL     C1    1  -0.297  -0.181   0.151
    1UNL     C2    2  -0.204  -0.064   0.140
    1UNL     C3    3  -0.133  -0.040   0.004
    1UNL     C4    4  -0.248  -0.033  -0.119
    1UNL     C5    5  -0.194   0.038  -0.244
    1UNL     C6    6  -0.127   0.170  -0.226
    1UNL     N1    7  -0.017   0.154  -0.132
    1UNL     C7    8   0.074   0.264  -0.105
    1UNL     C8    9   0.113   0.259   0.046
    1UNL     C9   10   0.052   0.127   0.108
    1UNL    C10   11   0.157   0.016   0.128
    1UNL    C11   12   0.181  -0.023   0.260
    1UNL    C12   13   0.287  -0.107   0.290
    1UNL    C13   14   0.365  -0.161   0.190
    1UNL    C14   15   0.338  -0.122   0.060
    1UNL    C15   16   0.240  -0.029   0.028
    1UNL     N2   17   0.216   0.002  -0.107
    1UNL    C16   18   0.133  -0.068  -0.192
    1UNL     O1   19   0.119  -0.041  -0.311
    1UNL    C17   20   0.035  -0.180  -0.148
    1UNL    C18   21  -0.032  -0.154  -0.008
    1UNL    C19   22  -0.067   0.103   0.002
    1UNL     O2   23  -0.169   0.197   0.051
    1UNL     H1   24  -0.242  -0.273   0.135
    1UNL     H2   25  -0.381  -0.185   0.079
    1UNL     H3   26  -0.336  -0.182   0.260
    1UNL     H4   27  -0.257   0.030   0.161
    1UNL     H5   28  -0.134  -0.079   0.224
    1UNL     H6   29  -0.327   0.028  -0.070
    1UNL     H7   30  -0.288  -0.134  -0.143
    1UNL     H8   31  -0.119  -0.029  -0.295
    1UNL     H9   32  -0.279   0.055  -0.312
    1UNL    H10   33  -0.213   0.241  -0.204
    1UNL    H11   34  -0.081   0.203  -0.322
    1UNL    H12   35   0.030   0.362  -0.124
    1UNL    H13   36   0.160   0.255  -0.177
    1UNL    H14   37   0.082   0.345   0.108
    1UNL    H15   38   0.216   0.239   0.061
    1UNL    H16   39  -0.003   0.154   0.199
    1UNL    H17   40   0.115   0.016   0.333
    1UNL    H18   41   0.286  -0.145   0.392
    1UNL    H19   42   0.440  -0.234   0.214
    1UNL    H20   43   0.404  -0.144  -0.014
    1UNL    H21   44   0.291   0.054  -0.161
    1UNL    H22   45  -0.043  -0.183  -0.225
    1UNL    H23   46   0.091  -0.269  -0.151
    1UNL    H24   47  -0.085  -0.246   0.019
    1UNL    H25   48   0.048  -0.139   0.066
    1UNL    H26   49  -0.138   0.282   0.022
   0.00000   0.00000   0.00000   0.00000   0.00000   0.00000   0.00000   0.00000   0.00000
Generated with MDTraj, t= 85.0
 49
    1UNL     C1    1  -0.298  -0.180   0.139
    1UNL     C2    2  -0.199  -0.061   0.143
    1UNL     C3    3  -0.120  -0.037   0.001
    1UNL     C4    4  -0.230  -0.036  -0.115
    1UNL     C5    5  -0.196   0.030  -0.256
    1UNL     C6    6  -0.133   0.165  -0.231
    1UNL     N1    7  -0.024   0.159  -0.126
    1UNL     C7    8   0.058   0.278  -0.100
    1UNL     C8    9   0.126   0.251   0.032
    1UNL     C9   10   0.059   0.135   0.106
    1UNL    C10   11   0.159   0.031   0.132
    1UNL    C11   12   0.169  -0.027   0.256
    1UNL    C12   13   0.269  -0.119   0.292
    1UNL    C13   14   0.354  -0.165   0.192
    1UNL    C14   15   0.333  -0.125   0.059
    1UNL    C15   16   0.241  -0.025   0.026
    1UNL     N2   17   0.209   0.006  -0.113
    1UNL    C16   18   0.125  -0.068  -0.194
    1UNL     O1   19   0.115  -0.039  -0.315
    1UNL    C17   20   0.048  -0.188  -0.133
    1UNL    C18   21  -0.029  -0.156  -0.001
    1UNL    C19   22  -0.059   0.107   0.008
    1UNL     O2   23  -0.159   0.194   0.059
    1UNL     H1   24  -0.241  -0.274   0.125
    1UNL     H2   25  -0.371  -0.180   0.055
    1UNL     H3   26  -0.346  -0.180   0.243
    1UNL     H4   27  -0.254   0.029   0.174
    1UNL     H5   28  -0.126  -0.069   0.226
    1UNL     H6   29  -0.317   0.006  -0.058
    1UNL     H7   30  -0.253  -0.144  -0.127
    1UNL     H8   31  -0.115  -0.029  -0.300
    1UNL     H9   32  -0.289   0.036  -0.334
    1UNL    H10   33  -0.205   0.238  -0.189
    1UNL    H11   34  -0.104   0.200  -0.332
    1UNL    H12   35  -0.005   0.364  -0.100
    1UNL    H13   36   0.135   0.292  -0.185
    1UNL    H14   37   0.128   0.338   0.103
    1UNL    H15   38   0.223   0.223   0.006
    1UNL    H16   39   0.019   0.165   0.204
    1UNL    H17   40   0.105   0.006   0.339
    1UNL    H18   41   0.291  -0.156   0.393
    1UNL    H19   42   0.431  -0.239   0.205
    1UNL    H20   43   0.406  -0.159  -0.023
    1UNL    H21   44   0.258   0.080  -0.162
    1UNL    H22   45  -0.027  -0.206  -0.212
    1UNL    H23   46   0.119  -0.265  -0.123
    1UNL    H24   47  -0.081  -0.249   0.026
    1UNL    H25   48   0.044  -0.146   0.084
    1UNL    H26   49  -0.132   0.290   0.045
   0.00000   0.00000   0.00000   0.00000   0.00000   0.00000   0.00000   0.00000   0.00000
Generated with MDTraj, t= 86.0
 49
    1UNL     C1    1  -0.287  -0.174   0.161
    1UNL     C2    2  -0.193  -0.062   0.144
    1UNL     C3    3  -0.127  -0.041  -0.001
    1UNL     C4    4  -0.236  -0.041  -0.111
    1UNL     C5    5  -0.183   0.015  -0.245
    1UNL     C6    6  -0.128   0.154  -0.229
    1UNL     N1    7  -0.024   0.146  -0.126
    1UNL     C7    8   0.067   0.264  -0.108
    1UNL     C8    9   0.117   0.260   0.041
    1UNL     C9   10   0.059   0.130   0.105
    1UNL    C10   11   0.161   0.027   0.127
    1UNL    C11   12   0.175  -0.005   0.261
    1UNL    C12   13   0.262  -0.105   0.293
    1UNL    C13   14   0.330  -0.178   0.196
    1UNL    C14   15   0.321  -0.146   0.057
    1UNL    C15   16   0.228  -0.043   0.025
    1UNL     N2   17   0.220   0.006  -0.115
    1UNL    C16   18   0.130  -0.052  -0.204
    1UNL     O1   19   0.121  -0.016  -0.320
    1UNL    C17   20   0.049  -0.168  -0.157
    1UNL    C18   21  -0.019  -0.153  -0.016
    1UNL    C19   22  -0.063   0.104   0.016
    1UNL     O2   23  -0.167   0.201   0.061
    1UNL     H1   24  -0.232  -0.274   0.164
    1UNL     H2   25  -0.358  -0.194   0.078
    1UNL     H3   26  -0.338  -0.159   0.260
    1UNL     H4   27  -0.246   0.032   0.167
    1UNL     H5   28  -0.111  -0.048   0.217
    1UNL     H6   29  -0.324   0.021  -0.075
    1UNL     H7   30  -0.260  -0.149  -0.113
    1UNL     H8   31  -0.111  -0.047  -0.298
    1UNL     H9   32  -0.284   0.025  -0.312
    1UNL    H10   33  -0.215   0.213  -0.198
    1UNL    H11   34  -0.078   0.194  -0.317
    1UNL    H12   35   0.017   0.354  -0.136
    1UNL    H13   36   0.149   0.250  -0.186
    1UNL    H14   37   0.077   0.351   0.093
    1UNL    H15   38   0.222   0.261   0.047
    1UNL    H16   39   0.017   0.152   0.205
    1UNL    H17   40   0.123   0.046   0.340
    1UNL    H18   41   0.287  -0.118   0.396
    1UNL    H19   42   0.406  -0.248   0.225
    1UNL    H20   43   0.366  -0.205  -0.018
    1UNL    H21   44   0.291   0.066  -0.145
    1UNL    H22   45  -0.032  -0.186  -0.230
    1UNL    H23   46   0.115  -0.251  -0.156
    1UNL    H24   47  -0.073  -0.248   0.003
    1UNL    H25   48   0.044  -0.157   0.077
    1UNL    H26   49  -0.122   0.280   0.100
   0.00000   0.00000   0.00000   0.00000   0.00000   0.00000   0.00000   0.00000   0.00000
Generated with MDTraj, t= 87.0
 49
    1UNL     C1    1  -0.256  -0.194   0.162
    1UNL     C2    2  -0.175  -0.068   0.147
    1UNL     C3    3  -0.127  -0.038   0.002
    1UNL     C4    4  -0.251  -0.028  -0.101
    1UNL     C5    5  -0.218   0.034  -0.241
    1UNL     C6    6  -0.133   0.171  -0.226
    1UNL     N1    7  -0.014   0.146  -0.140
    1UNL     C7    8   0.065   0.274  -0.117
    1UNL     C8    9   0.128   0.248   0.020
    1UNL     C9   10   0.059   0.136   0.094
    1UNL    C10   11   0.149   0.018   0.132
    1UNL    C11   12   0.168  -0.022   0.265
    1UNL    C12   13   0.254  -0.118   0.305
    1UNL    C13   14   0.334  -0.171   0.206
    1UNL    C14   15   0.330  -0.126   0.072
    1UNL    C15   16   0.230  -0.036   0.035
    1UNL     N2   17   0.215   0.003  -0.100
    1UNL    C16   18   0.138  -0.058  -0.200
    1UNL     O1   19   0.134  -0.026  -0.317
    1UNL    C17   20   0.045  -0.168  -0.164
    1UNL    C18   21  -0.030  -0.159  -0.023
    1UNL    C19   22  -0.065   0.109  -0.006
    1UNL     O2   23  -0.170   0.199   0.059
    1UNL     H1   24  -0.205  -0.288   0.116
    1UNL     H2   25  -0.341  -0.191   0.090
    1UNL     H3   26  -0.282  -0.213   0.267
    1UNL     H4   27  -0.224   0.021   0.188
    1UNL     H5   28  -0.086  -0.078   0.212
    1UNL     H6   29  -0.324   0.042  -0.049
    1UNL     H7   30  -0.294  -0.129  -0.115
    1UNL     H8   31  -0.168  -0.040  -0.308
    1UNL     H9   32  -0.312   0.060  -0.285
    1UNL    H10   33  -0.188   0.254  -0.181
    1UNL    H11   34  -0.103   0.196  -0.325
    1UNL    H12   35  -0.006   0.354  -0.125
    1UNL    H13   36   0.138   0.292  -0.202
    1UNL    H14   37   0.125   0.344   0.075
    1UNL    H15   38   0.232   0.224   0.003
    1UNL    H16   39   0.012   0.177   0.184
    1UNL    H17   40   0.099   0.032   0.330
    1UNL    H18   41   0.267  -0.125   0.415
    1UNL    H19   42   0.392  -0.257   0.234
    1UNL    H20   43   0.378  -0.180  -0.007
    1UNL    H21   44   0.282   0.067  -0.135
    1UNL    H22   45  -0.031  -0.186  -0.243
    1UNL    H23   46   0.100  -0.257  -0.159
    1UNL    H24   47  -0.084  -0.250   0.009
    1UNL    H25   48   0.049  -0.160   0.053
    1UNL    H26   49  -0.128   0.283   0.068
   0.00000   0.00000   0.00000   0.00000   0.00000   0.00000   0.00000   0.00000   0.00000
Generated with MDTraj, t= 88.0
 49
    1UNL     C1    1  -0.255  -0.189   0.176
    1UNL     C2    2  -0.182  -0.058   0.147
    1UNL     C3    3  -0.135  -0.040  -0.001
    1UNL     C4    4  -0.255  -0.038  -0.104
    1UNL     C5    5  -0.236   0.043  -0.234
    1UNL     C6    6  -0.165   0.181  -0.219
    1UNL     N1    7  -0.043   0.145  -0.141
    1UNL     C7    8   0.064   0.254  -0.129
    1UNL     C8    9   0.133   0.246   0.010
    1UNL     C9   10   0.061   0.135   0.089
    1UNL    C10   11   0.161   0.024   0.129
    1UNL    C11   12   0.157  -0.021   0.263
    1UNL    C12   13   0.248  -0.123   0.305
    1UNL    C13   14   0.337  -0.181   0.210
    1UNL    C14   15   0.330  -0.137   0.081
    1UNL    C15   16   0.243  -0.042   0.032
    1UNL     N2   17   0.242  -0.005  -0.106
    1UNL    C16   18   0.149  -0.049  -0.197
    1UNL     O1   19   0.161  -0.016  -0.313
    1UNL    C17   20   0.048  -0.147  -0.160
    1UNL    C18   21  -0.027  -0.145  -0.024
    1UNL    C19   22  -0.065   0.103   0.007
    1UNL     O2   23  -0.166   0.192   0.049
    1UNL     H1   24  -0.188  -0.284   0.170
    1UNL     H2   25  -0.308  -0.212   0.078
    1UNL     H3   26  -0.315  -0.195   0.268
    1UNL     H4   27  -0.248   0.026   0.172
    1UNL     H5   28  -0.097  -0.057   0.218
    1UNL     H6   29  -0.344  -0.000  -0.047
    1UNL     H7   30  -0.265  -0.143  -0.138
    1UNL     H8   31  -0.172  -0.021  -0.299
    1UNL     H9   32  -0.319   0.053  -0.285
    1UNL    H10   33  -0.233   0.243  -0.164
    1UNL    H11   34  -0.128   0.225  -0.308
    1UNL    H12   35   0.015   0.350  -0.144
    1UNL    H13   36   0.131   0.240  -0.217
    1UNL    H14   37   0.124   0.348   0.046
    1UNL    H15   38   0.245   0.231  -0.002
    1UNL    H16   39   0.028   0.179   0.183
    1UNL    H17   40   0.115   0.046   0.337
    1UNL    H18   41   0.257  -0.159   0.404
    1UNL    H19   42   0.384  -0.275   0.237
    1UNL    H20   43   0.390  -0.200   0.009
    1UNL    H21   44   0.315   0.057  -0.144
    1UNL    H22   45  -0.027  -0.142  -0.241
    1UNL    H23   46   0.083  -0.245  -0.172
    1UNL    H24   47  -0.082  -0.241  -0.021
    1UNL    H25   48   0.043  -0.155   0.056
    1UNL    H26   49  -0.128   0.282   0.062
   0.00000   0.00000   0.00000   0.00000   0.00000   0.00000   0.00000   0.00000   0.00000
Generated with MDTraj, t= 89.0
 49
    1UNL     C1    1  -0.254  -0.197   0.177
    1UNL     C2    2  -0.164  -0.076   0.146
    1UNL     C3    3  -0.114  -0.039   0.007
    1UNL     C4    4  -0.248  -0.030  -0.084
    1UNL     C5    5  -0.224   0.026  -0.227
    1UNL     C6    6  -0.149   0.159  -0.217
    1UNL     N1    7  -0.034   0.145  -0.135
    1UNL     C7    8   0.070   0.252  -0.133
    1UNL     C8    9   0.139   0.244   0.008
    1UNL     C9   10   0.067   0.141   0.088
    1UNL    C10   11   0.155   0.026   0.118
    1UNL    C11   12   0.149  -0.011   0.252
    1UNL    C12   13   0.225  -0.113   0.308
    1UNL    C13   14   0.314  -0.172   0.219
    1UNL    C14   15   0.316  -0.147   0.087
    1UNL    C15   16   0.242  -0.043   0.033
    1UNL     N2   17   0.242  -0.011  -0.104
    1UNL    C16   18   0.140  -0.038  -0.204
    1UNL     O1   19   0.141   0.006  -0.318
    1UNL    C17   20   0.039  -0.145  -0.176
    1UNL    C18   21  -0.019  -0.151  -0.037
    1UNL    C19   22  -0.059   0.108   0.008
    1UNL     O2   23  -0.170   0.194   0.054
    1UNL     H1   24  -0.208  -0.298   0.158
    1UNL     H2   25  -0.327  -0.207   0.091
    1UNL     H3   26  -0.301  -0.209   0.277
    1UNL     H4   27  -0.221   0.011   0.183
    1UNL     H5   28  -0.074  -0.089   0.210
    1UNL     H6   29  -0.310   0.055  -0.040
    1UNL     H7   30  -0.299  -0.127  -0.081
    1UNL     H8   31  -0.165  -0.034  -0.296
    1UNL     H9   32  -0.310   0.037  -0.286
    1UNL    H10   33  -0.202   0.232  -0.159
    1UNL    H11   34  -0.135   0.198  -0.313
    1UNL    H12   35   0.018   0.348  -0.157
    1UNL    H13   36   0.137   0.232  -0.217
    1UNL    H14   37   0.142   0.342   0.053
    1UNL    H15   38   0.248   0.216  -0.019
    1UNL    H16   39   0.031   0.174   0.185
    1UNL    H17   40   0.095   0.051   0.322
    1UNL    H18   41   0.236  -0.132   0.417
    1UNL    H19   42   0.370  -0.260   0.247
    1UNL    H20   43   0.364  -0.207   0.021
    1UNL    H21   44   0.329   0.032  -0.145
    1UNL    H22   45  -0.035  -0.143  -0.256
    1UNL    H23   46   0.089  -0.231  -0.211
    1UNL    H24   47  -0.080  -0.244  -0.035
    1UNL    H25   48   0.059  -0.168   0.034
    1UNL    H26   49  -0.146   0.292   0.049
   0.00000   0.00000   0.00000   0.00000   0.00000   0.00000   0.00000   0.00000   0.00000
Generated with MDTraj, t= 90.0
 49
    1UNL     C1    1  -0.237  -0.187   0.175
    1UNL     C2    2  -0.163  -0.061   0.154
    1UNL     C3    3  -0.122  -0.045   0.008
    1UNL     C4    4  -0.255  -0.033  -0.088
    1UNL     C5    5  -0.238   0.035  -0.230
    1UNL     C6    6  -0.155   0.162  -0.217
    1UNL     N1    7  -0.026   0.145  -0.150
    1UNL     C7    8   0.062   0.265  -0.132
    1UNL     C8    9   0.126   0.250   0.006
    1UNL     C9   10   0.060   0.136   0.088
    1UNL    C10   11   0.153   0.023   0.138
    1UNL    C11   12   0.166  -0.017   0.270
    1UNL    C12   13   0.251  -0.117   0.308
    1UNL    C13   14   0.305  -0.196   0.210
    1UNL    C14   15   0.306  -0.151   0.078
    1UNL    C15   16   0.237  -0.033   0.041
    1UNL     N2   17   0.232  -0.000  -0.100
    1UNL    C16   18   0.152  -0.045  -0.198
    1UNL     O1   19   0.162  -0.006  -0.310
    1UNL    C17   20   0.046  -0.145  -0.172
    1UNL    C18   21  -0.024  -0.151  -0.036
    1UNL    C19   22  -0.063   0.103  -0.005
    1UNL     O2   23  -0.169   0.190   0.038
    1UNL     H1   24  -0.189  -0.268   0.121
    1UNL     H2   25  -0.336  -0.185   0.116
    1UNL     H3   26  -0.245  -0.219   0.282
    1UNL     H4   27  -0.221   0.024   0.197
    1UNL     H5   28  -0.065  -0.071   0.204
    1UNL     H6   29  -0.337   0.025  -0.033
    1UNL     H7   30  -0.288  -0.135  -0.111
    1UNL     H8   31  -0.193  -0.028  -0.299
    1UNL     H9   32  -0.334   0.057  -0.289
    1UNL    H10   33  -0.223   0.232  -0.173
    1UNL    H11   34  -0.125   0.203  -0.309
    1UNL    H12   35   0.005   0.363  -0.127
    1UNL    H13   36   0.126   0.279  -0.217
    1UNL    H14   37   0.128   0.346   0.057
    1UNL    H15   38   0.234   0.219  -0.017
    1UNL    H16   39   0.009   0.173   0.177
    1UNL    H17   40   0.115   0.039   0.349
    1UNL    H18   41   0.278  -0.115   0.409
    1UNL    H19   42   0.374  -0.271   0.245
    1UNL    H20   43   0.332  -0.219  -0.012
    1UNL    H21   44   0.306   0.060  -0.145
    1UNL    H22   45  -0.022  -0.129  -0.254
    1UNL    H23   46   0.081  -0.239  -0.204
    1UNL    H24   47  -0.068  -0.251  -0.028
    1UNL    H25   48   0.056  -0.149   0.037
    1UNL    H26   49  -0.141   0.285   0.032
   0.00000   0.00000   0.00000   0.00000   0.00000   0.00000   0.00000   0.00000   0.00000
Generated with MDTraj, t= 91.0
 49
    1UNL     C1    1  -0.242  -0.203   0.161
    1UNL     C2    2  -0.177  -0.063   0.147
    1UNL     C3    3  -0.126  -0.035   0.006
    1UNL     C4    4  -0.255  -0.029  -0.086
    1UNL     C5    5  -0.226   0.037  -0.230
    1UNL     C6    6  -0.150   0.167  -0.222
    1UNL     N1    7  -0.035   0.147  -0.135
    1UNL     C7    8   0.075   0.246  -0.129
    1UNL     C8    9   0.132   0.253   0.011
    1UNL     C9   10   0.064   0.138   0.097
    1UNL    C10   11   0.156   0.032   0.133
    1UNL    C11   12   0.152  -0.017   0.258
    1UNL    C12   13   0.233  -0.120   0.301
    1UNL    C13   14   0.324  -0.171   0.210
    1UNL    C14   15   0.320  -0.137   0.074
    1UNL    C15   16   0.233  -0.033   0.035
    1UNL     N2   17   0.230  -0.004  -0.106
    1UNL    C16   18   0.146  -0.049  -0.206
    1UNL     O1   19   0.162  -0.028  -0.325
    1UNL    C17   20   0.042  -0.150  -0.169
    1UNL    C18   21  -0.024  -0.144  -0.029
    1UNL    C19   22  -0.062   0.104   0.007
    1UNL     O2   23  -0.165   0.190   0.067
    1UNL     H1   24  -0.173  -0.281   0.143
    1UNL     H2   25  -0.319  -0.215   0.078
    1UNL     H3   26  -0.285  -0.215   0.265
    1UNL     H4   27  -0.246   0.020   0.171
    1UNL     H5   28  -0.094  -0.048   0.218
    1UNL     H6   29  -0.339   0.033  -0.039
    1UNL     H7   30  -0.291  -0.132  -0.103
    1UNL     H8   31  -0.172  -0.027  -0.296
    1UNL     H9   32  -0.328   0.055  -0.291
    1UNL    H10   33  -0.208   0.248  -0.181
    1UNL    H11   34  -0.125   0.196  -0.321
    1UNL    H12   35   0.027   0.344  -0.162
    1UNL    H13   36   0.154   0.232  -0.197
    1UNL    H14   37   0.104   0.354   0.056
    1UNL    H15   38   0.245   0.247   0.011
    1UNL    H16   39   0.022   0.187   0.184
    1UNL    H17   40   0.090   0.033   0.327
    1UNL    H18   41   0.239  -0.143   0.410
    1UNL    H19   42   0.400  -0.238   0.252
    1UNL    H20   43   0.379  -0.195   0.010
    1UNL    H21   44   0.309   0.052  -0.139
    1UNL    H22   45  -0.040  -0.161  -0.243
    1UNL    H23   46   0.087  -0.245  -0.174
    1UNL    H24   47  -0.090  -0.232  -0.040
    1UNL    H25   48   0.041  -0.167   0.059
    1UNL    H26   49  -0.158   0.282   0.044
   0.00000   0.00000   0.00000   0.00000   0.00000   0.00000   0.00000   0.00000   0.00000
Generated with MDTraj, t= 92.0
 49
    1UNL     C1    1  -0.260  -0.179   0.174
    1UNL     C2    2  -0.185  -0.049   0.143
    1UNL     C3    3  -0.125  -0.040  -0.004
    1UNL     C4    4  -0.247  -0.035  -0.101
    1UNL     C5    5  -0.222   0.025  -0.241
    1UNL     C6    6  -0.146   0.157  -0.220
    1UNL     N1    7  -0.024   0.143  -0.134
    1UNL     C7    8   0.058   0.262  -0.112
    1UNL     C8    9   0.136   0.254   0.019
    1UNL     C9   10   0.067   0.131   0.091
    1UNL    C10   11   0.151   0.012   0.119
    1UNL    C11   12   0.160  -0.021   0.257
    1UNL    C12   13   0.246  -0.117   0.304
    1UNL    C13   14   0.338  -0.168   0.216
    1UNL    C14   15   0.330  -0.137   0.082
    1UNL    C15   16   0.236  -0.049   0.029
    1UNL     N2   17   0.229  -0.002  -0.106
    1UNL    C16   18   0.137  -0.044  -0.202
    1UNL     O1   19   0.140  -0.004  -0.319
    1UNL    C17   20   0.048  -0.154  -0.165
    1UNL    C18   21  -0.026  -0.160  -0.029
    1UNL    C19   22  -0.058   0.099   0.001
    1UNL     O2   23  -0.169   0.190   0.059
    1UNL     H1   24  -0.197  -0.266   0.179
    1UNL     H2   25  -0.332  -0.193   0.090
    1UNL     H3   26  -0.318  -0.167   0.270
    1UNL     H4   27  -0.252   0.040   0.149
    1UNL     H5   28  -0.109  -0.015   0.216
    1UNL     H6   29  -0.322   0.027  -0.040
    1UNL     H7   30  -0.296  -0.133  -0.114
    1UNL     H8   31  -0.168  -0.049  -0.305
    1UNL     H9   32  -0.326   0.038  -0.301
    1UNL    H10   33  -0.220   0.227  -0.184
    1UNL    H11   34  -0.107   0.195  -0.312
    1UNL    H12   35   0.006   0.361  -0.124
    1UNL    H13   36   0.122   0.257  -0.195
    1UNL    H14   37   0.119   0.347   0.090
    1UNL    H15   38   0.245   0.240   0.011
    1UNL    H16   39   0.026   0.166   0.185
    1UNL    H17   40   0.104   0.042   0.328
    1UNL    H18   41   0.253  -0.146   0.403
    1UNL    H19   42   0.408  -0.245   0.237
    1UNL    H20   43   0.404  -0.167   0.011
    1UNL    H21   44   0.304   0.053  -0.138
    1UNL    H22   45  -0.037  -0.145  -0.239
    1UNL    H23   46   0.096  -0.245  -0.183
    1UNL    H24   47  -0.084  -0.251  -0.015
    1UNL    H25   48   0.037  -0.169   0.063
    1UNL    H26   49  -0.137   0.281   0.048
   0.00000   0.00000   0.00000   0.00000   0.00000   0.00000   0.00000   0.00000   0.00000
Generated with MDTraj, t= 93.0
 49
    1UNL     C1    1  -0.275  -0.186   0.139
    1UNL     C2    2  -0.197  -0.061   0.148
    1UNL     C3    3  -0.129  -0.045   0.004
    1UNL     C4    4  -0.246  -0.032  -0.096
    1UNL     C5    5  -0.205   0.029  -0.232
    1UNL     C6    6  -0.140   0.164  -0.218
    1UNL     N1    7  -0.022   0.145  -0.133
    1UNL     C7    8   0.073   0.261  -0.123
    1UNL     C8    9   0.132   0.250   0.017
    1UNL     C9   10   0.059   0.135   0.088
    1UNL    C10   11   0.159   0.025   0.128
    1UNL    C11   12   0.175  -0.014   0.265
    1UNL    C12   13   0.269  -0.107   0.306
    1UNL    C13   14   0.335  -0.178   0.202
    1UNL    C14   15   0.324  -0.136   0.071
    1UNL    C15   16   0.243  -0.034   0.034
    1UNL     N2   17   0.222   0.007  -0.105
    1UNL    C16   18   0.133  -0.053  -0.192
    1UNL     O1   19   0.117  -0.010  -0.306
    1UNL    C17   20   0.049  -0.167  -0.157
    1UNL    C18   21  -0.026  -0.152  -0.021
    1UNL    C19   22  -0.064   0.099  -0.002
    1UNL     O2   23  -0.166   0.189   0.047
    1UNL     H1   24  -0.232  -0.264   0.076
    1UNL     H2   25  -0.379  -0.161   0.114
    1UNL     H3   26  -0.281  -0.223   0.245
    1UNL     H4   27  -0.242   0.038   0.177
    1UNL     H5   28  -0.119  -0.075   0.225
    1UNL     H6   29  -0.336   0.019  -0.047
    1UNL     H7   30  -0.283  -0.135  -0.111
    1UNL     H8   31  -0.141  -0.048  -0.296
    1UNL     H9   32  -0.303   0.036  -0.296
    1UNL    H10   33  -0.202   0.239  -0.170
    1UNL    H11   34  -0.114   0.202  -0.317
    1UNL    H12   35   0.012   0.354  -0.127
    1UNL    H13   36   0.140   0.266  -0.204
    1UNL    H14   37   0.107   0.346   0.084
    1UNL    H15   38   0.239   0.230   0.029
    1UNL    H16   39   0.015   0.175   0.180
    1UNL    H17   40   0.118   0.033   0.342
    1UNL    H18   41   0.265  -0.153   0.407
    1UNL    H19   42   0.396  -0.266   0.224
    1UNL    H20   43   0.370  -0.200  -0.012
    1UNL    H21   44   0.269   0.087  -0.134
    1UNL    H22   45  -0.018  -0.183  -0.246
    1UNL    H23   46   0.116  -0.248  -0.146
    1UNL    H24   47  -0.082  -0.245  -0.011
    1UNL    H25   48   0.048  -0.168   0.064
    1UNL    H26   49  -0.129   0.283   0.035
   0.00000   0.00000   0.00000   0.00000   0.00000   0.00000   0.00000   0.00000   0.00000
Generated with MDTraj, t= 94.0
 49
    1UNL     C1    1  -0.299  -0.171   0.151
    1UNL     C2    2  -0.194  -0.059   0.145
    1UNL     C3    3  -0.119  -0.042   0.000
    1UNL     C4    4  -0.230  -0.038  -0.104
    1UNL     C5    5  -0.186   0.026  -0.234
    1UNL     C6    6  -0.139   0.170  -0.221
    1UNL     N1    7  -0.029   0.161  -0.126
    1UNL     C7    8   0.063   0.273  -0.105
    1UNL     C8    9   0.123   0.259   0.041
    1UNL     C9   10   0.062   0.132   0.097
    1UNL    C10   11   0.158   0.025   0.131
    1UNL    C11   12   0.176  -0.014   0.260
    1UNL    C12   13   0.268  -0.111   0.291
    1UNL    C13   14   0.345  -0.172   0.195
    1UNL    C14   15   0.326  -0.132   0.061
    1UNL    C15   16   0.238  -0.026   0.026
    1UNL     N2   17   0.217  -0.002  -0.113
    1UNL    C16   18   0.133  -0.065  -0.205
    1UNL     O1   19   0.141  -0.038  -0.325
    1UNL    C17   20   0.039  -0.173  -0.154
    1UNL    C18   21  -0.029  -0.158  -0.015
    1UNL    C19   22  -0.059   0.106   0.006
    1UNL     O2   23  -0.177   0.184   0.060
    1UNL     H1   24  -0.252  -0.274   0.147
    1UNL     H2   25  -0.376  -0.157   0.081
    1UNL     H3   26  -0.355  -0.158   0.248
    1UNL     H4   27  -0.245   0.036   0.179
    1UNL     H5   28  -0.110  -0.070   0.216
    1UNL     H6   29  -0.310   0.024  -0.056
    1UNL     H7   30  -0.282  -0.137  -0.109
    1UNL     H8   31  -0.092  -0.027  -0.278
    1UNL     H9   32  -0.265   0.006  -0.317
    1UNL    H10   33  -0.224   0.228  -0.189
    1UNL    H11   34  -0.094   0.217  -0.311
    1UNL    H12   35   0.001   0.361  -0.126
    1UNL    H13   36   0.144   0.261  -0.173
    1UNL    H14   37   0.109   0.351   0.112
    1UNL    H15   38   0.231   0.231   0.041
    1UNL    H16   39   0.024   0.165   0.194
    1UNL    H17   40   0.088   0.015   0.320
    1UNL    H18   41   0.284  -0.133   0.394
    1UNL    H19   42   0.411  -0.251   0.224
    1UNL    H20   43   0.377  -0.183  -0.009
    1UNL    H21   44   0.272   0.071  -0.159
    1UNL    H22   45  -0.041  -0.198  -0.225
    1UNL    H23   46   0.105  -0.258  -0.153
    1UNL    H24   47  -0.083  -0.251   0.006
    1UNL    H25   48   0.050  -0.163   0.063
    1UNL    H26   49  -0.207   0.254  -0.001
   0.00000   0.00000   0.00000   0.00000   0.00000   0.00000   0.00000   0.00000   0.00000
Generated with MDTraj, t= 95.0
 49
    1UNL     C1    1  -0.279  -0.187   0.153
    1UNL     C2    2  -0.212  -0.055   0.138
    1UNL     C3    3  -0.132  -0.040   0.003
    1UNL     C4    4  -0.236  -0.022  -0.115
    1UNL     C5    5  -0.189   0.031  -0.248
    1UNL     C6    6  -0.123   0.163  -0.221
    1UNL     N1    7  -0.014   0.154  -0.124
    1UNL     C7    8   0.073   0.275  -0.093
    1UNL     C8    9   0.123   0.260   0.049
    1UNL     C9   10   0.056   0.137   0.106
    1UNL    C10   11   0.157   0.026   0.131
    1UNL    C11   12   0.179  -0.021   0.259
    1UNL    C12   13   0.273  -0.120   0.283
    1UNL    C13   14   0.353  -0.169   0.182
    1UNL    C14   15   0.338  -0.123   0.053
    1UNL    C15   16   0.229  -0.028   0.029
    1UNL     N2   17   0.207   0.012  -0.108
    1UNL    C16   18   0.124  -0.066  -0.193
    1UNL     O1   19   0.120  -0.049  -0.313
    1UNL    C17   20   0.039  -0.184  -0.140
    1UNL    C18   21  -0.027  -0.157  -0.006
    1UNL    C19   22  -0.064   0.100   0.005
    1UNL     O2   23  -0.174   0.193   0.026
    1UNL     H1   24  -0.211  -0.275   0.181
    1UNL     H2   25  -0.335  -0.212   0.069
    1UNL     H3   26  -0.363  -0.182   0.228
    1UNL     H4   27  -0.299   0.016   0.143
    1UNL     H5   28  -0.146  -0.032   0.225
    1UNL     H6   29  -0.317   0.046  -0.077
    1UNL     H7   30  -0.288  -0.119  -0.126
    1UNL     H8   31  -0.121  -0.044  -0.300
    1UNL     H9   32  -0.278   0.042  -0.323
    1UNL    H10   33  -0.198   0.225  -0.173
    1UNL    H11   34  -0.093   0.215  -0.316
    1UNL    H12   35   0.002   0.357  -0.093
    1UNL    H13   36   0.146   0.292  -0.170
    1UNL    H14   37   0.103   0.350   0.116
    1UNL    H15   38   0.236   0.241   0.048
    1UNL    H16   39   0.009   0.156   0.203
    1UNL    H17   40   0.129   0.024   0.341
    1UNL    H18   41   0.283  -0.154   0.387
    1UNL    H19   42   0.444  -0.217   0.217
    1UNL    H20   43   0.418  -0.147  -0.025
    1UNL    H21   44   0.285   0.061  -0.161
    1UNL    H22   45  -0.036  -0.199  -0.210
    1UNL    H23   46   0.094  -0.279  -0.143
    1UNL    H24   47  -0.070  -0.252   0.027
    1UNL    H25   48   0.040  -0.131   0.076
    1UNL    H26   49  -0.168   0.226   0.115
   0.00000   0.00000   0.00000   0.00000   0.00000   0.00000   0.00000   0.00000   0.00000
Generated with MDTraj, t= 96.0
 49
    1UNL     C1    1  -0.277  -0.194   0.146
    1UNL     C2    2  -0.215  -0.057   0.126
    1UNL     C3    3  -0.134  -0.038  -0.001
    1UNL     C4    4  -0.237  -0.034  -0.115
    1UNL     C5    5  -0.188   0.029  -0.247
    1UNL     C6    6  -0.126   0.168  -0.215
    1UNL     N1    7  -0.010   0.154  -0.131
    1UNL     C7    8   0.082   0.269  -0.103
    1UNL     C8    9   0.120   0.254   0.047
    1UNL     C9   10   0.050   0.131   0.106
    1UNL    C10   11   0.156   0.026   0.136
    1UNL    C11   12   0.180  -0.014   0.265
    1UNL    C12   13   0.281  -0.106   0.291
    1UNL    C13   14   0.356  -0.161   0.189
    1UNL    C14   15   0.328  -0.127   0.063
    1UNL    C15   16   0.235  -0.033   0.029
    1UNL     N2   17   0.217  -0.006  -0.112
    1UNL    C16   18   0.121  -0.067  -0.201
    1UNL     O1   19   0.106  -0.032  -0.315
    1UNL    C17   20   0.037  -0.178  -0.141
    1UNL    C18   21  -0.030  -0.153  -0.007
    1UNL    C19   22  -0.066   0.105   0.003
    1UNL     O2   23  -0.168   0.200   0.043
    1UNL     H1   24  -0.214  -0.286   0.130
    1UNL     H2   25  -0.372  -0.213   0.100
    1UNL     H3   26  -0.317  -0.206   0.250
    1UNL     H4   27  -0.287   0.028   0.142
    1UNL     H5   28  -0.143  -0.058   0.210
    1UNL     H6   29  -0.321   0.025  -0.075
    1UNL     H7   30  -0.286  -0.132  -0.143
    1UNL     H8   31  -0.115  -0.036  -0.291
    1UNL     H9   32  -0.281   0.028  -0.316
    1UNL    H10   33  -0.195   0.239  -0.169
    1UNL    H11   34  -0.088   0.215  -0.311
    1UNL    H12   35   0.035   0.362  -0.116
    1UNL    H13   36   0.161   0.262  -0.179
    1UNL    H14   37   0.089   0.343   0.107
    1UNL    H15   38   0.238   0.250   0.046
    1UNL    H16   39   0.006   0.136   0.206
    1UNL    H17   40   0.124   0.022   0.354
    1UNL    H18   41   0.300  -0.131   0.394
    1UNL    H19   42   0.432  -0.236   0.211
    1UNL    H20   43   0.391  -0.147  -0.021
    1UNL    H21   44   0.286   0.053  -0.165
    1UNL    H22   45  -0.028  -0.211  -0.211
    1UNL    H23   46   0.104  -0.265  -0.125
    1UNL    H24   47  -0.087  -0.243   0.018
    1UNL    H25   48   0.037  -0.127   0.070
    1UNL    H26   49  -0.177   0.211   0.140
   0.00000   0.00000   0.00000   0.00000   0.00000   0.00000   0.00000   0.00000   0.00000
Generated with MDTraj, t= 97.0
 49
    1UNL     C1    1  -0.311  -0.161   0.145
    1UNL     C2    2  -0.188  -0.059   0.141
    1UNL     C3    3  -0.128  -0.040   0.002
    1UNL     C4    4  -0.243  -0.042  -0.100
    1UNL     C5    5  -0.203   0.019  -0.239
    1UNL     C6    6  -0.140   0.158  -0.221
    1UNL     N1    7  -0.029   0.150  -0.130
    1UNL     C7    8   0.051   0.271  -0.097
    1UNL     C8    9   0.130   0.256   0.036
    1UNL     C9   10   0.062   0.132   0.104
    1UNL    C10   11   0.156   0.020   0.132
    1UNL    C11   12   0.175  -0.011   0.266
    1UNL    C12   13   0.282  -0.097   0.300
    1UNL    C13   14   0.351  -0.165   0.201
    1UNL    C14   15   0.328  -0.136   0.072
    1UNL    C15   16   0.234  -0.040   0.031
    1UNL     N2   17   0.218  -0.007  -0.109
    1UNL    C16   18   0.140  -0.061  -0.211
    1UNL     O1   19   0.142  -0.022  -0.324
    1UNL    C17   20   0.041  -0.170  -0.169
    1UNL    C18   21  -0.026  -0.157  -0.033
    1UNL    C19   22  -0.056   0.102   0.008
    1UNL     O2   23  -0.165   0.190   0.057
    1UNL     H1   24  -0.274  -0.263   0.130
    1UNL     H2   25  -0.391  -0.137   0.071
    1UNL     H3   26  -0.369  -0.160   0.239
    1UNL     H4   27  -0.231   0.037   0.182
    1UNL     H5   28  -0.109  -0.095   0.210
    1UNL     H6   29  -0.326   0.019  -0.064
    1UNL     H7   30  -0.284  -0.146  -0.115
    1UNL     H8   31  -0.144  -0.056  -0.287
    1UNL     H9   32  -0.297   0.028  -0.304
    1UNL    H10   33  -0.212   0.233  -0.185
    1UNL    H11   34  -0.101   0.198  -0.319
    1UNL    H12   35  -0.016   0.351  -0.099
    1UNL    H13   36   0.121   0.291  -0.179
    1UNL    H14   37   0.121   0.356   0.084
    1UNL    H15   38   0.246   0.241   0.017
    1UNL    H16   39   0.031   0.173   0.200
    1UNL    H17   40   0.106   0.022   0.341
    1UNL    H18   41   0.303  -0.121   0.403
    1UNL    H19   42   0.419  -0.243   0.230
    1UNL    H20   43   0.391  -0.177  -0.004
    1UNL    H21   44   0.276   0.068  -0.145
    1UNL    H22   45  -0.028  -0.189  -0.247
    1UNL    H23   46   0.096  -0.266  -0.167
    1UNL    H24   47  -0.085  -0.249  -0.013
    1UNL    H25   48   0.058  -0.151   0.032
    1UNL    H26   49  -0.146   0.242   0.141
   0.00000   0.00000   0.00000   0.00000   0.00000   0.00000   0.00000   0.00000   0.00000
Generated with MDTraj, t= 98.0
 49
    1UNL     C1    1  -0.280  -0.184   0.155
    1UNL     C2    2  -0.182  -0.067   0.140
    1UNL     C3    3  -0.126  -0.047   0.003
    1UNL     C4    4  -0.246  -0.034  -0.104
    1UNL     C5    5  -0.228   0.037  -0.236
    1UNL     C6    6  -0.147   0.165  -0.218
    1UNL     N1    7  -0.028   0.147  -0.134
    1UNL     C7    8   0.081   0.255  -0.123
    1UNL     C8    9   0.128   0.259   0.020
    1UNL     C9   10   0.061   0.138   0.094
    1UNL    C10   11   0.165   0.026   0.129
    1UNL    C11   12   0.170  -0.023   0.259
    1UNL    C12   13   0.252  -0.123   0.302
    1UNL    C13   14   0.340  -0.171   0.208
    1UNL    C14   15   0.334  -0.130   0.075
    1UNL    C15   16   0.243  -0.030   0.030
    1UNL     N2   17   0.221   0.013  -0.104
    1UNL    C16   18   0.138  -0.055  -0.196
    1UNL     O1   19   0.133  -0.022  -0.313
    1UNL    C17   20   0.052  -0.175  -0.156
    1UNL    C18   21  -0.020  -0.159  -0.026
    1UNL    C19   22  -0.067   0.106   0.009
    1UNL     O2   23  -0.173   0.198   0.054
    1UNL     H1   24  -0.243  -0.270   0.105
    1UNL     H2   25  -0.379  -0.148   0.108
    1UNL     H3   26  -0.304  -0.208   0.260
    1UNL     H4   27  -0.243   0.026   0.166
    1UNL     H5   28  -0.093  -0.072   0.208
    1UNL     H6   29  -0.333   0.012  -0.058
    1UNL     H7   30  -0.277  -0.140  -0.121
    1UNL     H8   31  -0.180  -0.025  -0.313
    1UNL     H9   32  -0.330   0.052  -0.277
    1UNL    H10   33  -0.210   0.244  -0.172
    1UNL    H11   34  -0.123   0.208  -0.320
    1UNL    H12   35   0.046   0.347  -0.153
    1UNL    H13   36   0.165   0.241  -0.194
    1UNL    H14   37   0.102   0.361   0.060
    1UNL    H15   38   0.242   0.245   0.031
    1UNL    H16   39   0.009   0.174   0.183
    1UNL    H17   40   0.093   0.018   0.324
    1UNL    H18   41   0.227  -0.183   0.390
    1UNL    H19   42   0.421  -0.239   0.236
    1UNL    H20   43   0.394  -0.191   0.001
    1UNL    H21   44   0.282   0.079  -0.141
    1UNL    H22   45  -0.031  -0.178  -0.239
    1UNL    H23   46   0.107  -0.268  -0.174
    1UNL    H24   47  -0.074  -0.252  -0.006
    1UNL    H25   48   0.057  -0.155   0.051
    1UNL    H26   49  -0.120   0.277   0.085
   0.00000   0.00000   0.00000   0.00000   0.00000   0.00000   0.00000   0.00000   0.00000
Generated with MDTraj, t= 99.0
 49
    1UNL     C1    1  -0.230  -0.199   0.194
    1UNL     C2    2  -0.191  -0.061   0.147
    1UNL     C3    3  -0.127  -0.034   0.005
    1UNL     C4    4  -0.249  -0.038  -0.106
    1UNL     C5    5  -0.217   0.025  -0.243
    1UNL     C6    6  -0.137   0.161  -0.233
    1UNL     N1    7  -0.029   0.157  -0.136
    1UNL     C7    8   0.060   0.272  -0.124
    1UNL     C8    9   0.136   0.249   0.011
    1UNL     C9   10   0.064   0.133   0.090
    1UNL    C10   11   0.150   0.019   0.127
    1UNL    C11   12   0.158  -0.025   0.260
    1UNL    C12   13   0.240  -0.125   0.300
    1UNL    C13   14   0.323  -0.187   0.209
    1UNL    C14   15   0.327  -0.143   0.075
    1UNL    C15   16   0.242  -0.042   0.036
    1UNL     N2   17   0.230  -0.005  -0.103
    1UNL    C16   18   0.138  -0.046  -0.200
    1UNL     O1   19   0.133  -0.000  -0.315
    1UNL    C17   20   0.052  -0.158  -0.159
    1UNL    C18   21  -0.030  -0.141  -0.029
    1UNL    C19   22  -0.066   0.117   0.004
    1UNL     O2   23  -0.170   0.199   0.052
    1UNL     H1   24  -0.148  -0.265   0.206
    1UNL     H2   25  -0.299  -0.248   0.115
    1UNL     H3   26  -0.289  -0.209   0.286
    1UNL     H4   27  -0.264   0.023   0.160
    1UNL     H5   28  -0.105  -0.025   0.211
    1UNL     H6   29  -0.336   0.012  -0.066
    1UNL     H7   30  -0.284  -0.144  -0.114
    1UNL     H8   31  -0.151  -0.047  -0.292
    1UNL     H9   32  -0.295   0.028  -0.315
    1UNL    H10   33  -0.209   0.245  -0.215
    1UNL    H11   34  -0.091   0.181  -0.333
    1UNL    H12   35   0.015   0.365  -0.128
    1UNL    H13   36   0.118   0.263  -0.219
    1UNL    H14   37   0.137   0.335   0.086
    1UNL    H15   38   0.239   0.220  -0.014
    1UNL    H16   39   0.030   0.176   0.187
    1UNL    H17   40   0.084   0.012   0.330
    1UNL    H18   41   0.251  -0.155   0.402
    1UNL    H19   42   0.374  -0.275   0.239
    1UNL    H20   43   0.395  -0.180   0.009
    1UNL    H21   44   0.286   0.073  -0.129
    1UNL    H22   45  -0.019  -0.192  -0.247
    1UNL    H23   46   0.116  -0.246  -0.150
    1UNL    H24   47  -0.083  -0.237  -0.018
    1UNL    H25   48   0.044  -0.156   0.053
    1UNL    H26   49  -0.142   0.290   0.047
   0.00000   0.00000   0.00000   0.00000   0.00000   0.00000   0.00000   0.00000   0.00000
