[ moleculetype ]
; name        nrexcl
res           1

[ atoms ]
;    nr  type  resnr resid  atom  cgnr     charge       mass
      1 C1        1 res   C1        1      0.000     72.000
      2 C1        1 res   C2        2      0.000     72.000
      3 SC2       1 res   C3        3      0.000     54.000
      4 C1        1 res   C4        4      0.000     72.000
      5 C1        1 res   C5        5      0.000     72.000
      6 SN4a      1 res   C6        6      0.000     54.000
      7 C1        1 res   C7        7      0.000     72.000

[ constraints ]
;  ai    aj   funct      b0(nm)
    1     2     1      0.50745
    2     3     1      0.41597
    3     4     1      0.45574
    6     7     1      0.39492
    3     6     1      0.37538

[ bonds ]
;  ai    aj   funct      b0(nm)          k(kJ/mol/nm^2)
    4     5     1      0.43374           8251.3

[ angles ]
;  ai    aj    ak  funct     th0(deg)        k(kJ/mol/rad^2)
    1     2     3     1    158.14966           349.77
    2     3     4     1    143.84269           600.88
    2     3     6     1     71.26033           714.88
    3     4     5     1    119.08934           125.27
    3     6     7     1    137.33730            30.96
    4     3     6     1     79.14182           458.27

[ dihedrals ]
;  ai    aj    ak    al  funct   phi0(deg)        k(kJ/mol)   mult
    1     2     3     4     1     24.77750       29.000      1
    1     2     3     6     1     63.80354       29.530      1
    2     3     4     5     1     74.06431       30.045      1
    2     3     6     7     1   -176.77092       22.002      1
    4     3     6     7     1    -16.88311       25.063      1
    5     4     3     6     1     43.13905       28.217      1
