1Ester_branched_long_sat
7
    1res  C1    1   -0.680  -0.300  -0.060
    1res  C2    2   -0.390  -0.003   0.039
    1res  C3    3    0.026  -0.093   0.009
    1res  C4    4    0.425  -0.052  -0.087
    1res  C5    5    0.729  -0.364  -0.020
    1res  C6    6    0.054   0.287   0.050
    1res  C7    7   -0.122   0.640   0.096
  10.00000  10.00000  10.00000
