1TPCN04956
23
    1res  C1    1    0.979   0.119   0.044
    1res  C2    2    0.760   0.080  -0.190
    1res  C3    3    0.659  -0.087  -0.143
    1res  C4    4    0.490  -0.201  -0.242
    1res  C5    5    0.360  -0.148  -0.041
    1res  C6    6    0.049  -0.106  -0.148
    1res  C7    7   -0.136   0.023  -0.002
    1res  C8    8   -0.179  -0.100   0.275
    1res  C9    9   -0.334  -0.280   0.151
    1res  C10   10   -0.406  -0.153  -0.152
    1res  C11   11   -0.590  -0.162   0.095
    1res  C12   12   -0.656   0.111  -0.021
    1res  C13   13   -0.891   0.222  -0.128
    1res  C14   14   -0.723   0.356   0.076
    1res  C15   15   -0.399   0.370  -0.007
    1res  C16   16   -0.522   0.084   0.269
    1res  C17   17    0.129  -0.248   0.143
    1res  C18   18    0.535  -0.204   0.096
    1res  C19   19    0.640  -0.396   0.235
    1res  C20   20    0.762  -0.240   0.008
    1res  C21   21    0.593   0.272  -0.131
    1res  C22   22    0.790   0.417  -0.188
    1res  C23   23    0.875   0.350   0.006
  10.00000  10.00000  10.00000
