[ moleculetype ]
; name        nrexcl
res           1

[ atoms ]
;    nr  type  resnr resid  atom  cgnr     charge       mass
      1 TX3       1 res   C1        1      0.000     36.000
      2 TC5       1 res   C2        2      0.000     36.000
      3 SX3       1 res   C3        3      0.000     54.000
      4 TX2       1 res   C4        4      0.000     36.000

[ constraints ]
;  ai    aj   funct      b0(nm)
    1     2     1      0.27718
    2     3     1      0.30609
    1     4     1      0.22981
    3     4     1      0.28810

[ bonds ]
;  ai    aj   funct      b0(nm)          k(kJ/mol/nm^2)

[ angles ]
;  ai    aj    ak  funct     th0(deg)        k(kJ/mol/rad^2)
    1     2     3     1     83.13392          3775.29
    1     4     3     1     96.24821          1898.16
    2     1     4     1     98.69796          1756.77
    2     3     4     1     80.93030          2670.87

[ dihedrals ]
;  ai    aj    ak    al  funct   phi0(deg)        k(kJ/mol)   mult
    1     2     3     4     1    179.06839       10.080      1
    1     4     3     2     1   -179.06437       11.562      1
    2     1     4     3     1    179.03037       12.975      1
    3     2     1     4     1   -178.11926       12.264      1
