1TPCN06050
38
    1res  C1    1    0.242  -0.448  -0.226
    1res  C2    2    0.029  -0.246  -0.188
    1res  C3    3    0.272  -0.219  -0.066
    1res  C4    4   -0.028  -0.152   0.107
    1res  C5    5   -0.333  -0.080   0.200
    1res  C6    6   -0.572   0.079   0.155
    1res  C7    7   -0.781   0.069  -0.087
    1res  C8    8   -1.036   0.141  -0.055
    1res  C9    9   -1.029   0.430  -0.031
    1res  C10   10   -0.901   0.670   0.070
    1res  C11   11   -1.213   0.590   0.161
    1res  C12   12   -1.324   0.383   0.105
    1res  C13   13   -1.256   0.395  -0.116
    1res  C14   14   -0.957  -0.084  -0.209
    1res  C15   15   -0.744  -0.083  -0.321
    1res  C16   16   -0.564   0.003  -0.225
    1res  C17   17   -0.599  -0.208   0.187
    1res  C18   18   -0.411  -0.348   0.236
    1res  C19   19   -0.613  -0.495   0.140
    1res  C20   20   -0.892  -0.558   0.276
    1res  C21   21   -0.718  -0.766   0.201
    1res  C22   22   -0.639  -0.715  -0.063
    1res  C23   23   -0.417  -0.624   0.005
    1res  C24   24   -0.252  -0.309   0.048
    1res  C25   25    0.170   0.092  -0.072
    1res  C26   26    0.328   0.081   0.146
    1res  C27   27    0.556  -0.145   0.165
    1res  C28   28    0.561   0.045  -0.064
    1res  C29   29    0.814   0.053  -0.031
    1res  C30   30    0.949   0.131   0.177
    1res  C31   31    1.199   0.283  -0.007
    1res  C32   32    1.352   0.079  -0.075
    1res  C33   33    1.548   0.154  -0.009
    1res  C34   34    1.496   0.382  -0.131
    1res  C35   35    1.342   0.434   0.058
    1res  C36   36    0.887   0.422   0.130
    1res  C37   37    0.969   0.458  -0.154
    1res  C38   38    0.566   0.317  -0.020
  10.00000  10.00000  10.00000
