[ moleculetype ]
; name        nrexcl
res           1

[ atoms ]
;    nr  type resnr resid  atom  cgnr     charge       mass
      1 SC4       1 res   C1        1      0.000     54.000
      2 SC3       1 res   C2        2      0.000     54.000
      3 SC4       1 res   C3        3      0.000     54.000
      4 TN6       1 res   C4        4      0.000     36.000
      5 SN4a      1 res   C5        5      0.000     54.000
      6 TP1       1 res   C6        6      0.000     36.000
      7 TN6       1 res   C7        7      0.000     36.000
      8 TN6       1 res   C8        8      0.000     36.000
      9 TN6       1 res   C9        9      0.000     36.000
     10 TC5       1 res   C10      10      0.000     36.000
     11 TN4a      1 res   C11      11      0.000     36.000
     12 TN6       1 res   C12      12      0.000     36.000
     13 TN4a      1 res   C13      13      0.000     36.000

[ bonds ]
;  ai    aj   funct      b0(nm)        k
    1     2     1      0.32284    20000
    1     3     1      0.34725    20000
    2     3     1      0.33279    20000
    3     4     1      0.35098    20000
    3    12     1      0.32627    20000
    4     5     1      0.26899    20000
    4    10     1      0.22305    20000
    5     6     1      0.28352    20000
    5     7     1      0.30527    20000
    5     9     1      0.25329    20000
    7     8     1      0.26249    20000
    8     9     1      0.26854    20000
   10    11     1      0.23836    20000
   10    12     1      0.30554    20000
   12    13     1      0.23391    20000
