1TPCN04236
29
    1res  C1    1   -0.386  -0.575  -0.103
    1res  C2    2   -0.309  -0.477   0.161
    1res  C3    3   -0.191  -0.328   0.075
    1res  C4    4   -0.097  -0.140  -0.038
    1res  C5    5    0.090   0.060  -0.064
    1res  C6    6    0.382   0.030  -0.031
    1res  C7    7    0.684   0.101   0.092
    1res  C8    8    0.762  -0.048   0.262
    1res  C9    9    0.895   0.040  -0.000
    1res  C10   10    1.092  -0.022  -0.068
    1res  C11   11    1.292   0.201  -0.184
    1res  C12   12    1.429   0.053  -0.044
    1res  C13   13    1.356  -0.116   0.111
    1res  C14   14    1.147  -0.094   0.141
    1res  C15   15    0.826   0.174  -0.184
    1res  C16   16    0.625   0.082  -0.204
    1res  C17   17    0.236   0.215  -0.187
    1res  C18   18    0.032   0.359  -0.150
    1res  C19   19   -0.077   0.236   0.006
    1res  C20   20   -0.258  -0.083   0.236
    1res  C21   21   -0.493  -0.178   0.211
    1res  C22   22   -0.672  -0.207  -0.054
    1res  C23   23   -0.656   0.028   0.253
    1res  C24   24   -0.818   0.167   0.069
    1res  C25   25   -1.011   0.078  -0.069
    1res  C26   26   -0.946   0.221  -0.260
    1res  C27   27   -0.729   0.358  -0.252
    1res  C28   28   -0.826   0.437  -0.009
    1res  C29   29   -0.525   0.193   0.018
  10.00000  10.00000  10.00000
