1TPCN04627
43
    1res  C1    1   -1.102   0.442   0.171
    1res  C2    2   -0.875   0.513   0.096
    1res  C3    3   -0.707   0.409   0.100
    1res  C4    4   -0.520   0.320   0.188
    1res  C5    5   -0.538   0.462   0.372
    1res  C6    6   -0.368   0.221   0.046
    1res  C7    7   -0.094   0.121  -0.144
    1res  C8    8   -0.035  -0.068  -0.004
    1res  C9    9    0.052  -0.111   0.244
    1res  C10   10    0.295  -0.064   0.102
    1res  C11   11    0.268  -0.186  -0.202
    1res  C12   12    0.207  -0.393   0.018
    1res  C13   13    0.541  -0.412  -0.109
    1res  C14   14    0.724  -0.561  -0.258
    1res  C15   15    0.721  -0.581   0.034
    1res  C16   16    0.663  -0.298   0.154
    1res  C17   17    0.959  -0.212   0.046
    1res  C18   18    1.126  -0.081  -0.153
    1res  C19   19    1.087   0.245  -0.080
    1res  C20   20    0.946   0.508  -0.137
    1res  C21   21    1.237   0.468  -0.110
    1res  C22   22    1.285   0.354  -0.309
    1res  C23   23    1.267   0.142  -0.263
    1res  C24   24    1.138  -0.098   0.176
    1res  C25   25    0.974   0.092   0.186
    1res  C26   26    0.793  -0.065   0.257
    1res  C27   27    0.384  -0.440   0.223
    1res  C28   28   -0.034   0.307   0.092
    1res  C29   29   -0.193   0.166   0.268
    1res  C30   30   -0.540   0.181  -0.069
    1res  C31   31   -0.657   0.031  -0.152
    1res  C32   32   -0.975   0.082  -0.119
    1res  C33   33   -0.905  -0.040   0.122
    1res  C34   34   -0.807  -0.200   0.011
    1res  C35   35   -1.051  -0.382   0.052
    1res  C36   36   -1.193  -0.595  -0.055
    1res  C37   37   -1.108  -0.524  -0.251
    1res  C38   38   -0.873  -0.510  -0.162
    1res  C39   39   -0.621  -0.168  -0.091
    1res  C40   40   -0.606   0.394  -0.121
    1res  C41   41   -0.800   0.733   0.029
    1res  C42   42   -1.036   0.704  -0.078
    1res  C43   43   -1.093   0.724   0.181
  10.00000  10.00000  10.00000
