Generated with MDTraj, t= 0.0
 57
    1UNL     C1    1   0.433  -0.023  -0.268
    1UNL     O1    2   0.362  -0.040  -0.150
    1UNL     C2    3   0.263   0.054  -0.142
    1UNL     O2    4   0.243   0.135  -0.230
    1UNL     N1    5   0.180   0.050  -0.029
    1UNL     C3    6   0.186  -0.042   0.082
    1UNL     C4    7   0.296  -0.083   0.160
    1UNL     O3    8   0.423  -0.039   0.123
    1UNL     C5    9   0.528  -0.085   0.204
    1UNL     C6   10   0.268  -0.162   0.271
    1UNL     C7   11   0.138  -0.196   0.306
    1UNL     C8   12   0.031  -0.153   0.231
    1UNL     C9   13   0.055  -0.075   0.120
    1UNL    C10   14  -0.039  -0.018   0.015
    1UNL    C11   15  -0.072  -0.135  -0.085
    1UNL    C12   16  -0.187  -0.211  -0.012
    1UNL     N2   17  -0.256  -0.108   0.073
    1UNL    C13   18  -0.405  -0.101   0.062
    1UNL    C14   19  -0.457   0.044   0.071
    1UNL    C15   20  -0.394   0.137  -0.037
    1UNL    C16   21  -0.249   0.095  -0.077
    1UNL    C17   22  -0.161   0.217  -0.121
    1UNL    C18   23  -0.015   0.177  -0.153
    1UNL    C19   24   0.044   0.110  -0.028
    1UNL    C20   25   0.045   0.216   0.083
    1UNL     O4   26  -0.019   0.202   0.184
    1UNL     O5   27   0.120   0.325   0.058
    1UNL    C21   28  -0.255  -0.002  -0.199
    1UNL    C22   29  -0.128  -0.081  -0.214
    1UNL     O6   30  -0.075  -0.098  -0.321
    1UNL    C23   31  -0.184   0.024   0.050
    1UNL     H1   32   0.515  -0.095  -0.271
    1UNL     H2   33   0.365  -0.039  -0.352
    1UNL     H3   34   0.472   0.079  -0.272
    1UNL     H4   35   0.622  -0.046   0.164
    1UNL     H5   36   0.515  -0.049   0.306
    1UNL     H6   37   0.531  -0.194   0.201
    1UNL     H7   38   0.349  -0.196   0.333
    1UNL     H8   39   0.121  -0.256   0.393
    1UNL     H9   40  -0.070  -0.177   0.258
    1UNL    H10   41   0.016  -0.198  -0.105
    1UNL    H11   42  -0.148  -0.290   0.053
    1UNL    H12   43  -0.257  -0.256  -0.082
    1UNL    H13   44  -0.447  -0.162   0.143
    1UNL    H14   45  -0.438  -0.148  -0.031
    1UNL    H15   46  -0.434   0.083   0.170
    1UNL    H16   47  -0.566   0.045   0.063
    1UNL    H17   48  -0.393   0.240  -0.002
    1UNL    H18   49  -0.457   0.137  -0.127
    1UNL    H19   50  -0.208   0.266  -0.207
    1UNL    H20   51  -0.162   0.292  -0.041
    1UNL    H21   52  -0.008   0.110  -0.239
    1UNL    H22   53   0.047   0.264  -0.177
    1UNL    H23   54   0.114   0.382   0.137
    1UNL    H24   55  -0.340  -0.069  -0.193
    1UNL    H25   56  -0.270   0.056  -0.291
    1UNL    H26   57  -0.188   0.086   0.140
   0.00000   0.00000   0.00000   0.00000   0.00000   0.00000   0.00000   0.00000   0.00000
Generated with MDTraj, t= 1.0
 57
    1UNL     C1    1   0.413  -0.098  -0.243
    1UNL     O1    2   0.344  -0.072  -0.122
    1UNL     C2    3   0.259   0.033  -0.136
    1UNL     O2    4   0.244   0.094  -0.241
    1UNL     N1    5   0.177   0.058  -0.024
    1UNL     C3    6   0.181  -0.032   0.082
    1UNL     C4    7   0.294  -0.077   0.151
    1UNL     O3    8   0.416  -0.009   0.130
    1UNL     C5    9   0.531  -0.063   0.201
    1UNL     C6   10   0.276  -0.168   0.250
    1UNL     C7   11   0.148  -0.206   0.289
    1UNL     C8   12   0.037  -0.161   0.224
    1UNL     C9   13   0.052  -0.073   0.119
    1UNL    C10   14  -0.037  -0.005   0.015
    1UNL    C11   15  -0.063  -0.119  -0.097
    1UNL    C12   16  -0.175  -0.207  -0.033
    1UNL     N2   17  -0.249  -0.115   0.061
    1UNL    C13   18  -0.395  -0.133   0.053
    1UNL    C14   19  -0.474   0.009   0.060
    1UNL    C15   20  -0.409   0.126  -0.018
    1UNL    C16   21  -0.256   0.098  -0.071
    1UNL    C17   22  -0.174   0.225  -0.102
    1UNL    C18   23  -0.024   0.196  -0.147
    1UNL    C19   24   0.045   0.128  -0.023
    1UNL    C20   25   0.057   0.244   0.088
    1UNL     O4   26  -0.007   0.239   0.192
    1UNL     O5   27   0.132   0.344   0.053
    1UNL    C21   28  -0.255   0.003  -0.194
    1UNL    C22   29  -0.122  -0.060  -0.222
    1UNL     O6   30  -0.066  -0.075  -0.329
    1UNL    C23   31  -0.178   0.024   0.055
    1UNL     H1   32   0.462  -0.194  -0.242
    1UNL     H2   33   0.350  -0.079  -0.333
    1UNL     H3   34   0.490  -0.023  -0.235
    1UNL     H4   35   0.624   0.006   0.200
    1UNL     H5   36   0.506  -0.075   0.302
    1UNL     H6   37   0.561  -0.161   0.163
    1UNL     H7   38   0.363  -0.224   0.298
    1UNL     H8   39   0.143  -0.303   0.340
    1UNL     H9   40  -0.059  -0.179   0.267
    1UNL    H10   41   0.024  -0.173  -0.113
    1UNL    H11   42  -0.124  -0.297  -0.002
    1UNL    H12   43  -0.249  -0.242  -0.101
    1UNL    H13   44  -0.425  -0.189   0.138
    1UNL    H14   45  -0.426  -0.186  -0.037
    1UNL    H15   46  -0.476   0.035   0.167
    1UNL    H16   47  -0.577  -0.008   0.031
    1UNL    H17   48  -0.408   0.216   0.050
    1UNL    H18   49  -0.475   0.159  -0.105
    1UNL    H19   50  -0.225   0.284  -0.175
    1UNL    H20   51  -0.185   0.285  -0.009
    1UNL    H21   52  -0.037   0.139  -0.240
    1UNL    H22   53   0.042   0.280  -0.172
    1UNL    H23   54   0.129   0.406   0.133
    1UNL    H24   55  -0.329  -0.067  -0.198
    1UNL    H25   56  -0.288   0.061  -0.278
    1UNL    H26   57  -0.186   0.084   0.145
   0.00000   0.00000   0.00000   0.00000   0.00000   0.00000   0.00000   0.00000   0.00000
Generated with MDTraj, t= 2.0
 57
    1UNL     C1    1   0.354  -0.120  -0.271
    1UNL     O1    2   0.293  -0.093  -0.147
    1UNL     C2    3   0.239   0.027  -0.146
    1UNL     O2    4   0.230   0.101  -0.243
    1UNL     N1    5   0.181   0.066  -0.023
    1UNL     C3    6   0.200  -0.019   0.090
    1UNL     C4    7   0.310  -0.063   0.164
    1UNL     O3    8   0.432   0.002   0.150
    1UNL     C5    9   0.533  -0.056   0.219
    1UNL     C6   10   0.280  -0.146   0.270
    1UNL     C7   11   0.150  -0.195   0.297
    1UNL     C8   12   0.046  -0.164   0.214
    1UNL     C9   13   0.073  -0.074   0.114
    1UNL    C10   14  -0.028  -0.006   0.012
    1UNL    C11   15  -0.051  -0.122  -0.098
    1UNL    C12   16  -0.167  -0.207  -0.030
    1UNL     N2   17  -0.238  -0.110   0.057
    1UNL    C13   18  -0.385  -0.116   0.060
    1UNL    C14   19  -0.448   0.028   0.070
    1UNL    C15   20  -0.392   0.128  -0.028
    1UNL    C16   21  -0.244   0.093  -0.082
    1UNL    C17   22  -0.168   0.224  -0.120
    1UNL    C18   23  -0.021   0.195  -0.149
    1UNL    C19   24   0.046   0.127  -0.026
    1UNL    C20   25   0.034   0.218   0.092
    1UNL     O4   26  -0.042   0.194   0.185
    1UNL     O5   27   0.116   0.330   0.094
    1UNL    C21   28  -0.248   0.006  -0.206
    1UNL    C22   29  -0.106  -0.061  -0.222
    1UNL     O6   30  -0.054  -0.054  -0.329
    1UNL    C23   31  -0.173   0.021   0.047
    1UNL     H1   32   0.415  -0.207  -0.253
    1UNL     H2   33   0.284  -0.132  -0.359
    1UNL     H3   34   0.419  -0.033  -0.283
    1UNL     H4   35   0.638  -0.015   0.179
    1UNL     H5   36   0.521  -0.022   0.317
    1UNL     H6   37   0.535  -0.164   0.220
    1UNL     H7   38   0.352  -0.182   0.332
    1UNL     H8   39   0.142  -0.273   0.372
    1UNL     H9   40  -0.058  -0.200   0.230
    1UNL    H10   41   0.027  -0.177  -0.130
    1UNL    H11   42  -0.137  -0.294   0.026
    1UNL    H12   43  -0.232  -0.256  -0.101
    1UNL    H13   44  -0.422  -0.180   0.132
    1UNL    H14   45  -0.424  -0.154  -0.036
    1UNL    H15   46  -0.405   0.060   0.166
    1UNL    H16   47  -0.556   0.025   0.076
    1UNL    H17   48  -0.382   0.234   0.018
    1UNL    H18   49  -0.466   0.136  -0.117
    1UNL    H19   50  -0.222   0.267  -0.201
    1UNL    H20   51  -0.179   0.305  -0.040
    1UNL    H21   52  -0.003   0.129  -0.235
    1UNL    H22   53   0.029   0.289  -0.175
    1UNL    H23   54   0.087   0.378   0.182
    1UNL    H24   55  -0.339  -0.049  -0.197
    1UNL    H25   56  -0.275   0.052  -0.295
    1UNL    H26   57  -0.184   0.081   0.137
   0.00000   0.00000   0.00000   0.00000   0.00000   0.00000   0.00000   0.00000   0.00000
Generated with MDTraj, t= 3.0
 57
    1UNL     C1    1   0.267  -0.117  -0.311
    1UNL     O1    2   0.296  -0.085  -0.172
    1UNL     C2    3   0.246   0.041  -0.143
    1UNL     O2    4   0.235   0.130  -0.227
    1UNL     N1    5   0.189   0.066  -0.012
    1UNL     C3    6   0.197  -0.040   0.087
    1UNL     C4    7   0.302  -0.060   0.180
    1UNL     O3    8   0.423  -0.012   0.135
    1UNL     C5    9   0.536  -0.024   0.209
    1UNL     C6   10   0.277  -0.134   0.295
    1UNL     C7   11   0.149  -0.172   0.323
    1UNL     C8   12   0.041  -0.149   0.234
    1UNL     C9   13   0.068  -0.083   0.114
    1UNL    C10   14  -0.022  -0.020   0.013
    1UNL    C11   15  -0.045  -0.128  -0.097
    1UNL    C12   16  -0.162  -0.214  -0.035
    1UNL     N2   17  -0.241  -0.122   0.055
    1UNL    C13   18  -0.387  -0.107   0.052
    1UNL    C14   19  -0.451   0.040   0.057
    1UNL    C15   20  -0.390   0.127  -0.049
    1UNL    C16   21  -0.236   0.101  -0.082
    1UNL    C17   22  -0.154   0.230  -0.106
    1UNL    C18   23  -0.005   0.194  -0.140
    1UNL    C19   24   0.046   0.112  -0.021
    1UNL    C20   25   0.043   0.204   0.104
    1UNL     O4   26  -0.036   0.180   0.189
    1UNL     O5   27   0.122   0.313   0.107
    1UNL    C21   28  -0.224   0.017  -0.212
    1UNL    C22   29  -0.102  -0.064  -0.230
    1UNL     O6   30  -0.045  -0.089  -0.333
    1UNL    C23   31  -0.176   0.010   0.046
    1UNL     H1   32   0.285  -0.221  -0.328
    1UNL     H2   33   0.160  -0.090  -0.336
    1UNL     H3   34   0.336  -0.053  -0.365
    1UNL     H4   35   0.620   0.044   0.157
    1UNL     H5   36   0.516   0.020   0.304
    1UNL     H6   37   0.574  -0.126   0.225
    1UNL     H7   38   0.356  -0.128   0.371
    1UNL     H8   39   0.127  -0.208   0.421
    1UNL     H9   40  -0.057  -0.176   0.261
    1UNL    H10   41   0.040  -0.181  -0.117
    1UNL    H11   42  -0.136  -0.303   0.018
    1UNL    H12   43  -0.223  -0.254  -0.114
    1UNL    H13   44  -0.440  -0.149   0.128
    1UNL    H14   45  -0.430  -0.164  -0.034
    1UNL    H15   46  -0.437   0.083   0.157
    1UNL    H16   47  -0.558   0.040   0.044
    1UNL    H17   48  -0.395   0.242  -0.024
    1UNL    H18   49  -0.448   0.106  -0.150
    1UNL    H19   50  -0.191   0.290  -0.183
    1UNL    H20   51  -0.173   0.294  -0.012
    1UNL    H21   52   0.007   0.131  -0.231
    1UNL    H22   53   0.062   0.281  -0.150
    1UNL    H23   54   0.112   0.372   0.188
    1UNL    H24   55  -0.309  -0.048  -0.241
    1UNL    H25   56  -0.234   0.079  -0.293
    1UNL    H26   57  -0.187   0.054   0.145
   0.00000   0.00000   0.00000   0.00000   0.00000   0.00000   0.00000   0.00000   0.00000
Generated with MDTraj, t= 4.0
 57
    1UNL     C1    1   0.275  -0.094  -0.342
    1UNL     O1    2   0.240  -0.093  -0.209
    1UNL     C2    3   0.231   0.034  -0.162
    1UNL     O2    4   0.259   0.133  -0.230
    1UNL     N1    5   0.186   0.056  -0.024
    1UNL     C3    6   0.194  -0.039   0.088
    1UNL     C4    7   0.306  -0.067   0.168
    1UNL     O3    8   0.435  -0.026   0.133
    1UNL     C5    9   0.531  -0.016   0.239
    1UNL     C6   10   0.277  -0.144   0.285
    1UNL     C7   11   0.149  -0.174   0.321
    1UNL     C8   12   0.039  -0.126   0.252
    1UNL     C9   13   0.066  -0.065   0.134
    1UNL    C10   14  -0.029  -0.012   0.031
    1UNL    C11   15  -0.047  -0.124  -0.081
    1UNL    C12   16  -0.151  -0.213  -0.023
    1UNL     N2   17  -0.255  -0.124   0.048
    1UNL    C13   18  -0.401  -0.123   0.016
    1UNL    C14   19  -0.469   0.016   0.025
    1UNL    C15   20  -0.394   0.125  -0.056
    1UNL    C16   21  -0.241   0.089  -0.081
    1UNL    C17   22  -0.166   0.220  -0.107
    1UNL    C18   23  -0.016   0.197  -0.127
    1UNL    C19   24   0.050   0.117  -0.011
    1UNL    C20   25   0.063   0.215   0.108
    1UNL     O4   26  -0.001   0.201   0.211
    1UNL     O5   27   0.157   0.320   0.103
    1UNL    C21   28  -0.229   0.004  -0.209
    1UNL    C22   29  -0.096  -0.067  -0.210
    1UNL     O6   30  -0.031  -0.084  -0.311
    1UNL    C23   31  -0.187   0.010   0.054
    1UNL     H1   32   0.310  -0.195  -0.358
    1UNL     H2   33   0.175  -0.078  -0.398
    1UNL     H3   34   0.347  -0.013  -0.361
    1UNL     H4   35   0.619   0.048   0.213
    1UNL     H5   36   0.484   0.029   0.327
    1UNL     H6   37   0.569  -0.116   0.272
    1UNL     H7   38   0.367  -0.169   0.343
    1UNL     H8   39   0.122  -0.193   0.426
    1UNL     H9   40  -0.066  -0.165   0.262
    1UNL    H10   41   0.044  -0.181  -0.095
    1UNL    H11   42  -0.124  -0.279   0.057
    1UNL    H12   43  -0.186  -0.275  -0.104
    1UNL    H13   44  -0.445  -0.182   0.087
    1UNL    H14   45  -0.442  -0.177  -0.075
    1UNL    H15   46  -0.486   0.053   0.127
    1UNL    H16   47  -0.566   0.016  -0.019
    1UNL    H17   48  -0.400   0.233  -0.007
    1UNL    H18   49  -0.434   0.130  -0.166
    1UNL    H19   50  -0.212   0.268  -0.189
    1UNL    H20   51  -0.180   0.291  -0.019
    1UNL    H21   52  -0.009   0.142  -0.223
    1UNL    H22   53   0.042   0.291  -0.132
    1UNL    H23   54   0.148   0.369   0.185
    1UNL    H24   55  -0.310  -0.074  -0.219
    1UNL    H25   56  -0.247   0.053  -0.300
    1UNL    H26   57  -0.200   0.052   0.155
   0.00000   0.00000   0.00000   0.00000   0.00000   0.00000   0.00000   0.00000   0.00000
Generated with MDTraj, t= 5.0
 57
    1UNL     C1    1   0.283  -0.108  -0.314
    1UNL     O1    2   0.285  -0.089  -0.175
    1UNL     C2    3   0.242   0.041  -0.143
    1UNL     O2    4   0.239   0.128  -0.231
    1UNL     N1    5   0.183   0.057  -0.017
    1UNL     C3    6   0.191  -0.041   0.086
    1UNL     C4    7   0.300  -0.079   0.165
    1UNL     O3    8   0.430  -0.058   0.123
    1UNL     C5    9   0.518  -0.003   0.215
    1UNL     C6   10   0.267  -0.157   0.277
    1UNL     C7   11   0.137  -0.184   0.316
    1UNL     C8   12   0.027  -0.142   0.240
    1UNL     C9   13   0.059  -0.068   0.126
    1UNL    C10   14  -0.028  -0.009   0.021
    1UNL    C11   15  -0.038  -0.119  -0.088
    1UNL    C12   16  -0.150  -0.219  -0.032
    1UNL     N2   17  -0.241  -0.125   0.049
    1UNL    C13   18  -0.386  -0.124   0.040
    1UNL    C14   19  -0.448   0.015   0.056
    1UNL    C15   20  -0.392   0.127  -0.042
    1UNL    C16   21  -0.245   0.087  -0.081
    1UNL    C17   22  -0.161   0.220  -0.104
    1UNL    C18   23  -0.010   0.198  -0.130
    1UNL    C19   24   0.053   0.124  -0.009
    1UNL    C20   25   0.050   0.232   0.103
    1UNL     O4   26  -0.034   0.226   0.192
    1UNL     O5   27   0.148   0.330   0.089
    1UNL    C21   28  -0.230  -0.004  -0.204
    1UNL    C22   29  -0.088  -0.064  -0.215
    1UNL     O6   30  -0.034  -0.063  -0.322
    1UNL    C23   31  -0.181   0.014   0.043
    1UNL     H1   32   0.268  -0.214  -0.320
    1UNL     H2   33   0.183  -0.056  -0.343
    1UNL     H3   34   0.368  -0.061  -0.362
    1UNL     H4   35   0.577   0.069   0.163
    1UNL     H5   36   0.469   0.046   0.305
    1UNL     H6   37   0.586  -0.086   0.250
    1UNL     H7   38   0.347  -0.191   0.336
    1UNL     H8   39   0.123  -0.242   0.405
    1UNL     H9   40  -0.071  -0.175   0.258
    1UNL    H10   41   0.058  -0.179  -0.096
    1UNL    H11   42  -0.102  -0.294   0.028
    1UNL    H12   43  -0.214  -0.272  -0.102
    1UNL    H13   44  -0.434  -0.185   0.108
    1UNL    H14   45  -0.419  -0.159  -0.060
    1UNL    H15   46  -0.424   0.051   0.156
    1UNL    H16   47  -0.554   0.016   0.049
    1UNL    H17   48  -0.378   0.232   0.005
    1UNL    H18   49  -0.449   0.140  -0.141
    1UNL    H19   50  -0.202   0.285  -0.180
    1UNL    H20   51  -0.171   0.281  -0.010
    1UNL    H21   52   0.013   0.138  -0.220
    1UNL    H22   53   0.040   0.297  -0.145
    1UNL    H23   54   0.166   0.368   0.172
    1UNL    H24   55  -0.313  -0.080  -0.210
    1UNL    H25   56  -0.248   0.050  -0.299
    1UNL    H26   57  -0.212   0.069   0.132
   0.00000   0.00000   0.00000   0.00000   0.00000   0.00000   0.00000   0.00000   0.00000
Generated with MDTraj, t= 6.0
 57
    1UNL     C1    1   0.343  -0.120  -0.276
    1UNL     O1    2   0.313  -0.089  -0.140
    1UNL     C2    3   0.254   0.036  -0.137
    1UNL     O2    4   0.238   0.106  -0.238
    1UNL     N1    5   0.185   0.063  -0.019
    1UNL     C3    6   0.190  -0.032   0.091
    1UNL     C4    7   0.305  -0.085   0.151
    1UNL     O3    8   0.441  -0.056   0.116
    1UNL     C5    9   0.514   0.020   0.209
    1UNL     C6   10   0.280  -0.171   0.250
    1UNL     C7   11   0.145  -0.207   0.292
    1UNL     C8   12   0.037  -0.155   0.225
    1UNL     C9   13   0.061  -0.070   0.123
    1UNL    C10   14  -0.029  -0.004   0.009
    1UNL    C11   15  -0.056  -0.120  -0.099
    1UNL    C12   16  -0.162  -0.204  -0.024
    1UNL     N2   17  -0.234  -0.111   0.064
    1UNL    C13   18  -0.386  -0.108   0.070
    1UNL    C14   19  -0.446   0.031   0.067
    1UNL    C15   20  -0.390   0.126  -0.044
    1UNL    C16   21  -0.241   0.099  -0.080
    1UNL    C17   22  -0.162   0.227  -0.107
    1UNL    C18   23  -0.012   0.203  -0.138
    1UNL    C19   24   0.050   0.128  -0.025
    1UNL    C20   25   0.028   0.220   0.099
    1UNL     O4   26  -0.069   0.220   0.174
    1UNL     O5   27   0.125   0.305   0.115
    1UNL    C21   28  -0.243   0.009  -0.204
    1UNL    C22   29  -0.109  -0.063  -0.230
    1UNL     O6   30  -0.047  -0.071  -0.330
    1UNL    C23   31  -0.175   0.026   0.047
    1UNL     H1   32   0.403  -0.207  -0.278
    1UNL     H2   33   0.239  -0.154  -0.310
    1UNL     H3   34   0.372  -0.029  -0.328
    1UNL     H4   35   0.606  -0.023   0.211
    1UNL     H5   36   0.524   0.130   0.183
    1UNL     H6   37   0.467   0.003   0.313
    1UNL     H7   38   0.362  -0.228   0.296
    1UNL     H8   39   0.129  -0.292   0.356
    1UNL     H9   40  -0.066  -0.173   0.258
    1UNL    H10   41   0.049  -0.167  -0.121
    1UNL    H11   42  -0.099  -0.274   0.029
    1UNL    H12   43  -0.234  -0.255  -0.088
    1UNL    H13   44  -0.416  -0.154   0.161
    1UNL    H14   45  -0.436  -0.159  -0.014
    1UNL    H15   46  -0.419   0.080   0.161
    1UNL    H16   47  -0.553   0.033   0.064
    1UNL    H17   48  -0.393   0.234  -0.019
    1UNL    H18   49  -0.443   0.118  -0.141
    1UNL    H19   50  -0.216   0.290  -0.182
    1UNL    H20   51  -0.171   0.280  -0.012
    1UNL    H21   52   0.001   0.145  -0.232
    1UNL    H22   53   0.056   0.290  -0.148
    1UNL    H23   54   0.101   0.351   0.194
    1UNL    H24   55  -0.307  -0.083  -0.195
    1UNL    H25   56  -0.293   0.062  -0.294
    1UNL    H26   57  -0.192   0.083   0.139
   0.00000   0.00000   0.00000   0.00000   0.00000   0.00000   0.00000   0.00000   0.00000
Generated with MDTraj, t= 7.0
 57
    1UNL     C1    1   0.405  -0.077  -0.259
    1UNL     O1    2   0.320  -0.087  -0.150
    1UNL     C2    3   0.249   0.027  -0.144
    1UNL     O2    4   0.237   0.106  -0.237
    1UNL     N1    5   0.178   0.058  -0.028
    1UNL     C3    6   0.188  -0.036   0.077
    1UNL     C4    7   0.299  -0.087   0.143
    1UNL     O3    8   0.432  -0.028   0.118
    1UNL     C5    9   0.488   0.058   0.225
    1UNL     C6   10   0.290  -0.180   0.247
    1UNL     C7   11   0.163  -0.223   0.279
    1UNL     C8   12   0.050  -0.176   0.214
    1UNL     C9   13   0.058  -0.080   0.115
    1UNL    C10   14  -0.042  -0.013   0.016
    1UNL    C11   15  -0.068  -0.126  -0.081
    1UNL    C12   16  -0.187  -0.214  -0.011
    1UNL     N2   17  -0.253  -0.107   0.075
    1UNL    C13   18  -0.403  -0.098   0.045
    1UNL    C14   19  -0.459   0.041   0.064
    1UNL    C15   20  -0.392   0.139  -0.036
    1UNL    C16   21  -0.249   0.096  -0.074
    1UNL    C17   22  -0.160   0.231  -0.105
    1UNL    C18   23  -0.020   0.190  -0.139
    1UNL    C19   24   0.040   0.110  -0.019
    1UNL    C20   25   0.051   0.214   0.096
    1UNL     O4   26  -0.048   0.241   0.165
    1UNL     O5   27   0.176   0.270   0.113
    1UNL    C21   28  -0.243   0.010  -0.207
    1UNL    C22   29  -0.120  -0.070  -0.215
    1UNL     O6   30  -0.068  -0.089  -0.323
    1UNL    C23   31  -0.185   0.025   0.054
    1UNL     H1   32   0.449  -0.172  -0.273
    1UNL     H2   33   0.329  -0.059  -0.344
    1UNL     H3   34   0.467   0.010  -0.247
    1UNL     H4   35   0.471   0.010   0.312
    1UNL     H5   36   0.596   0.079   0.215
    1UNL     H6   37   0.424   0.152   0.228
    1UNL     H7   38   0.377  -0.228   0.291
    1UNL     H8   39   0.161  -0.296   0.361
    1UNL     H9   40  -0.049  -0.187   0.256
    1UNL    H10   41   0.030  -0.190  -0.102
    1UNL    H11   42  -0.149  -0.294   0.054
    1UNL    H12   43  -0.251  -0.249  -0.093
    1UNL    H13   44  -0.447  -0.160   0.122
    1UNL    H14   45  -0.427  -0.126  -0.054
    1UNL    H15   46  -0.435   0.073   0.165
    1UNL    H16   47  -0.565   0.042   0.053
    1UNL    H17   48  -0.383   0.237   0.001
    1UNL    H18   49  -0.439   0.158  -0.131
    1UNL    H19   50  -0.204   0.278  -0.200
    1UNL    H20   51  -0.166   0.302  -0.025
    1UNL    H21   52  -0.013   0.123  -0.227
    1UNL    H22   53   0.040   0.278  -0.174
    1UNL    H23   54   0.158   0.344   0.177
    1UNL    H24   55  -0.324  -0.064  -0.205
    1UNL    H25   56  -0.248   0.072  -0.309
    1UNL    H26   57  -0.181   0.099   0.134
   0.00000   0.00000   0.00000   0.00000   0.00000   0.00000   0.00000   0.00000   0.00000
Generated with MDTraj, t= 8.0
 57
    1UNL     C1    1   0.435  -0.026  -0.295
    1UNL     O1    2   0.378  -0.047  -0.168
    1UNL     C2    3   0.270   0.038  -0.150
    1UNL     O2    4   0.245   0.124  -0.234
    1UNL     N1    5   0.185   0.027  -0.039
    1UNL     C3    6   0.192  -0.063   0.074
    1UNL     C4    7   0.305  -0.099   0.157
    1UNL     O3    8   0.432  -0.040   0.134
    1UNL     C5    9   0.440   0.086   0.192
    1UNL     C6   10   0.264  -0.179   0.269
    1UNL     C7   11   0.133  -0.213   0.303
    1UNL     C8   12   0.028  -0.169   0.227
    1UNL     C9   13   0.061  -0.091   0.113
    1UNL    C10   14  -0.039  -0.026   0.015
    1UNL    C11   15  -0.084  -0.139  -0.088
    1UNL    C12   16  -0.198  -0.207  -0.012
    1UNL     N2   17  -0.260  -0.109   0.079
    1UNL    C13   18  -0.414  -0.090   0.067
    1UNL    C14   19  -0.470   0.053   0.071
    1UNL    C15   20  -0.391   0.145  -0.026
    1UNL    C16   21  -0.246   0.094  -0.066
    1UNL    C17   22  -0.158   0.211  -0.116
    1UNL    C18   23  -0.012   0.172  -0.144
    1UNL    C19   24   0.049   0.102  -0.024
    1UNL    C20   25   0.070   0.200   0.091
    1UNL     O4   26  -0.025   0.246   0.147
    1UNL     O5   27   0.190   0.245   0.129
    1UNL    C21   28  -0.255   0.011  -0.197
    1UNL    C22   29  -0.136  -0.078  -0.213
    1UNL     O6   30  -0.082  -0.093  -0.322
    1UNL    C23   31  -0.183   0.016   0.053
    1UNL     H1   32   0.480  -0.111  -0.340
    1UNL     H2   33   0.340   0.005  -0.357
    1UNL     H3   34   0.494   0.063  -0.292
    1UNL     H4   35   0.343   0.100   0.231
    1UNL     H5   36   0.517   0.086   0.265
    1UNL     H6   37   0.453   0.161   0.111
    1UNL     H7   38   0.340  -0.199   0.340
    1UNL     H8   39   0.108  -0.263   0.391
    1UNL     H9   40  -0.074  -0.170   0.264
    1UNL    H10   41   0.003  -0.212  -0.124
    1UNL    H11   42  -0.174  -0.286   0.064
    1UNL    H12   43  -0.266  -0.239  -0.094
    1UNL    H13   44  -0.465  -0.136   0.152
    1UNL    H14   45  -0.437  -0.129  -0.025
    1UNL    H15   46  -0.465   0.096   0.170
    1UNL    H16   47  -0.574   0.058   0.042
    1UNL    H17   48  -0.372   0.238   0.017
    1UNL    H18   49  -0.447   0.171  -0.109
    1UNL    H19   50  -0.215   0.256  -0.207
    1UNL    H20   51  -0.151   0.278  -0.034
    1UNL    H21   52  -0.009   0.101  -0.229
    1UNL    H22   53   0.057   0.256  -0.171
    1UNL    H23   54   0.175   0.323   0.195
    1UNL    H24   55  -0.340  -0.062  -0.197
    1UNL    H25   56  -0.262   0.087  -0.286
    1UNL    H26   57  -0.186   0.074   0.145
   0.00000   0.00000   0.00000   0.00000   0.00000   0.00000   0.00000   0.00000   0.00000
Generated with MDTraj, t= 9.0
 57
    1UNL     C1    1   0.458   0.013  -0.266
    1UNL     O1    2   0.379  -0.028  -0.162
    1UNL     C2    3   0.272   0.053  -0.139
    1UNL     O2    4   0.248   0.153  -0.207
    1UNL     N1    5   0.187   0.031  -0.031
    1UNL     C3    6   0.190  -0.064   0.079
    1UNL     C4    7   0.285  -0.098   0.174
    1UNL     O3    8   0.418  -0.063   0.159
    1UNL     C5    9   0.447   0.049   0.081
    1UNL     C6   10   0.245  -0.175   0.286
    1UNL     C7   11   0.119  -0.208   0.314
    1UNL     C8   12   0.019  -0.153   0.235
    1UNL     C9   13   0.055  -0.092   0.111
    1UNL    C10   14  -0.038  -0.033   0.004
    1UNL    C11   15  -0.077  -0.145  -0.104
    1UNL    C12   16  -0.197  -0.213  -0.026
    1UNL     N2   17  -0.257  -0.111   0.076
    1UNL    C13   18  -0.401  -0.084   0.093
    1UNL    C14   19  -0.420   0.072   0.109
    1UNL    C15   20  -0.379   0.160  -0.016
    1UNL    C16   21  -0.243   0.092  -0.070
    1UNL    C17   22  -0.148   0.206  -0.122
    1UNL    C18   23  -0.004   0.154  -0.160
    1UNL    C19   24   0.052   0.093  -0.029
    1UNL    C20   25   0.055   0.197   0.087
    1UNL     O4   26  -0.050   0.226   0.138
    1UNL     O5   27   0.178   0.245   0.127
    1UNL    C21   28  -0.261  -0.003  -0.196
    1UNL    C22   29  -0.139  -0.082  -0.228
    1UNL     O6   30  -0.095  -0.103  -0.336
    1UNL    C23   31  -0.178   0.015   0.046
    1UNL     H1   32   0.562  -0.001  -0.242
    1UNL     H2   33   0.417  -0.043  -0.361
    1UNL     H3   34   0.438   0.116  -0.292
    1UNL     H4   35   0.351   0.112   0.090
    1UNL     H5   36   0.530   0.096   0.126
    1UNL     H6   37   0.469   0.020  -0.016
    1UNL     H7   38   0.331  -0.206   0.349
    1UNL     H8   39   0.097  -0.251   0.416
    1UNL     H9   40  -0.085  -0.183   0.251
    1UNL    H10   41   0.011  -0.220  -0.112
    1UNL    H11   42  -0.159  -0.286   0.049
    1UNL    H12   43  -0.279  -0.255  -0.091
    1UNL    H13   44  -0.436  -0.137   0.181
    1UNL    H14   45  -0.449  -0.109   0.006
    1UNL    H15   46  -0.363   0.115   0.188
    1UNL    H16   47  -0.526   0.098   0.121
    1UNL    H17   48  -0.372   0.258   0.013
    1UNL    H18   49  -0.448   0.162  -0.092
    1UNL    H19   50  -0.198   0.248  -0.218
    1UNL    H20   51  -0.138   0.277  -0.044
    1UNL    H21   52  -0.000   0.085  -0.247
    1UNL    H22   53   0.058   0.243  -0.184
    1UNL    H23   54   0.168   0.308   0.205
    1UNL    H24   55  -0.349  -0.075  -0.183
    1UNL    H25   56  -0.267   0.061  -0.289
    1UNL    H26   57  -0.178   0.079   0.135
   0.00000   0.00000   0.00000   0.00000   0.00000   0.00000   0.00000   0.00000   0.00000
Generated with MDTraj, t= 10.0
 57
    1UNL     C1    1   0.463  -0.002  -0.257
    1UNL     O1    2   0.380  -0.021  -0.148
    1UNL     C2    3   0.278   0.067  -0.136
    1UNL     O2    4   0.265   0.163  -0.212
    1UNL     N1    5   0.188   0.039  -0.031
    1UNL     C3    6   0.189  -0.056   0.075
    1UNL     C4    7   0.293  -0.090   0.169
    1UNL     O3    8   0.429  -0.058   0.189
    1UNL     C5    9   0.496  -0.000   0.077
    1UNL     C6   10   0.256  -0.174   0.274
    1UNL     C7   11   0.129  -0.214   0.301
    1UNL     C8   12   0.026  -0.179   0.213
    1UNL     C9   13   0.054  -0.090   0.111
    1UNL    C10   14  -0.042  -0.025   0.007
    1UNL    C11   15  -0.083  -0.139  -0.092
    1UNL    C12   16  -0.193  -0.200  -0.005
    1UNL     N2   17  -0.261  -0.098   0.082
    1UNL    C13   18  -0.408  -0.094   0.085
    1UNL    C14   19  -0.461   0.054   0.088
    1UNL    C15   20  -0.394   0.146  -0.029
    1UNL    C16   21  -0.248   0.093  -0.072
    1UNL    C17   22  -0.156   0.213  -0.107
    1UNL    C18   23  -0.021   0.164  -0.161
    1UNL    C19   24   0.051   0.098  -0.037
    1UNL    C20   25   0.055   0.200   0.078
    1UNL     O4   26  -0.048   0.228   0.134
    1UNL     O5   27   0.178   0.256   0.104
    1UNL    C21   28  -0.274  -0.003  -0.194
    1UNL    C22   29  -0.144  -0.087  -0.214
    1UNL     O6   30  -0.101  -0.103  -0.323
    1UNL    C23   31  -0.182   0.028   0.053
    1UNL     H1   32   0.529  -0.088  -0.259
    1UNL     H2   33   0.401   0.018  -0.355
    1UNL     H3   34   0.529   0.082  -0.240
    1UNL     H4   35   0.430   0.094   0.061
    1UNL     H5   36   0.597   0.024   0.093
    1UNL     H6   37   0.482  -0.060  -0.003
    1UNL     H7   38   0.330  -0.201   0.344
    1UNL     H8   39   0.108  -0.280   0.380
    1UNL     H9   40  -0.065  -0.231   0.223
    1UNL    H10   41   0.001  -0.206  -0.121
    1UNL    H11   42  -0.146  -0.282   0.056
    1UNL    H12   43  -0.273  -0.242  -0.070
    1UNL    H13   44  -0.441  -0.149   0.173
    1UNL    H14   45  -0.443  -0.143   0.002
    1UNL    H15   46  -0.449   0.109   0.178
    1UNL    H16   47  -0.570   0.057   0.065
    1UNL    H17   48  -0.391   0.246  -0.007
    1UNL    H18   49  -0.460   0.141  -0.108
    1UNL    H19   50  -0.217   0.286  -0.171
    1UNL    H20   51  -0.139   0.264  -0.015
    1UNL    H21   52  -0.022   0.095  -0.246
    1UNL    H22   53   0.030   0.258  -0.192
    1UNL    H23   54   0.176   0.309   0.183
    1UNL    H24   55  -0.362  -0.074  -0.171
    1UNL    H25   56  -0.308   0.057  -0.277
    1UNL    H26   57  -0.187   0.091   0.144
   0.00000   0.00000   0.00000   0.00000   0.00000   0.00000   0.00000   0.00000   0.00000
Generated with MDTraj, t= 11.0
 57
    1UNL     C1    1   0.422  -0.004  -0.286
    1UNL     O1    2   0.347  -0.043  -0.172
    1UNL     C2    3   0.255   0.054  -0.148
    1UNL     O2    4   0.229   0.148  -0.226
    1UNL     N1    5   0.185   0.041  -0.022
    1UNL     C3    6   0.188  -0.056   0.092
    1UNL     C4    7   0.286  -0.102   0.186
    1UNL     O3    8   0.419  -0.056   0.187
    1UNL     C5    9   0.477   0.010   0.074
    1UNL     C6   10   0.253  -0.188   0.290
    1UNL     C7   11   0.120  -0.224   0.308
    1UNL     C8   12   0.018  -0.172   0.227
    1UNL     C9   13   0.054  -0.088   0.127
    1UNL    C10   14  -0.037  -0.021   0.020
    1UNL    C11   15  -0.060  -0.132  -0.086
    1UNL    C12   16  -0.167  -0.209  -0.006
    1UNL     N2   17  -0.252  -0.108   0.071
    1UNL    C13   18  -0.400  -0.093   0.061
    1UNL    C14   19  -0.457   0.046   0.071
    1UNL    C15   20  -0.389   0.136  -0.030
    1UNL    C16   21  -0.246   0.097  -0.072
    1UNL    C17   22  -0.152   0.220  -0.108
    1UNL    C18   23  -0.010   0.170  -0.143
    1UNL    C19   24   0.049   0.107  -0.018
    1UNL    C20   25   0.068   0.215   0.087
    1UNL     O4   26  -0.030   0.240   0.153
    1UNL     O5   27   0.179   0.282   0.101
    1UNL    C21   28  -0.250  -0.001  -0.193
    1UNL    C22   29  -0.127  -0.079  -0.218
    1UNL     O6   30  -0.071  -0.102  -0.326
    1UNL    C23   31  -0.182   0.022   0.051
    1UNL     H1   32   0.427  -0.065  -0.375
    1UNL     H2   33   0.395   0.105  -0.317
    1UNL     H3   34   0.523   0.001  -0.251
    1UNL     H4   35   0.404   0.093   0.042
    1UNL     H5   36   0.567   0.053   0.104
    1UNL     H6   37   0.485  -0.055  -0.006
    1UNL     H7   38   0.335  -0.235   0.347
    1UNL     H8   39   0.099  -0.307   0.378
    1UNL     H9   40  -0.089  -0.197   0.247
    1UNL    H10   41   0.029  -0.183  -0.109
    1UNL    H11   42  -0.120  -0.296   0.049
    1UNL    H12   43  -0.239  -0.252  -0.079
    1UNL    H13   44  -0.446  -0.158   0.136
    1UNL    H14   45  -0.428  -0.132  -0.032
    1UNL    H15   46  -0.436   0.093   0.166
    1UNL    H16   47  -0.570   0.060   0.065
    1UNL    H17   48  -0.389   0.235   0.004
    1UNL    H18   49  -0.448   0.146  -0.117
    1UNL    H19   50  -0.200   0.288  -0.182
    1UNL    H20   51  -0.154   0.274  -0.013
    1UNL    H21   52  -0.010   0.100  -0.227
    1UNL    H22   53   0.068   0.244  -0.174
    1UNL    H23   54   0.161   0.352   0.160
    1UNL    H24   55  -0.341  -0.062  -0.191
    1UNL    H25   56  -0.267   0.054  -0.282
    1UNL    H26   57  -0.176   0.092   0.136
   0.00000   0.00000   0.00000   0.00000   0.00000   0.00000   0.00000   0.00000   0.00000
Generated with MDTraj, t= 12.0
 57
    1UNL     C1    1   0.358  -0.076  -0.305
    1UNL     O1    2   0.337  -0.070  -0.166
    1UNL     C2    3   0.258   0.040  -0.149
    1UNL     O2    4   0.239   0.131  -0.232
    1UNL     N1    5   0.183   0.044  -0.027
    1UNL     C3    6   0.186  -0.052   0.085
    1UNL     C4    7   0.293  -0.096   0.167
    1UNL     O3    8   0.431  -0.063   0.142
    1UNL     C5    9   0.468   0.068   0.092
    1UNL     C6   10   0.258  -0.165   0.286
    1UNL     C7   11   0.124  -0.193   0.319
    1UNL     C8   12   0.020  -0.145   0.242
    1UNL     C9   13   0.052  -0.080   0.125
    1UNL    C10   14  -0.036  -0.018   0.020
    1UNL    C11   15  -0.056  -0.129  -0.089
    1UNL    C12   16  -0.180  -0.206  -0.033
    1UNL     N2   17  -0.252  -0.116   0.055
    1UNL    C13   18  -0.401  -0.096   0.067
    1UNL    C14   19  -0.455   0.048   0.071
    1UNL    C15   20  -0.391   0.126  -0.043
    1UNL    C16   21  -0.246   0.094  -0.079
    1UNL    C17   22  -0.154   0.218  -0.097
    1UNL    C18   23  -0.011   0.184  -0.129
    1UNL    C19   24   0.047   0.107  -0.008
    1UNL    C20   25   0.059   0.201   0.112
    1UNL     O4   26  -0.037   0.203   0.188
    1UNL     O5   27   0.167   0.281   0.136
    1UNL    C21   28  -0.224   0.011  -0.219
    1UNL    C22   29  -0.094  -0.067  -0.219
    1UNL     O6   30  -0.031  -0.077  -0.322
    1UNL    C23   31  -0.181   0.014   0.049
    1UNL     H1   32   0.275  -0.054  -0.370
    1UNL     H2   33   0.434   0.004  -0.339
    1UNL     H3   34   0.406  -0.166  -0.324
    1UNL     H4   35   0.383   0.142   0.103
    1UNL     H5   36   0.550   0.103   0.149
    1UNL     H6   37   0.493   0.060  -0.018
    1UNL     H7   38   0.339  -0.204   0.346
    1UNL     H8   39   0.096  -0.254   0.404
    1UNL     H9   40  -0.077  -0.133   0.282
    1UNL    H10   41   0.024  -0.190  -0.110
    1UNL    H11   42  -0.158  -0.298   0.030
    1UNL    H12   43  -0.232  -0.247  -0.123
    1UNL    H13   44  -0.428  -0.145   0.160
    1UNL    H14   45  -0.451  -0.150  -0.012
    1UNL    H15   46  -0.418   0.095   0.167
    1UNL    H16   47  -0.568   0.064   0.083
    1UNL    H17   48  -0.389   0.229  -0.017
    1UNL    H18   49  -0.451   0.129  -0.131
    1UNL    H19   50  -0.196   0.269  -0.185
    1UNL    H20   51  -0.169   0.290  -0.012
    1UNL    H21   52   0.005   0.116  -0.214
    1UNL    H22   53   0.043   0.278  -0.154
    1UNL    H23   54   0.141   0.327   0.213
    1UNL    H24   55  -0.303  -0.051  -0.250
    1UNL    H25   56  -0.233   0.073  -0.306
    1UNL    H26   57  -0.183   0.071   0.144
   0.00000   0.00000   0.00000   0.00000   0.00000   0.00000   0.00000   0.00000   0.00000
Generated with MDTraj, t= 13.0
 57
    1UNL     C1    1   0.301  -0.136  -0.298
    1UNL     O1    2   0.275  -0.117  -0.163
    1UNL     C2    3   0.246   0.019  -0.142
    1UNL     O2    4   0.252   0.103  -0.233
    1UNL     N1    5   0.189   0.049  -0.016
    1UNL     C3    6   0.188  -0.043   0.092
    1UNL     C4    7   0.307  -0.077   0.159
    1UNL     O3    8   0.438  -0.031   0.122
    1UNL     C5    9   0.452   0.111   0.120
    1UNL     C6   10   0.280  -0.152   0.274
    1UNL     C7   11   0.156  -0.194   0.317
    1UNL     C8   12   0.043  -0.162   0.243
    1UNL     C9   13   0.064  -0.083   0.128
    1UNL    C10   14  -0.031  -0.015   0.024
    1UNL    C11   15  -0.050  -0.116  -0.098
    1UNL    C12   16  -0.167  -0.207  -0.041
    1UNL     N2   17  -0.250  -0.125   0.051
    1UNL    C13   18  -0.400  -0.115   0.024
    1UNL    C14   19  -0.460   0.030   0.040
    1UNL    C15   20  -0.385   0.140  -0.043
    1UNL    C16   21  -0.239   0.104  -0.073
    1UNL    C17   22  -0.150   0.225  -0.097
    1UNL    C18   23  -0.000   0.196  -0.121
    1UNL    C19   24   0.054   0.120  -0.002
    1UNL    C20   25   0.056   0.203   0.126
    1UNL     O4   26  -0.041   0.202   0.200
    1UNL     O5   27   0.165   0.273   0.153
    1UNL    C21   28  -0.227   0.022  -0.214
    1UNL    C22   29  -0.097  -0.046  -0.226
    1UNL     O6   30  -0.036  -0.053  -0.327
    1UNL    C23   31  -0.182   0.015   0.053
    1UNL     H1   32   0.256  -0.071  -0.371
    1UNL     H2   33   0.413  -0.123  -0.320
    1UNL     H3   34   0.290  -0.239  -0.312
    1UNL     H4   35   0.372   0.160   0.068
    1UNL     H5   36   0.450   0.138   0.224
    1UNL     H6   37   0.552   0.138   0.065
    1UNL     H7   38   0.361  -0.162   0.340
    1UNL     H8   39   0.153  -0.251   0.408
    1UNL     H9   40  -0.060  -0.163   0.280
    1UNL    H10   41   0.030  -0.176  -0.114
    1UNL    H11   42  -0.121  -0.286   0.024
    1UNL    H12   43  -0.227  -0.266  -0.113
    1UNL    H13   44  -0.456  -0.173   0.095
    1UNL    H14   45  -0.423  -0.155  -0.077
    1UNL    H15   46  -0.477   0.057   0.154
    1UNL    H16   47  -0.570   0.028   0.005
    1UNL    H17   48  -0.383   0.230   0.014
    1UNL    H18   49  -0.436   0.174  -0.134
    1UNL    H19   50  -0.193   0.275  -0.183
    1UNL    H20   51  -0.160   0.294  -0.007
    1UNL    H21   52   0.012   0.127  -0.205
    1UNL    H22   53   0.058   0.289  -0.131
    1UNL    H23   54   0.152   0.314   0.239
    1UNL    H24   55  -0.308  -0.038  -0.237
    1UNL    H25   56  -0.234   0.079  -0.304
    1UNL    H26   57  -0.190   0.061   0.154
   0.00000   0.00000   0.00000   0.00000   0.00000   0.00000   0.00000   0.00000   0.00000
Generated with MDTraj, t= 14.0
 57
    1UNL     C1    1   0.237  -0.162  -0.286
    1UNL     O1    2   0.233  -0.123  -0.155
    1UNL     C2    3   0.231   0.015  -0.149
    1UNL     O2    4   0.259   0.099  -0.234
    1UNL     N1    5   0.189   0.057  -0.020
    1UNL     C3    6   0.202  -0.032   0.094
    1UNL     C4    7   0.306  -0.066   0.178
    1UNL     O3    8   0.424  -0.007   0.183
    1UNL     C5    9   0.427   0.118   0.121
    1UNL     C6   10   0.288  -0.173   0.265
    1UNL     C7   11   0.162  -0.224   0.286
    1UNL     C8   12   0.057  -0.176   0.217
    1UNL     C9   13   0.073  -0.084   0.115
    1UNL    C10   14  -0.025  -0.013   0.021
    1UNL    C11   15  -0.046  -0.108  -0.097
    1UNL    C12   16  -0.148  -0.206  -0.031
    1UNL     N2   17  -0.240  -0.126   0.052
    1UNL    C13   18  -0.380  -0.125   0.007
    1UNL    C14   19  -0.448   0.012   0.035
    1UNL    C15   20  -0.381   0.132  -0.041
    1UNL    C16   21  -0.228   0.105  -0.066
    1UNL    C17   22  -0.149   0.233  -0.079
    1UNL    C18   23   0.002   0.203  -0.122
    1UNL    C19   24   0.058   0.122  -0.003
    1UNL    C20   25   0.061   0.215   0.118
    1UNL     O4   26  -0.038   0.236   0.184
    1UNL     O5   27   0.178   0.271   0.144
    1UNL    C21   28  -0.225   0.033  -0.204
    1UNL    C22   29  -0.095  -0.048  -0.223
    1UNL     O6   30  -0.036  -0.058  -0.330
    1UNL    C23   31  -0.177   0.018   0.046
    1UNL     H1   32   0.144  -0.160  -0.341
    1UNL     H2   33   0.316  -0.110  -0.353
    1UNL     H3   34   0.273  -0.262  -0.275
    1UNL     H4   35   0.435   0.113   0.017
    1UNL     H5   36   0.330   0.157   0.153
    1UNL     H6   37   0.519   0.179   0.166
    1UNL     H7   38   0.381  -0.203   0.320
    1UNL     H8   39   0.139  -0.291   0.372
    1UNL     H9   40  -0.042  -0.221   0.226
    1UNL    H10   41   0.050  -0.152  -0.106
    1UNL    H11   42  -0.098  -0.282   0.032
    1UNL    H12   43  -0.208  -0.259  -0.107
    1UNL    H13   44  -0.434  -0.211   0.045
    1UNL    H14   45  -0.393  -0.123  -0.106
    1UNL    H15   46  -0.437   0.034   0.152
    1UNL    H16   47  -0.563   0.012   0.016
    1UNL    H17   48  -0.397   0.222   0.018
    1UNL    H18   49  -0.429   0.153  -0.138
    1UNL    H19   50  -0.201   0.299  -0.147
    1UNL    H20   51  -0.151   0.283   0.025
    1UNL    H21   52   0.009   0.144  -0.214
    1UNL    H22   53   0.060   0.295  -0.127
    1UNL    H23   54   0.164   0.328   0.225
    1UNL    H24   55  -0.317  -0.014  -0.232
    1UNL    H25   56  -0.224   0.111  -0.273
    1UNL    H26   57  -0.201   0.064   0.144
   0.00000   0.00000   0.00000   0.00000   0.00000   0.00000   0.00000   0.00000   0.00000
Generated with MDTraj, t= 15.0
 57
    1UNL     C1    1   0.287  -0.135  -0.292
    1UNL     O1    2   0.270  -0.106  -0.153
    1UNL     C2    3   0.235   0.030  -0.137
    1UNL     O2    4   0.243   0.112  -0.229
    1UNL     N1    5   0.196   0.070  -0.004
    1UNL     C3    6   0.198  -0.036   0.090
    1UNL     C4    7   0.300  -0.074   0.183
    1UNL     O3    8   0.433  -0.025   0.189
    1UNL     C5    9   0.445   0.087   0.108
    1UNL     C6   10   0.279  -0.173   0.274
    1UNL     C7   11   0.152  -0.225   0.281
    1UNL     C8   12   0.043  -0.182   0.205
    1UNL     C9   13   0.064  -0.079   0.113
    1UNL    C10   14  -0.026  -0.017   0.008
    1UNL    C11   15  -0.044  -0.123  -0.108
    1UNL    C12   16  -0.158  -0.205  -0.039
    1UNL     N2   17  -0.233  -0.115   0.056
    1UNL    C13   18  -0.381  -0.107   0.067
    1UNL    C14   19  -0.435   0.035   0.069
    1UNL    C15   20  -0.378   0.133  -0.039
    1UNL    C16   21  -0.229   0.100  -0.081
    1UNL    C17   22  -0.147   0.229  -0.107
    1UNL    C18   23   0.001   0.198  -0.132
    1UNL    C19   24   0.058   0.123  -0.004
    1UNL    C20   25   0.042   0.213   0.117
    1UNL     O4   26  -0.058   0.217   0.183
    1UNL     O5   27   0.158   0.284   0.143
    1UNL    C21   28  -0.234   0.013  -0.218
    1UNL    C22   29  -0.101  -0.057  -0.229
    1UNL     O6   30  -0.042  -0.061  -0.336
    1UNL    C23   31  -0.172   0.019   0.044
    1UNL     H1   32   0.218  -0.082  -0.361
    1UNL     H2   33   0.393  -0.129  -0.338
    1UNL     H3   34   0.252  -0.238  -0.295
    1UNL     H4   35   0.425   0.067   0.007
    1UNL     H5   36   0.366   0.154   0.150
    1UNL     H6   37   0.554   0.130   0.118
    1UNL     H7   38   0.352  -0.200   0.341
    1UNL     H8   39   0.140  -0.300   0.352
    1UNL     H9   40  -0.040  -0.245   0.200
    1UNL    H10   41   0.054  -0.181  -0.118
    1UNL    H11   42  -0.124  -0.296   0.011
    1UNL    H12   43  -0.237  -0.232  -0.111
    1UNL    H13   44  -0.421  -0.155   0.156
    1UNL    H14   45  -0.432  -0.162  -0.023
    1UNL    H15   46  -0.420   0.085   0.174
    1UNL    H16   47  -0.553   0.033   0.056
    1UNL    H17   48  -0.387   0.238  -0.006
    1UNL    H18   49  -0.442   0.114  -0.129
    1UNL    H19   50  -0.194   0.289  -0.185
    1UNL    H20   51  -0.155   0.293  -0.012
    1UNL    H21   52   0.023   0.131  -0.215
    1UNL    H22   53   0.051   0.292  -0.157
    1UNL    H23   54   0.146   0.334   0.232
    1UNL    H24   55  -0.311  -0.063  -0.199
    1UNL    H25   56  -0.253   0.068  -0.303
    1UNL    H26   57  -0.168   0.079   0.136
   0.00000   0.00000   0.00000   0.00000   0.00000   0.00000   0.00000   0.00000   0.00000
Generated with MDTraj, t= 16.0
 57
    1UNL     C1    1   0.389  -0.076  -0.295
    1UNL     O1    2   0.326  -0.087  -0.164
    1UNL     C2    3   0.261   0.028  -0.144
    1UNL     O2    4   0.272   0.124  -0.216
    1UNL     N1    5   0.185   0.050  -0.021
    1UNL     C3    6   0.188  -0.044   0.092
    1UNL     C4    7   0.302  -0.094   0.166
    1UNL     O3    8   0.434  -0.060   0.137
    1UNL     C5    9   0.459   0.073   0.092
    1UNL     C6   10   0.270  -0.173   0.278
    1UNL     C7   11   0.137  -0.205   0.308
    1UNL     C8   12   0.031  -0.156   0.234
    1UNL     C9   13   0.057  -0.078   0.127
    1UNL    C10   14  -0.033  -0.023   0.016
    1UNL    C11   15  -0.064  -0.133  -0.094
    1UNL    C12   16  -0.181  -0.209  -0.034
    1UNL     N2   17  -0.251  -0.116   0.055
    1UNL    C13   18  -0.401  -0.107   0.057
    1UNL    C14   19  -0.450   0.043   0.079
    1UNL    C15   20  -0.391   0.140  -0.027
    1UNL    C16   21  -0.248   0.101  -0.073
    1UNL    C17   22  -0.155   0.223  -0.104
    1UNL    C18   23  -0.016   0.185  -0.140
    1UNL    C19   24   0.041   0.110  -0.018
    1UNL    C20   25   0.043   0.210   0.108
    1UNL     O4   26  -0.049   0.226   0.179
    1UNL     O5   27   0.150   0.281   0.133
    1UNL    C21   28  -0.241   0.011  -0.205
    1UNL    C22   29  -0.110  -0.064  -0.221
    1UNL     O6   30  -0.046  -0.070  -0.319
    1UNL    C23   31  -0.178   0.016   0.047
    1UNL     H1   32   0.314  -0.065  -0.376
    1UNL     H2   33   0.458   0.016  -0.306
    1UNL     H3   34   0.435  -0.171  -0.320
    1UNL     H4   35   0.436   0.082  -0.014
    1UNL     H5   36   0.388   0.141   0.146
    1UNL     H6   37   0.568   0.095   0.102
    1UNL     H7   38   0.349  -0.234   0.330
    1UNL     H8   39   0.112  -0.278   0.390
    1UNL     H9   40  -0.073  -0.187   0.259
    1UNL    H10   41   0.035  -0.190  -0.119
    1UNL    H11   42  -0.149  -0.292   0.030
    1UNL    H12   43  -0.246  -0.248  -0.113
    1UNL    H13   44  -0.434  -0.163   0.144
    1UNL    H14   45  -0.459  -0.162  -0.030
    1UNL    H15   46  -0.416   0.079   0.182
    1UNL    H16   47  -0.569   0.056   0.086
    1UNL    H17   48  -0.377   0.238   0.024
    1UNL    H18   49  -0.459   0.143  -0.115
    1UNL    H19   50  -0.202   0.287  -0.180
    1UNL    H20   51  -0.153   0.287  -0.012
    1UNL    H21   52   0.001   0.136  -0.236
    1UNL    H22   53   0.054   0.268  -0.153
    1UNL    H23   54   0.138   0.339   0.215
    1UNL    H24   55  -0.315  -0.071  -0.214
    1UNL    H25   56  -0.246   0.077  -0.286
    1UNL    H26   57  -0.167   0.074   0.140
   0.00000   0.00000   0.00000   0.00000   0.00000   0.00000   0.00000   0.00000   0.00000
Generated with MDTraj, t= 17.0
 57
    1UNL     C1    1   0.447  -0.006  -0.272
    1UNL     O1    2   0.375  -0.034  -0.150
    1UNL     C2    3   0.267   0.045  -0.141
    1UNL     O2    4   0.250   0.139  -0.215
    1UNL     N1    5   0.177   0.031  -0.033
    1UNL     C3    6   0.184  -0.059   0.077
    1UNL     C4    7   0.288  -0.110   0.151
    1UNL     O3    8   0.422  -0.079   0.116
    1UNL     C5    9   0.452   0.058   0.098
    1UNL     C6   10   0.256  -0.184   0.269
    1UNL     C7   11   0.133  -0.195   0.321
    1UNL     C8   12   0.025  -0.149   0.244
    1UNL     C9   13   0.052  -0.084   0.126
    1UNL    C10   14  -0.041  -0.020   0.023
    1UNL    C11   15  -0.073  -0.141  -0.079
    1UNL    C12   16  -0.188  -0.215  -0.008
    1UNL     N2   17  -0.262  -0.107   0.066
    1UNL    C13   18  -0.407  -0.105   0.058
    1UNL    C14   19  -0.479   0.034   0.035
    1UNL    C15   20  -0.397   0.144  -0.031
    1UNL    C16   21  -0.255   0.101  -0.065
    1UNL    C17   22  -0.163   0.223  -0.103
    1UNL    C18   23  -0.023   0.173  -0.141
    1UNL    C19   24   0.043   0.105  -0.015
    1UNL    C20   25   0.076   0.205   0.094
    1UNL     O4   26  -0.007   0.242   0.174
    1UNL     O5   27   0.205   0.248   0.106
    1UNL    C21   28  -0.257   0.014  -0.194
    1UNL    C22   29  -0.132  -0.081  -0.208
    1UNL     O6   30  -0.081  -0.100  -0.315
    1UNL    C23   31  -0.189   0.021   0.050
    1UNL     H1   32   0.412  -0.057  -0.361
    1UNL     H2   33   0.453   0.105  -0.290
    1UNL     H3   34   0.544  -0.052  -0.256
    1UNL     H4   35   0.518   0.056   0.010
    1UNL     H5   36   0.359   0.116   0.067
    1UNL     H6   37   0.509   0.098   0.179
    1UNL     H7   38   0.339  -0.223   0.320
    1UNL     H8   39   0.116  -0.259   0.402
    1UNL     H9   40  -0.065  -0.138   0.298
    1UNL    H10   41   0.016  -0.215  -0.105
    1UNL    H11   42  -0.152  -0.289   0.064
    1UNL    H12   43  -0.244  -0.273  -0.081
    1UNL    H13   44  -0.449  -0.155   0.145
    1UNL    H14   45  -0.437  -0.173  -0.028
    1UNL    H15   46  -0.516   0.069   0.137
    1UNL    H16   47  -0.579   0.024  -0.019
    1UNL    H17   48  -0.373   0.218   0.050
    1UNL    H18   49  -0.439   0.189  -0.123
    1UNL    H19   50  -0.207   0.290  -0.182
    1UNL    H20   51  -0.153   0.286  -0.015
    1UNL    H21   52  -0.022   0.100  -0.223
    1UNL    H22   53   0.042   0.248  -0.185
    1UNL    H23   54   0.203   0.313   0.178
    1UNL    H24   55  -0.346  -0.046  -0.189
    1UNL    H25   56  -0.251   0.072  -0.286
    1UNL    H26   57  -0.186   0.084   0.141
   0.00000   0.00000   0.00000   0.00000   0.00000   0.00000   0.00000   0.00000   0.00000
Generated with MDTraj, t= 18.0
 57
    1UNL     C1    1   0.470   0.072  -0.242
    1UNL     O1    2   0.391   0.011  -0.138
    1UNL     C2    3   0.263   0.050  -0.149
    1UNL     O2    4   0.224   0.122  -0.239
    1UNL     N1    5   0.179   0.017  -0.040
    1UNL     C3    6   0.187  -0.074   0.071
    1UNL     C4    7   0.294  -0.123   0.151
    1UNL     O3    8   0.431  -0.095   0.135
    1UNL     C5    9   0.461   0.044   0.131
    1UNL     C6   10   0.256  -0.192   0.265
    1UNL     C7   11   0.130  -0.213   0.310
    1UNL     C8   12   0.029  -0.164   0.232
    1UNL     C9   13   0.058  -0.098   0.113
    1UNL    C10   14  -0.044  -0.027   0.012
    1UNL    C11   15  -0.092  -0.147  -0.082
    1UNL    C12   16  -0.200  -0.212   0.012
    1UNL     N2   17  -0.258  -0.096   0.091
    1UNL    C13   18  -0.401  -0.067   0.107
    1UNL    C14   19  -0.474   0.034   0.008
    1UNL    C15   20  -0.389   0.156  -0.020
    1UNL    C16   21  -0.241   0.104  -0.064
    1UNL    C17   22  -0.151   0.219  -0.115
    1UNL    C18   23  -0.015   0.157  -0.161
    1UNL    C19   24   0.051   0.094  -0.033
    1UNL    C20   25   0.071   0.197   0.077
    1UNL     O4   26  -0.027   0.246   0.134
    1UNL     O5   27   0.197   0.237   0.104
    1UNL    C21   28  -0.267   0.007  -0.189
    1UNL    C22   29  -0.150  -0.086  -0.201
    1UNL     O6   30  -0.097  -0.105  -0.310
    1UNL    C23   31  -0.177   0.028   0.055
    1UNL     H1   32   0.433   0.071  -0.344
    1UNL     H2   33   0.500   0.172  -0.205
    1UNL     H3   34   0.561   0.015  -0.242
    1UNL     H4   35   0.539   0.058   0.054
    1UNL     H5   36   0.371   0.100   0.088
    1UNL     H6   37   0.492   0.082   0.221
    1UNL     H7   38   0.337  -0.225   0.329
    1UNL     H8   39   0.104  -0.256   0.410
    1UNL     H9   40  -0.073  -0.163   0.274
    1UNL    H10   41  -0.011  -0.227  -0.118
    1UNL    H11   42  -0.164  -0.300   0.066
    1UNL    H12   43  -0.281  -0.253  -0.046
    1UNL    H13   44  -0.417  -0.027   0.209
    1UNL    H14   45  -0.454  -0.163   0.111
    1UNL    H15   46  -0.571   0.068   0.053
    1UNL    H16   47  -0.519  -0.018  -0.074
    1UNL    H17   48  -0.368   0.221   0.067
    1UNL    H18   49  -0.424   0.217  -0.102
    1UNL    H19   50  -0.205   0.275  -0.198
    1UNL    H20   51  -0.117   0.289  -0.043
    1UNL    H21   52  -0.030   0.080  -0.237
    1UNL    H22   53   0.051   0.231  -0.204
    1UNL    H23   54   0.191   0.309   0.164
    1UNL    H24   55  -0.345  -0.065  -0.181
    1UNL    H25   56  -0.282   0.071  -0.277
    1UNL    H26   57  -0.168   0.092   0.144
   0.00000   0.00000   0.00000   0.00000   0.00000   0.00000   0.00000   0.00000   0.00000
Generated with MDTraj, t= 19.0
 57
    1UNL     C1    1   0.493   0.078  -0.218
    1UNL     O1    2   0.410   0.028  -0.114
    1UNL     C2    3   0.281   0.058  -0.141
    1UNL     O2    4   0.242   0.124  -0.236
    1UNL     N1    5   0.184   0.023  -0.042
    1UNL     C3    6   0.185  -0.073   0.065
    1UNL     C4    7   0.292  -0.119   0.144
    1UNL     O3    8   0.428  -0.088   0.122
    1UNL     C5    9   0.453   0.050   0.146
    1UNL     C6   10   0.261  -0.205   0.246
    1UNL     C7   11   0.130  -0.234   0.277
    1UNL     C8   12   0.025  -0.176   0.213
    1UNL     C9   13   0.049  -0.095   0.103
    1UNL    C10   14  -0.042  -0.029   0.006
    1UNL    C11   15  -0.105  -0.147  -0.076
    1UNL    C12   16  -0.221  -0.203   0.009
    1UNL     N2   17  -0.260  -0.088   0.094
    1UNL    C13   18  -0.388  -0.052   0.156
    1UNL    C14   19  -0.460   0.059   0.072
    1UNL    C15   20  -0.387   0.156  -0.029
    1UNL    C16   21  -0.248   0.094  -0.084
    1UNL    C17   22  -0.157   0.207  -0.128
    1UNL    C18   23  -0.015   0.146  -0.170
    1UNL    C19   24   0.048   0.090  -0.041
    1UNL    C20   25   0.064   0.197   0.070
    1UNL     O4   26  -0.034   0.255   0.112
    1UNL     O5   27   0.181   0.231   0.114
    1UNL    C21   28  -0.274  -0.005  -0.202
    1UNL    C22   29  -0.155  -0.095  -0.207
    1UNL     O6   30  -0.095  -0.130  -0.304
    1UNL    C23   31  -0.180   0.028   0.047
    1UNL     H1   32   0.489   0.020  -0.309
    1UNL     H2   33   0.487   0.188  -0.225
    1UNL     H3   34   0.591   0.070  -0.175
    1UNL     H4   35   0.553   0.083   0.113
    1UNL     H5   36   0.381   0.110   0.084
    1UNL     H6   37   0.435   0.068   0.243
    1UNL     H7   38   0.340  -0.238   0.315
    1UNL     H8   39   0.119  -0.283   0.369
    1UNL     H9   40  -0.076  -0.203   0.231
    1UNL    H10   41  -0.020  -0.224  -0.091
    1UNL    H11   42  -0.192  -0.290   0.066
    1UNL    H12   43  -0.307  -0.237  -0.044
    1UNL    H13   44  -0.370  -0.006   0.256
    1UNL    H14   45  -0.456  -0.131   0.172
    1UNL    H15   46  -0.522   0.106   0.149
    1UNL    H16   47  -0.537   0.016   0.018
    1UNL    H17   48  -0.363   0.252   0.020
    1UNL    H18   49  -0.437   0.173  -0.124
    1UNL    H19   50  -0.193   0.264  -0.222
    1UNL    H20   51  -0.146   0.279  -0.051
    1UNL    H21   52  -0.018   0.070  -0.249
    1UNL    H22   53   0.050   0.226  -0.201
    1UNL    H23   54   0.169   0.310   0.169
    1UNL    H24   55  -0.365  -0.066  -0.201
    1UNL    H25   56  -0.269   0.046  -0.301
    1UNL    H26   57  -0.185   0.109   0.122
   0.00000   0.00000   0.00000   0.00000   0.00000   0.00000   0.00000   0.00000   0.00000
Generated with MDTraj, t= 20.0
 57
    1UNL     C1    1   0.501   0.061  -0.222
    1UNL     O1    2   0.415   0.003  -0.124
    1UNL     C2    3   0.291   0.061  -0.135
    1UNL     O2    4   0.259   0.155  -0.209
    1UNL     N1    5   0.188   0.018  -0.044
    1UNL     C3    6   0.189  -0.069   0.069
    1UNL     C4    7   0.300  -0.119   0.140
    1UNL     O3    8   0.435  -0.069   0.129
    1UNL     C5    9   0.442   0.060   0.172
    1UNL     C6   10   0.274  -0.219   0.229
    1UNL     C7   11   0.139  -0.238   0.265
    1UNL     C8   12   0.032  -0.177   0.215
    1UNL     C9   13   0.056  -0.089   0.112
    1UNL    C10   14  -0.041  -0.027   0.016
    1UNL    C11   15  -0.105  -0.147  -0.071
    1UNL    C12   16  -0.211  -0.202   0.022
    1UNL     N2   17  -0.256  -0.086   0.106
    1UNL    C13   18  -0.400  -0.065   0.128
    1UNL    C14   19  -0.477   0.034   0.032
    1UNL    C15   20  -0.391   0.156  -0.013
    1UNL    C16   21  -0.250   0.102  -0.068
    1UNL    C17   22  -0.151   0.206  -0.140
    1UNL    C18   23  -0.013   0.139  -0.175
    1UNL    C19   24   0.055   0.089  -0.044
    1UNL    C20   25   0.065   0.202   0.054
    1UNL     O4   26  -0.030   0.274   0.086
    1UNL     O5   27   0.189   0.224   0.112
    1UNL    C21   28  -0.287   0.006  -0.184
    1UNL    C22   29  -0.173  -0.094  -0.201
    1UNL     O6   30  -0.148  -0.128  -0.311
    1UNL    C23   31  -0.182   0.030   0.057
    1UNL     H1   32   0.503   0.005  -0.316
    1UNL     H2   33   0.486   0.170  -0.233
    1UNL     H3   34   0.600   0.064  -0.174
    1UNL     H4   35   0.545   0.096   0.161
    1UNL     H5   36   0.377   0.127   0.114
    1UNL     H6   37   0.412   0.055   0.271
    1UNL     H7   38   0.351  -0.265   0.282
    1UNL     H8   39   0.119  -0.314   0.343
    1UNL     H9   40  -0.070  -0.201   0.240
    1UNL    H10   41  -0.035  -0.230  -0.094
    1UNL    H11   42  -0.175  -0.269   0.098
    1UNL    H12   43  -0.289  -0.253  -0.031
    1UNL    H13   44  -0.418  -0.018   0.229
    1UNL    H14   45  -0.454  -0.152   0.131
    1UNL    H15   46  -0.558   0.078   0.083
    1UNL    H16   47  -0.517  -0.024  -0.045
    1UNL    H17   48  -0.363   0.210   0.079
    1UNL    H18   49  -0.452   0.213  -0.084
    1UNL    H19   50  -0.201   0.251  -0.232
    1UNL    H20   51  -0.136   0.290  -0.074
    1UNL    H21   52  -0.016   0.047  -0.235
    1UNL    H22   53   0.050   0.200  -0.238
    1UNL    H23   54   0.169   0.306   0.168
    1UNL    H24   55  -0.388  -0.047  -0.171
    1UNL    H25   56  -0.304   0.067  -0.276
    1UNL    H26   57  -0.159   0.101   0.138
   0.00000   0.00000   0.00000   0.00000   0.00000   0.00000   0.00000   0.00000   0.00000
Generated with MDTraj, t= 21.0
 57
    1UNL     C1    1   0.477   0.033  -0.224
    1UNL     O1    2   0.375  -0.021  -0.141
    1UNL     C2    3   0.274   0.069  -0.136
    1UNL     O2    4   0.259   0.177  -0.192
    1UNL     N1    5   0.177   0.027  -0.042
    1UNL     C3    6   0.184  -0.061   0.070
    1UNL     C4    7   0.295  -0.110   0.142
    1UNL     O3    8   0.424  -0.067   0.123
    1UNL     C5    9   0.444   0.070   0.123
    1UNL     C6   10   0.263  -0.193   0.248
    1UNL     C7   11   0.132  -0.226   0.281
    1UNL     C8   12   0.024  -0.177   0.213
    1UNL     C9   13   0.055  -0.096   0.104
    1UNL    C10   14  -0.040  -0.034   0.011
    1UNL    C11   15  -0.097  -0.156  -0.078
    1UNL    C12   16  -0.213  -0.215   0.018
    1UNL     N2   17  -0.258  -0.094   0.095
    1UNL    C13   18  -0.395  -0.051   0.138
    1UNL    C14   19  -0.468   0.047   0.044
    1UNL    C15   20  -0.370   0.153  -0.013
    1UNL    C16   21  -0.240   0.097  -0.074
    1UNL    C17   22  -0.144   0.208  -0.140
    1UNL    C18   23  -0.012   0.152  -0.169
    1UNL    C19   24   0.043   0.088  -0.038
    1UNL    C20   25   0.061   0.204   0.076
    1UNL     O4   26  -0.037   0.262   0.118
    1UNL     O5   27   0.187   0.216   0.119
    1UNL    C21   28  -0.264  -0.006  -0.192
    1UNL    C22   29  -0.154  -0.097  -0.211
    1UNL     O6   30  -0.099  -0.124  -0.318
    1UNL    C23   31  -0.175   0.020   0.052
    1UNL     H1   32   0.432   0.089  -0.311
    1UNL     H2   33   0.558   0.086  -0.172
    1UNL     H3   34   0.535  -0.055  -0.263
    1UNL     H4   35   0.553   0.084   0.121
    1UNL     H5   36   0.403   0.126   0.044
    1UNL     H6   37   0.404   0.106   0.215
    1UNL     H7   38   0.347  -0.253   0.295
    1UNL     H8   39   0.119  -0.301   0.356
    1UNL     H9   40  -0.078  -0.193   0.253
    1UNL    H10   41  -0.019  -0.223  -0.103
    1UNL    H11   42  -0.181  -0.289   0.090
    1UNL    H12   43  -0.295  -0.243  -0.043
    1UNL    H13   44  -0.385   0.004   0.236
    1UNL    H14   45  -0.458  -0.129   0.163
    1UNL    H15   46  -0.543   0.099   0.089
    1UNL    H16   47  -0.513  -0.000  -0.038
    1UNL    H17   48  -0.342   0.217   0.071
    1UNL    H18   49  -0.423   0.204  -0.095
    1UNL    H19   50  -0.197   0.243  -0.231
    1UNL    H20   51  -0.138   0.293  -0.072
    1UNL    H21   52  -0.010   0.082  -0.254
    1UNL    H22   53   0.067   0.219  -0.203
    1UNL    H23   54   0.183   0.286   0.192
    1UNL    H24   55  -0.364  -0.063  -0.173
    1UNL    H25   56  -0.287   0.048  -0.288
    1UNL    H26   57  -0.157   0.084   0.140
   0.00000   0.00000   0.00000   0.00000   0.00000   0.00000   0.00000   0.00000   0.00000
Generated with MDTraj, t= 22.0
 57
    1UNL     C1    1   0.462  -0.003  -0.286
    1UNL     O1    2   0.379  -0.047  -0.174
    1UNL     C2    3   0.280   0.044  -0.144
    1UNL     O2    4   0.269   0.146  -0.211
    1UNL     N1    5   0.187   0.030  -0.035
    1UNL     C3    6   0.190  -0.072   0.069
    1UNL     C4    7   0.297  -0.109   0.150
    1UNL     O3    8   0.433  -0.071   0.130
    1UNL     C5    9   0.445   0.074   0.113
    1UNL     C6   10   0.270  -0.181   0.271
    1UNL     C7   11   0.141  -0.201   0.312
    1UNL     C8   12   0.035  -0.162   0.232
    1UNL     C9   13   0.059  -0.093   0.116
    1UNL    C10   14  -0.043  -0.027   0.019
    1UNL    C11   15  -0.087  -0.142  -0.084
    1UNL    C12   16  -0.211  -0.206  -0.003
    1UNL     N2   17  -0.271  -0.094   0.078
    1UNL    C13   18  -0.418  -0.069   0.124
    1UNL    C14   19  -0.484   0.012   0.015
    1UNL    C15   20  -0.400   0.136  -0.028
    1UNL    C16   21  -0.252   0.102  -0.072
    1UNL    C17   22  -0.156   0.220  -0.106
    1UNL    C18   23  -0.011   0.178  -0.145
    1UNL    C19   24   0.052   0.097  -0.023
    1UNL    C20   25   0.061   0.200   0.096
    1UNL     O4   26  -0.037   0.255   0.139
    1UNL     O5   27   0.180   0.230   0.144
    1UNL    C21   28  -0.252   0.008  -0.200
    1UNL    C22   29  -0.133  -0.084  -0.209
    1UNL     O6   30  -0.083  -0.094  -0.319
    1UNL    C23   31  -0.186   0.024   0.055
    1UNL     H1   32   0.426   0.091  -0.335
    1UNL     H2   33   0.570   0.005  -0.272
    1UNL     H3   34   0.447  -0.091  -0.353
    1UNL     H4   35   0.507   0.099   0.027
    1UNL     H5   36   0.355   0.120   0.104
    1UNL     H6   37   0.492   0.115   0.205
    1UNL     H7   38   0.349  -0.202   0.332
    1UNL     H8   39   0.125  -0.261   0.400
    1UNL     H9   40  -0.061  -0.163   0.270
    1UNL    H10   41  -0.010  -0.209  -0.100
    1UNL    H11   42  -0.171  -0.277   0.068
    1UNL    H12   43  -0.285  -0.245  -0.069
    1UNL    H13   44  -0.415  -0.015   0.223
    1UNL    H14   45  -0.467  -0.158   0.144
    1UNL    H15   46  -0.580   0.040   0.032
    1UNL    H16   47  -0.505  -0.047  -0.072
    1UNL    H17   48  -0.395   0.210   0.052
    1UNL    H18   49  -0.446   0.185  -0.118
    1UNL    H19   50  -0.198   0.299  -0.168
    1UNL    H20   51  -0.149   0.268  -0.006
    1UNL    H21   52   0.001   0.134  -0.245
    1UNL    H22   53   0.057   0.262  -0.153
    1UNL    H23   54   0.157   0.291   0.217
    1UNL    H24   55  -0.346  -0.052  -0.187
    1UNL    H25   56  -0.276   0.067  -0.297
    1UNL    H26   57  -0.185   0.091   0.142
   0.00000   0.00000   0.00000   0.00000   0.00000   0.00000   0.00000   0.00000   0.00000
Generated with MDTraj, t= 23.0
 57
    1UNL     C1    1   0.381  -0.070  -0.289
    1UNL     O1    2   0.343  -0.051  -0.154
    1UNL     C2    3   0.247   0.043  -0.141
    1UNL     O2    4   0.228   0.119  -0.234
    1UNL     N1    5   0.179   0.051  -0.019
    1UNL     C3    6   0.186  -0.042   0.090
    1UNL     C4    7   0.295  -0.093   0.166
    1UNL     O3    8   0.430  -0.074   0.131
    1UNL     C5    9   0.454   0.063   0.088
    1UNL     C6   10   0.269  -0.173   0.275
    1UNL     C7   11   0.142  -0.204   0.316
    1UNL     C8   12   0.036  -0.149   0.244
    1UNL     C9   13   0.061  -0.076   0.133
    1UNL    C10   14  -0.036  -0.021   0.024
    1UNL    C11   15  -0.053  -0.129  -0.091
    1UNL    C12   16  -0.170  -0.209  -0.017
    1UNL     N2   17  -0.256  -0.104   0.047
    1UNL    C13   18  -0.406  -0.107   0.072
    1UNL    C14   19  -0.481   0.011  -0.001
    1UNL    C15   20  -0.391   0.137  -0.022
    1UNL    C16   21  -0.246   0.101  -0.070
    1UNL    C17   22  -0.158   0.228  -0.096
    1UNL    C18   23  -0.008   0.193  -0.127
    1UNL    C19   24   0.046   0.110  -0.012
    1UNL    C20   25   0.061   0.207   0.106
    1UNL     O4   26  -0.037   0.248   0.169
    1UNL     O5   27   0.196   0.237   0.134
    1UNL    C21   28  -0.241   0.009  -0.197
    1UNL    C22   29  -0.111  -0.066  -0.217
    1UNL     O6   30  -0.058  -0.080  -0.321
    1UNL    C23   31  -0.179   0.022   0.048
    1UNL     H1   32   0.410   0.021  -0.344
    1UNL     H2   33   0.469  -0.133  -0.293
    1UNL     H3   34   0.293  -0.128  -0.324
    1UNL     H4   35   0.400   0.089   0.005
    1UNL     H5   36   0.438   0.132   0.166
    1UNL     H6   37   0.565   0.069   0.065
    1UNL     H7   38   0.356  -0.207   0.334
    1UNL     H8   39   0.117  -0.254   0.411
    1UNL     H9   40  -0.068  -0.182   0.268
    1UNL    H10   41   0.037  -0.179  -0.097
    1UNL    H11   42  -0.107  -0.259   0.056
    1UNL    H12   43  -0.230  -0.271  -0.080
    1UNL    H13   44  -0.423  -0.114   0.182
    1UNL    H14   45  -0.436  -0.198   0.027
    1UNL    H15   46  -0.570   0.038   0.047
    1UNL    H16   47  -0.530  -0.025  -0.088
    1UNL    H17   48  -0.367   0.184   0.074
    1UNL    H18   49  -0.436   0.219  -0.083
    1UNL    H19   50  -0.196   0.274  -0.183
    1UNL    H20   51  -0.157   0.304  -0.012
    1UNL    H21   52   0.008   0.142  -0.222
    1UNL    H22   53   0.046   0.288  -0.135
    1UNL    H23   54   0.197   0.301   0.203
    1UNL    H24   55  -0.327  -0.057  -0.198
    1UNL    H25   56  -0.264   0.087  -0.281
    1UNL    H26   57  -0.191   0.082   0.140
   0.00000   0.00000   0.00000   0.00000   0.00000   0.00000   0.00000   0.00000   0.00000
Generated with MDTraj, t= 24.0
 57
    1UNL     C1    1   0.330  -0.118  -0.294
    1UNL     O1    2   0.288  -0.096  -0.163
    1UNL     C2    3   0.228   0.024  -0.148
    1UNL     O2    4   0.205   0.091  -0.246
    1UNL     N1    5   0.188   0.059  -0.016
    1UNL     C3    6   0.200  -0.034   0.094
    1UNL     C4    7   0.306  -0.087   0.177
    1UNL     O3    8   0.442  -0.059   0.150
    1UNL     C5    9   0.469   0.060   0.089
    1UNL     C6   10   0.269  -0.176   0.279
    1UNL     C7   11   0.138  -0.216   0.308
    1UNL     C8   12   0.038  -0.158   0.226
    1UNL     C9   13   0.066  -0.072   0.126
    1UNL    C10   14  -0.022  -0.011   0.018
    1UNL    C11   15  -0.045  -0.115  -0.096
    1UNL    C12   16  -0.166  -0.193  -0.027
    1UNL     N2   17  -0.239  -0.108   0.072
    1UNL    C13   18  -0.391  -0.104   0.084
    1UNL    C14   19  -0.453  -0.022  -0.020
    1UNL    C15   20  -0.383   0.112  -0.029
    1UNL    C16   21  -0.233   0.107  -0.073
    1UNL    C17   22  -0.157   0.240  -0.091
    1UNL    C18   23  -0.004   0.213  -0.117
    1UNL    C19   24   0.055   0.127  -0.004
    1UNL    C20   25   0.049   0.213   0.121
    1UNL     O4   26  -0.054   0.215   0.183
    1UNL     O5   27   0.153   0.290   0.139
    1UNL    C21   28  -0.220   0.033  -0.209
    1UNL    C22   29  -0.091  -0.041  -0.220
    1UNL     O6   30  -0.031  -0.051  -0.323
    1UNL    C23   31  -0.173   0.023   0.050
    1UNL     H1   32   0.429  -0.077  -0.302
    1UNL     H2   33   0.338  -0.221  -0.318
    1UNL     H3   34   0.255  -0.072  -0.358
    1UNL     H4   35   0.383   0.108   0.061
    1UNL     H5   36   0.533   0.118   0.152
    1UNL     H6   37   0.534   0.033   0.000
    1UNL     H7   38   0.347  -0.209   0.347
    1UNL     H8   39   0.110  -0.273   0.393
    1UNL     H9   40  -0.059  -0.201   0.228
    1UNL    H10   41   0.034  -0.176  -0.119
    1UNL    H11   42  -0.119  -0.278   0.023
    1UNL    H12   43  -0.238  -0.211  -0.107
    1UNL    H13   44  -0.412  -0.046   0.178
    1UNL    H14   45  -0.434  -0.203   0.079
    1UNL    H15   46  -0.561  -0.025  -0.008
    1UNL    H16   47  -0.448  -0.075  -0.112
    1UNL    H17   48  -0.390   0.155   0.072
    1UNL    H18   49  -0.434   0.188  -0.096
    1UNL    H19   50  -0.188   0.298  -0.174
    1UNL    H20   51  -0.165   0.296   0.007
    1UNL    H21   52   0.000   0.158  -0.211
    1UNL    H22   53   0.046   0.311  -0.122
    1UNL    H23   54   0.142   0.346   0.218
    1UNL    H24   55  -0.311  -0.027  -0.221
    1UNL    H25   56  -0.235   0.111  -0.292
    1UNL    H26   57  -0.182   0.079   0.144
   0.00000   0.00000   0.00000   0.00000   0.00000   0.00000   0.00000   0.00000   0.00000
Generated with MDTraj, t= 25.0
 57
    1UNL     C1    1   0.243  -0.147  -0.283
    1UNL     O1    2   0.251  -0.107  -0.147
    1UNL     C2    3   0.255   0.030  -0.131
    1UNL     O2    4   0.282   0.109  -0.220
    1UNL     N1    5   0.196   0.068  -0.006
    1UNL     C3    6   0.197  -0.030   0.096
    1UNL     C4    7   0.306  -0.076   0.173
    1UNL     O3    8   0.436  -0.022   0.159
    1UNL     C5    9   0.448   0.087   0.073
    1UNL     C6   10   0.280  -0.180   0.268
    1UNL     C7   11   0.148  -0.223   0.288
    1UNL     C8   12   0.040  -0.169   0.217
    1UNL     C9   13   0.064  -0.072   0.123
    1UNL    C10   14  -0.025  -0.004   0.020
    1UNL    C11   15  -0.049  -0.110  -0.093
    1UNL    C12   16  -0.171  -0.202  -0.039
    1UNL     N2   17  -0.246  -0.115   0.053
    1UNL    C13   18  -0.395  -0.119   0.074
    1UNL    C14   19  -0.466  -0.013  -0.016
    1UNL    C15   20  -0.382   0.121  -0.037
    1UNL    C16   21  -0.236   0.096  -0.078
    1UNL    C17   22  -0.156   0.226  -0.101
    1UNL    C18   23   0.004   0.208  -0.116
    1UNL    C19   24   0.059   0.130   0.002
    1UNL    C20   25   0.063   0.216   0.126
    1UNL     O4   26  -0.019   0.204   0.216
    1UNL     O5   27   0.161   0.310   0.142
    1UNL    C21   28  -0.222   0.013  -0.218
    1UNL    C22   29  -0.088  -0.048  -0.226
    1UNL     O6   30  -0.031  -0.059  -0.333
    1UNL    C23   31  -0.180   0.015   0.043
    1UNL     H1   32   0.301  -0.070  -0.333
    1UNL     H2   33   0.279  -0.246  -0.299
    1UNL     H3   34   0.143  -0.137  -0.324
    1UNL     H4   35   0.400   0.172   0.114
    1UNL     H5   36   0.555   0.100   0.054
    1UNL     H6   37   0.412   0.064  -0.019
    1UNL     H7   38   0.358  -0.224   0.321
    1UNL     H8   39   0.127  -0.305   0.358
    1UNL     H9   40  -0.062  -0.201   0.237
    1UNL    H10   41   0.036  -0.172  -0.105
    1UNL    H11   42  -0.143  -0.280   0.033
    1UNL    H12   43  -0.236  -0.226  -0.123
    1UNL    H13   44  -0.404  -0.084   0.180
    1UNL    H14   45  -0.429  -0.217   0.043
    1UNL    H15   46  -0.562   0.022   0.032
    1UNL    H16   47  -0.501  -0.056  -0.106
    1UNL    H17   48  -0.381   0.187   0.056
    1UNL    H18   49  -0.440   0.179  -0.116
    1UNL    H19   50  -0.199   0.263  -0.189
    1UNL    H20   51  -0.167   0.300  -0.016
    1UNL    H21   52   0.029   0.173  -0.216
    1UNL    H22   53   0.040   0.311  -0.100
    1UNL    H23   54   0.145   0.362   0.226
    1UNL    H24   55  -0.313  -0.048  -0.239
    1UNL    H25   56  -0.232   0.086  -0.300
    1UNL    H26   57  -0.190   0.060   0.143
   0.00000   0.00000   0.00000   0.00000   0.00000   0.00000   0.00000   0.00000   0.00000
Generated with MDTraj, t= 26.0
 57
    1UNL     C1    1   0.263  -0.128  -0.314
    1UNL     O1    2   0.229  -0.109  -0.183
    1UNL     C2    3   0.245   0.022  -0.146
    1UNL     O2    4   0.290   0.108  -0.220
    1UNL     N1    5   0.198   0.057  -0.016
    1UNL     C3    6   0.201  -0.036   0.097
    1UNL     C4    7   0.314  -0.077   0.175
    1UNL     O3    8   0.445  -0.028   0.172
    1UNL     C5    9   0.450   0.109   0.122
    1UNL     C6   10   0.288  -0.170   0.272
    1UNL     C7   11   0.161  -0.220   0.296
    1UNL     C8   12   0.050  -0.175   0.228
    1UNL     C9   13   0.075  -0.084   0.123
    1UNL    C10   14  -0.027  -0.022   0.030
    1UNL    C11   15  -0.056  -0.131  -0.089
    1UNL    C12   16  -0.177  -0.209  -0.037
    1UNL     N2   17  -0.252  -0.115   0.053
    1UNL    C13   18  -0.403  -0.107   0.057
    1UNL    C14   19  -0.471   0.011  -0.018
    1UNL    C15   20  -0.379   0.138  -0.023
    1UNL    C16   21  -0.232   0.100  -0.062
    1UNL    C17   22  -0.142   0.223  -0.081
    1UNL    C18   23   0.010   0.197  -0.118
    1UNL    C19   24   0.059   0.113  -0.002
    1UNL    C20   25   0.052   0.215   0.111
    1UNL     O4   26  -0.039   0.200   0.189
    1UNL     O5   27   0.143   0.318   0.110
    1UNL    C21   28  -0.218   0.027  -0.202
    1UNL    C22   29  -0.095  -0.054  -0.220
    1UNL     O6   30  -0.033  -0.063  -0.322
    1UNL    C23   31  -0.177   0.011   0.059
    1UNL     H1   32   0.371  -0.094  -0.310
    1UNL     H2   33   0.245  -0.231  -0.338
    1UNL     H3   34   0.217  -0.054  -0.387
    1UNL     H4   35   0.407   0.111   0.021
    1UNL     H5   36   0.392   0.176   0.188
    1UNL     H6   37   0.543   0.150   0.121
    1UNL     H7   38   0.379  -0.216   0.321
    1UNL     H8   39   0.155  -0.306   0.358
    1UNL     H9   40  -0.051  -0.191   0.266
    1UNL    H10   41   0.030  -0.202  -0.104
    1UNL    H11   42  -0.153  -0.287   0.037
    1UNL    H12   43  -0.241  -0.241  -0.120
    1UNL    H13   44  -0.425  -0.084   0.164
    1UNL    H14   45  -0.437  -0.204   0.024
    1UNL    H15   46  -0.565   0.042   0.038
    1UNL    H16   47  -0.511  -0.004  -0.116
    1UNL    H17   48  -0.385   0.187   0.082
    1UNL    H18   49  -0.413   0.215  -0.100
    1UNL    H19   50  -0.185   0.287  -0.153
    1UNL    H20   51  -0.156   0.277   0.016
    1UNL    H21   52   0.028   0.144  -0.213
    1UNL    H22   53   0.052   0.298  -0.138
    1UNL    H23   54   0.128   0.388   0.182
    1UNL    H24   55  -0.310  -0.036  -0.214
    1UNL    H25   56  -0.232   0.090  -0.286
    1UNL    H26   57  -0.195   0.051   0.159
   0.00000   0.00000   0.00000   0.00000   0.00000   0.00000   0.00000   0.00000   0.00000
Generated with MDTraj, t= 27.0
 57
    1UNL     C1    1   0.289  -0.104  -0.319
    1UNL     O1    2   0.298  -0.099  -0.180
    1UNL     C2    3   0.257   0.032  -0.141
    1UNL     O2    4   0.256   0.132  -0.212
    1UNL     N1    5   0.197   0.043  -0.016
    1UNL     C3    6   0.188  -0.051   0.093
    1UNL     C4    7   0.295  -0.080   0.171
    1UNL     O3    8   0.418  -0.026   0.138
    1UNL     C5    9   0.419   0.117   0.138
    1UNL     C6   10   0.270  -0.169   0.279
    1UNL     C7   11   0.139  -0.213   0.311
    1UNL     C8   12   0.035  -0.178   0.230
    1UNL     C9   13   0.058  -0.086   0.126
    1UNL    C10   14  -0.029  -0.024   0.015
    1UNL    C11   15  -0.055  -0.121  -0.098
    1UNL    C12   16  -0.168  -0.207  -0.019
    1UNL     N2   17  -0.242  -0.108   0.072
    1UNL    C13   18  -0.390  -0.082   0.108
    1UNL    C14   19  -0.452   0.003   0.002
    1UNL    C15   20  -0.379   0.129  -0.043
    1UNL    C16   21  -0.229   0.101  -0.082
    1UNL    C17   22  -0.140   0.232  -0.107
    1UNL    C18   23   0.005   0.190  -0.135
    1UNL    C19   24   0.059   0.107  -0.019
    1UNL    C20   25   0.069   0.193   0.112
    1UNL     O4   26  -0.018   0.182   0.197
    1UNL     O5   27   0.170   0.285   0.117
    1UNL    C21   28  -0.237   0.010  -0.200
    1UNL    C22   29  -0.107  -0.060  -0.224
    1UNL     O6   30  -0.053  -0.057  -0.331
    1UNL    C23   31  -0.170   0.022   0.049
    1UNL     H1   32   0.390  -0.145  -0.350
    1UNL     H2   33   0.202  -0.158  -0.351
    1UNL     H3   34   0.298  -0.001  -0.370
    1UNL     H4   35   0.528   0.147   0.135
    1UNL     H5   36   0.372   0.156   0.047
    1UNL     H6   37   0.369   0.159   0.219
    1UNL     H7   38   0.348  -0.187   0.343
    1UNL     H8   39   0.128  -0.288   0.390
    1UNL     H9   40  -0.066  -0.203   0.252
    1UNL    H10   41   0.046  -0.173  -0.125
    1UNL    H11   42  -0.120  -0.290   0.033
    1UNL    H12   43  -0.241  -0.246  -0.093
    1UNL    H13   44  -0.383  -0.035   0.206
    1UNL    H14   45  -0.450  -0.174   0.113
    1UNL    H15   46  -0.557   0.041   0.027
    1UNL    H16   47  -0.479  -0.056  -0.085
    1UNL    H17   48  -0.373   0.205   0.045
    1UNL    H18   49  -0.439   0.181  -0.128
    1UNL    H19   50  -0.190   0.297  -0.177
    1UNL    H20   51  -0.143   0.289  -0.014
    1UNL    H21   52   0.023   0.153  -0.236
    1UNL    H22   53   0.069   0.282  -0.141
    1UNL    H23   54   0.167   0.334   0.204
    1UNL    H24   55  -0.326  -0.056  -0.200
    1UNL    H25   56  -0.264   0.066  -0.284
    1UNL    H26   57  -0.178   0.083   0.139
   0.00000   0.00000   0.00000   0.00000   0.00000   0.00000   0.00000   0.00000   0.00000
Generated with MDTraj, t= 28.0
 57
    1UNL     C1    1   0.373  -0.077  -0.311
    1UNL     O1    2   0.329  -0.076  -0.174
    1UNL     C2    3   0.245   0.035  -0.157
    1UNL     O2    4   0.218   0.118  -0.244
    1UNL     N1    5   0.186   0.046  -0.028
    1UNL     C3    6   0.193  -0.044   0.086
    1UNL     C4    7   0.299  -0.087   0.174
    1UNL     O3    8   0.431  -0.036   0.177
    1UNL     C5    9   0.453   0.087   0.122
    1UNL     C6   10   0.262  -0.176   0.271
    1UNL     C7   11   0.131  -0.219   0.296
    1UNL     C8   12   0.029  -0.162   0.224
    1UNL     C9   13   0.060  -0.083   0.115
    1UNL    C10   14  -0.033  -0.019   0.013
    1UNL    C11   15  -0.065  -0.139  -0.090
    1UNL    C12   16  -0.189  -0.205  -0.020
    1UNL     N2   17  -0.247  -0.105   0.076
    1UNL    C13   18  -0.399  -0.098   0.095
    1UNL    C14   19  -0.474   0.007   0.005
    1UNL    C15   20  -0.383   0.127  -0.024
    1UNL    C16   21  -0.235   0.103  -0.065
    1UNL    C17   22  -0.150   0.236  -0.083
    1UNL    C18   23  -0.005   0.202  -0.124
    1UNL    C19   24   0.054   0.109  -0.015
    1UNL    C20   25   0.067   0.207   0.104
    1UNL     O4   26  -0.025   0.210   0.182
    1UNL     O5   27   0.184   0.277   0.111
    1UNL    C21   28  -0.231   0.026  -0.200
    1UNL    C22   29  -0.114  -0.070  -0.214
    1UNL     O6   30  -0.060  -0.094  -0.321
    1UNL    C23   31  -0.174   0.024   0.056
    1UNL     H1   32   0.372  -0.182  -0.347
    1UNL     H2   33   0.316  -0.016  -0.377
    1UNL     H3   34   0.485  -0.053  -0.316
    1UNL     H4   35   0.524   0.141   0.199
    1UNL     H5   36   0.518   0.068   0.035
    1UNL     H6   37   0.367   0.145   0.092
    1UNL     H7   38   0.342  -0.210   0.340
    1UNL     H8   39   0.110  -0.262   0.390
    1UNL     H9   40  -0.073  -0.204   0.225
    1UNL    H10   41   0.026  -0.214  -0.101
    1UNL    H11   42  -0.141  -0.292   0.028
    1UNL    H12   43  -0.268  -0.252  -0.085
    1UNL    H13   44  -0.425  -0.077   0.197
    1UNL    H14   45  -0.423  -0.203   0.070
    1UNL    H15   46  -0.579   0.034   0.036
    1UNL    H16   47  -0.497  -0.038  -0.094
    1UNL    H17   48  -0.376   0.204   0.063
    1UNL    H18   49  -0.423   0.192  -0.114
    1UNL    H19   50  -0.201   0.304  -0.153
    1UNL    H20   51  -0.156   0.286   0.009
    1UNL    H21   52  -0.002   0.171  -0.230
    1UNL    H22   53   0.060   0.292  -0.140
    1UNL    H23   54   0.175   0.329   0.192
    1UNL    H24   55  -0.320  -0.033  -0.214
    1UNL    H25   56  -0.237   0.087  -0.284
    1UNL    H26   57  -0.178   0.083   0.148
   0.00000   0.00000   0.00000   0.00000   0.00000   0.00000   0.00000   0.00000   0.00000
Generated with MDTraj, t= 29.0
 57
    1UNL     C1    1   0.434  -0.050  -0.262
    1UNL     O1    2   0.356  -0.060  -0.140
    1UNL     C2    3   0.254   0.030  -0.138
    1UNL     O2    4   0.220   0.085  -0.241
    1UNL     N1    5   0.182   0.044  -0.019
    1UNL     C3    6   0.190  -0.057   0.080
    1UNL     C4    7   0.305  -0.097   0.162
    1UNL     O3    8   0.440  -0.054   0.137
    1UNL     C5    9   0.452   0.078   0.079
    1UNL     C6   10   0.284  -0.192   0.262
    1UNL     C7   11   0.152  -0.216   0.299
    1UNL     C8   12   0.040  -0.158   0.235
    1UNL     C9   13   0.056  -0.091   0.118
    1UNL    C10   14  -0.036  -0.017   0.020
    1UNL    C11   15  -0.080  -0.132  -0.090
    1UNL    C12   16  -0.196  -0.204  -0.022
    1UNL     N2   17  -0.257  -0.098   0.070
    1UNL    C13   18  -0.403  -0.098   0.085
    1UNL    C14   19  -0.475   0.015   0.011
    1UNL    C15   20  -0.390   0.139  -0.020
    1UNL    C16   21  -0.249   0.100  -0.067
    1UNL    C17   22  -0.158   0.222  -0.108
    1UNL    C18   23  -0.004   0.187  -0.124
    1UNL    C19   24   0.048   0.112  -0.010
    1UNL    C20   25   0.062   0.218   0.105
    1UNL     O4   26  -0.037   0.244   0.166
    1UNL     O5   27   0.180   0.284   0.131
    1UNL    C21   28  -0.258   0.005  -0.196
    1UNL    C22   29  -0.128  -0.071  -0.217
    1UNL     O6   30  -0.078  -0.071  -0.327
    1UNL    C23   31  -0.179   0.025   0.056
    1UNL     H1   32   0.365  -0.085  -0.336
    1UNL     H2   33   0.473   0.042  -0.294
    1UNL     H3   34   0.516  -0.128  -0.253
    1UNL     H4   35   0.549   0.130   0.121
    1UNL     H5   36   0.463   0.068  -0.025
    1UNL     H6   37   0.360   0.139   0.097
    1UNL     H7   38   0.363  -0.217   0.331
    1UNL     H8   39   0.125  -0.274   0.389
    1UNL     H9   40  -0.057  -0.180   0.265
    1UNL    H10   41   0.010  -0.202  -0.124
    1UNL    H11   42  -0.169  -0.296   0.033
    1UNL    H12   43  -0.270  -0.243  -0.097
    1UNL    H13   44  -0.423  -0.106   0.189
    1UNL    H14   45  -0.444  -0.187   0.032
    1UNL    H15   46  -0.557   0.048   0.079
    1UNL    H16   47  -0.531  -0.027  -0.081
    1UNL    H17   48  -0.377   0.204   0.075
    1UNL    H18   49  -0.432   0.212  -0.103
    1UNL    H19   50  -0.199   0.265  -0.203
    1UNL    H20   51  -0.167   0.292  -0.033
    1UNL    H21   52   0.008   0.132  -0.218
    1UNL    H22   53   0.050   0.283  -0.135
    1UNL    H23   54   0.164   0.330   0.212
    1UNL    H24   55  -0.336  -0.065  -0.190
    1UNL    H25   56  -0.279   0.064  -0.279
    1UNL    H26   57  -0.169   0.085   0.146
   0.00000   0.00000   0.00000   0.00000   0.00000   0.00000   0.00000   0.00000   0.00000
Generated with MDTraj, t= 30.0
 57
    1UNL     C1    1   0.433  -0.066  -0.270
    1UNL     O1    2   0.349  -0.067  -0.157
    1UNL     C2    3   0.270   0.043  -0.148
    1UNL     O2    4   0.257   0.127  -0.235
    1UNL     N1    5   0.182   0.040  -0.038
    1UNL     C3    6   0.187  -0.055   0.069
    1UNL     C4    7   0.298  -0.095   0.142
    1UNL     O3    8   0.427  -0.044   0.112
    1UNL     C5    9   0.458   0.084   0.177
    1UNL     C6   10   0.275  -0.180   0.254
    1UNL     C7   11   0.149  -0.211   0.294
    1UNL     C8   12   0.040  -0.165   0.221
    1UNL     C9   13   0.059  -0.086   0.111
    1UNL    C10   14  -0.035  -0.023   0.013
    1UNL    C11   15  -0.081  -0.136  -0.083
    1UNL    C12   16  -0.194  -0.201  -0.005
    1UNL     N2   17  -0.251  -0.100   0.092
    1UNL    C13   18  -0.394  -0.082   0.118
    1UNL    C14   19  -0.470   0.010   0.020
    1UNL    C15   20  -0.385   0.137  -0.013
    1UNL    C16   21  -0.248   0.097  -0.069
    1UNL    C17   22  -0.167   0.229  -0.113
    1UNL    C18   23  -0.020   0.194  -0.149
    1UNL    C19   24   0.040   0.108  -0.036
    1UNL    C20   25   0.054   0.204   0.084
    1UNL     O4   26  -0.041   0.244   0.144
    1UNL     O5   27   0.174   0.240   0.134
    1UNL    C21   28  -0.256   0.005  -0.192
    1UNL    C22   29  -0.134  -0.074  -0.210
    1UNL     O6   30  -0.071  -0.082  -0.309
    1UNL    C23   31  -0.182   0.027   0.054
    1UNL     H1   32   0.385  -0.008  -0.345
    1UNL     H2   33   0.535  -0.045  -0.259
    1UNL     H3   34   0.437  -0.175  -0.303
    1UNL     H4   35   0.436   0.071   0.288
    1UNL     H5   36   0.564   0.100   0.170
    1UNL     H6   37   0.400   0.171   0.128
    1UNL     H7   38   0.360  -0.215   0.306
    1UNL     H8   39   0.138  -0.283   0.372
    1UNL     H9   40  -0.062  -0.188   0.262
    1UNL    H10   41   0.008  -0.206  -0.110
    1UNL    H11   42  -0.180  -0.298   0.049
    1UNL    H12   43  -0.281  -0.225  -0.072
    1UNL    H13   44  -0.413  -0.035   0.209
    1UNL    H14   45  -0.440  -0.184   0.124
    1UNL    H15   46  -0.572   0.036   0.055
    1UNL    H16   47  -0.482  -0.050  -0.077
    1UNL    H17   48  -0.363   0.199   0.082
    1UNL    H18   49  -0.436   0.210  -0.088
    1UNL    H19   50  -0.216   0.269  -0.204
    1UNL    H20   51  -0.165   0.301  -0.038
    1UNL    H21   52  -0.021   0.135  -0.241
    1UNL    H22   53   0.035   0.289  -0.162
    1UNL    H23   54   0.155   0.296   0.212
    1UNL    H24   55  -0.336  -0.061  -0.185
    1UNL    H25   56  -0.262   0.068  -0.277
    1UNL    H26   57  -0.179   0.103   0.132
   0.00000   0.00000   0.00000   0.00000   0.00000   0.00000   0.00000   0.00000   0.00000
Generated with MDTraj, t= 31.0
 57
    1UNL     C1    1   0.400  -0.031  -0.308
    1UNL     O1    2   0.333  -0.065  -0.193
    1UNL     C2    3   0.272   0.051  -0.146
    1UNL     O2    4   0.271   0.163  -0.198
    1UNL     N1    5   0.182   0.037  -0.034
    1UNL     C3    6   0.189  -0.050   0.084
    1UNL     C4    7   0.298  -0.101   0.159
    1UNL     O3    8   0.430  -0.049   0.150
    1UNL     C5    9   0.440   0.089   0.180
    1UNL     C6   10   0.268  -0.188   0.267
    1UNL     C7   11   0.141  -0.226   0.304
    1UNL     C8   12   0.040  -0.176   0.224
    1UNL     C9   13   0.063  -0.086   0.118
    1UNL    C10   14  -0.032  -0.020   0.012
    1UNL    C11   15  -0.075  -0.141  -0.085
    1UNL    C12   16  -0.190  -0.208  -0.009
    1UNL     N2   17  -0.245  -0.103   0.087
    1UNL    C13   18  -0.385  -0.073   0.120
    1UNL    C14   19  -0.463   0.018   0.024
    1UNL    C15   20  -0.386   0.141  -0.021
    1UNL    C16   21  -0.243   0.099  -0.068
    1UNL    C17   22  -0.166   0.226  -0.120
    1UNL    C18   23  -0.016   0.181  -0.147
    1UNL    C19   24   0.053   0.106  -0.029
    1UNL    C20   25   0.066   0.207   0.083
    1UNL     O4   26  -0.033   0.272   0.112
    1UNL     O5   27   0.192   0.221   0.135
    1UNL    C21   28  -0.266   0.003  -0.197
    1UNL    C22   29  -0.141  -0.088  -0.213
    1UNL     O6   30  -0.095  -0.119  -0.321
    1UNL    C23   31  -0.171   0.025   0.051
    1UNL     H1   32   0.331  -0.000  -0.385
    1UNL     H2   33   0.473   0.043  -0.292
    1UNL     H3   34   0.463  -0.123  -0.334
    1UNL     H4   35   0.355   0.110   0.245
    1UNL     H5   36   0.532   0.103   0.237
    1UNL     H6   37   0.435   0.148   0.079
    1UNL     H7   38   0.355  -0.245   0.313
    1UNL     H8   39   0.121  -0.305   0.380
    1UNL     H9   40  -0.056  -0.195   0.259
    1UNL    H10   41   0.012  -0.207  -0.106
    1UNL    H11   42  -0.158  -0.288   0.062
    1UNL    H12   43  -0.264  -0.266  -0.071
    1UNL    H13   44  -0.379  -0.028   0.213
    1UNL    H14   45  -0.455  -0.160   0.143
    1UNL    H15   46  -0.545   0.060   0.085
    1UNL    H16   47  -0.508  -0.034  -0.068
    1UNL    H17   48  -0.376   0.216   0.065
    1UNL    H18   49  -0.440   0.198  -0.102
    1UNL    H19   50  -0.213   0.266  -0.211
    1UNL    H20   51  -0.180   0.303  -0.045
    1UNL    H21   52  -0.012   0.127  -0.242
    1UNL    H22   53   0.043   0.272  -0.171
    1UNL    H23   54   0.188   0.295   0.203
    1UNL    H24   55  -0.348  -0.060  -0.172
    1UNL    H25   56  -0.280   0.068  -0.278
    1UNL    H26   57  -0.169   0.086   0.142
   0.00000   0.00000   0.00000   0.00000   0.00000   0.00000   0.00000   0.00000   0.00000
Generated with MDTraj, t= 32.0
 57
    1UNL     C1    1   0.392  -0.019  -0.322
    1UNL     O1    2   0.361  -0.040  -0.188
    1UNL     C2    3   0.273   0.063  -0.144
    1UNL     O2    4   0.255   0.169  -0.206
    1UNL     N1    5   0.188   0.032  -0.028
    1UNL     C3    6   0.196  -0.058   0.087
    1UNL     C4    7   0.302  -0.098   0.174
    1UNL     O3    8   0.437  -0.057   0.159
    1UNL     C5    9   0.442   0.063   0.097
    1UNL     C6   10   0.270  -0.191   0.274
    1UNL     C7   11   0.141  -0.229   0.306
    1UNL     C8   12   0.035  -0.178   0.232
    1UNL     C9   13   0.061  -0.089   0.124
    1UNL    C10   14  -0.035  -0.025   0.020
    1UNL    C11   15  -0.079  -0.147  -0.078
    1UNL    C12   16  -0.200  -0.208   0.001
    1UNL     N2   17  -0.253  -0.099   0.081
    1UNL    C13   18  -0.396  -0.072   0.104
    1UNL    C14   19  -0.467   0.041   0.018
    1UNL    C15   20  -0.380   0.158  -0.028
    1UNL    C16   21  -0.239   0.093  -0.074
    1UNL    C17   22  -0.148   0.207  -0.127
    1UNL    C18   23  -0.001   0.169  -0.143
    1UNL    C19   24   0.055   0.099  -0.022
    1UNL    C20   25   0.060   0.205   0.094
    1UNL     O4   26  -0.048   0.261   0.113
    1UNL     O5   27   0.172   0.237   0.161
    1UNL    C21   28  -0.263  -0.013  -0.190
    1UNL    C22   29  -0.136  -0.090  -0.204
    1UNL     O6   30  -0.076  -0.105  -0.309
    1UNL    C23   31  -0.179   0.023   0.055
    1UNL     H1   32   0.308  -0.028  -0.392
    1UNL     H2   33   0.434   0.079  -0.333
    1UNL     H3   34   0.476  -0.097  -0.343
    1UNL     H4   35   0.383   0.129   0.156
    1UNL     H5   36   0.548   0.093   0.082
    1UNL     H6   37   0.397   0.037  -0.004
    1UNL     H7   38   0.345  -0.225   0.335
    1UNL     H8   39   0.126  -0.290   0.390
    1UNL     H9   40  -0.068  -0.195   0.268
    1UNL    H10   41  -0.008  -0.223  -0.101
    1UNL    H11   42  -0.178  -0.297   0.064
    1UNL    H12   43  -0.285  -0.248  -0.059
    1UNL    H13   44  -0.409  -0.047   0.204
    1UNL    H14   45  -0.450  -0.173   0.108
    1UNL    H15   46  -0.557   0.086   0.064
    1UNL    H16   47  -0.511  -0.004  -0.077
    1UNL    H17   48  -0.367   0.231   0.057
    1UNL    H18   49  -0.417   0.221  -0.108
    1UNL    H19   50  -0.196   0.248  -0.214
    1UNL    H20   51  -0.155   0.296  -0.060
    1UNL    H21   52   0.018   0.119  -0.239
    1UNL    H22   53   0.062   0.260  -0.155
    1UNL    H23   54   0.154   0.318   0.218
    1UNL    H24   55  -0.344  -0.080  -0.160
    1UNL    H25   56  -0.273   0.043  -0.280
    1UNL    H26   57  -0.194   0.087   0.142
   0.00000   0.00000   0.00000   0.00000   0.00000   0.00000   0.00000   0.00000   0.00000
Generated with MDTraj, t= 33.0
 57
    1UNL     C1    1   0.434  -0.039  -0.269
    1UNL     O1    2   0.351  -0.051  -0.156
    1UNL     C2    3   0.262   0.049  -0.150
    1UNL     O2    4   0.236   0.136  -0.231
    1UNL     N1    5   0.178   0.042  -0.034
    1UNL     C3    6   0.190  -0.043   0.079
    1UNL     C4    7   0.306  -0.095   0.151
    1UNL     O3    8   0.437  -0.093   0.104
    1UNL     C5    9   0.476   0.043   0.077
    1UNL     C6   10   0.282  -0.169   0.265
    1UNL     C7   11   0.152  -0.202   0.301
    1UNL     C8   12   0.043  -0.143   0.242
    1UNL     C9   13   0.059  -0.068   0.127
    1UNL    C10   14  -0.042  -0.018   0.021
    1UNL    C11   15  -0.085  -0.140  -0.072
    1UNL    C12   16  -0.213  -0.199  -0.013
    1UNL     N2   17  -0.263  -0.098   0.088
    1UNL    C13   18  -0.406  -0.079   0.110
    1UNL    C14   19  -0.468   0.003  -0.002
    1UNL    C15   20  -0.390   0.128  -0.036
    1UNL    C16   21  -0.243   0.095  -0.078
    1UNL    C17   22  -0.163   0.223  -0.110
    1UNL    C18   23  -0.013   0.196  -0.138
    1UNL    C19   24   0.038   0.112  -0.023
    1UNL    C20   25   0.057   0.199   0.107
    1UNL     O4   26  -0.049   0.246   0.151
    1UNL     O5   27   0.176   0.232   0.167
    1UNL    C21   28  -0.246   0.006  -0.204
    1UNL    C22   29  -0.124  -0.081  -0.203
    1UNL     O6   30  -0.060  -0.094  -0.302
    1UNL    C23   31  -0.185   0.027   0.058
    1UNL     H1   32   0.387  -0.027  -0.370
    1UNL     H2   33   0.491   0.052  -0.259
    1UNL     H3   34   0.502  -0.135  -0.267
    1UNL     H4   35   0.456   0.058  -0.024
    1UNL     H5   36   0.415   0.123   0.136
    1UNL     H6   37   0.584   0.054   0.096
    1UNL     H7   38   0.371  -0.214   0.316
    1UNL     H8   39   0.142  -0.234   0.406
    1UNL     H9   40  -0.060  -0.168   0.270
    1UNL    H10   41  -0.010  -0.208  -0.085
    1UNL    H11   42  -0.195  -0.301   0.025
    1UNL    H12   43  -0.286  -0.215  -0.095
    1UNL    H13   44  -0.422  -0.033   0.203
    1UNL    H14   45  -0.459  -0.178   0.130
    1UNL    H15   46  -0.568   0.036   0.036
    1UNL    H16   47  -0.498  -0.052  -0.095
    1UNL    H17   48  -0.388   0.203   0.040
    1UNL    H18   49  -0.435   0.181  -0.117
    1UNL    H19   50  -0.211   0.281  -0.184
    1UNL    H20   51  -0.173   0.295  -0.021
    1UNL    H21   52  -0.000   0.141  -0.233
    1UNL    H22   53   0.043   0.292  -0.145
    1UNL    H23   54   0.161   0.306   0.229
    1UNL    H24   55  -0.330  -0.065  -0.208
    1UNL    H25   56  -0.237   0.074  -0.286
    1UNL    H26   57  -0.193   0.103   0.137
   0.00000   0.00000   0.00000   0.00000   0.00000   0.00000   0.00000   0.00000   0.00000
Generated with MDTraj, t= 34.0
 57
    1UNL     C1    1   0.415  -0.053  -0.276
    1UNL     O1    2   0.342  -0.068  -0.153
    1UNL     C2    3   0.253   0.036  -0.144
    1UNL     O2    4   0.229   0.118  -0.232
    1UNL     N1    5   0.175   0.043  -0.028
    1UNL     C3    6   0.179  -0.045   0.086
    1UNL     C4    7   0.291  -0.103   0.149
    1UNL     O3    8   0.424  -0.084   0.106
    1UNL     C5    9   0.444   0.059   0.102
    1UNL     C6   10   0.269  -0.192   0.252
    1UNL     C7   11   0.142  -0.202   0.307
    1UNL     C8   12   0.034  -0.137   0.248
    1UNL     C9   13   0.052  -0.052   0.140
    1UNL    C10   14  -0.040  -0.004   0.026
    1UNL    C11   15  -0.061  -0.132  -0.079
    1UNL    C12   16  -0.179  -0.210  -0.010
    1UNL     N2   17  -0.248  -0.110   0.082
    1UNL    C13   18  -0.394  -0.110   0.091
    1UNL    C14   19  -0.472  -0.012  -0.004
    1UNL    C15   20  -0.393   0.123  -0.028
    1UNL    C16   21  -0.246   0.101  -0.063
    1UNL    C17   22  -0.167   0.238  -0.104
    1UNL    C18   23  -0.016   0.201  -0.141
    1UNL    C19   24   0.044   0.118  -0.023
    1UNL    C20   25   0.073   0.214   0.097
    1UNL     O4   26  -0.027   0.250   0.161
    1UNL     O5   27   0.204   0.251   0.132
    1UNL    C21   28  -0.246   0.016  -0.189
    1UNL    C22   29  -0.116  -0.068  -0.209
    1UNL     O6   30  -0.064  -0.076  -0.317
    1UNL    C23   31  -0.185   0.024   0.061
    1UNL     H1   32   0.362  -0.057  -0.372
    1UNL     H2   33   0.453   0.046  -0.278
    1UNL     H3   34   0.500  -0.130  -0.277
    1UNL     H4   35   0.547   0.075   0.099
    1UNL     H5   36   0.399   0.109   0.005
    1UNL     H6   37   0.401   0.109   0.189
    1UNL     H7   38   0.355  -0.231   0.304
    1UNL     H8   39   0.127  -0.256   0.397
    1UNL     H9   40  -0.064  -0.158   0.280
    1UNL    H10   41   0.024  -0.186  -0.093
    1UNL    H11   42  -0.141  -0.296   0.048
    1UNL    H12   43  -0.242  -0.252  -0.090
    1UNL    H13   44  -0.425  -0.098   0.191
    1UNL    H14   45  -0.431  -0.213   0.063
    1UNL    H15   46  -0.578   0.014   0.029
    1UNL    H16   47  -0.493  -0.067  -0.097
    1UNL    H17   48  -0.394   0.185   0.054
    1UNL    H18   49  -0.436   0.183  -0.102
    1UNL    H19   50  -0.205   0.300  -0.180
    1UNL    H20   51  -0.175   0.309  -0.014
    1UNL    H21   52  -0.016   0.146  -0.237
    1UNL    H22   53   0.041   0.295  -0.151
    1UNL    H23   54   0.200   0.305   0.210
    1UNL    H24   55  -0.325  -0.060  -0.186
    1UNL    H25   56  -0.256   0.078  -0.278
    1UNL    H26   57  -0.170   0.090   0.147
   0.00000   0.00000   0.00000   0.00000   0.00000   0.00000   0.00000   0.00000   0.00000
Generated with MDTraj, t= 35.0
 57
    1UNL     C1    1   0.351  -0.071  -0.313
    1UNL     O1    2   0.339  -0.072  -0.174
    1UNL     C2    3   0.259   0.038  -0.139
    1UNL     O2    4   0.235   0.124  -0.223
    1UNL     N1    5   0.189   0.045  -0.020
    1UNL     C3    6   0.195  -0.048   0.095
    1UNL     C4    7   0.297  -0.087   0.183
    1UNL     O3    8   0.424  -0.037   0.190
    1UNL     C5    9   0.448   0.069   0.100
    1UNL     C6   10   0.263  -0.182   0.281
    1UNL     C7   11   0.134  -0.232   0.297
    1UNL     C8   12   0.032  -0.193   0.209
    1UNL     C9   13   0.066  -0.099   0.111
    1UNL    C10   14  -0.024  -0.028   0.018
    1UNL    C11   15  -0.065  -0.141  -0.097
    1UNL    C12   16  -0.186  -0.212  -0.022
    1UNL     N2   17  -0.252  -0.110   0.070
    1UNL    C13   18  -0.399  -0.098   0.100
    1UNL    C14   19  -0.469   0.011   0.016
    1UNL    C15   20  -0.384   0.136  -0.024
    1UNL    C16   21  -0.241   0.097  -0.061
    1UNL    C17   22  -0.157   0.222  -0.095
    1UNL    C18   23  -0.009   0.193  -0.127
    1UNL    C19   24   0.054   0.108  -0.014
    1UNL    C20   25   0.071   0.224   0.089
    1UNL     O4   26  -0.024   0.255   0.154
    1UNL     O5   27   0.189   0.292   0.099
    1UNL    C21   28  -0.240   0.014  -0.187
    1UNL    C22   29  -0.119  -0.067  -0.210
    1UNL     O6   30  -0.065  -0.059  -0.318
    1UNL    C23   31  -0.172   0.019   0.061
    1UNL     H1   32   0.261  -0.090  -0.368
    1UNL     H2   33   0.390   0.019  -0.348
    1UNL     H3   34   0.420  -0.157  -0.335
    1UNL     H4   35   0.515   0.133   0.150
    1UNL     H5   36   0.509   0.024   0.009
    1UNL     H6   37   0.362   0.124   0.062
    1UNL     H7   38   0.342  -0.233   0.327
    1UNL     H8   39   0.118  -0.309   0.372
    1UNL     H9   40  -0.072  -0.223   0.235
    1UNL    H10   41   0.010  -0.206  -0.128
    1UNL    H11   42  -0.150  -0.299   0.036
    1UNL    H12   43  -0.255  -0.251  -0.097
    1UNL    H13   44  -0.428  -0.075   0.201
    1UNL    H14   45  -0.449  -0.196   0.076
    1UNL    H15   46  -0.567   0.045   0.069
    1UNL    H16   47  -0.497  -0.030  -0.081
    1UNL    H17   48  -0.384   0.205   0.051
    1UNL    H18   49  -0.428   0.182  -0.104
    1UNL    H19   50  -0.205   0.277  -0.174
    1UNL    H20   51  -0.158   0.303  -0.015
    1UNL    H21   52  -0.005   0.145  -0.227
    1UNL    H22   53   0.050   0.286  -0.127
    1UNL    H23   54   0.193   0.347   0.176
    1UNL    H24   55  -0.322  -0.060  -0.192
    1UNL    H25   56  -0.255   0.079  -0.277
    1UNL    H26   57  -0.174   0.073   0.156
   0.00000   0.00000   0.00000   0.00000   0.00000   0.00000   0.00000   0.00000   0.00000
Generated with MDTraj, t= 36.0
 57
    1UNL     C1    1   0.337  -0.101  -0.298
    1UNL     O1    2   0.303  -0.092  -0.167
    1UNL     C2    3   0.260   0.040  -0.140
    1UNL     O2    4   0.265   0.123  -0.232
    1UNL     N1    5   0.196   0.059  -0.016
    1UNL     C3    6   0.197  -0.046   0.086
    1UNL     C4    7   0.302  -0.077   0.176
    1UNL     O3    8   0.424  -0.005   0.183
    1UNL     C5    9   0.453   0.092   0.089
    1UNL     C6   10   0.264  -0.169   0.279
    1UNL     C7   11   0.138  -0.227   0.297
    1UNL     C8   12   0.043  -0.186   0.205
    1UNL     C9   13   0.069  -0.095   0.108
    1UNL    C10   14  -0.023  -0.031   0.004
    1UNL    C11   15  -0.072  -0.138  -0.102
    1UNL    C12   16  -0.191  -0.212  -0.027
    1UNL     N2   17  -0.244  -0.108   0.066
    1UNL    C13   18  -0.381  -0.075   0.111
    1UNL    C14   19  -0.461   0.023   0.019
    1UNL    C15   20  -0.376   0.147  -0.031
    1UNL    C16   21  -0.231   0.099  -0.072
    1UNL    C17   22  -0.150   0.235  -0.099
    1UNL    C18   23  -0.000   0.208  -0.123
    1UNL    C19   24   0.056   0.113  -0.017
    1UNL    C20   25   0.054   0.197   0.115
    1UNL     O4   26  -0.027   0.182   0.201
    1UNL     O5   27   0.154   0.292   0.130
    1UNL    C21   28  -0.244   0.014  -0.204
    1UNL    C22   29  -0.123  -0.074  -0.227
    1UNL     O6   30  -0.074  -0.081  -0.336
    1UNL    C23   31  -0.164   0.014   0.043
    1UNL     H1   32   0.251  -0.100  -0.360
    1UNL     H2   33   0.410  -0.032  -0.327
    1UNL     H3   34   0.370  -0.209  -0.311
    1UNL     H4   35   0.545   0.140   0.123
    1UNL     H5   36   0.474   0.039  -0.009
    1UNL     H6   37   0.373   0.163   0.074
    1UNL     H7   38   0.353  -0.196   0.343
    1UNL     H8   39   0.119  -0.310   0.364
    1UNL     H9   40  -0.057  -0.211   0.220
    1UNL    H10   41   0.008  -0.209  -0.113
    1UNL    H11   42  -0.163  -0.303   0.029
    1UNL    H12   43  -0.269  -0.239  -0.097
    1UNL    H13   44  -0.372  -0.034   0.212
    1UNL    H14   45  -0.449  -0.162   0.120
    1UNL    H15   46  -0.551   0.077   0.076
    1UNL    H16   47  -0.504  -0.031  -0.064
    1UNL    H17   48  -0.377   0.218   0.044
    1UNL    H18   49  -0.425   0.192  -0.108
    1UNL    H19   50  -0.195   0.302  -0.172
    1UNL    H20   51  -0.163   0.305  -0.011
    1UNL    H21   52   0.019   0.171  -0.226
    1UNL    H22   53   0.072   0.292  -0.117
    1UNL    H23   54   0.145   0.317   0.226
    1UNL    H24   55  -0.334  -0.048  -0.202
    1UNL    H25   56  -0.263   0.076  -0.299
    1UNL    H26   57  -0.161   0.070   0.136
   0.00000   0.00000   0.00000   0.00000   0.00000   0.00000   0.00000   0.00000   0.00000
Generated with MDTraj, t= 37.0
 57
    1UNL     C1    1   0.341  -0.122  -0.284
    1UNL     O1    2   0.283  -0.111  -0.161
    1UNL     C2    3   0.245   0.022  -0.147
    1UNL     O2    4   0.254   0.105  -0.239
    1UNL     N1    5   0.186   0.047  -0.023
    1UNL     C3    6   0.191  -0.042   0.089
    1UNL     C4    7   0.303  -0.078   0.165
    1UNL     O3    8   0.434  -0.035   0.130
    1UNL     C5    9   0.443   0.102   0.101
    1UNL     C6   10   0.284  -0.166   0.268
    1UNL     C7   11   0.158  -0.201   0.307
    1UNL     C8   12   0.044  -0.154   0.242
    1UNL     C9   13   0.062  -0.082   0.128
    1UNL    C10   14  -0.025  -0.018   0.023
    1UNL    C11   15  -0.064  -0.125  -0.092
    1UNL    C12   16  -0.181  -0.202  -0.032
    1UNL     N2   17  -0.244  -0.110   0.061
    1UNL    C13   18  -0.391  -0.103   0.065
    1UNL    C14   19  -0.457  -0.000  -0.026
    1UNL    C15   20  -0.380   0.136  -0.020
    1UNL    C16   21  -0.233   0.110  -0.062
    1UNL    C17   22  -0.146   0.243  -0.076
    1UNL    C18   23  -0.001   0.208  -0.114
    1UNL    C19   24   0.055   0.110  -0.006
    1UNL    C20   25   0.062   0.192   0.121
    1UNL     O4   26  -0.012   0.161   0.207
    1UNL     O5   27   0.141   0.306   0.117
    1UNL    C21   28  -0.236   0.035  -0.204
    1UNL    C22   29  -0.115  -0.051  -0.220
    1UNL     O6   30  -0.066  -0.065  -0.326
    1UNL    C23   31  -0.176   0.023   0.050
    1UNL     H1   32   0.272  -0.087  -0.360
    1UNL     H2   33   0.438  -0.077  -0.291
    1UNL     H3   34   0.341  -0.234  -0.313
    1UNL     H4   35   0.537   0.143   0.151
    1UNL     H5   36   0.451   0.115  -0.007
    1UNL     H6   37   0.355   0.156   0.130
    1UNL     H7   38   0.366  -0.192   0.324
    1UNL     H8   39   0.143  -0.266   0.390
    1UNL     H9   40  -0.061  -0.165   0.275
    1UNL    H10   41   0.026  -0.190  -0.109
    1UNL    H11   42  -0.147  -0.290   0.025
    1UNL    H12   43  -0.253  -0.233  -0.107
    1UNL    H13   44  -0.425  -0.078   0.167
    1UNL    H14   45  -0.429  -0.203   0.042
    1UNL    H15   46  -0.567   0.018   0.014
    1UNL    H16   47  -0.475  -0.022  -0.132
    1UNL    H17   48  -0.397   0.179   0.072
    1UNL    H18   49  -0.421   0.205  -0.085
    1UNL    H19   50  -0.188   0.313  -0.152
    1UNL    H20   51  -0.157   0.307   0.013
    1UNL    H21   52   0.018   0.153  -0.210
    1UNL    H22   53   0.057   0.300  -0.134
    1UNL    H23   54   0.108   0.363   0.194
    1UNL    H24   55  -0.324  -0.029  -0.222
    1UNL    H25   56  -0.249   0.115  -0.288
    1UNL    H26   57  -0.192   0.074   0.146
   0.00000   0.00000   0.00000   0.00000   0.00000   0.00000   0.00000   0.00000   0.00000
Generated with MDTraj, t= 38.0
 57
    1UNL     C1    1   0.316  -0.122  -0.295
    1UNL     O1    2   0.295  -0.097  -0.160
    1UNL     C2    3   0.233   0.023  -0.145
    1UNL     O2    4   0.219   0.103  -0.238
    1UNL     N1    5   0.180   0.046  -0.019
    1UNL     C3    6   0.181  -0.044   0.093
    1UNL     C4    7   0.298  -0.085   0.166
    1UNL     O3    8   0.427  -0.054   0.126
    1UNL     C5    9   0.455   0.087   0.107
    1UNL     C6   10   0.283  -0.172   0.271
    1UNL     C7   11   0.155  -0.219   0.305
    1UNL     C8   12   0.040  -0.167   0.247
    1UNL     C9   13   0.052  -0.084   0.135
    1UNL    C10   14  -0.034  -0.008   0.031
    1UNL    C11   15  -0.054  -0.114  -0.083
    1UNL    C12   16  -0.176  -0.204  -0.037
    1UNL     N2   17  -0.250  -0.121   0.057
    1UNL    C13   18  -0.401  -0.126   0.056
    1UNL    C14   19  -0.466  -0.008  -0.012
    1UNL    C15   20  -0.390   0.126  -0.034
    1UNL    C16   21  -0.239   0.101  -0.071
    1UNL    C17   22  -0.152   0.229  -0.095
    1UNL    C18   23   0.001   0.212  -0.118
    1UNL    C19   24   0.055   0.124  -0.004
    1UNL    C20   25   0.074   0.219   0.117
    1UNL     O4   26   0.008   0.208   0.217
    1UNL     O5   27   0.163   0.315   0.093
    1UNL    C21   28  -0.231   0.016  -0.205
    1UNL    C22   29  -0.094  -0.040  -0.210
    1UNL     O6   30  -0.018  -0.032  -0.303
    1UNL    C23   31  -0.186   0.015   0.057
    1UNL     H1   32   0.216  -0.131  -0.343
    1UNL     H2   33   0.381  -0.052  -0.350
    1UNL     H3   34   0.354  -0.229  -0.313
    1UNL     H4   35   0.564   0.106   0.071
    1UNL     H5   36   0.387   0.130   0.042
    1UNL     H6   37   0.438   0.139   0.200
    1UNL     H7   38   0.370  -0.204   0.332
    1UNL     H8   39   0.142  -0.269   0.402
    1UNL     H9   40  -0.056  -0.207   0.271
    1UNL    H10   41   0.037  -0.174  -0.119
    1UNL    H11   42  -0.148  -0.296   0.013
    1UNL    H12   43  -0.241  -0.224  -0.121
    1UNL    H13   44  -0.425  -0.129   0.164
    1UNL    H14   45  -0.435  -0.219   0.012
    1UNL    H15   46  -0.572   0.021   0.031
    1UNL    H16   47  -0.498  -0.044  -0.112
    1UNL    H17   48  -0.397   0.186   0.053
    1UNL    H18   49  -0.444   0.197  -0.094
    1UNL    H19   50  -0.204   0.289  -0.176
    1UNL    H20   51  -0.155   0.296  -0.010
    1UNL    H21   52   0.024   0.177  -0.221
    1UNL    H22   53   0.058   0.305  -0.103
    1UNL    H23   54   0.152   0.383   0.166
    1UNL    H24   55  -0.317  -0.057  -0.215
    1UNL    H25   56  -0.243   0.087  -0.295
    1UNL    H26   57  -0.201   0.068   0.152
   0.00000   0.00000   0.00000   0.00000   0.00000   0.00000   0.00000   0.00000   0.00000
Generated with MDTraj, t= 39.0
 57
    1UNL     C1    1   0.300  -0.112  -0.315
    1UNL     O1    2   0.292  -0.080  -0.175
    1UNL     C2    3   0.240   0.045  -0.149
    1UNL     O2    4   0.252   0.136  -0.231
    1UNL     N1    5   0.191   0.064  -0.015
    1UNL     C3    6   0.196  -0.043   0.085
    1UNL     C4    7   0.299  -0.099   0.161
    1UNL     O3    8   0.436  -0.057   0.171
    1UNL     C5    9   0.465   0.059   0.103
    1UNL     C6   10   0.266  -0.197   0.253
    1UNL     C7   11   0.134  -0.224   0.293
    1UNL     C8   12   0.033  -0.163   0.228
    1UNL     C9   13   0.064  -0.073   0.127
    1UNL    C10   14  -0.033  -0.005   0.023
    1UNL    C11   15  -0.054  -0.118  -0.084
    1UNL    C12   16  -0.169  -0.201  -0.027
    1UNL     N2   17  -0.242  -0.110   0.072
    1UNL    C13   18  -0.387  -0.106   0.104
    1UNL    C14   19  -0.455  -0.018  -0.001
    1UNL    C15   20  -0.384   0.119  -0.046
    1UNL    C16   21  -0.233   0.102  -0.075
    1UNL    C17   22  -0.159   0.231  -0.096
    1UNL    C18   23  -0.001   0.217  -0.121
    1UNL    C19   24   0.054   0.127   0.002
    1UNL    C20   25   0.060   0.226   0.120
    1UNL     O4   26  -0.033   0.216   0.201
    1UNL     O5   27   0.159   0.319   0.129
    1UNL    C21   28  -0.218   0.019  -0.211
    1UNL    C22   29  -0.099  -0.067  -0.218
    1UNL     O6   30  -0.049  -0.100  -0.325
    1UNL    C23   31  -0.175   0.025   0.055
    1UNL     H1   32   0.197  -0.104  -0.351
    1UNL     H2   33   0.368  -0.053  -0.376
    1UNL     H3   34   0.324  -0.221  -0.338
    1UNL     H4   35   0.581   0.058   0.102
    1UNL     H5   36   0.427   0.062   0.008
    1UNL     H6   37   0.431   0.143   0.162
    1UNL     H7   38   0.345  -0.227   0.321
    1UNL     H8   39   0.125  -0.291   0.373
    1UNL     H9   40  -0.068  -0.193   0.249
    1UNL    H10   41   0.042  -0.183  -0.102
    1UNL    H11   42  -0.125  -0.277   0.035
    1UNL    H12   43  -0.233  -0.246  -0.102
    1UNL    H13   44  -0.395  -0.059   0.205
    1UNL    H14   45  -0.415  -0.211   0.110
    1UNL    H15   46  -0.564  -0.002   0.029
    1UNL    H16   47  -0.469  -0.076  -0.097
    1UNL    H17   48  -0.402   0.202   0.018
    1UNL    H18   49  -0.433   0.169  -0.131
    1UNL    H19   50  -0.201   0.282  -0.191
    1UNL    H20   51  -0.176   0.295  -0.013
    1UNL    H21   52   0.016   0.168  -0.218
    1UNL    H22   53   0.043   0.317  -0.126
    1UNL    H23   54   0.148   0.362   0.216
    1UNL    H24   55  -0.313  -0.044  -0.221
    1UNL    H25   56  -0.224   0.096  -0.296
    1UNL    H26   57  -0.187   0.091   0.141
   0.00000   0.00000   0.00000   0.00000   0.00000   0.00000   0.00000   0.00000   0.00000
Generated with MDTraj, t= 40.0
 57
    1UNL     C1    1   0.305  -0.083  -0.298
    1UNL     O1    2   0.278  -0.074  -0.167
    1UNL     C2    3   0.242   0.048  -0.136
    1UNL     O2    4   0.261   0.151  -0.200
    1UNL     N1    5   0.185   0.060  -0.008
    1UNL     C3    6   0.192  -0.036   0.100
    1UNL     C4    7   0.302  -0.089   0.161
    1UNL     O3    8   0.436  -0.053   0.145
    1UNL     C5    9   0.470   0.059   0.069
    1UNL     C6   10   0.281  -0.181   0.266
    1UNL     C7   11   0.153  -0.225   0.295
    1UNL     C8   12   0.042  -0.177   0.231
    1UNL     C9   13   0.065  -0.086   0.129
    1UNL    C10   14  -0.031  -0.024   0.024
    1UNL    C11   15  -0.048  -0.136  -0.082
    1UNL    C12   16  -0.166  -0.214  -0.017
    1UNL     N2   17  -0.244  -0.112   0.073
    1UNL    C13   18  -0.392  -0.075   0.095
    1UNL    C14   19  -0.464   0.010  -0.011
    1UNL    C15   20  -0.378   0.132  -0.037
    1UNL    C16   21  -0.232   0.101  -0.074
    1UNL    C17   22  -0.149   0.225  -0.121
    1UNL    C18   23   0.004   0.187  -0.130
    1UNL    C19   24   0.046   0.115  -0.006
    1UNL    C20   25   0.047   0.213   0.110
    1UNL     O4   26  -0.060   0.241   0.165
    1UNL     O5   27   0.160   0.272   0.146
    1UNL    C21   28  -0.230   0.007  -0.197
    1UNL    C22   29  -0.099  -0.069  -0.213
    1UNL     O6   30  -0.055  -0.079  -0.325
    1UNL    C23   31  -0.167   0.018   0.053
    1UNL     H1   32   0.215  -0.057  -0.353
    1UNL     H2   33   0.395  -0.033  -0.329
    1UNL     H3   34   0.319  -0.191  -0.320
    1UNL     H4   35   0.568   0.091   0.115
    1UNL     H5   36   0.482   0.031  -0.031
    1UNL     H6   37   0.395   0.134   0.080
    1UNL     H7   38   0.360  -0.234   0.310
    1UNL     H8   39   0.139  -0.318   0.352
    1UNL     H9   40  -0.061  -0.211   0.252
    1UNL    H10   41   0.051  -0.197  -0.105
    1UNL    H11   42  -0.131  -0.294   0.045
    1UNL    H12   43  -0.238  -0.252  -0.087
    1UNL    H13   44  -0.384  -0.023   0.196
    1UNL    H14   45  -0.446  -0.166   0.101
    1UNL    H15   46  -0.561   0.046   0.033
    1UNL    H16   47  -0.496  -0.044  -0.108
    1UNL    H17   48  -0.381   0.203   0.046
    1UNL    H18   49  -0.423   0.203  -0.110
    1UNL    H19   50  -0.175   0.258  -0.229
    1UNL    H20   51  -0.155   0.305  -0.050
    1UNL    H21   52   0.040   0.126  -0.214
    1UNL    H22   53   0.057   0.283  -0.134
    1UNL    H23   54   0.143   0.327   0.223
    1UNL    H24   55  -0.321  -0.055  -0.186
    1UNL    H25   56  -0.250   0.073  -0.287
    1UNL    H26   57  -0.175   0.081   0.141
   0.00000   0.00000   0.00000   0.00000   0.00000   0.00000   0.00000   0.00000   0.00000
Generated with MDTraj, t= 41.0
 57
    1UNL     C1    1   0.347  -0.091  -0.319
    1UNL     O1    2   0.308  -0.090  -0.181
    1UNL     C2    3   0.257   0.033  -0.148
    1UNL     O2    4   0.265   0.132  -0.223
    1UNL     N1    5   0.187   0.047  -0.018
    1UNL     C3    6   0.188  -0.046   0.091
    1UNL     C4    7   0.304  -0.087   0.164
    1UNL     O3    8   0.435  -0.049   0.134
    1UNL     C5    9   0.465   0.077   0.068
    1UNL     C6   10   0.279  -0.170   0.270
    1UNL     C7   11   0.154  -0.209   0.300
    1UNL     C8   12   0.040  -0.167   0.235
    1UNL     C9   13   0.058  -0.076   0.134
    1UNL    C10   14  -0.034  -0.015   0.035
    1UNL    C11   15  -0.062  -0.127  -0.070
    1UNL    C12   16  -0.183  -0.212  -0.009
    1UNL     N2   17  -0.261  -0.113   0.058
    1UNL    C13   18  -0.411  -0.113   0.070
    1UNL    C14   19  -0.474   0.004  -0.013
    1UNL    C15   20  -0.387   0.131  -0.030
    1UNL    C16   21  -0.239   0.106  -0.059
    1UNL    C17   22  -0.163   0.234  -0.091
    1UNL    C18   23  -0.017   0.198  -0.126
    1UNL    C19   24   0.050   0.117  -0.007
    1UNL    C20   25   0.058   0.210   0.106
    1UNL     O4   26  -0.044   0.268   0.135
    1UNL     O5   27   0.168   0.230   0.175
    1UNL    C21   28  -0.229   0.008  -0.188
    1UNL    C22   29  -0.099  -0.057  -0.201
    1UNL     O6   30  -0.034  -0.064  -0.301
    1UNL    C23   31  -0.185   0.024   0.061
    1UNL     H1   32   0.258  -0.089  -0.379
    1UNL     H2   33   0.409  -0.008  -0.338
    1UNL     H3   34   0.408  -0.180  -0.345
    1UNL     H4   35   0.535   0.133   0.127
    1UNL     H5   36   0.511   0.052  -0.034
    1UNL     H6   37   0.374   0.129   0.051
    1UNL     H7   38   0.371  -0.199   0.328
    1UNL     H8   39   0.144  -0.292   0.363
    1UNL     H9   40  -0.056  -0.201   0.259
    1UNL    H10   41   0.029  -0.197  -0.096
    1UNL    H11   42  -0.154  -0.286   0.063
    1UNL    H12   43  -0.256  -0.252  -0.078
    1UNL    H13   44  -0.436  -0.095   0.179
    1UNL    H14   45  -0.444  -0.206   0.034
    1UNL    H15   46  -0.572   0.042   0.024
    1UNL    H16   47  -0.496  -0.034  -0.122
    1UNL    H17   48  -0.399   0.192   0.063
    1UNL    H18   49  -0.426   0.207  -0.103
    1UNL    H19   50  -0.211   0.276  -0.187
    1UNL    H20   51  -0.161   0.308  -0.012
    1UNL    H21   52  -0.007   0.150  -0.223
    1UNL    H22   53   0.049   0.285  -0.145
    1UNL    H23   54   0.139   0.283   0.248
    1UNL    H24   55  -0.312  -0.059  -0.184
    1UNL    H25   56  -0.246   0.070  -0.280
    1UNL    H26   57  -0.198   0.066   0.161
   0.00000   0.00000   0.00000   0.00000   0.00000   0.00000   0.00000   0.00000   0.00000
Generated with MDTraj, t= 42.0
 57
    1UNL     C1    1   0.363  -0.080  -0.292
    1UNL     O1    2   0.319  -0.073  -0.161
    1UNL     C2    3   0.233   0.031  -0.152
    1UNL     O2    4   0.201   0.110  -0.244
    1UNL     N1    5   0.181   0.051  -0.022
    1UNL     C3    6   0.187  -0.047   0.081
    1UNL     C4    7   0.299  -0.092   0.157
    1UNL     O3    8   0.433  -0.056   0.118
    1UNL     C5    9   0.455   0.085   0.109
    1UNL     C6   10   0.274  -0.176   0.268
    1UNL     C7   11   0.145  -0.186   0.310
    1UNL     C8   12   0.033  -0.137   0.245
    1UNL     C9   13   0.054  -0.076   0.122
    1UNL    C10   14  -0.030  -0.009   0.016
    1UNL    C11   15  -0.062  -0.120  -0.093
    1UNL    C12   16  -0.177  -0.197  -0.031
    1UNL     N2   17  -0.242  -0.105   0.066
    1UNL    C13   18  -0.382  -0.097   0.101
    1UNL    C14   19  -0.470  -0.018   0.007
    1UNL    C15   20  -0.399   0.113  -0.046
    1UNL    C16   21  -0.244   0.102  -0.081
    1UNL    C17   22  -0.155   0.227  -0.095
    1UNL    C18   23   0.001   0.213  -0.114
    1UNL    C19   24   0.059   0.119  -0.002
    1UNL    C20   25   0.076   0.206   0.124
    1UNL     O4   26  -0.018   0.267   0.165
    1UNL     O5   27   0.188   0.200   0.196
    1UNL    C21   28  -0.239   0.011  -0.217
    1UNL    C22   29  -0.108  -0.063  -0.223
    1UNL     O6   30  -0.059  -0.089  -0.331
    1UNL    C23   31  -0.178   0.028   0.042
    1UNL     H1   32   0.285  -0.049  -0.362
    1UNL     H2   33   0.455  -0.022  -0.298
    1UNL     H3   34   0.402  -0.183  -0.301
    1UNL     H4   35   0.516   0.115   0.185
    1UNL     H5   36   0.497   0.107   0.004
    1UNL     H6   37   0.356   0.131   0.114
    1UNL     H7   38   0.355  -0.210   0.322
    1UNL     H8   39   0.123  -0.224   0.412
    1UNL     H9   40  -0.067  -0.154   0.289
    1UNL    H10   41   0.031  -0.187  -0.110
    1UNL    H11   42  -0.146  -0.277   0.034
    1UNL    H12   43  -0.246  -0.230  -0.107
    1UNL    H13   44  -0.381  -0.045   0.203
    1UNL    H14   45  -0.420  -0.194   0.104
    1UNL    H15   46  -0.565   0.012   0.058
    1UNL    H16   47  -0.504  -0.076  -0.087
    1UNL    H17   48  -0.416   0.200   0.025
    1UNL    H18   49  -0.453   0.149  -0.137
    1UNL    H19   50  -0.204   0.283  -0.181
    1UNL    H20   51  -0.155   0.285  -0.000
    1UNL    H21   52   0.030   0.165  -0.207
    1UNL    H22   53   0.048   0.310  -0.129
    1UNL    H23   54   0.173   0.267   0.266
    1UNL    H24   55  -0.318  -0.059  -0.215
    1UNL    H25   56  -0.256   0.063  -0.310
    1UNL    H26   57  -0.178   0.089   0.132
   0.00000   0.00000   0.00000   0.00000   0.00000   0.00000   0.00000   0.00000   0.00000
Generated with MDTraj, t= 43.0
 57
    1UNL     C1    1   0.378  -0.086  -0.298
    1UNL     O1    2   0.340  -0.058  -0.161
    1UNL     C2    3   0.247   0.036  -0.154
    1UNL     O2    4   0.215   0.110  -0.248
    1UNL     N1    5   0.193   0.056  -0.028
    1UNL     C3    6   0.200  -0.044   0.077
    1UNL     C4    7   0.306  -0.088   0.159
    1UNL     O3    8   0.444  -0.061   0.148
    1UNL     C5    9   0.476   0.067   0.111
    1UNL     C6   10   0.268  -0.166   0.268
    1UNL     C7   11   0.139  -0.214   0.302
    1UNL     C8   12   0.037  -0.154   0.228
    1UNL     C9   13   0.071  -0.082   0.116
    1UNL    C10   14  -0.032  -0.024   0.016
    1UNL    C11   15  -0.073  -0.129  -0.085
    1UNL    C12   16  -0.192  -0.202  -0.013
    1UNL     N2   17  -0.251  -0.105   0.079
    1UNL    C13   18  -0.396  -0.106   0.085
    1UNL    C14   19  -0.466  -0.003   0.002
    1UNL    C15   20  -0.385   0.132  -0.012
    1UNL    C16   21  -0.237   0.111  -0.058
    1UNL    C17   22  -0.151   0.236  -0.106
    1UNL    C18   23  -0.004   0.194  -0.134
    1UNL    C19   24   0.057   0.112  -0.018
    1UNL    C20   25   0.050   0.200   0.108
    1UNL     O4   26  -0.058   0.239   0.135
    1UNL     O5   27   0.165   0.235   0.167
    1UNL    C21   28  -0.245   0.024  -0.189
    1UNL    C22   29  -0.121  -0.056  -0.208
    1UNL     O6   30  -0.058  -0.066  -0.310
    1UNL    C23   31  -0.175   0.026   0.056
    1UNL     H1   32   0.302  -0.148  -0.351
    1UNL     H2   33   0.397   0.010  -0.351
    1UNL     H3   34   0.480  -0.126  -0.282
    1UNL     H4   35   0.576   0.074   0.119
    1UNL     H5   36   0.436   0.077   0.003
    1UNL     H6   37   0.422   0.136   0.176
    1UNL     H7   38   0.339  -0.195   0.348
    1UNL     H8   39   0.121  -0.259   0.394
    1UNL     H9   40  -0.065  -0.173   0.250
    1UNL    H10   41   0.018  -0.196  -0.098
    1UNL    H11   42  -0.166  -0.289   0.044
    1UNL    H12   43  -0.267  -0.230  -0.086
    1UNL    H13   44  -0.428  -0.099   0.195
    1UNL    H14   45  -0.423  -0.197   0.043
    1UNL    H15   46  -0.568   0.029   0.037
    1UNL    H16   47  -0.491  -0.048  -0.099
    1UNL    H17   48  -0.388   0.184   0.090
    1UNL    H18   49  -0.432   0.209  -0.080
    1UNL    H19   50  -0.193   0.277  -0.199
    1UNL    H20   51  -0.149   0.316  -0.026
    1UNL    H21   52   0.004   0.133  -0.223
    1UNL    H22   53   0.063   0.275  -0.163
    1UNL    H23   54   0.147   0.312   0.228
    1UNL    H24   55  -0.324  -0.045  -0.202
    1UNL    H25   56  -0.260   0.081  -0.273
    1UNL    H26   57  -0.159   0.090   0.143
   0.00000   0.00000   0.00000   0.00000   0.00000   0.00000   0.00000   0.00000   0.00000
Generated with MDTraj, t= 44.0
 57
    1UNL     C1    1   0.395  -0.068  -0.282
    1UNL     O1    2   0.328  -0.070  -0.151
    1UNL     C2    3   0.252   0.038  -0.134
    1UNL     O2    4   0.246   0.134  -0.212
    1UNL     N1    5   0.184   0.045  -0.016
    1UNL     C3    6   0.191  -0.046   0.093
    1UNL     C4    7   0.301  -0.094   0.163
    1UNL     O3    8   0.433  -0.047   0.140
    1UNL     C5    9   0.449   0.086   0.095
    1UNL     C6   10   0.271  -0.189   0.261
    1UNL     C7   11   0.139  -0.234   0.292
    1UNL     C8   12   0.037  -0.189   0.214
    1UNL     C9   13   0.060  -0.082   0.128
    1UNL    C10   14  -0.033  -0.017   0.021
    1UNL    C11   15  -0.071  -0.132  -0.087
    1UNL    C12   16  -0.190  -0.210  -0.018
    1UNL     N2   17  -0.251  -0.110   0.066
    1UNL    C13   18  -0.396  -0.099   0.108
    1UNL    C14   19  -0.467   0.016   0.026
    1UNL    C15   20  -0.386   0.138  -0.029
    1UNL    C16   21  -0.240   0.103  -0.069
    1UNL    C17   22  -0.151   0.220  -0.114
    1UNL    C18   23  -0.000   0.184  -0.146
    1UNL    C19   24   0.055   0.115  -0.014
    1UNL    C20   25   0.061   0.213   0.096
    1UNL     O4   26  -0.035   0.236   0.162
    1UNL     O5   27   0.182   0.273   0.112
    1UNL    C21   28  -0.249   0.019  -0.194
    1UNL    C22   29  -0.126  -0.068  -0.213
    1UNL     O6   30  -0.078  -0.079  -0.320
    1UNL    C23   31  -0.180   0.029   0.057
    1UNL     H1   32   0.322  -0.080  -0.365
    1UNL     H2   33   0.442   0.035  -0.291
    1UNL     H3   34   0.479  -0.137  -0.272
    1UNL     H4   35   0.520   0.131   0.155
    1UNL     H5   36   0.476   0.080  -0.005
    1UNL     H6   37   0.352   0.139   0.102
    1UNL     H7   38   0.349  -0.214   0.328
    1UNL     H8   39   0.133  -0.315   0.367
    1UNL     H9   40  -0.058  -0.233   0.240
    1UNL    H10   41   0.017  -0.194  -0.105
    1UNL    H11   42  -0.148  -0.297   0.029
    1UNL    H12   43  -0.258  -0.245  -0.094
    1UNL    H13   44  -0.398  -0.081   0.220
    1UNL    H14   45  -0.448  -0.185   0.086
    1UNL    H15   46  -0.562   0.050   0.080
    1UNL    H16   47  -0.511  -0.021  -0.068
    1UNL    H17   48  -0.385   0.222   0.047
    1UNL    H18   49  -0.431   0.186  -0.123
    1UNL    H19   50  -0.194   0.263  -0.204
    1UNL    H20   51  -0.143   0.299  -0.031
    1UNL    H21   52   0.032   0.127  -0.231
    1UNL    H22   53   0.046   0.283  -0.157
    1UNL    H23   54   0.165   0.342   0.184
    1UNL    H24   55  -0.331  -0.049  -0.197
    1UNL    H25   56  -0.261   0.077  -0.276
    1UNL    H26   57  -0.186   0.087   0.150
   0.00000   0.00000   0.00000   0.00000   0.00000   0.00000   0.00000   0.00000   0.00000
Generated with MDTraj, t= 45.0
 57
    1UNL     C1    1   0.428  -0.075  -0.287
    1UNL     O1    2   0.342  -0.077  -0.173
    1UNL     C2    3   0.268   0.035  -0.152
    1UNL     O2    4   0.275   0.138  -0.222
    1UNL     N1    5   0.184   0.041  -0.034
    1UNL     C3    6   0.190  -0.051   0.077
    1UNL     C4    7   0.301  -0.098   0.149
    1UNL     O3    8   0.429  -0.050   0.139
    1UNL     C5    9   0.424   0.096   0.158
    1UNL     C6   10   0.273  -0.197   0.242
    1UNL     C7   11   0.144  -0.227   0.272
    1UNL     C8   12   0.036  -0.169   0.220
    1UNL     C9   13   0.058  -0.084   0.112
    1UNL    C10   14  -0.044  -0.017   0.021
    1UNL    C11   15  -0.076  -0.134  -0.080
    1UNL    C12   16  -0.197  -0.211  -0.006
    1UNL     N2   17  -0.253  -0.106   0.088
    1UNL    C13   18  -0.396  -0.078   0.124
    1UNL    C14   19  -0.474   0.007   0.014
    1UNL    C15   20  -0.400   0.132  -0.040
    1UNL    C16   21  -0.244   0.107  -0.059
    1UNL    C17   22  -0.158   0.232  -0.095
    1UNL    C18   23  -0.010   0.195  -0.135
    1UNL    C19   24   0.050   0.107  -0.021
    1UNL    C20   25   0.065   0.209   0.096
    1UNL     O4   26  -0.018   0.212   0.183
    1UNL     O5   27   0.163   0.298   0.088
    1UNL    C21   28  -0.247   0.019  -0.197
    1UNL    C22   29  -0.123  -0.071  -0.203
    1UNL     O6   30  -0.082  -0.098  -0.312
    1UNL    C23   31  -0.180   0.027   0.061
    1UNL     H1   32   0.405   0.014  -0.348
    1UNL     H2   33   0.531  -0.063  -0.246
    1UNL     H3   34   0.416  -0.174  -0.325
    1UNL     H4   35   0.322   0.131   0.173
    1UNL     H5   36   0.484   0.129   0.234
    1UNL     H6   37   0.461   0.142   0.066
    1UNL     H7   38   0.355  -0.267   0.262
    1UNL     H8   39   0.131  -0.308   0.339
    1UNL     H9   40  -0.067  -0.189   0.250
    1UNL    H10   41   0.010  -0.194  -0.095
    1UNL    H11   42  -0.156  -0.299   0.040
    1UNL    H12   43  -0.268  -0.248  -0.079
    1UNL    H13   44  -0.392  -0.010   0.214
    1UNL    H14   45  -0.448  -0.165   0.149
    1UNL    H15   46  -0.574   0.054   0.047
    1UNL    H16   47  -0.509  -0.062  -0.061
    1UNL    H17   48  -0.413   0.222   0.028
    1UNL    H18   49  -0.447   0.167  -0.140
    1UNL    H19   50  -0.207   0.288  -0.172
    1UNL    H20   51  -0.146   0.294   0.003
    1UNL    H21   52  -0.005   0.146  -0.230
    1UNL    H22   53   0.053   0.285  -0.140
    1UNL    H23   54   0.151   0.364   0.162
    1UNL    H24   55  -0.335  -0.041  -0.199
    1UNL    H25   56  -0.241   0.079  -0.286
    1UNL    H26   57  -0.165   0.086   0.153
   0.00000   0.00000   0.00000   0.00000   0.00000   0.00000   0.00000   0.00000   0.00000
Generated with MDTraj, t= 46.0
 57
    1UNL     C1    1   0.420  -0.062  -0.278
    1UNL     O1    2   0.360  -0.047  -0.149
    1UNL     C2    3   0.263   0.048  -0.145
    1UNL     O2    4   0.237   0.136  -0.231
    1UNL     N1    5   0.185   0.042  -0.021
    1UNL     C3    6   0.187  -0.063   0.077
    1UNL     C4    7   0.300  -0.096   0.156
    1UNL     O3    8   0.426  -0.043   0.137
    1UNL     C5    9   0.431   0.096   0.124
    1UNL     C6   10   0.274  -0.188   0.257
    1UNL     C7   11   0.148  -0.227   0.285
    1UNL     C8   12   0.034  -0.185   0.220
    1UNL     C9   13   0.057  -0.090   0.117
    1UNL    C10   14  -0.037  -0.033   0.020
    1UNL    C11   15  -0.084  -0.143  -0.086
    1UNL    C12   16  -0.201  -0.214  -0.014
    1UNL     N2   17  -0.259  -0.110   0.073
    1UNL    C13   18  -0.398  -0.073   0.095
    1UNL    C14   19  -0.467   0.040   0.018
    1UNL    C15   20  -0.369   0.151  -0.020
    1UNL    C16   21  -0.232   0.103  -0.067
    1UNL    C17   22  -0.144   0.218  -0.121
    1UNL    C18   23   0.002   0.182  -0.140
    1UNL    C19   24   0.045   0.103  -0.013
    1UNL    C20   25   0.066   0.202   0.098
    1UNL     O4   26   0.003   0.193   0.203
    1UNL     O5   27   0.151   0.303   0.072
    1UNL    C21   28  -0.262  -0.002  -0.180
    1UNL    C22   29  -0.142  -0.076  -0.205
    1UNL     O6   30  -0.086  -0.077  -0.312
    1UNL    C23   31  -0.176   0.012   0.058
    1UNL     H1   32   0.428   0.035  -0.328
    1UNL     H2   33   0.519  -0.107  -0.264
    1UNL     H3   34   0.351  -0.133  -0.315
    1UNL     H4   35   0.471   0.120   0.019
    1UNL     H5   36   0.338   0.149   0.140
    1UNL     H6   37   0.502   0.132   0.196
    1UNL     H7   38   0.355  -0.228   0.316
    1UNL     H8   39   0.132  -0.303   0.360
    1UNL     H9   40  -0.065  -0.216   0.244
    1UNL    H10   41  -0.009  -0.212  -0.101
    1UNL    H11   42  -0.170  -0.298   0.048
    1UNL    H12   43  -0.272  -0.256  -0.084
    1UNL    H13   44  -0.409  -0.048   0.203
    1UNL    H14   45  -0.460  -0.156   0.076
    1UNL    H15   46  -0.554   0.076   0.081
    1UNL    H16   47  -0.511   0.010  -0.076
    1UNL    H17   48  -0.355   0.219   0.069
    1UNL    H18   49  -0.413   0.217  -0.105
    1UNL    H19   50  -0.189   0.248  -0.216
    1UNL    H20   51  -0.154   0.307  -0.049
    1UNL    H21   52   0.024   0.118  -0.224
    1UNL    H22   53   0.072   0.266  -0.150
    1UNL    H23   54   0.158   0.362   0.149
    1UNL    H24   55  -0.337  -0.072  -0.147
    1UNL    H25   56  -0.298   0.055  -0.273
    1UNL    H26   57  -0.176   0.065   0.155
   0.00000   0.00000   0.00000   0.00000   0.00000   0.00000   0.00000   0.00000   0.00000
Generated with MDTraj, t= 47.0
 57
    1UNL     C1    1   0.448  -0.025  -0.282
    1UNL     O1    2   0.371  -0.053  -0.161
    1UNL     C2    3   0.263   0.025  -0.156
    1UNL     O2    4   0.224   0.099  -0.247
    1UNL     N1    5   0.186   0.033  -0.033
    1UNL     C3    6   0.193  -0.051   0.089
    1UNL     C4    7   0.297  -0.086   0.176
    1UNL     O3    8   0.432  -0.038   0.174
    1UNL     C5    9   0.475   0.062   0.089
    1UNL     C6   10   0.266  -0.178   0.280
    1UNL     C7   11   0.137  -0.227   0.299
    1UNL     C8   12   0.034  -0.181   0.218
    1UNL     C9   13   0.062  -0.092   0.121
    1UNL    C10   14  -0.035  -0.033   0.017
    1UNL    C11   15  -0.086  -0.141  -0.088
    1UNL    C12   16  -0.219  -0.199  -0.029
    1UNL     N2   17  -0.255  -0.103   0.078
    1UNL    C13   18  -0.394  -0.083   0.111
    1UNL    C14   19  -0.459   0.014   0.018
    1UNL    C15   20  -0.381   0.144  -0.007
    1UNL    C16   21  -0.240   0.111  -0.062
    1UNL    C17   22  -0.147   0.237  -0.096
    1UNL    C18   23  -0.003   0.188  -0.140
    1UNL    C19   24   0.051   0.098  -0.028
    1UNL    C20   25   0.051   0.198   0.089
    1UNL     O4   26  -0.004   0.177   0.199
    1UNL     O5   27   0.122   0.311   0.071
    1UNL    C21   28  -0.256   0.028  -0.191
    1UNL    C22   29  -0.134  -0.064  -0.210
    1UNL     O6   30  -0.093  -0.085  -0.319
    1UNL    C23   31  -0.177   0.021   0.057
    1UNL     H1   32   0.526   0.051  -0.266
    1UNL     H2   33   0.498  -0.122  -0.297
    1UNL     H3   34   0.379  -0.006  -0.360
    1UNL     H4   35   0.528   0.015  -0.005
    1UNL     H5   36   0.393   0.132   0.059
    1UNL     H6   37   0.548   0.122   0.141
    1UNL     H7   38   0.350  -0.201   0.344
    1UNL     H8   39   0.119  -0.282   0.392
    1UNL     H9   40  -0.065  -0.218   0.244
    1UNL    H10   41  -0.014  -0.207  -0.120
    1UNL    H11   42  -0.223  -0.296   0.021
    1UNL    H12   43  -0.297  -0.204  -0.105
    1UNL    H13   44  -0.414  -0.049   0.214
    1UNL    H14   45  -0.449  -0.174   0.107
    1UNL    H15   46  -0.559   0.046   0.049
    1UNL    H16   47  -0.474  -0.044  -0.073
    1UNL    H17   48  -0.366   0.204   0.087
    1UNL    H18   49  -0.436   0.213  -0.081
    1UNL    H19   50  -0.192   0.297  -0.176
    1UNL    H20   51  -0.150   0.310  -0.010
    1UNL    H21   52   0.019   0.135  -0.232
    1UNL    H22   53   0.059   0.278  -0.141
    1UNL    H23   54   0.126   0.360   0.152
    1UNL    H24   55  -0.356  -0.024  -0.192
    1UNL    H25   56  -0.259   0.105  -0.278
    1UNL    H26   57  -0.174   0.090   0.142
   0.00000   0.00000   0.00000   0.00000   0.00000   0.00000   0.00000   0.00000   0.00000
Generated with MDTraj, t= 48.0
 57
    1UNL     C1    1   0.423  -0.045  -0.290
    1UNL     O1    2   0.352  -0.064  -0.165
    1UNL     C2    3   0.257   0.031  -0.153
    1UNL     O2    4   0.235   0.119  -0.238
    1UNL     N1    5   0.182   0.035  -0.029
    1UNL     C3    6   0.182  -0.045   0.090
    1UNL     C4    7   0.288  -0.082   0.176
    1UNL     O3    8   0.429  -0.061   0.158
    1UNL     C5    9   0.458   0.060   0.098
    1UNL     C6   10   0.250  -0.165   0.283
    1UNL     C7   11   0.119  -0.213   0.312
    1UNL     C8   12   0.019  -0.160   0.230
    1UNL     C9   13   0.054  -0.089   0.119
    1UNL    C10   14  -0.030  -0.020   0.008
    1UNL    C11   15  -0.068  -0.135  -0.096
    1UNL    C12   16  -0.186  -0.205  -0.034
    1UNL     N2   17  -0.238  -0.099   0.067
    1UNL    C13   18  -0.377  -0.101   0.115
    1UNL    C14   19  -0.466   0.007   0.041
    1UNL    C15   20  -0.390   0.140  -0.013
    1UNL    C16   21  -0.244   0.107  -0.070
    1UNL    C17   22  -0.161   0.227  -0.119
    1UNL    C18   23  -0.011   0.200  -0.135
    1UNL    C19   24   0.059   0.108  -0.022
    1UNL    C20   25   0.073   0.203   0.102
    1UNL     O4   26   0.025   0.163   0.208
    1UNL     O5   27   0.137   0.317   0.087
    1UNL    C21   28  -0.257   0.011  -0.193
    1UNL    C22   29  -0.134  -0.066  -0.222
    1UNL     O6   30  -0.084  -0.087  -0.327
    1UNL    C23   31  -0.170   0.032   0.044
    1UNL     H1   32   0.460   0.060  -0.299
    1UNL     H2   33   0.511  -0.115  -0.277
    1UNL     H3   34   0.367  -0.073  -0.377
    1UNL     H4   35   0.438   0.056  -0.001
    1UNL     H5   36   0.395   0.144   0.148
    1UNL     H6   37   0.565   0.088   0.108
    1UNL     H7   38   0.322  -0.200   0.355
    1UNL     H8   39   0.093  -0.263   0.402
    1UNL     H9   40  -0.080  -0.175   0.267
    1UNL    H10   41   0.010  -0.197  -0.123
    1UNL    H11   42  -0.157  -0.296   0.021
    1UNL    H12   43  -0.266  -0.240  -0.102
    1UNL    H13   44  -0.383  -0.080   0.221
    1UNL    H14   45  -0.427  -0.196   0.115
    1UNL    H15   46  -0.548   0.030   0.105
    1UNL    H16   47  -0.520  -0.034  -0.045
    1UNL    H17   48  -0.373   0.225   0.060
    1UNL    H18   49  -0.445   0.189  -0.099
    1UNL    H19   50  -0.200   0.265  -0.216
    1UNL    H20   51  -0.183   0.310  -0.050
    1UNL    H21   52   0.004   0.164  -0.236
    1UNL    H22   53   0.043   0.295  -0.123
    1UNL    H23   54   0.153   0.348   0.176
    1UNL    H24   55  -0.342  -0.066  -0.171
    1UNL    H25   56  -0.293   0.073  -0.285
    1UNL    H26   57  -0.163   0.083   0.142
   0.00000   0.00000   0.00000   0.00000   0.00000   0.00000   0.00000   0.00000   0.00000
Generated with MDTraj, t= 49.0
 57
    1UNL     C1    1   0.351  -0.088  -0.307
    1UNL     O1    2   0.340  -0.069  -0.167
    1UNL     C2    3   0.269   0.044  -0.142
    1UNL     O2    4   0.261   0.146  -0.211
    1UNL     N1    5   0.187   0.032  -0.024
    1UNL     C3    6   0.196  -0.072   0.074
    1UNL     C4    7   0.300  -0.106   0.160
    1UNL     O3    8   0.428  -0.054   0.139
    1UNL     C5    9   0.437   0.084   0.118
    1UNL     C6   10   0.272  -0.180   0.276
    1UNL     C7   11   0.147  -0.205   0.320
    1UNL     C8   12   0.041  -0.168   0.234
    1UNL     C9   13   0.066  -0.094   0.119
    1UNL    C10   14  -0.030  -0.024   0.021
    1UNL    C11   15  -0.075  -0.136  -0.086
    1UNL    C12   16  -0.192  -0.219  -0.025
    1UNL     N2   17  -0.252  -0.113   0.066
    1UNL    C13   18  -0.399  -0.095   0.090
    1UNL    C14   19  -0.468   0.010  -0.001
    1UNL    C15   20  -0.387   0.136  -0.018
    1UNL    C16   21  -0.236   0.104  -0.057
    1UNL    C17   22  -0.152   0.233  -0.092
    1UNL    C18   23  -0.003   0.194  -0.134
    1UNL    C19   24   0.058   0.105  -0.018
    1UNL    C20   25   0.058   0.211   0.092
    1UNL     O4   26  -0.013   0.200   0.189
    1UNL     O5   27   0.139   0.316   0.063
    1UNL    C21   28  -0.240   0.020  -0.181
    1UNL    C22   29  -0.117  -0.066  -0.205
    1UNL     O6   30  -0.064  -0.060  -0.314
    1UNL    C23   31  -0.172   0.014   0.060
    1UNL     H1   32   0.400   0.004  -0.351
    1UNL     H2   33   0.423  -0.178  -0.306
    1UNL     H3   34   0.260  -0.107  -0.361
    1UNL     H4   35   0.484   0.104   0.028
    1UNL     H5   36   0.333   0.137   0.124
    1UNL     H6   37   0.504   0.127   0.197
    1UNL     H7   38   0.350  -0.194   0.347
    1UNL     H8   39   0.131  -0.253   0.418
    1UNL     H9   40  -0.065  -0.178   0.263
    1UNL    H10   41   0.005  -0.196  -0.119
    1UNL    H11   42  -0.156  -0.312   0.024
    1UNL    H12   43  -0.272  -0.244  -0.097
    1UNL    H13   44  -0.422  -0.070   0.191
    1UNL    H14   45  -0.451  -0.189   0.090
    1UNL    H15   46  -0.559   0.044   0.037
    1UNL    H16   47  -0.507  -0.035  -0.092
    1UNL    H17   48  -0.379   0.191   0.082
    1UNL    H18   49  -0.424   0.213  -0.091
    1UNL    H19   50  -0.207   0.302  -0.162
    1UNL    H20   51  -0.143   0.295  -0.005
    1UNL    H21   52  -0.015   0.136  -0.225
    1UNL    H22   53   0.064   0.279  -0.151
    1UNL    H23   54   0.120   0.375   0.140
    1UNL    H24   55  -0.332  -0.044  -0.178
    1UNL    H25   56  -0.256   0.085  -0.275
    1UNL    H26   57  -0.183   0.065   0.157
   0.00000   0.00000   0.00000   0.00000   0.00000   0.00000   0.00000   0.00000   0.00000
Generated with MDTraj, t= 50.0
 57
    1UNL     C1    1   0.338  -0.096  -0.294
    1UNL     O1    2   0.275  -0.092  -0.167
    1UNL     C2    3   0.241   0.035  -0.140
    1UNL     O2    4   0.245   0.128  -0.220
    1UNL     N1    5   0.189   0.060  -0.010
    1UNL     C3    6   0.195  -0.043   0.089
    1UNL     C4    7   0.313  -0.084   0.158
    1UNL     O3    8   0.440  -0.030   0.152
    1UNL     C5    9   0.438   0.098   0.091
    1UNL     C6   10   0.291  -0.188   0.250
    1UNL     C7   11   0.161  -0.232   0.271
    1UNL     C8   12   0.048  -0.184   0.216
    1UNL     C9   13   0.067  -0.087   0.119
    1UNL    C10   14  -0.033  -0.014   0.029
    1UNL    C11   15  -0.059  -0.132  -0.072
    1UNL    C12   16  -0.184  -0.214  -0.009
    1UNL     N2   17  -0.257  -0.102   0.065
    1UNL    C13   18  -0.400  -0.079   0.090
    1UNL    C14   19  -0.466   0.019  -0.009
    1UNL    C15   20  -0.381   0.134  -0.053
    1UNL    C16   21  -0.234   0.098  -0.075
    1UNL    C17   22  -0.149   0.228  -0.107
    1UNL    C18   23   0.000   0.198  -0.125
    1UNL    C19   24   0.048   0.117  -0.008
    1UNL    C20   25   0.061   0.209   0.118
    1UNL     O4   26  -0.032   0.214   0.190
    1UNL     O5   27   0.169   0.296   0.136
    1UNL    C21   28  -0.233   0.003  -0.196
    1UNL    C22   29  -0.107  -0.074  -0.202
    1UNL     O6   30  -0.048  -0.083  -0.307
    1UNL    C23   31  -0.182   0.019   0.055
    1UNL     H1   32   0.431  -0.034  -0.287
    1UNL     H2   33   0.359  -0.208  -0.299
    1UNL     H3   34   0.281  -0.054  -0.375
    1UNL     H4   35   0.477   0.090  -0.010
    1UNL     H5   36   0.335   0.147   0.096
    1UNL     H6   37   0.511   0.163   0.144
    1UNL     H7   38   0.387  -0.234   0.279
    1UNL     H8   39   0.145  -0.310   0.341
    1UNL     H9   40  -0.048  -0.221   0.237
    1UNL    H10   41   0.027  -0.198  -0.085
    1UNL    H11   42  -0.148  -0.288   0.066
    1UNL    H12   43  -0.256  -0.263  -0.078
    1UNL    H13   44  -0.414  -0.046   0.186
    1UNL    H14   45  -0.459  -0.171   0.092
    1UNL    H15   46  -0.555   0.054   0.029
    1UNL    H16   47  -0.499  -0.031  -0.097
    1UNL    H17   48  -0.386   0.224   0.018
    1UNL    H18   49  -0.413   0.173  -0.153
    1UNL    H19   50  -0.183   0.269  -0.208
    1UNL    H20   51  -0.167   0.310  -0.042
    1UNL    H21   52   0.021   0.136  -0.214
    1UNL    H22   53   0.065   0.285  -0.139
    1UNL    H23   54   0.144   0.350   0.216
    1UNL    H24   55  -0.309  -0.074  -0.187
    1UNL    H25   56  -0.260   0.049  -0.296
    1UNL    H26   57  -0.207   0.083   0.142
   0.00000   0.00000   0.00000   0.00000   0.00000   0.00000   0.00000   0.00000   0.00000
Generated with MDTraj, t= 51.0
 57
    1UNL     C1    1   0.300  -0.124  -0.297
    1UNL     O1    2   0.288  -0.107  -0.150
    1UNL     C2    3   0.240   0.024  -0.130
    1UNL     O2    4   0.236   0.101  -0.226
    1UNL     N1    5   0.186   0.071  -0.009
    1UNL     C3    6   0.190  -0.024   0.100
    1UNL     C4    7   0.310  -0.075   0.155
    1UNL     O3    8   0.443  -0.035   0.126
    1UNL     C5    9   0.455   0.103   0.098
    1UNL     C6   10   0.286  -0.179   0.236
    1UNL     C7   11   0.160  -0.226   0.268
    1UNL     C8   12   0.045  -0.169   0.214
    1UNL     C9   13   0.061  -0.060   0.129
    1UNL    C10   14  -0.030  -0.007   0.024
    1UNL    C11   15  -0.056  -0.128  -0.078
    1UNL    C12   16  -0.183  -0.202  -0.027
    1UNL     N2   17  -0.242  -0.113   0.079
    1UNL    C13   18  -0.389  -0.100   0.096
    1UNL    C14   19  -0.461  -0.014  -0.013
    1UNL    C15   20  -0.393   0.121  -0.044
    1UNL    C16   21  -0.235   0.103  -0.069
    1UNL    C17   22  -0.150   0.239  -0.090
    1UNL    C18   23  -0.000   0.213  -0.119
    1UNL    C19   24   0.048   0.125  -0.008
    1UNL    C20   25   0.052   0.214   0.113
    1UNL     O4   26  -0.053   0.255   0.149
    1UNL     O5   27   0.171   0.246   0.182
    1UNL    C21   28  -0.213   0.037  -0.209
    1UNL    C22   29  -0.097  -0.064  -0.212
    1UNL     O6   30  -0.038  -0.096  -0.310
    1UNL    C23   31  -0.176   0.019   0.059
    1UNL     H1   32   0.382  -0.059  -0.333
    1UNL     H2   33   0.315  -0.232  -0.316
    1UNL     H3   34   0.212  -0.089  -0.343
    1UNL     H4   35   0.446   0.115  -0.020
    1UNL     H5   36   0.377   0.159   0.152
    1UNL     H6   37   0.555   0.136   0.123
    1UNL     H7   38   0.370  -0.225   0.280
    1UNL     H8   39   0.159  -0.324   0.318
    1UNL     H9   40  -0.058  -0.212   0.219
    1UNL    H10   41   0.037  -0.188  -0.093
    1UNL    H11   42  -0.160  -0.297   0.028
    1UNL    H12   43  -0.246  -0.224  -0.116
    1UNL    H13   44  -0.410  -0.051   0.184
    1UNL    H14   45  -0.438  -0.198   0.098
    1UNL    H15   46  -0.560   0.005   0.010
    1UNL    H16   47  -0.464  -0.068  -0.101
    1UNL    H17   48  -0.416   0.205   0.030
    1UNL    H18   49  -0.434   0.154  -0.142
    1UNL    H19   50  -0.189   0.309  -0.169
    1UNL    H20   51  -0.158   0.292   0.001
    1UNL    H21   52   0.027   0.181  -0.221
    1UNL    H22   53   0.061   0.304  -0.109
    1UNL    H23   54   0.145   0.302   0.261
    1UNL    H24   55  -0.300  -0.017  -0.238
    1UNL    H25   56  -0.204   0.110  -0.284
    1UNL    H26   57  -0.177   0.072   0.156
   0.00000   0.00000   0.00000   0.00000   0.00000   0.00000   0.00000   0.00000   0.00000
Generated with MDTraj, t= 52.0
 57
    1UNL     C1    1   0.267  -0.137  -0.293
    1UNL     O1    2   0.286  -0.096  -0.160
    1UNL     C2    3   0.236   0.030  -0.140
    1UNL     O2    4   0.220   0.111  -0.231
    1UNL     N1    5   0.191   0.065  -0.016
    1UNL     C3    6   0.205  -0.031   0.087
    1UNL     C4    7   0.309  -0.087   0.154
    1UNL     O3    8   0.436  -0.044   0.132
    1UNL     C5    9   0.465   0.095   0.097
    1UNL     C6   10   0.282  -0.181   0.257
    1UNL     C7   11   0.148  -0.212   0.298
    1UNL     C8   12   0.043  -0.149   0.237
    1UNL     C9   13   0.071  -0.061   0.134
    1UNL    C10   14  -0.023  -0.005   0.026
    1UNL    C11   15  -0.046  -0.113  -0.089
    1UNL    C12   16  -0.152  -0.206  -0.025
    1UNL     N2   17  -0.241  -0.114   0.060
    1UNL    C13   18  -0.390  -0.132   0.076
    1UNL    C14   19  -0.462  -0.015  -0.007
    1UNL    C15   20  -0.387   0.123  -0.043
    1UNL    C16   21  -0.236   0.089  -0.074
    1UNL    C17   22  -0.154   0.224  -0.111
    1UNL    C18   23  -0.002   0.207  -0.122
    1UNL    C19   24   0.054   0.124  -0.001
    1UNL    C20   25   0.061   0.219   0.117
    1UNL     O4   26  -0.038   0.288   0.128
    1UNL     O5   27   0.169   0.214   0.205
    1UNL    C21   28  -0.236   0.004  -0.197
    1UNL    C22   29  -0.102  -0.047  -0.210
    1UNL     O6   30  -0.038  -0.034  -0.310
    1UNL    C23   31  -0.177   0.019   0.057
    1UNL     H1   32   0.307  -0.067  -0.367
    1UNL     H2   33   0.318  -0.236  -0.292
    1UNL     H3   34   0.166  -0.162  -0.303
    1UNL     H4   35   0.493   0.095  -0.019
    1UNL     H5   36   0.380   0.157   0.118
    1UNL     H6   37   0.555   0.126   0.147
    1UNL     H7   38   0.359  -0.240   0.307
    1UNL     H8   39   0.130  -0.277   0.380
    1UNL     H9   40  -0.057  -0.178   0.259
    1UNL    H10   41   0.046  -0.178  -0.113
    1UNL    H11   42  -0.111  -0.291   0.037
    1UNL    H12   43  -0.205  -0.250  -0.112
    1UNL    H13   44  -0.416  -0.113   0.174
    1UNL    H14   45  -0.412  -0.232   0.031
    1UNL    H15   46  -0.546   0.014   0.045
    1UNL    H16   47  -0.490  -0.053  -0.098
    1UNL    H17   48  -0.384   0.192   0.046
    1UNL    H18   49  -0.440   0.177  -0.126
    1UNL    H19   50  -0.188   0.255  -0.211
    1UNL    H20   51  -0.178   0.303  -0.041
    1UNL    H21   52   0.021   0.162  -0.221
    1UNL    H22   53   0.059   0.298  -0.128
    1UNL    H23   54   0.155   0.263   0.287
    1UNL    H24   55  -0.311  -0.071  -0.191
    1UNL    H25   56  -0.254   0.064  -0.277
    1UNL    H26   57  -0.189   0.079   0.149
   0.00000   0.00000   0.00000   0.00000   0.00000   0.00000   0.00000   0.00000   0.00000
Generated with MDTraj, t= 53.0
 57
    1UNL     C1    1   0.310  -0.109  -0.313
    1UNL     O1    2   0.240  -0.088  -0.193
    1UNL     C2    3   0.240   0.045  -0.154
    1UNL     O2    4   0.264   0.138  -0.236
    1UNL     N1    5   0.194   0.053  -0.016
    1UNL     C3    6   0.196  -0.047   0.090
    1UNL     C4    7   0.305  -0.078   0.177
    1UNL     O3    8   0.440  -0.037   0.152
    1UNL     C5    9   0.455   0.069   0.063
    1UNL     C6   10   0.267  -0.156   0.281
    1UNL     C7   11   0.141  -0.199   0.319
    1UNL     C8   12   0.037  -0.163   0.234
    1UNL     C9   13   0.067  -0.088   0.124
    1UNL    C10   14  -0.024  -0.015   0.025
    1UNL    C11   15  -0.047  -0.129  -0.091
    1UNL    C12   16  -0.162  -0.205  -0.029
    1UNL     N2   17  -0.236  -0.114   0.072
    1UNL    C13   18  -0.383  -0.116   0.088
    1UNL    C14   19  -0.459  -0.022  -0.009
    1UNL    C15   20  -0.389   0.118  -0.029
    1UNL    C16   21  -0.235   0.101  -0.068
    1UNL    C17   22  -0.157   0.233  -0.097
    1UNL    C18   23  -0.002   0.204  -0.116
    1UNL    C19   24   0.057   0.117  -0.003
    1UNL    C20   25   0.058   0.213   0.117
    1UNL     O4   26  -0.034   0.292   0.137
    1UNL     O5   27   0.161   0.218   0.200
    1UNL    C21   28  -0.230   0.018  -0.201
    1UNL    C22   29  -0.101  -0.062  -0.215
    1UNL     O6   30  -0.046  -0.074  -0.322
    1UNL    C23   31  -0.172   0.017   0.054
    1UNL     H1   32   0.419  -0.093  -0.300
    1UNL     H2   33   0.291  -0.215  -0.344
    1UNL     H3   34   0.259  -0.050  -0.385
    1UNL     H4   35   0.434   0.033  -0.042
    1UNL     H5   36   0.382   0.138   0.096
    1UNL     H6   37   0.558   0.106   0.062
    1UNL     H7   38   0.353  -0.173   0.343
    1UNL     H8   39   0.131  -0.250   0.416
    1UNL     H9   40  -0.065  -0.174   0.262
    1UNL    H10   41   0.052  -0.191  -0.104
    1UNL    H11   42  -0.122  -0.299   0.018
    1UNL    H12   43  -0.230  -0.238  -0.111
    1UNL    H13   44  -0.394  -0.078   0.185
    1UNL    H14   45  -0.419  -0.218   0.059
    1UNL    H15   46  -0.551  -0.007   0.037
    1UNL    H16   47  -0.478  -0.062  -0.103
    1UNL    H17   48  -0.396   0.176   0.067
    1UNL    H18   49  -0.443   0.183  -0.106
    1UNL    H19   50  -0.198   0.289  -0.179
    1UNL    H20   51  -0.170   0.294  -0.006
    1UNL    H21   52   0.032   0.176  -0.219
    1UNL    H22   53   0.052   0.297  -0.101
    1UNL    H23   54   0.146   0.276   0.275
    1UNL    H24   55  -0.307  -0.052  -0.210
    1UNL    H25   56  -0.248   0.090  -0.274
    1UNL    H26   57  -0.187   0.075   0.147
   0.00000   0.00000   0.00000   0.00000   0.00000   0.00000   0.00000   0.00000   0.00000
Generated with MDTraj, t= 54.0
 57
    1UNL     C1    1   0.306  -0.086  -0.327
    1UNL     O1    2   0.291  -0.081  -0.193
    1UNL     C2    3   0.269   0.047  -0.145
    1UNL     O2    4   0.302   0.152  -0.205
    1UNL     N1    5   0.190   0.056  -0.023
    1UNL     C3    6   0.194  -0.042   0.085
    1UNL     C4    7   0.299  -0.070   0.173
    1UNL     O3    8   0.428  -0.026   0.158
    1UNL     C5    9   0.467   0.053   0.047
    1UNL     C6   10   0.279  -0.151   0.291
    1UNL     C7   11   0.154  -0.203   0.317
    1UNL     C8   12   0.048  -0.162   0.235
    1UNL     C9   13   0.066  -0.081   0.124
    1UNL    C10   14  -0.030  -0.017   0.022
    1UNL    C11   15  -0.061  -0.128  -0.084
    1UNL    C12   16  -0.183  -0.207  -0.018
    1UNL     N2   17  -0.248  -0.099   0.062
    1UNL    C13   18  -0.391  -0.089   0.097
    1UNL    C14   19  -0.470  -0.003   0.004
    1UNL    C15   20  -0.390   0.121  -0.034
    1UNL    C16   21  -0.238   0.096  -0.074
    1UNL    C17   22  -0.163   0.234  -0.109
    1UNL    C18   23  -0.010   0.202  -0.119
    1UNL    C19   24   0.047   0.117  -0.007
    1UNL    C20   25   0.047   0.193   0.122
    1UNL     O4   26  -0.060   0.235   0.170
    1UNL     O5   27   0.176   0.218   0.169
    1UNL    C21   28  -0.237   0.005  -0.207
    1UNL    C22   29  -0.109  -0.078  -0.217
    1UNL     O6   30  -0.052  -0.096  -0.320
    1UNL    C23   31  -0.178   0.028   0.048
    1UNL     H1   32   0.415  -0.073  -0.357
    1UNL     H2   33   0.268  -0.185  -0.366
    1UNL     H3   34   0.237  -0.017  -0.373
    1UNL     H4   35   0.452   0.006  -0.049
    1UNL     H5   36   0.408   0.140   0.060
    1UNL     H6   37   0.576   0.074   0.052
    1UNL     H7   38   0.362  -0.171   0.353
    1UNL     H8   39   0.120  -0.253   0.404
    1UNL     H9   40  -0.057  -0.186   0.266
    1UNL    H10   41   0.034  -0.198  -0.095
    1UNL    H11   42  -0.144  -0.287   0.048
    1UNL    H12   43  -0.256  -0.254  -0.087
    1UNL    H13   44  -0.391  -0.035   0.187
    1UNL    H14   45  -0.422  -0.198   0.102
    1UNL    H15   46  -0.560   0.028   0.047
    1UNL    H16   47  -0.502  -0.060  -0.082
    1UNL    H17   48  -0.394   0.195   0.049
    1UNL    H18   49  -0.431   0.179  -0.125
    1UNL    H19   50  -0.200   0.272  -0.200
    1UNL    H20   51  -0.178   0.317  -0.037
    1UNL    H21   52   0.030   0.161  -0.215
    1UNL    H22   53   0.041   0.298  -0.109
    1UNL    H23   54   0.175   0.275   0.249
    1UNL    H24   55  -0.327  -0.053  -0.207
    1UNL    H25   56  -0.242   0.066  -0.298
    1UNL    H26   57  -0.199   0.097   0.132
   0.00000   0.00000   0.00000   0.00000   0.00000   0.00000   0.00000   0.00000   0.00000
Generated with MDTraj, t= 55.0
 57
    1UNL     C1    1   0.328  -0.070  -0.321
    1UNL     O1    2   0.305  -0.068  -0.184
    1UNL     C2    3   0.246   0.048  -0.144
    1UNL     O2    4   0.221   0.143  -0.223
    1UNL     N1    5   0.182   0.048  -0.014
    1UNL     C3    6   0.193  -0.051   0.095
    1UNL     C4    7   0.304  -0.093   0.175
    1UNL     O3    8   0.444  -0.056   0.165
    1UNL     C5    9   0.468   0.042   0.067
    1UNL     C6   10   0.280  -0.173   0.288
    1UNL     C7   11   0.155  -0.208   0.322
    1UNL     C8   12   0.042  -0.172   0.244
    1UNL     C9   13   0.063  -0.089   0.132
    1UNL    C10   14  -0.030  -0.024   0.027
    1UNL    C11   15  -0.057  -0.132  -0.084
    1UNL    C12   16  -0.178  -0.207  -0.027
    1UNL     N2   17  -0.249  -0.111   0.064
    1UNL    C13   18  -0.399  -0.095   0.085
    1UNL    C14   19  -0.463   0.012  -0.002
    1UNL    C15   20  -0.376   0.132  -0.019
    1UNL    C16   21  -0.231   0.098  -0.068
    1UNL    C17   22  -0.146   0.225  -0.116
    1UNL    C18   23   0.006   0.196  -0.129
    1UNL    C19   24   0.050   0.110  -0.005
    1UNL    C20   25   0.047   0.215   0.108
    1UNL     O4   26  -0.049   0.234   0.183
    1UNL     O5   27   0.155   0.288   0.109
    1UNL    C21   28  -0.232   0.001  -0.197
    1UNL    C22   29  -0.108  -0.070  -0.213
    1UNL     O6   30  -0.049  -0.071  -0.317
    1UNL    C23   31  -0.176   0.017   0.056
    1UNL     H1   32   0.347   0.039  -0.353
    1UNL     H2   33   0.422  -0.125  -0.352
    1UNL     H3   34   0.250  -0.114  -0.382
    1UNL     H4   35   0.474   0.004  -0.027
    1UNL     H5   36   0.387   0.111   0.077
    1UNL     H6   37   0.570   0.088   0.089
    1UNL     H7   38   0.370  -0.205   0.347
    1UNL     H8   39   0.147  -0.260   0.418
    1UNL     H9   40  -0.055  -0.196   0.267
    1UNL    H10   41   0.040  -0.194  -0.107
    1UNL    H11   42  -0.152  -0.297   0.032
    1UNL    H12   43  -0.239  -0.246  -0.110
    1UNL    H13   44  -0.399  -0.071   0.188
    1UNL    H14   45  -0.447  -0.194   0.068
    1UNL    H15   46  -0.559   0.040   0.030
    1UNL    H16   47  -0.485  -0.029  -0.104
    1UNL    H17   48  -0.353   0.172   0.083
    1UNL    H18   49  -0.417   0.226  -0.073
    1UNL    H19   50  -0.183   0.262  -0.206
    1UNL    H20   51  -0.157   0.304  -0.039
    1UNL    H21   52   0.013   0.135  -0.221
    1UNL    H22   53   0.071   0.285  -0.141
    1UNL    H23   54   0.139   0.366   0.168
    1UNL    H24   55  -0.307  -0.081  -0.187
    1UNL    H25   56  -0.266   0.058  -0.290
    1UNL    H26   57  -0.181   0.061   0.158
   0.00000   0.00000   0.00000   0.00000   0.00000   0.00000   0.00000   0.00000   0.00000
Generated with MDTraj, t= 56.0
 57
    1UNL     C1    1   0.384  -0.100  -0.285
    1UNL     O1    2   0.343  -0.068  -0.152
    1UNL     C2    3   0.253   0.035  -0.150
    1UNL     O2    4   0.227   0.107  -0.249
    1UNL     N1    5   0.177   0.049  -0.031
    1UNL     C3    6   0.186  -0.035   0.082
    1UNL     C4    7   0.298  -0.092   0.154
    1UNL     O3    8   0.432  -0.072   0.141
    1UNL     C5    9   0.458   0.056   0.087
    1UNL     C6   10   0.262  -0.187   0.251
    1UNL     C7   11   0.126  -0.216   0.290
    1UNL     C8   12   0.024  -0.150   0.231
    1UNL     C9   13   0.055  -0.063   0.126
    1UNL    C10   14  -0.042  -0.004   0.023
    1UNL    C11   15  -0.060  -0.117  -0.080
    1UNL    C12   16  -0.171  -0.202  -0.020
    1UNL     N2   17  -0.249  -0.111   0.077
    1UNL    C13   18  -0.400  -0.121   0.101
    1UNL    C14   19  -0.465  -0.025  -0.005
    1UNL    C15   20  -0.394   0.115  -0.016
    1UNL    C16   21  -0.248   0.101  -0.055
    1UNL    C17   22  -0.164   0.233  -0.098
    1UNL    C18   23  -0.016   0.211  -0.122
    1UNL    C19   24   0.049   0.125  -0.011
    1UNL    C20   25   0.069   0.226   0.109
    1UNL     O4   26   0.009   0.209   0.214
    1UNL     O5   27   0.157   0.327   0.085
    1UNL    C21   28  -0.236   0.012  -0.188
    1UNL    C22   29  -0.107  -0.061  -0.208
    1UNL     O6   30  -0.048  -0.069  -0.315
    1UNL    C23   31  -0.183   0.023   0.064
    1UNL     H1   32   0.426  -0.008  -0.336
    1UNL     H2   33   0.469  -0.171  -0.291
    1UNL     H3   34   0.310  -0.138  -0.351
    1UNL     H4   35   0.453   0.052  -0.015
    1UNL     H5   36   0.381   0.121   0.125
    1UNL     H6   37   0.564   0.090   0.112
    1UNL     H7   38   0.339  -0.232   0.302
    1UNL     H8   39   0.100  -0.300   0.348
    1UNL     H9   40  -0.080  -0.179   0.262
    1UNL    H10   41   0.039  -0.172  -0.093
    1UNL    H11   42  -0.138  -0.288   0.040
    1UNL    H12   43  -0.234  -0.250  -0.096
    1UNL    H13   44  -0.429  -0.104   0.202
    1UNL    H14   45  -0.416  -0.229   0.081
    1UNL    H15   46  -0.567   0.002   0.011
    1UNL    H16   47  -0.466  -0.070  -0.108
    1UNL    H17   48  -0.399   0.170   0.084
    1UNL    H18   49  -0.440   0.183  -0.098
    1UNL    H19   50  -0.208   0.273  -0.186
    1UNL    H20   51  -0.170   0.309  -0.018
    1UNL    H21   52  -0.002   0.162  -0.220
    1UNL    H22   53   0.036   0.307  -0.135
    1UNL    H23   54   0.148   0.385   0.166
    1UNL    H24   55  -0.329  -0.054  -0.197
    1UNL    H25   56  -0.245   0.083  -0.280
    1UNL    H26   57  -0.179   0.087   0.154
   0.00000   0.00000   0.00000   0.00000   0.00000   0.00000   0.00000   0.00000   0.00000
Generated with MDTraj, t= 57.0
 57
    1UNL     C1    1   0.410  -0.091  -0.259
    1UNL     O1    2   0.335  -0.082  -0.139
    1UNL     C2    3   0.258   0.024  -0.136
    1UNL     O2    4   0.234   0.098  -0.230
    1UNL     N1    5   0.181   0.053  -0.024
    1UNL     C3    6   0.190  -0.040   0.085
    1UNL     C4    7   0.297  -0.099   0.149
    1UNL     O3    8   0.432  -0.052   0.121
    1UNL     C5    9   0.453   0.090   0.097
    1UNL     C6   10   0.275  -0.188   0.253
    1UNL     C7   11   0.147  -0.234   0.283
    1UNL     C8   12   0.037  -0.170   0.223
    1UNL     C9   13   0.058  -0.072   0.123
    1UNL    C10   14  -0.037  -0.015   0.018
    1UNL    C11   15  -0.065  -0.127  -0.092
    1UNL    C12   16  -0.183  -0.201  -0.028
    1UNL     N2   17  -0.249  -0.105   0.076
    1UNL    C13   18  -0.393  -0.090   0.121
    1UNL    C14   19  -0.477   0.001   0.024
    1UNL    C15   20  -0.392   0.120  -0.025
    1UNL    C16   21  -0.247   0.100  -0.065
    1UNL    C17   22  -0.157   0.227  -0.100
    1UNL    C18   23  -0.009   0.195  -0.133
    1UNL    C19   24   0.048   0.119  -0.016
    1UNL    C20   25   0.061   0.217   0.107
    1UNL     O4   26   0.012   0.190   0.212
    1UNL     O5   27   0.125   0.333   0.079
    1UNL    C21   28  -0.242   0.020  -0.199
    1UNL    C22   29  -0.117  -0.061  -0.217
    1UNL     O6   30  -0.071  -0.063  -0.327
    1UNL    C23   31  -0.184   0.025   0.060
    1UNL     H1   32   0.502  -0.025  -0.253
    1UNL     H2   33   0.455  -0.186  -0.277
    1UNL     H3   34   0.366  -0.059  -0.347
    1UNL     H4   35   0.489   0.094  -0.003
    1UNL     H5   36   0.360   0.142   0.103
    1UNL     H6   37   0.532   0.128   0.170
    1UNL     H7   38   0.362  -0.227   0.309
    1UNL     H8   39   0.144  -0.320   0.352
    1UNL     H9   40  -0.061  -0.212   0.224
    1UNL    H10   41   0.028  -0.184  -0.110
    1UNL    H11   42  -0.155  -0.300   0.008
    1UNL    H12   43  -0.264  -0.223  -0.097
    1UNL    H13   44  -0.387  -0.054   0.223
    1UNL    H14   45  -0.437  -0.191   0.129
    1UNL    H15   46  -0.565   0.041   0.073
    1UNL    H16   47  -0.509  -0.056  -0.067
    1UNL    H17   48  -0.397   0.210   0.048
    1UNL    H18   49  -0.443   0.156  -0.121
    1UNL    H19   50  -0.203   0.277  -0.183
    1UNL    H20   51  -0.165   0.293  -0.014
    1UNL    H21   52   0.017   0.139  -0.225
    1UNL    H22   53   0.044   0.291  -0.150
    1UNL    H23   54   0.128   0.378   0.166
    1UNL    H24   55  -0.339  -0.036  -0.227
    1UNL    H25   56  -0.241   0.107  -0.279
    1UNL    H26   57  -0.191   0.081   0.154
   0.00000   0.00000   0.00000   0.00000   0.00000   0.00000   0.00000   0.00000   0.00000
Generated with MDTraj, t= 58.0
 57
    1UNL     C1    1   0.393  -0.077  -0.294
    1UNL     O1    2   0.339  -0.070  -0.165
    1UNL     C2    3   0.268   0.046  -0.139
    1UNL     O2    4   0.260   0.136  -0.226
    1UNL     N1    5   0.195   0.045  -0.015
    1UNL     C3    6   0.200  -0.051   0.088
    1UNL     C4    7   0.308  -0.084   0.174
    1UNL     O3    8   0.434  -0.016   0.174
    1UNL     C5    9   0.433   0.105   0.102
    1UNL     C6   10   0.283  -0.195   0.260
    1UNL     C7   11   0.152  -0.246   0.287
    1UNL     C8   12   0.050  -0.198   0.211
    1UNL     C9   13   0.074  -0.109   0.108
    1UNL    C10   14  -0.034  -0.039   0.018
    1UNL    C11   15  -0.079  -0.142  -0.088
    1UNL    C12   16  -0.193  -0.210  -0.009
    1UNL     N2   17  -0.261  -0.101   0.075
    1UNL    C13   18  -0.406  -0.074   0.092
    1UNL    C14   19  -0.465   0.052   0.026
    1UNL    C15   20  -0.368   0.163  -0.013
    1UNL    C16   21  -0.229   0.114  -0.058
    1UNL    C17   22  -0.134   0.228  -0.102
    1UNL    C18   23   0.002   0.164  -0.146
    1UNL    C19   24   0.053   0.092  -0.025
    1UNL    C20   25   0.045   0.197   0.087
    1UNL     O4   26  -0.012   0.167   0.185
    1UNL     O5   27   0.099   0.319   0.070
    1UNL    C21   28  -0.253   0.018  -0.178
    1UNL    C22   29  -0.136  -0.072  -0.209
    1UNL     O6   30  -0.090  -0.080  -0.318
    1UNL    C23   31  -0.174   0.019   0.066
    1UNL     H1   32   0.454   0.014  -0.318
    1UNL     H2   33   0.464  -0.156  -0.313
    1UNL     H3   34   0.320  -0.074  -0.366
    1UNL     H4   35   0.423   0.067  -0.003
    1UNL     H5   36   0.347   0.162   0.128
    1UNL     H6   37   0.528   0.162   0.120
    1UNL     H7   38   0.361  -0.220   0.329
    1UNL     H8   39   0.128  -0.319   0.360
    1UNL     H9   40  -0.049  -0.229   0.228
    1UNL    H10   41  -0.000  -0.208  -0.115
    1UNL    H11   42  -0.141  -0.285   0.048
    1UNL    H12   43  -0.268  -0.254  -0.072
    1UNL    H13   44  -0.420  -0.063   0.199
    1UNL    H14   45  -0.466  -0.162   0.066
    1UNL    H15   46  -0.547   0.092   0.091
    1UNL    H16   47  -0.514   0.012  -0.064
    1UNL    H17   48  -0.349   0.229   0.083
    1UNL    H18   49  -0.409   0.234  -0.092
    1UNL    H19   50  -0.180   0.271  -0.190
    1UNL    H20   51  -0.127   0.301  -0.026
    1UNL    H21   52   0.003   0.097  -0.232
    1UNL    H22   53   0.077   0.245  -0.164
    1UNL    H23   54   0.060   0.375   0.138
    1UNL    H24   55  -0.350  -0.033  -0.166
    1UNL    H25   56  -0.258   0.078  -0.279
    1UNL    H26   57  -0.164   0.057   0.169
   0.00000   0.00000   0.00000   0.00000   0.00000   0.00000   0.00000   0.00000   0.00000
Generated with MDTraj, t= 59.0
 57
    1UNL     C1    1   0.384  -0.055  -0.295
    1UNL     O1    2   0.339  -0.062  -0.175
    1UNL     C2    3   0.276   0.054  -0.137
    1UNL     O2    4   0.259   0.151  -0.214
    1UNL     N1    5   0.193   0.045  -0.023
    1UNL     C3    6   0.194  -0.061   0.078
    1UNL     C4    7   0.294  -0.095   0.177
    1UNL     O3    8   0.416  -0.027   0.168
    1UNL     C5    9   0.423   0.107   0.116
    1UNL     C6   10   0.263  -0.181   0.283
    1UNL     C7   11   0.138  -0.232   0.295
    1UNL     C8   12   0.037  -0.190   0.208
    1UNL     C9   13   0.063  -0.108   0.100
    1UNL    C10   14  -0.032  -0.031   0.011
    1UNL    C11   15  -0.086  -0.141  -0.093
    1UNL    C12   16  -0.202  -0.205  -0.014
    1UNL     N2   17  -0.247  -0.100   0.083
    1UNL    C13   18  -0.390  -0.073   0.111
    1UNL    C14   19  -0.471   0.026   0.021
    1UNL    C15   20  -0.380   0.147  -0.024
    1UNL    C16   21  -0.238   0.107  -0.067
    1UNL    C17   22  -0.140   0.223  -0.100
    1UNL    C18   23   0.003   0.180  -0.146
    1UNL    C19   24   0.062   0.101  -0.019
    1UNL    C20   25   0.082   0.195   0.095
    1UNL     O4   26   0.047   0.160   0.203
    1UNL     O5   27   0.134   0.318   0.067
    1UNL    C21   28  -0.263   0.012  -0.193
    1UNL    C22   29  -0.146  -0.083  -0.213
    1UNL     O6   30  -0.100  -0.107  -0.324
    1UNL    C23   31  -0.170   0.021   0.053
    1UNL     H1   32   0.433   0.046  -0.321
    1UNL     H2   33   0.466  -0.127  -0.306
    1UNL     H3   34   0.305  -0.070  -0.360
    1UNL     H4   35   0.446   0.095   0.003
    1UNL     H5   36   0.329   0.156   0.129
    1UNL     H6   37   0.497   0.163   0.177
    1UNL     H7   38   0.343  -0.202   0.351
    1UNL     H8   39   0.115  -0.285   0.386
    1UNL     H9   40  -0.071  -0.219   0.226
    1UNL    H10   41  -0.013  -0.207  -0.122
    1UNL    H11   42  -0.163  -0.285   0.047
    1UNL    H12   43  -0.276  -0.237  -0.085
    1UNL    H13   44  -0.393  -0.020   0.208
    1UNL    H14   45  -0.438  -0.167   0.132
    1UNL    H15   46  -0.561   0.061   0.082
    1UNL    H16   47  -0.519  -0.030  -0.060
    1UNL    H17   48  -0.363   0.236   0.049
    1UNL    H18   49  -0.433   0.199  -0.112
    1UNL    H19   50  -0.191   0.278  -0.180
    1UNL    H20   51  -0.130   0.286  -0.018
    1UNL    H21   52  -0.001   0.112  -0.231
    1UNL    H22   53   0.064   0.269  -0.174
    1UNL    H23   54   0.125   0.369   0.149
    1UNL    H24   55  -0.358  -0.041  -0.202
    1UNL    H25   56  -0.258   0.074  -0.285
    1UNL    H26   57  -0.160   0.080   0.145
   0.00000   0.00000   0.00000   0.00000   0.00000   0.00000   0.00000   0.00000   0.00000
Generated with MDTraj, t= 60.0
 57
    1UNL     C1    1   0.429  -0.039  -0.289
    1UNL     O1    2   0.353  -0.073  -0.182
    1UNL     C2    3   0.265   0.030  -0.151
    1UNL     O2    4   0.242   0.116  -0.238
    1UNL     N1    5   0.188   0.028  -0.034
    1UNL     C3    6   0.188  -0.068   0.073
    1UNL     C4    7   0.294  -0.108   0.152
    1UNL     O3    8   0.429  -0.061   0.134
    1UNL     C5    9   0.433   0.082   0.126
    1UNL     C6   10   0.261  -0.182   0.268
    1UNL     C7   11   0.133  -0.202   0.310
    1UNL     C8   12   0.027  -0.152   0.237
    1UNL     C9   13   0.056  -0.085   0.121
    1UNL    C10   14  -0.035  -0.021   0.014
    1UNL    C11   15  -0.081  -0.136  -0.087
    1UNL    C12   16  -0.205  -0.197  -0.017
    1UNL     N2   17  -0.245  -0.095   0.080
    1UNL    C13   18  -0.389  -0.090   0.119
    1UNL    C14   19  -0.464   0.004   0.026
    1UNL    C15   20  -0.389   0.131  -0.018
    1UNL    C16   21  -0.249   0.105  -0.066
    1UNL    C17   22  -0.152   0.227  -0.090
    1UNL    C18   23  -0.009   0.180  -0.139
    1UNL    C19   24   0.057   0.105  -0.022
    1UNL    C20   25   0.067   0.209   0.094
    1UNL     O4   26   0.020   0.169   0.199
    1UNL     O5   27   0.124   0.325   0.074
    1UNL    C21   28  -0.257   0.016  -0.198
    1UNL    C22   29  -0.131  -0.068  -0.213
    1UNL     O6   30  -0.058  -0.074  -0.309
    1UNL    C23   31  -0.175   0.028   0.055
    1UNL     H1   32   0.509   0.044  -0.266
    1UNL     H2   33   0.488  -0.119  -0.339
    1UNL     H3   34   0.361   0.005  -0.358
    1UNL     H4   35   0.370   0.131   0.036
    1UNL     H5   36   0.396   0.116   0.220
    1UNL     H6   37   0.536   0.116   0.131
    1UNL     H7   38   0.344  -0.211   0.337
    1UNL     H8   39   0.101  -0.265   0.392
    1UNL     H9   40  -0.068  -0.152   0.276
    1UNL    H10   41  -0.011  -0.209  -0.095
    1UNL    H11   42  -0.194  -0.291   0.032
    1UNL    H12   43  -0.284  -0.201  -0.089
    1UNL    H13   44  -0.397  -0.065   0.228
    1UNL    H14   45  -0.433  -0.186   0.117
    1UNL    H15   46  -0.558   0.043   0.079
    1UNL    H16   47  -0.503  -0.053  -0.057
    1UNL    H17   48  -0.392   0.207   0.067
    1UNL    H18   49  -0.446   0.179  -0.107
    1UNL    H19   50  -0.197   0.302  -0.155
    1UNL    H20   51  -0.145   0.275   0.002
    1UNL    H21   52   0.004   0.121  -0.230
    1UNL    H22   53   0.054   0.272  -0.151
    1UNL    H23   54   0.126   0.372   0.160
    1UNL    H24   55  -0.345  -0.043  -0.217
    1UNL    H25   56  -0.252   0.073  -0.283
    1UNL    H26   57  -0.166   0.082   0.150
   0.00000   0.00000   0.00000   0.00000   0.00000   0.00000   0.00000   0.00000   0.00000
Generated with MDTraj, t= 61.0
 57
    1UNL     C1    1   0.419  -0.054  -0.260
    1UNL     O1    2   0.365  -0.044  -0.131
    1UNL     C2    3   0.258   0.039  -0.133
    1UNL     O2    4   0.223   0.103  -0.232
    1UNL     N1    5   0.180   0.040  -0.027
    1UNL     C3    6   0.195  -0.041   0.091
    1UNL     C4    7   0.313  -0.095   0.156
    1UNL     O3    8   0.443  -0.078   0.111
    1UNL     C5    9   0.489   0.052   0.093
    1UNL     C6   10   0.281  -0.179   0.259
    1UNL     C7   11   0.152  -0.204   0.302
    1UNL     C8   12   0.041  -0.160   0.232
    1UNL     C9   13   0.065  -0.078   0.126
    1UNL    C10   14  -0.039  -0.025   0.019
    1UNL    C11   15  -0.078  -0.139  -0.087
    1UNL    C12   16  -0.193  -0.206  -0.020
    1UNL     N2   17  -0.257  -0.104   0.072
    1UNL    C13   18  -0.410  -0.099   0.083
    1UNL    C14   19  -0.477   0.020   0.011
    1UNL    C15   20  -0.388   0.147  -0.012
    1UNL    C16   21  -0.251   0.104  -0.066
    1UNL    C17   22  -0.152   0.226  -0.106
    1UNL    C18   23  -0.016   0.176  -0.143
    1UNL    C19   24   0.045   0.107  -0.021
    1UNL    C20   25   0.055   0.210   0.096
    1UNL     O4   26  -0.009   0.203   0.202
    1UNL     O5   27   0.139   0.314   0.082
    1UNL    C21   28  -0.265   0.009  -0.188
    1UNL    C22   29  -0.134  -0.070  -0.208
    1UNL     O6   30  -0.080  -0.071  -0.314
    1UNL    C23   31  -0.186   0.025   0.054
    1UNL     H1   32   0.453   0.050  -0.302
    1UNL     H2   33   0.507  -0.124  -0.272
    1UNL     H3   34   0.336  -0.078  -0.323
    1UNL     H4   35   0.418   0.125   0.032
    1UNL     H5   36   0.506   0.090   0.192
    1UNL     H6   37   0.589   0.050   0.050
    1UNL     H7   38   0.356  -0.236   0.299
    1UNL     H8   39   0.144  -0.273   0.384
    1UNL     H9   40  -0.064  -0.187   0.259
    1UNL    H10   41   0.006  -0.194  -0.117
    1UNL    H11   42  -0.150  -0.285   0.038
    1UNL    H12   43  -0.265  -0.246  -0.089
    1UNL    H13   44  -0.448  -0.110   0.190
    1UNL    H14   45  -0.449  -0.188   0.044
    1UNL    H15   46  -0.574   0.053   0.059
    1UNL    H16   47  -0.506  -0.007  -0.088
    1UNL    H17   48  -0.384   0.200   0.085
    1UNL    H18   49  -0.441   0.215  -0.090
    1UNL    H19   50  -0.198   0.278  -0.190
    1UNL    H20   51  -0.144   0.296  -0.027
    1UNL    H21   52  -0.011   0.102  -0.223
    1UNL    H22   53   0.046   0.261  -0.182
    1UNL    H23   54   0.149   0.351   0.174
    1UNL    H24   55  -0.339  -0.066  -0.180
    1UNL    H25   56  -0.294   0.058  -0.272
    1UNL    H26   57  -0.182   0.083   0.146
   0.00000   0.00000   0.00000   0.00000   0.00000   0.00000   0.00000   0.00000   0.00000
Generated with MDTraj, t= 62.0
 57
    1UNL     C1    1   0.413  -0.052  -0.286
    1UNL     O1    2   0.350  -0.053  -0.158
    1UNL     C2    3   0.258   0.046  -0.140
    1UNL     O2    4   0.229   0.125  -0.229
    1UNL     N1    5   0.187   0.048  -0.027
    1UNL     C3    6   0.190  -0.053   0.073
    1UNL     C4    7   0.296  -0.099   0.155
    1UNL     O3    8   0.433  -0.066   0.152
    1UNL     C5    9   0.453   0.054   0.085
    1UNL     C6   10   0.264  -0.195   0.253
    1UNL     C7   11   0.133  -0.228   0.282
    1UNL     C8   12   0.030  -0.168   0.222
    1UNL     C9   13   0.054  -0.076   0.119
    1UNL    C10   14  -0.033  -0.015   0.016
    1UNL    C11   15  -0.066  -0.133  -0.080
    1UNL    C12   16  -0.179  -0.216  -0.002
    1UNL     N2   17  -0.243  -0.101   0.079
    1UNL    C13   18  -0.386  -0.078   0.113
    1UNL    C14   19  -0.461   0.007   0.008
    1UNL    C15   20  -0.382   0.138  -0.023
    1UNL    C16   21  -0.236   0.103  -0.059
    1UNL    C17   22  -0.158   0.236  -0.104
    1UNL    C18   23  -0.016   0.193  -0.136
    1UNL    C19   24   0.050   0.115  -0.016
    1UNL    C20   25   0.048   0.225   0.096
    1UNL     O4   26  -0.042   0.232   0.181
    1UNL     O5   27   0.162   0.296   0.112
    1UNL    C21   28  -0.240   0.014  -0.191
    1UNL    C22   29  -0.123  -0.082  -0.208
    1UNL     O6   30  -0.082  -0.116  -0.317
    1UNL    C23   31  -0.169   0.022   0.060
    1UNL     H1   32   0.387   0.039  -0.352
    1UNL     H2   33   0.522  -0.061  -0.264
    1UNL     H3   34   0.379  -0.136  -0.338
    1UNL     H4   35   0.362   0.118   0.093
    1UNL     H5   36   0.542   0.110   0.125
    1UNL     H6   37   0.472   0.034  -0.020
    1UNL     H7   38   0.348  -0.247   0.307
    1UNL     H8   39   0.111  -0.287   0.371
    1UNL     H9   40  -0.069  -0.201   0.249
    1UNL    H10   41   0.024  -0.187  -0.094
    1UNL    H11   42  -0.130  -0.290   0.057
    1UNL    H12   43  -0.256  -0.271  -0.054
    1UNL    H13   44  -0.394  -0.026   0.214
    1UNL    H14   45  -0.435  -0.169   0.126
    1UNL    H15   46  -0.569   0.026   0.035
    1UNL    H16   47  -0.468  -0.052  -0.081
    1UNL    H17   48  -0.379   0.197   0.070
    1UNL    H18   49  -0.441   0.202  -0.095
    1UNL    H19   50  -0.208   0.285  -0.185
    1UNL    H20   51  -0.163   0.300  -0.019
    1UNL    H21   52  -0.020   0.121  -0.218
    1UNL    H22   53   0.047   0.278  -0.171
    1UNL    H23   54   0.153   0.346   0.197
    1UNL    H24   55  -0.329  -0.036  -0.204
    1UNL    H25   56  -0.240   0.078  -0.277
    1UNL    H26   57  -0.161   0.075   0.155
   0.00000   0.00000   0.00000   0.00000   0.00000   0.00000   0.00000   0.00000   0.00000
Generated with MDTraj, t= 63.0
 57
    1UNL     C1    1   0.383  -0.058  -0.319
    1UNL     O1    2   0.338  -0.069  -0.177
    1UNL     C2    3   0.259   0.042  -0.143
    1UNL     O2    4   0.253   0.140  -0.220
    1UNL     N1    5   0.183   0.044  -0.031
    1UNL     C3    6   0.190  -0.059   0.073
    1UNL     C4    7   0.295  -0.095   0.161
    1UNL     O3    8   0.429  -0.047   0.157
    1UNL     C5    9   0.442   0.084   0.128
    1UNL     C6   10   0.275  -0.185   0.261
    1UNL     C7   11   0.148  -0.224   0.291
    1UNL     C8   12   0.042  -0.182   0.217
    1UNL     C9   13   0.064  -0.090   0.117
    1UNL    C10   14  -0.038  -0.016   0.028
    1UNL    C11   15  -0.071  -0.137  -0.078
    1UNL    C12   16  -0.185  -0.214  -0.005
    1UNL     N2   17  -0.252  -0.107   0.083
    1UNL    C13   18  -0.396  -0.072   0.122
    1UNL    C14   19  -0.473   0.014   0.023
    1UNL    C15   20  -0.397   0.133  -0.033
    1UNL    C16   21  -0.248   0.095  -0.072
    1UNL    C17   22  -0.173   0.222  -0.110
    1UNL    C18   23  -0.021   0.189  -0.140
    1UNL    C19   24   0.047   0.113  -0.017
    1UNL    C20   25   0.066   0.211   0.097
    1UNL     O4   26  -0.029   0.264   0.148
    1UNL     O5   27   0.190   0.238   0.135
    1UNL    C21   28  -0.239   0.005  -0.202
    1UNL    C22   29  -0.114  -0.077  -0.207
    1UNL     O6   30  -0.052  -0.079  -0.312
    1UNL    C23   31  -0.186   0.021   0.054
    1UNL     H1   32   0.396   0.051  -0.343
    1UNL     H2   33   0.471  -0.120  -0.329
    1UNL     H3   34   0.312  -0.093  -0.387
    1UNL     H4   35   0.357   0.137   0.161
    1UNL     H5   36   0.542   0.127   0.171
    1UNL     H6   37   0.449   0.089   0.018
    1UNL     H7   38   0.357  -0.215   0.321
    1UNL     H8   39   0.127  -0.270   0.384
    1UNL     H9   40  -0.059  -0.197   0.240
    1UNL    H10   41   0.024  -0.191  -0.096
    1UNL    H11   42  -0.160  -0.299   0.054
    1UNL    H12   43  -0.256  -0.254  -0.077
    1UNL    H13   44  -0.391  -0.003   0.214
    1UNL    H14   45  -0.450  -0.155   0.156
    1UNL    H15   46  -0.568   0.046   0.072
    1UNL    H16   47  -0.512  -0.052  -0.057
    1UNL    H17   48  -0.412   0.218   0.037
    1UNL    H18   49  -0.444   0.169  -0.123
    1UNL    H19   50  -0.231   0.255  -0.192
    1UNL    H20   51  -0.184   0.290  -0.027
    1UNL    H21   52  -0.013   0.131  -0.232
    1UNL    H22   53   0.044   0.278  -0.150
    1UNL    H23   54   0.194   0.302   0.207
    1UNL    H24   55  -0.324  -0.060  -0.194
    1UNL    H25   56  -0.247   0.064  -0.294
    1UNL    H26   57  -0.202   0.089   0.138
   0.00000   0.00000   0.00000   0.00000   0.00000   0.00000   0.00000   0.00000   0.00000
Generated with MDTraj, t= 64.0
 57
    1UNL     C1    1   0.367  -0.072  -0.303
    1UNL     O1    2   0.323  -0.075  -0.170
    1UNL     C2    3   0.252   0.034  -0.144
    1UNL     O2    4   0.252   0.133  -0.222
    1UNL     N1    5   0.184   0.040  -0.023
    1UNL     C3    6   0.191  -0.049   0.089
    1UNL     C4    7   0.312  -0.093   0.151
    1UNL     O3    8   0.439  -0.053   0.112
    1UNL     C5    9   0.448   0.085   0.105
    1UNL     C6   10   0.288  -0.175   0.264
    1UNL     C7   11   0.160  -0.208   0.309
    1UNL     C8   12   0.051  -0.165   0.239
    1UNL     C9   13   0.062  -0.085   0.129
    1UNL    C10   14  -0.029  -0.017   0.029
    1UNL    C11   15  -0.062  -0.120  -0.085
    1UNL    C12   16  -0.176  -0.204  -0.011
    1UNL     N2   17  -0.249  -0.106   0.073
    1UNL    C13   18  -0.402  -0.099   0.086
    1UNL    C14   19  -0.466   0.018   0.002
    1UNL    C15   20  -0.380   0.142  -0.018
    1UNL    C16   21  -0.241   0.099  -0.069
    1UNL    C17   22  -0.148   0.227  -0.113
    1UNL    C18   23  -0.002   0.185  -0.143
    1UNL    C19   24   0.047   0.110  -0.012
    1UNL    C20   25   0.045   0.208   0.102
    1UNL     O4   26  -0.053   0.269   0.138
    1UNL     O5   27   0.161   0.221   0.180
    1UNL    C21   28  -0.256   0.010  -0.195
    1UNL    C22   29  -0.128  -0.061  -0.215
    1UNL     O6   30  -0.069  -0.087  -0.314
    1UNL    C23   31  -0.176   0.019   0.058
    1UNL     H1   32   0.478  -0.062  -0.290
    1UNL     H2   33   0.328  -0.165  -0.338
    1UNL     H3   34   0.337   0.009  -0.361
    1UNL     H4   35   0.353   0.124   0.103
    1UNL     H5   36   0.511   0.132   0.192
    1UNL     H6   37   0.494   0.107   0.010
    1UNL     H7   38   0.370  -0.224   0.313
    1UNL     H8   39   0.147  -0.262   0.403
    1UNL     H9   40  -0.054  -0.173   0.281
    1UNL    H10   41   0.027  -0.184  -0.119
    1UNL    H11   42  -0.143  -0.278   0.060
    1UNL    H12   43  -0.242  -0.258  -0.079
    1UNL    H13   44  -0.427  -0.086   0.196
    1UNL    H14   45  -0.446  -0.193   0.062
    1UNL    H15   46  -0.560   0.046   0.051
    1UNL    H16   47  -0.511  -0.018  -0.096
    1UNL    H17   48  -0.369   0.198   0.076
    1UNL    H18   49  -0.427   0.212  -0.079
    1UNL    H19   50  -0.195   0.264  -0.198
    1UNL    H20   51  -0.153   0.301  -0.032
    1UNL    H21   52   0.027   0.123  -0.230
    1UNL    H22   53   0.050   0.280  -0.152
    1UNL    H23   54   0.150   0.293   0.242
    1UNL    H24   55  -0.335  -0.073  -0.189
    1UNL    H25   56  -0.281   0.080  -0.278
    1UNL    H26   57  -0.192   0.080   0.146
   0.00000   0.00000   0.00000   0.00000   0.00000   0.00000   0.00000   0.00000   0.00000
Generated with MDTraj, t= 65.0
 57
    1UNL     C1    1   0.364  -0.087  -0.278
    1UNL     O1    2   0.313  -0.074  -0.152
    1UNL     C2    3   0.247   0.043  -0.144
    1UNL     O2    4   0.242   0.121  -0.244
    1UNL     N1    5   0.191   0.073  -0.017
    1UNL     C3    6   0.195  -0.036   0.084
    1UNL     C4    7   0.303  -0.086   0.154
    1UNL     O3    8   0.441  -0.056   0.131
    1UNL     C5    9   0.467   0.056   0.051
    1UNL     C6   10   0.276  -0.168   0.260
    1UNL     C7   11   0.151  -0.208   0.292
    1UNL     C8   12   0.040  -0.153   0.227
    1UNL     C9   13   0.063  -0.064   0.126
    1UNL    C10   14  -0.031  -0.007   0.020
    1UNL    C11   15  -0.069  -0.127  -0.083
    1UNL    C12   16  -0.187  -0.195  -0.019
    1UNL     N2   17  -0.243  -0.103   0.084
    1UNL    C13   18  -0.391  -0.105   0.099
    1UNL    C14   19  -0.460  -0.008   0.001
    1UNL    C15   20  -0.394   0.131  -0.025
    1UNL    C16   21  -0.242   0.101  -0.075
    1UNL    C17   22  -0.151   0.231  -0.103
    1UNL    C18   23  -0.005   0.203  -0.124
    1UNL    C19   24   0.050   0.127  -0.003
    1UNL    C20   25   0.045   0.204   0.124
    1UNL     O4   26  -0.059   0.250   0.156
    1UNL     O5   27   0.165   0.220   0.188
    1UNL    C21   28  -0.238   0.015  -0.208
    1UNL    C22   29  -0.112  -0.069  -0.219
    1UNL     O6   30  -0.056  -0.100  -0.322
    1UNL    C23   31  -0.175   0.025   0.049
    1UNL     H1   32   0.416  -0.187  -0.272
    1UNL     H2   33   0.276  -0.079  -0.342
    1UNL     H3   34   0.440  -0.013  -0.291
    1UNL     H4   35   0.412   0.140   0.081
    1UNL     H5   36   0.580   0.069   0.058
    1UNL     H6   37   0.447   0.029  -0.049
    1UNL     H7   38   0.369  -0.195   0.317
    1UNL     H8   39   0.136  -0.290   0.359
    1UNL     H9   40  -0.058  -0.169   0.257
    1UNL    H10   41   0.015  -0.205  -0.108
    1UNL    H11   42  -0.153  -0.282   0.036
    1UNL    H12   43  -0.260  -0.223  -0.096
    1UNL    H13   44  -0.414  -0.074   0.205
    1UNL    H14   45  -0.432  -0.204   0.094
    1UNL    H15   46  -0.562   0.015   0.028
    1UNL    H16   47  -0.476  -0.059  -0.101
    1UNL    H17   48  -0.388   0.182   0.068
    1UNL    H18   49  -0.453   0.194  -0.085
    1UNL    H19   50  -0.190   0.285  -0.183
    1UNL    H20   51  -0.171   0.285  -0.009
    1UNL    H21   52   0.005   0.148  -0.219
    1UNL    H22   53   0.062   0.288  -0.134
    1UNL    H23   54   0.162   0.277   0.268
    1UNL    H24   55  -0.331  -0.052  -0.206
    1UNL    H25   56  -0.244   0.077  -0.306
    1UNL    H26   57  -0.174   0.091   0.135
   0.00000   0.00000   0.00000   0.00000   0.00000   0.00000   0.00000   0.00000   0.00000
Generated with MDTraj, t= 66.0
 57
    1UNL     C1    1   0.329  -0.092  -0.312
    1UNL     O1    2   0.301  -0.084  -0.170
    1UNL     C2    3   0.236   0.033  -0.151
    1UNL     O2    4   0.226   0.121  -0.243
    1UNL     N1    5   0.186   0.054  -0.019
    1UNL     C3    6   0.198  -0.034   0.095
    1UNL     C4    7   0.307  -0.083   0.174
    1UNL     O3    8   0.434  -0.039   0.176
    1UNL     C5    9   0.463   0.047   0.064
    1UNL     C6   10   0.277  -0.179   0.270
    1UNL     C7   11   0.147  -0.220   0.298
    1UNL     C8   12   0.038  -0.169   0.227
    1UNL     C9   13   0.067  -0.077   0.124
    1UNL    C10   14  -0.029  -0.009   0.021
    1UNL    C11   15  -0.058  -0.120  -0.083
    1UNL    C12   16  -0.185  -0.198  -0.026
    1UNL     N2   17  -0.253  -0.102   0.070
    1UNL    C13   18  -0.394  -0.105   0.101
    1UNL    C14   19  -0.473  -0.020   0.004
    1UNL    C15   20  -0.391   0.111  -0.033
    1UNL    C16   21  -0.244   0.086  -0.073
    1UNL    C17   22  -0.161   0.220  -0.099
    1UNL    C18   23  -0.006   0.196  -0.127
    1UNL    C19   24   0.054   0.119  -0.006
    1UNL    C20   25   0.065   0.220   0.109
    1UNL     O4   26  -0.036   0.260   0.160
    1UNL     O5   27   0.184   0.265   0.155
    1UNL    C21   28  -0.232   0.008  -0.203
    1UNL    C22   29  -0.096  -0.051  -0.208
    1UNL     O6   30  -0.028  -0.044  -0.310
    1UNL    C23   31  -0.177   0.021   0.058
    1UNL     H1   32   0.319  -0.201  -0.335
    1UNL     H2   33   0.256  -0.023  -0.363
    1UNL     H3   34   0.434  -0.061  -0.325
    1UNL     H4   35   0.386   0.118   0.037
    1UNL     H5   36   0.554   0.096   0.098
    1UNL     H6   37   0.490  -0.010  -0.023
    1UNL     H7   38   0.355  -0.227   0.317
    1UNL     H8   39   0.123  -0.298   0.372
    1UNL     H9   40  -0.064  -0.212   0.242
    1UNL    H10   41   0.029  -0.197  -0.105
    1UNL    H11   42  -0.155  -0.293   0.019
    1UNL    H12   43  -0.264  -0.220  -0.099
    1UNL    H13   44  -0.412  -0.069   0.204
    1UNL    H14   45  -0.424  -0.210   0.096
    1UNL    H15   46  -0.572   0.004   0.043
    1UNL    H16   47  -0.487  -0.071  -0.098
    1UNL    H17   48  -0.398   0.178   0.045
    1UNL    H18   49  -0.435   0.152  -0.120
    1UNL    H19   50  -0.216   0.264  -0.178
    1UNL    H20   51  -0.172   0.283  -0.011
    1UNL    H21   52   0.018   0.143  -0.221
    1UNL    H22   53   0.050   0.287  -0.131
    1UNL    H23   54   0.173   0.341   0.221
    1UNL    H24   55  -0.306  -0.076  -0.218
    1UNL    H25   56  -0.253   0.083  -0.294
    1UNL    H26   57  -0.191   0.077   0.151
   0.00000   0.00000   0.00000   0.00000   0.00000   0.00000   0.00000   0.00000   0.00000
Generated with MDTraj, t= 67.0
 57
    1UNL     C1    1   0.283  -0.107  -0.325
    1UNL     O1    2   0.279  -0.085  -0.178
    1UNL     C2    3   0.247   0.039  -0.140
    1UNL     O2    4   0.257   0.131  -0.225
    1UNL     N1    5   0.196   0.061  -0.010
    1UNL     C3    6   0.196  -0.041   0.096
    1UNL     C4    7   0.303  -0.086   0.179
    1UNL     O3    8   0.433  -0.051   0.154
    1UNL     C5    9   0.438   0.080   0.082
    1UNL     C6   10   0.273  -0.173   0.283
    1UNL     C7   11   0.142  -0.205   0.319
    1UNL     C8   12   0.034  -0.159   0.241
    1UNL     C9   13   0.063  -0.082   0.128
    1UNL    C10   14  -0.027  -0.011   0.022
    1UNL    C11   15  -0.046  -0.122  -0.088
    1UNL    C12   16  -0.158  -0.214  -0.029
    1UNL     N2   17  -0.247  -0.122   0.058
    1UNL    C13   18  -0.392  -0.117   0.063
    1UNL    C14   19  -0.465  -0.003  -0.009
    1UNL    C15   20  -0.381   0.130  -0.025
    1UNL    C16   21  -0.233   0.103  -0.058
    1UNL    C17   22  -0.147   0.237  -0.082
    1UNL    C18   23  -0.004   0.194  -0.128
    1UNL    C19   24   0.063   0.123  -0.012
    1UNL    C20   25   0.062   0.213   0.108
    1UNL     O4   26  -0.027   0.221   0.190
    1UNL     O5   27   0.173   0.291   0.123
    1UNL    C21   28  -0.222   0.025  -0.191
    1UNL    C22   29  -0.096  -0.061  -0.219
    1UNL     O6   30  -0.064  -0.082  -0.334
    1UNL    C23   31  -0.175   0.013   0.058
    1UNL     H1   32   0.375  -0.169  -0.328
    1UNL     H2   33   0.189  -0.162  -0.351
    1UNL     H3   34   0.288  -0.006  -0.373
    1UNL     H4   35   0.362   0.151   0.118
    1UNL     H5   36   0.532   0.121   0.104
    1UNL     H6   37   0.429   0.073  -0.025
    1UNL     H7   38   0.358  -0.196   0.354
    1UNL     H8   39   0.135  -0.277   0.398
    1UNL     H9   40  -0.068  -0.196   0.243
    1UNL    H10   41   0.059  -0.174  -0.102
    1UNL    H11   42  -0.118  -0.288   0.042
    1UNL    H12   43  -0.216  -0.263  -0.109
    1UNL    H13   44  -0.421  -0.117   0.167
    1UNL    H14   45  -0.427  -0.211   0.016
    1UNL    H15   46  -0.558   0.025   0.042
    1UNL    H16   47  -0.499  -0.048  -0.107
    1UNL    H17   48  -0.383   0.188   0.060
    1UNL    H18   49  -0.421   0.191  -0.101
    1UNL    H19   50  -0.189   0.299  -0.159
    1UNL    H20   51  -0.145   0.293   0.010
    1UNL    H21   52   0.001   0.130  -0.218
    1UNL    H22   53   0.054   0.282  -0.148
    1UNL    H23   54   0.166   0.326   0.217
    1UNL    H24   55  -0.298  -0.056  -0.192
    1UNL    H25   56  -0.247   0.088  -0.285
    1UNL    H26   57  -0.185   0.067   0.152
   0.00000   0.00000   0.00000   0.00000   0.00000   0.00000   0.00000   0.00000   0.00000
Generated with MDTraj, t= 68.0
 57
    1UNL     C1    1   0.274  -0.120  -0.319
    1UNL     O1    2   0.257  -0.105  -0.180
    1UNL     C2    3   0.235   0.027  -0.154
    1UNL     O2    4   0.266   0.125  -0.230
    1UNL     N1    5   0.188   0.056  -0.022
    1UNL     C3    6   0.196  -0.037   0.090
    1UNL     C4    7   0.304  -0.073   0.167
    1UNL     O3    8   0.439  -0.044   0.131
    1UNL     C5    9   0.468   0.097   0.127
    1UNL     C6   10   0.283  -0.145   0.283
    1UNL     C7   11   0.153  -0.193   0.312
    1UNL     C8   12   0.048  -0.158   0.232
    1UNL     C9   13   0.071  -0.078   0.122
    1UNL    C10   14  -0.023  -0.024   0.016
    1UNL    C11   15  -0.054  -0.128  -0.092
    1UNL    C12   16  -0.172  -0.209  -0.026
    1UNL     N2   17  -0.243  -0.107   0.065
    1UNL    C13   18  -0.392  -0.086   0.086
    1UNL    C14   19  -0.467   0.005  -0.015
    1UNL    C15   20  -0.382   0.127  -0.052
    1UNL    C16   21  -0.230   0.099  -0.070
    1UNL    C17   22  -0.150   0.228  -0.088
    1UNL    C18   23  -0.004   0.199  -0.113
    1UNL    C19   24   0.052   0.111  -0.002
    1UNL    C20   25   0.053   0.193   0.125
    1UNL     O4   26  -0.015   0.160   0.219
    1UNL     O5   27   0.135   0.294   0.124
    1UNL    C21   28  -0.214   0.029  -0.205
    1UNL    C22   29  -0.096  -0.057  -0.220
    1UNL     O6   30  -0.047  -0.068  -0.327
    1UNL    C23   31  -0.169   0.022   0.052
    1UNL     H1   32   0.339  -0.207  -0.321
    1UNL     H2   33   0.176  -0.140  -0.364
    1UNL     H3   34   0.312  -0.019  -0.350
    1UNL     H4   35   0.376   0.157   0.132
    1UNL     H5   36   0.526   0.116   0.206
    1UNL     H6   37   0.519   0.116   0.034
    1UNL     H7   38   0.365  -0.162   0.344
    1UNL     H8   39   0.128  -0.262   0.393
    1UNL     H9   40  -0.045  -0.204   0.242
    1UNL    H10   41   0.036  -0.195  -0.115
    1UNL    H11   42  -0.135  -0.291   0.041
    1UNL    H12   43  -0.234  -0.252  -0.105
    1UNL    H13   44  -0.393  -0.031   0.177
    1UNL    H14   45  -0.448  -0.182   0.102
    1UNL    H15   46  -0.569   0.029   0.027
    1UNL    H16   47  -0.494  -0.047  -0.109
    1UNL    H17   48  -0.386   0.198   0.025
    1UNL    H18   49  -0.417   0.178  -0.135
    1UNL    H19   50  -0.185   0.283  -0.175
    1UNL    H20   51  -0.166   0.287  -0.001
    1UNL    H21   52   0.007   0.138  -0.204
    1UNL    H22   53   0.058   0.286  -0.124
    1UNL    H23   54   0.134   0.333   0.214
    1UNL    H24   55  -0.294  -0.042  -0.229
    1UNL    H25   56  -0.215   0.095  -0.290
    1UNL    H26   57  -0.178   0.077   0.146
   0.00000   0.00000   0.00000   0.00000   0.00000   0.00000   0.00000   0.00000   0.00000
Generated with MDTraj, t= 69.0
 57
    1UNL     C1    1   0.280  -0.133  -0.319
    1UNL     O1    2   0.281  -0.113  -0.180
    1UNL     C2    3   0.238   0.019  -0.150
    1UNL     O2    4   0.237   0.113  -0.237
    1UNL     N1    5   0.194   0.053  -0.015
    1UNL     C3    6   0.194  -0.046   0.093
    1UNL     C4    7   0.308  -0.091   0.163
    1UNL     O3    8   0.432  -0.018   0.152
    1UNL     C5    9   0.428   0.113   0.113
    1UNL     C6   10   0.287  -0.188   0.265
    1UNL     C7   11   0.156  -0.225   0.297
    1UNL     C8   12   0.045  -0.167   0.234
    1UNL     C9   13   0.064  -0.081   0.127
    1UNL    C10   14  -0.027  -0.015   0.026
    1UNL    C11   15  -0.054  -0.119  -0.086
    1UNL    C12   16  -0.179  -0.200  -0.029
    1UNL     N2   17  -0.245  -0.115   0.071
    1UNL    C13   18  -0.394  -0.104   0.085
    1UNL    C14   19  -0.452   0.006  -0.013
    1UNL    C15   20  -0.380   0.136  -0.038
    1UNL    C16   21  -0.230   0.105  -0.072
    1UNL    C17   22  -0.143   0.233  -0.092
    1UNL    C18   23   0.005   0.199  -0.118
    1UNL    C19   24   0.063   0.113  -0.002
    1UNL    C20   25   0.054   0.208   0.122
    1UNL     O4   26  -0.002   0.186   0.229
    1UNL     O5   27   0.125   0.323   0.102
    1UNL    C21   28  -0.224   0.022  -0.205
    1UNL    C22   29  -0.093  -0.052  -0.216
    1UNL     O6   30  -0.026  -0.055  -0.319
    1UNL    C23   31  -0.174   0.018   0.049
    1UNL     H1   32   0.208  -0.213  -0.319
    1UNL     H2   33   0.243  -0.045  -0.368
    1UNL     H3   34   0.384  -0.152  -0.341
    1UNL     H4   35   0.334   0.128   0.058
    1UNL     H5   36   0.432   0.177   0.191
    1UNL     H6   37   0.506   0.121   0.038
    1UNL     H7   38   0.369  -0.222   0.330
    1UNL     H8   39   0.146  -0.290   0.382
    1UNL     H9   40  -0.061  -0.185   0.272
    1UNL    H10   41   0.035  -0.184  -0.108
    1UNL    H11   42  -0.148  -0.301   0.011
    1UNL    H12   43  -0.253  -0.222  -0.107
    1UNL    H13   44  -0.417  -0.085   0.186
    1UNL    H14   45  -0.432  -0.209   0.061
    1UNL    H15   46  -0.558   0.044   0.010
    1UNL    H16   47  -0.469  -0.043  -0.108
    1UNL    H17   48  -0.388   0.196   0.048
    1UNL    H18   49  -0.418   0.192  -0.115
    1UNL    H19   50  -0.197   0.285  -0.172
    1UNL    H20   51  -0.141   0.296  -0.008
    1UNL    H21   52   0.027   0.147  -0.213
    1UNL    H22   53   0.061   0.291  -0.117
    1UNL    H23   54   0.127   0.364   0.188
    1UNL    H24   55  -0.304  -0.048  -0.211
    1UNL    H25   56  -0.234   0.079  -0.288
    1UNL    H26   57  -0.184   0.074   0.142
   0.00000   0.00000   0.00000   0.00000   0.00000   0.00000   0.00000   0.00000   0.00000
Generated with MDTraj, t= 70.0
 57
    1UNL     C1    1   0.313  -0.129  -0.284
    1UNL     O1    2   0.290  -0.094  -0.149
    1UNL     C2    3   0.239   0.028  -0.143
    1UNL     O2    4   0.234   0.111  -0.238
    1UNL     N1    5   0.193   0.067  -0.012
    1UNL     C3    6   0.195  -0.030   0.096
    1UNL     C4    7   0.308  -0.080   0.165
    1UNL     O3    8   0.445  -0.038   0.158
    1UNL     C5    9   0.460   0.100   0.140
    1UNL     C6   10   0.283  -0.186   0.255
    1UNL     C7   11   0.152  -0.227   0.278
    1UNL     C8   12   0.043  -0.182   0.210
    1UNL     C9   13   0.069  -0.087   0.116
    1UNL    C10   14  -0.024  -0.015   0.019
    1UNL    C11   15  -0.062  -0.124  -0.098
    1UNL    C12   16  -0.189  -0.198  -0.034
    1UNL     N2   17  -0.247  -0.111   0.071
    1UNL    C13   18  -0.396  -0.116   0.066
    1UNL    C14   19  -0.464  -0.001  -0.010
    1UNL    C15   20  -0.380   0.126  -0.010
    1UNL    C16   21  -0.236   0.101  -0.065
    1UNL    C17   22  -0.152   0.226  -0.090
    1UNL    C18   23  -0.003   0.201  -0.126
    1UNL    C19   24   0.057   0.124  -0.005
    1UNL    C20   25   0.063   0.226   0.113
    1UNL     O4   26   0.011   0.208   0.220
    1UNL     O5   27   0.148   0.324   0.082
    1UNL    C21   28  -0.246   0.023  -0.208
    1UNL    C22   29  -0.120  -0.057  -0.220
    1UNL     O6   30  -0.056  -0.076  -0.321
    1UNL    C23   31  -0.176   0.016   0.053
    1UNL     H1   32   0.210  -0.134  -0.316
    1UNL     H2   33   0.365  -0.049  -0.334
    1UNL     H3   34   0.361  -0.226  -0.285
    1UNL     H4   35   0.365   0.127   0.089
    1UNL     H5   36   0.465   0.156   0.229
    1UNL     H6   37   0.541   0.121   0.069
    1UNL     H7   38   0.366  -0.223   0.316
    1UNL     H8   39   0.133  -0.303   0.354
    1UNL     H9   40  -0.055  -0.191   0.240
    1UNL    H10   41   0.023  -0.186  -0.122
    1UNL    H11   42  -0.152  -0.292   0.015
    1UNL    H12   43  -0.265  -0.236  -0.104
    1UNL    H13   44  -0.422  -0.122   0.168
    1UNL    H14   45  -0.429  -0.214   0.017
    1UNL    H15   46  -0.562   0.024   0.049
    1UNL    H16   47  -0.492  -0.011  -0.115
    1UNL    H17   48  -0.379   0.170   0.086
    1UNL    H18   49  -0.423   0.192  -0.078
    1UNL    H19   50  -0.198   0.280  -0.174
    1UNL    H20   51  -0.169   0.278  -0.001
    1UNL    H21   52   0.015   0.142  -0.216
    1UNL    H22   53   0.054   0.292  -0.140
    1UNL    H23   54   0.164   0.371   0.163
    1UNL    H24   55  -0.327  -0.040  -0.205
    1UNL    H25   56  -0.266   0.092  -0.281
    1UNL    H26   57  -0.183   0.075   0.145
   0.00000   0.00000   0.00000   0.00000   0.00000   0.00000   0.00000   0.00000   0.00000
Generated with MDTraj, t= 71.0
 57
    1UNL     C1    1   0.372  -0.109  -0.289
    1UNL     O1    2   0.319  -0.093  -0.155
    1UNL     C2    3   0.255   0.020  -0.144
    1UNL     O2    4   0.244   0.104  -0.235
    1UNL     N1    5   0.197   0.053  -0.022
    1UNL     C3    6   0.192  -0.042   0.082
    1UNL     C4    7   0.298  -0.099   0.156
    1UNL     O3    8   0.428  -0.052   0.128
    1UNL     C5    9   0.437   0.093   0.128
    1UNL     C6   10   0.275  -0.188   0.255
    1UNL     C7   11   0.147  -0.224   0.287
    1UNL     C8   12   0.040  -0.165   0.220
    1UNL     C9   13   0.061  -0.069   0.119
    1UNL    C10   14  -0.028  -0.012   0.014
    1UNL    C11   15  -0.062  -0.120  -0.094
    1UNL    C12   16  -0.175  -0.201  -0.015
    1UNL     N2   17  -0.233  -0.104   0.077
    1UNL    C13   18  -0.373  -0.092   0.111
    1UNL    C14   19  -0.460   0.001   0.018
    1UNL    C15   20  -0.391   0.135  -0.019
    1UNL    C16   21  -0.244   0.104  -0.074
    1UNL    C17   22  -0.158   0.234  -0.099
    1UNL    C18   23  -0.010   0.196  -0.129
    1UNL    C19   24   0.057   0.114  -0.017
    1UNL    C20   25   0.048   0.210   0.107
    1UNL     O4   26  -0.040   0.198   0.187
    1UNL     O5   27   0.136   0.310   0.116
    1UNL    C21   28  -0.241   0.013  -0.199
    1UNL    C22   29  -0.114  -0.057  -0.221
    1UNL     O6   30  -0.057  -0.058  -0.324
    1UNL    C23   31  -0.171   0.028   0.053
    1UNL     H1   32   0.364  -0.011  -0.332
    1UNL     H2   33   0.483  -0.129  -0.287
    1UNL     H3   34   0.294  -0.173  -0.338
    1UNL     H4   35   0.382   0.130   0.037
    1UNL     H5   36   0.385   0.138   0.215
    1UNL     H6   37   0.540   0.130   0.118
    1UNL     H7   38   0.360  -0.231   0.298
    1UNL     H8   39   0.126  -0.288   0.370
    1UNL     H9   40  -0.064  -0.196   0.245
    1UNL    H10   41   0.030  -0.166  -0.113
    1UNL    H11   42  -0.144  -0.295   0.039
    1UNL    H12   43  -0.254  -0.234  -0.086
    1UNL    H13   44  -0.372  -0.051   0.207
    1UNL    H14   45  -0.407  -0.202   0.115
    1UNL    H15   46  -0.559   0.032   0.075
    1UNL    H16   47  -0.487  -0.056  -0.070
    1UNL    H17   48  -0.369   0.192   0.068
    1UNL    H18   49  -0.450   0.198  -0.079
    1UNL    H19   50  -0.199   0.282  -0.188
    1UNL    H20   51  -0.166   0.298  -0.015
    1UNL    H21   52   0.005   0.136  -0.217
    1UNL    H22   53   0.054   0.283  -0.141
    1UNL    H23   54   0.110   0.357   0.198
    1UNL    H24   55  -0.325  -0.048  -0.191
    1UNL    H25   56  -0.253   0.078  -0.282
    1UNL    H26   57  -0.175   0.098   0.136
   0.00000   0.00000   0.00000   0.00000   0.00000   0.00000   0.00000   0.00000   0.00000
Generated with MDTraj, t= 72.0
 57
    1UNL     C1    1   0.404  -0.058  -0.282
    1UNL     O1    2   0.344  -0.059  -0.154
    1UNL     C2    3   0.256   0.037  -0.136
    1UNL     O2    4   0.236   0.125  -0.222
    1UNL     N1    5   0.183   0.041  -0.020
    1UNL     C3    6   0.197  -0.052   0.086
    1UNL     C4    7   0.307  -0.084   0.170
    1UNL     O3    8   0.439  -0.043   0.148
    1UNL     C5    9   0.448   0.074   0.069
    1UNL     C6   10   0.277  -0.181   0.271
    1UNL     C7   11   0.146  -0.229   0.297
    1UNL     C8   12   0.037  -0.181   0.225
    1UNL     C9   13   0.063  -0.091   0.123
    1UNL    C10   14  -0.036  -0.021   0.022
    1UNL    C11   15  -0.073  -0.132  -0.085
    1UNL    C12   16  -0.185  -0.208  -0.015
    1UNL     N2   17  -0.260  -0.104   0.070
    1UNL    C13   18  -0.408  -0.088   0.101
    1UNL    C14   19  -0.479   0.012   0.009
    1UNL    C15   20  -0.392   0.134  -0.028
    1UNL    C16   21  -0.245   0.102  -0.066
    1UNL    C17   22  -0.166   0.231  -0.086
    1UNL    C18   23  -0.025   0.196  -0.135
    1UNL    C19   24   0.048   0.107  -0.023
    1UNL    C20   25   0.063   0.205   0.091
    1UNL     O4   26  -0.024   0.233   0.169
    1UNL     O5   27   0.187   0.261   0.104
    1UNL    C21   28  -0.247   0.013  -0.195
    1UNL    C22   29  -0.122  -0.067  -0.212
    1UNL     O6   30  -0.066  -0.077  -0.318
    1UNL    C23   31  -0.182   0.023   0.058
    1UNL     H1   32   0.508  -0.041  -0.261
    1UNL     H2   33   0.398  -0.160  -0.334
    1UNL     H3   34   0.354   0.033  -0.330
    1UNL     H4   35   0.486   0.058  -0.032
    1UNL     H5   36   0.346   0.133   0.065
    1UNL     H6   37   0.523   0.138   0.123
    1UNL     H7   38   0.362  -0.224   0.331
    1UNL     H8   39   0.135  -0.307   0.372
    1UNL     H9   40  -0.061  -0.225   0.247
    1UNL    H10   41   0.002  -0.201  -0.107
    1UNL    H11   42  -0.142  -0.287   0.052
    1UNL    H12   43  -0.237  -0.268  -0.096
    1UNL    H13   44  -0.407  -0.050   0.199
    1UNL    H14   45  -0.457  -0.192   0.101
    1UNL    H15   46  -0.577   0.046   0.066
    1UNL    H16   47  -0.515  -0.038  -0.082
    1UNL    H17   48  -0.383   0.210   0.043
    1UNL    H18   49  -0.431   0.188  -0.113
    1UNL    H19   50  -0.218   0.297  -0.155
    1UNL    H20   51  -0.154   0.279   0.010
    1UNL    H21   52  -0.032   0.130  -0.218
    1UNL    H22   53   0.040   0.279  -0.164
    1UNL    H23   54   0.185   0.309   0.191
    1UNL    H24   55  -0.330  -0.059  -0.182
    1UNL    H25   56  -0.271   0.081  -0.278
    1UNL    H26   57  -0.171   0.075   0.154
   0.00000   0.00000   0.00000   0.00000   0.00000   0.00000   0.00000   0.00000   0.00000
Generated with MDTraj, t= 73.0
 57
    1UNL     C1    1   0.425  -0.004  -0.298
    1UNL     O1    2   0.357  -0.042  -0.180
    1UNL     C2    3   0.258   0.046  -0.151
    1UNL     O2    4   0.232   0.143  -0.227
    1UNL     N1    5   0.182   0.035  -0.035
    1UNL     C3    6   0.197  -0.061   0.077
    1UNL     C4    7   0.301  -0.094   0.167
    1UNL     O3    8   0.427  -0.045   0.169
    1UNL     C5    9   0.451   0.054   0.073
    1UNL     C6   10   0.265  -0.182   0.272
    1UNL     C7   11   0.134  -0.204   0.310
    1UNL     C8   12   0.036  -0.156   0.223
    1UNL     C9   13   0.068  -0.089   0.109
    1UNL    C10   14  -0.033  -0.022   0.014
    1UNL    C11   15  -0.073  -0.150  -0.079
    1UNL    C12   16  -0.196  -0.213   0.003
    1UNL     N2   17  -0.263  -0.103   0.077
    1UNL    C13   18  -0.418  -0.083   0.096
    1UNL    C14   19  -0.482   0.022   0.005
    1UNL    C15   20  -0.392   0.142  -0.016
    1UNL    C16   21  -0.248   0.097  -0.054
    1UNL    C17   22  -0.157   0.219  -0.092
    1UNL    C18   23  -0.014   0.178  -0.138
    1UNL    C19   24   0.054   0.104  -0.020
    1UNL    C20   25   0.074   0.205   0.097
    1UNL     O4   26  -0.026   0.245   0.149
    1UNL     O5   27   0.201   0.236   0.138
    1UNL    C21   28  -0.251   0.005  -0.187
    1UNL    C22   29  -0.124  -0.084  -0.204
    1UNL     O6   30  -0.081  -0.104  -0.319
    1UNL    C23   31  -0.178   0.018   0.058
    1UNL     H1   32   0.449  -0.091  -0.355
    1UNL     H2   33   0.366   0.075  -0.358
    1UNL     H3   34   0.515   0.045  -0.253
    1UNL     H4   35   0.480   0.022  -0.026
    1UNL     H5   36   0.359   0.132   0.069
    1UNL     H6   37   0.538   0.109   0.120
    1UNL     H7   38   0.340  -0.225   0.328
    1UNL     H8   39   0.117  -0.256   0.401
    1UNL     H9   40  -0.063  -0.185   0.238
    1UNL    H10   41   0.002  -0.221  -0.087
    1UNL    H11   42  -0.164  -0.292   0.075
    1UNL    H12   43  -0.266  -0.265  -0.071
    1UNL    H13   44  -0.438  -0.065   0.199
    1UNL    H14   45  -0.453  -0.189   0.070
    1UNL    H15   46  -0.586   0.057   0.043
    1UNL    H16   47  -0.511  -0.026  -0.093
    1UNL    H17   48  -0.385   0.204   0.067
    1UNL    H18   49  -0.417   0.210  -0.096
    1UNL    H19   50  -0.190   0.282  -0.172
    1UNL    H20   51  -0.148   0.282  -0.003
    1UNL    H21   52  -0.009   0.128  -0.233
    1UNL    H22   53   0.050   0.266  -0.148
    1UNL    H23   54   0.195   0.305   0.210
    1UNL    H24   55  -0.345  -0.058  -0.208
    1UNL    H25   56  -0.243   0.074  -0.278
    1UNL    H26   57  -0.180   0.067   0.156
   0.00000   0.00000   0.00000   0.00000   0.00000   0.00000   0.00000   0.00000   0.00000
Generated with MDTraj, t= 74.0
 57
    1UNL     C1    1   0.411  -0.003  -0.294
    1UNL     O1    2   0.367  -0.035  -0.167
    1UNL     C2    3   0.270   0.058  -0.132
    1UNL     O2    4   0.243   0.147  -0.218
    1UNL     N1    5   0.187   0.045  -0.020
    1UNL     C3    6   0.188  -0.063   0.077
    1UNL     C4    7   0.296  -0.107   0.152
    1UNL     O3    8   0.436  -0.085   0.123
    1UNL     C5    9   0.457   0.057   0.098
    1UNL     C6   10   0.262  -0.162   0.273
    1UNL     C7   11   0.132  -0.184   0.310
    1UNL     C8   12   0.026  -0.146   0.234
    1UNL     C9   13   0.058  -0.082   0.117
    1UNL    C10   14  -0.031  -0.031   0.008
    1UNL    C11   15  -0.084  -0.145  -0.096
    1UNL    C12   16  -0.198  -0.203  -0.013
    1UNL     N2   17  -0.248  -0.100   0.089
    1UNL    C13   18  -0.392  -0.069   0.139
    1UNL    C14   19  -0.463   0.010   0.038
    1UNL    C15   20  -0.383   0.133  -0.017
    1UNL    C16   21  -0.241   0.091  -0.076
    1UNL    C17   22  -0.156   0.212  -0.120
    1UNL    C18   23  -0.010   0.170  -0.149
    1UNL    C19   24   0.050   0.103  -0.024
    1UNL    C20   25   0.059   0.190   0.103
    1UNL     O4   26  -0.044   0.243   0.133
    1UNL     O5   27   0.176   0.227   0.163
    1UNL    C21   28  -0.257  -0.000  -0.201
    1UNL    C22   29  -0.132  -0.086  -0.224
    1UNL     O6   30  -0.077  -0.093  -0.331
    1UNL    C23   31  -0.175   0.019   0.054
    1UNL     H1   32   0.332   0.005  -0.365
    1UNL     H2   33   0.475   0.092  -0.286
    1UNL     H3   34   0.480  -0.083  -0.319
    1UNL     H4   35   0.447   0.092  -0.007
    1UNL     H5   36   0.387   0.118   0.168
    1UNL     H6   37   0.563   0.089   0.127
    1UNL     H7   38   0.348  -0.182   0.341
    1UNL     H8   39   0.107  -0.237   0.403
    1UNL     H9   40  -0.081  -0.157   0.270
    1UNL    H10   41  -0.016  -0.220  -0.116
    1UNL    H11   42  -0.168  -0.297   0.038
    1UNL    H12   43  -0.292  -0.223  -0.074
    1UNL    H13   44  -0.379  -0.017   0.232
    1UNL    H14   45  -0.445  -0.166   0.159
    1UNL    H15   46  -0.567   0.043   0.072
    1UNL    H16   47  -0.482  -0.057  -0.053
    1UNL    H17   48  -0.366   0.212   0.050
    1UNL    H18   49  -0.440   0.180  -0.096
    1UNL    H19   50  -0.202   0.255  -0.205
    1UNL    H20   51  -0.145   0.294  -0.045
    1UNL    H21   52   0.005   0.100  -0.229
    1UNL    H22   53   0.057   0.252  -0.180
    1UNL    H23   54   0.159   0.295   0.232
    1UNL    H24   55  -0.341  -0.076  -0.194
    1UNL    H25   56  -0.288   0.061  -0.298
    1UNL    H26   57  -0.177   0.087   0.140
   0.00000   0.00000   0.00000   0.00000   0.00000   0.00000   0.00000   0.00000   0.00000
Generated with MDTraj, t= 75.0
 57
    1UNL     C1    1   0.434  -0.031  -0.273
    1UNL     O1    2   0.358  -0.052  -0.156
    1UNL     C2    3   0.273   0.052  -0.137
    1UNL     O2    4   0.266   0.148  -0.218
    1UNL     N1    5   0.177   0.039  -0.035
    1UNL     C3    6   0.190  -0.038   0.084
    1UNL     C4    7   0.300  -0.097   0.153
    1UNL     O3    8   0.427  -0.069   0.106
    1UNL     C5    9   0.471   0.067   0.113
    1UNL     C6   10   0.275  -0.188   0.257
    1UNL     C7   11   0.146  -0.215   0.289
    1UNL     C8   12   0.041  -0.159   0.223
    1UNL     C9   13   0.060  -0.068   0.123
    1UNL    C10   14  -0.039  -0.010   0.025
    1UNL    C11   15  -0.073  -0.125  -0.074
    1UNL    C12   16  -0.189  -0.201  -0.002
    1UNL     N2   17  -0.258  -0.099   0.092
    1UNL    C13   18  -0.410  -0.102   0.101
    1UNL    C14   19  -0.484  -0.001   0.017
    1UNL    C15   20  -0.395   0.131  -0.007
    1UNL    C16   21  -0.255   0.092  -0.065
    1UNL    C17   22  -0.165   0.216  -0.108
    1UNL    C18   23  -0.016   0.177  -0.154
    1UNL    C19   24   0.048   0.107  -0.035
    1UNL    C20   25   0.061   0.209   0.078
    1UNL     O4   26  -0.038   0.271   0.115
    1UNL     O5   27   0.177   0.215   0.156
    1UNL    C21   28  -0.265  -0.004  -0.189
    1UNL    C22   29  -0.137  -0.077  -0.204
    1UNL     O6   30  -0.080  -0.092  -0.307
    1UNL    C23   31  -0.183   0.027   0.062
    1UNL     H1   32   0.414   0.058  -0.324
    1UNL     H2   33   0.545  -0.040  -0.248
    1UNL     H3   34   0.392  -0.102  -0.342
    1UNL     H4   35   0.505   0.099   0.011
    1UNL     H5   36   0.387   0.131   0.143
    1UNL     H6   37   0.557   0.089   0.183
    1UNL     H7   38   0.359  -0.231   0.307
    1UNL     H8   39   0.125  -0.285   0.367
    1UNL     H9   40  -0.057  -0.161   0.256
    1UNL    H10   41   0.016  -0.174  -0.102
    1UNL    H11   42  -0.146  -0.282   0.060
    1UNL    H12   43  -0.269  -0.242  -0.071
    1UNL    H13   44  -0.435  -0.076   0.204
    1UNL    H14   45  -0.439  -0.205   0.078
    1UNL    H15   46  -0.575   0.034   0.074
    1UNL    H16   47  -0.514  -0.044  -0.087
    1UNL    H17   48  -0.379   0.170   0.092
    1UNL    H18   49  -0.437   0.212  -0.063
    1UNL    H19   50  -0.201   0.279  -0.184
    1UNL    H20   51  -0.163   0.283  -0.018
    1UNL    H21   52  -0.012   0.115  -0.243
    1UNL    H22   53   0.046   0.263  -0.183
    1UNL    H23   54   0.168   0.284   0.223
    1UNL    H24   55  -0.353  -0.072  -0.197
    1UNL    H25   56  -0.271   0.058  -0.291
    1UNL    H26   57  -0.181   0.094   0.150
   0.00000   0.00000   0.00000   0.00000   0.00000   0.00000   0.00000   0.00000   0.00000
Generated with MDTraj, t= 76.0
 57
    1UNL     C1    1   0.431  -0.038  -0.254
    1UNL     O1    2   0.342  -0.047  -0.148
    1UNL     C2    3   0.256   0.052  -0.142
    1UNL     O2    4   0.232   0.128  -0.237
    1UNL     N1    5   0.183   0.044  -0.025
    1UNL     C3    6   0.190  -0.053   0.080
    1UNL     C4    7   0.307  -0.108   0.145
    1UNL     O3    8   0.436  -0.047   0.124
    1UNL     C5    9   0.424   0.080   0.090
    1UNL     C6   10   0.284  -0.211   0.240
    1UNL     C7   11   0.155  -0.248   0.281
    1UNL     C8   12   0.045  -0.177   0.237
    1UNL     C9   13   0.061  -0.087   0.129
    1UNL    C10   14  -0.036  -0.009   0.032
    1UNL    C11   15  -0.071  -0.128  -0.076
    1UNL    C12   16  -0.185  -0.203  -0.003
    1UNL     N2   17  -0.253  -0.099   0.082
    1UNL    C13   18  -0.400  -0.084   0.110
    1UNL    C14   19  -0.480   0.012   0.013
    1UNL    C15   20  -0.394   0.137  -0.028
    1UNL    C16   21  -0.248   0.094  -0.066
    1UNL    C17   22  -0.163   0.217  -0.110
    1UNL    C18   23  -0.015   0.178  -0.135
    1UNL    C19   24   0.051   0.111  -0.010
    1UNL    C20   25   0.063   0.221   0.094
    1UNL     O4   26  -0.041   0.279   0.123
    1UNL     O5   27   0.184   0.253   0.146
    1UNL    C21   28  -0.251   0.002  -0.194
    1UNL    C22   29  -0.125  -0.083  -0.212
    1UNL     O6   30  -0.063  -0.104  -0.318
    1UNL    C23   31  -0.187   0.028   0.065
    1UNL     H1   32   0.533  -0.022  -0.234
    1UNL     H2   33   0.430  -0.140  -0.306
    1UNL     H3   34   0.397   0.048  -0.310
    1UNL     H4   35   0.465   0.081  -0.016
    1UNL     H5   36   0.326   0.110   0.094
    1UNL     H6   37   0.483   0.152   0.150
    1UNL     H7   38   0.364  -0.262   0.288
    1UNL     H8   39   0.141  -0.313   0.364
    1UNL     H9   40  -0.056  -0.197   0.275
    1UNL    H10   41   0.013  -0.191  -0.096
    1UNL    H11   42  -0.148  -0.275   0.074
    1UNL    H12   43  -0.254  -0.252  -0.078
    1UNL    H13   44  -0.404  -0.041   0.212
    1UNL    H14   45  -0.445  -0.180   0.104
    1UNL    H15   46  -0.572   0.051   0.068
    1UNL    H16   47  -0.506  -0.045  -0.085
    1UNL    H17   48  -0.380   0.210   0.051
    1UNL    H18   49  -0.444   0.186  -0.106
    1UNL    H19   50  -0.205   0.266  -0.195
    1UNL    H20   51  -0.166   0.294  -0.029
    1UNL    H21   52  -0.021   0.108  -0.217
    1UNL    H22   53   0.052   0.258  -0.168
    1UNL    H23   54   0.172   0.302   0.228
    1UNL    H24   55  -0.341  -0.060  -0.182
    1UNL    H25   56  -0.274   0.060  -0.286
    1UNL    H26   57  -0.199   0.084   0.159
   0.00000   0.00000   0.00000   0.00000   0.00000   0.00000   0.00000   0.00000   0.00000
Generated with MDTraj, t= 77.0
 57
    1UNL     C1    1   0.407  -0.070  -0.289
    1UNL     O1    2   0.353  -0.047  -0.165
    1UNL     C2    3   0.260   0.055  -0.154
    1UNL     O2    4   0.221   0.129  -0.247
    1UNL     N1    5   0.195   0.051  -0.036
    1UNL     C3    6   0.201  -0.049   0.073
    1UNL     C4    7   0.300  -0.089   0.160
    1UNL     O3    8   0.436  -0.046   0.153
    1UNL     C5    9   0.460   0.087   0.131
    1UNL     C6   10   0.275  -0.187   0.255
    1UNL     C7   11   0.149  -0.232   0.287
    1UNL     C8   12   0.044  -0.181   0.212
    1UNL     C9   13   0.070  -0.088   0.112
    1UNL    C10   14  -0.031  -0.020   0.018
    1UNL    C11   15  -0.069  -0.138  -0.077
    1UNL    C12   16  -0.195  -0.200  -0.004
    1UNL     N2   17  -0.254  -0.093   0.090
    1UNL    C13   18  -0.404  -0.064   0.124
    1UNL    C14   19  -0.473   0.016   0.011
    1UNL    C15   20  -0.399   0.132  -0.031
    1UNL    C16   21  -0.249   0.095  -0.071
    1UNL    C17   22  -0.164   0.223  -0.106
    1UNL    C18   23  -0.018   0.180  -0.134
    1UNL    C19   24   0.054   0.104  -0.024
    1UNL    C20   25   0.052   0.203   0.098
    1UNL     O4   26  -0.050   0.225   0.162
    1UNL     O5   27   0.168   0.266   0.135
    1UNL    C21   28  -0.241   0.002  -0.198
    1UNL    C22   29  -0.118  -0.081  -0.206
    1UNL     O6   30  -0.059  -0.093  -0.311
    1UNL    C23   31  -0.180   0.025   0.057
    1UNL     H1   32   0.418  -0.174  -0.320
    1UNL     H2   33   0.328  -0.027  -0.362
    1UNL     H3   34   0.494  -0.007  -0.296
    1UNL     H4   35   0.364   0.132   0.109
    1UNL     H5   36   0.495   0.123   0.220
    1UNL     H6   37   0.527   0.108   0.049
    1UNL     H7   38   0.361  -0.223   0.317
    1UNL     H8   39   0.134  -0.302   0.371
    1UNL     H9   40  -0.053  -0.227   0.230
    1UNL    H10   41   0.012  -0.212  -0.095
    1UNL    H11   42  -0.174  -0.292   0.054
    1UNL    H12   43  -0.279  -0.220  -0.074
    1UNL    H13   44  -0.403   0.005   0.213
    1UNL    H14   45  -0.452  -0.152   0.151
    1UNL    H15   46  -0.572   0.057   0.051
    1UNL    H16   47  -0.492  -0.054  -0.079
    1UNL    H17   48  -0.403   0.210   0.045
    1UNL    H18   49  -0.444   0.173  -0.116
    1UNL    H19   50  -0.209   0.273  -0.191
    1UNL    H20   51  -0.162   0.300  -0.026
    1UNL    H21   52  -0.020   0.115  -0.221
    1UNL    H22   53   0.046   0.263  -0.165
    1UNL    H23   54   0.145   0.328   0.207
    1UNL    H24   55  -0.328  -0.057  -0.217
    1UNL    H25   56  -0.239   0.068  -0.278
    1UNL    H26   57  -0.185   0.099   0.137
   0.00000   0.00000   0.00000   0.00000   0.00000   0.00000   0.00000   0.00000   0.00000
Generated with MDTraj, t= 78.0
 57
    1UNL     C1    1   0.381  -0.083  -0.298
    1UNL     O1    2   0.345  -0.074  -0.167
    1UNL     C2    3   0.260   0.036  -0.138
    1UNL     O2    4   0.238   0.130  -0.216
    1UNL     N1    5   0.184   0.039  -0.021
    1UNL     C3    6   0.183  -0.049   0.096
    1UNL     C4    7   0.299  -0.088   0.167
    1UNL     O3    8   0.422  -0.037   0.121
    1UNL     C5    9   0.429   0.111   0.108
    1UNL     C6   10   0.270  -0.174   0.275
    1UNL     C7   11   0.139  -0.211   0.309
    1UNL     C8   12   0.030  -0.166   0.235
    1UNL     C9   13   0.053  -0.085   0.128
    1UNL    C10   14  -0.033  -0.017   0.016
    1UNL    C11   15  -0.062  -0.126  -0.092
    1UNL    C12   16  -0.171  -0.203  -0.027
    1UNL     N2   17  -0.244  -0.111   0.066
    1UNL    C13   18  -0.398  -0.110   0.086
    1UNL    C14   19  -0.467   0.007   0.007
    1UNL    C15   20  -0.379   0.131  -0.006
    1UNL    C16   21  -0.230   0.100  -0.059
    1UNL    C17   22  -0.148   0.229  -0.101
    1UNL    C18   23  -0.008   0.186  -0.141
    1UNL    C19   24   0.051   0.111  -0.019
    1UNL    C20   25   0.064   0.206   0.103
    1UNL     O4   26  -0.026   0.218   0.184
    1UNL     O5   27   0.180   0.280   0.103
    1UNL    C21   28  -0.247   0.012  -0.189
    1UNL    C22   29  -0.125  -0.071  -0.220
    1UNL     O6   30  -0.083  -0.088  -0.329
    1UNL    C23   31  -0.172   0.017   0.062
    1UNL     H1   32   0.299  -0.120  -0.363
    1UNL     H2   33   0.411   0.024  -0.324
    1UNL     H3   34   0.479  -0.125  -0.314
    1UNL     H4   35   0.445   0.141   0.206
    1UNL     H5   36   0.510   0.146   0.051
    1UNL     H6   37   0.339   0.156   0.078
    1UNL     H7   38   0.349  -0.219   0.323
    1UNL     H8   39   0.123  -0.273   0.392
    1UNL     H9   40  -0.066  -0.201   0.256
    1UNL    H10   41   0.039  -0.176  -0.112
    1UNL    H11   42  -0.123  -0.287   0.030
    1UNL    H12   43  -0.241  -0.249  -0.098
    1UNL    H13   44  -0.406  -0.110   0.199
    1UNL    H14   45  -0.433  -0.203   0.063
    1UNL    H15   46  -0.567   0.028   0.057
    1UNL    H16   47  -0.501  -0.027  -0.096
    1UNL    H17   48  -0.375   0.182   0.090
    1UNL    H18   49  -0.412   0.206  -0.071
    1UNL    H19   50  -0.189   0.292  -0.183
    1UNL    H20   51  -0.152   0.290  -0.012
    1UNL    H21   52  -0.014   0.112  -0.222
    1UNL    H22   53   0.056   0.266  -0.176
    1UNL    H23   54   0.171   0.342   0.180
    1UNL    H24   55  -0.327  -0.050  -0.183
    1UNL    H25   56  -0.268   0.074  -0.267
    1UNL    H26   57  -0.186   0.067   0.159
   0.00000   0.00000   0.00000   0.00000   0.00000   0.00000   0.00000   0.00000   0.00000
Generated with MDTraj, t= 79.0
 57
    1UNL     C1    1   0.396  -0.104  -0.292
    1UNL     O1    2   0.310  -0.097  -0.182
    1UNL     C2    3   0.252   0.028  -0.150
    1UNL     O2    4   0.261   0.125  -0.227
    1UNL     N1    5   0.181   0.049  -0.027
    1UNL     C3    6   0.196  -0.040   0.084
    1UNL     C4    7   0.306  -0.076   0.172
    1UNL     O3    8   0.440  -0.026   0.168
    1UNL     C5    9   0.459   0.090   0.082
    1UNL     C6   10   0.274  -0.160   0.278
    1UNL     C7   11   0.146  -0.198   0.302
    1UNL     C8   12   0.037  -0.151   0.231
    1UNL     C9   13   0.064  -0.078   0.116
    1UNL    C10   14  -0.038  -0.020   0.015
    1UNL    C11   15  -0.068  -0.129  -0.097
    1UNL    C12   16  -0.191  -0.206  -0.039
    1UNL     N2   17  -0.254  -0.113   0.066
    1UNL    C13   18  -0.401  -0.113   0.087
    1UNL    C14   19  -0.473  -0.011   0.005
    1UNL    C15   20  -0.398   0.125  -0.011
    1UNL    C16   21  -0.249   0.096  -0.055
    1UNL    C17   22  -0.159   0.223  -0.083
    1UNL    C18   23  -0.011   0.189  -0.127
    1UNL    C19   24   0.047   0.108  -0.015
    1UNL    C20   25   0.060   0.202   0.109
    1UNL     O4   26  -0.023   0.208   0.197
    1UNL     O5   27   0.167   0.285   0.100
    1UNL    C21   28  -0.249   0.012  -0.193
    1UNL    C22   29  -0.116  -0.061  -0.220
    1UNL     O6   30  -0.053  -0.046  -0.323
    1UNL    C23   31  -0.185   0.018   0.065
    1UNL     H1   32   0.382  -0.015  -0.355
    1UNL     H2   33   0.498  -0.116  -0.247
    1UNL     H3   34   0.391  -0.191  -0.353
    1UNL     H4   35   0.562   0.102   0.076
    1UNL     H5   36   0.426   0.066  -0.019
    1UNL     H6   37   0.413   0.178   0.109
    1UNL     H7   38   0.359  -0.190   0.344
    1UNL     H8   39   0.124  -0.278   0.377
    1UNL     H9   40  -0.072  -0.149   0.258
    1UNL    H10   41   0.022  -0.199  -0.121
    1UNL    H11   42  -0.160  -0.299   0.015
    1UNL    H12   43  -0.261  -0.244  -0.114
    1UNL    H13   44  -0.420  -0.104   0.197
    1UNL    H14   45  -0.425  -0.211   0.071
    1UNL    H15   46  -0.578   0.009   0.047
    1UNL    H16   47  -0.498  -0.053  -0.096
    1UNL    H17   48  -0.379   0.178   0.082
    1UNL    H18   49  -0.447   0.193  -0.074
    1UNL    H19   50  -0.218   0.288  -0.155
    1UNL    H20   51  -0.153   0.280   0.007
    1UNL    H21   52  -0.000   0.138  -0.225
    1UNL    H22   53   0.051   0.279  -0.131
    1UNL    H23   54   0.150   0.354   0.170
    1UNL    H24   55  -0.332  -0.051  -0.193
    1UNL    H25   56  -0.262   0.078  -0.270
    1UNL    H26   57  -0.189   0.068   0.164
   0.00000   0.00000   0.00000   0.00000   0.00000   0.00000   0.00000   0.00000   0.00000
Generated with MDTraj, t= 80.0
 57
    1UNL     C1    1   0.348  -0.123  -0.288
    1UNL     O1    2   0.320  -0.079  -0.155
    1UNL     C2    3   0.249   0.040  -0.144
    1UNL     O2    4   0.229   0.122  -0.234
    1UNL     N1    5   0.191   0.063  -0.017
    1UNL     C3    6   0.200  -0.040   0.082
    1UNL     C4    7   0.304  -0.077   0.169
    1UNL     O3    8   0.433  -0.028   0.155
    1UNL     C5    9   0.446   0.068   0.051
    1UNL     C6   10   0.268  -0.157   0.281
    1UNL     C7   11   0.138  -0.203   0.303
    1UNL     C8   12   0.039  -0.163   0.216
    1UNL     C9   13   0.068  -0.081   0.106
    1UNL    C10   14  -0.024  -0.015   0.015
    1UNL    C11   15  -0.054  -0.128  -0.099
    1UNL    C12   16  -0.174  -0.200  -0.035
    1UNL     N2   17  -0.240  -0.109   0.071
    1UNL    C13   18  -0.384  -0.097   0.100
    1UNL    C14   19  -0.463  -0.011   0.010
    1UNL    C15   20  -0.380   0.119  -0.030
    1UNL    C16   21  -0.241   0.093  -0.074
    1UNL    C17   22  -0.153   0.223  -0.090
    1UNL    C18   23  -0.005   0.200  -0.117
    1UNL    C19   24   0.054   0.114  -0.004
    1UNL    C20   25   0.049   0.203   0.127
    1UNL     O4   26  -0.041   0.206   0.206
    1UNL     O5   27   0.150   0.292   0.132
    1UNL    C21   28  -0.239   0.006  -0.206
    1UNL    C22   29  -0.111  -0.064  -0.221
    1UNL     O6   30  -0.050  -0.064  -0.327
    1UNL    C23   31  -0.172   0.018   0.051
    1UNL     H1   32   0.365  -0.038  -0.354
    1UNL     H2   33   0.431  -0.195  -0.277
    1UNL     H3   34   0.260  -0.168  -0.324
    1UNL     H4   35   0.547   0.101   0.049
    1UNL     H5   36   0.434   0.002  -0.039
    1UNL     H6   37   0.371   0.142   0.048
    1UNL     H7   38   0.346  -0.171   0.352
    1UNL     H8   39   0.110  -0.273   0.376
    1UNL     H9   40  -0.061  -0.184   0.234
    1UNL    H10   41   0.034  -0.201  -0.129
    1UNL    H11   42  -0.150  -0.300   0.005
    1UNL    H12   43  -0.243  -0.224  -0.116
    1UNL    H13   44  -0.397  -0.064   0.205
    1UNL    H14   45  -0.417  -0.197   0.097
    1UNL    H15   46  -0.563   0.020   0.058
    1UNL    H16   47  -0.486  -0.075  -0.082
    1UNL    H17   48  -0.369   0.182   0.058
    1UNL    H18   49  -0.421   0.177  -0.108
    1UNL    H19   50  -0.201   0.284  -0.175
    1UNL    H20   51  -0.167   0.281  -0.001
    1UNL    H21   52   0.012   0.158  -0.219
    1UNL    H22   53   0.050   0.294  -0.119
    1UNL    H23   54   0.119   0.361   0.195
    1UNL    H24   55  -0.324  -0.063  -0.224
    1UNL    H25   56  -0.244   0.079  -0.282
    1UNL    H26   57  -0.181   0.075   0.145
   0.00000   0.00000   0.00000   0.00000   0.00000   0.00000   0.00000   0.00000   0.00000
Generated with MDTraj, t= 81.0
 57
    1UNL     C1    1   0.305  -0.114  -0.311
    1UNL     O1    2   0.287  -0.085  -0.175
    1UNL     C2    3   0.237   0.040  -0.148
    1UNL     O2    4   0.198   0.114  -0.238
    1UNL     N1    5   0.200   0.071  -0.011
    1UNL     C3    6   0.209  -0.026   0.101
    1UNL     C4    7   0.320  -0.082   0.179
    1UNL     O3    8   0.460  -0.046   0.168
    1UNL     C5    9   0.469   0.074   0.099
    1UNL     C6   10   0.283  -0.177   0.280
    1UNL     C7   11   0.147  -0.217   0.301
    1UNL     C8   12   0.052  -0.160   0.220
    1UNL     C9   13   0.082  -0.070   0.124
    1UNL    C10   14  -0.021  -0.012   0.024
    1UNL    C11   15  -0.051  -0.119  -0.087
    1UNL    C12   16  -0.153  -0.205  -0.018
    1UNL     N2   17  -0.243  -0.113   0.066
    1UNL    C13   18  -0.397  -0.116   0.064
    1UNL    C14   19  -0.472  -0.010  -0.025
    1UNL    C15   20  -0.389   0.125  -0.035
    1UNL    C16   21  -0.240   0.101  -0.063
    1UNL    C17   22  -0.159   0.238  -0.087
    1UNL    C18   23  -0.009   0.206  -0.117
    1UNL    C19   24   0.054   0.127  -0.006
    1UNL    C20   25   0.048   0.214   0.118
    1UNL     O4   26  -0.056   0.221   0.183
    1UNL     O5   27   0.163   0.290   0.121
    1UNL    C21   28  -0.234   0.013  -0.196
    1UNL    C22   29  -0.104  -0.066  -0.216
    1UNL     O6   30  -0.049  -0.086  -0.321
    1UNL    C23   31  -0.173   0.018   0.056
    1UNL     H1   32   0.375  -0.047  -0.364
    1UNL     H2   33   0.338  -0.219  -0.315
    1UNL     H3   34   0.208  -0.085  -0.353
    1UNL     H4   35   0.569   0.119   0.107
    1UNL     H5   36   0.450   0.038  -0.009
    1UNL     H6   37   0.383   0.134   0.127
    1UNL     H7   38   0.361  -0.216   0.340
    1UNL     H8   39   0.124  -0.284   0.386
    1UNL     H9   40  -0.050  -0.202   0.218
    1UNL    H10   41   0.043  -0.185  -0.113
    1UNL    H11   42  -0.105  -0.284   0.042
    1UNL    H12   43  -0.210  -0.255  -0.095
    1UNL    H13   44  -0.430  -0.102   0.165
    1UNL    H14   45  -0.430  -0.211   0.028
    1UNL    H15   46  -0.569   0.008   0.034
    1UNL    H16   47  -0.494  -0.049  -0.130
    1UNL    H17   48  -0.398   0.187   0.051
    1UNL    H18   49  -0.434   0.177  -0.118
    1UNL    H19   50  -0.201   0.298  -0.174
    1UNL    H20   51  -0.170   0.295   0.004
    1UNL    H21   52   0.003   0.143  -0.208
    1UNL    H22   53   0.049   0.295  -0.139
    1UNL    H23   54   0.161   0.344   0.200
    1UNL    H24   55  -0.321  -0.060  -0.202
    1UNL    H25   56  -0.243   0.080  -0.285
    1UNL    H26   57  -0.175   0.081   0.145
   0.00000   0.00000   0.00000   0.00000   0.00000   0.00000   0.00000   0.00000   0.00000
Generated with MDTraj, t= 82.0
 57
    1UNL     C1    1   0.282  -0.117  -0.305
    1UNL     O1    2   0.259  -0.103  -0.170
    1UNL     C2    3   0.250   0.029  -0.139
    1UNL     O2    4   0.264   0.131  -0.207
    1UNL     N1    5   0.188   0.056  -0.010
    1UNL     C3    6   0.198  -0.033   0.101
    1UNL     C4    7   0.306  -0.081   0.170
    1UNL     O3    8   0.429  -0.030   0.120
    1UNL     C5    9   0.412   0.101   0.072
    1UNL     C6   10   0.285  -0.182   0.264
    1UNL     C7   11   0.152  -0.212   0.303
    1UNL     C8   12   0.042  -0.154   0.235
    1UNL     C9   13   0.069  -0.068   0.134
    1UNL    C10   14  -0.026  -0.011   0.028
    1UNL    C11   15  -0.044  -0.121  -0.083
    1UNL    C12   16  -0.166  -0.202  -0.027
    1UNL     N2   17  -0.242  -0.114   0.062
    1UNL    C13   18  -0.390  -0.122   0.086
    1UNL    C14   19  -0.465  -0.021  -0.014
    1UNL    C15   20  -0.394   0.112  -0.043
    1UNL    C16   21  -0.239   0.087  -0.071
    1UNL    C17   22  -0.160   0.222  -0.090
    1UNL    C18   23  -0.007   0.203  -0.116
    1UNL    C19   24   0.052   0.118  -0.003
    1UNL    C20   25   0.057   0.218   0.110
    1UNL     O4   26  -0.036   0.246   0.183
    1UNL     O5   27   0.181   0.261   0.129
    1UNL    C21   28  -0.219   0.012  -0.205
    1UNL    C22   29  -0.085  -0.056  -0.211
    1UNL     O6   30  -0.015  -0.058  -0.307
    1UNL    C23   31  -0.179   0.020   0.057
    1UNL     H1   32   0.356  -0.046  -0.349
    1UNL     H2   33   0.320  -0.220  -0.322
    1UNL     H3   34   0.185  -0.086  -0.351
    1UNL     H4   35   0.503   0.163   0.101
    1UNL     H5   36   0.398   0.104  -0.041
    1UNL     H6   37   0.316   0.139   0.120
    1UNL     H7   38   0.369  -0.236   0.315
    1UNL     H8   39   0.139  -0.285   0.380
    1UNL     H9   40  -0.056  -0.192   0.250
    1UNL    H10   41   0.058  -0.178  -0.090
    1UNL    H11   42  -0.123  -0.288   0.023
    1UNL    H12   43  -0.236  -0.235  -0.104
    1UNL    H13   44  -0.413  -0.095   0.183
    1UNL    H14   45  -0.422  -0.223   0.067
    1UNL    H15   46  -0.565   0.011   0.032
    1UNL    H16   47  -0.481  -0.079  -0.110
    1UNL    H17   48  -0.410   0.174   0.041
    1UNL    H18   49  -0.443   0.159  -0.127
    1UNL    H19   50  -0.209   0.267  -0.179
    1UNL    H20   51  -0.175   0.285  -0.001
    1UNL    H21   52   0.018   0.163  -0.216
    1UNL    H22   53   0.036   0.303  -0.115
    1UNL    H23   54   0.184   0.323   0.202
    1UNL    H24   55  -0.302  -0.058  -0.239
    1UNL    H25   56  -0.209   0.094  -0.290
    1UNL    H26   57  -0.201   0.069   0.153
   0.00000   0.00000   0.00000   0.00000   0.00000   0.00000   0.00000   0.00000   0.00000
Generated with MDTraj, t= 83.0
 57
    1UNL     C1    1   0.293  -0.121  -0.316
    1UNL     O1    2   0.256  -0.104  -0.177
    1UNL     C2    3   0.248   0.032  -0.142
    1UNL     O2    4   0.267   0.118  -0.227
    1UNL     N1    5   0.198   0.068  -0.011
    1UNL     C3    6   0.214  -0.023   0.093
    1UNL     C4    7   0.325  -0.078   0.164
    1UNL     O3    8   0.459  -0.050   0.140
    1UNL     C5    9   0.475   0.087   0.097
    1UNL     C6   10   0.286  -0.159   0.271
    1UNL     C7   11   0.154  -0.205   0.295
    1UNL     C8   12   0.047  -0.154   0.222
    1UNL     C9   13   0.081  -0.067   0.121
    1UNL    C10   14  -0.026  -0.011   0.026
    1UNL    C11   15  -0.054  -0.125  -0.085
    1UNL    C12   16  -0.185  -0.203  -0.022
    1UNL     N2   17  -0.244  -0.109   0.071
    1UNL    C13   18  -0.394  -0.110   0.089
    1UNL    C14   19  -0.466  -0.023  -0.014
    1UNL    C15   20  -0.393   0.107  -0.038
    1UNL    C16   21  -0.236   0.095  -0.075
    1UNL    C17   22  -0.160   0.226  -0.102
    1UNL    C18   23  -0.007   0.202  -0.120
    1UNL    C19   24   0.057   0.124  -0.002
    1UNL    C20   25   0.041   0.214   0.124
    1UNL     O4   26  -0.069   0.230   0.174
    1UNL     O5   27   0.151   0.276   0.165
    1UNL    C21   28  -0.234   0.009  -0.204
    1UNL    C22   29  -0.099  -0.066  -0.215
    1UNL     O6   30  -0.036  -0.057  -0.319
    1UNL    C23   31  -0.177   0.022   0.052
    1UNL     H1   32   0.398  -0.095  -0.327
    1UNL     H2   33   0.288  -0.228  -0.345
    1UNL     H3   34   0.222  -0.059  -0.376
    1UNL     H4   35   0.566   0.133   0.155
    1UNL     H5   36   0.479   0.109  -0.014
    1UNL     H6   37   0.378   0.141   0.133
    1UNL     H7   38   0.362  -0.196   0.328
    1UNL     H8   39   0.131  -0.277   0.373
    1UNL     H9   40  -0.054  -0.179   0.247
    1UNL    H10   41   0.039  -0.190  -0.098
    1UNL    H11   42  -0.154  -0.287   0.035
    1UNL    H12   43  -0.256  -0.234  -0.098
    1UNL    H13   44  -0.406  -0.075   0.183
    1UNL    H14   45  -0.437  -0.209   0.094
    1UNL    H15   46  -0.577  -0.011   0.021
    1UNL    H16   47  -0.477  -0.074  -0.112
    1UNL    H17   48  -0.407   0.157   0.055
    1UNL    H18   49  -0.445   0.170  -0.109
    1UNL    H19   50  -0.209   0.275  -0.187
    1UNL    H20   51  -0.171   0.289  -0.008
    1UNL    H21   52   0.001   0.147  -0.216
    1UNL    H22   53   0.052   0.294  -0.135
    1UNL    H23   54   0.137   0.317   0.254
    1UNL    H24   55  -0.316  -0.067  -0.206
    1UNL    H25   56  -0.252   0.068  -0.305
    1UNL    H26   57  -0.185   0.076   0.146
   0.00000   0.00000   0.00000   0.00000   0.00000   0.00000   0.00000   0.00000   0.00000
Generated with MDTraj, t= 84.0
 57
    1UNL     C1    1   0.292  -0.108  -0.302
    1UNL     O1    2   0.297  -0.083  -0.161
    1UNL     C2    3   0.240   0.034  -0.137
    1UNL     O2    4   0.225   0.121  -0.220
    1UNL     N1    5   0.196   0.070  -0.008
    1UNL     C3    6   0.198  -0.020   0.101
    1UNL     C4    7   0.305  -0.075   0.177
    1UNL     O3    8   0.433  -0.027   0.157
    1UNL     C5    9   0.442   0.075   0.061
    1UNL     C6   10   0.273  -0.173   0.273
    1UNL     C7   11   0.144  -0.213   0.294
    1UNL     C8   12   0.039  -0.166   0.216
    1UNL     C9   13   0.070  -0.070   0.123
    1UNL    C10   14  -0.020  -0.020   0.014
    1UNL    C11   15  -0.043  -0.128  -0.097
    1UNL    C12   16  -0.159  -0.215  -0.032
    1UNL     N2   17  -0.234  -0.120   0.055
    1UNL    C13   18  -0.385  -0.117   0.072
    1UNL    C14   19  -0.461  -0.005   0.006
    1UNL    C15   20  -0.372   0.120  -0.012
    1UNL    C16   21  -0.227   0.096  -0.067
    1UNL    C17   22  -0.147   0.232  -0.101
    1UNL    C18   23   0.004   0.201  -0.127
    1UNL    C19   24   0.050   0.121  -0.006
    1UNL    C20   25   0.048   0.222   0.117
    1UNL     O4   26  -0.055   0.259   0.172
    1UNL     O5   27   0.168   0.267   0.164
    1UNL    C21   28  -0.231   0.005  -0.197
    1UNL    C22   29  -0.104  -0.070  -0.222
    1UNL     O6   30  -0.057  -0.092  -0.332
    1UNL    C23   31  -0.163   0.014   0.050
    1UNL     H1   32   0.355  -0.031  -0.341
    1UNL     H2   33   0.348  -0.198  -0.330
    1UNL     H3   34   0.183  -0.120  -0.333
    1UNL     H4   35   0.545   0.127   0.075
    1UNL     H5   36   0.422   0.050  -0.044
    1UNL     H6   37   0.361   0.152   0.094
    1UNL     H7   38   0.365  -0.201   0.332
    1UNL     H8   39   0.125  -0.293   0.364
    1UNL     H9   40  -0.070  -0.183   0.235
    1UNL    H10   41   0.055  -0.178  -0.106
    1UNL    H11   42  -0.126  -0.292   0.033
    1UNL    H12   43  -0.221  -0.262  -0.107
    1UNL    H13   44  -0.402  -0.114   0.173
    1UNL    H14   45  -0.414  -0.221   0.056
    1UNL    H15   46  -0.557   0.024   0.067
    1UNL    H16   47  -0.510  -0.037  -0.088
    1UNL    H17   48  -0.369   0.180   0.073
    1UNL    H18   49  -0.424   0.186  -0.080
    1UNL    H19   50  -0.192   0.285  -0.183
    1UNL    H20   51  -0.155   0.302  -0.008
    1UNL    H21   52   0.032   0.142  -0.217
    1UNL    H22   53   0.060   0.296  -0.133
    1UNL    H23   54   0.149   0.333   0.236
    1UNL    H24   55  -0.306  -0.081  -0.192
    1UNL    H25   56  -0.263   0.054  -0.293
    1UNL    H26   57  -0.166   0.070   0.145
   0.00000   0.00000   0.00000   0.00000   0.00000   0.00000   0.00000   0.00000   0.00000
Generated with MDTraj, t= 85.0
 57
    1UNL     C1    1   0.342  -0.114  -0.307
    1UNL     O1    2   0.317  -0.079  -0.169
    1UNL     C2    3   0.247   0.035  -0.151
    1UNL     O2    4   0.224   0.114  -0.238
    1UNL     N1    5   0.190   0.061  -0.023
    1UNL     C3    6   0.198  -0.029   0.091
    1UNL     C4    7   0.306  -0.073   0.170
    1UNL     O3    8   0.434  -0.023   0.175
    1UNL     C5    9   0.464   0.072   0.083
    1UNL     C6   10   0.285  -0.169   0.271
    1UNL     C7   11   0.156  -0.206   0.298
    1UNL     C8   12   0.045  -0.157   0.228
    1UNL     C9   13   0.070  -0.073   0.121
    1UNL    C10   14  -0.028  -0.018   0.020
    1UNL    C11   15  -0.062  -0.132  -0.088
    1UNL    C12   16  -0.179  -0.207  -0.024
    1UNL     N2   17  -0.250  -0.111   0.066
    1UNL    C13   18  -0.398  -0.102   0.103
    1UNL    C14   19  -0.467  -0.030  -0.013
    1UNL    C15   20  -0.399   0.111  -0.042
    1UNL    C16   21  -0.249   0.093  -0.064
    1UNL    C17   22  -0.168   0.227  -0.085
    1UNL    C18   23  -0.022   0.207  -0.127
    1UNL    C19   24   0.045   0.120  -0.013
    1UNL    C20   25   0.056   0.206   0.108
    1UNL     O4   26  -0.040   0.245   0.170
    1UNL     O5   27   0.182   0.239   0.138
    1UNL    C21   28  -0.231   0.018  -0.195
    1UNL    C22   29  -0.101  -0.054  -0.211
    1UNL     O6   30  -0.041  -0.046  -0.312
    1UNL    C23   31  -0.181   0.014   0.055
    1UNL     H1   32   0.403  -0.032  -0.332
    1UNL     H2   33   0.393  -0.209  -0.330
    1UNL     H3   34   0.244  -0.126  -0.361
    1UNL     H4   35   0.569   0.105   0.098
    1UNL     H5   36   0.445   0.042  -0.017
    1UNL     H6   37   0.398   0.162   0.106
    1UNL     H7   38   0.367  -0.209   0.326
    1UNL     H8   39   0.129  -0.264   0.383
    1UNL     H9   40  -0.052  -0.188   0.245
    1UNL    H10   41   0.015  -0.203  -0.116
    1UNL    H11   42  -0.157  -0.296   0.029
    1UNL    H12   43  -0.243  -0.235  -0.105
    1UNL    H13   44  -0.407  -0.070   0.203
    1UNL    H14   45  -0.432  -0.204   0.102
    1UNL    H15   46  -0.583  -0.024   0.006
    1UNL    H16   47  -0.464  -0.099  -0.099
    1UNL    H17   48  -0.419   0.175   0.039
    1UNL    H18   49  -0.444   0.169  -0.122
    1UNL    H19   50  -0.223   0.293  -0.150
    1UNL    H20   51  -0.166   0.282   0.018
    1UNL    H21   52  -0.004   0.158  -0.224
    1UNL    H22   53   0.031   0.304  -0.135
    1UNL    H23   54   0.175   0.294   0.219
    1UNL    H24   55  -0.311  -0.057  -0.209
    1UNL    H25   56  -0.243   0.083  -0.279
    1UNL    H26   57  -0.180   0.067   0.152
   0.00000   0.00000   0.00000   0.00000   0.00000   0.00000   0.00000   0.00000   0.00000
Generated with MDTraj, t= 86.0
 57
    1UNL     C1    1   0.393  -0.079  -0.284
    1UNL     O1    2   0.313  -0.076  -0.173
    1UNL     C2    3   0.239   0.036  -0.150
    1UNL     O2    4   0.231   0.118  -0.237
    1UNL     N1    5   0.179   0.044  -0.022
    1UNL     C3    6   0.191  -0.054   0.083
    1UNL     C4    7   0.304  -0.086   0.161
    1UNL     O3    8   0.432  -0.047   0.115
    1UNL     C5    9   0.425   0.085   0.070
    1UNL     C6   10   0.280  -0.157   0.277
    1UNL     C7   11   0.147  -0.191   0.314
    1UNL     C8   12   0.035  -0.154   0.241
    1UNL     C9   13   0.062  -0.087   0.123
    1UNL    C10   14  -0.030  -0.016   0.023
    1UNL    C11   15  -0.055  -0.134  -0.088
    1UNL    C12   16  -0.170  -0.219  -0.024
    1UNL     N2   17  -0.242  -0.114   0.067
    1UNL    C13   18  -0.391  -0.103   0.092
    1UNL    C14   19  -0.462   0.001   0.006
    1UNL    C15   20  -0.382   0.129  -0.031
    1UNL    C16   21  -0.241   0.098  -0.065
    1UNL    C17   22  -0.157   0.228  -0.096
    1UNL    C18   23  -0.009   0.198  -0.124
    1UNL    C19   24   0.053   0.116  -0.005
    1UNL    C20   25   0.051   0.211   0.121
    1UNL     O4   26  -0.052   0.224   0.184
    1UNL     O5   27   0.169   0.265   0.143
    1UNL    C21   28  -0.236   0.011  -0.198
    1UNL    C22   29  -0.105  -0.061  -0.214
    1UNL     O6   30  -0.054  -0.077  -0.323
    1UNL    C23   31  -0.172   0.021   0.052
    1UNL     H1   32   0.444   0.013  -0.287
    1UNL     H2   33   0.448  -0.172  -0.277
    1UNL     H3   34   0.321  -0.083  -0.371
    1UNL     H4   35   0.488   0.155   0.118
    1UNL     H5   36   0.445   0.082  -0.037
    1UNL     H6   37   0.325   0.124   0.080
    1UNL     H7   38   0.360  -0.186   0.341
    1UNL     H8   39   0.144  -0.251   0.405
    1UNL     H9   40  -0.065  -0.192   0.274
    1UNL    H10   41   0.026  -0.194  -0.116
    1UNL    H11   42  -0.124  -0.296   0.034
    1UNL    H12   43  -0.239  -0.267  -0.089
    1UNL    H13   44  -0.415  -0.081   0.195
    1UNL    H14   45  -0.424  -0.200   0.069
    1UNL    H15   46  -0.558   0.033   0.066
    1UNL    H16   47  -0.494  -0.049  -0.086
    1UNL    H17   48  -0.391   0.196   0.051
    1UNL    H18   49  -0.434   0.187  -0.105
    1UNL    H19   50  -0.209   0.283  -0.175
    1UNL    H20   51  -0.164   0.295  -0.005
    1UNL    H21   52   0.001   0.148  -0.222
    1UNL    H22   53   0.055   0.290  -0.128
    1UNL    H23   54   0.161   0.322   0.220
    1UNL    H24   55  -0.314  -0.059  -0.200
    1UNL    H25   56  -0.247   0.079  -0.276
    1UNL    H26   57  -0.168   0.081   0.144
   0.00000   0.00000   0.00000   0.00000   0.00000   0.00000   0.00000   0.00000   0.00000
Generated with MDTraj, t= 87.0
 57
    1UNL     C1    1   0.401  -0.068  -0.288
    1UNL     O1    2   0.356  -0.054  -0.161
    1UNL     C2    3   0.271   0.051  -0.147
    1UNL     O2    4   0.257   0.138  -0.229
    1UNL     N1    5   0.188   0.043  -0.028
    1UNL     C3    6   0.201  -0.046   0.081
    1UNL     C4    7   0.307  -0.085   0.161
    1UNL     O3    8   0.441  -0.050   0.140
    1UNL     C5    9   0.466   0.086   0.105
    1UNL     C6   10   0.279  -0.166   0.270
    1UNL     C7   11   0.149  -0.209   0.306
    1UNL     C8   12   0.051  -0.166   0.225
    1UNL     C9   13   0.073  -0.081   0.120
    1UNL    C10   14  -0.038  -0.021   0.020
    1UNL    C11   15  -0.078  -0.133  -0.078
    1UNL    C12   16  -0.192  -0.215  -0.011
    1UNL     N2   17  -0.256  -0.112   0.075
    1UNL    C13   18  -0.408  -0.106   0.078
    1UNL    C14   19  -0.485   0.004   0.004
    1UNL    C15   20  -0.395   0.132  -0.023
    1UNL    C16   21  -0.251   0.097  -0.067
    1UNL    C17   22  -0.164   0.223  -0.098
    1UNL    C18   23  -0.017   0.183  -0.132
    1UNL    C19   24   0.050   0.103  -0.016
    1UNL    C20   25   0.057   0.200   0.103
    1UNL     O4   26  -0.036   0.224   0.176
    1UNL     O5   27   0.172   0.272   0.115
    1UNL    C21   28  -0.258   0.015  -0.201
    1UNL    C22   29  -0.134  -0.069  -0.207
    1UNL     O6   30  -0.085  -0.094  -0.314
    1UNL    C23   31  -0.183   0.021   0.057
    1UNL     H1   32   0.465   0.010  -0.319
    1UNL     H2   33   0.431  -0.174  -0.290
    1UNL     H3   34   0.306  -0.035  -0.345
    1UNL     H4   35   0.559   0.124   0.117
    1UNL     H5   36   0.447   0.088  -0.001
    1UNL     H6   37   0.400   0.154   0.148
    1UNL     H7   38   0.366  -0.197   0.334
    1UNL     H8   39   0.137  -0.281   0.384
    1UNL     H9   40  -0.044  -0.206   0.243
    1UNL    H10   41   0.009  -0.185  -0.093
    1UNL    H11   42  -0.157  -0.295   0.049
    1UNL    H12   43  -0.262  -0.253  -0.081
    1UNL    H13   44  -0.418  -0.089   0.186
    1UNL    H14   45  -0.453  -0.194   0.055
    1UNL    H15   46  -0.584   0.027   0.060
    1UNL    H16   47  -0.506  -0.036  -0.096
    1UNL    H17   48  -0.397   0.195   0.062
    1UNL    H18   49  -0.452   0.191  -0.091
    1UNL    H19   50  -0.213   0.278  -0.184
    1UNL    H20   51  -0.171   0.293  -0.013
    1UNL    H21   52  -0.009   0.122  -0.223
    1UNL    H22   53   0.039   0.279  -0.145
    1UNL    H23   54   0.152   0.333   0.187
    1UNL    H24   55  -0.342  -0.044  -0.193
    1UNL    H25   56  -0.271   0.078  -0.283
    1UNL    H26   57  -0.205   0.082   0.146
   0.00000   0.00000   0.00000   0.00000   0.00000   0.00000   0.00000   0.00000   0.00000
Generated with MDTraj, t= 88.0
 57
    1UNL     C1    1   0.428  -0.015  -0.282
    1UNL     O1    2   0.354  -0.052  -0.165
    1UNL     C2    3   0.258   0.047  -0.144
    1UNL     O2    4   0.236   0.128  -0.230
    1UNL     N1    5   0.182   0.049  -0.021
    1UNL     C3    6   0.192  -0.048   0.088
    1UNL     C4    7   0.297  -0.100   0.164
    1UNL     O3    8   0.422  -0.042   0.163
    1UNL     C5    9   0.426   0.083   0.102
    1UNL     C6   10   0.266  -0.200   0.254
    1UNL     C7   11   0.139  -0.238   0.290
    1UNL     C8   12   0.028  -0.177   0.233
    1UNL     C9   13   0.061  -0.087   0.126
    1UNL    C10   14  -0.035  -0.024   0.020
    1UNL    C11   15  -0.078  -0.129  -0.085
    1UNL    C12   16  -0.197  -0.209  -0.014
    1UNL     N2   17  -0.242  -0.113   0.088
    1UNL    C13   18  -0.379  -0.083   0.130
    1UNL    C14   19  -0.455   0.007   0.033
    1UNL    C15   20  -0.384   0.133  -0.018
    1UNL    C16   21  -0.243   0.094  -0.073
    1UNL    C17   22  -0.155   0.213  -0.120
    1UNL    C18   23  -0.005   0.172  -0.147
    1UNL    C19   24   0.048   0.110  -0.026
    1UNL    C20   25   0.056   0.209   0.087
    1UNL     O4   26  -0.036   0.236   0.157
    1UNL     O5   27   0.172   0.280   0.097
    1UNL    C21   28  -0.254   0.007  -0.203
    1UNL    C22   29  -0.129  -0.073  -0.215
    1UNL     O6   30  -0.065  -0.091  -0.315
    1UNL    C23   31  -0.177   0.017   0.055
    1UNL     H1   32   0.436   0.089  -0.302
    1UNL     H2   33   0.523  -0.069  -0.277
    1UNL     H3   34   0.350  -0.049  -0.358
    1UNL     H4   35   0.494   0.143   0.146
    1UNL     H5   36   0.457   0.070  -0.002
    1UNL     H6   37   0.338   0.137   0.106
    1UNL     H7   38   0.344  -0.252   0.298
    1UNL     H8   39   0.127  -0.317   0.363
    1UNL     H9   40  -0.077  -0.190   0.255
    1UNL    H10   41   0.006  -0.185  -0.106
    1UNL    H11   42  -0.167  -0.296   0.041
    1UNL    H12   43  -0.279  -0.235  -0.076
    1UNL    H13   44  -0.377  -0.041   0.230
    1UNL    H14   45  -0.420  -0.175   0.142
    1UNL    H15   46  -0.546   0.046   0.091
    1UNL    H16   47  -0.491  -0.056  -0.051
    1UNL    H17   48  -0.386   0.194   0.071
    1UNL    H18   49  -0.443   0.197  -0.080
    1UNL    H19   50  -0.198   0.265  -0.214
    1UNL    H20   51  -0.161   0.287  -0.041
    1UNL    H21   52   0.009   0.095  -0.224
    1UNL    H22   53   0.060   0.262  -0.165
    1UNL    H23   54   0.159   0.342   0.172
    1UNL    H24   55  -0.337  -0.057  -0.190
    1UNL    H25   56  -0.270   0.065  -0.286
    1UNL    H26   57  -0.181   0.074   0.150
   0.00000   0.00000   0.00000   0.00000   0.00000   0.00000   0.00000   0.00000   0.00000
Generated with MDTraj, t= 89.0
 57
    1UNL     C1    1   0.448  -0.022  -0.268
    1UNL     O1    2   0.381  -0.025  -0.138
    1UNL     C2    3   0.269   0.052  -0.146
    1UNL     O2    4   0.246   0.119  -0.243
    1UNL     N1    5   0.184   0.051  -0.033
    1UNL     C3    6   0.188  -0.040   0.076
    1UNL     C4    7   0.297  -0.093   0.154
    1UNL     O3    8   0.427  -0.053   0.141
    1UNL     C5    9   0.440   0.085   0.122
    1UNL     C6   10   0.274  -0.189   0.254
    1UNL     C7   11   0.147  -0.224   0.287
    1UNL     C8   12   0.039  -0.180   0.215
    1UNL     C9   13   0.059  -0.087   0.108
    1UNL    C10   14  -0.035  -0.023   0.013
    1UNL    C11   15  -0.083  -0.144  -0.082
    1UNL    C12   16  -0.207  -0.207  -0.007
    1UNL     N2   17  -0.256  -0.107   0.091
    1UNL    C13   18  -0.400  -0.089   0.122
    1UNL    C14   19  -0.472   0.009   0.019
    1UNL    C15   20  -0.389   0.138  -0.012
    1UNL    C16   21  -0.253   0.094  -0.061
    1UNL    C17   22  -0.156   0.210  -0.110
    1UNL    C18   23  -0.013   0.175  -0.149
    1UNL    C19   24   0.046   0.105  -0.029
    1UNL    C20   25   0.061   0.211   0.084
    1UNL     O4   26  -0.036   0.235   0.155
    1UNL     O5   27   0.188   0.264   0.104
    1UNL    C21   28  -0.265   0.003  -0.188
    1UNL    C22   29  -0.140  -0.078  -0.204
    1UNL     O6   30  -0.087  -0.098  -0.310
    1UNL    C23   31  -0.183   0.018   0.059
    1UNL     H1   32   0.507   0.069  -0.269
    1UNL     H2   33   0.522  -0.102  -0.266
    1UNL     H3   34   0.365  -0.038  -0.343
    1UNL     H4   35   0.531   0.120   0.159
    1UNL     H5   36   0.433   0.121   0.017
    1UNL     H6   37   0.364   0.129   0.178
    1UNL     H7   38   0.367  -0.220   0.308
    1UNL     H8   39   0.126  -0.294   0.366
    1UNL     H9   40  -0.063  -0.206   0.250
    1UNL    H10   41  -0.011  -0.215  -0.106
    1UNL    H11   42  -0.180  -0.292   0.053
    1UNL    H12   43  -0.284  -0.237  -0.075
    1UNL    H13   44  -0.397  -0.051   0.223
    1UNL    H14   45  -0.437  -0.184   0.137
    1UNL    H15   46  -0.575   0.030   0.055
    1UNL    H16   47  -0.492  -0.042  -0.080
    1UNL    H17   48  -0.385   0.212   0.066
    1UNL    H18   49  -0.443   0.194  -0.084
    1UNL    H19   50  -0.208   0.267  -0.197
    1UNL    H20   51  -0.147   0.284  -0.034
    1UNL    H21   52  -0.011   0.107  -0.235
    1UNL    H22   53   0.055   0.261  -0.178
    1UNL    H23   54   0.190   0.335   0.175
    1UNL    H24   55  -0.345  -0.071  -0.189
    1UNL    H25   56  -0.278   0.057  -0.278
    1UNL    H26   57  -0.180   0.064   0.159
   0.00000   0.00000   0.00000   0.00000   0.00000   0.00000   0.00000   0.00000   0.00000
Generated with MDTraj, t= 90.0
 57
    1UNL     C1    1   0.459  -0.007  -0.257
    1UNL     O1    2   0.371  -0.039  -0.147
    1UNL     C2    3   0.264   0.046  -0.151
    1UNL     O2    4   0.252   0.128  -0.238
    1UNL     N1    5   0.180   0.034  -0.037
    1UNL     C3    6   0.188  -0.060   0.077
    1UNL     C4    7   0.305  -0.100   0.146
    1UNL     O3    8   0.438  -0.055   0.123
    1UNL     C5    9   0.442   0.086   0.115
    1UNL     C6   10   0.284  -0.169   0.265
    1UNL     C7   11   0.157  -0.207   0.300
    1UNL     C8   12   0.047  -0.167   0.226
    1UNL     C9   13   0.060  -0.086   0.121
    1UNL    C10   14  -0.036  -0.029   0.015
    1UNL    C11   15  -0.081  -0.144  -0.086
    1UNL    C12   16  -0.191  -0.215  -0.007
    1UNL     N2   17  -0.264  -0.105   0.072
    1UNL    C13   18  -0.415  -0.089   0.101
    1UNL    C14   19  -0.477   0.024   0.018
    1UNL    C15   20  -0.387   0.140  -0.017
    1UNL    C16   21  -0.250   0.099  -0.062
    1UNL    C17   22  -0.156   0.221  -0.105
    1UNL    C18   23  -0.020   0.173  -0.148
    1UNL    C19   24   0.048   0.097  -0.028
    1UNL    C20   25   0.059   0.200   0.094
    1UNL     O4   26  -0.041   0.238   0.153
    1UNL     O5   27   0.183   0.252   0.125
    1UNL    C21   28  -0.266   0.011  -0.180
    1UNL    C22   29  -0.142  -0.084  -0.203
    1UNL     O6   30  -0.109  -0.107  -0.318
    1UNL    C23   31  -0.180   0.018   0.054
    1UNL     H1   32   0.467   0.101  -0.239
    1UNL     H2   33   0.559  -0.044  -0.233
    1UNL     H3   34   0.416  -0.050  -0.350
    1UNL     H4   35   0.541   0.125   0.083
    1UNL     H5   36   0.364   0.134   0.055
    1UNL     H6   37   0.426   0.110   0.220
    1UNL     H7   38   0.370  -0.184   0.327
    1UNL     H8   39   0.147  -0.250   0.401
    1UNL     H9   40  -0.047  -0.203   0.247
    1UNL    H10   41  -0.001  -0.210  -0.109
    1UNL    H11   42  -0.153  -0.290   0.060
    1UNL    H12   43  -0.254  -0.264  -0.080
    1UNL    H13   44  -0.413  -0.062   0.203
    1UNL    H14   45  -0.462  -0.186   0.101
    1UNL    H15   46  -0.562   0.063   0.077
    1UNL    H16   47  -0.530  -0.030  -0.071
    1UNL    H17   48  -0.393   0.221   0.053
    1UNL    H18   49  -0.431   0.192  -0.098
    1UNL    H19   50  -0.199   0.289  -0.188
    1UNL    H20   51  -0.152   0.290  -0.023
    1UNL    H21   52  -0.035   0.120  -0.243
    1UNL    H22   53   0.049   0.257  -0.174
    1UNL    H23   54   0.179   0.311   0.204
    1UNL    H24   55  -0.354  -0.054  -0.167
    1UNL    H25   56  -0.286   0.065  -0.276
    1UNL    H26   57  -0.157   0.083   0.140
   0.00000   0.00000   0.00000   0.00000   0.00000   0.00000   0.00000   0.00000   0.00000
Generated with MDTraj, t= 91.0
 57
    1UNL     C1    1   0.430  -0.002  -0.274
    1UNL     O1    2   0.369  -0.033  -0.157
    1UNL     C2    3   0.263   0.053  -0.148
    1UNL     O2    4   0.251   0.149  -0.222
    1UNL     N1    5   0.178   0.025  -0.041
    1UNL     C3    6   0.188  -0.063   0.074
    1UNL     C4    7   0.297  -0.096   0.160
    1UNL     O3    8   0.431  -0.058   0.139
    1UNL     C5    9   0.432   0.073   0.095
    1UNL     C6   10   0.275  -0.176   0.275
    1UNL     C7   11   0.140  -0.207   0.306
    1UNL     C8   12   0.034  -0.154   0.231
    1UNL     C9   13   0.059  -0.083   0.118
    1UNL    C10   14  -0.037  -0.031   0.014
    1UNL    C11   15  -0.073  -0.153  -0.086
    1UNL    C12   16  -0.196  -0.215  -0.006
    1UNL     N2   17  -0.255  -0.104   0.073
    1UNL    C13   18  -0.390  -0.078   0.130
    1UNL    C14   19  -0.475   0.014   0.038
    1UNL    C15   20  -0.391   0.133  -0.028
    1UNL    C16   21  -0.250   0.099  -0.072
    1UNL    C17   22  -0.159   0.225  -0.111
    1UNL    C18   23  -0.017   0.170  -0.152
    1UNL    C19   24   0.043   0.096  -0.032
    1UNL    C20   25   0.058   0.195   0.085
    1UNL     O4   26  -0.039   0.239   0.144
    1UNL     O5   27   0.181   0.235   0.126
    1UNL    C21   28  -0.243   0.005  -0.184
    1UNL    C22   29  -0.128  -0.082  -0.209
    1UNL     O6   30  -0.072  -0.089  -0.316
    1UNL    C23   31  -0.184   0.020   0.052
    1UNL     H1   32   0.469   0.102  -0.248
    1UNL     H2   33   0.498  -0.087  -0.290
    1UNL     H3   34   0.358  -0.007  -0.355
    1UNL     H4   35   0.451   0.078  -0.018
    1UNL     H5   36   0.340   0.120   0.119
    1UNL     H6   37   0.520   0.116   0.156
    1UNL     H7   38   0.345  -0.205   0.349
    1UNL     H8   39   0.114  -0.259   0.394
    1UNL     H9   40  -0.069  -0.179   0.267
    1UNL    H10   41   0.015  -0.215  -0.106
    1UNL    H11   42  -0.159  -0.303   0.045
    1UNL    H12   43  -0.277  -0.247  -0.073
    1UNL    H13   44  -0.379  -0.040   0.226
    1UNL    H14   45  -0.434  -0.178   0.142
    1UNL    H15   46  -0.553   0.048   0.109
    1UNL    H16   47  -0.520  -0.052  -0.048
    1UNL    H17   48  -0.379   0.213   0.043
    1UNL    H18   49  -0.450   0.181  -0.101
    1UNL    H19   50  -0.202   0.286  -0.196
    1UNL    H20   51  -0.158   0.297  -0.028
    1UNL    H21   52  -0.011   0.106  -0.241
    1UNL    H22   53   0.048   0.256  -0.182
    1UNL    H23   54   0.171   0.305   0.191
    1UNL    H24   55  -0.327  -0.066  -0.183
    1UNL    H25   56  -0.255   0.075  -0.278
    1UNL    H26   57  -0.188   0.078   0.146
   0.00000   0.00000   0.00000   0.00000   0.00000   0.00000   0.00000   0.00000   0.00000
Generated with MDTraj, t= 92.0
 57
    1UNL     C1    1   0.402  -0.016  -0.298
    1UNL     O1    2   0.353  -0.049  -0.171
    1UNL     C2    3   0.266   0.054  -0.146
    1UNL     O2    4   0.251   0.151  -0.221
    1UNL     N1    5   0.181   0.047  -0.029
    1UNL     C3    6   0.189  -0.049   0.082
    1UNL     C4    7   0.297  -0.096   0.166
    1UNL     O3    8   0.437  -0.067   0.160
    1UNL     C5    9   0.464   0.056   0.097
    1UNL     C6   10   0.264  -0.178   0.268
    1UNL     C7   11   0.136  -0.217   0.298
    1UNL     C8   12   0.034  -0.168   0.223
    1UNL     C9   13   0.059  -0.087   0.119
    1UNL    C10   14  -0.034  -0.018   0.021
    1UNL    C11   15  -0.075  -0.139  -0.077
    1UNL    C12   16  -0.195  -0.213  -0.002
    1UNL     N2   17  -0.250  -0.100   0.083
    1UNL    C13   18  -0.395  -0.092   0.112
    1UNL    C14   19  -0.472  -0.013   0.006
    1UNL    C15   20  -0.392   0.123  -0.023
    1UNL    C16   21  -0.241   0.098  -0.067
    1UNL    C17   22  -0.156   0.219  -0.116
    1UNL    C18   23  -0.006   0.172  -0.152
    1UNL    C19   24   0.056   0.114  -0.027
    1UNL    C20   25   0.059   0.217   0.091
    1UNL     O4   26  -0.043   0.256   0.144
    1UNL     O5   27   0.180   0.265   0.135
    1UNL    C21   28  -0.253   0.002  -0.192
    1UNL    C22   29  -0.127  -0.083  -0.201
    1UNL     O6   30  -0.078  -0.095  -0.309
    1UNL    C23   31  -0.177   0.025   0.057
    1UNL     H1   32   0.444   0.091  -0.289
    1UNL     H2   33   0.451  -0.106  -0.337
    1UNL     H3   34   0.316  -0.011  -0.363
    1UNL     H4   35   0.480   0.024  -0.011
    1UNL     H5   36   0.373   0.116   0.106
    1UNL     H6   37   0.559   0.107   0.145
    1UNL     H7   38   0.353  -0.221   0.321
    1UNL     H8   39   0.116  -0.285   0.384
    1UNL     H9   40  -0.067  -0.188   0.247
    1UNL    H10   41   0.013  -0.202  -0.108
    1UNL    H11   42  -0.149  -0.287   0.064
    1UNL    H12   43  -0.268  -0.266  -0.066
    1UNL    H13   44  -0.408  -0.044   0.201
    1UNL    H14   45  -0.432  -0.196   0.127
    1UNL    H15   46  -0.565   0.022   0.058
    1UNL    H16   47  -0.497  -0.084  -0.084
    1UNL    H17   48  -0.394   0.180   0.068
    1UNL    H18   49  -0.450   0.182  -0.087
    1UNL    H19   50  -0.209   0.260  -0.201
    1UNL    H20   51  -0.155   0.300  -0.038
    1UNL    H21   52  -0.004   0.105  -0.240
    1UNL    H22   53   0.048   0.261  -0.186
    1UNL    H23   54   0.166   0.311   0.218
    1UNL    H24   55  -0.342  -0.061  -0.170
    1UNL    H25   56  -0.263   0.052  -0.298
    1UNL    H26   57  -0.183   0.086   0.149
   0.00000   0.00000   0.00000   0.00000   0.00000   0.00000   0.00000   0.00000   0.00000
Generated with MDTraj, t= 93.0
 57
    1UNL     C1    1   0.376  -0.057  -0.286
    1UNL     O1    2   0.327  -0.068  -0.155
    1UNL     C2    3   0.257   0.050  -0.140
    1UNL     O2    4   0.243   0.135  -0.228
    1UNL     N1    5   0.185   0.063  -0.013
    1UNL     C3    6   0.183  -0.034   0.083
    1UNL     C4    7   0.294  -0.093   0.147
    1UNL     O3    8   0.430  -0.057   0.130
    1UNL     C5    9   0.454   0.073   0.076
    1UNL     C6   10   0.271  -0.185   0.254
    1UNL     C7   11   0.148  -0.215   0.301
    1UNL     C8   12   0.039  -0.167   0.235
    1UNL     C9   13   0.054  -0.072   0.130
    1UNL    C10   14  -0.035  -0.012   0.026
    1UNL    C11   15  -0.066  -0.128  -0.074
    1UNL    C12   16  -0.177  -0.218  -0.014
    1UNL     N2   17  -0.249  -0.114   0.066
    1UNL    C13   18  -0.398  -0.108   0.093
    1UNL    C14   19  -0.467   0.005   0.012
    1UNL    C15   20  -0.386   0.132  -0.028
    1UNL    C16   21  -0.240   0.098  -0.075
    1UNL    C17   22  -0.152   0.219  -0.117
    1UNL    C18   23  -0.002   0.183  -0.134
    1UNL    C19   24   0.049   0.119  -0.008
    1UNL    C20   25   0.057   0.223   0.106
    1UNL     O4   26  -0.041   0.248   0.169
    1UNL     O5   27   0.176   0.276   0.145
    1UNL    C21   28  -0.245  -0.000  -0.197
    1UNL    C22   29  -0.114  -0.077  -0.211
    1UNL     O6   30  -0.054  -0.106  -0.311
    1UNL    C23   31  -0.183   0.022   0.052
    1UNL     H1   32   0.421   0.046  -0.305
    1UNL     H2   33   0.452  -0.132  -0.295
    1UNL     H3   34   0.289  -0.058  -0.348
    1UNL     H4   35   0.458   0.043  -0.031
    1UNL     H5   36   0.369   0.140   0.100
    1UNL     H6   37   0.558   0.112   0.115
    1UNL     H7   38   0.352  -0.228   0.302
    1UNL     H8   39   0.135  -0.289   0.373
    1UNL     H9   40  -0.059  -0.196   0.268
    1UNL    H10   41   0.030  -0.193  -0.074
    1UNL    H11   42  -0.143  -0.299   0.053
    1UNL    H12   43  -0.243  -0.268  -0.087
    1UNL    H13   44  -0.404  -0.086   0.193
    1UNL    H14   45  -0.446  -0.207   0.088
    1UNL    H15   46  -0.566   0.026   0.062
    1UNL    H16   47  -0.485  -0.035  -0.091
    1UNL    H17   48  -0.389   0.200   0.054
    1UNL    H18   49  -0.433   0.184  -0.106
    1UNL    H19   50  -0.188   0.268  -0.203
    1UNL    H20   51  -0.161   0.292  -0.029
    1UNL    H21   52   0.001   0.117  -0.223
    1UNL    H22   53   0.061   0.267  -0.169
    1UNL    H23   54   0.155   0.330   0.224
    1UNL    H24   55  -0.332  -0.073  -0.195
    1UNL    H25   56  -0.253   0.064  -0.292
    1UNL    H26   57  -0.214   0.064   0.149
   0.00000   0.00000   0.00000   0.00000   0.00000   0.00000   0.00000   0.00000   0.00000
Generated with MDTraj, t= 94.0
 57
    1UNL     C1    1   0.344  -0.110  -0.288
    1UNL     O1    2   0.319  -0.082  -0.150
    1UNL     C2    3   0.247   0.028  -0.151
    1UNL     O2    4   0.238   0.105  -0.246
    1UNL     N1    5   0.179   0.049  -0.029
    1UNL     C3    6   0.194  -0.040   0.089
    1UNL     C4    7   0.310  -0.081   0.157
    1UNL     O3    8   0.439  -0.033   0.142
    1UNL     C5    9   0.452   0.095   0.085
    1UNL     C6   10   0.288  -0.179   0.254
    1UNL     C7   11   0.164  -0.216   0.298
    1UNL     C8   12   0.049  -0.163   0.240
    1UNL     C9   13   0.067  -0.078   0.128
    1UNL    C10   14  -0.037  -0.017   0.030
    1UNL    C11   15  -0.066  -0.124  -0.081
    1UNL    C12   16  -0.175  -0.205  -0.026
    1UNL     N2   17  -0.249  -0.112   0.074
    1UNL    C13   18  -0.400  -0.094   0.094
    1UNL    C14   19  -0.465  -0.015  -0.018
    1UNL    C15   20  -0.402   0.115  -0.040
    1UNL    C16   21  -0.247   0.100  -0.069
    1UNL    C17   22  -0.155   0.229  -0.093
    1UNL    C18   23  -0.010   0.195  -0.121
    1UNL    C19   24   0.047   0.117  -0.014
    1UNL    C20   25   0.052   0.207   0.114
    1UNL     O4   26  -0.050   0.227   0.173
    1UNL     O5   27   0.168   0.275   0.139
    1UNL    C21   28  -0.235   0.026  -0.206
    1UNL    C22   29  -0.107  -0.051  -0.204
    1UNL     O6   30  -0.031  -0.057  -0.299
    1UNL    C23   31  -0.187   0.019   0.056
    1UNL     H1   32   0.438  -0.052  -0.320
    1UNL     H2   33   0.382  -0.212  -0.290
    1UNL     H3   34   0.261  -0.067  -0.344
    1UNL     H4   35   0.448   0.067  -0.021
    1UNL     H5   36   0.366   0.161   0.121
    1UNL     H6   37   0.555   0.129   0.119
    1UNL     H7   38   0.376  -0.221   0.309
    1UNL     H8   39   0.158  -0.295   0.375
    1UNL     H9   40  -0.052  -0.189   0.276
    1UNL    H10   41   0.030  -0.186  -0.106
    1UNL    H11   42  -0.153  -0.294   0.037
    1UNL    H12   43  -0.243  -0.236  -0.107
    1UNL    H13   44  -0.418  -0.053   0.192
    1UNL    H14   45  -0.440  -0.193   0.104
    1UNL    H15   46  -0.574   0.012   0.008
    1UNL    H16   47  -0.471  -0.081  -0.103
    1UNL    H17   48  -0.415   0.180   0.044
    1UNL    H18   49  -0.457   0.165  -0.116
    1UNL    H19   50  -0.198   0.280  -0.174
    1UNL    H20   51  -0.148   0.303  -0.006
    1UNL    H21   52  -0.004   0.134  -0.214
    1UNL    H22   53   0.042   0.285  -0.152
    1UNL    H23   54   0.147   0.339   0.212
    1UNL    H24   55  -0.318  -0.043  -0.235
    1UNL    H25   56  -0.230   0.104  -0.286
    1UNL    H26   57  -0.186   0.081   0.147
   0.00000   0.00000   0.00000   0.00000   0.00000   0.00000   0.00000   0.00000   0.00000
Generated with MDTraj, t= 95.0
 57
    1UNL     C1    1   0.312  -0.123  -0.290
    1UNL     O1    2   0.273  -0.093  -0.154
    1UNL     C2    3   0.229   0.032  -0.147
    1UNL     O2    4   0.224   0.098  -0.250
    1UNL     N1    5   0.189   0.055  -0.012
    1UNL     C3    6   0.193  -0.045   0.090
    1UNL     C4    7   0.302  -0.070   0.173
    1UNL     O3    8   0.431  -0.015   0.160
    1UNL     C5    9   0.436   0.108   0.078
    1UNL     C6   10   0.276  -0.155   0.283
    1UNL     C7   11   0.152  -0.222   0.296
    1UNL     C8   12   0.043  -0.178   0.226
    1UNL     C9   13   0.063  -0.084   0.121
    1UNL    C10   14  -0.027  -0.010   0.021
    1UNL    C11   15  -0.044  -0.119  -0.093
    1UNL    C12   16  -0.149  -0.212  -0.033
    1UNL     N2   17  -0.233  -0.121   0.055
    1UNL    C13   18  -0.381  -0.114   0.084
    1UNL    C14   19  -0.456  -0.008  -0.010
    1UNL    C15   20  -0.381   0.132  -0.029
    1UNL    C16   21  -0.237   0.102  -0.069
    1UNL    C17   22  -0.154   0.237  -0.097
    1UNL    C18   23  -0.002   0.197  -0.124
    1UNL    C19   24   0.052   0.121   0.002
    1UNL    C20   25   0.063   0.212   0.123
    1UNL     O4   26  -0.038   0.222   0.188
    1UNL     O5   27   0.180   0.274   0.140
    1UNL    C21   28  -0.231   0.025  -0.205
    1UNL    C22   29  -0.107  -0.058  -0.217
    1UNL     O6   30  -0.055  -0.070  -0.324
    1UNL    C23   31  -0.176   0.016   0.050
    1UNL     H1   32   0.359  -0.027  -0.333
    1UNL     H2   33   0.397  -0.193  -0.298
    1UNL     H3   34   0.223  -0.149  -0.344
    1UNL     H4   35   0.442   0.076  -0.023
    1UNL     H5   36   0.339   0.168   0.106
    1UNL     H6   37   0.525   0.160   0.113
    1UNL     H7   38   0.352  -0.165   0.355
    1UNL     H8   39   0.141  -0.283   0.382
    1UNL     H9   40  -0.041  -0.233   0.258
    1UNL    H10   41   0.063  -0.161  -0.120
    1UNL    H11   42  -0.105  -0.287   0.039
    1UNL    H12   43  -0.209  -0.269  -0.106
    1UNL    H13   44  -0.395  -0.106   0.194
    1UNL    H14   45  -0.414  -0.213   0.067
    1UNL    H15   46  -0.562   0.000   0.035
    1UNL    H16   47  -0.473  -0.047  -0.104
    1UNL    H17   48  -0.382   0.192   0.058
    1UNL    H18   49  -0.415   0.196  -0.106
    1UNL    H19   50  -0.186   0.300  -0.176
    1UNL    H20   51  -0.166   0.297  -0.002
    1UNL    H21   52   0.017   0.148  -0.223
    1UNL    H22   53   0.051   0.291  -0.144
    1UNL    H23   54   0.166   0.336   0.218
    1UNL    H24   55  -0.320  -0.037  -0.221
    1UNL    H25   56  -0.229   0.091  -0.292
    1UNL    H26   57  -0.180   0.061   0.151
   0.00000   0.00000   0.00000   0.00000   0.00000   0.00000   0.00000   0.00000   0.00000
Generated with MDTraj, t= 96.0
 57
    1UNL     C1    1   0.267  -0.126  -0.302
    1UNL     O1    2   0.284  -0.098  -0.169
    1UNL     C2    3   0.252   0.033  -0.152
    1UNL     O2    4   0.254   0.110  -0.245
    1UNL     N1    5   0.191   0.060  -0.027
    1UNL     C3    6   0.201  -0.035   0.085
    1UNL     C4    7   0.302  -0.065   0.183
    1UNL     O3    8   0.431  -0.020   0.179
    1UNL     C5    9   0.469   0.094   0.096
    1UNL     C6   10   0.278  -0.150   0.288
    1UNL     C7   11   0.150  -0.193   0.308
    1UNL     C8   12   0.046  -0.167   0.219
    1UNL     C9   13   0.072  -0.082   0.117
    1UNL    C10   14  -0.027  -0.017   0.018
    1UNL    C11   15  -0.050  -0.121  -0.101
    1UNL    C12   16  -0.159  -0.213  -0.038
    1UNL     N2   17  -0.242  -0.120   0.052
    1UNL    C13   18  -0.389  -0.124   0.075
    1UNL    C14   19  -0.463  -0.014   0.002
    1UNL    C15   20  -0.385   0.123  -0.017
    1UNL    C16   21  -0.236   0.099  -0.062
    1UNL    C17   22  -0.155   0.231  -0.088
    1UNL    C18   23  -0.000   0.198  -0.128
    1UNL    C19   24   0.055   0.117  -0.011
    1UNL    C20   25   0.058   0.204   0.116
    1UNL     O4   26  -0.044   0.212   0.183
    1UNL     O5   27   0.160   0.282   0.145
    1UNL    C21   28  -0.229   0.029  -0.204
    1UNL    C22   29  -0.107  -0.059  -0.220
    1UNL     O6   30  -0.050  -0.068  -0.324
    1UNL    C23   31  -0.170   0.017   0.052
    1UNL     H1   32   0.369  -0.095  -0.352
    1UNL     H2   33   0.241  -0.234  -0.312
    1UNL     H3   34   0.168  -0.087  -0.328
    1UNL     H4   35   0.463   0.071  -0.008
    1UNL     H5   36   0.396   0.176   0.132
    1UNL     H6   37   0.565   0.116   0.129
    1UNL     H7   38   0.349  -0.171   0.367
    1UNL     H8   39   0.137  -0.244   0.404
    1UNL     H9   40  -0.056  -0.211   0.229
    1UNL    H10   41   0.051  -0.171  -0.130
    1UNL    H11   42  -0.104  -0.298   0.011
    1UNL    H12   43  -0.224  -0.254  -0.119
    1UNL    H13   44  -0.399  -0.106   0.187
    1UNL    H14   45  -0.428  -0.220   0.066
    1UNL    H15   46  -0.560   0.011   0.061
    1UNL    H16   47  -0.489  -0.057  -0.088
    1UNL    H17   48  -0.374   0.181   0.069
    1UNL    H18   49  -0.438   0.184  -0.086
    1UNL    H19   50  -0.212   0.290  -0.159
    1UNL    H20   51  -0.145   0.291   0.002
    1UNL    H21   52   0.004   0.161  -0.232
    1UNL    H22   53   0.060   0.288  -0.134
    1UNL    H23   54   0.124   0.335   0.221
    1UNL    H24   55  -0.318  -0.027  -0.222
    1UNL    H25   56  -0.227   0.103  -0.283
    1UNL    H26   57  -0.167   0.067   0.150
   0.00000   0.00000   0.00000   0.00000   0.00000   0.00000   0.00000   0.00000   0.00000
Generated with MDTraj, t= 97.0
 57
    1UNL     C1    1   0.279  -0.102  -0.314
    1UNL     O1    2   0.250  -0.105  -0.179
    1UNL     C2    3   0.236   0.028  -0.144
    1UNL     O2    4   0.260   0.113  -0.228
    1UNL     N1    5   0.190   0.058  -0.007
    1UNL     C3    6   0.191  -0.038   0.094
    1UNL     C4    7   0.302  -0.075   0.172
    1UNL     O3    8   0.430  -0.022   0.162
    1UNL     C5    9   0.437   0.084   0.068
    1UNL     C6   10   0.278  -0.158   0.280
    1UNL     C7   11   0.155  -0.197   0.322
    1UNL     C8   12   0.047  -0.159   0.249
    1UNL     C9   13   0.063  -0.085   0.132
    1UNL    C10   14  -0.025  -0.021   0.026
    1UNL    C11   15  -0.044  -0.125  -0.096
    1UNL    C12   16  -0.167  -0.207  -0.034
    1UNL     N2   17  -0.241  -0.118   0.058
    1UNL    C13   18  -0.382  -0.114   0.089
    1UNL    C14   19  -0.460  -0.024  -0.002
    1UNL    C15   20  -0.385   0.110  -0.038
    1UNL    C16   21  -0.232   0.096  -0.075
    1UNL    C17   22  -0.147   0.230  -0.110
    1UNL    C18   23   0.002   0.191  -0.129
    1UNL    C19   24   0.051   0.118  -0.002
    1UNL    C20   25   0.062   0.218   0.119
    1UNL     O4   26  -0.038   0.222   0.190
    1UNL     O5   27   0.172   0.286   0.144
    1UNL    C21   28  -0.232   0.009  -0.207
    1UNL    C22   29  -0.092  -0.054  -0.223
    1UNL     O6   30  -0.027  -0.040  -0.324
    1UNL    C23   31  -0.172   0.013   0.050
    1UNL     H1   32   0.369  -0.029  -0.324
    1UNL     H2   33   0.295  -0.205  -0.352
    1UNL     H3   34   0.182  -0.079  -0.357
    1UNL     H4   35   0.427   0.045  -0.031
    1UNL     H5   36   0.351   0.147   0.103
    1UNL     H6   37   0.525   0.131   0.088
    1UNL     H7   38   0.365  -0.201   0.333
    1UNL     H8   39   0.127  -0.260   0.407
    1UNL     H9   40  -0.050  -0.178   0.284
    1UNL    H10   41   0.046  -0.195  -0.101
    1UNL    H11   42  -0.127  -0.302   0.013
    1UNL    H12   43  -0.232  -0.232  -0.119
    1UNL    H13   44  -0.388  -0.072   0.194
    1UNL    H14   45  -0.418  -0.211   0.098
    1UNL    H15   46  -0.563  -0.005   0.047
    1UNL    H16   47  -0.468  -0.080  -0.092
    1UNL    H17   48  -0.389   0.159   0.053
    1UNL    H18   49  -0.433   0.173  -0.109
    1UNL    H19   50  -0.186   0.269  -0.205
    1UNL    H20   51  -0.149   0.310  -0.041
    1UNL    H21   52   0.017   0.123  -0.215
    1UNL    H22   53   0.055   0.281  -0.157
    1UNL    H23   54   0.155   0.341   0.223
    1UNL    H24   55  -0.304  -0.068  -0.204
    1UNL    H25   56  -0.259   0.069  -0.290
    1UNL    H26   57  -0.194   0.069   0.143
   0.00000   0.00000   0.00000   0.00000   0.00000   0.00000   0.00000   0.00000   0.00000
Generated with MDTraj, t= 98.0
 57
    1UNL     C1    1   0.285  -0.102  -0.303
    1UNL     O1    2   0.277  -0.089  -0.166
    1UNL     C2    3   0.250   0.043  -0.152
    1UNL     O2    4   0.253   0.127  -0.240
    1UNL     N1    5   0.185   0.068  -0.022
    1UNL     C3    6   0.195  -0.027   0.086
    1UNL     C4    7   0.303  -0.075   0.166
    1UNL     O3    8   0.440  -0.042   0.141
    1UNL     C5    9   0.457   0.076   0.078
    1UNL     C6   10   0.275  -0.159   0.273
    1UNL     C7   11   0.150  -0.203   0.305
    1UNL     C8   12   0.044  -0.156   0.231
    1UNL     C9   13   0.067  -0.062   0.134
    1UNL    C10   14  -0.026  -0.016   0.030
    1UNL    C11   15  -0.054  -0.135  -0.070
    1UNL    C12   16  -0.174  -0.214  -0.017
    1UNL     N2   17  -0.251  -0.115   0.061
    1UNL    C13   18  -0.401  -0.120   0.066
    1UNL    C14   19  -0.462  -0.021  -0.038
    1UNL    C15   20  -0.391   0.112  -0.031
    1UNL    C16   21  -0.237   0.099  -0.060
    1UNL    C17   22  -0.158   0.234  -0.084
    1UNL    C18   23  -0.008   0.204  -0.125
    1UNL    C19   24   0.052   0.128  -0.009
    1UNL    C20   25   0.059   0.215   0.115
    1UNL     O4   26  -0.036   0.238   0.189
    1UNL     O5   27   0.176   0.274   0.143
    1UNL    C21   28  -0.215   0.010  -0.200
    1UNL    C22   29  -0.091  -0.073  -0.205
    1UNL     O6   30  -0.032  -0.090  -0.309
    1UNL    C23   31  -0.180   0.015   0.056
    1UNL     H1   32   0.359  -0.028  -0.344
    1UNL     H2   33   0.302  -0.208  -0.326
    1UNL     H3   34   0.195  -0.065  -0.352
    1UNL     H4   35   0.455   0.052  -0.028
    1UNL     H5   36   0.370   0.135   0.112
    1UNL     H6   37   0.543   0.115   0.116
    1UNL     H7   38   0.363  -0.189   0.319
    1UNL     H8   39   0.147  -0.285   0.371
    1UNL     H9   40  -0.060  -0.184   0.255
    1UNL    H10   41   0.033  -0.205  -0.073
    1UNL    H11   42  -0.140  -0.282   0.067
    1UNL    H12   43  -0.220  -0.269  -0.102
    1UNL    H13   44  -0.426  -0.092   0.171
    1UNL    H14   45  -0.437  -0.218   0.055
    1UNL    H15   46  -0.571  -0.008  -0.008
    1UNL    H16   47  -0.449  -0.059  -0.142
    1UNL    H17   48  -0.413   0.156   0.062
    1UNL    H18   49  -0.432   0.176  -0.105
    1UNL    H19   50  -0.208   0.304  -0.154
    1UNL    H20   51  -0.153   0.285   0.006
    1UNL    H21   52   0.006   0.150  -0.220
    1UNL    H22   53   0.041   0.299  -0.134
    1UNL    H23   54   0.163   0.310   0.231
    1UNL    H24   55  -0.298  -0.046  -0.235
    1UNL    H25   56  -0.203   0.084  -0.272
    1UNL    H26   57  -0.195   0.073   0.149
   0.00000   0.00000   0.00000   0.00000   0.00000   0.00000   0.00000   0.00000   0.00000
Generated with MDTraj, t= 99.0
 57
    1UNL     C1    1   0.309  -0.095  -0.296
    1UNL     O1    2   0.310  -0.079  -0.155
    1UNL     C2    3   0.243   0.038  -0.143
    1UNL     O2    4   0.215   0.108  -0.238
    1UNL     N1    5   0.187   0.063  -0.013
    1UNL     C3    6   0.197  -0.030   0.096
    1UNL     C4    7   0.310  -0.081   0.162
    1UNL     O3    8   0.437  -0.055   0.131
    1UNL     C5    9   0.446   0.074   0.074
    1UNL     C6   10   0.294  -0.175   0.270
    1UNL     C7   11   0.162  -0.214   0.304
    1UNL     C8   12   0.054  -0.159   0.240
    1UNL     C9   13   0.072  -0.071   0.133
    1UNL    C10   14  -0.026  -0.012   0.025
    1UNL    C11   15  -0.050  -0.126  -0.082
    1UNL    C12   16  -0.162  -0.211  -0.017
    1UNL     N2   17  -0.247  -0.110   0.058
    1UNL    C13   18  -0.392  -0.098   0.094
    1UNL    C14   19  -0.466  -0.004  -0.012
    1UNL    C15   20  -0.387   0.121  -0.049
    1UNL    C16   21  -0.234   0.094  -0.079
    1UNL    C17   22  -0.156   0.225  -0.107
    1UNL    C18   23  -0.008   0.197  -0.122
    1UNL    C19   24   0.054   0.125  -0.000
    1UNL    C20   25   0.044   0.222   0.120
    1UNL     O4   26  -0.061   0.246   0.172
    1UNL     O5   27   0.159   0.271   0.163
    1UNL    C21   28  -0.225   0.001  -0.206
    1UNL    C22   29  -0.097  -0.070  -0.214
    1UNL     O6   30  -0.041  -0.078  -0.318
    1UNL    C23   31  -0.179   0.021   0.050
    1UNL     H1   32   0.347  -0.003  -0.341
    1UNL     H2   33   0.370  -0.183  -0.318
    1UNL     H3   34   0.212  -0.088  -0.347
    1UNL     H4   35   0.417   0.056  -0.029
    1UNL     H5   36   0.376   0.138   0.124
    1UNL     H6   37   0.544   0.113   0.081
    1UNL     H7   38   0.376  -0.237   0.318
    1UNL     H8   39   0.143  -0.278   0.393
    1UNL     H9   40  -0.043  -0.190   0.274
    1UNL    H10   41   0.042  -0.178  -0.103
    1UNL    H11   42  -0.127  -0.294   0.050
    1UNL    H12   43  -0.222  -0.252  -0.100
    1UNL    H13   44  -0.393  -0.058   0.196
    1UNL    H14   45  -0.429  -0.199   0.107
    1UNL    H15   46  -0.564   0.028   0.032
    1UNL    H16   47  -0.489  -0.072  -0.105
    1UNL    H17   48  -0.389   0.199   0.022
    1UNL    H18   49  -0.433   0.167  -0.132
    1UNL    H19   50  -0.200   0.277  -0.195
    1UNL    H20   51  -0.171   0.294  -0.031
    1UNL    H21   52   0.014   0.141  -0.213
    1UNL    H22   53   0.047   0.290  -0.133
    1UNL    H23   54   0.143   0.329   0.238
    1UNL    H24   55  -0.309  -0.065  -0.210
    1UNL    H25   56  -0.235   0.057  -0.293
    1UNL    H26   57  -0.186   0.071   0.148
   0.00000   0.00000   0.00000   0.00000   0.00000   0.00000   0.00000   0.00000   0.00000
