Generated with MDTraj, t= 0.0
 131
    1UNL     C1    1  -0.615   0.369   0.088
    1UNL     C2    2  -0.593   0.271   0.196
    1UNL     C3    3  -0.643   0.149   0.197
    1UNL     C4    4  -0.726   0.092   0.085
    1UNL     O1    5  -0.652  -0.005   0.015
    1UNL     C5    6  -0.731  -0.054  -0.090
    1UNL     O2    7  -0.778   0.049  -0.176
    1UNL     C6    8  -0.863   0.002  -0.283
    1UNL     C7    9  -0.916   0.121  -0.363
    1UNL     O3   10  -1.007   0.083  -0.463
    1UNL     C8   11  -0.787  -0.099  -0.374
    1UNL     O4   12  -0.871  -0.155  -0.474
    1UNL     C9   13  -0.726  -0.214  -0.290
    1UNL     O5   14  -0.827  -0.305  -0.251
    1UNL    C10   15  -0.646  -0.157  -0.170
    1UNL     O6   16  -0.527  -0.093  -0.211
    1UNL     O7   17  -0.852   0.041   0.132
    1UNL    C11   18  -0.839  -0.034   0.245
    1UNL    C12   19  -0.733  -0.039   0.329
    1UNL    C13   20  -0.733  -0.130   0.442
    1UNL     O8   21  -0.635  -0.138   0.514
    1UNL     O9   22  -0.847  -0.204   0.462
    1UNL    C14   23  -0.831  -0.286   0.574
    1UNL    C15   24  -0.614   0.050   0.307
    1UNL    C16   25  -0.488  -0.033   0.277
    1UNL    C17   26  -0.364   0.051   0.265
    1UNL    O10   27  -0.353   0.155   0.325
    1UNL    O11   28  -0.266  -0.002   0.185
    1UNL    C18   29  -0.151   0.079   0.192
    1UNL    C19   30  -0.032   0.015   0.120
    1UNL    C20   31   0.098   0.083   0.161
    1UNL    C21   32  -0.050   0.017  -0.033
    1UNL    C22   33  -0.190  -0.026  -0.081
    1UNL    C23   34  -0.174  -0.076  -0.226
    1UNL    O12   35  -0.257  -0.188  -0.255
    1UNL    C24   36  -0.024  -0.114  -0.245
    1UNL    C25   37   0.039  -0.049  -0.369
    1UNL    C26   38   0.050  -0.074  -0.113
    1UNL    C27   39   0.098  -0.199  -0.038
    1UNL    O13   40   0.205  -0.171   0.049
    1UNL    C28   41   0.319  -0.155  -0.024
    1UNL    O14   42   0.323  -0.160  -0.145
    1UNL    C29   43   0.445  -0.130   0.052
    1UNL    C30   44   0.475   0.018   0.078
    1UNL    C31   45   0.490   0.097  -0.049
    1UNL    C32   46   0.375   0.160  -0.112
    1UNL    O15   47   0.264   0.152  -0.061
    1UNL    O16   48   0.400   0.230  -0.227
    1UNL    C33   49   0.283   0.288  -0.274
    1UNL    C34   50   0.615   0.117  -0.098
    1UNL    O17   51   0.734   0.077  -0.046
    1UNL    C35   52   0.730   0.014   0.084
    1UNL    O18   53   0.841   0.044   0.167
    1UNL    C36   54   0.964   0.002   0.109
    1UNL    O19   55   0.947  -0.086  -0.004
    1UNL    C37   56   1.064  -0.104  -0.087
    1UNL    C38   57   1.042  -0.028  -0.218
    1UNL    O20   58   0.910  -0.042  -0.261
    1UNL    C39   59   1.195  -0.068  -0.012
    1UNL    O21   60   1.210  -0.148   0.103
    1UNL    C40   61   1.194   0.082   0.032
    1UNL    O22   62   1.285   0.101   0.138
    1UNL    C41   63   1.050   0.126   0.072
    1UNL    O23   64   0.988   0.199  -0.032
    1UNL    C42   65   0.600   0.035   0.159
    1UNL    C43   66   0.601   0.067   0.287
    1UNL    C44   67   0.479   0.092   0.368
    1UNL     H1   68  -0.564   0.463   0.107
    1UNL     H2   69  -0.579   0.331  -0.007
    1UNL     H3   70  -0.721   0.392   0.077
    1UNL     H4   71  -0.529   0.300   0.278
    1UNL     H5   72  -0.751   0.170   0.012
    1UNL     H6   73  -0.819  -0.102  -0.045
    1UNL     H7   74  -0.948  -0.050  -0.236
    1UNL     H8   75  -0.833   0.175  -0.410
    1UNL     H9   76  -0.967   0.192  -0.297
    1UNL    H10   77  -0.976  -0.002  -0.500
    1UNL    H11   78  -0.707  -0.044  -0.426
    1UNL    H12   79  -0.909  -0.238  -0.439
    1UNL    H13   80  -0.657  -0.271  -0.354
    1UNL    H14   81  -0.886  -0.264  -0.184
    1UNL    H15   82  -0.617  -0.239  -0.103
    1UNL    H16   83  -0.514  -0.016  -0.151
    1UNL    H17   84  -0.925  -0.095   0.268
    1UNL    H18   85  -0.922  -0.343   0.590
    1UNL    H19   86  -0.810  -0.222   0.661
    1UNL    H20   87  -0.746  -0.353   0.557
    1UNL    H21   88  -0.596   0.106   0.400
    1UNL    H22   89  -0.474  -0.107   0.356
    1UNL    H23   90  -0.503  -0.088   0.184
    1UNL    H24   91  -0.176   0.177   0.150
    1UNL    H25   92  -0.130   0.094   0.299
    1UNL    H26   93  -0.029  -0.090   0.153
    1UNL    H27   94   0.097   0.188   0.134
    1UNL    H28   95   0.117   0.075   0.268
    1UNL    H29   96   0.182   0.038   0.108
    1UNL    H30   97  -0.034   0.121  -0.065
    1UNL    H31   98  -0.263   0.055  -0.074
    1UNL    H32   99  -0.228  -0.108  -0.019
    1UNL    H33  100  -0.199   0.004  -0.298
    1UNL    H34  101  -0.352  -0.162  -0.242
    1UNL    H35  102  -0.020  -0.223  -0.256
    1UNL    H36  103  -0.013  -0.080  -0.460
    1UNL    H37  104   0.144  -0.076  -0.378
    1UNL    H38  105   0.033   0.059  -0.362
    1UNL    H39  106   0.140  -0.015  -0.139
    1UNL    H40  107   0.017  -0.245   0.019
    1UNL    H41  108   0.135  -0.274  -0.108
    1UNL    H42  109   0.528  -0.174  -0.005
    1UNL    H43  110   0.441  -0.184   0.147
    1UNL    H44  111   0.390   0.062   0.133
    1UNL    H45  112   0.211   0.210  -0.296
    1UNL    H46  113   0.305   0.346  -0.364
    1UNL    H47  114   0.243   0.354  -0.197
    1UNL    H48  115   0.624   0.174  -0.190
    1UNL    H49  116   0.740  -0.094   0.063
    1UNL    H50  117   1.016  -0.057   0.184
    1UNL    H51  118   1.063  -0.212  -0.109
    1UNL    H52  119   1.109  -0.063  -0.297
    1UNL    H53  120   1.062   0.079  -0.204
    1UNL    H54  121   0.850  -0.013  -0.187
    1UNL    H55  122   1.282  -0.086  -0.077
    1UNL    H56  123   1.198  -0.243   0.081
    1UNL    H57  124   1.229   0.147  -0.050
    1UNL    H58  125   1.281   0.022   0.197
    1UNL    H59  126   1.056   0.194   0.158
    1UNL    H60  127   0.894   0.168  -0.038
    1UNL    H61  128   0.697   0.079   0.335
    1UNL    H62  129   0.426   0.180   0.332
    1UNL    H63  130   0.411   0.007   0.363
    1UNL    H64  131   0.503   0.109   0.473
   0.00000   0.00000   0.00000   0.00000   0.00000   0.00000   0.00000   0.00000   0.00000
Generated with MDTraj, t= 1.0
 131
    1UNL     C1    1  -0.603   0.374   0.102
    1UNL     C2    2  -0.583   0.269   0.201
    1UNL     C3    3  -0.637   0.149   0.202
    1UNL     C4    4  -0.728   0.083   0.093
    1UNL     O1    5  -0.656  -0.016   0.022
    1UNL     C5    6  -0.733  -0.050  -0.087
    1UNL     O2    7  -0.764   0.052  -0.182
    1UNL     C6    8  -0.864   0.008  -0.281
    1UNL     C7    9  -0.902   0.138  -0.370
    1UNL     O3   10  -0.989   0.109  -0.481
    1UNL     C8   11  -0.802  -0.103  -0.375
    1UNL     O4   12  -0.901  -0.160  -0.471
    1UNL     C9   13  -0.742  -0.217  -0.284
    1UNL     O5   14  -0.850  -0.293  -0.240
    1UNL    C10   15  -0.659  -0.163  -0.164
    1UNL     O6   16  -0.535  -0.108  -0.213
    1UNL     O7   17  -0.847   0.047   0.145
    1UNL    C11   18  -0.831  -0.047   0.241
    1UNL    C12   19  -0.723  -0.044   0.329
    1UNL    C13   20  -0.723  -0.144   0.441
    1UNL     O8   21  -0.623  -0.163   0.508
    1UNL     O9   22  -0.843  -0.195   0.459
    1UNL    C14   23  -0.839  -0.283   0.569
    1UNL    C15   24  -0.610   0.052   0.316
    1UNL    C16   25  -0.478  -0.022   0.288
    1UNL    C17   26  -0.357   0.060   0.281
    1UNL    O10   27  -0.332   0.162   0.342
    1UNL    O11   28  -0.274   0.005   0.192
    1UNL    C18   29  -0.151   0.092   0.183
    1UNL    C19   30  -0.030   0.022   0.113
    1UNL    C20   31   0.096   0.100   0.133
    1UNL    C21   32  -0.056   0.012  -0.042
    1UNL    C22   33  -0.192  -0.047  -0.083
    1UNL    C23   34  -0.190  -0.092  -0.232
    1UNL    O12   35  -0.267  -0.202  -0.275
    1UNL    C24   36  -0.040  -0.116  -0.259
    1UNL    C25   37   0.031  -0.056  -0.386
    1UNL    C26   38   0.037  -0.077  -0.124
    1UNL    C27   39   0.093  -0.208  -0.046
    1UNL    O13   40   0.201  -0.176   0.047
    1UNL    C28   41   0.309  -0.155  -0.025
    1UNL    O14   42   0.313  -0.154  -0.146
    1UNL    C29   43   0.438  -0.131   0.053
    1UNL    C30   44   0.476   0.016   0.074
    1UNL    C31   45   0.492   0.092  -0.060
    1UNL    C32   46   0.376   0.156  -0.128
    1UNL    O15   47   0.259   0.148  -0.093
    1UNL    O16   48   0.410   0.235  -0.236
    1UNL    C33   49   0.294   0.281  -0.305
    1UNL    C34   50   0.622   0.122  -0.092
    1UNL    O17   51   0.741   0.081  -0.039
    1UNL    C35   52   0.735   0.022   0.092
    1UNL    O18   53   0.845   0.048   0.180
    1UNL    C36   54   0.971   0.004   0.133
    1UNL    O19   55   0.951  -0.082   0.021
    1UNL    C37   56   1.063  -0.106  -0.069
    1UNL    C38   57   1.042  -0.040  -0.213
    1UNL    O20   58   0.912  -0.050  -0.253
    1UNL    C39   59   1.197  -0.061  -0.010
    1UNL    O21   60   1.220  -0.123   0.112
    1UNL    C40   61   1.192   0.098   0.028
    1UNL    O22   62   1.309   0.122   0.110
    1UNL    C41   63   1.055   0.139   0.090
    1UNL    O23   64   0.972   0.212   0.002
    1UNL    C42   65   0.596   0.032   0.159
    1UNL    C43   66   0.601   0.049   0.289
    1UNL    C44   67   0.488   0.045   0.380
    1UNL     H1   68  -0.693   0.363   0.040
    1UNL     H2   69  -0.619   0.472   0.150
    1UNL     H3   70  -0.523   0.389   0.034
    1UNL     H4   71  -0.511   0.284   0.282
    1UNL     H5   72  -0.726   0.156   0.012
    1UNL     H6   73  -0.830  -0.083  -0.050
    1UNL     H7   74  -0.957  -0.020  -0.228
    1UNL     H8   75  -0.815   0.173  -0.420
    1UNL     H9   76  -0.937   0.222  -0.315
    1UNL    H10   77  -0.979   0.020  -0.526
    1UNL    H11   78  -0.719  -0.047  -0.426
    1UNL    H12   79  -0.930  -0.242  -0.422
    1UNL    H13   80  -0.684  -0.277  -0.350
    1UNL    H14   81  -0.907  -0.232  -0.195
    1UNL    H15   82  -0.646  -0.249  -0.097
    1UNL    H16   83  -0.554  -0.020  -0.252
    1UNL    H17   84  -0.917  -0.108   0.275
    1UNL    H18   85  -0.910  -0.364   0.555
    1UNL    H19   86  -0.821  -0.224   0.658
    1UNL    H20   87  -0.757  -0.353   0.567
    1UNL    H21   88  -0.577   0.101   0.410
    1UNL    H22   89  -0.464  -0.109   0.357
    1UNL    H23   90  -0.498  -0.073   0.198
    1UNL    H24   91  -0.177   0.189   0.139
    1UNL    H25   92  -0.132   0.125   0.285
    1UNL    H26   93  -0.016  -0.080   0.146
    1UNL    H27   94   0.074   0.212   0.120
    1UNL    H28   95   0.138   0.089   0.230
    1UNL    H29   96   0.165   0.068   0.063
    1UNL    H30   97  -0.070   0.110  -0.091
    1UNL    H31   98  -0.265   0.030  -0.078
    1UNL    H32   99  -0.239  -0.139  -0.033
    1UNL    H33  100  -0.232  -0.008  -0.294
    1UNL    H34  101  -0.360  -0.167  -0.263
    1UNL    H35  102  -0.031  -0.224  -0.271
    1UNL    H36  103  -0.027  -0.075  -0.471
    1UNL    H37  104   0.130  -0.097  -0.399
    1UNL    H38  105   0.030   0.055  -0.374
    1UNL    H39  106   0.130  -0.024  -0.139
    1UNL    H40  107   0.020  -0.265   0.007
    1UNL    H41  108   0.130  -0.267  -0.132
    1UNL    H42  109   0.518  -0.195   0.019
    1UNL    H43  110   0.420  -0.168   0.154
    1UNL    H44  111   0.385   0.056   0.119
    1UNL    H45  112   0.330   0.357  -0.371
    1UNL    H46  113   0.223   0.322  -0.235
    1UNL    H47  114   0.251   0.206  -0.369
    1UNL    H48  115   0.626   0.172  -0.182
    1UNL    H49  116   0.743  -0.081   0.065
    1UNL    H50  117   1.026  -0.052   0.211
    1UNL    H51  118   1.065  -0.213  -0.083
    1UNL    H52  119   1.104  -0.103  -0.278
    1UNL    H53  120   1.067   0.069  -0.212
    1UNL    H54  121   0.864  -0.020  -0.173
    1UNL    H55  122   1.281  -0.080  -0.076
    1UNL    H56  123   1.144  -0.179   0.130
    1UNL    H57  124   1.211   0.147  -0.070
    1UNL    H58  125   1.343   0.034   0.140
    1UNL    H59  126   1.061   0.198   0.180
    1UNL    H60  127   0.885   0.170  -0.016
    1UNL    H61  128   0.698   0.066   0.330
    1UNL    H62  129   0.398   0.006   0.333
    1UNL    H63  130   0.517  -0.011   0.471
    1UNL    H64  131   0.444   0.135   0.426
   0.00000   0.00000   0.00000   0.00000   0.00000   0.00000   0.00000   0.00000   0.00000
Generated with MDTraj, t= 2.0
 131
    1UNL     C1    1  -0.589   0.364   0.101
    1UNL     C2    2  -0.561   0.270   0.209
    1UNL     C3    3  -0.626   0.151   0.213
    1UNL     C4    4  -0.709   0.088   0.089
    1UNL     O1    5  -0.642  -0.014   0.019
    1UNL     C5    6  -0.725  -0.052  -0.084
    1UNL     O2    7  -0.759   0.056  -0.181
    1UNL     C6    8  -0.857   0.027  -0.286
    1UNL     C7    9  -0.870   0.147  -0.381
    1UNL     O3   10  -0.980   0.131  -0.470
    1UNL     C8   11  -0.812  -0.100  -0.358
    1UNL     O4   12  -0.910  -0.153  -0.459
    1UNL     C9   13  -0.772  -0.220  -0.269
    1UNL     O5   14  -0.882  -0.294  -0.215
    1UNL    C10   15  -0.666  -0.165  -0.172
    1UNL     O6   16  -0.543  -0.115  -0.237
    1UNL     O7   17  -0.840   0.054   0.136
    1UNL    C11   18  -0.837  -0.029   0.252
    1UNL    C12   19  -0.726  -0.048   0.330
    1UNL    C13   20  -0.734  -0.144   0.442
    1UNL     O8   21  -0.631  -0.162   0.505
    1UNL     O9   22  -0.846  -0.212   0.468
    1UNL    C14   23  -0.815  -0.302   0.575
    1UNL    C15   24  -0.612   0.047   0.317
    1UNL    C16   25  -0.491  -0.036   0.277
    1UNL    C17   26  -0.359   0.047   0.268
    1UNL    O10   27  -0.350   0.145   0.341
    1UNL    O11   28  -0.268   0.002   0.169
    1UNL    C18   29  -0.153   0.096   0.166
    1UNL    C19   30  -0.036   0.020   0.106
    1UNL    C20   31   0.092   0.088   0.147
    1UNL    C21   32  -0.066   0.010  -0.051
    1UNL    C22   33  -0.208  -0.030  -0.096
    1UNL    C23   34  -0.189  -0.093  -0.234
    1UNL    O12   35  -0.271  -0.206  -0.238
    1UNL    C24   36  -0.036  -0.131  -0.255
    1UNL    C25   37   0.015  -0.065  -0.384
    1UNL    C26   38   0.032  -0.070  -0.129
    1UNL    C27   39   0.093  -0.193  -0.047
    1UNL    O13   40   0.200  -0.154   0.036
    1UNL    C28   41   0.323  -0.148  -0.037
    1UNL    O14   42   0.319  -0.165  -0.158
    1UNL    C29   43   0.441  -0.124   0.042
    1UNL    C30   44   0.474   0.021   0.065
    1UNL    C31   45   0.500   0.101  -0.063
    1UNL    C32   46   0.386   0.147  -0.132
    1UNL    O15   47   0.268   0.150  -0.097
    1UNL    O16   48   0.428   0.207  -0.253
    1UNL    C33   49   0.321   0.271  -0.321
    1UNL    C34   50   0.626   0.122  -0.098
    1UNL    O17   51   0.737   0.078  -0.036
    1UNL    C35   52   0.730   0.020   0.096
    1UNL    O18   53   0.842   0.062   0.176
    1UNL    C36   54   0.970   0.019   0.132
    1UNL    O19   55   0.958  -0.084   0.032
    1UNL    C37   56   1.067  -0.095  -0.057
    1UNL    C38   57   1.033  -0.041  -0.201
    1UNL    O20   58   0.903  -0.071  -0.237
    1UNL    C39   59   1.200  -0.044  -0.005
    1UNL    O21   60   1.240  -0.126   0.105
    1UNL    C40   61   1.190   0.111   0.040
    1UNL    O22   62   1.294   0.140   0.132
    1UNL    C41   63   1.048   0.149   0.087
    1UNL    O23   64   0.975   0.232  -0.001
    1UNL    C42   65   0.596   0.029   0.161
    1UNL    C43   66   0.588   0.015   0.293
    1UNL    C44   67   0.462   0.022   0.368
    1UNL     H1   68  -0.517   0.449   0.109
    1UNL     H2   69  -0.567   0.310   0.006
    1UNL     H3   70  -0.692   0.390   0.117
    1UNL     H4   71  -0.496   0.304   0.287
    1UNL     H5   72  -0.714   0.169   0.017
    1UNL     H6   73  -0.820  -0.082  -0.041
    1UNL     H7   74  -0.949  -0.005  -0.234
    1UNL     H8   75  -0.775   0.162  -0.425
    1UNL     H9   76  -0.891   0.230  -0.319
    1UNL    H10   77  -0.978   0.043  -0.506
    1UNL    H11   78  -0.723  -0.070  -0.423
    1UNL    H12   79  -0.957  -0.227  -0.417
    1UNL    H13   80  -0.724  -0.290  -0.333
    1UNL    H14   81  -0.934  -0.246  -0.152
    1UNL    H15   82  -0.627  -0.245  -0.105
    1UNL    H16   83  -0.564  -0.019  -0.244
    1UNL    H17   84  -0.930  -0.087   0.252
    1UNL    H18   85  -0.904  -0.346   0.619
    1UNL    H19   86  -0.757  -0.250   0.647
    1UNL    H20   87  -0.751  -0.381   0.544
    1UNL    H21   88  -0.590   0.092   0.417
    1UNL    H22   89  -0.483  -0.115   0.359
    1UNL    H23   90  -0.500  -0.095   0.190
    1UNL    H24   91  -0.188   0.188   0.118
    1UNL    H25   92  -0.142   0.134   0.267
    1UNL    H26   93  -0.027  -0.084   0.136
    1UNL    H27   94   0.120   0.181   0.088
    1UNL    H28   95   0.096   0.121   0.247
    1UNL    H29   96   0.176   0.021   0.143
    1UNL    H30   97  -0.048   0.114  -0.087
    1UNL    H31   98  -0.293   0.032  -0.079
    1UNL    H32   99  -0.220  -0.128  -0.035
    1UNL    H33  100  -0.224  -0.010  -0.304
    1UNL    H34  101  -0.367  -0.187  -0.263
    1UNL    H35  102  -0.024  -0.239  -0.268
    1UNL    H36  103  -0.040  -0.100  -0.467
    1UNL    H37  104   0.116  -0.087  -0.410
    1UNL    H38  105  -0.004   0.046  -0.390
    1UNL    H39  106   0.114  -0.007  -0.155
    1UNL    H40  107   0.006  -0.227   0.003
    1UNL    H41  108   0.137  -0.269  -0.116
    1UNL    H42  109   0.526  -0.172  -0.003
    1UNL    H43  110   0.429  -0.181   0.136
    1UNL    H44  111   0.391   0.069   0.114
    1UNL    H45  112   0.232   0.258  -0.261
    1UNL    H46  113   0.312   0.207  -0.411
    1UNL    H47  114   0.330   0.374  -0.353
    1UNL    H48  115   0.644   0.192  -0.183
    1UNL    H49  116   0.743  -0.084   0.079
    1UNL    H50  117   1.035  -0.028   0.211
    1UNL    H51  118   1.079  -0.198  -0.070
    1UNL    H52  119   1.104  -0.081  -0.274
    1UNL    H53  120   1.046   0.069  -0.174
    1UNL    H54  121   0.841  -0.032  -0.173
    1UNL    H55  122   1.282  -0.045  -0.073
    1UNL    H56  123   1.155  -0.150   0.145
    1UNL    H57  124   1.214   0.179  -0.047
    1UNL    H58  125   1.341   0.056   0.156
    1UNL    H59  126   1.062   0.227   0.158
    1UNL    H60  127   0.892   0.175  -0.028
    1UNL    H61  128   0.677   0.020   0.362
    1UNL    H62  129   0.440  -0.080   0.406
    1UNL    H63  130   0.467   0.093   0.453
    1UNL    H64  131   0.364   0.039   0.322
   0.00000   0.00000   0.00000   0.00000   0.00000   0.00000   0.00000   0.00000   0.00000
Generated with MDTraj, t= 3.0
 131
    1UNL     C1    1  -0.579   0.362   0.094
    1UNL     C2    2  -0.568   0.258   0.202
    1UNL     C3    3  -0.639   0.147   0.208
    1UNL     C4    4  -0.717   0.089   0.091
    1UNL     O1    5  -0.648  -0.009   0.024
    1UNL     C5    6  -0.716  -0.046  -0.085
    1UNL     O2    7  -0.738   0.062  -0.180
    1UNL     C6    8  -0.847   0.044  -0.281
    1UNL     C7    9  -0.870   0.156  -0.379
    1UNL     O3   10  -0.976   0.137  -0.468
    1UNL     C8   11  -0.825  -0.097  -0.353
    1UNL     O4   12  -0.942  -0.141  -0.424
    1UNL     C9   13  -0.780  -0.213  -0.263
    1UNL     O5   14  -0.896  -0.269  -0.203
    1UNL    C10   15  -0.667  -0.165  -0.166
    1UNL     O6   16  -0.539  -0.133  -0.217
    1UNL     O7   17  -0.848   0.041   0.131
    1UNL    C11   18  -0.831  -0.038   0.244
    1UNL    C12   19  -0.728  -0.039   0.335
    1UNL    C13   20  -0.734  -0.138   0.441
    1UNL     O8   21  -0.629  -0.150   0.505
    1UNL     O9   22  -0.844  -0.214   0.449
    1UNL    C14   23  -0.823  -0.300   0.556
    1UNL    C15   24  -0.602   0.044   0.314
    1UNL    C16   25  -0.480  -0.044   0.269
    1UNL    C17   26  -0.349   0.029   0.267
    1UNL    O10   27  -0.328   0.116   0.346
    1UNL    O11   28  -0.267   0.000   0.167
    1UNL    C18   29  -0.148   0.083   0.183
    1UNL    C19   30  -0.031   0.030   0.097
    1UNL    C20   31   0.090   0.120   0.125
    1UNL    C21   32  -0.052   0.022  -0.060
    1UNL    C22   33  -0.196  -0.015  -0.095
    1UNL    C23   34  -0.197  -0.096  -0.221
    1UNL    O12   35  -0.271  -0.213  -0.224
    1UNL    C24   36  -0.041  -0.128  -0.255
    1UNL    C25   37   0.009  -0.070  -0.389
    1UNL    C26   38   0.042  -0.077  -0.135
    1UNL    C27   39   0.089  -0.210  -0.047
    1UNL    O13   40   0.206  -0.168   0.031
    1UNL    C28   41   0.311  -0.163  -0.049
    1UNL    O14   42   0.315  -0.172  -0.169
    1UNL    C29   43   0.448  -0.137   0.027
    1UNL    C30   44   0.468   0.009   0.060
    1UNL    C31   45   0.504   0.096  -0.065
    1UNL    C32   46   0.396   0.156  -0.136
    1UNL    O15   47   0.288   0.162  -0.083
    1UNL    O16   48   0.423   0.199  -0.257
    1UNL    C33   49   0.311   0.243  -0.324
    1UNL    C34   50   0.629   0.103  -0.107
    1UNL    O17   51   0.742   0.063  -0.050
    1UNL    C35   52   0.731   0.022   0.086
    1UNL    O18   53   0.826   0.070   0.174
    1UNL    C36   54   0.960   0.031   0.133
    1UNL    O19   55   0.966  -0.079   0.036
    1UNL    C37   56   1.073  -0.084  -0.050
    1UNL    C38   57   1.028  -0.027  -0.187
    1UNL    O20   58   0.897  -0.069  -0.220
    1UNL    C39   59   1.203  -0.027   0.004
    1UNL    O21   60   1.261  -0.121   0.102
    1UNL    C40   61   1.188   0.122   0.066
    1UNL    O22   62   1.270   0.157   0.177
    1UNL    C41   63   1.042   0.155   0.079
    1UNL    O23   64   0.985   0.216  -0.030
    1UNL    C42   65   0.588   0.025   0.151
    1UNL    C43   66   0.579   0.021   0.284
    1UNL    C44   67   0.446   0.016   0.357
    1UNL     H1   68  -0.586   0.302  -0.001
    1UNL     H2   69  -0.673   0.417   0.110
    1UNL     H3   70  -0.492   0.426   0.103
    1UNL     H4   71  -0.501   0.274   0.287
    1UNL     H5   72  -0.752   0.171   0.028
    1UNL     H6   73  -0.816  -0.082  -0.050
    1UNL     H7   74  -0.937   0.039  -0.215
    1UNL     H8   75  -0.781   0.165  -0.436
    1UNL     H9   76  -0.880   0.246  -0.323
    1UNL    H10   77  -0.973   0.035  -0.483
    1UNL    H11   78  -0.744  -0.068  -0.426
    1UNL    H12   79  -0.925  -0.224  -0.468
    1UNL    H13   80  -0.729  -0.297  -0.309
    1UNL    H14   81  -0.971  -0.267  -0.270
    1UNL    H15   82  -0.635  -0.253  -0.105
    1UNL    H16   83  -0.546  -0.037  -0.231
    1UNL    H17   84  -0.913  -0.109   0.251
    1UNL    H18   85  -0.920  -0.351   0.587
    1UNL    H19   86  -0.808  -0.247   0.650
    1UNL    H20   87  -0.725  -0.351   0.539
    1UNL    H21   88  -0.585   0.085   0.418
    1UNL    H22   89  -0.454  -0.138   0.327
    1UNL    H23   90  -0.497  -0.078   0.172
    1UNL    H24   91  -0.170   0.187   0.161
    1UNL    H25   92  -0.124   0.088   0.289
    1UNL    H26   93  -0.006  -0.071   0.124
    1UNL    H27   94   0.070   0.226   0.146
    1UNL    H28   95   0.146   0.085   0.207
    1UNL    H29   96   0.165   0.116   0.042
    1UNL    H30   97  -0.025   0.130  -0.081
    1UNL    H31   98  -0.257   0.073  -0.103
    1UNL    H32   99  -0.235  -0.084  -0.014
    1UNL    H33  100  -0.234  -0.027  -0.306
    1UNL    H34  101  -0.366  -0.210  -0.247
    1UNL    H35  102  -0.037  -0.236  -0.266
    1UNL    H36  103  -0.016  -0.110  -0.487
    1UNL    H37  104   0.115  -0.092  -0.387
    1UNL    H38  105   0.004   0.039  -0.407
    1UNL    H39  106   0.131  -0.023  -0.158
    1UNL    H40  107   0.020  -0.224   0.031
    1UNL    H41  108   0.105  -0.300  -0.113
    1UNL    H42  109   0.523  -0.169  -0.041
    1UNL    H43  110   0.470  -0.205   0.112
    1UNL    H44  111   0.383   0.058   0.107
    1UNL    H45  112   0.331   0.228  -0.431
    1UNL    H46  113   0.305   0.357  -0.306
    1UNL    H47  114   0.217   0.197  -0.285
    1UNL    H48  115   0.647   0.148  -0.209
    1UNL    H49  116   0.762  -0.078   0.083
    1UNL    H50  117   1.008  -0.009   0.228
    1UNL    H51  118   1.079  -0.184  -0.075
    1UNL    H52  119   1.094  -0.071  -0.260
    1UNL    H53  120   1.033   0.088  -0.179
    1UNL    H54  121   0.837  -0.040  -0.146
    1UNL    H55  122   1.281  -0.024  -0.071
    1UNL    H56  123   1.184  -0.153   0.157
    1UNL    H57  124   1.234   0.187  -0.015
    1UNL    H58  125   1.298   0.084   0.236
    1UNL    H59  126   1.025   0.233   0.147
    1UNL    H60  127   0.887   0.205  -0.016
    1UNL    H61  128   0.660   0.053   0.340
    1UNL    H62  129   0.480  -0.041   0.447
    1UNL    H63  130   0.412   0.117   0.386
    1UNL    H64  131   0.370  -0.048   0.313
   0.00000   0.00000   0.00000   0.00000   0.00000   0.00000   0.00000   0.00000   0.00000
Generated with MDTraj, t= 4.0
 131
    1UNL     C1    1  -0.554   0.371   0.119
    1UNL     C2    2  -0.543   0.256   0.215
    1UNL     C3    3  -0.607   0.142   0.200
    1UNL     C4    4  -0.704   0.094   0.093
    1UNL     O1    5  -0.648  -0.018   0.018
    1UNL     C5    6  -0.732  -0.042  -0.084
    1UNL     O2    7  -0.751   0.062  -0.185
    1UNL     C6    8  -0.861   0.034  -0.276
    1UNL     C7    9  -0.874   0.150  -0.372
    1UNL     O3   10  -0.980   0.151  -0.463
    1UNL     C8   11  -0.829  -0.099  -0.360
    1UNL     O4   12  -0.933  -0.141  -0.448
    1UNL     C9   13  -0.787  -0.215  -0.263
    1UNL     O5   14  -0.904  -0.259  -0.199
    1UNL    C10   15  -0.677  -0.167  -0.164
    1UNL     O6   16  -0.562  -0.132  -0.239
    1UNL     O7   17  -0.836   0.057   0.144
    1UNL    C11   18  -0.827  -0.029   0.250
    1UNL    C12   19  -0.716  -0.043   0.334
    1UNL    C13   20  -0.721  -0.144   0.436
    1UNL     O8   21  -0.629  -0.156   0.517
    1UNL     O9   22  -0.838  -0.220   0.433
    1UNL    C14   23  -0.839  -0.296   0.545
    1UNL    C15   24  -0.590   0.039   0.310
    1UNL    C16   25  -0.469  -0.054   0.284
    1UNL    C17   26  -0.343   0.033   0.276
    1UNL    O10   27  -0.335   0.130   0.347
    1UNL    O11   28  -0.251  -0.007   0.181
    1UNL    C18   29  -0.152   0.091   0.176
    1UNL    C19   30  -0.030   0.037   0.103
    1UNL    C20   31   0.109   0.105   0.130
    1UNL    C21   32  -0.058   0.014  -0.054
    1UNL    C22   33  -0.201  -0.044  -0.082
    1UNL    C23   34  -0.192  -0.100  -0.226
    1UNL    O12   35  -0.262  -0.219  -0.233
    1UNL    C24   36  -0.035  -0.128  -0.252
    1UNL    C25   37   0.008  -0.054  -0.382
    1UNL    C26   38   0.040  -0.078  -0.130
    1UNL    C27   39   0.080  -0.197  -0.044
    1UNL    O13   40   0.203  -0.166   0.031
    1UNL    C28   41   0.314  -0.160  -0.049
    1UNL    O14   42   0.310  -0.168  -0.169
    1UNL    C29   43   0.447  -0.138   0.016
    1UNL    C30   44   0.465   0.003   0.053
    1UNL    C31   45   0.494   0.087  -0.073
    1UNL    C32   46   0.380   0.142  -0.146
    1UNL    O15   47   0.268   0.138  -0.100
    1UNL    O16   48   0.411   0.197  -0.269
    1UNL    C33   49   0.301   0.254  -0.332
    1UNL    C34   50   0.622   0.108  -0.117
    1UNL    O17   51   0.735   0.060  -0.054
    1UNL    C35   52   0.723   0.002   0.079
    1UNL    O18   53   0.815   0.060   0.163
    1UNL    C36   54   0.950   0.032   0.130
    1UNL    O19   55   0.964  -0.068   0.027
    1UNL    C37   56   1.093  -0.077  -0.042
    1UNL    C38   57   1.069  -0.023  -0.195
    1UNL    O20   58   0.945  -0.081  -0.244
    1UNL    C39   59   1.208  -0.012   0.028
    1UNL    O21   60   1.259  -0.103   0.129
    1UNL    C40   61   1.177   0.132   0.087
    1UNL    O22   62   1.236   0.164   0.206
    1UNL    C41   63   1.028   0.159   0.085
    1UNL    O23   64   0.983   0.194  -0.040
    1UNL    C42   65   0.591   0.010   0.150
    1UNL    C43   66   0.579   0.027   0.280
    1UNL    C44   67   0.452   0.034   0.355
    1UNL     H1   68  -0.657   0.398   0.101
    1UNL     H2   69  -0.509   0.472   0.140
    1UNL     H3   70  -0.505   0.355   0.022
    1UNL     H4   71  -0.483   0.261   0.303
    1UNL     H5   72  -0.719   0.158   0.003
    1UNL     H6   73  -0.826  -0.064  -0.027
    1UNL     H7   74  -0.963   0.028  -0.234
    1UNL     H8   75  -0.786   0.155  -0.435
    1UNL     H9   76  -0.878   0.248  -0.325
    1UNL    H10   77  -1.006   0.062  -0.478
    1UNL    H11   78  -0.747  -0.073  -0.431
    1UNL    H12   79  -0.953  -0.233  -0.425
    1UNL    H13   80  -0.759  -0.305  -0.321
    1UNL    H14   81  -0.955  -0.173  -0.198
    1UNL    H15   82  -0.648  -0.247  -0.094
    1UNL    H16   83  -0.550  -0.034  -0.220
    1UNL    H17   84  -0.918  -0.072   0.292
    1UNL    H18   85  -0.937  -0.359   0.543
    1UNL    H19   86  -0.855  -0.240   0.639
    1UNL    H20   87  -0.740  -0.347   0.554
    1UNL    H21   88  -0.569   0.104   0.401
    1UNL    H22   89  -0.454  -0.137   0.357
    1UNL    H23   90  -0.482  -0.107   0.192
    1UNL    H24   91  -0.188   0.179   0.123
    1UNL    H25   92  -0.121   0.119   0.277
    1UNL    H26   93  -0.032  -0.062   0.150
    1UNL    H27   94   0.127   0.186   0.065
    1UNL    H28   95   0.112   0.125   0.238
    1UNL    H29   96   0.179   0.019   0.115
    1UNL    H30   97  -0.052   0.117  -0.100
    1UNL    H31   98  -0.285   0.028  -0.055
    1UNL    H32   99  -0.224  -0.135  -0.026
    1UNL    H33  100  -0.238  -0.016  -0.295
    1UNL    H34  101  -0.359  -0.207  -0.266
    1UNL    H35  102  -0.011  -0.235  -0.260
    1UNL    H36  103  -0.060  -0.086  -0.464
    1UNL    H37  104   0.106  -0.087  -0.412
    1UNL    H38  105   0.003   0.052  -0.388
    1UNL    H39  106   0.129  -0.028  -0.160
    1UNL    H40  107   0.003  -0.225   0.022
    1UNL    H41  108   0.113  -0.287  -0.102
    1UNL    H42  109   0.521  -0.177  -0.051
    1UNL    H43  110   0.457  -0.211   0.099
    1UNL    H44  111   0.379   0.047   0.100
    1UNL    H45  112   0.272   0.343  -0.278
    1UNL    H46  113   0.218   0.175  -0.317
    1UNL    H47  114   0.320   0.275  -0.442
    1UNL    H48  115   0.637   0.154  -0.208
    1UNL    H49  116   0.747  -0.098   0.073
    1UNL    H50  117   1.003   0.001   0.224
    1UNL    H51  118   1.100  -0.181  -0.054
    1UNL    H52  119   1.150  -0.058  -0.254
    1UNL    H53  120   1.045   0.090  -0.204
    1UNL    H54  121   0.882  -0.042  -0.179
    1UNL    H55  122   1.299  -0.012  -0.035
    1UNL    H56  123   1.222  -0.083   0.220
    1UNL    H57  124   1.231   0.203   0.019
    1UNL    H58  125   1.321   0.119   0.230
    1UNL    H59  126   1.009   0.246   0.142
    1UNL    H60  127   0.888   0.181  -0.042
    1UNL    H61  128   0.678   0.053   0.333
    1UNL    H62  129   0.491   0.063   0.457
    1UNL    H63  130   0.378   0.107   0.317
    1UNL    H64  131   0.413  -0.067   0.374
   0.00000   0.00000   0.00000   0.00000   0.00000   0.00000   0.00000   0.00000   0.00000
Generated with MDTraj, t= 5.0
 131
    1UNL     C1    1  -0.539   0.384   0.106
    1UNL     C2    2  -0.544   0.267   0.207
    1UNL     C3    3  -0.606   0.147   0.202
    1UNL     C4    4  -0.689   0.102   0.090
    1UNL     O1    5  -0.635  -0.006   0.011
    1UNL     C5    6  -0.722  -0.035  -0.091
    1UNL     O2    7  -0.753   0.066  -0.181
    1UNL     C6    8  -0.861   0.035  -0.269
    1UNL     C7    9  -0.890   0.162  -0.359
    1UNL     O3   10  -0.986   0.133  -0.458
    1UNL     C8   11  -0.821  -0.087  -0.358
    1UNL     O4   12  -0.919  -0.130  -0.445
    1UNL     C9   13  -0.792  -0.206  -0.265
    1UNL     O5   14  -0.907  -0.258  -0.204
    1UNL    C10   15  -0.687  -0.165  -0.165
    1UNL     O6   16  -0.563  -0.142  -0.225
    1UNL     O7   17  -0.824   0.073   0.137
    1UNL    C11   18  -0.821  -0.021   0.238
    1UNL    C12   19  -0.717  -0.052   0.316
    1UNL    C13   20  -0.733  -0.150   0.428
    1UNL     O8   21  -0.633  -0.172   0.502
    1UNL     O9   22  -0.856  -0.222   0.445
    1UNL    C14   23  -0.834  -0.311   0.544
    1UNL    C15   24  -0.599   0.047   0.318
    1UNL    C16   25  -0.469  -0.037   0.323
    1UNL    C17   26  -0.339   0.037   0.292
    1UNL    O10   27  -0.318   0.129   0.366
    1UNL    O11   28  -0.253  -0.001   0.186
    1UNL    C18   29  -0.142   0.072   0.194
    1UNL    C19   30  -0.024   0.011   0.105
    1UNL    C20   31   0.105   0.094   0.131
    1UNL    C21   32  -0.061   0.001  -0.042
    1UNL    C22   33  -0.204  -0.046  -0.074
    1UNL    C23   34  -0.204  -0.089  -0.227
    1UNL    O12   35  -0.283  -0.206  -0.248
    1UNL    C24   36  -0.054  -0.125  -0.258
    1UNL    C25   37   0.007  -0.046  -0.381
    1UNL    C26   38   0.030  -0.090  -0.128
    1UNL    C27   39   0.075  -0.217  -0.058
    1UNL    O13   40   0.189  -0.192   0.025
    1UNL    C28   41   0.311  -0.182  -0.047
    1UNL    O14   42   0.316  -0.186  -0.167
    1UNL    C29   43   0.431  -0.154   0.028
    1UNL    C30   44   0.467  -0.008   0.042
    1UNL    C31   45   0.487   0.075  -0.085
    1UNL    C32   46   0.378   0.136  -0.160
    1UNL    O15   47   0.268   0.122  -0.113
    1UNL    O16   48   0.408   0.215  -0.272
    1UNL    C33   49   0.289   0.261  -0.334
    1UNL    C34   50   0.617   0.092  -0.128
    1UNL    O17   51   0.738   0.055  -0.064
    1UNL    C35   52   0.726   0.003   0.067
    1UNL    O18   53   0.819   0.054   0.159
    1UNL    C36   54   0.957   0.034   0.127
    1UNL    O19   55   0.986  -0.076   0.036
    1UNL    C37   56   1.110  -0.077  -0.029
    1UNL    C38   57   1.103  -0.034  -0.184
    1UNL    O20   58   0.977  -0.057  -0.236
    1UNL    C39   59   1.224  -0.007   0.039
    1UNL    O21   60   1.256  -0.083   0.161
    1UNL    C40   61   1.177   0.145   0.082
    1UNL    O22   62   1.222   0.170   0.210
    1UNL    C41   63   1.020   0.167   0.081
    1UNL    O23   64   0.965   0.213  -0.042
    1UNL    C42   65   0.587   0.007   0.134
    1UNL    C43   66   0.577   0.038   0.258
    1UNL    C44   67   0.446   0.061   0.327
    1UNL     H1   68  -0.572   0.473   0.156
    1UNL     H2   69  -0.439   0.410   0.060
    1UNL     H3   70  -0.590   0.366   0.009
    1UNL     H4   71  -0.474   0.292   0.287
    1UNL     H5   72  -0.689   0.193   0.023
    1UNL     H6   73  -0.815  -0.044  -0.029
    1UNL     H7   74  -0.943  -0.007  -0.209
    1UNL     H8   75  -0.797   0.204  -0.403
    1UNL     H9   76  -0.932   0.242  -0.294
    1UNL    H10   77  -0.983   0.032  -0.472
    1UNL    H11   78  -0.722  -0.075  -0.403
    1UNL    H12   79  -0.956  -0.214  -0.401
    1UNL    H13   80  -0.758  -0.296  -0.327
    1UNL    H14   81  -0.912  -0.354  -0.203
    1UNL    H15   82  -0.663  -0.248  -0.097
    1UNL    H16   83  -0.541  -0.048  -0.220
    1UNL    H17   84  -0.911  -0.078   0.254
    1UNL    H18   85  -0.929  -0.375   0.550
    1UNL    H19   86  -0.803  -0.261   0.637
    1UNL    H20   87  -0.760  -0.388   0.511
    1UNL    H21   88  -0.610   0.120   0.404
    1UNL    H22   89  -0.469  -0.093   0.418
    1UNL    H23   90  -0.470  -0.120   0.249
    1UNL    H24   91  -0.155   0.176   0.168
    1UNL    H25   92  -0.106   0.058   0.299
    1UNL    H26   93  -0.026  -0.091   0.143
    1UNL    H27   94   0.078   0.192   0.110
    1UNL    H28   95   0.126   0.071   0.241
    1UNL    H29   96   0.180   0.051   0.067
    1UNL    H30   97  -0.057   0.106  -0.087
    1UNL    H31   98  -0.278   0.045  -0.071
    1UNL    H32   99  -0.247  -0.123  -0.011
    1UNL    H33  100  -0.253  -0.006  -0.296
    1UNL    H34  101  -0.371  -0.175  -0.258
    1UNL    H35  102  -0.039  -0.232  -0.277
    1UNL    H36  103  -0.059  -0.062  -0.471
    1UNL    H37  104   0.104  -0.093  -0.398
    1UNL    H38  105   0.017   0.056  -0.365
    1UNL    H39  106   0.113  -0.038  -0.166
    1UNL    H40  107  -0.004  -0.265  -0.007
    1UNL    H41  108   0.123  -0.298  -0.118
    1UNL    H42  109   0.515  -0.207  -0.012
    1UNL    H43  110   0.417  -0.210   0.124
    1UNL    H44  111   0.381   0.035   0.086
    1UNL    H45  112   0.228   0.180  -0.364
    1UNL    H46  113   0.323   0.326  -0.417
    1UNL    H47  114   0.243   0.329  -0.257
    1UNL    H48  115   0.634   0.159  -0.210
    1UNL    H49  116   0.753  -0.095   0.058
    1UNL    H50  117   1.002   0.008   0.225
    1UNL    H51  118   1.125  -0.182  -0.027
    1UNL    H52  119   1.164  -0.093  -0.246
    1UNL    H53  120   1.125   0.079  -0.176
    1UNL    H54  121   0.909  -0.023  -0.171
    1UNL    H55  122   1.312  -0.019  -0.033
    1UNL    H56  123   1.167  -0.111   0.194
    1UNL    H57  124   1.230   0.213   0.015
    1UNL    H58  125   1.244   0.088   0.262
    1UNL    H59  126   0.986   0.248   0.144
    1UNL    H60  127   0.864   0.188  -0.041
    1UNL    H61  128   0.669   0.059   0.297
    1UNL    H62  129   0.471   0.031   0.431
    1UNL    H63  130   0.403   0.162   0.323
    1UNL    H64  131   0.365  -0.010   0.300
   0.00000   0.00000   0.00000   0.00000   0.00000   0.00000   0.00000   0.00000   0.00000
Generated with MDTraj, t= 6.0
 131
    1UNL     C1    1  -0.521   0.360   0.080
    1UNL     C2    2  -0.542   0.275   0.205
    1UNL     C3    3  -0.602   0.153   0.190
    1UNL     C4    4  -0.702   0.114   0.090
    1UNL     O1    5  -0.648   0.004   0.033
    1UNL     C5    6  -0.731  -0.041  -0.073
    1UNL     O2    7  -0.761   0.070  -0.163
    1UNL     C6    8  -0.850   0.044  -0.272
    1UNL     C7    9  -0.883   0.165  -0.362
    1UNL     O3   10  -1.001   0.133  -0.432
    1UNL     C8   11  -0.814  -0.086  -0.360
    1UNL     O4   12  -0.928  -0.132  -0.436
    1UNL     C9   13  -0.773  -0.202  -0.265
    1UNL     O5   14  -0.892  -0.262  -0.205
    1UNL    C10   15  -0.665  -0.159  -0.162
    1UNL     O6   16  -0.544  -0.110  -0.225
    1UNL     O7   17  -0.835   0.083   0.149
    1UNL    C11   18  -0.821  -0.006   0.249
    1UNL    C12   19  -0.716  -0.037   0.324
    1UNL    C13   20  -0.729  -0.145   0.428
    1UNL     O8   21  -0.629  -0.181   0.493
    1UNL     O9   22  -0.853  -0.207   0.432
    1UNL    C14   23  -0.845  -0.312   0.518
    1UNL    C15   24  -0.587   0.041   0.305
    1UNL    C16   25  -0.466  -0.053   0.294
    1UNL    C17   26  -0.343   0.027   0.294
    1UNL    O10   27  -0.330   0.120   0.370
    1UNL    O11   28  -0.251  -0.014   0.205
    1UNL    C18   29  -0.138   0.065   0.202
    1UNL    C19   30  -0.025  -0.005   0.112
    1UNL    C20   31   0.113   0.048   0.152
    1UNL    C21   32  -0.062   0.004  -0.035
    1UNL    C22   33  -0.201  -0.041  -0.076
    1UNL    C23   34  -0.207  -0.098  -0.228
    1UNL    O12   35  -0.290  -0.218  -0.242
    1UNL    C24   36  -0.061  -0.122  -0.262
    1UNL    C25   37  -0.005  -0.037  -0.382
    1UNL    C26   38   0.028  -0.089  -0.130
    1UNL    C27   39   0.074  -0.210  -0.058
    1UNL    O13   40   0.193  -0.189   0.018
    1UNL    C28   41   0.298  -0.191  -0.064
    1UNL    O14   42   0.299  -0.206  -0.184
    1UNL    C29   43   0.433  -0.171   0.004
    1UNL    C30   44   0.466  -0.022   0.030
    1UNL    C31   45   0.492   0.055  -0.097
    1UNL    C32   46   0.382   0.125  -0.167
    1UNL    O15   47   0.270   0.116  -0.119
    1UNL    O16   48   0.416   0.190  -0.280
    1UNL    C33   49   0.304   0.276  -0.325
    1UNL    C34   50   0.621   0.074  -0.131
    1UNL    O17   51   0.741   0.035  -0.072
    1UNL    C35   52   0.726  -0.003   0.066
    1UNL    O18   53   0.821   0.058   0.161
    1UNL    C36   54   0.961   0.041   0.135
    1UNL    O19   55   0.980  -0.067   0.033
    1UNL    C37   56   1.108  -0.068  -0.029
    1UNL    C38   57   1.095  -0.016  -0.178
    1UNL    O20   58   0.974  -0.055  -0.235
    1UNL    C39   59   1.216   0.001   0.058
    1UNL    O21   60   1.206  -0.058   0.186
    1UNL    C40   61   1.181   0.151   0.084
    1UNL    O22   62   1.253   0.194   0.195
    1UNL    C41   63   1.025   0.171   0.091
    1UNL    O23   64   0.964   0.213  -0.027
    1UNL    C42   65   0.587   0.009   0.125
    1UNL    C43   66   0.572   0.061   0.247
    1UNL    C44   67   0.438   0.073   0.323
    1UNL     H1   68  -0.494   0.458   0.117
    1UNL     H2   69  -0.446   0.319   0.008
    1UNL     H3   70  -0.611   0.356   0.016
    1UNL     H4   71  -0.478   0.307   0.286
    1UNL     H5   72  -0.714   0.205   0.025
    1UNL     H6   73  -0.820  -0.071  -0.014
    1UNL     H7   74  -0.937   0.019  -0.213
    1UNL     H8   75  -0.799   0.199  -0.431
    1UNL     H9   76  -0.902   0.253  -0.292
    1UNL    H10   77  -1.006   0.036  -0.436
    1UNL    H11   78  -0.743  -0.047  -0.431
    1UNL    H12   79  -0.962  -0.214  -0.401
    1UNL    H13   80  -0.745  -0.290  -0.333
    1UNL    H14   81  -0.872  -0.273  -0.112
    1UNL    H15   82  -0.625  -0.248  -0.111
    1UNL    H16   83  -0.539  -0.013  -0.214
    1UNL    H17   84  -0.907  -0.067   0.275
    1UNL    H18   85  -0.946  -0.357   0.518
    1UNL    H19   86  -0.800  -0.285   0.612
    1UNL    H20   87  -0.805  -0.405   0.475
    1UNL    H21   88  -0.591   0.106   0.396
    1UNL    H22   89  -0.470  -0.139   0.360
    1UNL    H23   90  -0.475  -0.095   0.188
    1UNL    H24   91  -0.158   0.161   0.159
    1UNL    H25   92  -0.084   0.078   0.301
    1UNL    H26   93  -0.026  -0.108   0.147
    1UNL    H27   94   0.118   0.153   0.147
    1UNL    H28   95   0.144   0.007   0.254
    1UNL    H29   96   0.187   0.005   0.090
    1UNL    H30   97  -0.043   0.115  -0.059
    1UNL    H31   98  -0.270   0.054  -0.071
    1UNL    H32   99  -0.234  -0.111  -0.002
    1UNL    H33  100  -0.246  -0.025  -0.313
    1UNL    H34  101  -0.391  -0.198  -0.236
    1UNL    H35  102  -0.054  -0.229  -0.287
    1UNL    H36  103  -0.040  -0.077  -0.480
    1UNL    H37  104   0.103  -0.061  -0.378
    1UNL    H38  105  -0.016   0.069  -0.375
    1UNL    H39  106   0.114  -0.035  -0.162
    1UNL    H40  107   0.016  -0.274   0.007
    1UNL    H41  108   0.105  -0.285  -0.134
    1UNL    H42  109   0.519  -0.220  -0.037
    1UNL    H43  110   0.449  -0.208   0.107
    1UNL    H44  111   0.373   0.010   0.068
    1UNL    H45  112   0.345   0.354  -0.379
    1UNL    H46  113   0.248   0.317  -0.244
    1UNL    H47  114   0.247   0.208  -0.392
    1UNL    H48  115   0.644   0.116  -0.235
    1UNL    H49  116   0.748  -0.103   0.073
    1UNL    H50  117   1.011   0.017   0.229
    1UNL    H51  118   1.136  -0.174  -0.023
    1UNL    H52  119   1.181  -0.046  -0.229
    1UNL    H53  120   1.087   0.097  -0.170
    1UNL    H54  121   0.899  -0.024  -0.179
    1UNL    H55  122   1.321   0.004   0.016
    1UNL    H56  123   1.250  -0.144   0.193
    1UNL    H57  124   1.229   0.216   0.012
    1UNL    H58  125   1.242   0.127   0.266
    1UNL    H59  126   1.007   0.253   0.164
    1UNL    H60  127   0.878   0.176  -0.040
    1UNL    H61  128   0.665   0.083   0.309
    1UNL    H62  129   0.452   0.105   0.428
    1UNL    H63  130   0.359   0.129   0.269
    1UNL    H64  131   0.401  -0.033   0.333
   0.00000   0.00000   0.00000   0.00000   0.00000   0.00000   0.00000   0.00000   0.00000
Generated with MDTraj, t= 7.0
 131
    1UNL     C1    1  -0.508   0.355   0.093
    1UNL     C2    2  -0.530   0.254   0.203
    1UNL     C3    3  -0.608   0.149   0.207
    1UNL     C4    4  -0.707   0.117   0.098
    1UNL     O1    5  -0.641   0.013   0.023
    1UNL     C5    6  -0.725  -0.032  -0.085
    1UNL     O2    7  -0.775   0.073  -0.159
    1UNL     C6    8  -0.877   0.035  -0.249
    1UNL     C7    9  -0.905   0.161  -0.335
    1UNL     O3   10  -1.003   0.137  -0.432
    1UNL     C8   11  -0.821  -0.080  -0.347
    1UNL     O4   12  -0.922  -0.127  -0.437
    1UNL     C9   13  -0.758  -0.196  -0.264
    1UNL     O5   14  -0.867  -0.256  -0.199
    1UNL    C10   15  -0.659  -0.143  -0.166
    1UNL     O6   16  -0.544  -0.107  -0.226
    1UNL     O7   17  -0.838   0.087   0.143
    1UNL    C11   18  -0.838   0.008   0.249
    1UNL    C12   19  -0.727  -0.028   0.327
    1UNL    C13   20  -0.737  -0.140   0.418
    1UNL     O8   21  -0.636  -0.167   0.485
    1UNL     O9   22  -0.864  -0.199   0.422
    1UNL    C14   23  -0.845  -0.306   0.512
    1UNL    C15   24  -0.598   0.050   0.320
    1UNL    C16   25  -0.479  -0.053   0.298
    1UNL    C17   26  -0.346   0.011   0.281
    1UNL    O10   27  -0.326   0.111   0.350
    1UNL    O11   28  -0.252  -0.032   0.182
    1UNL    C18   29  -0.130   0.036   0.199
    1UNL    C19   30  -0.016  -0.020   0.117
    1UNL    C20   31   0.108   0.054   0.161
    1UNL    C21   32  -0.050  -0.005  -0.036
    1UNL    C22   33  -0.195  -0.041  -0.066
    1UNL    C23   34  -0.191  -0.090  -0.216
    1UNL    O12   35  -0.284  -0.201  -0.223
    1UNL    C24   36  -0.047  -0.126  -0.260
    1UNL    C25   37  -0.006  -0.033  -0.374
    1UNL    C26   38   0.042  -0.099  -0.133
    1UNL    C27   39   0.097  -0.224  -0.071
    1UNL    O13   40   0.209  -0.206   0.009
    1UNL    C28   41   0.326  -0.194  -0.067
    1UNL    O14   42   0.325  -0.207  -0.190
    1UNL    C29   43   0.445  -0.169   0.008
    1UNL    C30   44   0.475  -0.017   0.029
    1UNL    C31   45   0.501   0.058  -0.103
    1UNL    C32   46   0.388   0.125  -0.168
    1UNL    O15   47   0.276   0.121  -0.119
    1UNL    O16   48   0.430   0.191  -0.275
    1UNL    C33   49   0.319   0.247  -0.342
    1UNL    C34   50   0.629   0.075  -0.140
    1UNL    O17   51   0.739   0.028  -0.070
    1UNL    C35   52   0.722  -0.009   0.070
    1UNL    O18   53   0.806   0.065   0.159
    1UNL    C36   54   0.943   0.040   0.133
    1UNL    O19   55   0.961  -0.061   0.026
    1UNL    C37   56   1.090  -0.069  -0.025
    1UNL    C38   57   1.092  -0.017  -0.169
    1UNL    O20   58   0.980  -0.065  -0.241
    1UNL    C39   59   1.198   0.005   0.065
    1UNL    O21   60   1.204  -0.050   0.195
    1UNL    C40   61   1.163   0.158   0.077
    1UNL    O22   62   1.246   0.214   0.173
    1UNL    C41   63   1.007   0.174   0.097
    1UNL    O23   64   0.945   0.227  -0.017
    1UNL    C42   65   0.584   0.004   0.127
    1UNL    C43   66   0.561   0.031   0.254
    1UNL    C44   67   0.425   0.072   0.313
    1UNL     H1   68  -0.407   0.393   0.097
    1UNL     H2   69  -0.535   0.336  -0.013
    1UNL     H3   70  -0.575   0.444   0.102
    1UNL     H4   71  -0.468   0.273   0.291
    1UNL     H5   72  -0.706   0.195   0.017
    1UNL     H6   73  -0.799  -0.084  -0.024
    1UNL     H7   74  -0.961   0.001  -0.193
    1UNL     H8   75  -0.805   0.186  -0.382
    1UNL     H9   76  -0.940   0.257  -0.281
    1UNL    H10   77  -0.987   0.050  -0.469
    1UNL    H11   78  -0.746  -0.035  -0.410
    1UNL    H12   79  -0.956  -0.209  -0.392
    1UNL    H13   80  -0.709  -0.274  -0.332
    1UNL    H14   81  -0.827  -0.326  -0.136
    1UNL    H15   82  -0.621  -0.223  -0.101
    1UNL    H16   83  -0.561  -0.014  -0.259
    1UNL    H17   84  -0.937  -0.017   0.292
    1UNL    H18   85  -0.929  -0.371   0.511
    1UNL    H19   86  -0.827  -0.277   0.612
    1UNL    H20   87  -0.758  -0.364   0.486
    1UNL    H21   88  -0.598   0.116   0.410
    1UNL    H22   89  -0.477  -0.113   0.387
    1UNL    H23   90  -0.504  -0.133   0.218
    1UNL    H24   91  -0.138   0.142   0.176
    1UNL    H25   92  -0.107   0.030   0.313
    1UNL    H26   93   0.001  -0.124   0.144
    1UNL    H27   94   0.118   0.147   0.105
    1UNL    H28   95   0.134   0.071   0.267
    1UNL    H29   96   0.196  -0.003   0.134
    1UNL    H30   97  -0.022   0.104  -0.059
    1UNL    H31   98  -0.265   0.042  -0.026
    1UNL    H32   99  -0.206  -0.127   0.002
    1UNL    H33  100  -0.218  -0.004  -0.290
    1UNL    H34  101  -0.373  -0.173  -0.237
    1UNL    H35  102  -0.053  -0.228  -0.300
    1UNL    H36  103  -0.073  -0.063  -0.454
    1UNL    H37  104   0.096  -0.044  -0.414
    1UNL    H38  105  -0.021   0.076  -0.361
    1UNL    H39  106   0.127  -0.042  -0.159
    1UNL    H40  107   0.028  -0.296  -0.027
    1UNL    H41  108   0.146  -0.287  -0.149
    1UNL    H42  109   0.531  -0.205  -0.047
    1UNL    H43  110   0.465  -0.223   0.102
    1UNL    H44  111   0.383   0.014   0.078
    1UNL    H45  112   0.244   0.256  -0.266
    1UNL    H46  113   0.292   0.178  -0.419
    1UNL    H47  114   0.341   0.353  -0.374
    1UNL    H48  115   0.655   0.137  -0.225
    1UNL    H49  116   0.760  -0.105   0.082
    1UNL    H50  117   0.987   0.010   0.226
    1UNL    H51  118   1.123  -0.175  -0.020
    1UNL    H52  119   1.174  -0.062  -0.214
    1UNL    H53  120   1.098   0.095  -0.181
    1UNL    H54  121   0.899  -0.034  -0.194
    1UNL    H55  122   1.287  -0.005  -0.002
    1UNL    H56  123   1.168  -0.139   0.195
    1UNL    H57  124   1.184   0.212  -0.015
    1UNL    H58  125   1.239   0.151   0.249
    1UNL    H59  126   0.984   0.247   0.181
    1UNL    H60  127   0.861   0.182  -0.024
    1UNL    H61  128   0.644   0.028   0.315
    1UNL    H62  129   0.429   0.088   0.422
    1UNL    H63  130   0.373   0.158   0.262
    1UNL    H64  131   0.357  -0.016   0.305
   0.00000   0.00000   0.00000   0.00000   0.00000   0.00000   0.00000   0.00000   0.00000
Generated with MDTraj, t= 8.0
 131
    1UNL     C1    1  -0.521   0.365   0.114
    1UNL     C2    2  -0.516   0.261   0.220
    1UNL     C3    3  -0.591   0.154   0.207
    1UNL     C4    4  -0.690   0.120   0.092
    1UNL     O1    5  -0.626   0.023   0.019
    1UNL     C5    6  -0.729  -0.016  -0.077
    1UNL     O2    7  -0.772   0.083  -0.170
    1UNL     C6    8  -0.881   0.033  -0.251
    1UNL     C7    9  -0.929   0.152  -0.329
    1UNL     O3   10  -1.018   0.123  -0.428
    1UNL     C8   11  -0.829  -0.071  -0.351
    1UNL     O4   12  -0.929  -0.121  -0.433
    1UNL     C9   13  -0.765  -0.188  -0.272
    1UNL     O5   14  -0.869  -0.262  -0.214
    1UNL    C10   15  -0.665  -0.136  -0.161
    1UNL     O6   16  -0.548  -0.084  -0.230
    1UNL     O7   17  -0.823   0.086   0.136
    1UNL    C11   18  -0.826  -0.006   0.240
    1UNL    C12   19  -0.721  -0.035   0.320
    1UNL    C13   20  -0.742  -0.135   0.422
    1UNL     O8   21  -0.655  -0.158   0.507
    1UNL     O9   22  -0.858  -0.201   0.412
    1UNL    C14   23  -0.862  -0.289   0.520
    1UNL    C15   24  -0.591   0.041   0.312
    1UNL    C16   25  -0.468  -0.059   0.281
    1UNL    C17   26  -0.337   0.012   0.292
    1UNL    O10   27  -0.323   0.114   0.357
    1UNL    O11   28  -0.246  -0.041   0.215
    1UNL    C18   29  -0.120   0.031   0.221
    1UNL    C19   30  -0.027  -0.032   0.118
    1UNL    C20   31   0.120   0.007   0.141
    1UNL    C21   32  -0.053  -0.007  -0.034
    1UNL    C22   33  -0.193  -0.059  -0.080
    1UNL    C23   34  -0.189  -0.090  -0.229
    1UNL    O12   35  -0.271  -0.206  -0.258
    1UNL    C24   36  -0.044  -0.124  -0.263
    1UNL    C25   37   0.018  -0.039  -0.375
    1UNL    C26   38   0.047  -0.093  -0.132
    1UNL    C27   39   0.104  -0.230  -0.071
    1UNL    O13   40   0.209  -0.208   0.010
    1UNL    C28   41   0.320  -0.197  -0.066
    1UNL    O14   42   0.313  -0.200  -0.186
    1UNL    C29   43   0.446  -0.161  -0.005
    1UNL    C30   44   0.461  -0.007   0.033
    1UNL    C31   45   0.494   0.072  -0.086
    1UNL    C32   46   0.388   0.124  -0.167
    1UNL    O15   47   0.275   0.112  -0.128
    1UNL    O16   48   0.432   0.179  -0.284
    1UNL    C33   49   0.320   0.232  -0.353
    1UNL    C34   50   0.627   0.086  -0.126
    1UNL    O17   51   0.738   0.041  -0.059
    1UNL    C35   52   0.714   0.001   0.080
    1UNL    O18   53   0.805   0.060   0.169
    1UNL    C36   54   0.939   0.042   0.128
    1UNL    O19   55   0.967  -0.071   0.045
    1UNL    C37   56   1.095  -0.067  -0.025
    1UNL    C38   57   1.075  -0.015  -0.169
    1UNL    O20   58   0.954  -0.076  -0.216
    1UNL    C39   59   1.209   0.020   0.053
    1UNL    O21   60   1.243  -0.037   0.179
    1UNL    C40   61   1.167   0.165   0.070
    1UNL    O22   62   1.225   0.231   0.185
    1UNL    C41   63   1.004   0.177   0.079
    1UNL    O23   64   0.955   0.216  -0.046
    1UNL    C42   65   0.575   0.019   0.133
    1UNL    C43   66   0.551   0.029   0.261
    1UNL    C44   67   0.429   0.040   0.333
    1UNL     H1   68  -0.446   0.445   0.120
    1UNL     H2   69  -0.527   0.336   0.010
    1UNL     H3   70  -0.616   0.424   0.121
    1UNL     H4   71  -0.455   0.278   0.307
    1UNL     H5   72  -0.693   0.204   0.018
    1UNL     H6   73  -0.811  -0.059  -0.018
    1UNL     H7   74  -0.962  -0.011  -0.198
    1UNL     H8   75  -0.849   0.207  -0.385
    1UNL     H9   76  -0.975   0.224  -0.256
    1UNL    H10   77  -0.997   0.030  -0.466
    1UNL    H11   78  -0.746  -0.041  -0.413
    1UNL    H12   79  -0.974  -0.182  -0.373
    1UNL    H13   80  -0.720  -0.258  -0.347
    1UNL    H14   81  -0.844  -0.356  -0.189
    1UNL    H15   82  -0.635  -0.233  -0.116
    1UNL    H16   83  -0.571   0.007  -0.249
    1UNL    H17   84  -0.922  -0.054   0.252
    1UNL    H18   85  -0.968  -0.315   0.523
    1UNL    H19   86  -0.853  -0.251   0.620
    1UNL    H20   87  -0.777  -0.361   0.519
    1UNL    H21   88  -0.561   0.085   0.409
    1UNL    H22   89  -0.469  -0.142   0.349
    1UNL    H23   90  -0.472  -0.112   0.178
    1UNL    H24   91  -0.151   0.132   0.196
    1UNL    H25   92  -0.091   0.035   0.332
    1UNL    H26   93  -0.041  -0.139   0.138
    1UNL    H27   94   0.110   0.119   0.149
    1UNL    H28   95   0.167  -0.039   0.223
    1UNL    H29   96   0.186  -0.017   0.054
    1UNL    H30   97  -0.064   0.103  -0.065
    1UNL    H31   98  -0.266   0.026  -0.068
    1UNL    H32   99  -0.227  -0.143  -0.012
    1UNL    H33  100  -0.226   0.002  -0.289
    1UNL    H34  101  -0.369  -0.179  -0.232
    1UNL    H35  102  -0.054  -0.227  -0.299
    1UNL    H36  103  -0.036  -0.046  -0.466
    1UNL    H37  104   0.123  -0.061  -0.399
    1UNL    H38  105   0.020   0.072  -0.351
    1UNL    H39  106   0.128  -0.032  -0.160
    1UNL    H40  107   0.032  -0.278  -0.003
    1UNL    H41  108   0.124  -0.305  -0.150
    1UNL    H42  109   0.542  -0.178  -0.055
    1UNL    H43  110   0.463  -0.230   0.079
    1UNL    H44  111   0.370   0.029   0.089
    1UNL    H45  112   0.319   0.171  -0.448
    1UNL    H46  113   0.338   0.336  -0.372
    1UNL    H47  114   0.223   0.225  -0.291
    1UNL    H48  115   0.641   0.145  -0.209
    1UNL    H49  116   0.735  -0.103   0.081
    1UNL    H50  117   0.993   0.025   0.219
    1UNL    H51  118   1.138  -0.173  -0.011
    1UNL    H52  119   1.143  -0.027  -0.247
    1UNL    H53  120   1.059   0.096  -0.159
    1UNL    H54  121   0.875  -0.058  -0.162
    1UNL    H55  122   1.299   0.011  -0.007
    1UNL    H56  123   1.216  -0.130   0.192
    1UNL    H57  124   1.198   0.233  -0.010
    1UNL    H58  125   1.244   0.161   0.249
    1UNL    H59  126   0.983   0.258   0.160
    1UNL    H60  127   0.859   0.174  -0.047
    1UNL    H61  128   0.647   0.031   0.319
    1UNL    H62  129   0.450   0.062   0.440
    1UNL    H63  130   0.351   0.110   0.290
    1UNL    H64  131   0.385  -0.062   0.339
   0.00000   0.00000   0.00000   0.00000   0.00000   0.00000   0.00000   0.00000   0.00000
Generated with MDTraj, t= 9.0
 131
    1UNL     C1    1  -0.530   0.387   0.138
    1UNL     C2    2  -0.533   0.268   0.232
    1UNL     C3    3  -0.599   0.154   0.212
    1UNL     C4    4  -0.678   0.114   0.085
    1UNL     O1    5  -0.624   0.010   0.012
    1UNL     C5    6  -0.710  -0.030  -0.100
    1UNL     O2    7  -0.754   0.075  -0.176
    1UNL     C6    8  -0.868   0.038  -0.271
    1UNL     C7    9  -0.929   0.161  -0.345
    1UNL     O3   10  -1.057   0.128  -0.394
    1UNL     C8   11  -0.828  -0.080  -0.367
    1UNL     O4   12  -0.941  -0.124  -0.445
    1UNL     C9   13  -0.765  -0.190  -0.278
    1UNL     O5   14  -0.866  -0.264  -0.204
    1UNL    C10   15  -0.657  -0.130  -0.188
    1UNL     O6   16  -0.543  -0.063  -0.252
    1UNL     O7   17  -0.810   0.086   0.125
    1UNL    C11   18  -0.811   0.002   0.236
    1UNL    C12   19  -0.717  -0.025   0.328
    1UNL    C13   20  -0.749  -0.128   0.427
    1UNL     O8   21  -0.658  -0.159   0.505
    1UNL     O9   22  -0.868  -0.192   0.426
    1UNL    C14   23  -0.867  -0.282   0.539
    1UNL    C15   24  -0.590   0.050   0.320
    1UNL    C16   25  -0.474  -0.056   0.297
    1UNL    C17   26  -0.339   0.010   0.288
    1UNL    O10   27  -0.307   0.103   0.362
    1UNL    O11   28  -0.266  -0.050   0.191
    1UNL    C18   29  -0.135   0.011   0.196
    1UNL    C19   30  -0.024  -0.043   0.118
    1UNL    C20   31   0.108   0.018   0.163
    1UNL    C21   32  -0.048  -0.031  -0.031
    1UNL    C22   33  -0.193  -0.071  -0.071
    1UNL    C23   34  -0.184  -0.087  -0.223
    1UNL    O12   35  -0.285  -0.180  -0.275
    1UNL    C24   36  -0.033  -0.121  -0.262
    1UNL    C25   37   0.017  -0.048  -0.389
    1UNL    C26   38   0.055  -0.104  -0.134
    1UNL    C27   39   0.100  -0.239  -0.090
    1UNL    O13   40   0.208  -0.239   0.007
    1UNL    C28   41   0.316  -0.191  -0.058
    1UNL    O14   42   0.320  -0.177  -0.179
    1UNL    C29   43   0.447  -0.164   0.013
    1UNL    C30   44   0.464  -0.016   0.045
    1UNL    C31   45   0.487   0.058  -0.085
    1UNL    C32   46   0.382   0.121  -0.165
    1UNL    O15   47   0.270   0.119  -0.120
    1UNL    O16   48   0.423   0.168  -0.283
    1UNL    C33   49   0.312   0.218  -0.350
    1UNL    C34   50   0.618   0.084  -0.121
    1UNL    O17   51   0.734   0.048  -0.058
    1UNL    C35   52   0.724   0.006   0.083
    1UNL    O18   53   0.809   0.081   0.165
    1UNL    C36   54   0.946   0.060   0.132
    1UNL    O19   55   0.972  -0.054   0.047
    1UNL    C37   56   1.096  -0.060  -0.028
    1UNL    C38   57   1.067  -0.028  -0.166
    1UNL    O20   58   0.941  -0.086  -0.203
    1UNL    C39   59   1.213   0.033   0.045
    1UNL    O21   60   1.247  -0.030   0.170
    1UNL    C40   61   1.170   0.177   0.065
    1UNL    O22   62   1.222   0.228   0.186
    1UNL    C41   63   1.016   0.192   0.074
    1UNL    O23   64   0.967   0.215  -0.056
    1UNL    C42   65   0.582   0.006   0.144
    1UNL    C43   66   0.567   0.018   0.273
    1UNL    C44   67   0.443   0.013   0.348
    1UNL     H1   68  -0.525   0.473   0.210
    1UNL     H2   69  -0.450   0.387   0.066
    1UNL     H3   70  -0.629   0.390   0.088
    1UNL     H4   71  -0.479   0.286   0.324
    1UNL     H5   72  -0.676   0.206   0.026
    1UNL     H6   73  -0.800  -0.062  -0.045
    1UNL     H7   74  -0.951   0.008  -0.213
    1UNL     H8   75  -0.858   0.196  -0.421
    1UNL     H9   76  -0.949   0.248  -0.278
    1UNL    H10   77  -1.041   0.060  -0.459
    1UNL    H11   78  -0.759  -0.039  -0.444
    1UNL    H12   79  -1.002  -0.172  -0.386
    1UNL    H13   80  -0.714  -0.261  -0.342
    1UNL    H14   81  -0.840  -0.275  -0.112
    1UNL    H15   82  -0.602  -0.202  -0.122
    1UNL    H16   83  -0.570   0.030  -0.272
    1UNL    H17   84  -0.889  -0.070   0.226
    1UNL    H18   85  -0.961  -0.342   0.546
    1UNL    H19   86  -0.867  -0.234   0.637
    1UNL    H20   87  -0.772  -0.344   0.545
    1UNL    H21   88  -0.565   0.090   0.419
    1UNL    H22   89  -0.469  -0.145   0.360
    1UNL    H23   90  -0.487  -0.099   0.193
    1UNL    H24   91  -0.160   0.116   0.180
    1UNL    H25   92  -0.121   0.008   0.307
    1UNL    H26   93  -0.021  -0.151   0.136
    1UNL    H27   94   0.100   0.125   0.124
    1UNL    H28   95   0.111   0.022   0.267
    1UNL    H29   96   0.202  -0.029   0.126
    1UNL    H30   97  -0.057   0.078  -0.067
    1UNL    H31   98  -0.279  -0.010  -0.037
    1UNL    H32   99  -0.216  -0.178  -0.030
    1UNL    H33  100  -0.213   0.011  -0.270
    1UNL    H34  101  -0.363  -0.177  -0.223
    1UNL    H35  102  -0.038  -0.229  -0.276
    1UNL    H36  103  -0.064  -0.060  -0.458
    1UNL    H37  104   0.109  -0.089  -0.432
    1UNL    H38  105   0.029   0.065  -0.376
    1UNL    H39  106   0.146  -0.051  -0.147
    1UNL    H40  107   0.013  -0.296  -0.052
    1UNL    H41  108   0.139  -0.292  -0.178
    1UNL    H42  109   0.524  -0.218  -0.046
    1UNL    H43  110   0.462  -0.219   0.106
    1UNL    H44  111   0.374   0.024   0.104
    1UNL    H45  112   0.299   0.330  -0.330
    1UNL    H46  113   0.223   0.172  -0.308
    1UNL    H47  114   0.335   0.194  -0.460
    1UNL    H48  115   0.637   0.128  -0.222
    1UNL    H49  116   0.766  -0.093   0.078
    1UNL    H50  117   0.990   0.029   0.225
    1UNL    H51  118   1.135  -0.170  -0.028
    1UNL    H52  119   1.139  -0.062  -0.233
    1UNL    H53  120   1.045   0.076  -0.207
    1UNL    H54  121   0.872  -0.057  -0.139
    1UNL    H55  122   1.296   0.030  -0.023
    1UNL    H56  123   1.299  -0.116   0.163
    1UNL    H57  124   1.199   0.246  -0.017
    1UNL    H58  125   1.219   0.151   0.249
    1UNL    H59  126   0.979   0.278   0.143
    1UNL    H60  127   0.878   0.164  -0.068
    1UNL    H61  128   0.661   0.037   0.320
    1UNL    H62  129   0.470  -0.011   0.455
    1UNL    H63  130   0.377   0.101   0.325
    1UNL    H64  131   0.396  -0.078   0.307
   0.00000   0.00000   0.00000   0.00000   0.00000   0.00000   0.00000   0.00000   0.00000
Generated with MDTraj, t= 10.0
 131
    1UNL     C1    1  -0.555   0.370   0.123
    1UNL     C2    2  -0.535   0.262   0.223
    1UNL     C3    3  -0.602   0.150   0.209
    1UNL     C4    4  -0.676   0.111   0.081
    1UNL     O1    5  -0.613   0.018   0.000
    1UNL     C5    6  -0.707  -0.023  -0.103
    1UNL     O2    7  -0.752   0.095  -0.180
    1UNL     C6    8  -0.870   0.048  -0.251
    1UNL     C7    9  -0.939   0.164  -0.311
    1UNL     O3   10  -1.056   0.132  -0.387
    1UNL     C8   11  -0.829  -0.069  -0.346
    1UNL     O4   12  -0.937  -0.110  -0.427
    1UNL     C9   13  -0.752  -0.184  -0.277
    1UNL     O5   14  -0.840  -0.255  -0.185
    1UNL    C10   15  -0.635  -0.127  -0.193
    1UNL     O6   16  -0.525  -0.068  -0.274
    1UNL     O7   17  -0.818   0.072   0.113
    1UNL    C11   18  -0.832  -0.011   0.222
    1UNL    C12   19  -0.730  -0.035   0.315
    1UNL    C13   20  -0.757  -0.131   0.427
    1UNL     O8   21  -0.665  -0.154   0.505
    1UNL     O9   22  -0.882  -0.171   0.445
    1UNL    C14   23  -0.871  -0.265   0.544
    1UNL    C15   24  -0.599   0.039   0.302
    1UNL    C16   25  -0.484  -0.058   0.260
    1UNL    C17   26  -0.341   0.002   0.273
    1UNL    O10   27  -0.316   0.086   0.360
    1UNL    O11   28  -0.248  -0.051   0.186
    1UNL    C18   29  -0.125   0.013   0.197
    1UNL    C19   30  -0.027  -0.053   0.109
    1UNL    C20   31   0.107  -0.000   0.151
    1UNL    C21   32  -0.058  -0.034  -0.036
    1UNL    C22   33  -0.197  -0.056  -0.093
    1UNL    C23   34  -0.190  -0.086  -0.239
    1UNL    O12   35  -0.280  -0.186  -0.280
    1UNL    C24   36  -0.045  -0.133  -0.263
    1UNL    C25   37   0.022  -0.066  -0.377
    1UNL    C26   38   0.043  -0.102  -0.137
    1UNL    C27   39   0.100  -0.231  -0.084
    1UNL    O13   40   0.207  -0.226   0.013
    1UNL    C28   41   0.327  -0.194  -0.055
    1UNL    O14   42   0.326  -0.184  -0.175
    1UNL    C29   43   0.449  -0.162   0.031
    1UNL    C30   44   0.477  -0.014   0.055
    1UNL    C31   45   0.497   0.070  -0.069
    1UNL    C32   46   0.378   0.123  -0.144
    1UNL    O15   47   0.267   0.116  -0.090
    1UNL    O16   48   0.401   0.169  -0.270
    1UNL    C33   49   0.279   0.215  -0.329
    1UNL    C34   50   0.619   0.066  -0.121
    1UNL    O17   51   0.738   0.023  -0.062
    1UNL    C35   52   0.730   0.014   0.078
    1UNL    O18   53   0.811   0.104   0.151
    1UNL    C36   54   0.948   0.076   0.137
    1UNL    O19   55   0.970  -0.039   0.056
    1UNL    C37   56   1.091  -0.058  -0.027
    1UNL    C38   57   1.084  -0.024  -0.167
    1UNL    O20   58   0.973  -0.090  -0.227
    1UNL    C39   59   1.207   0.027   0.046
    1UNL    O21   60   1.231  -0.024   0.178
    1UNL    C40   61   1.170   0.173   0.047
    1UNL    O22   62   1.238   0.234   0.159
    1UNL    C41   63   1.017   0.196   0.070
    1UNL    O23   64   0.948   0.225  -0.052
    1UNL    C42   65   0.598  -0.001   0.147
    1UNL    C43   66   0.584  -0.005   0.278
    1UNL    C44   67   0.455  -0.004   0.356
    1UNL     H1   68  -0.478   0.450   0.145
    1UNL     H2   69  -0.555   0.336   0.021
    1UNL     H3   70  -0.656   0.408   0.145
    1UNL     H4   71  -0.489   0.278   0.319
    1UNL     H5   72  -0.688   0.203   0.022
    1UNL     H6   73  -0.792  -0.062  -0.042
    1UNL     H7   74  -0.936   0.015  -0.177
    1UNL     H8   75  -0.871   0.213  -0.376
    1UNL     H9   76  -0.960   0.236  -0.232
    1UNL    H10   77  -1.035   0.055  -0.448
    1UNL    H11   78  -0.757  -0.019  -0.417
    1UNL    H12   79  -1.013  -0.140  -0.369
    1UNL    H13   80  -0.726  -0.261  -0.345
    1UNL    H14   81  -0.791  -0.318  -0.131
    1UNL    H15   82  -0.606  -0.210  -0.125
    1UNL    H16   83  -0.564   0.018  -0.304
    1UNL    H17   84  -0.938  -0.029   0.245
    1UNL    H18   85  -0.970  -0.319   0.561
    1UNL    H19   86  -0.831  -0.224   0.640
    1UNL    H20   87  -0.818  -0.362   0.506
    1UNL    H21   88  -0.575   0.073   0.402
    1UNL    H22   89  -0.491  -0.157   0.308
    1UNL    H23   90  -0.501  -0.077   0.153
    1UNL    H24   91  -0.147   0.118   0.173
    1UNL    H25   92  -0.096   0.006   0.304
    1UNL    H26   93  -0.015  -0.162   0.126
    1UNL    H27   94   0.105   0.111   0.134
    1UNL    H28   95   0.113  -0.008   0.260
    1UNL    H29   96   0.203  -0.036   0.119
    1UNL    H30   97  -0.032   0.076  -0.046
    1UNL    H31   98  -0.271   0.024  -0.074
    1UNL    H32   99  -0.238  -0.150  -0.035
    1UNL    H33  100  -0.207   0.004  -0.299
    1UNL    H34  101  -0.377  -0.145  -0.280
    1UNL    H35  102  -0.047  -0.240  -0.280
    1UNL    H36  103  -0.036  -0.079  -0.471
    1UNL    H37  104   0.126  -0.107  -0.382
    1UNL    H38  105   0.032   0.042  -0.361
    1UNL    H39  106   0.126  -0.044  -0.165
    1UNL    H40  107   0.014  -0.280  -0.032
    1UNL    H41  108   0.135  -0.292  -0.167
    1UNL    H42  109   0.537  -0.210  -0.011
    1UNL    H43  110   0.438  -0.227   0.118
    1UNL    H44  111   0.392   0.039   0.108
    1UNL    H45  112   0.206   0.127  -0.326
    1UNL    H46  113   0.291   0.271  -0.420
    1UNL    H47  114   0.235   0.278  -0.251
    1UNL    H48  115   0.645   0.111  -0.222
    1UNL    H49  116   0.781  -0.082   0.094
    1UNL    H50  117   0.988   0.044   0.233
    1UNL    H51  118   1.116  -0.170  -0.015
    1UNL    H52  119   1.163  -0.058  -0.228
    1UNL    H53  120   1.071   0.088  -0.189
    1UNL    H54  121   0.886  -0.058  -0.190
    1UNL    H55  122   1.303   0.007   0.000
    1UNL    H56  123   1.228  -0.122   0.193
    1UNL    H57  124   1.202   0.228  -0.045
    1UNL    H58  125   1.248   0.160   0.222
    1UNL    H59  126   1.013   0.288   0.140
    1UNL    H60  127   0.877   0.153  -0.051
    1UNL    H61  128   0.676   0.001   0.334
    1UNL    H62  129   0.463  -0.059   0.455
    1UNL    H63  130   0.404   0.095   0.355
    1UNL    H64  131   0.389  -0.070   0.296
   0.00000   0.00000   0.00000   0.00000   0.00000   0.00000   0.00000   0.00000   0.00000
Generated with MDTraj, t= 11.0
 131
    1UNL     C1    1  -0.537   0.363   0.128
    1UNL     C2    2  -0.547   0.255   0.229
    1UNL     C3    3  -0.610   0.144   0.213
    1UNL     C4    4  -0.685   0.111   0.086
    1UNL     O1    5  -0.615   0.019   0.004
    1UNL     C5    6  -0.703  -0.020  -0.099
    1UNL     O2    7  -0.761   0.087  -0.163
    1UNL     C6    8  -0.870   0.042  -0.247
    1UNL     C7    9  -0.932   0.163  -0.313
    1UNL     O3   10  -1.050   0.130  -0.386
    1UNL     C8   11  -0.833  -0.060  -0.352
    1UNL     O4   12  -0.949  -0.120  -0.412
    1UNL     C9   13  -0.747  -0.174  -0.292
    1UNL     O5   14  -0.838  -0.257  -0.218
    1UNL    C10   15  -0.642  -0.108  -0.194
    1UNL     O6   16  -0.551  -0.041  -0.277
    1UNL     O7   17  -0.817   0.072   0.115
    1UNL    C11   18  -0.827  -0.011   0.230
    1UNL    C12   19  -0.727  -0.029   0.323
    1UNL    C13   20  -0.753  -0.130   0.424
    1UNL     O8   21  -0.664  -0.155   0.504
    1UNL     O9   22  -0.879  -0.182   0.428
    1UNL    C14   23  -0.899  -0.232   0.554
    1UNL    C15   24  -0.594   0.033   0.306
    1UNL    C16   25  -0.484  -0.064   0.259
    1UNL    C17   26  -0.352  -0.002   0.263
    1UNL    O10   27  -0.328   0.096   0.327
    1UNL    O11   28  -0.265  -0.065   0.183
    1UNL    C18   29  -0.150   0.009   0.189
    1UNL    C19   30  -0.025  -0.035   0.110
    1UNL    C20   31   0.113   0.022   0.167
    1UNL    C21   32  -0.040  -0.021  -0.045
    1UNL    C22   33  -0.177  -0.053  -0.092
    1UNL    C23   34  -0.184  -0.098  -0.235
    1UNL    O12   35  -0.275  -0.194  -0.278
    1UNL    C24   36  -0.028  -0.142  -0.270
    1UNL    C25   37   0.036  -0.091  -0.399
    1UNL    C26   38   0.051  -0.111  -0.134
    1UNL    C27   39   0.106  -0.239  -0.074
    1UNL    O13   40   0.210  -0.208   0.017
    1UNL    C28   41   0.324  -0.195  -0.055
    1UNL    O14   42   0.332  -0.200  -0.175
    1UNL    C29   43   0.451  -0.175   0.025
    1UNL    C30   44   0.474  -0.035   0.062
    1UNL    C31   45   0.483   0.055  -0.058
    1UNL    C32   46   0.366   0.118  -0.122
    1UNL    O15   47   0.258   0.117  -0.065
    1UNL    O16   48   0.395   0.181  -0.243
    1UNL    C33   49   0.277   0.244  -0.291
    1UNL    C34   50   0.604   0.067  -0.116
    1UNL    O17   51   0.731   0.041  -0.065
    1UNL    C35   52   0.734  -0.005   0.074
    1UNL    O18   53   0.825   0.078   0.158
    1UNL    C36   54   0.959   0.061   0.122
    1UNL    O19   55   0.987  -0.056   0.045
    1UNL    C37   56   1.113  -0.066  -0.027
    1UNL    C38   57   1.094  -0.030  -0.171
    1UNL    O20   58   0.965  -0.068  -0.220
    1UNL    C39   59   1.210   0.031   0.052
    1UNL    O21   60   1.206   0.006   0.188
    1UNL    C40   61   1.172   0.177   0.035
    1UNL    O22   62   1.240   0.260   0.135
    1UNL    C41   63   1.012   0.194   0.055
    1UNL    O23   64   0.948   0.218  -0.069
    1UNL    C42   65   0.599  -0.016   0.147
    1UNL    C43   66   0.598  -0.003   0.279
    1UNL    C44   67   0.474  -0.018   0.357
    1UNL     H1   68  -0.489   0.458   0.163
    1UNL     H2   69  -0.492   0.336   0.032
    1UNL     H3   70  -0.638   0.399   0.100
    1UNL     H4   71  -0.497   0.255   0.326
    1UNL     H5   72  -0.698   0.198   0.023
    1UNL     H6   73  -0.785  -0.068  -0.041
    1UNL     H7   74  -0.932  -0.012  -0.185
    1UNL     H8   75  -0.866   0.211  -0.377
    1UNL     H9   76  -0.962   0.235  -0.240
    1UNL    H10   77  -1.040   0.061  -0.453
    1UNL    H11   78  -0.771  -0.024  -0.439
    1UNL    H12   79  -0.995  -0.158  -0.337
    1UNL    H13   80  -0.689  -0.225  -0.368
    1UNL    H14   81  -0.783  -0.338  -0.201
    1UNL    H15   82  -0.593  -0.195  -0.146
    1UNL    H16   83  -0.585   0.049  -0.282
    1UNL    H17   84  -0.922  -0.068   0.225
    1UNL    H18   85  -1.005  -0.237   0.582
    1UNL    H19   86  -0.847  -0.171   0.630
    1UNL    H20   87  -0.880  -0.345   0.557
    1UNL    H21   88  -0.562   0.076   0.401
    1UNL    H22   89  -0.482  -0.163   0.316
    1UNL    H23   90  -0.500  -0.083   0.155
    1UNL    H24   91  -0.165   0.111   0.149
    1UNL    H25   92  -0.117   0.012   0.293
    1UNL    H26   93  -0.024  -0.145   0.123
    1UNL    H27   94   0.118   0.132   0.165
    1UNL    H28   95   0.129  -0.012   0.275
    1UNL    H29   96   0.197  -0.008   0.112
    1UNL    H30   97  -0.013   0.087  -0.061
    1UNL    H31   98  -0.236   0.042  -0.081
    1UNL    H32   99  -0.230  -0.127  -0.029
    1UNL    H33  100  -0.204  -0.016  -0.300
    1UNL    H34  101  -0.357  -0.147  -0.270
    1UNL    H35  102  -0.034  -0.249  -0.287
    1UNL    H36  103  -0.028  -0.116  -0.491
    1UNL    H37  104   0.142  -0.126  -0.406
    1UNL    H38  105   0.038   0.015  -0.402
    1UNL    H39  106   0.132  -0.050  -0.162
    1UNL    H40  107   0.024  -0.309  -0.041
    1UNL    H41  108   0.158  -0.293  -0.152
    1UNL    H42  109   0.539  -0.213  -0.031
    1UNL    H43  110   0.450  -0.249   0.105
    1UNL    H44  111   0.381   0.006   0.109
    1UNL    H45  112   0.320   0.327  -0.352
    1UNL    H46  113   0.210   0.283  -0.220
    1UNL    H47  114   0.225   0.173  -0.348
    1UNL    H48  115   0.613   0.125  -0.201
    1UNL    H49  116   0.788  -0.104   0.079
    1UNL    H50  117   1.012   0.037   0.216
    1UNL    H51  118   1.142  -0.176  -0.020
    1UNL    H52  119   1.165  -0.071  -0.240
    1UNL    H53  120   1.092   0.084  -0.180
    1UNL    H54  121   0.887  -0.055  -0.158
    1UNL    H55  122   1.312   0.004   0.017
    1UNL    H56  123   1.168  -0.083   0.197
    1UNL    H57  124   1.199   0.220  -0.066
    1UNL    H58  125   1.227   0.212   0.221
    1UNL    H59  126   0.996   0.277   0.130
    1UNL    H60  127   0.874   0.162  -0.078
    1UNL    H61  128   0.684   0.034   0.338
    1UNL    H62  129   0.468   0.022   0.464
    1UNL    H63  130   0.383   0.006   0.301
    1UNL    H64  131   0.460  -0.127   0.373
   0.00000   0.00000   0.00000   0.00000   0.00000   0.00000   0.00000   0.00000   0.00000
Generated with MDTraj, t= 12.0
 131
    1UNL     C1    1  -0.541   0.368   0.141
    1UNL     C2    2  -0.533   0.251   0.238
    1UNL     C3    3  -0.604   0.142   0.208
    1UNL     C4    4  -0.692   0.116   0.084
    1UNL     O1    5  -0.629   0.022  -0.001
    1UNL     C5    6  -0.723  -0.026  -0.102
    1UNL     O2    7  -0.781   0.082  -0.173
    1UNL     C6    8  -0.877   0.042  -0.268
    1UNL     C7    9  -0.941   0.171  -0.325
    1UNL     O3   10  -1.057   0.137  -0.383
    1UNL     C8   11  -0.824  -0.059  -0.370
    1UNL     O4   12  -0.937  -0.127  -0.428
    1UNL     C9   13  -0.744  -0.176  -0.305
    1UNL     O5   14  -0.834  -0.264  -0.239
    1UNL    C10   15  -0.646  -0.116  -0.199
    1UNL     O6   16  -0.539  -0.046  -0.262
    1UNL     O7   17  -0.822   0.071   0.116
    1UNL    C11   18  -0.833  -0.004   0.228
    1UNL    C12   19  -0.737  -0.036   0.318
    1UNL    C13   20  -0.764  -0.120   0.430
    1UNL     O8   21  -0.677  -0.155   0.508
    1UNL     O9   22  -0.895  -0.155   0.450
    1UNL    C14   23  -0.905  -0.253   0.553
    1UNL    C15   24  -0.603   0.031   0.310
    1UNL    C16   25  -0.488  -0.067   0.286
    1UNL    C17   26  -0.347   0.006   0.267
    1UNL    O10   27  -0.332   0.104   0.334
    1UNL    O11   28  -0.251  -0.043   0.177
    1UNL    C18   29  -0.129   0.024   0.190
    1UNL    C19   30  -0.019  -0.040   0.117
    1UNL    C20   31   0.121   0.016   0.155
    1UNL    C21   32  -0.029  -0.028  -0.041
    1UNL    C22   33  -0.172  -0.048  -0.093
    1UNL    C23   34  -0.172  -0.081  -0.244
    1UNL    O12   35  -0.270  -0.159  -0.295
    1UNL    C24   36  -0.033  -0.167  -0.259
    1UNL    C25   37   0.036  -0.121  -0.385
    1UNL    C26   38   0.050  -0.129  -0.134
    1UNL    C27   39   0.101  -0.252  -0.066
    1UNL    O13   40   0.212  -0.224   0.019
    1UNL    C28   41   0.325  -0.217  -0.056
    1UNL    O14   42   0.327  -0.215  -0.177
    1UNL    C29   43   0.456  -0.176   0.016
    1UNL    C30   44   0.478  -0.033   0.067
    1UNL    C31   45   0.487   0.057  -0.056
    1UNL    C32   46   0.370   0.128  -0.109
    1UNL    O15   47   0.259   0.103  -0.066
    1UNL    O16   48   0.390   0.215  -0.217
    1UNL    C33   49   0.268   0.276  -0.250
    1UNL    C34   50   0.616   0.077  -0.106
    1UNL    O17   51   0.731   0.026  -0.058
    1UNL    C35   52   0.732  -0.012   0.083
    1UNL    O18   53   0.823   0.080   0.155
    1UNL    C36   54   0.957   0.066   0.115
    1UNL    O19   55   0.973  -0.046   0.037
    1UNL    C37   56   1.109  -0.049  -0.027
    1UNL    C38   57   1.092  -0.034  -0.180
    1UNL    O20   58   0.980  -0.106  -0.223
    1UNL    C39   59   1.215   0.047   0.035
    1UNL    O21   60   1.256   0.009   0.163
    1UNL    C40   61   1.166   0.196   0.033
    1UNL    O22   62   1.225   0.270   0.145
    1UNL    C41   63   1.005   0.198   0.043
    1UNL    O23   64   0.951   0.206  -0.088
    1UNL    C42   65   0.600  -0.018   0.151
    1UNL    C43   66   0.604  -0.018   0.284
    1UNL    C44   67   0.480  -0.024   0.364
    1UNL     H1   68  -0.494   0.465   0.168
    1UNL     H2   69  -0.500   0.338   0.043
    1UNL     H3   70  -0.649   0.387   0.133
    1UNL     H4   71  -0.463   0.253   0.319
    1UNL     H5   72  -0.711   0.199   0.018
    1UNL     H6   73  -0.801  -0.071  -0.038
    1UNL     H7   74  -0.949   0.002  -0.205
    1UNL     H8   75  -0.884   0.215  -0.399
    1UNL     H9   76  -0.961   0.248  -0.254
    1UNL    H10   77  -1.049   0.051  -0.428
    1UNL    H11   78  -0.777  -0.008  -0.458
    1UNL    H12   79  -0.972  -0.182  -0.353
    1UNL    H13   80  -0.706  -0.220  -0.400
    1UNL    H14   81  -0.790  -0.355  -0.229
    1UNL    H15   82  -0.600  -0.200  -0.146
    1UNL    H16   83  -0.583   0.038  -0.291
    1UNL    H17   84  -0.916  -0.075   0.231
    1UNL    H18   85  -0.993  -0.311   0.545
    1UNL    H19   86  -0.927  -0.206   0.646
    1UNL    H20   87  -0.809  -0.301   0.575
    1UNL    H21   88  -0.585   0.081   0.406
    1UNL    H22   89  -0.477  -0.137   0.378
    1UNL    H23   90  -0.508  -0.126   0.201
    1UNL    H24   91  -0.143   0.128   0.152
    1UNL    H25   92  -0.098   0.017   0.293
    1UNL    H26   93  -0.039  -0.147   0.148
    1UNL    H27   94   0.114   0.123   0.163
    1UNL    H28   95   0.157  -0.041   0.248
    1UNL    H29   96   0.177  -0.017   0.067
    1UNL    H30   97  -0.005   0.079  -0.058
    1UNL    H31   98  -0.247   0.034  -0.065
    1UNL    H32   99  -0.210  -0.137  -0.050
    1UNL    H33  100  -0.173   0.011  -0.293
    1UNL    H34  101  -0.361  -0.116  -0.267
    1UNL    H35  102  -0.062  -0.272  -0.256
    1UNL    H36  103  -0.036  -0.143  -0.471
    1UNL    H37  104   0.138  -0.164  -0.397
    1UNL    H38  105   0.042  -0.015  -0.393
    1UNL    H39  106   0.135  -0.071  -0.163
    1UNL    H40  107   0.024  -0.308  -0.005
    1UNL    H41  108   0.130  -0.324  -0.140
    1UNL    H42  109   0.523  -0.217  -0.064
    1UNL    H43  110   0.485  -0.241   0.097
    1UNL    H44  111   0.386   0.003   0.119
    1UNL    H45  112   0.197   0.264  -0.166
    1UNL    H46  113   0.219   0.214  -0.325
    1UNL    H47  114   0.284   0.378  -0.269
    1UNL    H48  115   0.630   0.124  -0.201
    1UNL    H49  116   0.777  -0.118   0.086
    1UNL    H50  117   1.013   0.037   0.211
    1UNL    H51  118   1.143  -0.151  -0.003
    1UNL    H52  119   1.181  -0.079  -0.220
    1UNL    H53  120   1.073   0.076  -0.212
    1UNL    H54  121   0.913  -0.091  -0.152
    1UNL    H55  122   1.310   0.063  -0.025
    1UNL    H56  123   1.276  -0.086   0.168
    1UNL    H57  124   1.187   0.248  -0.065
    1UNL    H58  125   1.213   0.210   0.221
    1UNL    H59  126   0.964   0.275   0.111
    1UNL    H60  127   0.862   0.156  -0.083
    1UNL    H61  128   0.690   0.007   0.341
    1UNL    H62  129   0.486  -0.064   0.469
    1UNL    H63  130   0.421   0.068   0.366
    1UNL    H64  131   0.410  -0.091   0.311
   0.00000   0.00000   0.00000   0.00000   0.00000   0.00000   0.00000   0.00000   0.00000
Generated with MDTraj, t= 13.0
 131
    1UNL     C1    1  -0.575   0.383   0.101
    1UNL     C2    2  -0.563   0.276   0.204
    1UNL     C3    3  -0.616   0.155   0.199
    1UNL     C4    4  -0.695   0.119   0.082
    1UNL     O1    5  -0.636   0.014   0.010
    1UNL     C5    6  -0.720  -0.024  -0.102
    1UNL     O2    7  -0.782   0.088  -0.164
    1UNL     C6    8  -0.874   0.047  -0.265
    1UNL     C7    9  -0.961   0.166  -0.316
    1UNL     O3   10  -1.057   0.121  -0.407
    1UNL     C8   11  -0.809  -0.046  -0.374
    1UNL     O4   12  -0.910  -0.108  -0.455
    1UNL     C9   13  -0.741  -0.173  -0.307
    1UNL     O5   14  -0.837  -0.251  -0.241
    1UNL    C10   15  -0.644  -0.113  -0.202
    1UNL     O6   16  -0.537  -0.051  -0.273
    1UNL     O7   17  -0.827   0.082   0.125
    1UNL    C11   18  -0.828  -0.009   0.223
    1UNL    C12   19  -0.738  -0.021   0.327
    1UNL    C13   20  -0.751  -0.128   0.430
    1UNL     O8   21  -0.665  -0.151   0.516
    1UNL     O9   22  -0.879  -0.178   0.436
    1UNL    C14   23  -0.897  -0.249   0.551
    1UNL    C15   24  -0.596   0.053   0.317
    1UNL    C16   25  -0.496  -0.059   0.276
    1UNL    C17   26  -0.356  -0.007   0.283
    1UNL    O10   27  -0.335   0.070   0.370
    1UNL    O11   28  -0.269  -0.040   0.186
    1UNL    C18   29  -0.143   0.022   0.203
    1UNL    C19   30  -0.031  -0.060   0.122
    1UNL    C20   31   0.108  -0.032   0.177
    1UNL    C21   32  -0.047  -0.026  -0.026
    1UNL    C22   33  -0.192  -0.035  -0.092
    1UNL    C23   34  -0.166  -0.087  -0.241
    1UNL    O12   35  -0.262  -0.166  -0.295
    1UNL    C24   36  -0.030  -0.162  -0.239
    1UNL    C25   37   0.055  -0.139  -0.363
    1UNL    C26   38   0.051  -0.119  -0.111
    1UNL    C27   39   0.110  -0.255  -0.048
    1UNL    O13   40   0.227  -0.228   0.026
    1UNL    C28   41   0.337  -0.211  -0.055
    1UNL    O14   42   0.336  -0.202  -0.175
    1UNL    C29   43   0.464  -0.190   0.019
    1UNL    C30   44   0.481  -0.044   0.060
    1UNL    C31   45   0.498   0.056  -0.060
    1UNL    C32   46   0.379   0.134  -0.100
    1UNL    O15   47   0.266   0.104  -0.060
    1UNL    O16   48   0.404   0.232  -0.192
    1UNL    C33   49   0.289   0.299  -0.218
    1UNL    C34   50   0.619   0.070  -0.116
    1UNL    O17   51   0.731   0.007  -0.072
    1UNL    C35   52   0.737  -0.015   0.073
    1UNL    O18   53   0.820   0.081   0.145
    1UNL    C36   54   0.953   0.067   0.109
    1UNL    O19   55   0.985  -0.052   0.039
    1UNL    C37   56   1.115  -0.051  -0.031
    1UNL    C38   57   1.071  -0.032  -0.178
    1UNL    O20   58   0.966  -0.113  -0.211
    1UNL    C39   59   1.212   0.060   0.017
    1UNL    O21   60   1.278   0.023   0.141
    1UNL    C40   61   1.148   0.202   0.032
    1UNL    O22   62   1.210   0.279   0.138
    1UNL    C41   63   0.992   0.196   0.039
    1UNL    O23   64   0.939   0.211  -0.096
    1UNL    C42   65   0.603  -0.033   0.136
    1UNL    C43   66   0.600  -0.029   0.267
    1UNL    C44   67   0.470  -0.045   0.346
    1UNL     H1   68  -0.498   0.460   0.113
    1UNL     H2   69  -0.546   0.342  -0.000
    1UNL     H3   70  -0.671   0.436   0.122
    1UNL     H4   71  -0.496   0.303   0.286
    1UNL     H5   72  -0.714   0.202   0.015
    1UNL     H6   73  -0.802  -0.079  -0.057
    1UNL     H7   74  -0.938  -0.004  -0.202
    1UNL     H8   75  -0.903   0.242  -0.359
    1UNL     H9   76  -1.012   0.216  -0.235
    1UNL    H10   77  -1.015   0.037  -0.449
    1UNL    H11   78  -0.741   0.015  -0.435
    1UNL    H12   79  -0.942  -0.184  -0.403
    1UNL    H13   80  -0.680  -0.229  -0.385
    1UNL    H14   81  -0.790  -0.331  -0.204
    1UNL    H15   82  -0.596  -0.195  -0.149
    1UNL    H16   83  -0.586   0.027  -0.308
    1UNL    H17   84  -0.917  -0.065   0.236
    1UNL    H18   85  -1.001  -0.266   0.558
    1UNL    H19   86  -0.890  -0.182   0.633
    1UNL    H20   87  -0.821  -0.322   0.580
    1UNL    H21   88  -0.562   0.108   0.406
    1UNL    H22   89  -0.505  -0.140   0.354
    1UNL    H23   90  -0.509  -0.099   0.178
    1UNL    H24   91  -0.146   0.122   0.150
    1UNL    H25   92  -0.127   0.033   0.308
    1UNL    H26   93  -0.061  -0.166   0.136
    1UNL    H27   94   0.144   0.059   0.133
    1UNL    H28   95   0.093  -0.020   0.288
    1UNL    H29   96   0.184  -0.114   0.154
    1UNL    H30   97  -0.014   0.079  -0.037
    1UNL    H31   98  -0.254   0.061  -0.100
    1UNL    H32   99  -0.250  -0.109  -0.045
    1UNL    H33  100  -0.153   0.002  -0.296
    1UNL    H34  101  -0.347  -0.118  -0.303
    1UNL    H35  102  -0.051  -0.268  -0.228
    1UNL    H36  103  -0.006  -0.180  -0.449
    1UNL    H37  104   0.150  -0.196  -0.345
    1UNL    H38  105   0.078  -0.036  -0.393
    1UNL    H39  106   0.137  -0.063  -0.145
    1UNL    H40  107   0.042  -0.309   0.025
    1UNL    H41  108   0.129  -0.331  -0.120
    1UNL    H42  109   0.552  -0.209  -0.046
    1UNL    H43  110   0.460  -0.273   0.087
    1UNL    H44  111   0.398  -0.000   0.118
    1UNL    H45  112   0.264   0.273  -0.325
    1UNL    H46  113   0.309   0.409  -0.194
    1UNL    H47  114   0.203   0.261  -0.167
    1UNL    H48  115   0.627   0.146  -0.200
    1UNL    H49  116   0.786  -0.120   0.068
    1UNL    H50  117   1.018   0.058   0.203
    1UNL    H51  118   1.158  -0.149  -0.029
    1UNL    H52  119   1.153  -0.056  -0.248
    1UNL    H53  120   1.044   0.080  -0.173
    1UNL    H54  121   0.891  -0.092  -0.148
    1UNL    H55  122   1.295   0.068  -0.061
    1UNL    H56  123   1.305  -0.071   0.127
    1UNL    H57  124   1.162   0.250  -0.068
    1UNL    H58  125   1.232   0.209   0.206
    1UNL    H59  126   0.976   0.285   0.098
    1UNL    H60  127   0.870   0.149  -0.106
    1UNL    H61  128   0.686   0.003   0.332
    1UNL    H62  129   0.479  -0.074   0.454
    1UNL    H63  130   0.407   0.044   0.349
    1UNL    H64  131   0.407  -0.124   0.298
   0.00000   0.00000   0.00000   0.00000   0.00000   0.00000   0.00000   0.00000   0.00000
Generated with MDTraj, t= 14.0
 131
    1UNL     C1    1  -0.559   0.384   0.112
    1UNL     C2    2  -0.570   0.281   0.209
    1UNL     C3    3  -0.617   0.158   0.185
    1UNL     C4    4  -0.707   0.117   0.075
    1UNL     O1    5  -0.645   0.008   0.010
    1UNL     C5    6  -0.728  -0.026  -0.100
    1UNL     O2    7  -0.784   0.084  -0.172
    1UNL     C6    8  -0.876   0.042  -0.270
    1UNL     C7    9  -0.942   0.166  -0.334
    1UNL     O3   10  -1.055   0.127  -0.414
    1UNL     C8   11  -0.801  -0.045  -0.378
    1UNL     O4   12  -0.895  -0.099  -0.471
    1UNL     C9   13  -0.728  -0.165  -0.308
    1UNL     O5   14  -0.819  -0.254  -0.259
    1UNL    C10   15  -0.644  -0.108  -0.189
    1UNL     O6   16  -0.541  -0.030  -0.255
    1UNL     O7   17  -0.842   0.070   0.112
    1UNL    C11   18  -0.841  -0.012   0.215
    1UNL    C12   19  -0.754  -0.017   0.318
    1UNL    C13   20  -0.766  -0.110   0.429
    1UNL     O8   21  -0.674  -0.119   0.510
    1UNL     O9   22  -0.885  -0.177   0.459
    1UNL    C14   23  -0.857  -0.278   0.553
    1UNL    C15   24  -0.622   0.052   0.298
    1UNL    C16   25  -0.509  -0.047   0.271
    1UNL    C17   26  -0.370   0.009   0.275
    1UNL    O10   27  -0.331   0.072   0.369
    1UNL    O11   28  -0.285  -0.020   0.167
    1UNL    C18   29  -0.151   0.021   0.208
    1UNL    C19   30  -0.027  -0.062   0.152
    1UNL    C20   31   0.109  -0.029   0.210
    1UNL    C21   32  -0.030  -0.046  -0.004
    1UNL    C22   33  -0.170  -0.055  -0.065
    1UNL    C23   34  -0.159  -0.087  -0.222
    1UNL    O12   35  -0.263  -0.175  -0.277
    1UNL    C24   36  -0.021  -0.162  -0.233
    1UNL    C25   37   0.055  -0.120  -0.360
    1UNL    C26   38   0.065  -0.135  -0.102
    1UNL    C27   39   0.111  -0.273  -0.036
    1UNL    O13   40   0.233  -0.246   0.019
    1UNL    C28   41   0.329  -0.217  -0.070
    1UNL    O14   42   0.299  -0.217  -0.187
    1UNL    C29   43   0.469  -0.195  -0.014
    1UNL    C30   44   0.480  -0.060   0.055
    1UNL    C31   45   0.495   0.048  -0.051
    1UNL    C32   46   0.382   0.132  -0.090
    1UNL    O15   47   0.272   0.129  -0.035
    1UNL    O16   48   0.410   0.222  -0.190
    1UNL    C33   49   0.310   0.315  -0.204
    1UNL    C34   50   0.616   0.071  -0.103
    1UNL    O17   51   0.732   0.001  -0.066
    1UNL    C35   52   0.738  -0.030   0.078
    1UNL    O18   53   0.815   0.077   0.139
    1UNL    C36   54   0.954   0.073   0.107
    1UNL    O19   55   0.988  -0.046   0.034
    1UNL    C37   56   1.105  -0.035  -0.047
    1UNL    C38   57   1.063  -0.020  -0.193
    1UNL    O20   58   0.956  -0.103  -0.213
    1UNL    C39   59   1.209   0.063   0.005
    1UNL    O21   60   1.252   0.034   0.141
    1UNL    C40   61   1.156   0.207   0.005
    1UNL    O22   62   1.218   0.294   0.104
    1UNL    C41   63   1.002   0.203   0.033
    1UNL    O23   64   0.927   0.207  -0.094
    1UNL    C42   65   0.602  -0.046   0.146
    1UNL    C43   66   0.607  -0.045   0.281
    1UNL    C44   67   0.483  -0.070   0.362
    1UNL     H1   68  -0.514   0.479   0.139
    1UNL     H2   69  -0.483   0.349   0.034
    1UNL     H3   70  -0.658   0.418   0.077
    1UNL     H4   71  -0.516   0.297   0.300
    1UNL     H5   72  -0.725   0.197   0.003
    1UNL     H6   73  -0.814  -0.075  -0.058
    1UNL     H7   74  -0.946  -0.023  -0.228
    1UNL     H8   75  -0.871   0.227  -0.385
    1UNL     H9   76  -0.983   0.230  -0.254
    1UNL    H10   77  -1.031   0.053  -0.467
    1UNL    H11   78  -0.728  -0.001  -0.448
    1UNL    H12   79  -0.947  -0.179  -0.449
    1UNL    H13   80  -0.659  -0.225  -0.377
    1UNL    H14   81  -0.778  -0.328  -0.215
    1UNL    H15   82  -0.597  -0.193  -0.141
    1UNL    H16   83  -0.510   0.019  -0.177
    1UNL    H17   84  -0.930  -0.072   0.218
    1UNL    H18   85  -0.945  -0.328   0.591
    1UNL    H19   86  -0.810  -0.240   0.644
    1UNL    H20   87  -0.781  -0.352   0.518
    1UNL    H21   88  -0.613   0.119   0.385
    1UNL    H22   89  -0.520  -0.126   0.349
    1UNL    H23   90  -0.535  -0.094   0.176
    1UNL    H24   91  -0.147   0.131   0.180
    1UNL    H25   92  -0.149   0.015   0.315
    1UNL    H26   93  -0.041  -0.168   0.183
    1UNL    H27   94   0.136   0.078   0.224
    1UNL    H28   95   0.144  -0.077   0.303
    1UNL    H29   96   0.191  -0.063   0.142
    1UNL    H30   97   0.012   0.052  -0.023
    1UNL    H31   98  -0.228   0.038  -0.049
    1UNL    H32   99  -0.224  -0.142  -0.035
    1UNL    H33  100  -0.146  -0.005  -0.288
    1UNL    H34  101  -0.355  -0.139  -0.285
    1UNL    H35  102  -0.042  -0.268  -0.238
    1UNL    H36  103  -0.016  -0.125  -0.442
    1UNL    H37  104   0.138  -0.194  -0.371
    1UNL    H38  105   0.099  -0.015  -0.371
    1UNL    H39  106   0.156  -0.085  -0.132
    1UNL    H40  107   0.034  -0.300   0.043
    1UNL    H41  108   0.123  -0.364  -0.094
    1UNL    H42  109   0.538  -0.215  -0.099
    1UNL    H43  110   0.487  -0.275   0.054
    1UNL    H44  111   0.396  -0.030   0.119
    1UNL    H45  112   0.317   0.381  -0.112
    1UNL    H46  113   0.207   0.263  -0.205
    1UNL    H47  114   0.317   0.360  -0.305
    1UNL    H48  115   0.635   0.156  -0.170
    1UNL    H49  116   0.795  -0.133   0.075
    1UNL    H50  117   0.998   0.057   0.211
    1UNL    H51  118   1.153  -0.129  -0.041
    1UNL    H52  119   1.156  -0.051  -0.246
    1UNL    H53  120   1.033   0.091  -0.212
    1UNL    H54  121   0.879  -0.070  -0.163
    1UNL    H55  122   1.310   0.058  -0.046
    1UNL    H56  123   1.251  -0.065   0.155
    1UNL    H57  124   1.168   0.243  -0.098
    1UNL    H58  125   1.246   0.240   0.180
    1UNL    H59  126   0.979   0.282   0.099
    1UNL    H60  127   0.855   0.136  -0.096
    1UNL    H61  128   0.693  -0.037   0.338
    1UNL    H62  129   0.477  -0.019   0.460
    1UNL    H63  130   0.393  -0.035   0.309
    1UNL    H64  131   0.465  -0.179   0.370
   0.00000   0.00000   0.00000   0.00000   0.00000   0.00000   0.00000   0.00000   0.00000
Generated with MDTraj, t= 15.0
 131
    1UNL     C1    1  -0.574   0.384   0.109
    1UNL     C2    2  -0.561   0.276   0.205
    1UNL     C3    3  -0.626   0.160   0.207
    1UNL     C4    4  -0.712   0.123   0.090
    1UNL     O1    5  -0.645   0.028  -0.001
    1UNL     C5    6  -0.728  -0.013  -0.110
    1UNL     O2    7  -0.774   0.096  -0.191
    1UNL     C6    8  -0.868   0.042  -0.286
    1UNL     C7    9  -0.944   0.164  -0.340
    1UNL     O3   10  -1.035   0.127  -0.443
    1UNL     C8   11  -0.795  -0.041  -0.399
    1UNL     O4   12  -0.881  -0.100  -0.480
    1UNL     C9   13  -0.717  -0.159  -0.329
    1UNL     O5   14  -0.799  -0.264  -0.289
    1UNL    C10   15  -0.644  -0.107  -0.200
    1UNL     O6   16  -0.516  -0.053  -0.232
    1UNL     O7   17  -0.843   0.072   0.128
    1UNL    C11   18  -0.848   0.007   0.249
    1UNL    C12   19  -0.739  -0.024   0.327
    1UNL    C13   20  -0.748  -0.117   0.436
    1UNL     O8   21  -0.663  -0.126   0.525
    1UNL     O9   22  -0.864  -0.198   0.427
    1UNL    C14   23  -0.887  -0.262   0.549
    1UNL    C15   24  -0.611   0.050   0.316
    1UNL    C16   25  -0.499  -0.044   0.267
    1UNL    C17   26  -0.364   0.016   0.274
    1UNL    O10   27  -0.355   0.117   0.336
    1UNL    O11   28  -0.264  -0.050   0.211
    1UNL    C18   29  -0.137   0.012   0.235
    1UNL    C19   30  -0.037  -0.065   0.150
    1UNL    C20   31   0.101  -0.030   0.216
    1UNL    C21   32  -0.055  -0.038  -0.002
    1UNL    C22   33  -0.189  -0.057  -0.067
    1UNL    C23   34  -0.160  -0.088  -0.216
    1UNL    O12   35  -0.260  -0.184  -0.264
    1UNL    C24   36  -0.018  -0.156  -0.224
    1UNL    C25   37   0.059  -0.102  -0.348
    1UNL    C26   38   0.052  -0.122  -0.092
    1UNL    C27   39   0.111  -0.249  -0.030
    1UNL    O13   40   0.228  -0.226   0.037
    1UNL    C28   41   0.330  -0.219  -0.049
    1UNL    O14   42   0.320  -0.237  -0.169
    1UNL    C29   43   0.466  -0.197   0.014
    1UNL    C30   44   0.485  -0.057   0.059
    1UNL    C31   45   0.490   0.044  -0.047
    1UNL    C32   46   0.381   0.137  -0.074
    1UNL    O15   47   0.277   0.115  -0.018
    1UNL    O16   48   0.405   0.233  -0.169
    1UNL    C33   49   0.284   0.300  -0.190
    1UNL    C34   50   0.615   0.059  -0.107
    1UNL    O17   51   0.732   0.001  -0.069
    1UNL    C35   52   0.736  -0.019   0.072
    1UNL    O18   53   0.823   0.074   0.142
    1UNL    C36   54   0.953   0.066   0.094
    1UNL    O19   55   0.979  -0.043   0.008
    1UNL    C37   56   1.111  -0.048  -0.055
    1UNL    C38   57   1.090  -0.028  -0.207
    1UNL    O20   58   0.974  -0.094  -0.252
    1UNL    C39   59   1.198   0.065   0.004
    1UNL    O21   60   1.219   0.044   0.142
    1UNL    C40   61   1.133   0.205  -0.017
    1UNL    O22   62   1.202   0.293   0.070
    1UNL    C41   63   0.985   0.200   0.035
    1UNL    O23   64   0.894   0.223  -0.074
    1UNL    C42   65   0.609  -0.061   0.141
    1UNL    C43   66   0.608  -0.075   0.272
    1UNL    C44   67   0.490  -0.101   0.350
    1UNL     H1   68  -0.504   0.464   0.128
    1UNL     H2   69  -0.538   0.345   0.008
    1UNL     H3   70  -0.673   0.431   0.112
    1UNL     H4   71  -0.472   0.275   0.268
    1UNL     H5   72  -0.739   0.208   0.027
    1UNL     H6   73  -0.814  -0.045  -0.053
    1UNL     H7   74  -0.940  -0.007  -0.226
    1UNL     H8   75  -0.876   0.240  -0.380
    1UNL     H9   76  -1.001   0.216  -0.258
    1UNL    H10   77  -0.999   0.050  -0.496
    1UNL    H11   78  -0.724   0.028  -0.443
    1UNL    H12   79  -0.915  -0.184  -0.441
    1UNL    H13   80  -0.641  -0.210  -0.399
    1UNL    H14   81  -0.755  -0.333  -0.237
    1UNL    H15   82  -0.619  -0.199  -0.146
    1UNL    H16   83  -0.542   0.034  -0.272
    1UNL    H17   84  -0.934  -0.061   0.263
    1UNL    H18   85  -0.970  -0.335   0.550
    1UNL    H19   86  -0.894  -0.193   0.636
    1UNL    H20   87  -0.798  -0.332   0.574
    1UNL    H21   88  -0.585   0.086   0.419
    1UNL    H22   89  -0.510  -0.134   0.328
    1UNL    H23   90  -0.519  -0.081   0.162
    1UNL    H24   91  -0.144   0.123   0.211
    1UNL    H25   92  -0.124   0.006   0.343
    1UNL    H26   93  -0.050  -0.174   0.171
    1UNL    H27   94   0.152   0.051   0.151
    1UNL    H28   95   0.123  -0.002   0.320
    1UNL    H29   96   0.170  -0.111   0.201
    1UNL    H30   97  -0.032   0.066  -0.015
    1UNL    H31   98  -0.245   0.034  -0.067
    1UNL    H32   99  -0.253  -0.128  -0.014
    1UNL    H33  100  -0.163   0.005  -0.274
    1UNL    H34  101  -0.353  -0.149  -0.236
    1UNL    H35  102  -0.042  -0.261  -0.222
    1UNL    H36  103   0.013  -0.136  -0.438
    1UNL    H37  104   0.160  -0.147  -0.338
    1UNL    H38  105   0.080   0.010  -0.369
    1UNL    H39  106   0.141  -0.060  -0.112
    1UNL    H40  107   0.052  -0.312   0.047
    1UNL    H41  108   0.122  -0.317  -0.115
    1UNL    H42  109   0.541  -0.241  -0.057
    1UNL    H43  110   0.463  -0.261   0.100
    1UNL    H44  111   0.400  -0.027   0.121
    1UNL    H45  112   0.205   0.233  -0.224
    1UNL    H46  113   0.299   0.373  -0.279
    1UNL    H47  114   0.253   0.337  -0.091
    1UNL    H48  115   0.621   0.114  -0.194
    1UNL    H49  116   0.800  -0.118   0.076
    1UNL    H50  117   1.015   0.054   0.188
    1UNL    H51  118   1.139  -0.150  -0.044
    1UNL    H52  119   1.172  -0.070  -0.266
    1UNL    H53  120   1.080   0.086  -0.233
    1UNL    H54  121   0.902  -0.065  -0.192
    1UNL    H55  122   1.299   0.070  -0.039
    1UNL    H56  123   1.228  -0.054   0.151
    1UNL    H57  124   1.133   0.249  -0.116
    1UNL    H58  125   1.211   0.257   0.162
    1UNL    H59  126   0.976   0.276   0.111
    1UNL    H60  127   0.837   0.145  -0.077
    1UNL    H61  128   0.708  -0.070   0.328
    1UNL    H62  129   0.510  -0.156   0.442
    1UNL    H63  130   0.438  -0.009   0.385
    1UNL    H64  131   0.412  -0.151   0.291
   0.00000   0.00000   0.00000   0.00000   0.00000   0.00000   0.00000   0.00000   0.00000
Generated with MDTraj, t= 16.0
 131
    1UNL     C1    1  -0.579   0.374   0.110
    1UNL     C2    2  -0.584   0.273   0.216
    1UNL     C3    3  -0.628   0.149   0.197
    1UNL     C4    4  -0.716   0.113   0.078
    1UNL     O1    5  -0.642   0.028   0.000
    1UNL     C5    6  -0.720  -0.023  -0.097
    1UNL     O2    7  -0.786   0.083  -0.170
    1UNL     C6    8  -0.852   0.045  -0.294
    1UNL     C7    9  -0.916   0.169  -0.365
    1UNL     O3   10  -1.010   0.127  -0.456
    1UNL     C8   11  -0.774  -0.041  -0.399
    1UNL     O4   12  -0.864  -0.090  -0.502
    1UNL     C9   13  -0.710  -0.158  -0.314
    1UNL     O5   14  -0.812  -0.250  -0.288
    1UNL    C10   15  -0.633  -0.098  -0.191
    1UNL     O6   16  -0.516  -0.020  -0.226
    1UNL     O7   17  -0.842   0.056   0.109
    1UNL    C11   18  -0.847  -0.016   0.226
    1UNL    C12   19  -0.752  -0.018   0.320
    1UNL    C13   20  -0.769  -0.116   0.427
    1UNL     O8   21  -0.672  -0.126   0.500
    1UNL     O9   22  -0.885  -0.189   0.442
    1UNL    C14   23  -0.881  -0.269   0.548
    1UNL    C15   24  -0.615   0.049   0.302
    1UNL    C16   25  -0.486  -0.038   0.291
    1UNL    C17   26  -0.353   0.031   0.273
    1UNL    O10   27  -0.340   0.152   0.290
    1UNL    O11   28  -0.252  -0.054   0.236
    1UNL    C18   29  -0.131   0.017   0.243
    1UNL    C19   30  -0.023  -0.056   0.160
    1UNL    C20   31   0.113   0.003   0.200
    1UNL    C21   32  -0.030  -0.038   0.005
    1UNL    C22   33  -0.175  -0.064  -0.046
    1UNL    C23   34  -0.163  -0.085  -0.199
    1UNL    O12   35  -0.270  -0.176  -0.244
    1UNL    C24   36  -0.028  -0.149  -0.226
    1UNL    C25   37   0.045  -0.070  -0.337
    1UNL    C26   38   0.053  -0.132  -0.086
    1UNL    C27   39   0.098  -0.259  -0.022
    1UNL    O13   40   0.220  -0.248   0.043
    1UNL    C28   41   0.328  -0.228  -0.044
    1UNL    O14   42   0.309  -0.221  -0.164
    1UNL    C29   43   0.466  -0.216   0.012
    1UNL    C30   44   0.481  -0.073   0.074
    1UNL    C31   45   0.480   0.031  -0.033
    1UNL    C32   46   0.357   0.113  -0.069
    1UNL    O15   47   0.249   0.092  -0.016
    1UNL    O16   48   0.374   0.204  -0.168
    1UNL    C33   49   0.261   0.296  -0.172
    1UNL    C34   50   0.597   0.055  -0.101
    1UNL    O17   51   0.718   0.002  -0.069
    1UNL    C35   52   0.736  -0.026   0.074
    1UNL    O18   53   0.821   0.066   0.145
    1UNL    C36   54   0.953   0.066   0.095
    1UNL    O19   55   0.989  -0.042   0.000
    1UNL    C37   56   1.112  -0.027  -0.074
    1UNL    C38   57   1.088  -0.017  -0.223
    1UNL    O20   58   0.970  -0.095  -0.255
    1UNL    C39   59   1.210   0.081  -0.017
    1UNL    O21   60   1.242   0.056   0.117
    1UNL    C40   61   1.138   0.218  -0.022
    1UNL    O22   62   1.202   0.299   0.070
    1UNL    C41   63   0.987   0.204   0.029
    1UNL    O23   64   0.895   0.220  -0.084
    1UNL    C42   65   0.609  -0.063   0.155
    1UNL    C43   66   0.626  -0.098   0.283
    1UNL    C44   67   0.514  -0.128   0.369
    1UNL     H1   68  -0.506   0.453   0.130
    1UNL     H2   69  -0.534   0.318   0.023
    1UNL     H3   70  -0.679   0.413   0.092
    1UNL     H4   71  -0.516   0.288   0.298
    1UNL     H5   72  -0.760   0.193   0.013
    1UNL     H6   73  -0.794  -0.084  -0.045
    1UNL     H7   74  -0.937  -0.014  -0.266
    1UNL     H8   75  -0.841   0.230  -0.421
    1UNL     H9   76  -0.974   0.239  -0.296
    1UNL    H10   77  -0.966   0.068  -0.525
    1UNL    H11   78  -0.710   0.015  -0.469
    1UNL    H12   79  -0.934  -0.150  -0.469
    1UNL    H13   80  -0.635  -0.202  -0.384
    1UNL    H14   81  -0.779  -0.319  -0.223
    1UNL    H15   82  -0.585  -0.183  -0.139
    1UNL    H16   83  -0.508   0.037  -0.146
    1UNL    H17   84  -0.942  -0.064   0.250
    1UNL    H18   85  -0.944  -0.355   0.518
    1UNL    H19   86  -0.902  -0.230   0.652
    1UNL    H20   87  -0.779  -0.324   0.543
    1UNL    H21   88  -0.591   0.097   0.401
    1UNL    H22   89  -0.470  -0.099   0.379
    1UNL    H23   90  -0.502  -0.119   0.211
    1UNL    H24   91  -0.161   0.119   0.198
    1UNL    H25   92  -0.114   0.035   0.351
    1UNL    H26   93  -0.027  -0.164   0.189
    1UNL    H27   94   0.092   0.115   0.218
    1UNL    H28   95   0.153  -0.045   0.289
    1UNL    H29   96   0.180  -0.013   0.119
    1UNL    H30   97  -0.019   0.063  -0.027
    1UNL    H31   98  -0.228   0.021  -0.023
    1UNL    H32   99  -0.235  -0.139   0.011
    1UNL    H33  100  -0.161   0.020  -0.242
    1UNL    H34  101  -0.348  -0.123  -0.242
    1UNL    H35  102  -0.046  -0.252  -0.252
    1UNL    H36  103  -0.004  -0.089  -0.431
    1UNL    H37  104   0.152  -0.103  -0.337
    1UNL    H38  105   0.047   0.044  -0.332
    1UNL    H39  106   0.142  -0.069  -0.104
    1UNL    H40  107   0.005  -0.305   0.027
    1UNL    H41  108   0.120  -0.332  -0.100
    1UNL    H42  109   0.546  -0.229  -0.062
    1UNL    H43  110   0.472  -0.297   0.085
    1UNL    H44  111   0.393  -0.061   0.135
    1UNL    H45  112   0.292   0.385  -0.219
    1UNL    H46  113   0.220   0.300  -0.068
    1UNL    H47  114   0.181   0.262  -0.235
    1UNL    H48  115   0.593   0.124  -0.184
    1UNL    H49  116   0.797  -0.125   0.079
    1UNL    H50  117   1.013   0.053   0.188
    1UNL    H51  118   1.144  -0.131  -0.063
    1UNL    H52  119   1.166  -0.052  -0.286
    1UNL    H53  120   1.072   0.094  -0.250
    1UNL    H54  121   0.906  -0.069  -0.184
    1UNL    H55  122   1.303   0.088  -0.071
    1UNL    H56  123   1.264  -0.038   0.132
    1UNL    H57  124   1.142   0.262  -0.121
    1UNL    H58  125   1.210   0.249   0.154
    1UNL    H59  126   0.967   0.285   0.099
    1UNL    H60  127   0.821   0.151  -0.075
    1UNL    H61  128   0.719  -0.093   0.324
    1UNL    H62  129   0.534  -0.213   0.434
    1UNL    H63  130   0.501  -0.047   0.444
    1UNL    H64  131   0.419  -0.130   0.315
   0.00000   0.00000   0.00000   0.00000   0.00000   0.00000   0.00000   0.00000   0.00000
Generated with MDTraj, t= 17.0
 131
    1UNL     C1    1  -0.598   0.390   0.093
    1UNL     C2    2  -0.591   0.286   0.202
    1UNL     C3    3  -0.644   0.163   0.201
    1UNL     C4    4  -0.715   0.105   0.079
    1UNL     O1    5  -0.644   0.010   0.005
    1UNL     C5    6  -0.709  -0.027  -0.110
    1UNL     O2    7  -0.753   0.089  -0.188
    1UNL     C6    8  -0.838   0.044  -0.296
    1UNL     C7    9  -0.898   0.168  -0.357
    1UNL     O3   10  -0.976   0.140  -0.471
    1UNL     C8   11  -0.764  -0.041  -0.397
    1UNL     O4   12  -0.835  -0.068  -0.516
    1UNL     C9   13  -0.704  -0.171  -0.325
    1UNL     O5   14  -0.809  -0.248  -0.266
    1UNL    C10   15  -0.616  -0.111  -0.208
    1UNL     O6   16  -0.509  -0.031  -0.251
    1UNL     O7   17  -0.847   0.060   0.123
    1UNL    C11   18  -0.849  -0.015   0.238
    1UNL    C12   19  -0.735  -0.032   0.313
    1UNL    C13   20  -0.749  -0.127   0.425
    1UNL     O8   21  -0.655  -0.141   0.505
    1UNL     O9   22  -0.879  -0.189   0.442
    1UNL    C14   23  -0.888  -0.271   0.556
    1UNL    C15   24  -0.614   0.057   0.299
    1UNL    C16   25  -0.497  -0.029   0.254
    1UNL    C17   26  -0.364   0.040   0.262
    1UNL    O10   27  -0.352   0.158   0.300
    1UNL    O11   28  -0.268  -0.043   0.222
    1UNL    C18   29  -0.144   0.021   0.240
    1UNL    C19   30  -0.034  -0.061   0.178
    1UNL    C20   31   0.100  -0.039   0.237
    1UNL    C21   32  -0.042  -0.028   0.030
    1UNL    C22   33  -0.188  -0.051  -0.024
    1UNL    C23   34  -0.172  -0.068  -0.179
    1UNL    O12   35  -0.270  -0.168  -0.225
    1UNL    C24   36  -0.028  -0.126  -0.210
    1UNL    C25   37   0.037  -0.061  -0.332
    1UNL    C26   38   0.048  -0.123  -0.068
    1UNL    C27   39   0.089  -0.258  -0.019
    1UNL    O13   40   0.208  -0.258   0.060
    1UNL    C28   41   0.310  -0.231  -0.029
    1UNL    O14   42   0.298  -0.207  -0.150
    1UNL    C29   43   0.449  -0.219   0.021
    1UNL    C30   44   0.486  -0.073   0.076
    1UNL    C31   45   0.480   0.023  -0.036
    1UNL    C32   46   0.363   0.103  -0.065
    1UNL    O15   47   0.262   0.076   0.001
    1UNL    O16   48   0.370   0.198  -0.157
    1UNL    C33   49   0.241   0.255  -0.181
    1UNL    C34   50   0.594   0.055  -0.099
    1UNL    O17   51   0.719   0.009  -0.068
    1UNL    C35   52   0.749  -0.034   0.060
    1UNL    O18   53   0.823   0.061   0.131
    1UNL    C36   54   0.953   0.075   0.085
    1UNL    O19   55   0.998  -0.039   0.004
    1UNL    C37   56   1.104  -0.022  -0.087
    1UNL    C38   57   1.049   0.001  -0.228
    1UNL    O20   58   0.950  -0.094  -0.248
    1UNL    C39   59   1.203   0.096  -0.037
    1UNL    O21   60   1.260   0.059   0.087
    1UNL    C40   61   1.127   0.232  -0.012
    1UNL    O22   62   1.188   0.302   0.092
    1UNL    C41   63   0.980   0.208   0.017
    1UNL    O23   64   0.906   0.212  -0.103
    1UNL    C42   65   0.625  -0.079   0.140
    1UNL    C43   66   0.645  -0.109   0.269
    1UNL    C44   67   0.541  -0.148   0.369
    1UNL     H1   68  -0.618   0.497   0.118
    1UNL     H2   69  -0.502   0.394   0.041
    1UNL     H3   70  -0.677   0.368   0.021
    1UNL     H4   71  -0.525   0.309   0.285
    1UNL     H5   72  -0.745   0.185   0.006
    1UNL     H6   73  -0.797  -0.089  -0.085
    1UNL     H7   74  -0.906  -0.020  -0.241
    1UNL     H8   75  -0.821   0.245  -0.387
    1UNL     H9   76  -0.968   0.214  -0.279
    1UNL    H10   77  -0.916   0.100  -0.536
    1UNL    H11   78  -0.672   0.010  -0.434
    1UNL    H12   79  -0.917  -0.113  -0.486
    1UNL    H13   80  -0.640  -0.225  -0.395
    1UNL    H14   81  -0.765  -0.312  -0.201
    1UNL    H15   82  -0.572  -0.205  -0.168
    1UNL    H16   83  -0.559   0.053  -0.268
    1UNL    H17   84  -0.947  -0.059   0.248
    1UNL    H18   85  -0.981  -0.280   0.604
    1UNL    H19   86  -0.805  -0.257   0.628
    1UNL    H20   87  -0.876  -0.370   0.507
    1UNL    H21   88  -0.580   0.080   0.404
    1UNL    H22   89  -0.497  -0.127   0.300
    1UNL    H23   90  -0.514  -0.060   0.144
    1UNL    H24   91  -0.146   0.133   0.210
    1UNL    H25   92  -0.133   0.017   0.351
    1UNL    H26   93  -0.068  -0.167   0.192
    1UNL    H27   94   0.138   0.059   0.202
    1UNL    H28   95   0.085  -0.027   0.345
    1UNL    H29   96   0.174  -0.119   0.224
    1UNL    H30   97  -0.023   0.074   0.009
    1UNL    H31   98  -0.254   0.020   0.012
    1UNL    H32   99  -0.235  -0.143   0.016
    1UNL    H33  100  -0.178   0.032  -0.236
    1UNL    H34  101  -0.366  -0.132  -0.231
    1UNL    H35  102  -0.041  -0.227  -0.242
    1UNL    H36  103  -0.033  -0.079  -0.417
    1UNL    H37  104   0.135  -0.113  -0.344
    1UNL    H38  105   0.053   0.046  -0.324
    1UNL    H39  106   0.144  -0.067  -0.072
    1UNL    H40  107   0.010  -0.308   0.044
    1UNL    H41  108   0.081  -0.326  -0.106
    1UNL    H42  109   0.514  -0.226  -0.066
    1UNL    H43  110   0.487  -0.289   0.096
    1UNL    H44  111   0.421  -0.047   0.158
    1UNL    H45  112   0.170   0.215  -0.115
    1UNL    H46  113   0.212   0.209  -0.276
    1UNL    H47  114   0.246   0.365  -0.191
    1UNL    H48  115   0.605   0.147  -0.166
    1UNL    H49  116   0.814  -0.130   0.056
    1UNL    H50  117   1.011   0.064   0.177
    1UNL    H51  118   1.159  -0.119  -0.085
    1UNL    H52  119   1.132   0.009  -0.291
    1UNL    H53  120   0.995   0.100  -0.247
    1UNL    H54  121   0.886  -0.084  -0.171
    1UNL    H55  122   1.288   0.108  -0.100
    1UNL    H56  123   1.305  -0.026   0.088
    1UNL    H57  124   1.135   0.292  -0.101
    1UNL    H58  125   1.205   0.239   0.166
    1UNL    H59  126   0.940   0.290   0.081
    1UNL    H60  127   0.835   0.145  -0.095
    1UNL    H61  128   0.748  -0.087   0.314
    1UNL    H62  129   0.583  -0.140   0.470
    1UNL    H63  130   0.462  -0.071   0.375
    1UNL    H64  131   0.489  -0.240   0.340
   0.00000   0.00000   0.00000   0.00000   0.00000   0.00000   0.00000   0.00000   0.00000
Generated with MDTraj, t= 18.0
 131
    1UNL     C1    1  -0.641   0.398   0.098
    1UNL     C2    2  -0.608   0.291   0.200
    1UNL     C3    3  -0.646   0.163   0.187
    1UNL     C4    4  -0.720   0.111   0.067
    1UNL     O1    5  -0.643   0.017  -0.005
    1UNL     C5    6  -0.715  -0.020  -0.121
    1UNL     O2    7  -0.755   0.089  -0.204
    1UNL     C6    8  -0.836   0.053  -0.314
    1UNL     C7    9  -0.862   0.188  -0.386
    1UNL     O3   10  -0.967   0.171  -0.485
    1UNL     C8   11  -0.760  -0.041  -0.406
    1UNL     O4   12  -0.849  -0.089  -0.509
    1UNL     C9   13  -0.698  -0.157  -0.324
    1UNL     O5   14  -0.797  -0.253  -0.284
    1UNL    C10   15  -0.625  -0.104  -0.202
    1UNL     O6   16  -0.512  -0.029  -0.224
    1UNL     O7   17  -0.850   0.062   0.107
    1UNL    C11   18  -0.847  -0.024   0.210
    1UNL    C12   19  -0.746  -0.033   0.302
    1UNL    C13   20  -0.753  -0.122   0.421
    1UNL     O8   21  -0.658  -0.139   0.494
    1UNL     O9   22  -0.871  -0.180   0.454
    1UNL    C14   23  -0.854  -0.270   0.561
    1UNL    C15   24  -0.634   0.060   0.291
    1UNL    C16   25  -0.510  -0.030   0.279
    1UNL    C17   26  -0.374   0.030   0.289
    1UNL    O10   27  -0.347   0.142   0.329
    1UNL    O11   28  -0.277  -0.056   0.248
    1UNL    C18   29  -0.150  -0.003   0.268
    1UNL    C19   30  -0.038  -0.075   0.187
    1UNL    C20   31   0.104  -0.036   0.232
    1UNL    C21   32  -0.052  -0.024   0.035
    1UNL    C22   33  -0.192  -0.041  -0.034
    1UNL    C23   34  -0.164  -0.073  -0.179
    1UNL    O12   35  -0.256  -0.170  -0.211
    1UNL    C24   36  -0.017  -0.132  -0.196
    1UNL    C25   37   0.069  -0.079  -0.304
    1UNL    C26   38   0.053  -0.110  -0.057
    1UNL    C27   39   0.099  -0.242  -0.008
    1UNL    O13   40   0.220  -0.248   0.065
    1UNL    C28   41   0.323  -0.228  -0.025
    1UNL    O14   42   0.307  -0.214  -0.147
    1UNL    C29   43   0.460  -0.224   0.037
    1UNL    C30   44   0.492  -0.071   0.080
    1UNL    C31   45   0.489   0.034  -0.026
    1UNL    C32   46   0.365   0.106  -0.050
    1UNL    O15   47   0.269   0.093   0.029
    1UNL    O16   48   0.351   0.164  -0.170
    1UNL    C33   49   0.240   0.246  -0.171
    1UNL    C34   50   0.595   0.050  -0.108
    1UNL    O17   51   0.715  -0.015  -0.082
    1UNL    C35   52   0.746  -0.047   0.058
    1UNL    O18   53   0.813   0.062   0.124
    1UNL    C36   54   0.947   0.065   0.077
    1UNL    O19   55   0.985  -0.045  -0.015
    1UNL    C37   56   1.098  -0.011  -0.093
    1UNL    C38   57   1.049   0.020  -0.234
    1UNL    O20   58   0.951  -0.071  -0.273
    1UNL    C39   59   1.203   0.102  -0.043
    1UNL    O21   60   1.272   0.064   0.072
    1UNL    C40   61   1.119   0.231  -0.017
    1UNL    O22   62   1.182   0.310   0.084
    1UNL    C41   63   0.972   0.205   0.010
    1UNL    O23   64   0.893   0.220  -0.104
    1UNL    C42   65   0.624  -0.075   0.150
    1UNL    C43   66   0.642  -0.124   0.274
    1UNL    C44   67   0.542  -0.179   0.368
    1UNL     H1   68  -0.571   0.485   0.088
    1UNL     H2   69  -0.634   0.361  -0.002
    1UNL     H3   70  -0.739   0.444   0.118
    1UNL     H4   71  -0.568   0.320   0.295
    1UNL     H5   72  -0.725   0.189  -0.015
    1UNL     H6   73  -0.812  -0.058  -0.077
    1UNL     H7   74  -0.931   0.013  -0.277
    1UNL     H8   75  -0.767   0.222  -0.436
    1UNL     H9   76  -0.893   0.271  -0.315
    1UNL    H10   77  -0.936   0.095  -0.547
    1UNL    H11   78  -0.680   0.026  -0.449
    1UNL    H12   79  -0.887  -0.169  -0.471
    1UNL    H13   80  -0.631  -0.210  -0.388
    1UNL    H14   81  -0.755  -0.311  -0.216
    1UNL    H15   82  -0.601  -0.195  -0.142
    1UNL    H16   83  -0.532   0.056  -0.176
    1UNL    H17   84  -0.926  -0.098   0.208
    1UNL    H18   85  -0.907  -0.238   0.643
    1UNL    H19   86  -0.749  -0.282   0.586
    1UNL    H20   87  -0.905  -0.359   0.530
    1UNL    H21   88  -0.636   0.105   0.393
    1UNL    H22   89  -0.513  -0.121   0.339
    1UNL    H23   90  -0.514  -0.075   0.173
    1UNL    H24   91  -0.147   0.105   0.233
    1UNL    H25   92  -0.128  -0.007   0.377
    1UNL    H26   93  -0.063  -0.184   0.188
    1UNL    H27   94   0.105   0.058   0.279
    1UNL    H28   95   0.148  -0.103   0.309
    1UNL    H29   96   0.180  -0.040   0.149
    1UNL    H30   97  -0.004   0.068   0.023
    1UNL    H31   98  -0.258   0.043  -0.034
    1UNL    H32   99  -0.246  -0.118   0.019
    1UNL    H33  100  -0.182   0.015  -0.253
    1UNL    H34  101  -0.347  -0.134  -0.208
    1UNL    H35  102  -0.039  -0.235  -0.216
    1UNL    H36  103   0.021  -0.098  -0.405
    1UNL    H37  104   0.164  -0.137  -0.295
    1UNL    H38  105   0.097   0.023  -0.301
    1UNL    H39  106   0.149  -0.053  -0.066
    1UNL    H40  107   0.023  -0.296   0.053
    1UNL    H41  108   0.099  -0.315  -0.090
    1UNL    H42  109   0.537  -0.246  -0.034
    1UNL    H43  110   0.471  -0.290   0.125
    1UNL    H44  111   0.422  -0.056   0.161
    1UNL    H45  112   0.210   0.277  -0.268
    1UNL    H46  113   0.280   0.331  -0.110
    1UNL    H47  114   0.152   0.189  -0.135
    1UNL    H48  115   0.581   0.105  -0.198
    1UNL    H49  116   0.806  -0.143   0.063
    1UNL    H50  117   1.012   0.057   0.161
    1UNL    H51  118   1.154  -0.110  -0.091
    1UNL    H52  119   1.119   0.016  -0.310
    1UNL    H53  120   1.022   0.129  -0.241
    1UNL    H54  121   0.880  -0.086  -0.204
    1UNL    H55  122   1.273   0.107  -0.123
    1UNL    H56  123   1.317  -0.022   0.051
    1UNL    H57  124   1.122   0.303  -0.100
    1UNL    H58  125   1.226   0.252   0.150
    1UNL    H59  126   0.939   0.289   0.079
    1UNL    H60  127   0.829   0.144  -0.103
    1UNL    H61  128   0.740  -0.117   0.308
    1UNL    H62  129   0.548  -0.114   0.457
    1UNL    H63  130   0.437  -0.167   0.340
    1UNL    H64  131   0.551  -0.287   0.381
   0.00000   0.00000   0.00000   0.00000   0.00000   0.00000   0.00000   0.00000   0.00000
Generated with MDTraj, t= 19.0
 131
    1UNL     C1    1  -0.634   0.394   0.123
    1UNL     C2    2  -0.615   0.282   0.213
    1UNL     C3    3  -0.662   0.160   0.192
    1UNL     C4    4  -0.740   0.119   0.070
    1UNL     O1    5  -0.657   0.024   0.004
    1UNL     C5    6  -0.714  -0.008  -0.123
    1UNL     O2    7  -0.745   0.105  -0.205
    1UNL     C6    8  -0.825   0.072  -0.322
    1UNL     C7    9  -0.868   0.196  -0.401
    1UNL     O3   10  -0.942   0.158  -0.517
    1UNL     C8   11  -0.756  -0.037  -0.413
    1UNL     O4   12  -0.846  -0.091  -0.517
    1UNL     C9   13  -0.704  -0.158  -0.335
    1UNL     O5   14  -0.814  -0.242  -0.311
    1UNL    C10   15  -0.628  -0.108  -0.204
    1UNL     O6   16  -0.510  -0.041  -0.239
    1UNL     O7   17  -0.868   0.063   0.116
    1UNL    C11   18  -0.851  -0.015   0.229
    1UNL    C12   19  -0.750  -0.022   0.316
    1UNL    C13   20  -0.759  -0.116   0.433
    1UNL     O8   21  -0.676  -0.124   0.523
    1UNL     O9   22  -0.871  -0.191   0.439
    1UNL    C14   23  -0.879  -0.276   0.552
    1UNL    C15   24  -0.626   0.056   0.293
    1UNL    C16   25  -0.511  -0.041   0.250
    1UNL    C17   26  -0.378   0.027   0.278
    1UNL    O10   27  -0.371   0.132   0.338
    1UNL    O11   28  -0.270  -0.038   0.229
    1UNL    C18   29  -0.146   0.016   0.263
    1UNL    C19   30  -0.026  -0.064   0.196
    1UNL    C20   31   0.115  -0.020   0.251
    1UNL    C21   32  -0.032  -0.042   0.044
    1UNL    C22   33  -0.172  -0.066  -0.013
    1UNL    C23   34  -0.162  -0.078  -0.165
    1UNL    O12   35  -0.252  -0.156  -0.241
    1UNL    C24   36  -0.011  -0.141  -0.186
    1UNL    C25   37   0.061  -0.090  -0.312
    1UNL    C26   38   0.068  -0.128  -0.042
    1UNL    C27   39   0.110  -0.263   0.015
    1UNL    O13   40   0.224  -0.258   0.078
    1UNL    C28   41   0.320  -0.239  -0.018
    1UNL    O14   42   0.297  -0.247  -0.137
    1UNL    C29   43   0.460  -0.219   0.026
    1UNL    C30   44   0.498  -0.086   0.090
    1UNL    C31   45   0.489   0.016  -0.011
    1UNL    C32   46   0.370   0.098  -0.034
    1UNL    O15   47   0.276   0.098   0.047
    1UNL    O16   48   0.367   0.162  -0.156
    1UNL    C33   49   0.261   0.250  -0.162
    1UNL    C34   50   0.599   0.042  -0.092
    1UNL    O17   51   0.721  -0.011  -0.077
    1UNL    C35   52   0.752  -0.045   0.059
    1UNL    O18   53   0.830   0.049   0.130
    1UNL    C36   54   0.954   0.066   0.063
    1UNL    O19   55   0.982  -0.032  -0.036
    1UNL    C37   56   1.098  -0.002  -0.112
    1UNL    C38   57   1.049   0.026  -0.256
    1UNL    O20   58   0.932  -0.053  -0.287
    1UNL    C39   59   1.195   0.103  -0.050
    1UNL    O21   60   1.230   0.065   0.077
    1UNL    C40   61   1.115   0.243  -0.034
    1UNL    O22   62   1.187   0.326   0.058
    1UNL    C41   63   0.967   0.214   0.008
    1UNL    O23   64   0.886   0.233  -0.103
    1UNL    C42   65   0.636  -0.089   0.151
    1UNL    C43   66   0.654  -0.125   0.279
    1UNL    C44   67   0.554  -0.187   0.375
    1UNL     H1   68  -0.573   0.476   0.167
    1UNL     H2   69  -0.589   0.376   0.028
    1UNL     H3   70  -0.739   0.426   0.126
    1UNL     H4   71  -0.575   0.295   0.312
    1UNL     H5   72  -0.750   0.208   0.001
    1UNL     H6   73  -0.820  -0.040  -0.095
    1UNL     H7   74  -0.919   0.027  -0.292
    1UNL     H8   75  -0.778   0.254  -0.426
    1UNL     H9   76  -0.932   0.260  -0.337
    1UNL    H10   77  -0.934   0.066  -0.533
    1UNL    H11   78  -0.671   0.013  -0.466
    1UNL    H12   79  -0.892  -0.174  -0.490
    1UNL    H13   80  -0.642  -0.220  -0.396
    1UNL    H14   81  -0.792  -0.308  -0.245
    1UNL    H15   82  -0.593  -0.201  -0.155
    1UNL    H16   83  -0.536   0.046  -0.272
    1UNL    H17   84  -0.932  -0.077   0.267
    1UNL    H18   85  -0.808  -0.236   0.618
    1UNL    H19   86  -0.855  -0.381   0.528
    1UNL    H20   87  -0.976  -0.257   0.596
    1UNL    H21   88  -0.590   0.109   0.384
    1UNL    H22   89  -0.511  -0.142   0.298
    1UNL    H23   90  -0.516  -0.063   0.143
    1UNL    H24   91  -0.148   0.123   0.226
    1UNL    H25   92  -0.135   0.017   0.371
    1UNL    H26   93  -0.050  -0.168   0.231
    1UNL    H27   94   0.158   0.061   0.201
    1UNL    H28   95   0.108   0.003   0.359
    1UNL    H29   96   0.178  -0.113   0.237
    1UNL    H30   97  -0.004   0.059   0.028
    1UNL    H31   98  -0.232   0.016   0.021
    1UNL    H32   99  -0.210  -0.152   0.029
    1UNL    H33  100  -0.167   0.029  -0.208
    1UNL    H34  101  -0.341  -0.109  -0.236
    1UNL    H35  102  -0.028  -0.244  -0.207
    1UNL    H36  103  -0.009  -0.094  -0.400
    1UNL    H37  104   0.155  -0.140  -0.337
    1UNL    H38  105   0.084   0.015  -0.306
    1UNL    H39  106   0.162  -0.068  -0.053
    1UNL    H40  107   0.026  -0.285   0.081
    1UNL    H41  108   0.122  -0.356  -0.046
    1UNL    H42  109   0.525  -0.229  -0.058
    1UNL    H43  110   0.476  -0.302   0.097
    1UNL    H44  111   0.428  -0.072   0.171
    1UNL    H45  112   0.265   0.308  -0.069
    1UNL    H46  113   0.165   0.192  -0.175
    1UNL    H47  114   0.272   0.320  -0.250
    1UNL    H48  115   0.580   0.119  -0.161
    1UNL    H49  116   0.812  -0.138   0.053
    1UNL    H50  117   1.026   0.056   0.140
    1UNL    H51  118   1.152  -0.101  -0.097
    1UNL    H52  119   1.115   0.026  -0.336
    1UNL    H53  120   1.008   0.129  -0.272
    1UNL    H54  121   0.867  -0.048  -0.209
    1UNL    H55  122   1.280   0.119  -0.116
    1UNL    H56  123   1.246  -0.034   0.087
    1UNL    H57  124   1.104   0.301  -0.126
    1UNL    H58  125   1.216   0.264   0.129
    1UNL    H59  126   0.916   0.283   0.083
    1UNL    H60  127   0.824   0.160  -0.106
    1UNL    H61  128   0.762  -0.128   0.304
    1UNL    H62  129   0.532  -0.106   0.447
    1UNL    H63  130   0.458  -0.220   0.339
    1UNL    H64  131   0.597  -0.278   0.417
   0.00000   0.00000   0.00000   0.00000   0.00000   0.00000   0.00000   0.00000   0.00000
Generated with MDTraj, t= 20.0
 131
    1UNL     C1    1  -0.625   0.396   0.127
    1UNL     C2    2  -0.599   0.280   0.214
    1UNL     C3    3  -0.658   0.159   0.197
    1UNL     C4    4  -0.731   0.119   0.071
    1UNL     O1    5  -0.651   0.040  -0.012
    1UNL     C5    6  -0.727  -0.003  -0.124
    1UNL     O2    7  -0.774   0.103  -0.195
    1UNL     C6    8  -0.845   0.074  -0.322
    1UNL     C7    9  -0.859   0.198  -0.407
    1UNL     O3   10  -0.931   0.177  -0.519
    1UNL     C8   11  -0.754  -0.028  -0.403
    1UNL     O4   12  -0.813  -0.074  -0.522
    1UNL     C9   13  -0.715  -0.158  -0.323
    1UNL     O5   14  -0.835  -0.219  -0.283
    1UNL    C10   15  -0.629  -0.104  -0.204
    1UNL     O6   16  -0.510  -0.036  -0.241
    1UNL     O7   17  -0.850   0.048   0.092
    1UNL    C11   18  -0.855  -0.021   0.212
    1UNL    C12   19  -0.767  -0.033   0.311
    1UNL    C13   20  -0.774  -0.115   0.428
    1UNL     O8   21  -0.699  -0.117   0.523
    1UNL     O9   22  -0.884  -0.202   0.427
    1UNL    C14   23  -0.889  -0.271   0.545
    1UNL    C15   24  -0.644   0.048   0.303
    1UNL    C16   25  -0.514  -0.042   0.276
    1UNL    C17   26  -0.379   0.031   0.285
    1UNL    O10   27  -0.374   0.142   0.328
    1UNL    O11   28  -0.275  -0.042   0.233
    1UNL    C18   29  -0.153   0.018   0.254
    1UNL    C19   30  -0.038  -0.058   0.185
    1UNL    C20   31   0.092  -0.015   0.263
    1UNL    C21   32  -0.035  -0.034   0.035
    1UNL    C22   33  -0.167  -0.048  -0.044
    1UNL    C23   34  -0.139  -0.098  -0.186
    1UNL    O12   35  -0.230  -0.183  -0.234
    1UNL    C24   36   0.001  -0.169  -0.179
    1UNL    C25   37   0.089  -0.112  -0.286
    1UNL    C26   38   0.059  -0.142  -0.042
    1UNL    C27   39   0.103  -0.266   0.033
    1UNL    O13   40   0.238  -0.251   0.090
    1UNL    C28   41   0.329  -0.244  -0.011
    1UNL    O14   42   0.308  -0.257  -0.130
    1UNL    C29   43   0.474  -0.230   0.033
    1UNL    C30   44   0.499  -0.095   0.091
    1UNL    C31   45   0.492   0.004  -0.016
    1UNL    C32   46   0.372   0.087  -0.033
    1UNL    O15   47   0.268   0.058   0.031
    1UNL    O16   48   0.374   0.197  -0.118
    1UNL    C33   49   0.249   0.257  -0.131
    1UNL    C34   50   0.597   0.022  -0.102
    1UNL    O17   51   0.721  -0.018  -0.074
    1UNL    C35   52   0.755  -0.051   0.060
    1UNL    O18   53   0.827   0.044   0.130
    1UNL    C36   54   0.957   0.072   0.069
    1UNL    O19   55   1.000  -0.030  -0.025
    1UNL    C37   56   1.093   0.005  -0.124
    1UNL    C38   57   1.031   0.048  -0.262
    1UNL    O20   58   0.930  -0.040  -0.299
    1UNL    C39   59   1.192   0.111  -0.069
    1UNL    O21   60   1.241   0.072   0.053
    1UNL    C40   61   1.109   0.246  -0.044
    1UNL    O22   62   1.182   0.331   0.042
    1UNL    C41   63   0.963   0.217   0.006
    1UNL    O23   64   0.867   0.222  -0.091
    1UNL    C42   65   0.640  -0.092   0.149
    1UNL    C43   66   0.674  -0.128   0.274
    1UNL    C44   67   0.567  -0.170   0.372
    1UNL     H1   68  -0.588   0.482   0.185
    1UNL     H2   69  -0.567   0.387   0.039
    1UNL     H3   70  -0.732   0.410   0.109
    1UNL     H4   71  -0.555   0.290   0.313
    1UNL     H5   72  -0.768   0.211   0.019
    1UNL     H6   73  -0.807  -0.064  -0.075
    1UNL     H7   74  -0.943   0.030  -0.303
    1UNL     H8   75  -0.761   0.231  -0.436
    1UNL     H9   76  -0.904   0.276  -0.345
    1UNL    H10   77  -0.921   0.079  -0.547
    1UNL    H11   78  -0.652   0.015  -0.425
    1UNL    H12   79  -0.836  -0.169  -0.512
    1UNL    H13   80  -0.654  -0.225  -0.383
    1UNL    H14   81  -0.823  -0.291  -0.221
    1UNL    H15   82  -0.592  -0.180  -0.134
    1UNL    H16   83  -0.503   0.030  -0.167
    1UNL    H17   84  -0.951  -0.069   0.228
    1UNL    H18   85  -0.794  -0.326   0.543
    1UNL    H19   86  -0.986  -0.333   0.559
    1UNL    H20   87  -0.891  -0.189   0.620
    1UNL    H21   88  -0.630   0.106   0.397
    1UNL    H22   89  -0.521  -0.121   0.357
    1UNL    H23   90  -0.514  -0.102   0.188
    1UNL    H24   91  -0.150   0.128   0.228
    1UNL    H25   92  -0.144   0.017   0.362
    1UNL    H26   93  -0.061  -0.164   0.210
    1UNL    H27   94   0.100   0.091   0.280
    1UNL    H28   95   0.104  -0.070   0.359
    1UNL    H29   96   0.172  -0.048   0.197
    1UNL    H30   97  -0.025   0.070   0.027
    1UNL    H31   98  -0.227   0.042  -0.051
    1UNL    H32   99  -0.221  -0.125  -0.004
    1UNL    H33  100  -0.132  -0.006  -0.255
    1UNL    H34  101  -0.315  -0.141  -0.240
    1UNL    H35  102  -0.016  -0.273  -0.195
    1UNL    H36  103   0.054  -0.141  -0.384
    1UNL    H37  104   0.188  -0.152  -0.271
    1UNL    H38  105   0.094   0.001  -0.283
    1UNL    H39  106   0.157  -0.089  -0.064
    1UNL    H40  107   0.041  -0.299   0.114
    1UNL    H41  108   0.110  -0.342  -0.048
    1UNL    H42  109   0.536  -0.259  -0.048
    1UNL    H43  110   0.486  -0.303   0.115
    1UNL    H44  111   0.429  -0.072   0.170
    1UNL    H45  112   0.187   0.217  -0.213
    1UNL    H46  113   0.263   0.362  -0.166
    1UNL    H47  114   0.193   0.247  -0.032
    1UNL    H48  115   0.597   0.098  -0.183
    1UNL    H49  116   0.819  -0.137   0.057
    1UNL    H50  117   1.029   0.074   0.147
    1UNL    H51  118   1.155  -0.088  -0.135
    1UNL    H52  119   1.106   0.041  -0.331
    1UNL    H53  120   0.991   0.150  -0.286
    1UNL    H54  121   0.859  -0.033  -0.228
    1UNL    H55  122   1.276   0.123  -0.142
    1UNL    H56  123   1.227  -0.025   0.069
    1UNL    H57  124   1.102   0.303  -0.139
    1UNL    H58  125   1.223   0.270   0.107
    1UNL    H59  126   0.943   0.309   0.069
    1UNL    H60  127   0.808   0.141  -0.074
    1UNL    H61  128   0.778  -0.153   0.292
    1UNL    H62  129   0.486  -0.097   0.360
    1UNL    H63  130   0.524  -0.266   0.358
    1UNL    H64  131   0.612  -0.173   0.470
   0.00000   0.00000   0.00000   0.00000   0.00000   0.00000   0.00000   0.00000   0.00000
Generated with MDTraj, t= 21.0
 131
    1UNL     C1    1  -0.605   0.383   0.114
    1UNL     C2    2  -0.605   0.280   0.214
    1UNL     C3    3  -0.657   0.159   0.198
    1UNL     C4    4  -0.725   0.114   0.070
    1UNL     O1    5  -0.647   0.025   0.004
    1UNL     C5    6  -0.706   0.002  -0.118
    1UNL     O2    7  -0.724   0.111  -0.206
    1UNL     C6    8  -0.813   0.082  -0.316
    1UNL     C7    9  -0.865   0.204  -0.389
    1UNL     O3   10  -0.938   0.184  -0.503
    1UNL     C8   11  -0.735  -0.022  -0.405
    1UNL     O4   12  -0.804  -0.063  -0.522
    1UNL     C9   13  -0.709  -0.147  -0.319
    1UNL     O5   14  -0.829  -0.213  -0.291
    1UNL    C10   15  -0.626  -0.108  -0.192
    1UNL     O6   16  -0.495  -0.068  -0.221
    1UNL     O7   17  -0.859   0.064   0.110
    1UNL    C11   18  -0.867  -0.014   0.219
    1UNL    C12   19  -0.772  -0.030   0.313
    1UNL    C13   20  -0.800  -0.121   0.423
    1UNL     O8   21  -0.717  -0.131   0.508
    1UNL     O9   22  -0.911  -0.203   0.421
    1UNL    C14   23  -0.917  -0.279   0.535
    1UNL    C15   24  -0.641   0.055   0.306
    1UNL    C16   25  -0.515  -0.024   0.273
    1UNL    C17   26  -0.385   0.040   0.282
    1UNL    O10   27  -0.373   0.150   0.324
    1UNL    O11   28  -0.286  -0.040   0.229
    1UNL    C18   29  -0.166   0.034   0.242
    1UNL    C19   30  -0.051  -0.055   0.185
    1UNL    C20   31   0.074  -0.030   0.250
    1UNL    C21   32  -0.033  -0.045   0.033
    1UNL    C22   33  -0.168  -0.049  -0.043
    1UNL    C23   34  -0.144  -0.113  -0.190
    1UNL    O12   35  -0.244  -0.192  -0.251
    1UNL    C24   36  -0.010  -0.188  -0.182
    1UNL    C25   37   0.087  -0.144  -0.297
    1UNL    C26   38   0.056  -0.145  -0.043
    1UNL    C27   39   0.100  -0.280   0.032
    1UNL    O13   40   0.230  -0.255   0.090
    1UNL    C28   41   0.330  -0.256  -0.004
    1UNL    O14   42   0.311  -0.270  -0.122
    1UNL    C29   43   0.467  -0.244   0.046
    1UNL    C30   44   0.502  -0.104   0.090
    1UNL    C31   45   0.491   0.003  -0.010
    1UNL    C32   46   0.373   0.088  -0.019
    1UNL    O15   47   0.271   0.065   0.052
    1UNL    O16   48   0.367   0.183  -0.116
    1UNL    C33   49   0.266   0.274  -0.091
    1UNL    C34   50   0.592   0.027  -0.092
    1UNL    O17   51   0.717  -0.026  -0.075
    1UNL    C35   52   0.760  -0.049   0.062
    1UNL    O18   53   0.834   0.052   0.131
    1UNL    C36   54   0.964   0.085   0.062
    1UNL    O19   55   1.010  -0.019  -0.033
    1UNL    C37   56   1.095   0.020  -0.137
    1UNL    C38   57   1.030   0.037  -0.274
    1UNL    O20   58   0.925  -0.051  -0.288
    1UNL    C39   59   1.186   0.137  -0.096
    1UNL    O21   60   1.287   0.089  -0.005
    1UNL    C40   61   1.103   0.257  -0.039
    1UNL    O22   62   1.179   0.317   0.061
    1UNL    C41   63   0.962   0.229   0.004
    1UNL    O23   64   0.866   0.237  -0.090
    1UNL    C42   65   0.641  -0.102   0.144
    1UNL    C43   66   0.664  -0.123   0.273
    1UNL    C44   67   0.565  -0.155   0.379
    1UNL     H1   68  -0.513   0.441   0.128
    1UNL     H2   69  -0.598   0.345   0.013
    1UNL     H3   70  -0.695   0.444   0.109
    1UNL     H4   71  -0.572   0.302   0.315
    1UNL     H5   72  -0.752   0.196  -0.002
    1UNL     H6   73  -0.800  -0.046  -0.088
    1UNL     H7   74  -0.905   0.037  -0.277
    1UNL     H8   75  -0.777   0.257  -0.412
    1UNL     H9   76  -0.927   0.269  -0.331
    1UNL    H10   77  -0.899   0.105  -0.551
    1UNL    H11   78  -0.643   0.033  -0.434
    1UNL    H12   79  -0.781  -0.152  -0.557
    1UNL    H13   80  -0.650  -0.216  -0.383
    1UNL    H14   81  -0.821  -0.295  -0.235
    1UNL    H15   82  -0.606  -0.200  -0.137
    1UNL    H16   83  -0.496   0.022  -0.256
    1UNL    H17   84  -0.957  -0.074   0.214
    1UNL    H18   85  -0.946  -0.378   0.491
    1UNL    H19   86  -0.977  -0.232   0.625
    1UNL    H20   87  -0.810  -0.289   0.569
    1UNL    H21   88  -0.646   0.115   0.399
    1UNL    H22   89  -0.508  -0.101   0.358
    1UNL    H23   90  -0.528  -0.074   0.182
    1UNL    H24   91  -0.179   0.128   0.183
    1UNL    H25   92  -0.150   0.075   0.340
    1UNL    H26   93  -0.074  -0.161   0.212
    1UNL    H27   94   0.116   0.076   0.244
    1UNL    H28   95   0.055  -0.041   0.357
    1UNL    H29   96   0.153  -0.099   0.235
    1UNL    H30   97   0.007   0.049   0.014
    1UNL    H31   98  -0.216   0.046  -0.055
    1UNL    H32   99  -0.234  -0.118   0.004
    1UNL    H33  100  -0.134  -0.020  -0.252
    1UNL    H34  101  -0.339  -0.153  -0.232
    1UNL    H35  102  -0.038  -0.290  -0.183
    1UNL    H36  103   0.044  -0.185  -0.385
    1UNL    H37  104   0.184  -0.191  -0.286
    1UNL    H38  105   0.096  -0.031  -0.311
    1UNL    H39  106   0.154  -0.094  -0.066
    1UNL    H40  107   0.026  -0.320   0.099
    1UNL    H41  108   0.133  -0.356  -0.044
    1UNL    H42  109   0.535  -0.272  -0.031
    1UNL    H43  110   0.481  -0.319   0.125
    1UNL    H44  111   0.432  -0.069   0.166
    1UNL    H45  112   0.289   0.359  -0.028
    1UNL    H46  113   0.181   0.217  -0.048
    1UNL    H47  114   0.241   0.330  -0.186
    1UNL    H48  115   0.583   0.094  -0.183
    1UNL    H49  116   0.831  -0.127   0.058
    1UNL    H50  117   1.031   0.078   0.145
    1UNL    H51  118   1.160  -0.067  -0.144
    1UNL    H52  119   1.088   0.029  -0.360
    1UNL    H53  120   0.999   0.145  -0.267
    1UNL    H54  121   0.856  -0.057  -0.215
    1UNL    H55  122   1.246   0.170  -0.187
    1UNL    H56  123   1.244   0.036   0.064
    1UNL    H57  124   1.091   0.334  -0.120
    1UNL    H58  125   1.257   0.260   0.079
    1UNL    H59  126   0.937   0.302   0.083
    1UNL    H60  127   0.805   0.164  -0.089
    1UNL    H61  128   0.765  -0.120   0.309
    1UNL    H62  129   0.473  -0.099   0.365
    1UNL    H63  130   0.532  -0.257   0.386
    1UNL    H64  131   0.608  -0.130   0.474
   0.00000   0.00000   0.00000   0.00000   0.00000   0.00000   0.00000   0.00000   0.00000
Generated with MDTraj, t= 22.0
 131
    1UNL     C1    1  -0.587   0.392   0.100
    1UNL     C2    2  -0.602   0.292   0.210
    1UNL     C3    3  -0.648   0.165   0.202
    1UNL     C4    4  -0.719   0.111   0.076
    1UNL     O1    5  -0.655   0.005   0.013
    1UNL     C5    6  -0.712  -0.017  -0.114
    1UNL     O2    7  -0.724   0.106  -0.190
    1UNL     C6    8  -0.790   0.082  -0.313
    1UNL     C7    9  -0.821   0.210  -0.384
    1UNL     O3   10  -0.942   0.212  -0.468
    1UNL     C8   11  -0.714  -0.027  -0.401
    1UNL     O4   12  -0.797  -0.055  -0.517
    1UNL     C9   13  -0.689  -0.159  -0.326
    1UNL     O5   14  -0.812  -0.228  -0.309
    1UNL    C10   15  -0.620  -0.109  -0.192
    1UNL     O6   16  -0.502  -0.040  -0.214
    1UNL     O7   17  -0.857   0.078   0.110
    1UNL    C11   18  -0.868  -0.008   0.210
    1UNL    C12   19  -0.776  -0.017   0.308
    1UNL    C13   20  -0.796  -0.117   0.415
    1UNL     O8   21  -0.708  -0.146   0.494
    1UNL     O9   22  -0.921  -0.176   0.404
    1UNL    C14   23  -0.936  -0.273   0.509
    1UNL    C15   24  -0.640   0.059   0.311
    1UNL    C16   25  -0.527  -0.037   0.276
    1UNL    C17   26  -0.390   0.037   0.280
    1UNL    O10   27  -0.370   0.136   0.350
    1UNL    O11   28  -0.300  -0.030   0.195
    1UNL    C18   29  -0.171   0.022   0.232
    1UNL    C19   30  -0.057  -0.066   0.182
    1UNL    C20   31   0.080  -0.036   0.244
    1UNL    C21   32  -0.051  -0.060   0.023
    1UNL    C22   33  -0.183  -0.096  -0.043
    1UNL    C23   34  -0.148  -0.129  -0.188
    1UNL    O12   35  -0.252  -0.200  -0.250
    1UNL    C24   36  -0.011  -0.206  -0.182
    1UNL    C25   37   0.077  -0.177  -0.305
    1UNL    C26   38   0.057  -0.144  -0.053
    1UNL    C27   39   0.108  -0.281   0.031
    1UNL    O13   40   0.229  -0.247   0.097
    1UNL    C28   41   0.327  -0.256   0.002
    1UNL    O14   42   0.304  -0.273  -0.115
    1UNL    C29   43   0.472  -0.236   0.052
    1UNL    C30   44   0.512  -0.095   0.101
    1UNL    C31   45   0.491   0.005  -0.003
    1UNL    C32   46   0.376   0.093  -0.002
    1UNL    O15   47   0.284   0.092   0.080
    1UNL    O16   48   0.364   0.187  -0.102
    1UNL    C33   49   0.256   0.272  -0.094
    1UNL    C34   50   0.598   0.041  -0.080
    1UNL    O17   51   0.722  -0.024  -0.073
    1UNL    C35   52   0.767  -0.058   0.059
    1UNL    O18   53   0.833   0.046   0.119
    1UNL    C36   54   0.959   0.079   0.059
    1UNL    O19   55   0.994  -0.014  -0.038
    1UNL    C37   56   1.082   0.031  -0.143
    1UNL    C38   57   1.004   0.036  -0.275
    1UNL    O20   58   0.906  -0.070  -0.285
    1UNL    C39   59   1.177   0.152  -0.116
    1UNL    O21   60   1.290   0.106  -0.042
    1UNL    C40   61   1.105   0.271  -0.034
    1UNL    O22   62   1.171   0.300   0.083
    1UNL    C41   63   0.954   0.224   0.003
    1UNL    O23   64   0.868   0.226  -0.108
    1UNL    C42   65   0.650  -0.090   0.157
    1UNL    C43   66   0.672  -0.101   0.288
    1UNL    C44   67   0.583  -0.152   0.387
    1UNL     H1   68  -0.546   0.484   0.137
    1UNL     H2   69  -0.511   0.361   0.027
    1UNL     H3   70  -0.668   0.404   0.028
    1UNL     H4   71  -0.551   0.315   0.303
    1UNL     H5   72  -0.712   0.186  -0.007
    1UNL     H6   73  -0.812  -0.049  -0.090
    1UNL     H7   74  -0.891   0.040  -0.288
    1UNL     H8   75  -0.743   0.254  -0.440
    1UNL     H9   76  -0.843   0.281  -0.308
    1UNL    H10   77  -0.936   0.133  -0.518
    1UNL    H11   78  -0.615   0.011  -0.426
    1UNL    H12   79  -0.851  -0.134  -0.490
    1UNL    H13   80  -0.611  -0.225  -0.377
    1UNL    H14   81  -0.798  -0.320  -0.268
    1UNL    H15   82  -0.592  -0.195  -0.132
    1UNL    H16   83  -0.514   0.057  -0.203
    1UNL    H17   84  -0.961  -0.059   0.229
    1UNL    H18   85  -1.019  -0.257   0.578
    1UNL    H19   86  -0.835  -0.294   0.557
    1UNL    H20   87  -0.959  -0.360   0.449
    1UNL    H21   88  -0.616   0.090   0.415
    1UNL    H22   89  -0.529  -0.129   0.343
    1UNL    H23   90  -0.540  -0.071   0.178
    1UNL    H24   91  -0.156   0.132   0.222
    1UNL    H25   92  -0.173   0.018   0.338
    1UNL    H26   93  -0.068  -0.174   0.206
    1UNL    H27   94   0.108   0.069   0.209
    1UNL    H28   95   0.072  -0.026   0.351
    1UNL    H29   96   0.156  -0.106   0.225
    1UNL    H30   97  -0.028   0.036  -0.010
    1UNL    H31   98  -0.255  -0.020  -0.036
    1UNL    H32   99  -0.228  -0.190  -0.007
    1UNL    H33  100  -0.125  -0.041  -0.249
    1UNL    H34  101  -0.329  -0.147  -0.242
    1UNL    H35  102  -0.038  -0.308  -0.173
    1UNL    H36  103   0.013  -0.201  -0.387
    1UNL    H37  104   0.162  -0.243  -0.316
    1UNL    H38  105   0.108  -0.071  -0.320
    1UNL    H39  106   0.143  -0.081  -0.091
    1UNL    H40  107   0.045  -0.320   0.108
    1UNL    H41  108   0.134  -0.363  -0.040
    1UNL    H42  109   0.532  -0.253  -0.037
    1UNL    H43  110   0.506  -0.313   0.120
    1UNL    H44  111   0.436  -0.061   0.171
    1UNL    H45  112   0.173   0.242  -0.153
    1UNL    H46  113   0.283   0.375  -0.119
    1UNL    H47  114   0.221   0.280   0.011
    1UNL    H48  115   0.583   0.127  -0.140
    1UNL    H49  116   0.835  -0.137   0.054
    1UNL    H50  117   1.032   0.071   0.141
    1UNL    H51  118   1.138  -0.060  -0.155
    1UNL    H52  119   1.075   0.038  -0.351
    1UNL    H53  120   0.940   0.130  -0.285
    1UNL    H54  121   0.838  -0.052  -0.216
    1UNL    H55  122   1.219   0.190  -0.216
    1UNL    H56  123   1.261   0.092   0.049
    1UNL    H57  124   1.089   0.367  -0.092
    1UNL    H58  125   1.257   0.346   0.066
    1UNL    H59  126   0.916   0.294   0.077
    1UNL    H60  127   0.808   0.144  -0.091
    1UNL    H61  128   0.775  -0.092   0.330
    1UNL    H62  129   0.538  -0.086   0.459
    1UNL    H63  130   0.496  -0.201   0.349
    1UNL    H64  131   0.638  -0.221   0.449
   0.00000   0.00000   0.00000   0.00000   0.00000   0.00000   0.00000   0.00000   0.00000
Generated with MDTraj, t= 23.0
 131
    1UNL     C1    1  -0.594   0.390   0.114
    1UNL     C2    2  -0.571   0.287   0.215
    1UNL     C3    3  -0.632   0.165   0.196
    1UNL     C4    4  -0.705   0.118   0.071
    1UNL     O1    5  -0.636   0.010   0.015
    1UNL     C5    6  -0.698  -0.017  -0.108
    1UNL     O2    7  -0.719   0.108  -0.184
    1UNL     C6    8  -0.799   0.087  -0.299
    1UNL     C7    9  -0.849   0.219  -0.364
    1UNL     O3   10  -0.888   0.210  -0.506
    1UNL     C8   11  -0.724  -0.008  -0.399
    1UNL     O4   12  -0.820  -0.046  -0.508
    1UNL     C9   13  -0.679  -0.143  -0.329
    1UNL     O5   14  -0.791  -0.229  -0.317
    1UNL    C10   15  -0.606  -0.112  -0.192
    1UNL     O6   16  -0.482  -0.054  -0.217
    1UNL     O7   17  -0.839   0.100   0.091
    1UNL    C11   18  -0.864   0.017   0.199
    1UNL    C12   19  -0.771  -0.013   0.289
    1UNL    C13   20  -0.801  -0.112   0.392
    1UNL     O8   21  -0.714  -0.148   0.468
    1UNL     O9   22  -0.933  -0.164   0.403
    1UNL    C14   23  -0.925  -0.261   0.509
    1UNL    C15   24  -0.641   0.062   0.297
    1UNL    C16   25  -0.534  -0.049   0.293
    1UNL    C17   26  -0.397   0.002   0.300
    1UNL    O10   27  -0.377   0.094   0.376
    1UNL    O11   28  -0.300  -0.050   0.217
    1UNL    C18   29  -0.165   0.006   0.241
    1UNL    C19   30  -0.056  -0.071   0.168
    1UNL    C20   31   0.076  -0.029   0.232
    1UNL    C21   32  -0.046  -0.059   0.012
    1UNL    C22   33  -0.178  -0.086  -0.047
    1UNL    C23   34  -0.154  -0.138  -0.185
    1UNL    O12   35  -0.250  -0.234  -0.228
    1UNL    C24   36  -0.012  -0.213  -0.174
    1UNL    C25   37   0.075  -0.209  -0.300
    1UNL    C26   38   0.064  -0.153  -0.057
    1UNL    C27   39   0.118  -0.273   0.031
    1UNL    O13   40   0.238  -0.245   0.098
    1UNL    C28   41   0.332  -0.237   0.004
    1UNL    O14   42   0.322  -0.240  -0.116
    1UNL    C29   43   0.471  -0.225   0.058
    1UNL    C30   44   0.505  -0.084   0.116
    1UNL    C31   45   0.490   0.031   0.021
    1UNL    C32   46   0.367   0.104   0.007
    1UNL    O15   47   0.268   0.084   0.079
    1UNL    O16   48   0.351   0.195  -0.099
    1UNL    C33   49   0.231   0.262  -0.101
    1UNL    C34   50   0.591   0.057  -0.067
    1UNL    O17   51   0.707  -0.018  -0.061
    1UNL    C35   52   0.764  -0.056   0.070
    1UNL    O18   53   0.837   0.047   0.130
    1UNL    C36   54   0.958   0.081   0.057
    1UNL    O19   55   0.986  -0.018  -0.044
    1UNL    C37   56   1.078   0.019  -0.154
    1UNL    C38   57   0.986   0.046  -0.282
    1UNL    O20   58   0.900  -0.067  -0.292
    1UNL    C39   59   1.167   0.143  -0.121
    1UNL    O21   60   1.288   0.112  -0.056
    1UNL    C40   61   1.095   0.262  -0.041
    1UNL    O22   62   1.158   0.310   0.069
    1UNL    C41   63   0.945   0.225  -0.006
    1UNL    O23   64   0.855   0.218  -0.117
    1UNL    C42   65   0.644  -0.090   0.163
    1UNL    C43   66   0.676  -0.122   0.289
    1UNL    C44   67   0.582  -0.155   0.400
    1UNL     H1   68  -0.518   0.464   0.127
    1UNL     H2   69  -0.574   0.349   0.014
    1UNL     H3   70  -0.697   0.425   0.099
    1UNL     H4   71  -0.496   0.307   0.291
    1UNL     H5   72  -0.690   0.198  -0.002
    1UNL     H6   73  -0.800  -0.049  -0.084
    1UNL     H7   74  -0.888   0.025  -0.270
    1UNL     H8   75  -0.775   0.297  -0.363
    1UNL     H9   76  -0.934   0.264  -0.316
    1UNL    H10   77  -0.847   0.124  -0.543
    1UNL    H11   78  -0.636   0.036  -0.443
    1UNL    H12   79  -0.858  -0.128  -0.474
    1UNL    H13   80  -0.609  -0.192  -0.404
    1UNL    H14   81  -0.763  -0.323  -0.298
    1UNL    H15   82  -0.611  -0.206  -0.136
    1UNL    H16   83  -0.495   0.043  -0.201
    1UNL    H17   84  -0.966  -0.018   0.209
    1UNL    H18   85  -0.847  -0.248   0.581
    1UNL    H19   86  -0.907  -0.355   0.456
    1UNL    H20   87  -1.024  -0.269   0.541
    1UNL    H21   88  -0.625   0.101   0.398
    1UNL    H22   89  -0.550  -0.130   0.369
    1UNL    H23   90  -0.546  -0.091   0.195
    1UNL    H24   91  -0.164   0.113   0.211
    1UNL    H25   92  -0.147   0.011   0.344
    1UNL    H26   93  -0.075  -0.180   0.182
    1UNL    H27   94   0.063   0.080   0.250
    1UNL    H28   95   0.096  -0.074   0.328
    1UNL    H29   96   0.158  -0.051   0.163
    1UNL    H30   97  -0.019   0.039  -0.012
    1UNL    H31   98  -0.240  -0.002  -0.040
    1UNL    H32   99  -0.232  -0.162   0.015
    1UNL    H33  100  -0.134  -0.055  -0.251
    1UNL    H34  101  -0.346  -0.194  -0.226
    1UNL    H35  102  -0.042  -0.311  -0.146
    1UNL    H36  103   0.016  -0.241  -0.383
    1UNL    H37  104   0.157  -0.281  -0.297
    1UNL    H38  105   0.121  -0.115  -0.323
    1UNL    H39  106   0.147  -0.086  -0.092
    1UNL    H40  107   0.065  -0.311   0.117
    1UNL    H41  108   0.145  -0.357  -0.040
    1UNL    H42  109   0.529  -0.244  -0.034
    1UNL    H43  110   0.495  -0.306   0.125
    1UNL    H44  111   0.431  -0.058   0.192
    1UNL    H45  112   0.223   0.341  -0.032
    1UNL    H46  113   0.147   0.201  -0.074
    1UNL    H47  114   0.223   0.309  -0.202
    1UNL    H48  115   0.568   0.135  -0.134
    1UNL    H49  116   0.832  -0.133   0.055
    1UNL    H50  117   1.038   0.081   0.135
    1UNL    H51  118   1.131  -0.071  -0.172
    1UNL    H52  119   1.047   0.041  -0.367
    1UNL    H53  120   0.926   0.145  -0.273
    1UNL    H54  121   0.838  -0.049  -0.218
    1UNL    H55  122   1.212   0.188  -0.217
    1UNL    H56  123   1.272   0.043   0.012
    1UNL    H57  124   1.089   0.348  -0.113
    1UNL    H58  125   1.249   0.332   0.044
    1UNL    H59  126   0.912   0.294   0.068
    1UNL    H60  127   0.796   0.144  -0.105
    1UNL    H61  128   0.772  -0.105   0.326
    1UNL    H62  129   0.545  -0.082   0.469
    1UNL    H63  130   0.491  -0.196   0.360
    1UNL    H64  131   0.631  -0.229   0.460
   0.00000   0.00000   0.00000   0.00000   0.00000   0.00000   0.00000   0.00000   0.00000
Generated with MDTraj, t= 24.0
 131
    1UNL     C1    1  -0.543   0.391   0.157
    1UNL     C2    2  -0.557   0.267   0.242
    1UNL     C3    3  -0.625   0.153   0.211
    1UNL     C4    4  -0.696   0.135   0.074
    1UNL     O1    5  -0.621   0.035   0.004
    1UNL     C5    6  -0.688  -0.011  -0.111
    1UNL     O2    7  -0.730   0.094  -0.195
    1UNL     C6    8  -0.810   0.081  -0.323
    1UNL     C7    9  -0.826   0.222  -0.387
    1UNL     O3   10  -0.865   0.227  -0.521
    1UNL     C8   11  -0.735  -0.015  -0.416
    1UNL     O4   12  -0.816  -0.061  -0.528
    1UNL     C9   13  -0.689  -0.143  -0.338
    1UNL     O5   14  -0.795  -0.224  -0.310
    1UNL    C10   15  -0.609  -0.108  -0.204
    1UNL     O6   16  -0.486  -0.049  -0.249
    1UNL     O7   17  -0.837   0.102   0.093
    1UNL    C11   18  -0.852   0.013   0.204
    1UNL    C12   19  -0.759  -0.020   0.299
    1UNL    C13   20  -0.805  -0.113   0.405
    1UNL     O8   21  -0.731  -0.161   0.486
    1UNL     O9   22  -0.935  -0.147   0.390
    1UNL    C14   23  -0.968  -0.241   0.491
    1UNL    C15   24  -0.622   0.036   0.300
    1UNL    C16   25  -0.515  -0.068   0.264
    1UNL    C17   26  -0.381  -0.006   0.289
    1UNL    O10   27  -0.355   0.083   0.370
    1UNL    O11   28  -0.285  -0.058   0.209
    1UNL    C18   29  -0.156   0.002   0.232
    1UNL    C19   30  -0.041  -0.088   0.188
    1UNL    C20   31   0.093  -0.061   0.262
    1UNL    C21   32  -0.038  -0.070   0.037
    1UNL    C22   33  -0.177  -0.080  -0.033
    1UNL    C23   34  -0.159  -0.140  -0.168
    1UNL    O12   35  -0.270  -0.217  -0.215
    1UNL    C24   36  -0.028  -0.226  -0.164
    1UNL    C25   37   0.050  -0.209  -0.292
    1UNL    C26   38   0.052  -0.176  -0.037
    1UNL    C27   39   0.108  -0.289   0.045
    1UNL    O13   40   0.231  -0.254   0.103
    1UNL    C28   41   0.332  -0.230   0.007
    1UNL    O14   42   0.310  -0.221  -0.111
    1UNL    C29   43   0.474  -0.217   0.058
    1UNL    C30   44   0.502  -0.077   0.122
    1UNL    C31   45   0.485   0.029   0.017
    1UNL    C32   46   0.359   0.101   0.003
    1UNL    O15   47   0.265   0.073   0.079
    1UNL    O16   48   0.344   0.192  -0.098
    1UNL    C33   49   0.224   0.255  -0.106
    1UNL    C34   50   0.581   0.053  -0.068
    1UNL    O17   51   0.706   0.003  -0.056
    1UNL    C35   52   0.752  -0.034   0.079
    1UNL    O18   53   0.842   0.057   0.135
    1UNL    C36   54   0.958   0.090   0.049
    1UNL    O19   55   0.975  -0.010  -0.052
    1UNL    C37   56   1.069   0.022  -0.152
    1UNL    C38   57   0.983   0.033  -0.288
    1UNL    O20   58   0.877  -0.056  -0.291
    1UNL    C39   59   1.168   0.134  -0.122
    1UNL    O21   60   1.279   0.089  -0.038
    1UNL    C40   61   1.092   0.262  -0.073
    1UNL    O22   62   1.170   0.328   0.021
    1UNL    C41   63   0.952   0.227  -0.009
    1UNL    O23   64   0.845   0.252  -0.097
    1UNL    C42   65   0.642  -0.069   0.172
    1UNL    C43   66   0.679  -0.115   0.291
    1UNL    C44   67   0.577  -0.156   0.397
    1UNL     H1   68  -0.510   0.467   0.223
    1UNL     H2   69  -0.454   0.386   0.090
    1UNL     H3   70  -0.620   0.414   0.082
    1UNL     H4   71  -0.478   0.252   0.316
    1UNL     H5   72  -0.693   0.229   0.023
    1UNL     H6   73  -0.782  -0.063  -0.085
    1UNL     H7   74  -0.908   0.040  -0.283
    1UNL     H8   75  -0.725   0.267  -0.379
    1UNL     H9   76  -0.896   0.284  -0.327
    1UNL    H10   77  -0.838   0.143  -0.563
    1UNL    H11   78  -0.651   0.042  -0.456
    1UNL    H12   79  -0.867  -0.138  -0.491
    1UNL    H13   80  -0.606  -0.182  -0.405
    1UNL    H14   81  -0.753  -0.304  -0.278
    1UNL    H15   82  -0.581  -0.206  -0.160
    1UNL    H16   83  -0.490   0.048  -0.236
    1UNL    H17   84  -0.946  -0.041   0.212
    1UNL    H18   85  -0.900  -0.239   0.573
    1UNL    H19   86  -0.960  -0.341   0.450
    1UNL    H20   87  -1.070  -0.223   0.509
    1UNL    H21   88  -0.609   0.052   0.408
    1UNL    H22   89  -0.535  -0.165   0.312
    1UNL    H23   90  -0.524  -0.077   0.155
    1UNL    H24   91  -0.151   0.098   0.174
    1UNL    H25   92  -0.138   0.026   0.331
    1UNL    H26   93  -0.092  -0.186   0.203
    1UNL    H27   94   0.137   0.029   0.225
    1UNL    H28   95   0.091  -0.047   0.369
    1UNL    H29   96   0.167  -0.143   0.239
    1UNL    H30   97   0.001   0.027   0.027
    1UNL    H31   98  -0.228   0.014  -0.033
    1UNL    H32   99  -0.248  -0.136   0.033
    1UNL    H33  100  -0.136  -0.056  -0.227
    1UNL    H34  101  -0.345  -0.164  -0.231
    1UNL    H35  102  -0.063  -0.326  -0.158
    1UNL    H36  103   0.018  -0.263  -0.381
    1UNL    H37  104   0.148  -0.248  -0.264
    1UNL    H38  105   0.066  -0.108  -0.310
    1UNL    H39  106   0.134  -0.110  -0.077
    1UNL    H40  107   0.029  -0.324   0.108
    1UNL    H41  108   0.154  -0.372  -0.015
    1UNL    H42  109   0.546  -0.239  -0.022
    1UNL    H43  110   0.479  -0.298   0.126
    1UNL    H44  111   0.435  -0.051   0.205
    1UNL    H45  112   0.153   0.217  -0.178
    1UNL    H46  113   0.242   0.359  -0.125
    1UNL    H47  114   0.163   0.239  -0.013
    1UNL    H48  115   0.556   0.111  -0.160
    1UNL    H49  116   0.811  -0.118   0.062
    1UNL    H50  117   1.045   0.079   0.122
    1UNL    H51  118   1.123  -0.070  -0.163
    1UNL    H52  119   1.040   0.014  -0.378
    1UNL    H53  120   0.944   0.142  -0.277
    1UNL    H54  121   0.823  -0.041  -0.210
    1UNL    H55  122   1.221   0.165  -0.216
    1UNL    H56  123   1.253   0.064   0.056
    1UNL    H57  124   1.073   0.328  -0.160
    1UNL    H58  125   1.262   0.297   0.010
    1UNL    H59  126   0.940   0.292   0.076
    1UNL    H60  127   0.789   0.168  -0.110
    1UNL    H61  128   0.788  -0.123   0.325
    1UNL    H62  129   0.476  -0.121   0.395
    1UNL    H63  130   0.562  -0.262   0.374
    1UNL    H64  131   0.619  -0.142   0.495
   0.00000   0.00000   0.00000   0.00000   0.00000   0.00000   0.00000   0.00000   0.00000
Generated with MDTraj, t= 25.0
 131
    1UNL     C1    1  -0.526   0.360   0.148
    1UNL     C2    2  -0.544   0.252   0.248
    1UNL     C3    3  -0.619   0.147   0.213
    1UNL     C4    4  -0.685   0.127   0.077
    1UNL     O1    5  -0.619   0.033  -0.002
    1UNL     C5    6  -0.683   0.012  -0.126
    1UNL     O2    7  -0.703   0.128  -0.207
    1UNL     C6    8  -0.781   0.101  -0.330
    1UNL     C7    9  -0.802   0.221  -0.427
    1UNL     O3   10  -0.891   0.204  -0.530
    1UNL     C8   11  -0.723  -0.011  -0.414
    1UNL     O4   12  -0.815  -0.055  -0.512
    1UNL     C9   13  -0.695  -0.136  -0.327
    1UNL     O5   14  -0.817  -0.181  -0.278
    1UNL    C10   15  -0.601  -0.091  -0.210
    1UNL     O6   16  -0.480  -0.028  -0.245
    1UNL     O7   17  -0.827   0.103   0.088
    1UNL    C11   18  -0.853   0.005   0.178
    1UNL    C12   19  -0.769  -0.046   0.271
    1UNL    C13   20  -0.822  -0.127   0.382
    1UNL     O8   21  -0.751  -0.155   0.475
    1UNL     O9   22  -0.953  -0.153   0.379
    1UNL    C14   23  -0.983  -0.221   0.497
    1UNL    C15   24  -0.636   0.036   0.299
    1UNL    C16   25  -0.517  -0.068   0.286
    1UNL    C17   26  -0.372  -0.019   0.300
    1UNL    O10   27  -0.356   0.065   0.389
    1UNL    O11   28  -0.269  -0.076   0.230
    1UNL    C18   29  -0.148  -0.041   0.281
    1UNL    C19   30  -0.026  -0.110   0.207
    1UNL    C20   31   0.104  -0.060   0.265
    1UNL    C21   32  -0.026  -0.080   0.058
    1UNL    C22   33  -0.167  -0.079  -0.016
    1UNL    C23   34  -0.150  -0.127  -0.162
    1UNL    O12   35  -0.264  -0.202  -0.215
    1UNL    C24   36  -0.024  -0.224  -0.160
    1UNL    C25   37   0.046  -0.224  -0.290
    1UNL    C26   38   0.056  -0.192  -0.032
    1UNL    C27   39   0.115  -0.305   0.031
    1UNL    O13   40   0.238  -0.279   0.098
    1UNL    C28   41   0.336  -0.248   0.011
    1UNL    O14   42   0.326  -0.254  -0.110
    1UNL    C29   43   0.475  -0.214   0.070
    1UNL    C30   44   0.493  -0.072   0.117
    1UNL    C31   45   0.463   0.012   0.001
    1UNL    C32   46   0.340   0.087  -0.004
    1UNL    O15   47   0.255   0.074   0.083
    1UNL    O16   48   0.333   0.186  -0.101
    1UNL    C33   49   0.213   0.256  -0.114
    1UNL    C34   50   0.563   0.038  -0.084
    1UNL    O17   51   0.698   0.016  -0.066
    1UNL    C35   52   0.743  -0.014   0.071
    1UNL    O18   53   0.830   0.087   0.126
    1UNL    C36   54   0.960   0.101   0.062
    1UNL    O19   55   0.983  -0.008  -0.040
    1UNL    C37   56   1.059   0.019  -0.156
    1UNL    C38   57   0.961   0.049  -0.276
    1UNL    O20   58   0.860  -0.047  -0.293
    1UNL    C39   59   1.168   0.120  -0.124
    1UNL    O21   60   1.247   0.080  -0.012
    1UNL    C40   61   1.110   0.260  -0.094
    1UNL    O22   62   1.200   0.345  -0.019
    1UNL    C41   63   0.969   0.238  -0.008
    1UNL    O23   64   0.854   0.255  -0.092
    1UNL    C42   65   0.637  -0.058   0.163
    1UNL    C43   66   0.675  -0.084   0.288
    1UNL    C44   67   0.586  -0.138   0.397
    1UNL     H1   68  -0.459   0.432   0.192
    1UNL     H2   69  -0.465   0.329   0.060
    1UNL     H3   70  -0.610   0.403   0.093
    1UNL     H4   71  -0.480   0.240   0.335
    1UNL     H5   72  -0.677   0.218   0.022
    1UNL     H6   73  -0.780  -0.034  -0.092
    1UNL     H7   74  -0.885   0.073  -0.292
    1UNL     H8   75  -0.703   0.243  -0.477
    1UNL     H9   76  -0.835   0.308  -0.364
    1UNL    H10   77  -0.898   0.114  -0.559
    1UNL    H11   78  -0.639   0.024  -0.476
    1UNL    H12   79  -0.886  -0.106  -0.470
    1UNL    H13   80  -0.651  -0.204  -0.402
    1UNL    H14   81  -0.816  -0.262  -0.224
    1UNL    H15   82  -0.583  -0.171  -0.134
    1UNL    H16   83  -0.488   0.067  -0.219
    1UNL    H17   84  -0.961  -0.004   0.186
    1UNL    H18   85  -1.002  -0.149   0.578
    1UNL    H19   86  -0.891  -0.273   0.534
    1UNL    H20   87  -1.064  -0.292   0.477
    1UNL    H21   88  -0.645   0.069   0.401
    1UNL    H22   89  -0.532  -0.140   0.363
    1UNL    H23   90  -0.541  -0.112   0.185
    1UNL    H24   91  -0.142   0.071   0.267
    1UNL    H25   92  -0.151  -0.058   0.385
    1UNL    H26   93  -0.047  -0.219   0.216
    1UNL    H27   94   0.105   0.044   0.254
    1UNL    H28   95   0.107  -0.082   0.373
    1UNL    H29   96   0.193  -0.101   0.210
    1UNL    H30   97   0.012   0.018   0.045
    1UNL    H31   98  -0.218   0.019   0.000
    1UNL    H32   99  -0.238  -0.150   0.030
    1UNL    H33  100  -0.133  -0.046  -0.226
    1UNL    H34  101  -0.343  -0.138  -0.215
    1UNL    H35  102  -0.069  -0.321  -0.155
    1UNL    H36  103  -0.015  -0.265  -0.372
    1UNL    H37  104   0.133  -0.286  -0.276
    1UNL    H38  105   0.075  -0.127  -0.311
    1UNL    H39  106   0.144  -0.137  -0.076
    1UNL    H40  107   0.048  -0.352   0.100
    1UNL    H41  108   0.131  -0.370  -0.059
    1UNL    H42  109   0.549  -0.248  -0.006
    1UNL    H43  110   0.484  -0.274   0.157
    1UNL    H44  111   0.434  -0.047   0.207
    1UNL    H45  112   0.199   0.321  -0.028
    1UNL    H46  113   0.130   0.190  -0.125
    1UNL    H47  114   0.206   0.329  -0.202
    1UNL    H48  115   0.543   0.107  -0.169
    1UNL    H49  116   0.807  -0.097   0.061
    1UNL    H50  117   1.046   0.095   0.135
    1UNL    H51  118   1.105  -0.076  -0.188
    1UNL    H52  119   1.036   0.063  -0.355
    1UNL    H53  120   0.902   0.147  -0.254
    1UNL    H54  121   0.790  -0.030  -0.222
    1UNL    H55  122   1.231   0.134  -0.213
    1UNL    H56  123   1.190   0.027   0.048
    1UNL    H57  124   1.081   0.313  -0.184
    1UNL    H58  125   1.267   0.290   0.031
    1UNL    H59  126   0.968   0.319   0.066
    1UNL    H60  127   0.802   0.174  -0.091
    1UNL    H61  128   0.773  -0.064   0.309
    1UNL    H62  129   0.486  -0.102   0.407
    1UNL    H63  130   0.564  -0.239   0.363
    1UNL    H64  131   0.626  -0.143   0.495
   0.00000   0.00000   0.00000   0.00000   0.00000   0.00000   0.00000   0.00000   0.00000
Generated with MDTraj, t= 26.0
 131
    1UNL     C1    1  -0.495   0.373   0.135
    1UNL     C2    2  -0.515   0.248   0.224
    1UNL     C3    3  -0.602   0.145   0.206
    1UNL     C4    4  -0.672   0.138   0.079
    1UNL     O1    5  -0.592   0.070  -0.014
    1UNL     C5    6  -0.661   0.036  -0.134
    1UNL     O2    7  -0.685   0.147  -0.225
    1UNL     C6    8  -0.770   0.113  -0.329
    1UNL     C7    9  -0.795   0.238  -0.417
    1UNL     O3   10  -0.899   0.219  -0.507
    1UNL     C8   11  -0.733  -0.014  -0.409
    1UNL     O4   12  -0.824  -0.041  -0.511
    1UNL     C9   13  -0.705  -0.133  -0.318
    1UNL     O5   14  -0.832  -0.187  -0.268
    1UNL    C10   15  -0.594  -0.082  -0.208
    1UNL     O6   16  -0.474  -0.034  -0.275
    1UNL     O7   17  -0.807   0.090   0.081
    1UNL    C11   18  -0.839   0.005   0.181
    1UNL    C12   19  -0.770  -0.025   0.292
    1UNL    C13   20  -0.814  -0.117   0.390
    1UNL     O8   21  -0.746  -0.167   0.475
    1UNL     O9   22  -0.948  -0.153   0.364
    1UNL    C14   23  -0.989  -0.227   0.472
    1UNL    C15   24  -0.623   0.034   0.302
    1UNL    C16   25  -0.525  -0.086   0.272
    1UNL    C17   26  -0.392  -0.044   0.316
    1UNL    O10   27  -0.377   0.048   0.394
    1UNL    O11   28  -0.291  -0.115   0.260
    1UNL    C18   29  -0.170  -0.057   0.288
    1UNL    C19   30  -0.054  -0.118   0.220
    1UNL    C20   31   0.081  -0.103   0.297
    1UNL    C21   32  -0.035  -0.083   0.070
    1UNL    C22   33  -0.175  -0.096  -0.012
    1UNL    C23   34  -0.140  -0.138  -0.159
    1UNL    O12   35  -0.243  -0.222  -0.209
    1UNL    C24   36  -0.009  -0.222  -0.157
    1UNL    C25   37   0.078  -0.213  -0.277
    1UNL    C26   38   0.065  -0.178  -0.022
    1UNL    C27   39   0.135  -0.299   0.051
    1UNL    O13   40   0.254  -0.271   0.114
    1UNL    C28   41   0.352  -0.256   0.015
    1UNL    O14   42   0.325  -0.282  -0.103
    1UNL    C29   43   0.489  -0.219   0.058
    1UNL    C30   44   0.497  -0.071   0.105
    1UNL    C31   45   0.465   0.037   0.010
    1UNL    C32   46   0.327   0.082  -0.007
    1UNL    O15   47   0.235   0.047   0.062
    1UNL    O16   48   0.309   0.161  -0.115
    1UNL    C33   49   0.192   0.238  -0.109
    1UNL    C34   50   0.565   0.077  -0.081
    1UNL    O17   51   0.694   0.030  -0.072
    1UNL    C35   52   0.738   0.001   0.064
    1UNL    O18   53   0.830   0.103   0.115
    1UNL    C36   54   0.950   0.106   0.044
    1UNL    O19   55   0.951  -0.008  -0.050
    1UNL    C37   56   1.051   0.004  -0.160
    1UNL    C38   57   0.978   0.043  -0.295
    1UNL    O20   58   0.862  -0.036  -0.303
    1UNL    C39   59   1.160   0.111  -0.114
    1UNL    O21   60   1.231   0.078   0.008
    1UNL    C40   61   1.101   0.254  -0.094
    1UNL    O22   62   1.191   0.332  -0.007
    1UNL    C41   63   0.959   0.243  -0.025
    1UNL    O23   64   0.848   0.258  -0.111
    1UNL    C42   65   0.628  -0.042   0.162
    1UNL    C43   66   0.666  -0.065   0.288
    1UNL    C44   67   0.580  -0.083   0.406
    1UNL     H1   68  -0.392   0.401   0.155
    1UNL     H2   69  -0.496   0.353   0.027
    1UNL     H3   70  -0.561   0.458   0.145
    1UNL     H4   71  -0.455   0.237   0.314
    1UNL     H5   72  -0.677   0.237   0.037
    1UNL     H6   73  -0.764   0.001  -0.099
    1UNL     H7   74  -0.876   0.099  -0.287
    1UNL     H8   75  -0.699   0.254  -0.477
    1UNL     H9   76  -0.818   0.330  -0.356
    1UNL    H10   77  -0.901   0.126  -0.551
    1UNL    H11   78  -0.636   0.011  -0.455
    1UNL    H12   79  -0.882  -0.118  -0.490
    1UNL    H13   80  -0.655  -0.222  -0.352
    1UNL    H14   81  -0.826  -0.255  -0.193
    1UNL    H15   82  -0.556  -0.164  -0.139
    1UNL    H16   83  -0.459   0.061  -0.250
    1UNL    H17   84  -0.933  -0.042   0.156
    1UNL    H18   85  -0.987  -0.158   0.563
    1UNL    H19   86  -0.909  -0.304   0.498
    1UNL    H20   87  -1.091  -0.272   0.457
    1UNL    H21   88  -0.596   0.071   0.400
    1UNL    H22   89  -0.555  -0.174   0.324
    1UNL    H23   90  -0.508  -0.101   0.160
    1UNL    H24   91  -0.176   0.056   0.270
    1UNL    H25   92  -0.160  -0.064   0.395
    1UNL    H26   93  -0.070  -0.228   0.231
    1UNL    H27   94   0.102   0.000   0.315
    1UNL    H28   95   0.071  -0.154   0.396
    1UNL    H29   96   0.165  -0.143   0.246
    1UNL    H30   97   0.014   0.011   0.064
    1UNL    H31   98  -0.225   0.007  -0.032
    1UNL    H32   99  -0.244  -0.163   0.039
    1UNL    H33  100  -0.126  -0.054  -0.220
    1UNL    H34  101  -0.319  -0.173  -0.236
    1UNL    H35  102  -0.036  -0.324  -0.140
    1UNL    H36  103   0.015  -0.222  -0.364
    1UNL    H37  104   0.154  -0.286  -0.277
    1UNL    H38  105   0.128  -0.118  -0.283
    1UNL    H39  106   0.156  -0.118  -0.043
    1UNL    H40  107   0.065  -0.328   0.125
    1UNL    H41  108   0.152  -0.389  -0.013
    1UNL    H42  109   0.559  -0.231  -0.027
    1UNL    H43  110   0.519  -0.283   0.140
    1UNL    H44  111   0.419  -0.073   0.183
    1UNL    H45  112   0.159   0.270  -0.209
    1UNL    H46  113   0.227   0.331  -0.070
    1UNL    H47  114   0.099   0.197  -0.050
    1UNL    H48  115   0.536   0.138  -0.161
    1UNL    H49  116   0.798  -0.088   0.056
    1UNL    H50  117   1.039   0.100   0.113
    1UNL    H51  118   1.096  -0.100  -0.159
    1UNL    H52  119   1.038   0.015  -0.383
    1UNL    H53  120   0.967   0.159  -0.287
    1UNL    H54  121   0.805  -0.024  -0.225
    1UNL    H55  122   1.234   0.114  -0.192
    1UNL    H56  123   1.281  -0.003  -0.008
    1UNL    H57  124   1.084   0.298  -0.190
    1UNL    H58  125   1.231   0.273   0.059
    1UNL    H59  126   0.942   0.308   0.066
    1UNL    H60  127   0.793   0.175  -0.101
    1UNL    H61  128   0.778  -0.044   0.299
    1UNL    H62  129   0.523   0.003   0.438
    1UNL    H63  130   0.504  -0.150   0.369
    1UNL    H64  131   0.629  -0.128   0.489
   0.00000   0.00000   0.00000   0.00000   0.00000   0.00000   0.00000   0.00000   0.00000
Generated with MDTraj, t= 27.0
 131
    1UNL     C1    1  -0.439   0.344   0.161
    1UNL     C2    2  -0.509   0.240   0.247
    1UNL     C3    3  -0.595   0.147   0.192
    1UNL     C4    4  -0.668   0.146   0.058
    1UNL     O1    5  -0.593   0.043  -0.015
    1UNL     C5    6  -0.653   0.030  -0.143
    1UNL     O2    7  -0.662   0.141  -0.227
    1UNL     C6    8  -0.775   0.118  -0.312
    1UNL     C7    9  -0.806   0.251  -0.391
    1UNL     O3   10  -0.896   0.242  -0.505
    1UNL     C8   11  -0.739   0.005  -0.416
    1UNL     O4   12  -0.852  -0.032  -0.500
    1UNL     C9   13  -0.692  -0.124  -0.340
    1UNL     O5   14  -0.811  -0.184  -0.287
    1UNL    C10   15  -0.596  -0.090  -0.221
    1UNL     O6   16  -0.465  -0.046  -0.258
    1UNL     O7   17  -0.806   0.111   0.070
    1UNL    C11   18  -0.841   0.034   0.174
    1UNL    C12   19  -0.774  -0.006   0.279
    1UNL    C13   20  -0.830  -0.096   0.375
    1UNL     O8   21  -0.757  -0.135   0.460
    1UNL     O9   22  -0.959  -0.144   0.365
    1UNL    C14   23  -0.972  -0.258   0.449
    1UNL    C15   24  -0.626   0.037   0.291
    1UNL    C16   25  -0.527  -0.082   0.286
    1UNL    C17   26  -0.383  -0.043   0.309
    1UNL    O10   27  -0.361   0.038   0.397
    1UNL    O11   28  -0.284  -0.104   0.239
    1UNL    C18   29  -0.165  -0.079   0.299
    1UNL    C19   30  -0.051  -0.150   0.235
    1UNL    C20   31   0.079  -0.125   0.312
    1UNL    C21   32  -0.034  -0.113   0.081
    1UNL    C22   33  -0.171  -0.139   0.008
    1UNL    C23   34  -0.130  -0.152  -0.140
    1UNL    O12   35  -0.227  -0.225  -0.211
    1UNL    C24   36   0.010  -0.219  -0.135
    1UNL    C25   37   0.094  -0.187  -0.263
    1UNL    C26   38   0.082  -0.184   0.001
    1UNL    C27   39   0.145  -0.310   0.069
    1UNL    O13   40   0.267  -0.285   0.122
    1UNL    C28   41   0.356  -0.265   0.024
    1UNL    O14   42   0.335  -0.281  -0.095
    1UNL    C29   43   0.489  -0.213   0.061
    1UNL    C30   44   0.488  -0.064   0.105
    1UNL    C31   45   0.447   0.030  -0.004
    1UNL    C32   46   0.309   0.087  -0.007
    1UNL    O15   47   0.227   0.054   0.076
    1UNL    O16   48   0.277   0.164  -0.111
    1UNL    C33   49   0.139   0.199  -0.124
    1UNL    C34   50   0.544   0.093  -0.077
    1UNL    O17   51   0.674   0.041  -0.069
    1UNL    C35   52   0.722   0.006   0.060
    1UNL    O18   53   0.829   0.087   0.104
    1UNL    C36   54   0.945   0.092   0.027
    1UNL    O19   55   0.959  -0.014  -0.072
    1UNL    C37   56   1.066   0.011  -0.169
    1UNL    C38   57   1.000   0.045  -0.296
    1UNL    O20   58   0.884  -0.034  -0.326
    1UNL    C39   59   1.167   0.122  -0.113
    1UNL    O21   60   1.237   0.077   0.007
    1UNL    C40   61   1.098   0.251  -0.092
    1UNL    O22   62   1.174   0.326   0.006
    1UNL    C41   63   0.952   0.233  -0.036
    1UNL    O23   64   0.855   0.251  -0.142
    1UNL    C42   65   0.618  -0.022   0.167
    1UNL    C43   66   0.636  -0.013   0.299
    1UNL    C44   67   0.537  -0.045   0.402
    1UNL     H1   68  -0.406   0.421   0.232
    1UNL     H2   69  -0.349   0.298   0.124
    1UNL     H3   70  -0.489   0.393   0.078
    1UNL     H4   71  -0.490   0.228   0.353
    1UNL     H5   72  -0.660   0.239   0.003
    1UNL     H6   73  -0.759   0.003  -0.112
    1UNL     H7   74  -0.864   0.085  -0.244
    1UNL     H8   75  -0.707   0.296  -0.426
    1UNL     H9   76  -0.850   0.322  -0.315
    1UNL    H10   77  -0.894   0.149  -0.521
    1UNL    H11   78  -0.666   0.041  -0.491
    1UNL    H12   79  -0.907  -0.098  -0.454
    1UNL    H13   80  -0.647  -0.189  -0.413
    1UNL    H14   81  -0.807  -0.245  -0.206
    1UNL    H15   82  -0.577  -0.176  -0.153
    1UNL    H16   83  -0.468   0.043  -0.298
    1UNL    H17   84  -0.939  -0.012   0.176
    1UNL    H18   85  -0.900  -0.256   0.535
    1UNL    H19   86  -0.943  -0.351   0.396
    1UNL    H20   87  -1.077  -0.265   0.490
    1UNL    H21   88  -0.617   0.089   0.386
    1UNL    H22   89  -0.553  -0.147   0.365
    1UNL    H23   90  -0.544  -0.128   0.183
    1UNL    H24   91  -0.143   0.036   0.299
    1UNL    H25   92  -0.182  -0.100   0.406
    1UNL    H26   93  -0.069  -0.260   0.251
    1UNL    H27   94   0.121  -0.025   0.298
    1UNL    H28   95   0.063  -0.140   0.420
    1UNL    H29   96   0.163  -0.185   0.292
    1UNL    H30   97  -0.005  -0.011   0.066
    1UNL    H31   98  -0.243  -0.048   0.024
    1UNL    H32   99  -0.219  -0.231   0.038
    1UNL    H33  100  -0.126  -0.060  -0.190
    1UNL    H34  101  -0.313  -0.167  -0.224
    1UNL    H35  102  -0.009  -0.324  -0.131
    1UNL    H36  103   0.034  -0.212  -0.346
    1UNL    H37  104   0.192  -0.224  -0.270
    1UNL    H38  105   0.107  -0.078  -0.278
    1UNL    H39  106   0.164  -0.117  -0.031
    1UNL    H40  107   0.076  -0.353   0.138
    1UNL    H41  108   0.147  -0.397  -0.000
    1UNL    H42  109   0.550  -0.198  -0.027
    1UNL    H43  110   0.544  -0.271   0.135
    1UNL    H44  111   0.408  -0.060   0.181
    1UNL    H45  112   0.071   0.176  -0.039
    1UNL    H46  113   0.108   0.150  -0.214
    1UNL    H47  114   0.126   0.315  -0.123
    1UNL    H48  115   0.518   0.167  -0.148
    1UNL    H49  116   0.769  -0.092   0.047
    1UNL    H50  117   1.038   0.079   0.087
    1UNL    H51  118   1.131  -0.085  -0.171
    1UNL    H52  119   1.070   0.036  -0.379
    1UNL    H53  120   0.966   0.157  -0.301
    1UNL    H54  121   0.838  -0.039  -0.241
    1UNL    H55  122   1.238   0.133  -0.190
    1UNL    H56  123   1.238  -0.020   0.004
    1UNL    H57  124   1.095   0.314  -0.180
    1UNL    H58  125   1.227   0.263   0.062
    1UNL    H59  126   0.942   0.308   0.048
    1UNL    H60  127   0.780   0.190  -0.127
    1UNL    H61  128   0.729   0.023   0.327
    1UNL    H62  129   0.443   0.010   0.391
    1UNL    H63  130   0.514  -0.148   0.379
    1UNL    H64  131   0.580  -0.035   0.500
   0.00000   0.00000   0.00000   0.00000   0.00000   0.00000   0.00000   0.00000   0.00000
Generated with MDTraj, t= 28.0
 131
    1UNL     C1    1  -0.432   0.348   0.119
    1UNL     C2    2  -0.481   0.249   0.221
    1UNL     C3    3  -0.572   0.149   0.199
    1UNL     C4    4  -0.642   0.139   0.060
    1UNL     O1    5  -0.593   0.022  -0.002
    1UNL     C5    6  -0.667   0.011  -0.123
    1UNL     O2    7  -0.685   0.128  -0.201
    1UNL     C6    8  -0.781   0.117  -0.305
    1UNL     C7    9  -0.779   0.257  -0.373
    1UNL     O3   10  -0.887   0.266  -0.464
    1UNL     C8   11  -0.729   0.012  -0.404
    1UNL     O4   12  -0.828  -0.009  -0.502
    1UNL     C9   13  -0.690  -0.118  -0.336
    1UNL     O5   14  -0.803  -0.194  -0.307
    1UNL    C10   15  -0.598  -0.100  -0.214
    1UNL     O6   16  -0.466  -0.047  -0.245
    1UNL     O7   17  -0.781   0.137   0.068
    1UNL    C11   18  -0.828   0.053   0.163
    1UNL    C12   19  -0.757  -0.005   0.263
    1UNL    C13   20  -0.815  -0.109   0.352
    1UNL     O8   21  -0.767  -0.146   0.457
    1UNL     O9   22  -0.942  -0.151   0.313
    1UNL    C14   23  -0.995  -0.223   0.418
    1UNL    C15   24  -0.608   0.036   0.299
    1UNL    C16   25  -0.518  -0.090   0.289
    1UNL    C17   26  -0.379  -0.053   0.335
    1UNL    O10   27  -0.357   0.037   0.412
    1UNL    O11   28  -0.280  -0.130   0.279
    1UNL    C18   29  -0.154  -0.086   0.313
    1UNL    C19   30  -0.049  -0.170   0.238
    1UNL    C20   31   0.083  -0.131   0.307
    1UNL    C21   32  -0.048  -0.133   0.084
    1UNL    C22   33  -0.174  -0.137   0.006
    1UNL    C23   34  -0.130  -0.160  -0.145
    1UNL    O12   35  -0.231  -0.222  -0.217
    1UNL    C24   36   0.004  -0.232  -0.137
    1UNL    C25   37   0.112  -0.180  -0.243
    1UNL    C26   38   0.068  -0.209   0.003
    1UNL    C27   39   0.130  -0.340   0.064
    1UNL    O13   40   0.263  -0.306   0.113
    1UNL    C28   41   0.360  -0.273   0.018
    1UNL    O14   42   0.331  -0.272  -0.101
    1UNL    C29   43   0.488  -0.215   0.069
    1UNL    C30   44   0.470  -0.067   0.116
    1UNL    C31   45   0.431   0.017  -0.002
    1UNL    C32   46   0.296   0.071  -0.020
    1UNL    O15   47   0.229   0.055   0.081
    1UNL    O16   48   0.248   0.136  -0.129
    1UNL    C33   49   0.117   0.200  -0.117
    1UNL    C34   50   0.522   0.072  -0.085
    1UNL    O17   51   0.661   0.061  -0.067
    1UNL    C35   52   0.712   0.007   0.056
    1UNL    O18   53   0.812   0.091   0.106
    1UNL    C36   54   0.930   0.095   0.029
    1UNL    O19   55   0.944  -0.002  -0.074
    1UNL    C37   56   1.056   0.015  -0.166
    1UNL    C38   57   0.998   0.038  -0.299
    1UNL    O20   58   0.878  -0.029  -0.316
    1UNL    C39   59   1.167   0.120  -0.116
    1UNL    O21   60   1.234   0.075   0.005
    1UNL    C40   61   1.106   0.255  -0.086
    1UNL    O22   62   1.180   0.335   0.010
    1UNL    C41   63   0.958   0.230  -0.036
    1UNL    O23   64   0.864   0.247  -0.151
    1UNL    C42   65   0.603  -0.011   0.160
    1UNL    C43   66   0.630   0.032   0.282
    1UNL    C44   67   0.549   0.033   0.397
    1UNL     H1   68  -0.515   0.419   0.096
    1UNL     H2   69  -0.358   0.407   0.170
    1UNL     H3   70  -0.387   0.322   0.024
    1UNL     H4   71  -0.464   0.260   0.327
    1UNL     H5   72  -0.621   0.229   0.001
    1UNL     H6   73  -0.762  -0.031  -0.091
    1UNL     H7   74  -0.880   0.087  -0.249
    1UNL     H8   75  -0.681   0.276  -0.426
    1UNL     H9   76  -0.795   0.341  -0.303
    1UNL    H10   77  -0.892   0.175  -0.509
    1UNL    H11   78  -0.641   0.058  -0.457
    1UNL    H12   79  -0.889  -0.079  -0.467
    1UNL    H13   80  -0.627  -0.164  -0.412
    1UNL    H14   81  -0.775  -0.252  -0.235
    1UNL    H15   82  -0.589  -0.193  -0.154
    1UNL    H16   83  -0.485   0.046  -0.267
    1UNL    H17   84  -0.936   0.038   0.164
    1UNL    H18   85  -0.998  -0.170   0.513
    1UNL    H19   86  -0.937  -0.311   0.433
    1UNL    H20   87  -1.097  -0.246   0.386
    1UNL    H21   88  -0.610   0.082   0.399
    1UNL    H22   89  -0.569  -0.168   0.342
    1UNL    H23   90  -0.513  -0.117   0.180
    1UNL    H24   91  -0.145   0.029   0.294
    1UNL    H25   92  -0.146  -0.097   0.423
    1UNL    H26   93  -0.080  -0.276   0.258
    1UNL    H27   94   0.110  -0.023   0.301
    1UNL    H28   95   0.083  -0.166   0.407
    1UNL    H29   96   0.168  -0.176   0.260
    1UNL    H30   97  -0.031  -0.026   0.077
    1UNL    H31   98  -0.248  -0.049   0.025
    1UNL    H32   99  -0.228  -0.229   0.042
    1UNL    H33  100  -0.115  -0.070  -0.201
    1UNL    H34  101  -0.311  -0.161  -0.212
    1UNL    H35  102  -0.017  -0.337  -0.141
    1UNL    H36  103   0.075  -0.189  -0.340
    1UNL    H37  104   0.205  -0.224  -0.228
    1UNL    H38  105   0.133  -0.072  -0.228
    1UNL    H39  106   0.151  -0.139  -0.008
    1UNL    H40  107   0.083  -0.396   0.144
    1UNL    H41  108   0.132  -0.417  -0.014
    1UNL    H42  109   0.562  -0.211  -0.008
    1UNL    H43  110   0.529  -0.264   0.159
    1UNL    H44  111   0.409  -0.066   0.207
    1UNL    H45  112   0.131   0.309  -0.112
    1UNL    H46  113   0.068   0.155  -0.036
    1UNL    H47  114   0.056   0.191  -0.213
    1UNL    H48  115   0.496   0.152  -0.161
    1UNL    H49  116   0.768  -0.087   0.036
    1UNL    H50  117   1.015   0.062   0.093
    1UNL    H51  118   1.112  -0.085  -0.172
    1UNL    H52  119   1.067   0.018  -0.380
    1UNL    H53  120   0.971   0.149  -0.321
    1UNL    H54  121   0.819  -0.023  -0.235
    1UNL    H55  122   1.234   0.144  -0.195
    1UNL    H56  123   1.232  -0.023   0.026
    1UNL    H57  124   1.101   0.313  -0.178
    1UNL    H58  125   1.246   0.274   0.048
    1UNL    H59  126   0.931   0.304   0.046
    1UNL    H60  127   0.784   0.190  -0.125
    1UNL    H61  128   0.730   0.080   0.289
    1UNL    H62  129   0.490   0.125   0.406
    1UNL    H63  130   0.486  -0.054   0.389
    1UNL    H64  131   0.606   0.024   0.487
   0.00000   0.00000   0.00000   0.00000   0.00000   0.00000   0.00000   0.00000   0.00000
Generated with MDTraj, t= 29.0
 131
    1UNL     C1    1  -0.410   0.345   0.144
    1UNL     C2    2  -0.459   0.232   0.229
    1UNL     C3    3  -0.553   0.140   0.193
    1UNL     C4    4  -0.619   0.125   0.062
    1UNL     O1    5  -0.583  -0.002   0.005
    1UNL     C5    6  -0.657  -0.014  -0.115
    1UNL     O2    7  -0.675   0.118  -0.173
    1UNL     C6    8  -0.754   0.118  -0.294
    1UNL     C7    9  -0.778   0.255  -0.349
    1UNL     O3   10  -0.876   0.254  -0.453
    1UNL     C8   11  -0.706   0.023  -0.411
    1UNL     O4   12  -0.792   0.019  -0.521
    1UNL     C9   13  -0.686  -0.120  -0.349
    1UNL     O5   14  -0.816  -0.182  -0.321
    1UNL    C10   15  -0.598  -0.114  -0.220
    1UNL     O6   16  -0.466  -0.077  -0.256
    1UNL     O7   17  -0.759   0.148   0.078
    1UNL    C11   18  -0.810   0.078   0.178
    1UNL    C12   19  -0.746   0.007   0.270
    1UNL    C13   20  -0.817  -0.094   0.345
    1UNL     O8   21  -0.770  -0.165   0.432
    1UNL     O9   22  -0.955  -0.114   0.311
    1UNL    C14   23  -1.008  -0.225   0.379
    1UNL    C15   24  -0.596   0.040   0.291
    1UNL    C16   25  -0.509  -0.082   0.304
    1UNL    C17   26  -0.364  -0.051   0.335
    1UNL    O10   27  -0.333   0.045   0.402
    1UNL    O11   28  -0.276  -0.137   0.271
    1UNL    C18   29  -0.145  -0.110   0.321
    1UNL    C19   30  -0.025  -0.182   0.244
    1UNL    C20   31   0.102  -0.148   0.319
    1UNL    C21   32  -0.028  -0.140   0.093
    1UNL    C22   33  -0.163  -0.141   0.022
    1UNL    C23   34  -0.142  -0.152  -0.135
    1UNL    O12   35  -0.245  -0.225  -0.198
    1UNL    C24   36  -0.012  -0.223  -0.151
    1UNL    C25   37   0.070  -0.180  -0.282
    1UNL    C26   38   0.063  -0.208  -0.011
    1UNL    C27   39   0.134  -0.336   0.042
    1UNL    O13   40   0.249  -0.288   0.119
    1UNL    C28   41   0.352  -0.251   0.038
    1UNL    O14   42   0.342  -0.252  -0.082
    1UNL    C29   43   0.478  -0.207   0.101
    1UNL    C30   44   0.470  -0.055   0.121
    1UNL    C31   45   0.429   0.018  -0.002
    1UNL    C32   46   0.288   0.059  -0.021
    1UNL    O15   47   0.218   0.037   0.075
    1UNL    O16   48   0.251   0.115  -0.133
    1UNL    C33   49   0.127   0.186  -0.128
    1UNL    C34   50   0.523   0.054  -0.099
    1UNL    O17   51   0.656   0.056  -0.079
    1UNL    C35   52   0.708   0.018   0.054
    1UNL    O18   53   0.793   0.124   0.091
    1UNL    C36   54   0.921   0.108   0.030
    1UNL    O19   55   0.929  -0.003  -0.062
    1UNL    C37   56   1.038   0.004  -0.165
    1UNL    C38   57   0.970   0.050  -0.293
    1UNL    O20   58   0.860  -0.032  -0.304
    1UNL    C39   59   1.153   0.102  -0.114
    1UNL    O21   60   1.212   0.063   0.008
    1UNL    C40   61   1.096   0.244  -0.094
    1UNL    O22   62   1.179   0.324  -0.013
    1UNL    C41   63   0.951   0.245  -0.034
    1UNL    O23   64   0.846   0.265  -0.137
    1UNL    C42   65   0.603  -0.003   0.159
    1UNL    C43   66   0.616   0.048   0.282
    1UNL    C44   67   0.517   0.061   0.387
    1UNL     H1   68  -0.463   0.355   0.048
    1UNL     H2   69  -0.443   0.434   0.196
    1UNL     H3   70  -0.305   0.358   0.123
    1UNL     H4   71  -0.437   0.231   0.334
    1UNL     H5   72  -0.589   0.207  -0.006
    1UNL     H6   73  -0.752  -0.059  -0.087
    1UNL     H7   74  -0.859   0.075  -0.261
    1UNL     H8   75  -0.693   0.309  -0.393
    1UNL     H9   76  -0.819   0.325  -0.277
    1UNL    H10   77  -0.868   0.189  -0.524
    1UNL    H11   78  -0.612   0.072  -0.447
    1UNL    H12   79  -0.855  -0.052  -0.495
    1UNL    H13   80  -0.641  -0.184  -0.427
    1UNL    H14   81  -0.798  -0.265  -0.277
    1UNL    H15   82  -0.607  -0.214  -0.179
    1UNL    H16   83  -0.438   0.016  -0.236
    1UNL    H17   84  -0.917   0.069   0.160
    1UNL    H18   85  -1.104  -0.199   0.416
    1UNL    H19   86  -0.945  -0.262   0.454
    1UNL    H20   87  -1.029  -0.295   0.301
    1UNL    H21   88  -0.593   0.092   0.390
    1UNL    H22   89  -0.552  -0.147   0.379
    1UNL    H23   90  -0.515  -0.141   0.213
    1UNL    H24   91  -0.129   0.006   0.317
    1UNL    H25   92  -0.144  -0.134   0.429
    1UNL    H26   93  -0.049  -0.291   0.250
    1UNL    H27   94   0.126  -0.040   0.308
    1UNL    H28   95   0.090  -0.187   0.414
    1UNL    H29   96   0.179  -0.204   0.262
    1UNL    H30   97  -0.003  -0.033   0.104
    1UNL    H31   98  -0.233  -0.058   0.049
    1UNL    H32   99  -0.198  -0.235   0.083
    1UNL    H33  100  -0.124  -0.052  -0.177
    1UNL    H34  101  -0.322  -0.167  -0.218
    1UNL    H35  102  -0.036  -0.328  -0.156
    1UNL    H36  103   0.012  -0.207  -0.366
    1UNL    H37  104   0.167  -0.225  -0.282
    1UNL    H38  105   0.089  -0.074  -0.290
    1UNL    H39  106   0.147  -0.136  -0.018
    1UNL    H40  107   0.072  -0.407   0.097
    1UNL    H41  108   0.172  -0.404  -0.038
    1UNL    H42  109   0.560  -0.225   0.035
    1UNL    H43  110   0.489  -0.268   0.193
    1UNL    H44  111   0.401  -0.043   0.207
    1UNL    H45  112   0.131   0.263  -0.204
    1UNL    H46  113   0.120   0.221  -0.032
    1UNL    H47  114   0.041   0.120  -0.154
    1UNL    H48  115   0.493   0.099  -0.194
    1UNL    H49  116   0.770  -0.074   0.032
    1UNL    H50  117   1.000   0.084   0.102
    1UNL    H51  118   1.079  -0.099  -0.188
    1UNL    H52  119   1.017   0.039  -0.388
    1UNL    H53  120   0.952   0.163  -0.283
    1UNL    H54  121   0.796  -0.041  -0.227
    1UNL    H55  122   1.230   0.110  -0.190
    1UNL    H56  123   1.227  -0.036   0.012
    1UNL    H57  124   1.100   0.293  -0.192
    1UNL    H58  125   1.230   0.258   0.042
    1UNL    H59  126   0.939   0.321   0.048
    1UNL    H60  127   0.766   0.208  -0.114
    1UNL    H61  128   0.714   0.093   0.297
    1UNL    H62  129   0.439   0.136   0.361
    1UNL    H63  130   0.473  -0.035   0.395
    1UNL    H64  131   0.555   0.092   0.484
   0.00000   0.00000   0.00000   0.00000   0.00000   0.00000   0.00000   0.00000   0.00000
Generated with MDTraj, t= 30.0
 131
    1UNL     C1    1  -0.371   0.331   0.168
    1UNL     C2    2  -0.444   0.220   0.244
    1UNL     C3    3  -0.541   0.132   0.201
    1UNL     C4    4  -0.599   0.133   0.057
    1UNL     O1    5  -0.575   0.011  -0.011
    1UNL     C5    6  -0.662  -0.001  -0.124
    1UNL     O2    7  -0.664   0.134  -0.192
    1UNL     C6    8  -0.747   0.131  -0.307
    1UNL     C7    9  -0.778   0.271  -0.356
    1UNL     O3   10  -0.874   0.270  -0.457
    1UNL     C8   11  -0.693   0.028  -0.412
    1UNL     O4   12  -0.780   0.012  -0.522
    1UNL     C9   13  -0.675  -0.115  -0.342
    1UNL     O5   14  -0.805  -0.164  -0.319
    1UNL    C10   15  -0.603  -0.107  -0.209
    1UNL     O6   16  -0.465  -0.076  -0.232
    1UNL     O7   17  -0.741   0.157   0.081
    1UNL    C11   18  -0.803   0.070   0.164
    1UNL    C12   19  -0.738  -0.007   0.253
    1UNL    C13   20  -0.806  -0.098   0.340
    1UNL     O8   21  -0.748  -0.173   0.415
    1UNL     O9   22  -0.940  -0.096   0.317
    1UNL    C14   23  -0.995  -0.206   0.383
    1UNL    C15   24  -0.593   0.027   0.291
    1UNL    C16   25  -0.508  -0.105   0.298
    1UNL    C17   26  -0.365  -0.072   0.331
    1UNL    O10   27  -0.339   0.021   0.405
    1UNL    O11   28  -0.274  -0.154   0.272
    1UNL    C18   29  -0.143  -0.108   0.312
    1UNL    C19   30  -0.026  -0.183   0.235
    1UNL    C20   31   0.107  -0.142   0.299
    1UNL    C21   32  -0.028  -0.141   0.084
    1UNL    C22   33  -0.167  -0.137   0.021
    1UNL    C23   34  -0.149  -0.169  -0.126
    1UNL    O12   35  -0.248  -0.264  -0.163
    1UNL    C24   36  -0.012  -0.245  -0.146
    1UNL    C25   37   0.073  -0.199  -0.270
    1UNL    C26   38   0.064  -0.219  -0.009
    1UNL    C27   39   0.137  -0.342   0.046
    1UNL    O13   40   0.256  -0.311   0.115
    1UNL    C28   41   0.348  -0.258   0.027
    1UNL    O14   42   0.343  -0.259  -0.095
    1UNL    C29   43   0.468  -0.193   0.093
    1UNL    C30   44   0.468  -0.038   0.119
    1UNL    C31   45   0.430   0.031  -0.004
    1UNL    C32   46   0.288   0.078  -0.025
    1UNL    O15   47   0.199   0.055   0.055
    1UNL    O16   48   0.258   0.139  -0.146
    1UNL    C33   49   0.119   0.184  -0.168
    1UNL    C34   50   0.536   0.065  -0.093
    1UNL    O17   51   0.663   0.039  -0.063
    1UNL    C35   52   0.700   0.038   0.083
    1UNL    O18   53   0.797   0.135   0.114
    1UNL    C36   54   0.920   0.114   0.033
    1UNL    O19   55   0.917   0.000  -0.048
    1UNL    C37   56   1.011   0.004  -0.162
    1UNL    C38   57   0.942   0.042  -0.289
    1UNL    O20   58   0.818  -0.028  -0.289
    1UNL    C39   59   1.129   0.097  -0.126
    1UNL    O21   60   1.194   0.055  -0.002
    1UNL    C40   61   1.082   0.243  -0.116
    1UNL    O22   62   1.176   0.313  -0.042
    1UNL    C41   63   0.939   0.245  -0.040
    1UNL    O23   64   0.833   0.258  -0.137
    1UNL    C42   65   0.590   0.025   0.184
    1UNL    C43   66   0.598   0.079   0.310
    1UNL    C44   67   0.504   0.065   0.425
    1UNL     H1   68  -0.386   0.318   0.063
    1UNL     H2   69  -0.425   0.421   0.195
    1UNL     H3   70  -0.264   0.344   0.187
    1UNL     H4   71  -0.397   0.197   0.341
    1UNL     H5   72  -0.564   0.217  -0.008
    1UNL     H6   73  -0.757  -0.017  -0.074
    1UNL     H7   74  -0.846   0.073  -0.275
    1UNL     H8   75  -0.686   0.308  -0.401
    1UNL     H9   76  -0.807   0.336  -0.277
    1UNL    H10   77  -0.851   0.181  -0.502
    1UNL    H11   78  -0.594   0.055  -0.454
    1UNL    H12   79  -0.836  -0.066  -0.501
    1UNL    H13   80  -0.621  -0.192  -0.406
    1UNL    H14   81  -0.798  -0.258  -0.285
    1UNL    H15   82  -0.615  -0.196  -0.148
    1UNL    H16   83  -0.421  -0.027  -0.161
    1UNL    H17   84  -0.907   0.052   0.143
    1UNL    H18   85  -1.072  -0.245   0.315
    1UNL    H19   86  -1.033  -0.176   0.476
    1UNL    H20   87  -0.921  -0.287   0.394
    1UNL    H21   88  -0.595   0.046   0.401
    1UNL    H22   89  -0.540  -0.180   0.372
    1UNL    H23   90  -0.516  -0.159   0.208
    1UNL    H24   91  -0.130   0.007   0.311
    1UNL    H25   92  -0.133  -0.138   0.416
    1UNL    H26   93  -0.046  -0.294   0.240
    1UNL    H27   94   0.123  -0.034   0.284
    1UNL    H28   95   0.112  -0.183   0.396
    1UNL    H29   96   0.184  -0.187   0.235
    1UNL    H30   97   0.006  -0.035   0.086
    1UNL    H31   98  -0.213  -0.038   0.043
    1UNL    H32   99  -0.233  -0.221   0.073
    1UNL    H33  100  -0.153  -0.082  -0.197
    1UNL    H34  101  -0.334  -0.222  -0.188
    1UNL    H35  102  -0.046  -0.346  -0.168
    1UNL    H36  103   0.025  -0.213  -0.364
    1UNL    H37  104   0.175  -0.235  -0.271
    1UNL    H38  105   0.084  -0.097  -0.263
    1UNL    H39  106   0.148  -0.156  -0.043
    1UNL    H40  107   0.072  -0.403   0.108
    1UNL    H41  108   0.157  -0.408  -0.042
    1UNL    H42  109   0.545  -0.212   0.021
    1UNL    H43  110   0.494  -0.256   0.180
    1UNL    H44  111   0.386  -0.030   0.192
    1UNL    H45  112   0.084   0.179  -0.271
    1UNL    H46  113   0.112   0.281  -0.137
    1UNL    H47  114   0.048   0.118  -0.114
    1UNL    H48  115   0.523   0.097  -0.191
    1UNL    H49  116   0.756  -0.063   0.078
    1UNL    H50  117   1.008   0.104   0.094
    1UNL    H51  118   1.057  -0.096  -0.171
    1UNL    H52  119   1.007   0.024  -0.371
    1UNL    H53  120   0.911   0.151  -0.307
    1UNL    H54  121   0.776  -0.033  -0.198
    1UNL    H55  122   1.213   0.083  -0.197
    1UNL    H56  123   1.221  -0.037  -0.016
    1UNL    H57  124   1.080   0.300  -0.212
    1UNL    H58  125   1.218   0.251   0.021
    1UNL    H59  126   0.923   0.322   0.038
    1UNL    H60  127   0.773   0.191  -0.111
    1UNL    H61  128   0.692   0.123   0.336
    1UNL    H62  129   0.407   0.032   0.389
    1UNL    H63  130   0.541  -0.018   0.481
    1UNL    H64  131   0.487   0.152   0.490
   0.00000   0.00000   0.00000   0.00000   0.00000   0.00000   0.00000   0.00000   0.00000
Generated with MDTraj, t= 31.0
 131
    1UNL     C1    1  -0.361   0.296   0.146
    1UNL     C2    2  -0.430   0.223   0.247
    1UNL     C3    3  -0.530   0.138   0.212
    1UNL     C4    4  -0.607   0.156   0.080
    1UNL     O1    5  -0.563   0.055  -0.010
    1UNL     C5    6  -0.639   0.047  -0.123
    1UNL     O2    7  -0.633   0.158  -0.210
    1UNL     C6    8  -0.729   0.139  -0.315
    1UNL     C7    9  -0.754   0.278  -0.378
    1UNL     O3   10  -0.851   0.284  -0.479
    1UNL     C8   11  -0.696   0.029  -0.413
    1UNL     O4   12  -0.788   0.006  -0.518
    1UNL     C9   13  -0.680  -0.106  -0.332
    1UNL     O5   14  -0.801  -0.167  -0.310
    1UNL    C10   15  -0.601  -0.083  -0.201
    1UNL     O6   16  -0.461  -0.075  -0.245
    1UNL     O7   17  -0.744   0.165   0.097
    1UNL    C11   18  -0.793   0.060   0.173
    1UNL    C12   19  -0.725  -0.013   0.265
    1UNL    C13   20  -0.800  -0.116   0.334
    1UNL     O8   21  -0.745  -0.175   0.423
    1UNL     O9   22  -0.932  -0.127   0.302
    1UNL    C14   23  -1.000  -0.188   0.410
    1UNL    C15   24  -0.577   0.026   0.293
    1UNL    C16   25  -0.496  -0.107   0.267
    1UNL    C17   26  -0.361  -0.099   0.331
    1UNL    O10   27  -0.349  -0.040   0.437
    1UNL    O11   28  -0.260  -0.155   0.257
    1UNL    C18   29  -0.137  -0.117   0.317
    1UNL    C19   30  -0.022  -0.180   0.241
    1UNL    C20   31   0.114  -0.127   0.286
    1UNL    C21   32  -0.032  -0.145   0.084
    1UNL    C22   33  -0.171  -0.181   0.023
    1UNL    C23   34  -0.140  -0.200  -0.122
    1UNL    O12   35  -0.237  -0.289  -0.182
    1UNL    C24   36   0.002  -0.266  -0.136
    1UNL    C25   37   0.073  -0.254  -0.263
    1UNL    C26   38   0.074  -0.212  -0.007
    1UNL    C27   39   0.153  -0.325   0.062
    1UNL    O13   40   0.270  -0.296   0.128
    1UNL    C28   41   0.354  -0.244   0.030
    1UNL    O14   42   0.348  -0.235  -0.092
    1UNL    C29   43   0.478  -0.181   0.090
    1UNL    C30   44   0.454  -0.035   0.126
    1UNL    C31   45   0.408   0.049   0.010
    1UNL    C32   46   0.274   0.088  -0.038
    1UNL    O15   47   0.180   0.075   0.041
    1UNL    O16   48   0.265   0.139  -0.165
    1UNL    C33   49   0.145   0.199  -0.202
    1UNL    C34   50   0.504   0.094  -0.069
    1UNL    O17   51   0.640   0.075  -0.051
    1UNL    C35   52   0.689   0.042   0.080
    1UNL    O18   53   0.804   0.120   0.135
    1UNL    C36   54   0.913   0.109   0.038
    1UNL    O19   55   0.901  -0.009  -0.047
    1UNL    C37   56   0.996  -0.007  -0.157
    1UNL    C38   57   0.920   0.004  -0.283
    1UNL    O20   58   0.789  -0.060  -0.274
    1UNL    C39   59   1.104   0.100  -0.138
    1UNL    O21   60   1.183   0.060  -0.028
    1UNL    C40   61   1.060   0.246  -0.118
    1UNL    O22   62   1.158   0.319  -0.046
    1UNL    C41   63   0.927   0.245  -0.035
    1UNL    O23   64   0.814   0.268  -0.121
    1UNL    C42   65   0.576   0.031   0.178
    1UNL    C43   66   0.601   0.061   0.309
    1UNL    C44   67   0.490   0.065   0.408
    1UNL     H1   68  -0.311   0.237   0.072
    1UNL     H2   69  -0.436   0.359   0.102
    1UNL     H3   70  -0.286   0.368   0.181
    1UNL     H4   71  -0.385   0.201   0.341
    1UNL     H5   72  -0.586   0.259   0.041
    1UNL     H6   73  -0.744   0.029  -0.092
    1UNL     H7   74  -0.836   0.113  -0.270
    1UNL     H8   75  -0.660   0.317  -0.412
    1UNL     H9   76  -0.786   0.338  -0.296
    1UNL    H10   77  -0.874   0.191  -0.501
    1UNL    H11   78  -0.601   0.064  -0.456
    1UNL    H12   79  -0.860  -0.053  -0.484
    1UNL    H13   80  -0.623  -0.180  -0.397
    1UNL    H14   81  -0.785  -0.263  -0.282
    1UNL    H15   82  -0.617  -0.167  -0.136
    1UNL    H16   83  -0.437   0.017  -0.279
    1UNL    H17   84  -0.901   0.050   0.169
    1UNL    H18   85  -1.093  -0.241   0.369
    1UNL    H19   86  -1.024  -0.111   0.482
    1UNL    H20   87  -0.929  -0.264   0.455
    1UNL    H21   88  -0.577   0.038   0.405
    1UNL    H22   89  -0.550  -0.193   0.311
    1UNL    H23   90  -0.491  -0.130   0.166
    1UNL    H24   91  -0.124  -0.004   0.307
    1UNL    H25   92  -0.140  -0.134   0.423
    1UNL    H26   93  -0.029  -0.291   0.250
    1UNL    H27   94   0.141  -0.024   0.262
    1UNL    H28   95   0.130  -0.153   0.392
    1UNL    H29   96   0.198  -0.171   0.242
    1UNL    H30   97  -0.014  -0.035   0.070
    1UNL    H31   98  -0.235  -0.089   0.033
    1UNL    H32   99  -0.230  -0.275   0.058
    1UNL    H33  100  -0.149  -0.099  -0.177
    1UNL    H34  101  -0.325  -0.241  -0.199
    1UNL    H35  102  -0.016  -0.372  -0.118
    1UNL    H36  103   0.016  -0.292  -0.344
    1UNL    H37  104   0.173  -0.293  -0.255
    1UNL    H38  105   0.083  -0.153  -0.284
    1UNL    H39  106   0.156  -0.145  -0.037
    1UNL    H40  107   0.090  -0.377   0.132
    1UNL    H41  108   0.180  -0.404  -0.014
    1UNL    H42  109   0.554  -0.200   0.016
    1UNL    H43  110   0.517  -0.238   0.176
    1UNL    H44  111   0.374  -0.040   0.199
    1UNL    H45  112   0.168   0.249  -0.297
    1UNL    H46  113   0.120   0.279  -0.140
    1UNL    H47  114   0.065   0.125  -0.231
    1UNL    H48  115   0.490   0.154  -0.159
    1UNL    H49  116   0.741  -0.062   0.061
    1UNL    H50  117   1.005   0.090   0.090
    1UNL    H51  118   1.045  -0.102  -0.154
    1UNL    H52  119   0.957  -0.029  -0.375
    1UNL    H53  120   0.897   0.114  -0.293
    1UNL    H54  121   0.745  -0.028  -0.195
    1UNL    H55  122   1.172   0.102  -0.229
    1UNL    H56  123   1.193  -0.035  -0.034
    1UNL    H57  124   1.045   0.298  -0.216
    1UNL    H58  125   1.213   0.254   0.006
    1UNL    H59  126   0.921   0.322   0.041
    1UNL    H60  127   0.742   0.197  -0.101
    1UNL    H61  128   0.702   0.083   0.353
    1UNL    H62  129   0.398   0.093   0.362
    1UNL    H63  130   0.474  -0.036   0.444
    1UNL    H64  131   0.501   0.133   0.495
   0.00000   0.00000   0.00000   0.00000   0.00000   0.00000   0.00000   0.00000   0.00000
Generated with MDTraj, t= 32.0
 131
    1UNL     C1    1  -0.348   0.293   0.173
    1UNL     C2    2  -0.411   0.187   0.243
    1UNL     C3    3  -0.520   0.116   0.211
    1UNL     C4    4  -0.586   0.139   0.079
    1UNL     O1    5  -0.546   0.030  -0.012
    1UNL     C5    6  -0.625   0.037  -0.129
    1UNL     O2    7  -0.624   0.154  -0.207
    1UNL     C6    8  -0.711   0.150  -0.320
    1UNL     C7    9  -0.712   0.283  -0.403
    1UNL     O3   10  -0.815   0.280  -0.499
    1UNL     C8   11  -0.690   0.033  -0.413
    1UNL     O4   12  -0.804   0.017  -0.502
    1UNL     C9   13  -0.689  -0.096  -0.329
    1UNL     O5   14  -0.816  -0.121  -0.276
    1UNL    C10   15  -0.584  -0.085  -0.219
    1UNL     O6   16  -0.445  -0.054  -0.261
    1UNL     O7   17  -0.727   0.151   0.068
    1UNL    C11   18  -0.790   0.063   0.161
    1UNL    C12   19  -0.741   0.007   0.274
    1UNL    C13   20  -0.816  -0.090   0.353
    1UNL     O8   21  -0.750  -0.158   0.432
    1UNL     O9   22  -0.950  -0.114   0.339
    1UNL    C14   23  -0.977  -0.238   0.411
    1UNL    C15   24  -0.588   0.017   0.304
    1UNL    C16   25  -0.510  -0.119   0.294
    1UNL    C17   26  -0.368  -0.101   0.334
    1UNL    O10   27  -0.343  -0.042   0.439
    1UNL    O11   28  -0.272  -0.150   0.249
    1UNL    C18   29  -0.144  -0.106   0.298
    1UNL    C19   30  -0.028  -0.181   0.235
    1UNL    C20   31   0.103  -0.114   0.287
    1UNL    C21   32  -0.021  -0.158   0.083
    1UNL    C22   33  -0.162  -0.166   0.011
    1UNL    C23   34  -0.129  -0.202  -0.133
    1UNL    O12   35  -0.240  -0.275  -0.198
    1UNL    C24   36  -0.000  -0.295  -0.137
    1UNL    C25   37   0.064  -0.284  -0.272
    1UNL    C26   38   0.077  -0.249  -0.008
    1UNL    C27   39   0.156  -0.354   0.066
    1UNL    O13   40   0.264  -0.298   0.131
    1UNL    C28   41   0.349  -0.245   0.035
    1UNL    O14   42   0.333  -0.253  -0.083
    1UNL    C29   43   0.468  -0.159   0.088
    1UNL    C30   44   0.450  -0.012   0.116
    1UNL    C31   45   0.417   0.058  -0.011
    1UNL    C32   46   0.275   0.091  -0.045
    1UNL    O15   47   0.193   0.044   0.036
    1UNL    O16   48   0.252   0.173  -0.151
    1UNL    C33   49   0.114   0.174  -0.177
    1UNL    C34   50   0.521   0.098  -0.086
    1UNL    O17   51   0.652   0.067  -0.047
    1UNL    C35   52   0.687   0.039   0.086
    1UNL    O18   53   0.786   0.139   0.133
    1UNL    C36   54   0.903   0.121   0.053
    1UNL    O19   55   0.899  -0.002  -0.023
    1UNL    C37   56   0.979  -0.009  -0.145
    1UNL    C38   57   0.898   0.018  -0.274
    1UNL    O20   58   0.787  -0.064  -0.276
    1UNL    C39   59   1.097   0.090  -0.146
    1UNL    O21   60   1.191   0.058  -0.042
    1UNL    C40   61   1.057   0.243  -0.130
    1UNL    O22   62   1.164   0.324  -0.070
    1UNL    C41   63   0.928   0.245  -0.037
    1UNL    O23   64   0.811   0.275  -0.107
    1UNL    C42   65   0.567   0.049   0.171
    1UNL    C43   66   0.577   0.082   0.303
    1UNL    C44   67   0.473   0.069   0.410
    1UNL     H1   68  -0.335   0.282   0.067
    1UNL     H2   69  -0.413   0.378   0.196
    1UNL     H3   70  -0.250   0.319   0.216
    1UNL     H4   71  -0.368   0.157   0.339
    1UNL     H5   72  -0.536   0.228   0.030
    1UNL     H6   73  -0.729   0.014  -0.096
    1UNL     H7   74  -0.822   0.132  -0.281
    1UNL     H8   75  -0.616   0.295  -0.452
    1UNL     H9   76  -0.719   0.365  -0.335
    1UNL    H10   77  -0.819   0.199  -0.555
    1UNL    H11   78  -0.596   0.053  -0.465
    1UNL    H12   79  -0.872  -0.039  -0.461
    1UNL    H13   80  -0.656  -0.181  -0.396
    1UNL    H14   81  -0.828  -0.216  -0.257
    1UNL    H15   82  -0.574  -0.173  -0.154
    1UNL    H16   83  -0.444   0.042  -0.241
    1UNL    H17   84  -0.892   0.042   0.128
    1UNL    H18   85  -1.087  -0.241   0.446
    1UNL    H19   86  -0.910  -0.234   0.498
    1UNL    H20   87  -0.945  -0.326   0.345
    1UNL    H21   88  -0.593   0.056   0.410
    1UNL    H22   89  -0.556  -0.197   0.357
    1UNL    H23   90  -0.522  -0.144   0.193
    1UNL    H24   91  -0.134   0.005   0.295
    1UNL    H25   92  -0.144  -0.131   0.400
    1UNL    H26   93  -0.030  -0.290   0.260
    1UNL    H27   94   0.115  -0.013   0.254
    1UNL    H28   95   0.099  -0.127   0.398
    1UNL    H29   96   0.200  -0.152   0.259
    1UNL    H30   97   0.016  -0.052   0.068
    1UNL    H31   98  -0.238  -0.079   0.011
    1UNL    H32   99  -0.213  -0.252   0.058
    1UNL    H33  100  -0.120  -0.096  -0.184
    1UNL    H34  101  -0.317  -0.211  -0.213
    1UNL    H35  102  -0.026  -0.399  -0.116
    1UNL    H36  103  -0.004  -0.294  -0.352
    1UNL    H37  104   0.141  -0.356  -0.268
    1UNL    H38  105   0.112  -0.189  -0.285
    1UNL    H39  106   0.153  -0.182  -0.049
    1UNL    H40  107   0.090  -0.392   0.142
    1UNL    H41  108   0.190  -0.446   0.009
    1UNL    H42  109   0.559  -0.178   0.031
    1UNL    H43  110   0.495  -0.212   0.180
    1UNL    H44  111   0.360   0.001   0.175
    1UNL    H45  112   0.101   0.245  -0.262
    1UNL    H46  113   0.053   0.216  -0.099
    1UNL    H47  114   0.082   0.071  -0.217
    1UNL    H48  115   0.511   0.171  -0.173
    1UNL    H49  116   0.738  -0.066   0.092
    1UNL    H50  117   0.990   0.105   0.116
    1UNL    H51  118   1.015  -0.108  -0.153
    1UNL    H52  119   0.946  -0.021  -0.359
    1UNL    H53  120   0.871   0.122  -0.297
    1UNL    H54  121   0.724  -0.029  -0.213
    1UNL    H55  122   1.153   0.089  -0.247
    1UNL    H56  123   1.198  -0.039  -0.031
    1UNL    H57  124   1.042   0.284  -0.234
    1UNL    H58  125   1.232   0.258  -0.046
    1UNL    H59  126   0.945   0.330   0.026
    1UNL    H60  127   0.730   0.226  -0.083
    1UNL    H61  128   0.669   0.094   0.353
    1UNL    H62  129   0.480   0.149   0.482
    1UNL    H63  130   0.369   0.072   0.375
    1UNL    H64  131   0.485  -0.020   0.472
   0.00000   0.00000   0.00000   0.00000   0.00000   0.00000   0.00000   0.00000   0.00000
Generated with MDTraj, t= 33.0
 131
    1UNL     C1    1  -0.344   0.286   0.176
    1UNL     C2    2  -0.417   0.193   0.256
    1UNL     C3    3  -0.525   0.123   0.216
    1UNL     C4    4  -0.588   0.132   0.077
    1UNL     O1    5  -0.538   0.022  -0.001
    1UNL     C5    6  -0.603   0.021  -0.131
    1UNL     O2    7  -0.593   0.138  -0.208
    1UNL     C6    8  -0.693   0.156  -0.312
    1UNL     C7    9  -0.666   0.291  -0.384
    1UNL     O3   10  -0.751   0.307  -0.496
    1UNL     C8   11  -0.692   0.032  -0.408
    1UNL     O4   12  -0.807   0.031  -0.499
    1UNL     C9   13  -0.691  -0.106  -0.327
    1UNL     O5   14  -0.816  -0.120  -0.256
    1UNL    C10   15  -0.575  -0.102  -0.225
    1UNL     O6   16  -0.447  -0.087  -0.286
    1UNL     O7   17  -0.734   0.117   0.080
    1UNL    C11   18  -0.782   0.043   0.178
    1UNL    C12   19  -0.731  -0.007   0.289
    1UNL    C13   20  -0.805  -0.105   0.360
    1UNL     O8   21  -0.762  -0.164   0.457
    1UNL     O9   22  -0.924  -0.132   0.303
    1UNL    C14   23  -1.003  -0.196   0.403
    1UNL    C15   24  -0.585   0.021   0.313
    1UNL    C16   25  -0.505  -0.107   0.296
    1UNL    C17   26  -0.366  -0.084   0.336
    1UNL    O10   27  -0.341  -0.016   0.435
    1UNL    O11   28  -0.274  -0.152   0.262
    1UNL    C18   29  -0.151  -0.096   0.294
    1UNL    C19   30  -0.049  -0.182   0.222
    1UNL    C20   31   0.085  -0.154   0.295
    1UNL    C21   32  -0.041  -0.141   0.070
    1UNL    C22   33  -0.170  -0.129  -0.021
    1UNL    C23   34  -0.141  -0.193  -0.153
    1UNL    O12   35  -0.253  -0.267  -0.207
    1UNL    C24   36  -0.021  -0.290  -0.132
    1UNL    C25   37   0.055  -0.323  -0.262
    1UNL    C26   38   0.057  -0.239  -0.013
    1UNL    C27   39   0.137  -0.342   0.053
    1UNL    O13   40   0.252  -0.287   0.114
    1UNL    C28   41   0.351  -0.249   0.031
    1UNL    O14   42   0.346  -0.269  -0.086
    1UNL    C29   43   0.459  -0.183   0.107
    1UNL    C30   44   0.440  -0.036   0.127
    1UNL    C31   45   0.404   0.028  -0.001
    1UNL    C32   46   0.264   0.063  -0.025
    1UNL    O15   47   0.173   0.026   0.049
    1UNL    O16   48   0.250   0.140  -0.139
    1UNL    C33   49   0.115   0.185  -0.152
    1UNL    C34   50   0.502   0.088  -0.082
    1UNL    O17   51   0.634   0.082  -0.062
    1UNL    C35   52   0.681   0.056   0.070
    1UNL    O18   53   0.781   0.147   0.117
    1UNL    C36   54   0.899   0.128   0.038
    1UNL    O19   55   0.911   0.003  -0.041
    1UNL    C37   56   0.997  -0.002  -0.158
    1UNL    C38   57   0.901   0.025  -0.279
    1UNL    O20   58   0.781  -0.045  -0.260
    1UNL    C39   59   1.111   0.095  -0.137
    1UNL    O21   60   1.183   0.069  -0.015
    1UNL    C40   61   1.067   0.245  -0.127
    1UNL    O22   62   1.177   0.321  -0.078
    1UNL    C41   63   0.935   0.261  -0.041
    1UNL    O23   64   0.831   0.296  -0.135
    1UNL    C42   65   0.562   0.035   0.169
    1UNL    C43   66   0.566   0.099   0.288
    1UNL    C44   67   0.474   0.102   0.409
    1UNL     H1   68  -0.282   0.240   0.100
    1UNL     H2   69  -0.425   0.348   0.135
    1UNL     H3   70  -0.287   0.356   0.238
    1UNL     H4   71  -0.373   0.159   0.347
    1UNL     H5   72  -0.550   0.227   0.027
    1UNL     H6   73  -0.713   0.020  -0.106
    1UNL     H7   74  -0.796   0.143  -0.257
    1UNL     H8   75  -0.562   0.286  -0.424
    1UNL     H9   76  -0.667   0.378  -0.318
    1UNL    H10   77  -0.778   0.215  -0.530
    1UNL    H11   78  -0.605   0.046  -0.473
    1UNL    H12   79  -0.873  -0.039  -0.475
    1UNL    H13   80  -0.690  -0.188  -0.402
    1UNL    H14   81  -0.841  -0.197  -0.204
    1UNL    H15   82  -0.558  -0.198  -0.171
    1UNL    H16   83  -0.433   0.011  -0.296
    1UNL    H17   84  -0.881   0.003   0.159
    1UNL    H18   85  -1.107  -0.173   0.369
    1UNL    H19   86  -0.986  -0.143   0.495
    1UNL    H20   87  -0.977  -0.304   0.414
    1UNL    H21   88  -0.576   0.058   0.419
    1UNL    H22   89  -0.557  -0.183   0.355
    1UNL    H23   90  -0.503  -0.129   0.190
    1UNL    H24   91  -0.144   0.000   0.241
    1UNL    H25   92  -0.142  -0.078   0.395
    1UNL    H26   93  -0.074  -0.289   0.239
    1UNL    H27   94   0.110  -0.053   0.281
    1UNL    H28   95   0.064  -0.193   0.398
    1UNL    H29   96   0.173  -0.210   0.252
    1UNL    H30   97   0.000  -0.035   0.070
    1UNL    H31   98  -0.201  -0.017  -0.033
    1UNL    H32   99  -0.254  -0.178   0.023
    1UNL    H33  100  -0.107  -0.114  -0.233
    1UNL    H34  101  -0.322  -0.207  -0.235
    1UNL    H35  102  -0.064  -0.384  -0.096
    1UNL    H36  103   0.017  -0.386  -0.337
    1UNL    H37  104   0.146  -0.354  -0.225
    1UNL    H38  105   0.076  -0.228  -0.312
    1UNL    H39  106   0.124  -0.172  -0.065
    1UNL    H40  107   0.084  -0.408   0.121
    1UNL    H41  108   0.179  -0.413  -0.023
    1UNL    H42  109   0.551  -0.212   0.054
    1UNL    H43  110   0.473  -0.238   0.198
    1UNL    H44  111   0.354  -0.022   0.190
    1UNL    H45  112   0.117   0.252  -0.241
    1UNL    H46  113   0.077   0.250  -0.073
    1UNL    H47  114   0.045   0.099  -0.177
    1UNL    H48  115   0.479   0.136  -0.178
    1UNL    H49  116   0.730  -0.047   0.046
    1UNL    H50  117   0.967   0.113   0.123
    1UNL    H51  118   1.041  -0.097  -0.169
    1UNL    H52  119   0.949   0.008  -0.372
    1UNL    H53  120   0.866   0.129  -0.275
    1UNL    H54  121   0.724  -0.014  -0.182
    1UNL    H55  122   1.189   0.093  -0.222
    1UNL    H56  123   1.185  -0.031  -0.008
    1UNL    H57  124   1.042   0.276  -0.233
    1UNL    H58  125   1.243   0.262  -0.032
    1UNL    H59  126   0.942   0.349   0.021
    1UNL    H60  127   0.750   0.248  -0.098
    1UNL    H61  128   0.658   0.159   0.317
    1UNL    H62  129   0.508   0.034   0.486
    1UNL    H63  130   0.477   0.205   0.451
    1UNL    H64  131   0.371   0.080   0.395
   0.00000   0.00000   0.00000   0.00000   0.00000   0.00000   0.00000   0.00000   0.00000
Generated with MDTraj, t= 34.0
 131
    1UNL     C1    1  -0.379   0.286   0.161
    1UNL     C2    2  -0.445   0.191   0.250
    1UNL     C3    3  -0.549   0.115   0.216
    1UNL     C4    4  -0.594   0.113   0.075
    1UNL     O1    5  -0.560  -0.000   0.009
    1UNL     C5    6  -0.610   0.018  -0.123
    1UNL     O2    7  -0.569   0.133  -0.194
    1UNL     C6    8  -0.665   0.161  -0.301
    1UNL     C7    9  -0.619   0.278  -0.378
    1UNL     O3   10  -0.711   0.319  -0.474
    1UNL     C8   11  -0.686   0.038  -0.396
    1UNL     O4   12  -0.797   0.054  -0.478
    1UNL     C9   13  -0.687  -0.101  -0.329
    1UNL     O5   14  -0.816  -0.126  -0.273
    1UNL    C10   15  -0.582  -0.109  -0.215
    1UNL     O6   16  -0.455  -0.095  -0.259
    1UNL     O7   17  -0.739   0.136   0.070
    1UNL    C11   18  -0.800   0.047   0.143
    1UNL    C12   19  -0.750  -0.021   0.250
    1UNL    C13   20  -0.832  -0.095   0.340
    1UNL     O8   21  -0.790  -0.126   0.451
    1UNL     O9   22  -0.966  -0.119   0.302
    1UNL    C14   23  -1.015  -0.199   0.410
    1UNL    C15   24  -0.607   0.016   0.310
    1UNL    C16   25  -0.515  -0.105   0.331
    1UNL    C17   26  -0.365  -0.080   0.346
    1UNL    O10   27  -0.312  -0.028   0.443
    1UNL    O11   28  -0.282  -0.127   0.249
    1UNL    C18   29  -0.143  -0.097   0.283
    1UNL    C19   30  -0.040  -0.193   0.224
    1UNL    C20   31   0.099  -0.157   0.285
    1UNL    C21   32  -0.033  -0.163   0.074
    1UNL    C22   33  -0.168  -0.163   0.007
    1UNL    C23   34  -0.149  -0.213  -0.138
    1UNL    O12   35  -0.262  -0.288  -0.185
    1UNL    C24   36  -0.023  -0.305  -0.134
    1UNL    C25   37   0.043  -0.304  -0.277
    1UNL    C26   38   0.065  -0.251  -0.024
    1UNL    C27   39   0.162  -0.354   0.049
    1UNL    O13   40   0.270  -0.294   0.117
    1UNL    C28   41   0.366  -0.253   0.031
    1UNL    O14   42   0.360  -0.263  -0.090
    1UNL    C29   43   0.481  -0.181   0.099
    1UNL    C30   44   0.449  -0.032   0.115
    1UNL    C31   45   0.407   0.045  -0.008
    1UNL    C32   46   0.264   0.079  -0.017
    1UNL    O15   47   0.191   0.077   0.082
    1UNL    O16   48   0.217   0.116  -0.138
    1UNL    C33   49   0.085   0.172  -0.130
    1UNL    C34   50   0.499   0.101  -0.094
    1UNL    O17   51   0.630   0.083  -0.078
    1UNL    C35   52   0.677   0.050   0.062
    1UNL    O18   53   0.782   0.137   0.107
    1UNL    C36   54   0.893   0.127   0.030
    1UNL    O19   55   0.904   0.009  -0.050
    1UNL    C37   56   0.999   0.012  -0.158
    1UNL    C38   57   0.939   0.028  -0.301
    1UNL    O20   58   0.806  -0.028  -0.306
    1UNL    C39   59   1.117   0.102  -0.123
    1UNL    O21   60   1.181   0.067   0.006
    1UNL    C40   61   1.064   0.250  -0.120
    1UNL    O22   62   1.152   0.322  -0.037
    1UNL    C41   63   0.922   0.253  -0.054
    1UNL    O23   64   0.830   0.273  -0.161
    1UNL    C42   65   0.572   0.038   0.170
    1UNL    C43   66   0.594   0.092   0.292
    1UNL    C44   67   0.479   0.111   0.377
    1UNL     H1   68  -0.318   0.238   0.082
    1UNL     H2   69  -0.459   0.355   0.127
    1UNL     H3   70  -0.314   0.360   0.208
    1UNL     H4   71  -0.403   0.175   0.349
    1UNL     H5   72  -0.545   0.203   0.032
    1UNL     H6   73  -0.720   0.037  -0.117
    1UNL     H7   74  -0.760   0.185  -0.237
    1UNL     H8   75  -0.525   0.254  -0.436
    1UNL     H9   76  -0.593   0.366  -0.316
    1UNL    H10   77  -0.765   0.247  -0.500
    1UNL    H11   78  -0.600   0.054  -0.461
    1UNL    H12   79  -0.873   0.014  -0.433
    1UNL    H13   80  -0.669  -0.187  -0.391
    1UNL    H14   81  -0.810  -0.214  -0.231
    1UNL    H15   82  -0.582  -0.211  -0.165
    1UNL    H16   83  -0.440   0.001  -0.259
    1UNL    H17   84  -0.908   0.040   0.137
    1UNL    H18   85  -1.036  -0.295   0.367
    1UNL    H19   86  -1.108  -0.154   0.434
    1UNL    H20   87  -0.950  -0.204   0.495
    1UNL    H21   88  -0.615   0.069   0.409
    1UNL    H22   89  -0.550  -0.143   0.426
    1UNL    H23   90  -0.534  -0.168   0.244
    1UNL    H24   91  -0.121   0.008   0.259
    1UNL    H25   92  -0.135  -0.109   0.384
    1UNL    H26   93  -0.082  -0.293   0.253
    1UNL    H27   94   0.133  -0.066   0.241
    1UNL    H28   95   0.095  -0.161   0.397
    1UNL    H29   96   0.176  -0.226   0.264
    1UNL    H30   97  -0.000  -0.055   0.074
    1UNL    H31   98  -0.211  -0.054   0.020
    1UNL    H32   99  -0.241  -0.222   0.058
    1UNL    H33  100  -0.115  -0.129  -0.213
    1UNL    H34  101  -0.340  -0.226  -0.200
    1UNL    H35  102  -0.047  -0.406  -0.100
    1UNL    H36  103  -0.021  -0.307  -0.359
    1UNL    H37  104   0.120  -0.373  -0.282
    1UNL    H38  105   0.091  -0.207  -0.286
    1UNL    H39  106   0.129  -0.177  -0.068
    1UNL    H40  107   0.119  -0.423   0.120
    1UNL    H41  108   0.211  -0.422  -0.026
    1UNL    H42  109   0.572  -0.201   0.038
    1UNL    H43  110   0.508  -0.238   0.185
    1UNL    H44  111   0.365  -0.030   0.182
    1UNL    H45  112   0.079   0.224  -0.227
    1UNL    H46  113   0.069   0.247  -0.050
    1UNL    H47  114   0.007   0.094  -0.134
    1UNL    H48  115   0.472   0.162  -0.173
    1UNL    H49  116   0.717  -0.053   0.035
    1UNL    H50  117   0.972   0.128   0.109
    1UNL    H51  118   1.033  -0.088  -0.148
    1UNL    H52  119   0.992  -0.024  -0.378
    1UNL    H53  120   0.938   0.137  -0.318
    1UNL    H54  121   0.764  -0.007  -0.219
    1UNL    H55  122   1.200   0.097  -0.201
    1UNL    H56  123   1.212  -0.026  -0.013
    1UNL    H57  124   1.059   0.303  -0.219
    1UNL    H58  125   1.227   0.273   0.005
    1UNL    H59  126   0.923   0.346   0.003
    1UNL    H60  127   0.747   0.223  -0.140
    1UNL    H61  128   0.677   0.146   0.317
    1UNL    H62  129   0.411   0.025   0.376
    1UNL    H63  130   0.517   0.121   0.481
    1UNL    H64  131   0.427   0.201   0.355
   0.00000   0.00000   0.00000   0.00000   0.00000   0.00000   0.00000   0.00000   0.00000
Generated with MDTraj, t= 35.0
 131
    1UNL     C1    1  -0.377   0.310   0.177
    1UNL     C2    2  -0.452   0.215   0.270
    1UNL     C3    3  -0.535   0.120   0.219
    1UNL     C4    4  -0.594   0.106   0.081
    1UNL     O1    5  -0.552  -0.008   0.010
    1UNL     C5    6  -0.613   0.003  -0.118
    1UNL     O2    7  -0.571   0.115  -0.190
    1UNL     C6    8  -0.660   0.156  -0.303
    1UNL     C7    9  -0.606   0.283  -0.360
    1UNL     O3   10  -0.683   0.324  -0.467
    1UNL     C8   11  -0.669   0.041  -0.410
    1UNL     O4   12  -0.769   0.064  -0.511
    1UNL     C9   13  -0.690  -0.089  -0.337
    1UNL     O5   14  -0.830  -0.111  -0.312
    1UNL    C10   15  -0.594  -0.117  -0.218
    1UNL     O6   16  -0.462  -0.125  -0.248
    1UNL     O7   17  -0.732   0.133   0.082
    1UNL    C11   18  -0.796   0.059   0.181
    1UNL    C12   19  -0.743   0.001   0.286
    1UNL    C13   20  -0.822  -0.086   0.367
    1UNL     O8   21  -0.794  -0.150   0.467
    1UNL     O9   22  -0.950  -0.096   0.315
    1UNL    C14   23  -1.027  -0.191   0.388
    1UNL    C15   24  -0.593   0.014   0.305
    1UNL    C16   25  -0.520  -0.115   0.275
    1UNL    C17   26  -0.382  -0.086   0.329
    1UNL    O10   27  -0.372  -0.015   0.428
    1UNL    O11   28  -0.282  -0.141   0.256
    1UNL    C18   29  -0.156  -0.107   0.307
    1UNL    C19   30  -0.041  -0.183   0.233
    1UNL    C20   31   0.091  -0.146   0.293
    1UNL    C21   32  -0.044  -0.160   0.080
    1UNL    C22   33  -0.179  -0.190   0.015
    1UNL    C23   34  -0.145  -0.238  -0.135
    1UNL    O12   35  -0.241  -0.338  -0.169
    1UNL    C24   36  -0.004  -0.297  -0.121
    1UNL    C25   37   0.071  -0.290  -0.262
    1UNL    C26   38   0.063  -0.231  -0.006
    1UNL    C27   39   0.154  -0.346   0.073
    1UNL    O13   40   0.274  -0.295   0.125
    1UNL    C28   41   0.347  -0.249   0.022
    1UNL    O14   42   0.319  -0.255  -0.098
    1UNL    C29   43   0.470  -0.170   0.060
    1UNL    C30   44   0.441  -0.035   0.115
    1UNL    C31   45   0.398   0.053   0.003
    1UNL    C32   46   0.255   0.089  -0.011
    1UNL    O15   47   0.181   0.069   0.087
    1UNL    O16   48   0.213   0.141  -0.129
    1UNL    C33   49   0.071   0.158  -0.140
    1UNL    C34   50   0.489   0.084  -0.088
    1UNL    O17   51   0.618   0.062  -0.078
    1UNL    C35   52   0.671   0.045   0.052
    1UNL    O18   53   0.781   0.144   0.080
    1UNL    C36   54   0.903   0.135   0.023
    1UNL    O19   55   0.912   0.014  -0.066
    1UNL    C37   56   1.013   0.010  -0.167
    1UNL    C38   57   0.957   0.046  -0.306
    1UNL    O20   58   0.840  -0.025  -0.334
    1UNL    C39   59   1.126   0.111  -0.127
    1UNL    O21   60   1.186   0.070  -0.009
    1UNL    C40   61   1.075   0.265  -0.101
    1UNL    O22   62   1.152   0.330  -0.009
    1UNL    C41   63   0.929   0.260  -0.063
    1UNL    O23   64   0.833   0.252  -0.172
    1UNL    C42   65   0.566   0.031   0.163
    1UNL    C43   66   0.580   0.098   0.277
    1UNL    C44   67   0.488   0.083   0.384
    1UNL     H1   68  -0.452   0.355   0.108
    1UNL     H2   69  -0.339   0.393   0.239
    1UNL     H3   70  -0.297   0.280   0.109
    1UNL     H4   71  -0.432   0.217   0.376
    1UNL     H5   72  -0.552   0.188   0.019
    1UNL     H6   73  -0.718   0.031  -0.098
    1UNL     H7   74  -0.766   0.174  -0.259
    1UNL     H8   75  -0.495   0.274  -0.389
    1UNL     H9   76  -0.618   0.366  -0.287
    1UNL    H10   77  -0.706   0.245  -0.531
    1UNL    H11   78  -0.584   0.038  -0.481
    1UNL    H12   79  -0.858   0.046  -0.471
    1UNL    H13   80  -0.676  -0.168  -0.408
    1UNL    H14   81  -0.846  -0.200  -0.264
    1UNL    H15   82  -0.621  -0.214  -0.164
    1UNL    H16   83  -0.433  -0.029  -0.253
    1UNL    H17   84  -0.904   0.046   0.166
    1UNL    H18   85  -0.979  -0.227   0.477
    1UNL    H19   86  -1.035  -0.272   0.319
    1UNL    H20   87  -1.124  -0.153   0.404
    1UNL    H21   88  -0.582   0.046   0.412
    1UNL    H22   89  -0.574  -0.191   0.325
    1UNL    H23   90  -0.518  -0.117   0.163
    1UNL    H24   91  -0.137  -0.000   0.279
    1UNL    H25   92  -0.161  -0.117   0.411
    1UNL    H26   93  -0.065  -0.290   0.251
    1UNL    H27   94   0.110  -0.041   0.268
    1UNL    H28   95   0.088  -0.166   0.401
    1UNL    H29   96   0.181  -0.191   0.265
    1UNL    H30   97  -0.018  -0.054   0.069
    1UNL    H31   98  -0.248  -0.100   0.013
    1UNL    H32   99  -0.232  -0.260   0.077
    1UNL    H33  100  -0.141  -0.152  -0.213
    1UNL    H34  101  -0.320  -0.289  -0.193
    1UNL    H35  102  -0.025  -0.403  -0.101
    1UNL    H36  103   0.025  -0.353  -0.331
    1UNL    H37  104   0.172  -0.322  -0.253
    1UNL    H38  105   0.070  -0.196  -0.310
    1UNL    H39  106   0.120  -0.154  -0.052
    1UNL    H40  107   0.102  -0.410   0.143
    1UNL    H41  108   0.194  -0.417  -0.002
    1UNL    H42  109   0.536  -0.162  -0.031
    1UNL    H43  110   0.535  -0.229   0.121
    1UNL    H44  111   0.369  -0.039   0.195
    1UNL    H45  112   0.046   0.152  -0.244
    1UNL    H46  113   0.034   0.256  -0.099
    1UNL    H47  114   0.022   0.077  -0.094
    1UNL    H48  115   0.466   0.149  -0.176
    1UNL    H49  116   0.723  -0.054   0.046
    1UNL    H50  117   0.979   0.127   0.106
    1UNL    H51  118   1.050  -0.092  -0.168
    1UNL    H52  119   1.037   0.013  -0.371
    1UNL    H53  120   0.930   0.153  -0.322
    1UNL    H54  121   0.792  -0.027  -0.250
    1UNL    H55  122   1.203   0.122  -0.206
    1UNL    H56  123   1.180  -0.026  -0.004
    1UNL    H57  124   1.083   0.314  -0.199
    1UNL    H58  125   1.229   0.278   0.023
    1UNL    H59  126   0.900   0.349  -0.004
    1UNL    H60  127   0.748   0.199  -0.148
    1UNL    H61  128   0.666   0.172   0.293
    1UNL    H62  129   0.485  -0.020   0.423
    1UNL    H63  130   0.524   0.145   0.466
    1UNL    H64  131   0.387   0.120   0.363
   0.00000   0.00000   0.00000   0.00000   0.00000   0.00000   0.00000   0.00000   0.00000
Generated with MDTraj, t= 36.0
 131
    1UNL     C1    1  -0.392   0.328   0.189
    1UNL     C2    2  -0.439   0.200   0.257
    1UNL     C3    3  -0.540   0.121   0.212
    1UNL     C4    4  -0.599   0.129   0.068
    1UNL     O1    5  -0.580   0.007   0.004
    1UNL     C5    6  -0.633   0.019  -0.121
    1UNL     O2    7  -0.569   0.129  -0.189
    1UNL     C6    8  -0.644   0.155  -0.312
    1UNL     C7    9  -0.601   0.287  -0.371
    1UNL     O3   10  -0.687   0.326  -0.473
    1UNL     C8   11  -0.629   0.031  -0.413
    1UNL     O4   12  -0.699   0.047  -0.539
    1UNL     C9   13  -0.682  -0.091  -0.339
    1UNL     O5   14  -0.826  -0.081  -0.319
    1UNL    C10   15  -0.615  -0.112  -0.197
    1UNL     O6   16  -0.478  -0.157  -0.195
    1UNL     O7   17  -0.737   0.158   0.077
    1UNL    C11   18  -0.802   0.072   0.167
    1UNL    C12   19  -0.749  -0.005   0.262
    1UNL    C13   20  -0.832  -0.092   0.343
    1UNL     O8   21  -0.780  -0.159   0.429
    1UNL     O9   22  -0.965  -0.099   0.328
    1UNL    C14   23  -1.028  -0.178   0.427
    1UNL    C15   24  -0.599   0.015   0.301
    1UNL    C16   25  -0.528  -0.129   0.313
    1UNL    C17   26  -0.391  -0.106   0.353
    1UNL    O10   27  -0.361  -0.027   0.441
    1UNL    O11   28  -0.295  -0.189   0.294
    1UNL    C18   29  -0.166  -0.139   0.321
    1UNL    C19   30  -0.046  -0.196   0.246
    1UNL    C20   31   0.075  -0.119   0.301
    1UNL    C21   32  -0.045  -0.170   0.097
    1UNL    C22   33  -0.181  -0.205   0.034
    1UNL    C23   34  -0.148  -0.233  -0.122
    1UNL    O12   35  -0.245  -0.314  -0.176
    1UNL    C24   36  -0.015  -0.292  -0.123
    1UNL    C25   37   0.070  -0.274  -0.254
    1UNL    C26   38   0.064  -0.239   0.000
    1UNL    C27   39   0.140  -0.355   0.071
    1UNL    O13   40   0.256  -0.293   0.131
    1UNL    C28   41   0.343  -0.253   0.036
    1UNL    O14   42   0.317  -0.280  -0.081
    1UNL    C29   43   0.466  -0.181   0.063
    1UNL    C30   44   0.446  -0.036   0.094
    1UNL    C31   45   0.398   0.039  -0.025
    1UNL    C32   46   0.254   0.067  -0.043
    1UNL    O15   47   0.171   0.025   0.037
    1UNL    O16   48   0.218   0.143  -0.148
    1UNL    C33   49   0.088   0.196  -0.136
    1UNL    C34   50   0.491   0.102  -0.106
    1UNL    O17   51   0.621   0.121  -0.077
    1UNL    C35   52   0.678   0.054   0.034
    1UNL    O18   53   0.790   0.133   0.091
    1UNL    C36   54   0.898   0.130   0.018
    1UNL    O19   55   0.908   0.018  -0.078
    1UNL    C37   56   1.015   0.025  -0.167
    1UNL    C38   57   0.962   0.035  -0.311
    1UNL    O20   58   0.845  -0.044  -0.321
    1UNL    C39   59   1.135   0.122  -0.131
    1UNL    O21   60   1.180   0.084  -0.009
    1UNL    C40   61   1.079   0.274  -0.108
    1UNL    O22   62   1.157   0.349  -0.020
    1UNL    C41   63   0.926   0.256  -0.060
    1UNL    O23   64   0.824   0.290  -0.163
    1UNL    C42   65   0.574   0.027   0.144
    1UNL    C43   66   0.603   0.059   0.272
    1UNL    C44   67   0.511   0.063   0.388
    1UNL     H1   68  -0.474   0.404   0.209
    1UNL     H2   69  -0.302   0.367   0.239
    1UNL     H3   70  -0.384   0.343   0.080
    1UNL     H4   71  -0.402   0.173   0.356
    1UNL     H5   72  -0.546   0.194  -0.002
    1UNL     H6   73  -0.738   0.050  -0.114
    1UNL     H7   74  -0.755   0.170  -0.283
    1UNL     H8   75  -0.491   0.274  -0.403
    1UNL     H9   76  -0.609   0.365  -0.290
    1UNL    H10   77  -0.695   0.253  -0.532
    1UNL    H11   78  -0.525   0.008  -0.440
    1UNL    H12   79  -0.789   0.043  -0.500
    1UNL    H13   80  -0.660  -0.183  -0.393
    1UNL    H14   81  -0.867  -0.151  -0.259
    1UNL    H15   82  -0.668  -0.201  -0.149
    1UNL    H16   83  -0.417  -0.085  -0.226
    1UNL    H17   84  -0.908   0.054   0.152
    1UNL    H18   85  -1.130  -0.147   0.452
    1UNL    H19   86  -0.970  -0.166   0.521
    1UNL    H20   87  -1.019  -0.283   0.398
    1UNL    H21   88  -0.609   0.058   0.401
    1UNL    H22   89  -0.582  -0.182   0.386
    1UNL    H23   90  -0.535  -0.174   0.211
    1UNL    H24   91  -0.179  -0.024   0.312
    1UNL    H25   92  -0.151  -0.166   0.425
    1UNL    H26   93  -0.037  -0.304   0.264
    1UNL    H27   94   0.056  -0.013   0.281
    1UNL    H28   95   0.096  -0.151   0.401
    1UNL    H29   96   0.167  -0.139   0.242
    1UNL    H30   97  -0.021  -0.065   0.075
    1UNL    H31   98  -0.259  -0.130   0.052
    1UNL    H32   99  -0.223  -0.303   0.068
    1UNL    H33  100  -0.143  -0.139  -0.185
    1UNL    H34  101  -0.333  -0.262  -0.173
    1UNL    H35  102  -0.039  -0.400  -0.104
    1UNL    H36  103   0.022  -0.320  -0.335
    1UNL    H37  104   0.167  -0.318  -0.244
    1UNL    H38  105   0.086  -0.178  -0.284
    1UNL    H39  106   0.138  -0.168  -0.024
    1UNL    H40  107   0.091  -0.411   0.150
    1UNL    H41  108   0.176  -0.419  -0.010
    1UNL    H42  109   0.539  -0.194  -0.019
    1UNL    H43  110   0.519  -0.227   0.145
    1UNL    H44  111   0.374  -0.031   0.174
    1UNL    H45  112   0.080   0.286  -0.192
    1UNL    H46  113   0.064   0.215  -0.028
    1UNL    H47  114   0.022   0.127  -0.175
    1UNL    H48  115   0.466   0.145  -0.207
    1UNL    H49  116   0.715  -0.045   0.007
    1UNL    H50  117   0.990   0.111   0.080
    1UNL    H51  118   1.054  -0.078  -0.158
    1UNL    H52  119   1.031   0.004  -0.390
    1UNL    H53  120   0.932   0.143  -0.316
    1UNL    H54  121   0.785  -0.012  -0.245
    1UNL    H55  122   1.211   0.125  -0.208
    1UNL    H56  123   1.210  -0.008  -0.009
    1UNL    H57  124   1.089   0.328  -0.201
    1UNL    H58  125   1.216   0.296   0.039
    1UNL    H59  126   0.913   0.333   0.023
    1UNL    H60  127   0.749   0.242  -0.134
    1UNL    H61  128   0.692   0.106   0.287
    1UNL    H62  129   0.565   0.039   0.482
    1UNL    H63  130   0.475   0.163   0.399
    1UNL    H64  131   0.420  -0.001   0.378
   0.00000   0.00000   0.00000   0.00000   0.00000   0.00000   0.00000   0.00000   0.00000
Generated with MDTraj, t= 37.0
 131
    1UNL     C1    1  -0.371   0.295   0.192
    1UNL     C2    2  -0.457   0.204   0.277
    1UNL     C3    3  -0.552   0.122   0.229
    1UNL     C4    4  -0.607   0.128   0.088
    1UNL     O1    5  -0.591   0.018   0.006
    1UNL     C5    6  -0.644   0.034  -0.121
    1UNL     O2    7  -0.585   0.145  -0.189
    1UNL     C6    8  -0.643   0.157  -0.321
    1UNL     C7    9  -0.581   0.277  -0.394
    1UNL     O3   10  -0.656   0.305  -0.508
    1UNL     C8   11  -0.616   0.022  -0.400
    1UNL     O4   12  -0.654   0.037  -0.543
    1UNL     C9   13  -0.683  -0.092  -0.338
    1UNL     O5   14  -0.822  -0.074  -0.351
    1UNL    C10   15  -0.625  -0.100  -0.193
    1UNL     O6   16  -0.488  -0.135  -0.215
    1UNL     O7   17  -0.748   0.155   0.101
    1UNL    C11   18  -0.811   0.068   0.183
    1UNL    C12   19  -0.756  -0.015   0.276
    1UNL    C13   20  -0.838  -0.105   0.351
    1UNL     O8   21  -0.790  -0.188   0.425
    1UNL     O9   22  -0.974  -0.083   0.339
    1UNL    C14   23  -1.041  -0.164   0.422
    1UNL    C15   24  -0.606   0.012   0.304
    1UNL    C16   25  -0.519  -0.125   0.297
    1UNL    C17   26  -0.379  -0.096   0.350
    1UNL    O10   27  -0.358  -0.031   0.450
    1UNL    O11   28  -0.286  -0.157   0.277
    1UNL    C18   29  -0.162  -0.127   0.329
    1UNL    C19   30  -0.053  -0.204   0.257
    1UNL    C20   31   0.088  -0.165   0.319
    1UNL    C21   32  -0.063  -0.183   0.111
    1UNL    C22   33  -0.203  -0.206   0.052
    1UNL    C23   34  -0.172  -0.234  -0.107
    1UNL    O12   35  -0.276  -0.310  -0.158
    1UNL    C24   36  -0.033  -0.295  -0.112
    1UNL    C25   37   0.050  -0.250  -0.233
    1UNL    C26   38   0.046  -0.252   0.017
    1UNL    C27   39   0.140  -0.359   0.067
    1UNL    O13   40   0.250  -0.292   0.127
    1UNL    C28   41   0.347  -0.263   0.040
    1UNL    O14   42   0.336  -0.294  -0.078
    1UNL    C29   43   0.474  -0.186   0.072
    1UNL    C30   44   0.455  -0.035   0.094
    1UNL    C31   45   0.404   0.036  -0.028
    1UNL    C32   46   0.264   0.072  -0.054
    1UNL    O15   47   0.180   0.006   0.002
    1UNL    O16   48   0.233   0.173  -0.139
    1UNL    C33   49   0.097   0.184  -0.162
    1UNL    C34   50   0.495   0.110  -0.106
    1UNL    O17   51   0.628   0.117  -0.082
    1UNL    C35   52   0.680   0.073   0.042
    1UNL    O18   53   0.794   0.149   0.098
    1UNL    C36   54   0.904   0.137   0.023
    1UNL    O19   55   0.911   0.024  -0.076
    1UNL    C37   56   1.019   0.028  -0.167
    1UNL    C38   57   0.959   0.060  -0.304
    1UNL    O20   58   0.850  -0.022  -0.336
    1UNL    C39   59   1.133   0.125  -0.131
    1UNL    O21   60   1.200   0.089  -0.013
    1UNL    C40   61   1.070   0.267  -0.120
    1UNL    O22   62   1.159   0.351  -0.064
    1UNL    C41   63   0.931   0.269  -0.054
    1UNL    O23   64   0.829   0.295  -0.158
    1UNL    C42   65   0.572   0.039   0.146
    1UNL    C43   66   0.594   0.046   0.276
    1UNL    C44   67   0.502   0.002   0.383
    1UNL     H1   68  -0.433   0.359   0.125
    1UNL     H2   69  -0.328   0.370   0.261
    1UNL     H3   70  -0.291   0.253   0.126
    1UNL     H4   71  -0.437   0.194   0.383
    1UNL     H5   72  -0.559   0.209   0.037
    1UNL     H6   73  -0.754   0.040  -0.110
    1UNL     H7   74  -0.752   0.188  -0.318
    1UNL     H8   75  -0.473   0.247  -0.418
    1UNL     H9   76  -0.579   0.362  -0.322
    1UNL    H10   77  -0.659   0.220  -0.564
    1UNL    H11   78  -0.506   0.010  -0.408
    1UNL    H12   79  -0.747   0.003  -0.549
    1UNL    H13   80  -0.655  -0.188  -0.386
    1UNL    H14   81  -0.871  -0.137  -0.297
    1UNL    H15   82  -0.671  -0.179  -0.130
    1UNL    H16   83  -0.436  -0.059  -0.188
    1UNL    H17   84  -0.919   0.079   0.179
    1UNL    H18   85  -1.020  -0.271   0.400
    1UNL    H19   86  -1.154  -0.155   0.404
    1UNL    H20   87  -1.017  -0.137   0.529
    1UNL    H21   88  -0.603   0.032   0.411
    1UNL    H22   89  -0.569  -0.195   0.357
    1UNL    H23   90  -0.520  -0.162   0.192
    1UNL    H24   91  -0.142  -0.015   0.298
    1UNL    H25   92  -0.162  -0.135   0.440
    1UNL    H26   93  -0.070  -0.312   0.269
    1UNL    H27   94   0.119  -0.063   0.287
    1UNL    H28   95   0.092  -0.186   0.421
    1UNL    H29   96   0.170  -0.227   0.276
    1UNL    H30   97  -0.043  -0.077   0.085
    1UNL    H31   98  -0.272  -0.126   0.063
    1UNL    H32   99  -0.255  -0.298   0.097
    1UNL    H33  100  -0.170  -0.136  -0.156
    1UNL    H34  101  -0.354  -0.255  -0.172
    1UNL    H35  102  -0.043  -0.405  -0.119
    1UNL    H36  103  -0.004  -0.263  -0.323
    1UNL    H37  104   0.147  -0.294  -0.240
    1UNL    H38  105   0.062  -0.147  -0.230
    1UNL    H39  106   0.117  -0.174  -0.002
    1UNL    H40  107   0.088  -0.415   0.142
    1UNL    H41  108   0.178  -0.416  -0.018
    1UNL    H42  109   0.554  -0.193  -0.002
    1UNL    H43  110   0.521  -0.227   0.162
    1UNL    H44  111   0.381  -0.037   0.172
    1UNL    H45  112   0.076   0.257  -0.236
    1UNL    H46  113   0.052   0.214  -0.063
    1UNL    H47  114   0.063   0.091  -0.193
    1UNL    H48  115   0.465   0.167  -0.189
    1UNL    H49  116   0.708  -0.027   0.011
    1UNL    H50  117   0.993   0.118   0.090
    1UNL    H51  118   1.064  -0.076  -0.163
    1UNL    H52  119   1.038   0.041  -0.380
    1UNL    H53  120   0.921   0.166  -0.300
    1UNL    H54  121   0.819  -0.050  -0.251
    1UNL    H55  122   1.203   0.122  -0.211
    1UNL    H56  123   1.272   0.023  -0.032
    1UNL    H57  124   1.054   0.308  -0.219
    1UNL    H58  125   1.224   0.313  -0.001
    1UNL    H59  126   0.921   0.348   0.028
    1UNL    H60  127   0.748   0.235  -0.143
    1UNL    H61  128   0.693   0.094   0.302
    1UNL    H62  129   0.496   0.079   0.460
    1UNL    H63  130   0.402  -0.009   0.345
    1UNL    H64  131   0.529  -0.098   0.428
   0.00000   0.00000   0.00000   0.00000   0.00000   0.00000   0.00000   0.00000   0.00000
Generated with MDTraj, t= 38.0
 131
    1UNL     C1    1  -0.378   0.278   0.174
    1UNL     C2    2  -0.456   0.193   0.262
    1UNL     C3    3  -0.561   0.119   0.221
    1UNL     C4    4  -0.624   0.135   0.085
    1UNL     O1    5  -0.582   0.031   0.003
    1UNL     C5    6  -0.642   0.039  -0.122
    1UNL     O2    7  -0.591   0.154  -0.194
    1UNL     C6    8  -0.637   0.162  -0.330
    1UNL     C7    9  -0.575   0.286  -0.393
    1UNL     O3   10  -0.586   0.294  -0.532
    1UNL     C8   11  -0.608   0.030  -0.405
    1UNL     O4   12  -0.678   0.030  -0.534
    1UNL     C9   13  -0.664  -0.091  -0.345
    1UNL     O5   14  -0.807  -0.080  -0.336
    1UNL    C10   15  -0.612  -0.097  -0.195
    1UNL     O6   16  -0.471  -0.123  -0.191
    1UNL     O7   17  -0.768   0.162   0.106
    1UNL    C11   18  -0.828   0.073   0.193
    1UNL    C12   19  -0.767  -0.004   0.284
    1UNL    C13   20  -0.844  -0.096   0.361
    1UNL     O8   21  -0.795  -0.183   0.434
    1UNL     O9   22  -0.984  -0.084   0.346
    1UNL    C14   23  -1.042  -0.188   0.416
    1UNL    C15   24  -0.620   0.021   0.309
    1UNL    C16   25  -0.533  -0.115   0.317
    1UNL    C17   26  -0.395  -0.095   0.370
    1UNL    O10   27  -0.374  -0.023   0.465
    1UNL    O11   28  -0.300  -0.172   0.303
    1UNL    C18   29  -0.177  -0.127   0.345
    1UNL    C19   30  -0.065  -0.206   0.261
    1UNL    C20   31   0.077  -0.183   0.333
    1UNL    C21   32  -0.048  -0.165   0.110
    1UNL    C22   33  -0.188  -0.175   0.037
    1UNL    C23   34  -0.167  -0.235  -0.113
    1UNL    O12   35  -0.258  -0.335  -0.148
    1UNL    C24   36  -0.024  -0.298  -0.107
    1UNL    C25   37   0.047  -0.285  -0.239
    1UNL    C26   38   0.059  -0.244   0.014
    1UNL    C27   39   0.154  -0.353   0.067
    1UNL    O13   40   0.271  -0.308   0.121
    1UNL    C28   41   0.340  -0.260   0.008
    1UNL    O14   42   0.296  -0.260  -0.107
    1UNL    C29   43   0.473  -0.192   0.033
    1UNL    C30   44   0.460  -0.045   0.086
    1UNL    C31   45   0.410   0.053  -0.018
    1UNL    C32   46   0.267   0.081  -0.053
    1UNL    O15   47   0.171   0.050   0.018
    1UNL    O16   48   0.244   0.147  -0.168
    1UNL    C33   49   0.108   0.175  -0.183
    1UNL    C34   50   0.504   0.106  -0.101
    1UNL    O17   51   0.638   0.081  -0.086
    1UNL    C35   52   0.689   0.050   0.042
    1UNL    O18   53   0.786   0.146   0.093
    1UNL    C36   54   0.899   0.143   0.016
    1UNL    O19   55   0.915   0.029  -0.079
    1UNL    C37   56   1.015   0.040  -0.184
    1UNL    C38   57   0.939   0.061  -0.317
    1UNL    O20   58   0.826  -0.020  -0.311
    1UNL    C39   59   1.125   0.142  -0.139
    1UNL    O21   60   1.192   0.097  -0.016
    1UNL    C40   61   1.069   0.284  -0.114
    1UNL    O22   62   1.160   0.356  -0.040
    1UNL    C41   63   0.930   0.278  -0.049
    1UNL    O23   64   0.828   0.294  -0.149
    1UNL    C42   65   0.587   0.008   0.146
    1UNL    C43   66   0.610   0.031   0.274
    1UNL    C44   67   0.527  -0.009   0.385
    1UNL     H1   68  -0.441   0.365   0.148
    1UNL     H2   69  -0.296   0.320   0.236
    1UNL     H3   70  -0.342   0.236   0.076
    1UNL     H4   71  -0.424   0.187   0.366
    1UNL     H5   72  -0.582   0.224   0.044
    1UNL     H6   73  -0.750   0.036  -0.095
    1UNL     H7   74  -0.749   0.163  -0.326
    1UNL     H8   75  -0.468   0.292  -0.357
    1UNL     H9   76  -0.628   0.373  -0.351
    1UNL    H10   77  -0.580   0.205  -0.578
    1UNL    H11   78  -0.500   0.012  -0.420
    1UNL    H12   79  -0.765  -0.016  -0.522
    1UNL    H13   80  -0.632  -0.184  -0.401
    1UNL    H14   81  -0.846  -0.144  -0.277
    1UNL    H15   82  -0.662  -0.170  -0.132
    1UNL    H16   83  -0.449  -0.126  -0.092
    1UNL    H17   84  -0.934   0.064   0.174
    1UNL    H18   85  -1.022  -0.182   0.523
    1UNL    H19   86  -1.007  -0.291   0.387
    1UNL    H20   87  -1.154  -0.177   0.402
    1UNL    H21   88  -0.612   0.050   0.413
    1UNL    H22   89  -0.579  -0.190   0.379
    1UNL    H23   90  -0.532  -0.162   0.218
    1UNL    H24   91  -0.172  -0.010   0.330
    1UNL    H25   92  -0.167  -0.151   0.454
    1UNL    H26   93  -0.099  -0.309   0.266
    1UNL    H27   94   0.088  -0.072   0.333
    1UNL    H28   95   0.096  -0.215   0.432
    1UNL    H29   96   0.164  -0.212   0.277
    1UNL    H30   97  -0.011  -0.060   0.105
    1UNL    H31   98  -0.243  -0.086   0.025
    1UNL    H32   99  -0.256  -0.247   0.095
    1UNL    H33  100  -0.179  -0.154  -0.180
    1UNL    H34  101  -0.347  -0.291  -0.171
    1UNL    H35  102  -0.045  -0.408  -0.107
    1UNL    H36  103  -0.008  -0.327  -0.318
    1UNL    H37  104   0.143  -0.323  -0.238
    1UNL    H38  105   0.055  -0.181  -0.266
    1UNL    H39  106   0.122  -0.168  -0.025
    1UNL    H40  107   0.093  -0.399   0.142
    1UNL    H41  108   0.176  -0.420  -0.017
    1UNL    H42  109   0.531  -0.183  -0.059
    1UNL    H43  110   0.530  -0.251   0.108
    1UNL    H44  111   0.396  -0.058   0.172
    1UNL    H45  112   0.091   0.247  -0.261
    1UNL    H46  113   0.072   0.225  -0.085
    1UNL    H47  114   0.056   0.084  -0.203
    1UNL    H48  115   0.483   0.178  -0.174
    1UNL    H49  116   0.728  -0.044   0.011
    1UNL    H50  117   0.987   0.137   0.085
    1UNL    H51  118   1.066  -0.063  -0.186
    1UNL    H52  119   1.002   0.014  -0.395
    1UNL    H53  120   0.903   0.167  -0.336
    1UNL    H54  121   0.763   0.023  -0.241
    1UNL    H55  122   1.196   0.141  -0.215
    1UNL    H56  123   1.145   0.017   0.020
    1UNL    H57  124   1.054   0.343  -0.204
    1UNL    H58  125   1.234   0.303  -0.002
    1UNL    H59  126   0.912   0.360   0.028
    1UNL    H60  127   0.769   0.221  -0.132
    1UNL    H61  128   0.701   0.083   0.292
    1UNL    H62  129   0.496   0.076   0.447
    1UNL    H63  130   0.433  -0.056   0.350
    1UNL    H64  131   0.572  -0.086   0.450
   0.00000   0.00000   0.00000   0.00000   0.00000   0.00000   0.00000   0.00000   0.00000
Generated with MDTraj, t= 39.0
 131
    1UNL     C1    1  -0.376   0.285   0.163
    1UNL     C2    2  -0.442   0.188   0.245
    1UNL     C3    3  -0.557   0.124   0.223
    1UNL     C4    4  -0.631   0.144   0.086
    1UNL     O1    5  -0.600   0.024   0.016
    1UNL     C5    6  -0.636   0.032  -0.116
    1UNL     O2    7  -0.572   0.136  -0.186
    1UNL     C6    8  -0.608   0.155  -0.322
    1UNL     C7    9  -0.529   0.276  -0.376
    1UNL     O3   10  -0.563   0.291  -0.509
    1UNL     C8   11  -0.603   0.022  -0.402
    1UNL     O4   12  -0.687   0.040  -0.517
    1UNL     C9   13  -0.662  -0.099  -0.338
    1UNL     O5   14  -0.806  -0.104  -0.342
    1UNL    C10   15  -0.611  -0.097  -0.185
    1UNL     O6   16  -0.470  -0.108  -0.197
    1UNL     O7   17  -0.771   0.160   0.096
    1UNL    C11   18  -0.826   0.068   0.187
    1UNL    C12   19  -0.764   0.001   0.285
    1UNL    C13   20  -0.841  -0.097   0.367
    1UNL     O8   21  -0.795  -0.150   0.469
    1UNL     O9   22  -0.966  -0.120   0.327
    1UNL    C14   23  -1.034  -0.201   0.420
    1UNL    C15   24  -0.617   0.028   0.318
    1UNL    C16   25  -0.542  -0.105   0.314
    1UNL    C17   26  -0.397  -0.088   0.344
    1UNL    O10   27  -0.364  -0.023   0.441
    1UNL    O11   28  -0.312  -0.165   0.267
    1UNL    C18   29  -0.180  -0.148   0.332
    1UNL    C19   30  -0.062  -0.203   0.260
    1UNL    C20   31   0.059  -0.165   0.341
    1UNL    C21   32  -0.057  -0.159   0.108
    1UNL    C22   33  -0.199  -0.166   0.032
    1UNL    C23   34  -0.170  -0.220  -0.110
    1UNL    O12   35  -0.269  -0.295  -0.167
    1UNL    C24   36  -0.041  -0.311  -0.093
    1UNL    C25   37   0.025  -0.329  -0.235
    1UNL    C26   38   0.046  -0.240   0.014
    1UNL    C27   39   0.148  -0.332   0.070
    1UNL    O13   40   0.265  -0.278   0.125
    1UNL    C28   41   0.333  -0.236   0.016
    1UNL    O14   42   0.294  -0.247  -0.096
    1UNL    C29   43   0.469  -0.186   0.041
    1UNL    C30   44   0.454  -0.043   0.085
    1UNL    C31   45   0.421   0.042  -0.030
    1UNL    C32   46   0.279   0.084  -0.055
    1UNL    O15   47   0.189   0.075   0.032
    1UNL    O16   48   0.244   0.132  -0.174
    1UNL    C33   49   0.103   0.151  -0.173
    1UNL    C34   50   0.518   0.086  -0.112
    1UNL    O17   51   0.652   0.075  -0.096
    1UNL    C35   52   0.699   0.033   0.030
    1UNL    O18   53   0.781   0.136   0.093
    1UNL    C36   54   0.899   0.136   0.020
    1UNL    O19   55   0.925   0.017  -0.063
    1UNL    C37   56   1.007   0.047  -0.179
    1UNL    C38   57   0.926   0.086  -0.303
    1UNL    O20   58   0.815  -0.004  -0.321
    1UNL    C39   59   1.118   0.150  -0.152
    1UNL    O21   60   1.204   0.112  -0.043
    1UNL    C40   61   1.059   0.290  -0.110
    1UNL    O22   62   1.136   0.354  -0.008
    1UNL    C41   63   0.915   0.276  -0.049
    1UNL    O23   64   0.807   0.280  -0.143
    1UNL    C42   65   0.591  -0.002   0.135
    1UNL    C43   66   0.619   0.005   0.267
    1UNL    C44   67   0.524  -0.024   0.375
    1UNL     H1   68  -0.426   0.384   0.165
    1UNL     H2   69  -0.278   0.311   0.210
    1UNL     H3   70  -0.356   0.260   0.055
    1UNL     H4   71  -0.397   0.165   0.341
    1UNL     H5   72  -0.587   0.229   0.034
    1UNL     H6   73  -0.748   0.039  -0.118
    1UNL     H7   74  -0.715   0.184  -0.318
    1UNL     H8   75  -0.419   0.258  -0.377
    1UNL     H9   76  -0.543   0.367  -0.321
    1UNL    H10   77  -0.571   0.210  -0.557
    1UNL    H11   78  -0.497   0.006  -0.427
    1UNL    H12   79  -0.769  -0.012  -0.505
    1UNL    H13   80  -0.631  -0.195  -0.389
    1UNL    H14   81  -0.849  -0.164  -0.275
    1UNL    H15   82  -0.648  -0.178  -0.127
    1UNL    H16   83  -0.430  -0.036  -0.146
    1UNL    H17   84  -0.930   0.036   0.175
    1UNL    H18   85  -1.111  -0.143   0.461
    1UNL    H19   86  -0.977  -0.234   0.507
    1UNL    H20   87  -1.083  -0.286   0.368
    1UNL    H21   88  -0.628   0.061   0.420
    1UNL    H22   89  -0.588  -0.183   0.377
    1UNL    H23   90  -0.548  -0.145   0.215
    1UNL    H24   91  -0.161  -0.033   0.336
    1UNL    H25   92  -0.186  -0.181   0.438
    1UNL    H26   93  -0.068  -0.311   0.265
    1UNL    H27   94   0.060  -0.055   0.372
    1UNL    H28   95   0.066  -0.219   0.433
    1UNL    H29   96   0.145  -0.178   0.286
    1UNL    H30   97  -0.020  -0.053   0.112
    1UNL    H31   98  -0.248  -0.071   0.033
    1UNL    H32   99  -0.273  -0.239   0.070
    1UNL    H33  100  -0.148  -0.143  -0.177
    1UNL    H34  101  -0.344  -0.234  -0.186
    1UNL    H35  102  -0.075  -0.412  -0.064
    1UNL    H36  103  -0.030  -0.380  -0.307
    1UNL    H37  104   0.114  -0.378  -0.224
    1UNL    H38  105   0.060  -0.234  -0.276
    1UNL    H39  106   0.104  -0.161  -0.028
    1UNL    H40  107   0.099  -0.384   0.149
    1UNL    H41  108   0.172  -0.406  -0.009
    1UNL    H42  109   0.519  -0.184  -0.056
    1UNL    H43  110   0.519  -0.248   0.120
    1UNL    H44  111   0.386  -0.037   0.168
    1UNL    H45  112   0.069   0.174  -0.274
    1UNL    H46  113   0.073   0.246  -0.111
    1UNL    H47  114   0.050   0.061  -0.139
    1UNL    H48  115   0.498   0.130  -0.215
    1UNL    H49  116   0.760  -0.049   0.010
    1UNL    H50  117   0.977   0.130   0.098
    1UNL    H51  118   1.058  -0.053  -0.203
    1UNL    H52  119   0.980   0.075  -0.401
    1UNL    H53  120   0.887   0.188  -0.279
    1UNL    H54  121   0.745   0.001  -0.254
    1UNL    H55  122   1.177   0.155  -0.240
    1UNL    H56  123   1.253   0.026  -0.055
    1UNL    H57  124   1.067   0.359  -0.194
    1UNL    H58  125   1.193   0.288   0.038
    1UNL    H59  126   0.888   0.356   0.027
    1UNL    H60  127   0.741   0.210  -0.121
    1UNL    H61  128   0.717   0.037   0.301
    1UNL    H62  129   0.440   0.047   0.371
    1UNL    H63  130   0.490  -0.131   0.361
    1UNL    H64  131   0.573  -0.017   0.472
   0.00000   0.00000   0.00000   0.00000   0.00000   0.00000   0.00000   0.00000   0.00000
Generated with MDTraj, t= 40.0
 131
    1UNL     C1    1  -0.392   0.292   0.156
    1UNL     C2    2  -0.463   0.212   0.255
    1UNL     C3    3  -0.562   0.129   0.223
    1UNL     C4    4  -0.627   0.133   0.084
    1UNL     O1    5  -0.607   0.005   0.022
    1UNL     C5    6  -0.649   0.020  -0.109
    1UNL     O2    7  -0.579   0.136  -0.174
    1UNL     C6    8  -0.608   0.157  -0.314
    1UNL     C7    9  -0.522   0.264  -0.372
    1UNL     O3   10  -0.559   0.310  -0.498
    1UNL     C8   11  -0.603   0.026  -0.401
    1UNL     O4   12  -0.675   0.048  -0.523
    1UNL     C9   13  -0.670  -0.100  -0.341
    1UNL     O5   14  -0.809  -0.068  -0.335
    1UNL    C10   15  -0.613  -0.109  -0.189
    1UNL     O6   16  -0.470  -0.109  -0.202
    1UNL     O7   17  -0.761   0.148   0.083
    1UNL    C11   18  -0.821   0.075   0.182
    1UNL    C12   19  -0.769   0.013   0.295
    1UNL    C13   20  -0.845  -0.084   0.376
    1UNL     O8   21  -0.804  -0.120   0.486
    1UNL     O9   22  -0.968  -0.123   0.329
    1UNL    C14   23  -1.013  -0.224   0.417
    1UNL    C15   24  -0.617   0.027   0.317
    1UNL    C16   25  -0.547  -0.102   0.293
    1UNL    C17   26  -0.403  -0.094   0.344
    1UNL    O10   27  -0.382  -0.011   0.431
    1UNL    O11   28  -0.303  -0.163   0.285
    1UNL    C18   29  -0.170  -0.104   0.310
    1UNL    C19   30  -0.062  -0.191   0.240
    1UNL    C20   31   0.073  -0.166   0.309
    1UNL    C21   32  -0.052  -0.154   0.086
    1UNL    C22   33  -0.184  -0.153   0.011
    1UNL    C23   34  -0.173  -0.234  -0.122
    1UNL    O12   35  -0.286  -0.317  -0.149
    1UNL    C24   36  -0.042  -0.318  -0.100
    1UNL    C25   37   0.040  -0.330  -0.229
    1UNL    C26   38   0.045  -0.248   0.003
    1UNL    C27   39   0.125  -0.360   0.070
    1UNL    O13   40   0.239  -0.301   0.132
    1UNL    C28   41   0.324  -0.265   0.029
    1UNL    O14   42   0.302  -0.287  -0.086
    1UNL    C29   43   0.461  -0.202   0.066
    1UNL    C30   44   0.452  -0.050   0.105
    1UNL    C31   45   0.411   0.027  -0.013
    1UNL    C32   46   0.276   0.066  -0.048
    1UNL    O15   47   0.186   0.040   0.033
    1UNL    O16   48   0.253   0.129  -0.169
    1UNL    C33   49   0.112   0.144  -0.169
    1UNL    C34   50   0.506   0.068  -0.102
    1UNL    O17   51   0.632   0.070  -0.082
    1UNL    C35   52   0.687   0.040   0.048
    1UNL    O18   53   0.797   0.126   0.099
    1UNL    C36   54   0.909   0.137   0.012
    1UNL    O19   55   0.915   0.042  -0.088
    1UNL    C37   56   1.021   0.062  -0.192
    1UNL    C38   57   0.950   0.090  -0.325
    1UNL    O20   58   0.836   0.003  -0.348
    1UNL    C39   59   1.129   0.174  -0.163
    1UNL    O21   60   1.223   0.128  -0.067
    1UNL    C40   61   1.064   0.303  -0.109
    1UNL    O22   62   1.153   0.374  -0.022
    1UNL    C41   63   0.923   0.279  -0.039
    1UNL    O23   64   0.822   0.303  -0.135
    1UNL    C42   65   0.579   0.003   0.156
    1UNL    C43   66   0.601  -0.000   0.289
    1UNL    C44   67   0.509  -0.037   0.391
    1UNL     H1   68  -0.455   0.357   0.095
    1UNL     H2   69  -0.327   0.363   0.215
    1UNL     H3   70  -0.324   0.228   0.092
    1UNL     H4   71  -0.422   0.193   0.354
    1UNL     H5   72  -0.575   0.211   0.025
    1UNL     H6   73  -0.759   0.035  -0.097
    1UNL     H7   74  -0.711   0.195  -0.317
    1UNL     H8   75  -0.420   0.225  -0.384
    1UNL     H9   76  -0.508   0.349  -0.311
    1UNL    H10   77  -0.618   0.239  -0.544
    1UNL    H11   78  -0.498   0.020  -0.436
    1UNL    H12   79  -0.771   0.034  -0.501
    1UNL    H13   80  -0.662  -0.194  -0.402
    1UNL    H14   81  -0.855  -0.120  -0.260
    1UNL    H15   82  -0.638  -0.190  -0.122
    1UNL    H16   83  -0.444  -0.020  -0.240
    1UNL    H17   84  -0.930   0.072   0.175
    1UNL    H18   85  -1.116  -0.219   0.411
    1UNL    H19   86  -0.982  -0.198   0.516
    1UNL    H20   87  -0.977  -0.323   0.387
    1UNL    H21   88  -0.611   0.058   0.421
    1UNL    H22   89  -0.594  -0.186   0.349
    1UNL    H23   90  -0.558  -0.129   0.192
    1UNL    H24   91  -0.172   0.005   0.274
    1UNL    H25   92  -0.162  -0.098   0.417
    1UNL    H26   93  -0.096  -0.293   0.252
    1UNL    H27   94   0.107  -0.065   0.279
    1UNL    H28   95   0.059  -0.163   0.415
    1UNL    H29   96   0.147  -0.234   0.275
    1UNL    H30   97  -0.009  -0.050   0.090
    1UNL    H31   98  -0.221  -0.053  -0.012
    1UNL    H32   99  -0.254  -0.197   0.074
    1UNL    H33  100  -0.159  -0.171  -0.204
    1UNL    H34  101  -0.357  -0.257  -0.165
    1UNL    H35  102  -0.067  -0.420  -0.068
    1UNL    H36  103  -0.005  -0.375  -0.312
    1UNL    H37  104   0.115  -0.396  -0.200
    1UNL    H38  105   0.104  -0.246  -0.259
    1UNL    H39  106   0.112  -0.173  -0.031
    1UNL    H40  107   0.063  -0.414   0.139
    1UNL    H41  108   0.158  -0.445   0.004
    1UNL    H42  109   0.518  -0.205  -0.026
    1UNL    H43  110   0.504  -0.268   0.146
    1UNL    H44  111   0.375  -0.044   0.179
    1UNL    H45  112   0.081   0.200  -0.257
    1UNL    H46  113   0.072   0.207  -0.081
    1UNL    H47  114   0.061   0.045  -0.175
    1UNL    H48  115   0.480   0.107  -0.203
    1UNL    H49  116   0.742  -0.046   0.029
    1UNL    H50  117   0.989   0.111   0.079
    1UNL    H51  118   1.083  -0.032  -0.206
    1UNL    H52  119   1.020   0.074  -0.411
    1UNL    H53  120   0.893   0.186  -0.329
    1UNL    H54  121   0.795  -0.005  -0.263
    1UNL    H55  122   1.175   0.197  -0.258
    1UNL    H56  123   1.179   0.104   0.017
    1UNL    H57  124   1.063   0.377  -0.191
    1UNL    H58  125   1.218   0.309   0.010
    1UNL    H59  126   0.907   0.360   0.034
    1UNL    H60  127   0.750   0.242  -0.117
    1UNL    H61  128   0.702   0.014   0.330
    1UNL    H62  129   0.404   0.000   0.379
    1UNL    H63  130   0.512  -0.151   0.393
    1UNL    H64  131   0.547  -0.002   0.487
   0.00000   0.00000   0.00000   0.00000   0.00000   0.00000   0.00000   0.00000   0.00000
Generated with MDTraj, t= 41.0
 131
    1UNL     C1    1  -0.421   0.325   0.170
    1UNL     C2    2  -0.477   0.221   0.260
    1UNL     C3    3  -0.564   0.125   0.223
    1UNL     C4    4  -0.622   0.124   0.083
    1UNL     O1    5  -0.598   0.002   0.014
    1UNL     C5    6  -0.636   0.026  -0.116
    1UNL     O2    7  -0.574   0.141  -0.188
    1UNL     C6    8  -0.624   0.168  -0.321
    1UNL     C7    9  -0.556   0.297  -0.378
    1UNL     O3   10  -0.569   0.327  -0.516
    1UNL     C8   11  -0.606   0.041  -0.405
    1UNL     O4   12  -0.656   0.071  -0.536
    1UNL     C9   13  -0.682  -0.078  -0.342
    1UNL     O5   14  -0.819  -0.052  -0.325
    1UNL    C10   15  -0.628  -0.102  -0.200
    1UNL     O6   16  -0.498  -0.159  -0.201
    1UNL     O7   17  -0.764   0.142   0.091
    1UNL    C11   18  -0.825   0.063   0.180
    1UNL    C12   19  -0.777   0.014   0.296
    1UNL    C13   20  -0.841  -0.084   0.379
    1UNL     O8   21  -0.788  -0.139   0.477
    1UNL     O9   22  -0.969  -0.119   0.331
    1UNL    C14   23  -1.025  -0.214   0.427
    1UNL    C15   24  -0.624   0.038   0.327
    1UNL    C16   25  -0.542  -0.089   0.339
    1UNL    C17   26  -0.393  -0.066   0.343
    1UNL    O10   27  -0.349   0.005   0.434
    1UNL    O11   28  -0.309  -0.115   0.244
    1UNL    C18   29  -0.173  -0.091   0.284
    1UNL    C19   30  -0.058  -0.179   0.230
    1UNL    C20   31   0.075  -0.134   0.302
    1UNL    C21   32  -0.055  -0.165   0.074
    1UNL    C22   33  -0.187  -0.184   0.017
    1UNL    C23   34  -0.165  -0.255  -0.121
    1UNL    O12   35  -0.263  -0.353  -0.158
    1UNL    C24   36  -0.027  -0.336  -0.105
    1UNL    C25   37   0.042  -0.329  -0.245
    1UNL    C26   38   0.048  -0.262   0.003
    1UNL    C27   39   0.132  -0.368   0.080
    1UNL    O13   40   0.253  -0.310   0.141
    1UNL    C28   41   0.346  -0.284   0.040
    1UNL    O14   42   0.322  -0.313  -0.074
    1UNL    C29   43   0.476  -0.217   0.074
    1UNL    C30   44   0.469  -0.060   0.102
    1UNL    C31   45   0.417   0.014  -0.016
    1UNL    C32   46   0.280   0.028  -0.048
    1UNL    O15   47   0.187  -0.021   0.018
    1UNL    O16   48   0.255   0.114  -0.150
    1UNL    C33   49   0.119   0.131  -0.149
    1UNL    C34   50   0.508   0.070  -0.103
    1UNL    O17   51   0.637   0.075  -0.088
    1UNL    C35   52   0.697   0.028   0.035
    1UNL    O18   53   0.799   0.108   0.096
    1UNL    C36   54   0.911   0.126   0.007
    1UNL    O19   55   0.917   0.036  -0.095
    1UNL    C37   56   1.011   0.073  -0.198
    1UNL    C38   57   0.928   0.104  -0.321
    1UNL    O20   58   0.820   0.016  -0.331
    1UNL    C39   59   1.118   0.181  -0.154
    1UNL    O21   60   1.191   0.138  -0.036
    1UNL    C40   61   1.049   0.305  -0.108
    1UNL    O22   62   1.132   0.382  -0.023
    1UNL    C41   63   0.912   0.278  -0.034
    1UNL    O23   64   0.802   0.307  -0.117
    1UNL    C42   65   0.595  -0.001   0.149
    1UNL    C43   66   0.630   0.012   0.278
    1UNL    C44   67   0.547  -0.003   0.394
    1UNL     H1   68  -0.484   0.415   0.171
    1UNL     H2   69  -0.320   0.353   0.211
    1UNL     H3   70  -0.413   0.280   0.067
    1UNL     H4   71  -0.437   0.208   0.359
    1UNL     H5   72  -0.588   0.220   0.033
    1UNL     H6   73  -0.741   0.058  -0.110
    1UNL     H7   74  -0.731   0.177  -0.304
    1UNL     H8   75  -0.451   0.287  -0.355
    1UNL     H9   76  -0.590   0.376  -0.319
    1UNL    H10   77  -0.603   0.248  -0.555
    1UNL    H11   78  -0.500   0.012  -0.415
    1UNL    H12   79  -0.751   0.084  -0.518
    1UNL    H13   80  -0.668  -0.173  -0.396
    1UNL    H14   81  -0.867  -0.114  -0.262
    1UNL    H15   82  -0.692  -0.183  -0.161
    1UNL    H16   83  -0.431  -0.088  -0.177
    1UNL    H17   84  -0.921   0.032   0.141
    1UNL    H18   85  -1.035  -0.305   0.376
    1UNL    H19   86  -1.118  -0.176   0.463
    1UNL    H20   87  -0.954  -0.221   0.513
    1UNL    H21   88  -0.610   0.094   0.421
    1UNL    H22   89  -0.584  -0.135   0.432
    1UNL    H23   90  -0.563  -0.159   0.264
    1UNL    H24   91  -0.160   0.017   0.256
    1UNL    H25   92  -0.172  -0.092   0.389
    1UNL    H26   93  -0.085  -0.282   0.249
    1UNL    H27   94   0.088  -0.028   0.297
    1UNL    H28   95   0.069  -0.155   0.407
    1UNL    H29   96   0.171  -0.176   0.256
    1UNL    H30   97  -0.021  -0.060   0.048
    1UNL    H31   98  -0.232  -0.083   0.018
    1UNL    H32   99  -0.250  -0.241   0.075
    1UNL    H33  100  -0.167  -0.181  -0.192
    1UNL    H34  101  -0.355  -0.304  -0.162
    1UNL    H35  102  -0.038  -0.441  -0.076
    1UNL    H36  103  -0.019  -0.373  -0.318
    1UNL    H37  104   0.139  -0.371  -0.239
    1UNL    H38  105   0.059  -0.230  -0.282
    1UNL    H39  106   0.111  -0.196  -0.051
    1UNL    H40  107   0.075  -0.425   0.152
    1UNL    H41  108   0.156  -0.455   0.011
    1UNL    H42  109   0.536  -0.238  -0.013
    1UNL    H43  110   0.518  -0.273   0.162
    1UNL    H44  111   0.387  -0.052   0.173
    1UNL    H45  112   0.100   0.209  -0.219
    1UNL    H46  113   0.074   0.167  -0.053
    1UNL    H47  114   0.068   0.040  -0.190
    1UNL    H48  115   0.481   0.132  -0.183
    1UNL    H49  116   0.736  -0.063  -0.001
    1UNL    H50  117   0.995   0.105   0.072
    1UNL    H51  118   1.079  -0.014  -0.212
    1UNL    H52  119   0.984   0.070  -0.413
    1UNL    H53  120   0.896   0.209  -0.315
    1UNL    H54  121   0.765   0.013  -0.245
    1UNL    H55  122   1.186   0.212  -0.238
    1UNL    H56  123   1.257   0.069  -0.051
    1UNL    H57  124   1.033   0.376  -0.193
    1UNL    H58  125   1.142   0.333   0.061
    1UNL    H59  126   0.892   0.348   0.046
    1UNL    H60  127   0.727   0.238  -0.107
    1UNL    H61  128   0.729   0.039   0.303
    1UNL    H62  129   0.484   0.085   0.425
    1UNL    H63  130   0.475  -0.088   0.380
    1UNL    H64  131   0.599  -0.035   0.484
   0.00000   0.00000   0.00000   0.00000   0.00000   0.00000   0.00000   0.00000   0.00000
Generated with MDTraj, t= 42.0
 131
    1UNL     C1    1  -0.430   0.341   0.179
    1UNL     C2    2  -0.472   0.228   0.262
    1UNL     C3    3  -0.571   0.144   0.227
    1UNL     C4    4  -0.638   0.141   0.088
    1UNL     O1    5  -0.603   0.023   0.011
    1UNL     C5    6  -0.642   0.042  -0.120
    1UNL     O2    7  -0.557   0.134  -0.193
    1UNL     C6    8  -0.608   0.165  -0.320
    1UNL     C7    9  -0.540   0.293  -0.382
    1UNL     O3   10  -0.623   0.340  -0.492
    1UNL     C8   11  -0.606   0.037  -0.406
    1UNL     O4   12  -0.655   0.076  -0.538
    1UNL     C9   13  -0.691  -0.078  -0.341
    1UNL     O5   14  -0.833  -0.061  -0.355
    1UNL    C10   15  -0.636  -0.094  -0.201
    1UNL     O6   16  -0.499  -0.132  -0.198
    1UNL     O7   17  -0.782   0.141   0.107
    1UNL    C11   18  -0.822   0.042   0.179
    1UNL    C12   19  -0.755  -0.018   0.278
    1UNL    C13   20  -0.825  -0.103   0.365
    1UNL     O8   21  -0.769  -0.162   0.457
    1UNL     O9   22  -0.961  -0.101   0.344
    1UNL    C14   23  -1.027  -0.184   0.439
    1UNL    C15   24  -0.614   0.030   0.324
    1UNL    C16   25  -0.516  -0.081   0.300
    1UNL    C17   26  -0.376  -0.051   0.336
    1UNL    O10   27  -0.361   0.025   0.431
    1UNL    O11   28  -0.281  -0.117   0.265
    1UNL    C18   29  -0.153  -0.054   0.282
    1UNL    C19   30  -0.040  -0.147   0.238
    1UNL    C20   31   0.098  -0.109   0.279
    1UNL    C21   32  -0.052  -0.176   0.083
    1UNL    C22   33  -0.190  -0.231   0.022
    1UNL    C23   34  -0.164  -0.270  -0.124
    1UNL    O12   35  -0.254  -0.355  -0.193
    1UNL    C24   36  -0.032  -0.345  -0.107
    1UNL    C25   37   0.051  -0.348  -0.240
    1UNL    C26   38   0.053  -0.266   0.007
    1UNL    C27   39   0.140  -0.364   0.098
    1UNL    O13   40   0.255  -0.298   0.147
    1UNL    C28   41   0.342  -0.291   0.043
    1UNL    O14   42   0.325  -0.327  -0.071
    1UNL    C29   43   0.473  -0.224   0.069
    1UNL    C30   44   0.464  -0.079   0.105
    1UNL    C31   45   0.427   0.002  -0.015
    1UNL    C32   46   0.283   0.031  -0.034
    1UNL    O15   47   0.190  -0.004   0.047
    1UNL    O16   48   0.250   0.096  -0.147
    1UNL    C33   49   0.110   0.110  -0.146
    1UNL    C34   50   0.519   0.060  -0.093
    1UNL    O17   51   0.657   0.041  -0.082
    1UNL    C35   52   0.710   0.007   0.044
    1UNL    O18   53   0.794   0.109   0.106
    1UNL    C36   54   0.905   0.130   0.017
    1UNL    O19   55   0.921   0.038  -0.084
    1UNL    C37   56   1.001   0.079  -0.200
    1UNL    C38   57   0.914   0.140  -0.309
    1UNL    O20   58   0.811   0.051  -0.339
    1UNL    C39   59   1.108   0.183  -0.152
    1UNL    O21   60   1.195   0.134  -0.048
    1UNL    C40   61   1.034   0.307  -0.106
    1UNL    O22   62   1.117   0.387  -0.030
    1UNL    C41   63   0.894   0.278  -0.033
    1UNL    O23   64   0.783   0.281  -0.118
    1UNL    C42   65   0.595  -0.029   0.145
    1UNL    C43   66   0.618   0.004   0.274
    1UNL    C44   67   0.521  -0.010   0.378
    1UNL     H1   68  -0.516   0.389   0.128
    1UNL     H2   69  -0.377   0.425   0.231
    1UNL     H3   70  -0.367   0.299   0.097
    1UNL     H4   71  -0.423   0.203   0.355
    1UNL     H5   72  -0.619   0.237   0.028
    1UNL     H6   73  -0.743   0.083  -0.122
    1UNL     H7   74  -0.713   0.189  -0.310
    1UNL     H8   75  -0.435   0.279  -0.402
    1UNL     H9   76  -0.548   0.364  -0.305
    1UNL    H10   77  -0.618   0.286  -0.576
    1UNL    H11   78  -0.500   0.012  -0.425
    1UNL    H12   79  -0.747   0.046  -0.541
    1UNL    H13   80  -0.669  -0.169  -0.394
    1UNL    H14   81  -0.879  -0.129  -0.305
    1UNL    H15   82  -0.700  -0.176  -0.157
    1UNL    H16   83  -0.455  -0.052  -0.171
    1UNL    H17   84  -0.920   0.007   0.152
    1UNL    H18   85  -0.955  -0.227   0.511
    1UNL    H19   86  -1.070  -0.265   0.379
    1UNL    H20   87  -1.109  -0.113   0.481
    1UNL    H21   88  -0.612   0.069   0.427
    1UNL    H22   89  -0.552  -0.175   0.345
    1UNL    H23   90  -0.529  -0.092   0.195
    1UNL    H24   91  -0.146   0.043   0.231
    1UNL    H25   92  -0.148  -0.036   0.383
    1UNL    H26   93  -0.065  -0.245   0.276
    1UNL    H27   94   0.148  -0.035   0.223
    1UNL    H28   95   0.100  -0.068   0.381
    1UNL    H29   96   0.164  -0.198   0.272
    1UNL    H30   97  -0.040  -0.076   0.034
    1UNL    H31   98  -0.263  -0.151   0.018
    1UNL    H32   99  -0.236  -0.316   0.065
    1UNL    H33  100  -0.161  -0.185  -0.183
    1UNL    H34  101  -0.339  -0.318  -0.197
    1UNL    H35  102  -0.043  -0.446  -0.063
    1UNL    H36  103   0.009  -0.423  -0.304
    1UNL    H37  104   0.154  -0.366  -0.214
    1UNL    H38  105   0.055  -0.262  -0.297
    1UNL    H39  106   0.123  -0.200  -0.038
    1UNL    H40  107   0.078  -0.418   0.168
    1UNL    H41  108   0.173  -0.453   0.036
    1UNL    H42  109   0.537  -0.237  -0.019
    1UNL    H43  110   0.521  -0.279   0.153
    1UNL    H44  111   0.385  -0.066   0.178
    1UNL    H45  112   0.077   0.168  -0.226
    1UNL    H46  113   0.073   0.160  -0.057
    1UNL    H47  114   0.067   0.009  -0.160
    1UNL    H48  115   0.492   0.108  -0.186
    1UNL    H49  116   0.763  -0.082   0.012
    1UNL    H50  117   0.990   0.122   0.084
    1UNL    H51  118   1.055  -0.006  -0.238
    1UNL    H52  119   0.976   0.152  -0.401
    1UNL    H53  120   0.869   0.233  -0.275
    1UNL    H54  121   0.740   0.050  -0.264
    1UNL    H55  122   1.163   0.205  -0.250
    1UNL    H56  123   1.181   0.038  -0.036
    1UNL    H57  124   1.012   0.371  -0.195
    1UNL    H58  125   1.146   0.333   0.046
    1UNL    H59  126   0.871   0.346   0.045
    1UNL    H60  127   0.742   0.195  -0.103
    1UNL    H61  128   0.704   0.070   0.306
    1UNL    H62  129   0.422   0.040   0.356
    1UNL    H63  130   0.503  -0.117   0.395
    1UNL    H64  131   0.558   0.025   0.477
   0.00000   0.00000   0.00000   0.00000   0.00000   0.00000   0.00000   0.00000   0.00000
Generated with MDTraj, t= 43.0
 131
    1UNL     C1    1  -0.451   0.354   0.172
    1UNL     C2    2  -0.479   0.239   0.260
    1UNL     C3    3  -0.570   0.147   0.228
    1UNL     C4    4  -0.631   0.142   0.093
    1UNL     O1    5  -0.588   0.023   0.014
    1UNL     C5    6  -0.635   0.033  -0.118
    1UNL     O2    7  -0.577   0.144  -0.184
    1UNL     C6    8  -0.624   0.167  -0.320
    1UNL     C7    9  -0.559   0.299  -0.383
    1UNL     O3   10  -0.624   0.344  -0.503
    1UNL     C8   11  -0.609   0.046  -0.422
    1UNL     O4   12  -0.686   0.066  -0.541
    1UNL     C9   13  -0.661  -0.080  -0.343
    1UNL     O5   14  -0.802  -0.067  -0.333
    1UNL    C10   15  -0.598  -0.102  -0.205
    1UNL     O6   16  -0.458  -0.124  -0.206
    1UNL     O7   17  -0.770   0.156   0.091
    1UNL    C11   18  -0.834   0.067   0.172
    1UNL    C12   19  -0.769   0.012   0.282
    1UNL    C13   20  -0.827  -0.098   0.359
    1UNL     O8   21  -0.757  -0.173   0.427
    1UNL     O9   22  -0.966  -0.108   0.370
    1UNL    C14   23  -0.998  -0.198   0.474
    1UNL    C15   24  -0.614   0.031   0.312
    1UNL    C16   25  -0.523  -0.089   0.278
    1UNL    C17   26  -0.383  -0.064   0.314
    1UNL    O10   27  -0.357   0.027   0.392
    1UNL    O11   28  -0.282  -0.132   0.245
    1UNL    C18   29  -0.159  -0.088   0.295
    1UNL    C19   30  -0.032  -0.165   0.240
    1UNL    C20   31   0.100  -0.110   0.298
    1UNL    C21   32  -0.030  -0.159   0.087
    1UNL    C22   33  -0.171  -0.159   0.016
    1UNL    C23   34  -0.154  -0.250  -0.109
    1UNL    O12   35  -0.265  -0.338  -0.128
    1UNL    C24   36  -0.022  -0.338  -0.093
    1UNL    C25   37   0.066  -0.343  -0.218
    1UNL    C26   38   0.058  -0.271   0.018
    1UNL    C27   39   0.140  -0.374   0.103
    1UNL    O13   40   0.264  -0.331   0.137
    1UNL    C28   41   0.349  -0.312   0.034
    1UNL    O14   42   0.321  -0.335  -0.081
    1UNL    C29   43   0.477  -0.240   0.065
    1UNL    C30   44   0.456  -0.098   0.103
    1UNL    C31   45   0.415  -0.009  -0.015
    1UNL    C32   46   0.278   0.038  -0.043
    1UNL    O15   47   0.190   0.036   0.047
    1UNL    O16   48   0.254   0.085  -0.167
    1UNL    C33   49   0.123   0.119  -0.174
    1UNL    C34   50   0.516   0.029  -0.098
    1UNL    O17   51   0.652   0.016  -0.070
    1UNL    C35   52   0.694  -0.010   0.059
    1UNL    O18   53   0.787   0.087   0.115
    1UNL    C36   54   0.894   0.129   0.022
    1UNL    O19   55   0.895   0.059  -0.102
    1UNL    C37   56   0.992   0.096  -0.205
    1UNL    C38   57   0.913   0.123  -0.333
    1UNL    O20   58   0.808   0.026  -0.338
    1UNL    C39   59   1.100   0.202  -0.162
    1UNL    O21   60   1.192   0.142  -0.077
    1UNL    C40   61   1.030   0.325  -0.097
    1UNL    O22   62   1.117   0.389  -0.011
    1UNL    C41   63   0.891   0.286  -0.015
    1UNL    O23   64   0.776   0.306  -0.093
    1UNL    C42   65   0.580  -0.032   0.153
    1UNL    C43   66   0.605  -0.002   0.285
    1UNL    C44   67   0.501  -0.029   0.381
    1UNL     H1   68  -0.543   0.414   0.152
    1UNL     H2   69  -0.371   0.426   0.200
    1UNL     H3   70  -0.422   0.314   0.074
    1UNL     H4   71  -0.443   0.237   0.361
    1UNL     H5   72  -0.590   0.219   0.019
    1UNL     H6   73  -0.741   0.055  -0.110
    1UNL     H7   74  -0.729   0.184  -0.307
    1UNL     H8   75  -0.457   0.270  -0.408
    1UNL     H9   76  -0.557   0.378  -0.312
    1UNL    H10   77  -0.640   0.272  -0.565
    1UNL    H11   78  -0.504   0.043  -0.454
    1UNL    H12   79  -0.779   0.074  -0.506
    1UNL    H13   80  -0.645  -0.168  -0.401
    1UNL    H14   81  -0.840  -0.146  -0.296
    1UNL    H15   82  -0.647  -0.189  -0.151
    1UNL    H16   83  -0.421  -0.033  -0.211
    1UNL    H17   84  -0.939   0.040   0.159
    1UNL    H18   85  -1.042  -0.147   0.564
    1UNL    H19   86  -0.904  -0.244   0.507
    1UNL    H20   87  -1.066  -0.274   0.418
    1UNL    H21   88  -0.614   0.057   0.419
    1UNL    H22   89  -0.563  -0.172   0.335
    1UNL    H23   90  -0.532  -0.104   0.171
    1UNL    H24   91  -0.165   0.019   0.274
    1UNL    H25   92  -0.159  -0.101   0.396
    1UNL    H26   93  -0.035  -0.270   0.262
    1UNL    H27   94   0.105  -0.003   0.284
    1UNL    H28   95   0.090  -0.121   0.410
    1UNL    H29   96   0.182  -0.153   0.252
    1UNL    H30   97   0.027  -0.065   0.069
    1UNL    H31   98  -0.205  -0.062  -0.010
    1UNL    H32   99  -0.245  -0.211   0.079
    1UNL    H33  100  -0.157  -0.187  -0.192
    1UNL    H34  101  -0.349  -0.287  -0.162
    1UNL    H35  102  -0.048  -0.438  -0.057
    1UNL    H36  103  -0.008  -0.373  -0.290
    1UNL    H37  104   0.146  -0.418  -0.212
    1UNL    H38  105   0.123  -0.263  -0.253
    1UNL    H39  106   0.139  -0.219  -0.029
    1UNL    H40  107   0.087  -0.418   0.186
    1UNL    H41  108   0.148  -0.462   0.035
    1UNL    H42  109   0.544  -0.243  -0.024
    1UNL    H43  110   0.528  -0.298   0.142
    1UNL    H44  111   0.381  -0.091   0.180
    1UNL    H45  112   0.104   0.168  -0.264
    1UNL    H46  113   0.096   0.187  -0.096
    1UNL    H47  114   0.067   0.023  -0.174
    1UNL    H48  115   0.494   0.094  -0.189
    1UNL    H49  116   0.746  -0.107   0.055
    1UNL    H50  117   0.991   0.106   0.070
    1UNL    H51  118   1.049   0.008  -0.218
    1UNL    H52  119   0.983   0.103  -0.416
    1UNL    H53  120   0.869   0.222  -0.338
    1UNL    H54  121   0.743   0.033  -0.260
    1UNL    H55  122   1.156   0.234  -0.259
    1UNL    H56  123   1.219   0.048  -0.101
    1UNL    H57  124   1.017   0.408  -0.171
    1UNL    H58  125   1.155   0.322   0.051
    1UNL    H59  126   0.885   0.342   0.075
    1UNL    H60  127   0.728   0.217  -0.110
    1UNL    H61  128   0.678   0.063   0.318
    1UNL    H62  129   0.419   0.046   0.378
    1UNL    H63  130   0.460  -0.127   0.361
    1UNL    H64  131   0.542  -0.040   0.486
   0.00000   0.00000   0.00000   0.00000   0.00000   0.00000   0.00000   0.00000   0.00000
Generated with MDTraj, t= 44.0
 131
    1UNL     C1    1  -0.458   0.367   0.176
    1UNL     C2    2  -0.489   0.250   0.259
    1UNL     C3    3  -0.581   0.159   0.222
    1UNL     C4    4  -0.631   0.141   0.080
    1UNL     O1    5  -0.579   0.030   0.015
    1UNL     C5    6  -0.626   0.035  -0.116
    1UNL     O2    7  -0.592   0.151  -0.191
    1UNL     C6    8  -0.648   0.169  -0.326
    1UNL     C7    9  -0.591   0.299  -0.386
    1UNL     O3   10  -0.618   0.333  -0.517
    1UNL     C8   11  -0.622   0.054  -0.424
    1UNL     O4   12  -0.699   0.050  -0.541
    1UNL     C9   13  -0.642  -0.081  -0.339
    1UNL     O5   14  -0.781  -0.098  -0.328
    1UNL    C10   15  -0.575  -0.085  -0.194
    1UNL     O6   16  -0.437  -0.090  -0.221
    1UNL     O7   17  -0.774   0.130   0.077
    1UNL    C11   18  -0.816   0.042   0.177
    1UNL    C12   19  -0.744  -0.003   0.280
    1UNL    C13   20  -0.808  -0.093   0.366
    1UNL     O8   21  -0.739  -0.168   0.431
    1UNL     O9   22  -0.946  -0.091   0.377
    1UNL    C14   23  -0.989  -0.197   0.451
    1UNL    C15   24  -0.604   0.037   0.303
    1UNL    C16   25  -0.511  -0.086   0.279
    1UNL    C17   26  -0.366  -0.060   0.322
    1UNL    O10   27  -0.340   0.033   0.394
    1UNL    O11   28  -0.272  -0.140   0.267
    1UNL    C18   29  -0.148  -0.100   0.305
    1UNL    C19   30  -0.046  -0.192   0.249
    1UNL    C20   31   0.081  -0.187   0.339
    1UNL    C21   32  -0.027  -0.156   0.101
    1UNL    C22   33  -0.158  -0.141   0.018
    1UNL    C23   34  -0.147  -0.214  -0.115
    1UNL    O12   35  -0.272  -0.282  -0.143
    1UNL    C24   36  -0.038  -0.323  -0.093
    1UNL    C25   37   0.027  -0.355  -0.218
    1UNL    C26   38   0.066  -0.256   0.009
    1UNL    C27   39   0.142  -0.360   0.096
    1UNL    O13   40   0.249  -0.295   0.142
    1UNL    C28   41   0.346  -0.296   0.047
    1UNL    O14   42   0.320  -0.346  -0.063
    1UNL    C29   43   0.475  -0.225   0.072
    1UNL    C30   44   0.459  -0.084   0.097
    1UNL    C31   45   0.417  -0.012  -0.026
    1UNL    C32   46   0.282   0.022  -0.063
    1UNL    O15   47   0.200   0.003   0.025
    1UNL    O16   48   0.261   0.080  -0.186
    1UNL    C33   49   0.131   0.129  -0.181
    1UNL    C34   50   0.518   0.041  -0.106
    1UNL    O17   51   0.648   0.038  -0.089
    1UNL    C35   52   0.699  -0.006   0.041
    1UNL    O18   53   0.796   0.077   0.106
    1UNL    C36   54   0.901   0.125   0.024
    1UNL    O19   55   0.922   0.034  -0.087
    1UNL    C37   56   0.989   0.087  -0.204
    1UNL    C38   57   0.885   0.126  -0.311
    1UNL    O20   58   0.797   0.017  -0.335
    1UNL    C39   59   1.081   0.203  -0.159
    1UNL    O21   60   1.180   0.147  -0.075
    1UNL    C40   61   1.000   0.320  -0.087
    1UNL    O22   62   1.078   0.385  -0.001
    1UNL    C41   63   0.874   0.267  -0.008
    1UNL    O23   64   0.756   0.297  -0.079
    1UNL    C42   65   0.586  -0.025   0.145
    1UNL    C43   66   0.609  -0.014   0.279
    1UNL    C44   67   0.510  -0.039   0.387
    1UNL     H1   68  -0.547   0.390   0.113
    1UNL     H2   69  -0.422   0.459   0.224
    1UNL     H3   70  -0.381   0.332   0.106
    1UNL     H4   71  -0.435   0.243   0.354
    1UNL     H5   72  -0.615   0.230   0.012
    1UNL     H6   73  -0.736   0.034  -0.125
    1UNL     H7   74  -0.753   0.175  -0.318
    1UNL     H8   75  -0.480   0.289  -0.384
    1UNL     H9   76  -0.622   0.379  -0.319
    1UNL    H10   77  -0.648   0.250  -0.557
    1UNL    H11   78  -0.521   0.057  -0.466
    1UNL    H12   79  -0.785   0.018  -0.509
    1UNL    H13   80  -0.602  -0.165  -0.392
    1UNL    H14   81  -0.815  -0.180  -0.281
    1UNL    H15   82  -0.590  -0.186  -0.143
    1UNL    H16   83  -0.399   0.002  -0.228
    1UNL    H17   84  -0.917   0.001   0.176
    1UNL    H18   85  -1.094  -0.211   0.420
    1UNL    H19   86  -0.983  -0.165   0.553
    1UNL    H20   87  -0.922  -0.282   0.422
    1UNL    H21   88  -0.606   0.062   0.412
    1UNL    H22   89  -0.555  -0.163   0.338
    1UNL    H23   90  -0.514  -0.105   0.169
    1UNL    H24   91  -0.125   0.003   0.272
    1UNL    H25   92  -0.151  -0.102   0.409
    1UNL    H26   93  -0.083  -0.292   0.248
    1UNL    H27   94   0.115  -0.084   0.349
    1UNL    H28   95   0.055  -0.217   0.445
    1UNL    H29   96   0.157  -0.238   0.290
    1UNL    H30   97   0.022  -0.056   0.115
    1UNL    H31   98  -0.181  -0.041   0.004
    1UNL    H32   99  -0.240  -0.193   0.077
    1UNL    H33  100  -0.121  -0.150  -0.196
    1UNL    H34  101  -0.332  -0.221  -0.181
    1UNL    H35  102  -0.081  -0.417  -0.057
    1UNL    H36  103  -0.041  -0.415  -0.278
    1UNL    H37  104   0.124  -0.400  -0.198
    1UNL    H38  105   0.058  -0.272  -0.276
    1UNL    H39  106   0.138  -0.198  -0.045
    1UNL    H40  107   0.079  -0.407   0.169
    1UNL    H41  108   0.171  -0.446   0.034
    1UNL    H42  109   0.543  -0.249  -0.015
    1UNL    H43  110   0.525  -0.276   0.153
    1UNL    H44  111   0.387  -0.080   0.178
    1UNL    H45  112   0.099   0.165  -0.276
    1UNL    H46  113   0.128   0.212  -0.115
    1UNL    H47  114   0.067   0.041  -0.149
    1UNL    H48  115   0.492   0.101  -0.192
    1UNL    H49  116   0.747  -0.107   0.032
    1UNL    H50  117   0.996   0.124   0.080
    1UNL    H51  118   1.050   0.006  -0.233
    1UNL    H52  119   0.923   0.142  -0.412
    1UNL    H53  120   0.834   0.212  -0.274
    1UNL    H54  121   0.750  -0.006  -0.252
    1UNL    H55  122   1.129   0.246  -0.256
    1UNL    H56  123   1.208   0.055  -0.096
    1UNL    H57  124   0.957   0.393  -0.159
    1UNL    H58  125   1.127   0.323   0.056
    1UNL    H59  126   0.859   0.321   0.086
    1UNL    H60  127   0.713   0.207  -0.092
    1UNL    H61  128   0.706   0.041   0.304
    1UNL    H62  129   0.411   0.007   0.375
    1UNL    H63  130   0.493  -0.147   0.394
    1UNL    H64  131   0.548  -0.017   0.493
   0.00000   0.00000   0.00000   0.00000   0.00000   0.00000   0.00000   0.00000   0.00000
Generated with MDTraj, t= 45.0
 131
    1UNL     C1    1  -0.461   0.375   0.174
    1UNL     C2    2  -0.483   0.260   0.257
    1UNL     C3    3  -0.577   0.167   0.223
    1UNL     C4    4  -0.630   0.149   0.083
    1UNL     O1    5  -0.582   0.041   0.010
    1UNL     C5    6  -0.623   0.048  -0.131
    1UNL     O2    7  -0.596   0.173  -0.198
    1UNL     C6    8  -0.655   0.175  -0.330
    1UNL     C7    9  -0.617   0.300  -0.408
    1UNL     O3   10  -0.675   0.313  -0.534
    1UNL     C8   11  -0.628   0.053  -0.420
    1UNL     O4   12  -0.697   0.036  -0.541
    1UNL     C9   13  -0.633  -0.080  -0.349
    1UNL     O5   14  -0.768  -0.123  -0.338
    1UNL    C10   15  -0.557  -0.063  -0.221
    1UNL     O6   16  -0.425  -0.023  -0.249
    1UNL     O7   17  -0.780   0.142   0.088
    1UNL    C11   18  -0.827   0.050   0.183
    1UNL    C12   19  -0.752   0.001   0.281
    1UNL    C13   20  -0.809  -0.093   0.368
    1UNL     O8   21  -0.748  -0.134   0.464
    1UNL     O9   22  -0.938  -0.138   0.343
    1UNL    C14   23  -0.999  -0.201   0.452
    1UNL    C15   24  -0.613   0.044   0.318
    1UNL    C16   25  -0.512  -0.087   0.316
    1UNL    C17   26  -0.375  -0.043   0.344
    1UNL    O10   27  -0.343   0.054   0.406
    1UNL    O11   28  -0.284  -0.131   0.291
    1UNL    C18   29  -0.154  -0.126   0.339
    1UNL    C19   30  -0.049  -0.217   0.267
    1UNL    C20   31   0.084  -0.200   0.338
    1UNL    C21   32  -0.027  -0.176   0.115
    1UNL    C22   33  -0.161  -0.146   0.039
    1UNL    C23   34  -0.141  -0.206  -0.099
    1UNL    O12   35  -0.265  -0.251  -0.161
    1UNL    C24   36  -0.042  -0.326  -0.089
    1UNL    C25   37   0.036  -0.368  -0.219
    1UNL    C26   38   0.060  -0.281   0.026
    1UNL    C27   39   0.142  -0.395   0.087
    1UNL    O13   40   0.270  -0.357   0.130
    1UNL    C28   41   0.350  -0.318   0.032
    1UNL    O14   42   0.321  -0.333  -0.086
    1UNL    C29   43   0.475  -0.245   0.064
    1UNL    C30   44   0.462  -0.094   0.091
    1UNL    C31   45   0.421  -0.004  -0.024
    1UNL    C32   46   0.280   0.029  -0.058
    1UNL    O15   47   0.188  -0.015   0.009
    1UNL    O16   48   0.274   0.095  -0.175
    1UNL    C33   49   0.137   0.107  -0.203
    1UNL    C34   50   0.522   0.040  -0.104
    1UNL    O17   51   0.652   0.024  -0.081
    1UNL    C35   52   0.698  -0.009   0.054
    1UNL    O18   53   0.795   0.076   0.111
    1UNL    C36   54   0.905   0.121   0.033
    1UNL    O19   55   0.922   0.036  -0.090
    1UNL    C37   56   0.993   0.096  -0.202
    1UNL    C38   57   0.901   0.134  -0.320
    1UNL    O20   58   0.792   0.048  -0.333
    1UNL    C39   59   1.091   0.210  -0.163
    1UNL    O21   60   1.178   0.157  -0.063
    1UNL    C40   61   1.011   0.329  -0.098
    1UNL    O22   62   1.080   0.422  -0.022
    1UNL    C41   63   0.888   0.266  -0.016
    1UNL    O23   64   0.767   0.273  -0.094
    1UNL    C42   65   0.590  -0.044   0.158
    1UNL    C43   66   0.604  -0.024   0.294
    1UNL    C44   67   0.502  -0.031   0.405
    1UNL     H1   68  -0.549   0.441   0.165
    1UNL     H2   69  -0.373   0.437   0.190
    1UNL     H3   70  -0.441   0.332   0.075
    1UNL     H4   71  -0.440   0.258   0.355
    1UNL     H5   72  -0.606   0.239   0.023
    1UNL     H6   73  -0.734   0.034  -0.132
    1UNL     H7   74  -0.761   0.178  -0.323
    1UNL     H8   75  -0.506   0.294  -0.434
    1UNL     H9   76  -0.637   0.395  -0.356
    1UNL    H10   77  -0.668   0.219  -0.574
    1UNL    H11   78  -0.526   0.065  -0.457
    1UNL    H12   79  -0.779  -0.017  -0.524
    1UNL    H13   80  -0.580  -0.158  -0.407
    1UNL    H14   81  -0.778  -0.199  -0.271
    1UNL    H15   82  -0.552  -0.151  -0.151
    1UNL    H16   83  -0.415   0.061  -0.203
    1UNL    H17   84  -0.924   0.004   0.171
    1UNL    H18   85  -1.085  -0.255   0.420
    1UNL    H19   86  -1.023  -0.119   0.512
    1UNL    H20   87  -0.921  -0.261   0.496
    1UNL    H21   88  -0.611   0.063   0.428
    1UNL    H22   89  -0.535  -0.165   0.383
    1UNL    H23   90  -0.514  -0.120   0.208
    1UNL    H24   91  -0.127  -0.017   0.325
    1UNL    H25   92  -0.150  -0.146   0.442
    1UNL    H26   93  -0.094  -0.314   0.269
    1UNL    H27   94   0.124  -0.099   0.338
    1UNL    H28   95   0.080  -0.213   0.447
    1UNL    H29   96   0.173  -0.254   0.288
    1UNL    H30   97   0.017  -0.074   0.128
    1UNL    H31   98  -0.183  -0.044   0.044
    1UNL    H32   99  -0.246  -0.202   0.088
    1UNL    H33  100  -0.099  -0.129  -0.161
    1UNL    H34  101  -0.322  -0.168  -0.186
    1UNL    H35  102  -0.099  -0.415  -0.066
    1UNL    H36  103  -0.035  -0.391  -0.295
    1UNL    H37  104   0.102  -0.449  -0.194
    1UNL    H38  105   0.115  -0.300  -0.255
    1UNL    H39  106   0.129  -0.213  -0.022
    1UNL    H40  107   0.086  -0.458   0.154
    1UNL    H41  108   0.163  -0.465   0.007
    1UNL    H42  109   0.556  -0.267  -0.012
    1UNL    H43  110   0.520  -0.303   0.146
    1UNL    H44  111   0.385  -0.093   0.167
    1UNL    H45  112   0.119   0.178  -0.285
    1UNL    H46  113   0.087   0.149  -0.118
    1UNL    H47  114   0.100   0.000  -0.227
    1UNL    H48  115   0.497   0.080  -0.196
    1UNL    H49  116   0.750  -0.111   0.041
    1UNL    H50  117   0.994   0.114   0.098
    1UNL    H51  118   1.057   0.015  -0.233
    1UNL    H52  119   0.959   0.134  -0.411
    1UNL    H53  120   0.847   0.226  -0.314
    1UNL    H54  121   0.769   0.029  -0.240
    1UNL    H55  122   1.146   0.241  -0.259
    1UNL    H56  123   1.220   0.076  -0.094
    1UNL    H57  124   0.971   0.393  -0.178
    1UNL    H58  125   1.134   0.383   0.050
    1UNL    H59  126   0.887   0.333   0.073
    1UNL    H60  127   0.715   0.186  -0.091
    1UNL    H61  128   0.693   0.020   0.315
    1UNL    H62  129   0.416   0.037   0.396
    1UNL    H63  130   0.463  -0.134   0.405
    1UNL    H64  131   0.555  -0.020   0.504
   0.00000   0.00000   0.00000   0.00000   0.00000   0.00000   0.00000   0.00000   0.00000
Generated with MDTraj, t= 46.0
 131
    1UNL     C1    1  -0.433   0.367   0.158
    1UNL     C2    2  -0.474   0.254   0.239
    1UNL     C3    3  -0.565   0.155   0.216
    1UNL     C4    4  -0.626   0.150   0.078
    1UNL     O1    5  -0.547   0.073  -0.006
    1UNL     C5    6  -0.612   0.069  -0.131
    1UNL     O2    7  -0.617   0.187  -0.206
    1UNL     C6    8  -0.685   0.177  -0.337
    1UNL     C7    9  -0.679   0.319  -0.406
    1UNL     O3   10  -0.743   0.307  -0.534
    1UNL     C8   11  -0.624   0.061  -0.424
    1UNL     O4   12  -0.699   0.026  -0.543
    1UNL     C9   13  -0.614  -0.068  -0.339
    1UNL     O5   14  -0.752  -0.119  -0.335
    1UNL    C10   15  -0.546  -0.046  -0.203
    1UNL     O6   16  -0.404  -0.015  -0.212
    1UNL     O7   17  -0.772   0.121   0.078
    1UNL    C11   18  -0.815   0.048   0.180
    1UNL    C12   19  -0.747   0.003   0.285
    1UNL    C13   20  -0.823  -0.082   0.376
    1UNL     O8   21  -0.782  -0.089   0.488
    1UNL     O9   22  -0.942  -0.138   0.341
    1UNL    C14   23  -0.985  -0.243   0.430
    1UNL    C15   24  -0.606   0.050   0.305
    1UNL    C16   25  -0.510  -0.072   0.281
    1UNL    C17   26  -0.366  -0.053   0.334
    1UNL    O10   27  -0.341   0.040   0.405
    1UNL    O11   28  -0.276  -0.144   0.287
    1UNL    C18   29  -0.150  -0.126   0.343
    1UNL    C19   30  -0.049  -0.218   0.277
    1UNL    C20   31   0.080  -0.216   0.353
    1UNL    C21   32  -0.034  -0.177   0.125
    1UNL    C22   33  -0.166  -0.160   0.038
    1UNL    C23   34  -0.141  -0.214  -0.104
    1UNL    O12   35  -0.269  -0.271  -0.156
    1UNL    C24   36  -0.036  -0.322  -0.086
    1UNL    C25   37   0.043  -0.344  -0.220
    1UNL    C26   38   0.057  -0.271   0.032
    1UNL    C27   39   0.135  -0.384   0.096
    1UNL    O13   40   0.265  -0.352   0.151
    1UNL    C28   41   0.340  -0.310   0.039
    1UNL    O14   42   0.306  -0.315  -0.080
    1UNL    C29   43   0.475  -0.259   0.055
    1UNL    C30   44   0.463  -0.109   0.094
    1UNL    C31   45   0.431  -0.026  -0.025
    1UNL    C32   46   0.290   0.008  -0.055
    1UNL    O15   47   0.204  -0.031   0.023
    1UNL    O16   48   0.279   0.081  -0.169
    1UNL    C33   49   0.140   0.089  -0.194
    1UNL    C34   50   0.525   0.026  -0.102
    1UNL    O17   51   0.668   0.013  -0.092
    1UNL    C35   52   0.703  -0.009   0.045
    1UNL    O18   53   0.783   0.093   0.094
    1UNL    C36   54   0.893   0.139   0.021
    1UNL    O19   55   0.910   0.055  -0.100
    1UNL    C37   56   0.998   0.096  -0.199
    1UNL    C38   57   0.919   0.125  -0.329
    1UNL    O20   58   0.822   0.027  -0.351
    1UNL    C39   59   1.086   0.213  -0.150
    1UNL    O21   60   1.160   0.157  -0.040
    1UNL    C40   61   1.007   0.339  -0.090
    1UNL    O22   62   1.091   0.410  -0.004
    1UNL    C41   63   0.880   0.285  -0.018
    1UNL    O23   64   0.761   0.299  -0.096
    1UNL    C42   65   0.591  -0.052   0.150
    1UNL    C43   66   0.604  -0.029   0.284
    1UNL    C44   67   0.500  -0.037   0.384
    1UNL     H1   68  -0.516   0.413   0.106
    1UNL     H2   69  -0.369   0.444   0.202
    1UNL     H3   70  -0.368   0.320   0.082
    1UNL     H4   71  -0.457   0.277   0.345
    1UNL     H5   72  -0.600   0.241   0.023
    1UNL     H6   73  -0.721   0.041  -0.121
    1UNL     H7   74  -0.785   0.156  -0.311
    1UNL     H8   75  -0.573   0.363  -0.418
    1UNL     H9   76  -0.738   0.396  -0.350
    1UNL    H10   77  -0.709   0.228  -0.572
    1UNL    H11   78  -0.524   0.100  -0.445
    1UNL    H12   79  -0.775  -0.031  -0.514
    1UNL    H13   80  -0.557  -0.146  -0.397
    1UNL    H14   81  -0.763  -0.186  -0.263
    1UNL    H15   82  -0.557  -0.137  -0.141
    1UNL    H16   83  -0.383   0.035  -0.125
    1UNL    H17   84  -0.922   0.032   0.177
    1UNL    H18   85  -1.085  -0.282   0.410
    1UNL    H19   86  -0.970  -0.199   0.523
    1UNL    H20   87  -0.909  -0.320   0.423
    1UNL    H21   88  -0.601   0.074   0.414
    1UNL    H22   89  -0.559  -0.154   0.326
    1UNL    H23   90  -0.502  -0.095   0.170
    1UNL    H24   91  -0.112  -0.018   0.332
    1UNL    H25   92  -0.162  -0.146   0.448
    1UNL    H26   93  -0.091  -0.315   0.278
    1UNL    H27   94   0.112  -0.113   0.374
    1UNL    H28   95   0.058  -0.246   0.455
    1UNL    H29   96   0.171  -0.260   0.297
    1UNL    H30   97   0.000  -0.073   0.142
    1UNL    H31   98  -0.212  -0.062   0.039
    1UNL    H32   99  -0.239  -0.228   0.084
    1UNL    H33  100  -0.114  -0.129  -0.168
    1UNL    H34  101  -0.332  -0.201  -0.160
    1UNL    H35  102  -0.093  -0.410  -0.060
    1UNL    H36  103  -0.029  -0.364  -0.295
    1UNL    H37  104   0.116  -0.421  -0.215
    1UNL    H38  105   0.115  -0.266  -0.256
    1UNL    H39  106   0.120  -0.197  -0.011
    1UNL    H40  107   0.076  -0.427   0.174
    1UNL    H41  108   0.145  -0.466   0.025
    1UNL    H42  109   0.543  -0.279  -0.034
    1UNL    H43  110   0.533  -0.310   0.131
    1UNL    H44  111   0.389  -0.103   0.173
    1UNL    H45  112   0.123   0.181  -0.257
    1UNL    H46  113   0.085   0.110  -0.103
    1UNL    H47  114   0.106  -0.008  -0.247
    1UNL    H48  115   0.495   0.096  -0.182
    1UNL    H49  116   0.771  -0.102   0.036
    1UNL    H50  117   0.973   0.120   0.096
    1UNL    H51  118   1.066   0.010  -0.211
    1UNL    H52  119   0.979   0.121  -0.421
    1UNL    H53  120   0.875   0.221  -0.321
    1UNL    H54  121   0.761   0.017  -0.275
    1UNL    H55  122   1.159   0.249  -0.227
    1UNL    H56  123   1.178   0.063  -0.051
    1UNL    H57  124   0.968   0.402  -0.170
    1UNL    H58  125   1.161   0.352   0.036
    1UNL    H59  126   0.863   0.341   0.079
    1UNL    H60  127   0.722   0.211  -0.103
    1UNL    H61  128   0.707   0.013   0.311
    1UNL    H62  129   0.404   0.014   0.364
    1UNL    H63  130   0.478  -0.146   0.399
    1UNL    H64  131   0.549  -0.000   0.476
   0.00000   0.00000   0.00000   0.00000   0.00000   0.00000   0.00000   0.00000   0.00000
Generated with MDTraj, t= 47.0
 131
    1UNL     C1    1  -0.387   0.359   0.179
    1UNL     C2    2  -0.471   0.264   0.245
    1UNL     C3    3  -0.569   0.176   0.210
    1UNL     C4    4  -0.626   0.162   0.075
    1UNL     O1    5  -0.553   0.076  -0.000
    1UNL     C5    6  -0.608   0.070  -0.134
    1UNL     O2    7  -0.615   0.189  -0.209
    1UNL     C6    8  -0.698   0.164  -0.325
    1UNL     C7    9  -0.728   0.306  -0.382
    1UNL     O3   10  -0.821   0.298  -0.488
    1UNL     C8   11  -0.614   0.064  -0.420
    1UNL     O4   12  -0.676   0.046  -0.547
    1UNL     C9   13  -0.605  -0.072  -0.355
    1UNL     O5   14  -0.734  -0.127  -0.340
    1UNL    C10   15  -0.542  -0.049  -0.216
    1UNL     O6   16  -0.392  -0.027  -0.219
    1UNL     O7   17  -0.768   0.131   0.065
    1UNL    C11   18  -0.829   0.064   0.172
    1UNL    C12   19  -0.758   0.022   0.281
    1UNL    C13   20  -0.814  -0.078   0.376
    1UNL     O8   21  -0.756  -0.095   0.481
    1UNL     O9   22  -0.920  -0.150   0.335
    1UNL    C14   23  -0.971  -0.231   0.433
    1UNL    C15   24  -0.609   0.056   0.297
    1UNL    C16   25  -0.520  -0.066   0.278
    1UNL    C17   26  -0.381  -0.062   0.327
    1UNL    O10   27  -0.330   0.028   0.390
    1UNL    O11   28  -0.301  -0.166   0.283
    1UNL    C18   29  -0.172  -0.137   0.333
    1UNL    C19   30  -0.057  -0.214   0.270
    1UNL    C20   31   0.070  -0.192   0.357
    1UNL    C21   32  -0.035  -0.172   0.118
    1UNL    C22   33  -0.164  -0.155   0.039
    1UNL    C23   34  -0.149  -0.214  -0.101
    1UNL    O12   35  -0.273  -0.277  -0.151
    1UNL    C24   36  -0.038  -0.316  -0.096
    1UNL    C25   37   0.049  -0.335  -0.228
    1UNL    C26   38   0.053  -0.267   0.024
    1UNL    C27   39   0.135  -0.376   0.099
    1UNL    O13   40   0.260  -0.326   0.153
    1UNL    C28   41   0.351  -0.316   0.049
    1UNL    O14   42   0.328  -0.362  -0.060
    1UNL    C29   43   0.479  -0.248   0.066
    1UNL    C30   44   0.457  -0.091   0.083
    1UNL    C31   45   0.418  -0.028  -0.047
    1UNL    C32   46   0.275   0.006  -0.063
    1UNL    O15   47   0.203  -0.010   0.034
    1UNL    O16   48   0.245   0.046  -0.191
    1UNL    C33   49   0.117   0.102  -0.169
    1UNL    C34   50   0.516   0.025  -0.126
    1UNL    O17   51   0.655   0.012  -0.095
    1UNL    C35   52   0.694  -0.006   0.042
    1UNL    O18   53   0.776   0.094   0.101
    1UNL    C36   54   0.888   0.130   0.027
    1UNL    O19   55   0.942   0.034  -0.072
    1UNL    C37   56   1.020   0.091  -0.179
    1UNL    C38   57   0.933   0.133  -0.305
    1UNL    O20   58   0.839   0.029  -0.333
    1UNL    C39   59   1.102   0.213  -0.134
    1UNL    O21   60   1.189   0.179  -0.028
    1UNL    C40   61   1.006   0.331  -0.091
    1UNL    O22   62   1.077   0.408   0.004
    1UNL    C41   63   0.865   0.272  -0.035
    1UNL    O23   64   0.757   0.279  -0.132
    1UNL    C42   65   0.587  -0.036   0.140
    1UNL    C43   66   0.624  -0.028   0.272
    1UNL    C44   67   0.537  -0.061   0.378
    1UNL     H1   68  -0.396   0.461   0.212
    1UNL     H2   69  -0.285   0.321   0.183
    1UNL     H3   70  -0.420   0.358   0.075
    1UNL     H4   71  -0.463   0.265   0.352
    1UNL     H5   72  -0.599   0.255   0.030
    1UNL     H6   73  -0.716   0.043  -0.130
    1UNL     H7   74  -0.783   0.110  -0.294
    1UNL     H8   75  -0.627   0.352  -0.413
    1UNL     H9   76  -0.766   0.372  -0.302
    1UNL    H10   77  -0.799   0.217  -0.546
    1UNL    H11   78  -0.513   0.104  -0.437
    1UNL    H12   79  -0.757  -0.005  -0.535
    1UNL    H13   80  -0.550  -0.141  -0.428
    1UNL    H14   81  -0.722  -0.202  -0.280
    1UNL    H15   82  -0.553  -0.144  -0.167
    1UNL    H16   83  -0.368   0.045  -0.277
    1UNL    H17   84  -0.933   0.036   0.156
    1UNL    H18   85  -1.067  -0.276   0.396
    1UNL    H19   86  -0.976  -0.167   0.522
    1UNL    H20   87  -0.892  -0.306   0.455
    1UNL    H21   88  -0.607   0.072   0.407
    1UNL    H22   89  -0.555  -0.146   0.341
    1UNL    H23   90  -0.529  -0.102   0.172
    1UNL    H24   91  -0.165  -0.021   0.315
    1UNL    H25   92  -0.173  -0.149   0.442
    1UNL    H26   93  -0.070  -0.318   0.271
    1UNL    H27   94   0.086  -0.081   0.362
    1UNL    H28   95   0.040  -0.214   0.459
    1UNL    H29   96   0.159  -0.240   0.312
    1UNL    H30   97   0.017  -0.074   0.126
    1UNL    H31   98  -0.185  -0.045   0.027
    1UNL    H32   99  -0.247  -0.198   0.086
    1UNL    H33  100  -0.121  -0.134  -0.174
    1UNL    H34  101  -0.346  -0.207  -0.173
    1UNL    H35  102  -0.082  -0.411  -0.070
    1UNL    H36  103  -0.010  -0.396  -0.292
    1UNL    H37  104   0.147  -0.373  -0.216
    1UNL    H38  105   0.075  -0.244  -0.288
    1UNL    H39  106   0.132  -0.208  -0.014
    1UNL    H40  107   0.068  -0.408   0.176
    1UNL    H41  108   0.153  -0.460   0.031
    1UNL    H42  109   0.557  -0.264  -0.013
    1UNL    H43  110   0.542  -0.283   0.148
    1UNL    H44  111   0.378  -0.071   0.155
    1UNL    H45  112   0.079   0.141  -0.269
    1UNL    H46  113   0.128   0.193  -0.113
    1UNL    H47  114   0.043   0.029  -0.126
    1UNL    H48  115   0.488   0.088  -0.216
    1UNL    H49  116   0.765  -0.098   0.037
    1UNL    H50  117   0.961   0.146   0.108
    1UNL    H51  118   1.088   0.007  -0.213
    1UNL    H52  119   0.995   0.141  -0.394
    1UNL    H53  120   0.884   0.228  -0.300
    1UNL    H54  121   0.765   0.032  -0.265
    1UNL    H55  122   1.167   0.250  -0.214
    1UNL    H56  123   1.220   0.089  -0.052
    1UNL    H57  124   0.982   0.394  -0.177
    1UNL    H58  125   1.146   0.351   0.045
    1UNL    H59  126   0.841   0.358   0.038
    1UNL    H60  127   0.706   0.196  -0.122
    1UNL    H61  128   0.721   0.009   0.288
    1UNL    H62  129   0.441  -0.005   0.394
    1UNL    H63  130   0.496  -0.167   0.368
    1UNL    H64  131   0.597  -0.053   0.468
   0.00000   0.00000   0.00000   0.00000   0.00000   0.00000   0.00000   0.00000   0.00000
Generated with MDTraj, t= 48.0
 131
    1UNL     C1    1  -0.415   0.361   0.169
    1UNL     C2    2  -0.466   0.249   0.239
    1UNL     C3    3  -0.550   0.152   0.204
    1UNL     C4    4  -0.611   0.156   0.061
    1UNL     O1    5  -0.563   0.041   0.006
    1UNL     C5    6  -0.621   0.042  -0.129
    1UNL     O2    7  -0.628   0.170  -0.187
    1UNL     C6    8  -0.708   0.162  -0.307
    1UNL     C7    9  -0.742   0.298  -0.370
    1UNL     O3   10  -0.850   0.280  -0.455
    1UNL     C8   11  -0.632   0.075  -0.415
    1UNL     O4   12  -0.710   0.066  -0.530
    1UNL     C9   13  -0.600  -0.068  -0.357
    1UNL     O5   14  -0.722  -0.143  -0.365
    1UNL    C10   15  -0.542  -0.049  -0.220
    1UNL     O6   16  -0.404  -0.010  -0.230
    1UNL     O7   17  -0.750   0.161   0.071
    1UNL    C11   18  -0.806   0.078   0.171
    1UNL    C12   19  -0.743   0.015   0.267
    1UNL    C13   20  -0.810  -0.076   0.356
    1UNL     O8   21  -0.744  -0.118   0.448
    1UNL     O9   22  -0.943  -0.111   0.341
    1UNL    C14   23  -0.986  -0.212   0.429
    1UNL    C15   24  -0.600   0.043   0.291
    1UNL    C16   25  -0.510  -0.079   0.287
    1UNL    C17   26  -0.365  -0.051   0.316
    1UNL    O10   27  -0.350   0.036   0.398
    1UNL    O11   28  -0.276  -0.140   0.270
    1UNL    C18   29  -0.153  -0.107   0.327
    1UNL    C19   30  -0.050  -0.199   0.270
    1UNL    C20   31   0.076  -0.187   0.353
    1UNL    C21   32  -0.047  -0.173   0.110
    1UNL    C22   33  -0.176  -0.158   0.031
    1UNL    C23   34  -0.142  -0.202  -0.110
    1UNL    O12   35  -0.262  -0.259  -0.179
    1UNL    C24   36  -0.031  -0.310  -0.088
    1UNL    C25   37   0.055  -0.346  -0.208
    1UNL    C26   38   0.055  -0.262   0.034
    1UNL    C27   39   0.131  -0.386   0.098
    1UNL    O13   40   0.258  -0.338   0.143
    1UNL    C28   41   0.348  -0.331   0.042
    1UNL    O14   42   0.318  -0.372  -0.067
    1UNL    C29   43   0.477  -0.260   0.063
    1UNL    C30   44   0.458  -0.106   0.095
    1UNL    C31   45   0.412  -0.028  -0.018
    1UNL    C32   46   0.269   0.015  -0.039
    1UNL    O15   47   0.190  -0.000   0.048
    1UNL    O16   48   0.252   0.058  -0.169
    1UNL    C33   49   0.113   0.087  -0.184
    1UNL    C34   50   0.513   0.029  -0.097
    1UNL    O17   51   0.647   0.033  -0.094
    1UNL    C35   52   0.693  -0.005   0.040
    1UNL    O18   53   0.776   0.100   0.101
    1UNL    C36   54   0.886   0.146   0.016
    1UNL    O19   55   0.929   0.050  -0.080
    1UNL    C37   56   1.026   0.088  -0.172
    1UNL    C38   57   0.961   0.096  -0.310
    1UNL    O20   58   0.865  -0.006  -0.325
    1UNL    C39   59   1.104   0.216  -0.126
    1UNL    O21   60   1.183   0.189  -0.008
    1UNL    C40   61   1.008   0.342  -0.092
    1UNL    O22   62   1.085   0.428  -0.002
    1UNL    C41   63   0.867   0.288  -0.047
    1UNL    O23   64   0.788   0.279  -0.158
    1UNL    C42   65   0.588  -0.047   0.139
    1UNL    C43   66   0.619  -0.044   0.271
    1UNL    C44   67   0.527  -0.081   0.381
    1UNL     H1   68  -0.309   0.376   0.167
    1UNL     H2   69  -0.447   0.346   0.066
    1UNL     H3   70  -0.463   0.450   0.209
    1UNL     H4   71  -0.416   0.226   0.334
    1UNL     H5   72  -0.582   0.236  -0.001
    1UNL     H6   73  -0.724   0.002  -0.129
    1UNL     H7   74  -0.794   0.111  -0.280
    1UNL     H8   75  -0.650   0.350  -0.412
    1UNL     H9   76  -0.776   0.360  -0.287
    1UNL    H10   77  -0.831   0.232  -0.537
    1UNL    H11   78  -0.536   0.120  -0.446
    1UNL    H12   79  -0.754  -0.025  -0.535
    1UNL    H13   80  -0.524  -0.118  -0.426
    1UNL    H14   81  -0.701  -0.233  -0.339
    1UNL    H15   82  -0.537  -0.138  -0.160
    1UNL    H16   83  -0.410   0.085  -0.225
    1UNL    H17   84  -0.912   0.054   0.165
    1UNL    H18   85  -1.067  -0.278   0.381
    1UNL    H19   86  -1.013  -0.154   0.521
    1UNL    H20   87  -0.897  -0.272   0.465
    1UNL    H21   88  -0.594   0.077   0.397
    1UNL    H22   89  -0.546  -0.160   0.350
    1UNL    H23   90  -0.517  -0.122   0.186
    1UNL    H24   91  -0.124   0.006   0.313
    1UNL    H25   92  -0.165  -0.129   0.435
    1UNL    H26   93  -0.082  -0.300   0.271
    1UNL    H27   94   0.113  -0.079   0.350
    1UNL    H28   95   0.064  -0.206   0.461
    1UNL    H29   96   0.151  -0.240   0.305
    1UNL    H30   97   0.001  -0.074   0.101
    1UNL    H31   98  -0.218  -0.052   0.027
    1UNL    H32   99  -0.253  -0.219   0.064
    1UNL    H33  100  -0.112  -0.119  -0.183
    1UNL    H34  101  -0.313  -0.184  -0.204
    1UNL    H35  102  -0.077  -0.404  -0.063
    1UNL    H36  103  -0.008  -0.350  -0.297
    1UNL    H37  104   0.121  -0.429  -0.195
    1UNL    H38  105   0.131  -0.266  -0.220
    1UNL    H39  106   0.141  -0.207   0.001
    1UNL    H40  107   0.065  -0.436   0.168
    1UNL    H41  108   0.148  -0.457   0.014
    1UNL    H42  109   0.543  -0.262  -0.028
    1UNL    H43  110   0.549  -0.311   0.130
    1UNL    H44  111   0.383  -0.095   0.172
    1UNL    H45  112   0.088   0.057  -0.291
    1UNL    H46  113   0.096   0.190  -0.183
    1UNL    H47  114   0.045   0.028  -0.121
    1UNL    H48  115   0.475   0.088  -0.181
    1UNL    H49  116   0.774  -0.086   0.027
    1UNL    H50  117   0.959   0.156   0.099
    1UNL    H51  118   1.101   0.002  -0.167
    1UNL    H52  119   1.039   0.102  -0.388
    1UNL    H53  120   0.901   0.185  -0.317
    1UNL    H54  121   0.796  -0.002  -0.249
    1UNL    H55  122   1.173   0.260  -0.193
    1UNL    H56  123   1.259   0.130  -0.038
    1UNL    H57  124   0.993   0.395  -0.186
    1UNL    H58  125   1.149   0.369   0.045
    1UNL    H59  126   0.812   0.351   0.032
    1UNL    H60  127   0.719   0.209  -0.137
    1UNL    H61  128   0.721  -0.003   0.290
    1UNL    H62  129   0.433  -0.022   0.395
    1UNL    H63  130   0.472  -0.179   0.357
    1UNL    H64  131   0.580  -0.088   0.475
   0.00000   0.00000   0.00000   0.00000   0.00000   0.00000   0.00000   0.00000   0.00000
Generated with MDTraj, t= 49.0
 131
    1UNL     C1    1  -0.429   0.359   0.145
    1UNL     C2    2  -0.482   0.269   0.244
    1UNL     C3    3  -0.550   0.161   0.211
    1UNL     C4    4  -0.610   0.154   0.072
    1UNL     O1    5  -0.557   0.046  -0.001
    1UNL     C5    6  -0.635   0.009  -0.127
    1UNL     O2    7  -0.663   0.140  -0.183
    1UNL     C6    8  -0.741   0.144  -0.302
    1UNL     C7    9  -0.778   0.289  -0.333
    1UNL     O3   10  -0.832   0.310  -0.454
    1UNL     C8   11  -0.668   0.073  -0.422
    1UNL     O4   12  -0.749   0.055  -0.530
    1UNL     C9   13  -0.613  -0.064  -0.369
    1UNL     O5   14  -0.722  -0.151  -0.375
    1UNL    C10   15  -0.546  -0.063  -0.229
    1UNL     O6   16  -0.412  -0.009  -0.238
    1UNL     O7   17  -0.757   0.158   0.067
    1UNL    C11   18  -0.804   0.068   0.159
    1UNL    C12   19  -0.744   0.017   0.272
    1UNL    C13   20  -0.812  -0.082   0.353
    1UNL     O8   21  -0.763  -0.156   0.438
    1UNL     O9   22  -0.951  -0.081   0.331
    1UNL    C14   23  -1.027  -0.167   0.409
    1UNL    C15   24  -0.596   0.046   0.304
    1UNL    C16   25  -0.502  -0.076   0.302
    1UNL    C17   26  -0.362  -0.050   0.344
    1UNL    O10   27  -0.339   0.026   0.436
    1UNL    O11   28  -0.261  -0.117   0.276
    1UNL    C18   29  -0.132  -0.095   0.326
    1UNL    C19   30  -0.024  -0.196   0.262
    1UNL    C20   31   0.109  -0.169   0.322
    1UNL    C21   32  -0.018  -0.173   0.101
    1UNL    C22   33  -0.144  -0.141   0.026
    1UNL    C23   34  -0.126  -0.206  -0.116
    1UNL    O12   35  -0.249  -0.253  -0.178
    1UNL    C24   36  -0.020  -0.313  -0.102
    1UNL    C25   37   0.053  -0.349  -0.226
    1UNL    C26   38   0.074  -0.263   0.016
    1UNL    C27   39   0.152  -0.380   0.090
    1UNL    O13   40   0.272  -0.345   0.142
    1UNL    C28   41   0.354  -0.308   0.033
    1UNL    O14   42   0.312  -0.318  -0.080
    1UNL    C29   43   0.484  -0.237   0.055
    1UNL    C30   44   0.470  -0.094   0.095
    1UNL    C31   45   0.430  -0.012  -0.027
    1UNL    C32   46   0.284   0.014  -0.045
    1UNL    O15   47   0.209  -0.024   0.042
    1UNL    O16   48   0.250   0.069  -0.170
    1UNL    C33   49   0.112   0.095  -0.161
    1UNL    C34   50   0.527   0.023  -0.115
    1UNL    O17   51   0.660   0.003  -0.095
    1UNL    C35   52   0.701  -0.006   0.052
    1UNL    O18   53   0.759   0.121   0.105
    1UNL    C36   54   0.878   0.149   0.030
    1UNL    O19   55   0.919   0.042  -0.057
    1UNL    C37   56   1.019   0.076  -0.153
    1UNL    C38   57   0.967   0.078  -0.297
    1UNL    O20   58   0.886  -0.032  -0.322
    1UNL    C39   59   1.099   0.205  -0.108
    1UNL    O21   60   1.161   0.184   0.018
    1UNL    C40   61   1.004   0.327  -0.108
    1UNL    O22   62   1.067   0.431  -0.028
    1UNL    C41   63   0.863   0.285  -0.051
    1UNL    O23   64   0.763   0.266  -0.146
    1UNL    C42   65   0.602  -0.053   0.146
    1UNL    C43   66   0.631  -0.044   0.280
    1UNL    C44   67   0.542  -0.101   0.391
    1UNL     H1   68  -0.399   0.317   0.051
    1UNL     H2   69  -0.511   0.429   0.123
    1UNL     H3   70  -0.352   0.418   0.192
    1UNL     H4   71  -0.436   0.256   0.340
    1UNL     H5   72  -0.586   0.241   0.019
    1UNL     H6   73  -0.726  -0.046  -0.112
    1UNL     H7   74  -0.835   0.104  -0.283
    1UNL     H8   75  -0.688   0.353  -0.323
    1UNL     H9   76  -0.842   0.331  -0.258
    1UNL    H10   77  -0.774   0.275  -0.525
    1UNL    H11   78  -0.581   0.137  -0.448
    1UNL    H12   79  -0.796  -0.028  -0.516
    1UNL    H13   80  -0.549  -0.103  -0.452
    1UNL    H14   81  -0.693  -0.245  -0.358
    1UNL    H15   82  -0.528  -0.167  -0.201
    1UNL    H16   83  -0.410   0.074  -0.183
    1UNL    H17   84  -0.909   0.046   0.145
    1UNL    H18   85  -1.133  -0.130   0.414
    1UNL    H19   86  -0.970  -0.169   0.504
    1UNL    H20   87  -1.021  -0.269   0.367
    1UNL    H21   88  -0.587   0.072   0.412
    1UNL    H22   89  -0.543  -0.159   0.364
    1UNL    H23   90  -0.498  -0.117   0.203
    1UNL    H24   91  -0.112   0.017   0.301
    1UNL    H25   92  -0.131  -0.107   0.435
    1UNL    H26   93  -0.064  -0.293   0.273
    1UNL    H27   94   0.155  -0.069   0.301
    1UNL    H28   95   0.111  -0.176   0.431
    1UNL    H29   96   0.183  -0.235   0.280
    1UNL    H30   97   0.038  -0.078   0.093
    1UNL    H31   98  -0.166  -0.031   0.014
    1UNL    H32   99  -0.226  -0.192   0.072
    1UNL    H33  100  -0.099  -0.118  -0.185
    1UNL    H34  101  -0.312  -0.171  -0.190
    1UNL    H35  102  -0.070  -0.402  -0.069
    1UNL    H36  103  -0.021  -0.381  -0.303
    1UNL    H37  104   0.132  -0.420  -0.203
    1UNL    H38  105   0.112  -0.266  -0.261
    1UNL    H39  106   0.151  -0.201  -0.027
    1UNL    H40  107   0.094  -0.414   0.176
    1UNL    H41  108   0.168  -0.468   0.022
    1UNL    H42  109   0.538  -0.247  -0.043
    1UNL    H43  110   0.554  -0.293   0.120
    1UNL    H44  111   0.399  -0.090   0.176
    1UNL    H45  112   0.074   0.087  -0.265
    1UNL    H46  113   0.095   0.192  -0.128
    1UNL    H47  114   0.057   0.023  -0.106
    1UNL    H48  115   0.511   0.072  -0.203
    1UNL    H49  116   0.793  -0.072   0.051
    1UNL    H50  117   0.964   0.164   0.099
    1UNL    H51  118   1.089  -0.013  -0.149
    1UNL    H52  119   1.036   0.078  -0.383
    1UNL    H53  120   0.909   0.170  -0.307
    1UNL    H54  121   0.813  -0.027  -0.259
    1UNL    H55  122   1.179   0.224  -0.173
    1UNL    H56  123   1.173   0.087   0.011
    1UNL    H57  124   0.990   0.366  -0.209
    1UNL    H58  125   1.135   0.386   0.028
    1UNL    H59  126   0.826   0.379   0.003
    1UNL    H60  127   0.702   0.195  -0.121
    1UNL    H61  128   0.723   0.011   0.302
    1UNL    H62  129   0.433  -0.078   0.375
    1UNL    H63  130   0.535  -0.213   0.377
    1UNL    H64  131   0.578  -0.076   0.489
   0.00000   0.00000   0.00000   0.00000   0.00000   0.00000   0.00000   0.00000   0.00000
Generated with MDTraj, t= 50.0
 131
    1UNL     C1    1  -0.412   0.349   0.176
    1UNL     C2    2  -0.452   0.230   0.245
    1UNL     C3    3  -0.543   0.139   0.210
    1UNL     C4    4  -0.605   0.135   0.069
    1UNL     O1    5  -0.574   0.025  -0.006
    1UNL     C5    6  -0.640   0.024  -0.130
    1UNL     O2    7  -0.649   0.149  -0.186
    1UNL     C6    8  -0.741   0.143  -0.299
    1UNL     C7    9  -0.786   0.291  -0.338
    1UNL     O3   10  -0.843   0.309  -0.468
    1UNL     C8   11  -0.679   0.069  -0.427
    1UNL     O4   12  -0.776   0.044  -0.527
    1UNL     C9   13  -0.631  -0.071  -0.370
    1UNL     O5   14  -0.746  -0.151  -0.355
    1UNL    C10   15  -0.562  -0.067  -0.224
    1UNL     O6   16  -0.427  -0.024  -0.239
    1UNL     O7   17  -0.750   0.155   0.084
    1UNL    C11   18  -0.798   0.063   0.163
    1UNL    C12   19  -0.737  -0.001   0.265
    1UNL    C13   20  -0.811  -0.088   0.353
    1UNL     O8   21  -0.758  -0.154   0.440
    1UNL     O9   22  -0.949  -0.076   0.339
    1UNL    C14   23  -1.024  -0.153   0.422
    1UNL    C15   24  -0.596   0.041   0.303
    1UNL    C16   25  -0.514  -0.079   0.301
    1UNL    C17   26  -0.368  -0.060   0.332
    1UNL    O10   27  -0.346   0.026   0.415
    1UNL    O11   28  -0.275  -0.124   0.259
    1UNL    C18   29  -0.144  -0.090   0.300
    1UNL    C19   30  -0.027  -0.184   0.248
    1UNL    C20   31   0.102  -0.155   0.320
    1UNL    C21   32  -0.018  -0.149   0.096
    1UNL    C22   33  -0.157  -0.133   0.019
    1UNL    C23   34  -0.143  -0.201  -0.121
    1UNL    O12   35  -0.264  -0.257  -0.163
    1UNL    C24   36  -0.033  -0.305  -0.109
    1UNL    C25   37   0.036  -0.340  -0.244
    1UNL    C26   38   0.062  -0.253   0.007
    1UNL    C27   39   0.135  -0.367   0.073
    1UNL    O13   40   0.265  -0.336   0.127
    1UNL    C28   41   0.347  -0.312   0.026
    1UNL    O14   42   0.321  -0.321  -0.089
    1UNL    C29   43   0.489  -0.249   0.056
    1UNL    C30   44   0.480  -0.106   0.104
    1UNL    C31   45   0.444  -0.012  -0.015
    1UNL    C32   46   0.303   0.035  -0.037
    1UNL    O15   47   0.222   0.023   0.053
    1UNL    O16   48   0.285   0.080  -0.165
    1UNL    C33   49   0.161   0.141  -0.168
    1UNL    C34   50   0.534   0.007  -0.111
    1UNL    O17   51   0.674  -0.010  -0.091
    1UNL    C35   52   0.712  -0.005   0.055
    1UNL    O18   53   0.758   0.126   0.091
    1UNL    C36   54   0.881   0.158   0.032
    1UNL    O19   55   0.947   0.049  -0.024
    1UNL    C37   56   1.039   0.065  -0.133
    1UNL    C38   57   0.968   0.064  -0.267
    1UNL    O20   58   0.875  -0.036  -0.283
    1UNL    C39   59   1.110   0.198  -0.109
    1UNL    O21   60   1.167   0.203   0.022
    1UNL    C40   61   1.003   0.320  -0.127
    1UNL    O22   62   1.053   0.434  -0.052
    1UNL    C41   63   0.862   0.283  -0.066
    1UNL    O23   64   0.765   0.250  -0.163
    1UNL    C42   65   0.613  -0.053   0.155
    1UNL    C43   66   0.642  -0.055   0.291
    1UNL    C44   67   0.540  -0.106   0.393
    1UNL     H1   68  -0.372   0.334   0.076
    1UNL     H2   69  -0.508   0.399   0.156
    1UNL     H3   70  -0.359   0.415   0.240
    1UNL     H4   71  -0.393   0.206   0.335
    1UNL     H5   72  -0.572   0.213   0.005
    1UNL     H6   73  -0.742  -0.005  -0.111
    1UNL     H7   74  -0.828   0.089  -0.282
    1UNL     H8   75  -0.706   0.364  -0.326
    1UNL     H9   76  -0.859   0.331  -0.273
    1UNL    H10   77  -0.797   0.238  -0.526
    1UNL    H11   78  -0.600   0.132  -0.474
    1UNL    H12   79  -0.834  -0.031  -0.495
    1UNL    H13   80  -0.567  -0.120  -0.442
    1UNL    H14   81  -0.715  -0.243  -0.324
    1UNL    H15   82  -0.548  -0.166  -0.176
    1UNL    H16   83  -0.429   0.074  -0.265
    1UNL    H17   84  -0.901   0.041   0.145
    1UNL    H18   85  -1.113  -0.099   0.452
    1UNL    H19   86  -0.961  -0.181   0.504
    1UNL    H20   87  -1.047  -0.240   0.365
    1UNL    H21   88  -0.603   0.091   0.400
    1UNL    H22   89  -0.558  -0.143   0.384
    1UNL    H23   90  -0.537  -0.130   0.211
    1UNL    H24   91  -0.125   0.018   0.264
    1UNL    H25   92  -0.153  -0.088   0.408
    1UNL    H26   93  -0.053  -0.286   0.258
    1UNL    H27   94   0.134  -0.051   0.323
    1UNL    H28   95   0.096  -0.194   0.423
    1UNL    H29   96   0.177  -0.212   0.255
    1UNL    H30   97   0.030  -0.049   0.092
    1UNL    H31   98  -0.192  -0.029   0.005
    1UNL    H32   99  -0.234  -0.202   0.069
    1UNL    H33  100  -0.108  -0.118  -0.195
    1UNL    H34  101  -0.329  -0.188  -0.181
    1UNL    H35  102  -0.074  -0.396  -0.070
    1UNL    H36  103  -0.036  -0.388  -0.315
    1UNL    H37  104   0.134  -0.392  -0.239
    1UNL    H38  105   0.071  -0.251  -0.289
    1UNL    H39  106   0.139  -0.190  -0.035
    1UNL    H40  107   0.080  -0.413   0.155
    1UNL    H41  108   0.157  -0.449  -0.001
    1UNL    H42  109   0.560  -0.255  -0.028
    1UNL    H43  110   0.535  -0.318   0.131
    1UNL    H44  111   0.408  -0.100   0.185
    1UNL    H45  112   0.177   0.236  -0.225
    1UNL    H46  113   0.129   0.164  -0.071
    1UNL    H47  114   0.087   0.089  -0.221
    1UNL    H48  115   0.501   0.051  -0.207
    1UNL    H49  116   0.802  -0.070   0.055
    1UNL    H50  117   0.954   0.183   0.111
    1UNL    H51  118   1.110  -0.021  -0.126
    1UNL    H52  119   1.044   0.064  -0.347
    1UNL    H53  120   0.909   0.157  -0.290
    1UNL    H54  121   0.814  -0.037  -0.210
    1UNL    H55  122   1.195   0.224  -0.166
    1UNL    H56  123   1.185   0.117   0.061
    1UNL    H57  124   0.998   0.343  -0.235
    1UNL    H58  125   1.122   0.396   0.008
    1UNL    H59  126   0.815   0.364  -0.005
    1UNL    H60  127   0.738   0.151  -0.149
    1UNL    H61  128   0.738  -0.023   0.321
    1UNL    H62  129   0.461  -0.030   0.416
    1UNL    H63  130   0.482  -0.189   0.352
    1UNL    H64  131   0.582  -0.141   0.488
   0.00000   0.00000   0.00000   0.00000   0.00000   0.00000   0.00000   0.00000   0.00000
Generated with MDTraj, t= 51.0
 131
    1UNL     C1    1  -0.373   0.319   0.165
    1UNL     C2    2  -0.444   0.220   0.251
    1UNL     C3    3  -0.551   0.147   0.213
    1UNL     C4    4  -0.605   0.140   0.069
    1UNL     O1    5  -0.562   0.031  -0.002
    1UNL     C5    6  -0.638   0.041  -0.125
    1UNL     O2    7  -0.638   0.164  -0.201
    1UNL     C6    8  -0.726   0.153  -0.308
    1UNL     C7    9  -0.743   0.291  -0.382
    1UNL     O3   10  -0.868   0.294  -0.452
    1UNL     C8   11  -0.684   0.046  -0.414
    1UNL     O4   12  -0.769   0.056  -0.529
    1UNL     C9   13  -0.676  -0.092  -0.346
    1UNL     O5   14  -0.797  -0.161  -0.314
    1UNL    C10   15  -0.583  -0.071  -0.220
    1UNL     O6   16  -0.457  -0.034  -0.264
    1UNL     O7   17  -0.748   0.148   0.078
    1UNL    C11   18  -0.819   0.065   0.166
    1UNL    C12   19  -0.756   0.010   0.271
    1UNL    C13   20  -0.821  -0.079   0.365
    1UNL     O8   21  -0.759  -0.147   0.446
    1UNL     O9   22  -0.957  -0.091   0.361
    1UNL    C14   23  -1.004  -0.181   0.457
    1UNL    C15   24  -0.607   0.027   0.303
    1UNL    C16   25  -0.520  -0.094   0.270
    1UNL    C17   26  -0.379  -0.076   0.318
    1UNL    O10   27  -0.342  -0.001   0.405
    1UNL    O11   28  -0.276  -0.147   0.259
    1UNL    C18   29  -0.152  -0.097   0.298
    1UNL    C19   30  -0.032  -0.170   0.229
    1UNL    C20   31   0.109  -0.131   0.296
    1UNL    C21   32  -0.024  -0.130   0.078
    1UNL    C22   33  -0.170  -0.126   0.008
    1UNL    C23   34  -0.161  -0.183  -0.139
    1UNL    O12   35  -0.279  -0.255  -0.174
    1UNL    C24   36  -0.044  -0.285  -0.122
    1UNL    C25   37   0.036  -0.326  -0.249
    1UNL    C26   38   0.047  -0.238  -0.009
    1UNL    C27   39   0.121  -0.355   0.054
    1UNL    O13   40   0.238  -0.304   0.123
    1UNL    C28   41   0.340  -0.308   0.027
    1UNL    O14   42   0.324  -0.353  -0.084
    1UNL    C29   43   0.468  -0.247   0.072
    1UNL    C30   44   0.478  -0.099   0.108
    1UNL    C31   45   0.444  -0.014  -0.016
    1UNL    C32   46   0.317   0.058  -0.038
    1UNL    O15   47   0.229   0.040   0.041
    1UNL    O16   48   0.312   0.136  -0.153
    1UNL    C33   49   0.179   0.176  -0.167
    1UNL    C34   50   0.551   0.002  -0.102
    1UNL    O17   51   0.687  -0.022  -0.076
    1UNL    C35   52   0.719  -0.008   0.065
    1UNL    O18   53   0.769   0.122   0.102
    1UNL    C36   54   0.890   0.157   0.042
    1UNL    O19   55   0.949   0.047  -0.027
    1UNL    C37   56   1.050   0.075  -0.133
    1UNL    C38   57   0.993   0.028  -0.267
    1UNL    O20   58   0.920  -0.091  -0.240
    1UNL    C39   59   1.107   0.223  -0.120
    1UNL    O21   60   1.191   0.228  -0.009
    1UNL    C40   61   0.998   0.329  -0.115
    1UNL    O22   62   1.044   0.446  -0.046
    1UNL    C41   63   0.865   0.277  -0.061
    1UNL    O23   64   0.780   0.231  -0.169
    1UNL    C42   65   0.616  -0.066   0.161
    1UNL    C43   66   0.643  -0.072   0.296
    1UNL    C44   67   0.549  -0.103   0.407
    1UNL     H1   68  -0.306   0.284   0.087
    1UNL     H2   69  -0.453   0.366   0.109
    1UNL     H3   70  -0.336   0.402   0.220
    1UNL     H4   71  -0.393   0.191   0.341
    1UNL     H5   72  -0.582   0.225   0.009
    1UNL     H6   73  -0.741   0.020  -0.097
    1UNL     H7   74  -0.809   0.110  -0.265
    1UNL     H8   75  -0.663   0.305  -0.452
    1UNL     H9   76  -0.736   0.368  -0.313
    1UNL    H10   77  -0.865   0.211  -0.497
    1UNL    H11   78  -0.582   0.066  -0.454
    1UNL    H12   79  -0.816  -0.026  -0.553
    1UNL    H13   80  -0.629  -0.158  -0.416
    1UNL    H14   81  -0.775  -0.248  -0.269
    1UNL    H15   82  -0.575  -0.166  -0.163
    1UNL    H16   83  -0.466   0.061  -0.282
    1UNL    H17   84  -0.922   0.037   0.146
    1UNL    H18   85  -1.105  -0.214   0.444
    1UNL    H19   86  -1.001  -0.129   0.549
    1UNL    H20   87  -0.937  -0.263   0.452
    1UNL    H21   88  -0.615   0.049   0.410
    1UNL    H22   89  -0.573  -0.184   0.314
    1UNL    H23   90  -0.514  -0.106   0.165
    1UNL    H24   91  -0.160   0.012   0.274
    1UNL    H25   92  -0.150  -0.111   0.403
    1UNL    H26   93  -0.040  -0.274   0.248
    1UNL    H27   94   0.147  -0.033   0.277
    1UNL    H28   95   0.106  -0.149   0.406
    1UNL    H29   96   0.183  -0.203   0.251
    1UNL    H30   97   0.028  -0.033   0.081
    1UNL    H31   98  -0.212  -0.025   0.001
    1UNL    H32   99  -0.242  -0.198   0.067
    1UNL    H33  100  -0.133  -0.102  -0.220
    1UNL    H34  101  -0.341  -0.182  -0.209
    1UNL    H35  102  -0.094  -0.378  -0.103
    1UNL    H36  103  -0.024  -0.319  -0.341
    1UNL    H37  104   0.101  -0.418  -0.247
    1UNL    H38  105   0.114  -0.253  -0.260
    1UNL    H39  106   0.122  -0.179  -0.064
    1UNL    H40  107   0.061  -0.413   0.125
    1UNL    H41  108   0.158  -0.425  -0.025
    1UNL    H42  109   0.536  -0.285  -0.006
    1UNL    H43  110   0.497  -0.308   0.163
    1UNL    H44  111   0.413  -0.073   0.192
    1UNL    H45  112   0.180   0.290  -0.167
    1UNL    H46  113   0.116   0.142  -0.087
    1UNL    H47  114   0.130   0.150  -0.259
    1UNL    H48  115   0.522   0.044  -0.204
    1UNL    H49  116   0.803  -0.075   0.071
    1UNL    H50  117   0.973   0.174   0.112
    1UNL    H51  118   1.125  -0.004  -0.120
    1UNL    H52  119   1.067   0.001  -0.346
    1UNL    H53  120   0.931   0.115  -0.308
    1UNL    H54  121   0.848  -0.072  -0.171
    1UNL    H55  122   1.172   0.242  -0.202
    1UNL    H56  123   1.143   0.195   0.069
    1UNL    H57  124   0.977   0.356  -0.220
    1UNL    H58  125   1.141   0.442  -0.029
    1UNL    H59  126   0.813   0.354  -0.006
    1UNL    H60  127   0.752   0.146  -0.136
    1UNL    H61  128   0.751  -0.053   0.327
    1UNL    H62  129   0.472  -0.025   0.419
    1UNL    H63  130   0.496  -0.196   0.399
    1UNL    H64  131   0.596  -0.108   0.508
   0.00000   0.00000   0.00000   0.00000   0.00000   0.00000   0.00000   0.00000   0.00000
Generated with MDTraj, t= 52.0
 131
    1UNL     C1    1  -0.391   0.296   0.133
    1UNL     C2    2  -0.444   0.209   0.237
    1UNL     C3    3  -0.557   0.140   0.213
    1UNL     C4    4  -0.625   0.147   0.075
    1UNL     O1    5  -0.563   0.043  -0.008
    1UNL     C5    6  -0.639   0.035  -0.129
    1UNL     O2    7  -0.638   0.158  -0.209
    1UNL     C6    8  -0.728   0.157  -0.317
    1UNL     C7    9  -0.741   0.294  -0.387
    1UNL     O3   10  -0.846   0.296  -0.485
    1UNL     C8   11  -0.708   0.036  -0.412
    1UNL     O4   12  -0.811   0.027  -0.514
    1UNL     C9   13  -0.703  -0.094  -0.327
    1UNL     O5   14  -0.834  -0.104  -0.263
    1UNL    C10   15  -0.594  -0.079  -0.220
    1UNL     O6   16  -0.466  -0.056  -0.263
    1UNL     O7   17  -0.763   0.132   0.075
    1UNL    C11   18  -0.810   0.058   0.180
    1UNL    C12   19  -0.746   0.012   0.286
    1UNL    C13   20  -0.815  -0.085   0.366
    1UNL     O8   21  -0.753  -0.132   0.458
    1UNL     O9   22  -0.950  -0.119   0.354
    1UNL    C14   23  -1.004  -0.184   0.462
    1UNL    C15   24  -0.600   0.035   0.307
    1UNL    C16   25  -0.521  -0.097   0.290
    1UNL    C17   26  -0.376  -0.084   0.327
    1UNL    O10   27  -0.354  -0.024   0.429
    1UNL    O11   28  -0.278  -0.127   0.244
    1UNL    C18   29  -0.156  -0.084   0.281
    1UNL    C19   30  -0.037  -0.157   0.215
    1UNL    C20   31   0.095  -0.102   0.278
    1UNL    C21   32  -0.034  -0.131   0.061
    1UNL    C22   33  -0.176  -0.133   0.000
    1UNL    C23   34  -0.153  -0.195  -0.145
    1UNL    O12   35  -0.264  -0.256  -0.201
    1UNL    C24   36  -0.034  -0.286  -0.135
    1UNL    C25   37   0.035  -0.294  -0.273
    1UNL    C26   38   0.054  -0.226  -0.028
    1UNL    C27   39   0.126  -0.340   0.048
    1UNL    O13   40   0.245  -0.291   0.116
    1UNL    C28   41   0.344  -0.281   0.023
    1UNL    O14   42   0.335  -0.297  -0.096
    1UNL    C29   43   0.484  -0.250   0.074
    1UNL    C30   44   0.484  -0.100   0.111
    1UNL    C31   45   0.449  -0.017  -0.014
    1UNL    C32   46   0.318   0.041  -0.043
    1UNL    O15   47   0.223   0.014   0.025
    1UNL    O16   48   0.323   0.131  -0.144
    1UNL    C33   49   0.205   0.208  -0.137
    1UNL    C34   50   0.558   0.000  -0.096
    1UNL    O17   51   0.691  -0.024  -0.066
    1UNL    C35   52   0.727  -0.011   0.081
    1UNL    O18   53   0.759   0.121   0.105
    1UNL    C36   54   0.883   0.150   0.047
    1UNL    O19   55   0.960   0.042  -0.010
    1UNL    C37   56   1.063   0.072  -0.118
    1UNL    C38   57   1.017   0.009  -0.239
    1UNL    O20   58   0.952  -0.116  -0.220
    1UNL    C39   59   1.108   0.223  -0.136
    1UNL    O21   60   1.223   0.254  -0.054
    1UNL    C40   61   0.991   0.324  -0.113
    1UNL    O22   62   1.028   0.423  -0.014
    1UNL    C41   63   0.863   0.256  -0.068
    1UNL    O23   64   0.785   0.198  -0.172
    1UNL    C42   65   0.615  -0.061   0.172
    1UNL    C43   66   0.641  -0.059   0.307
    1UNL    C44   67   0.541  -0.108   0.402
    1UNL     H1   68  -0.410   0.269   0.029
    1UNL     H2   69  -0.442   0.389   0.150
    1UNL     H3   70  -0.289   0.324   0.142
    1UNL     H4   71  -0.388   0.210   0.331
    1UNL     H5   72  -0.610   0.243   0.030
    1UNL     H6   73  -0.741   0.008  -0.097
    1UNL     H7   74  -0.813   0.135  -0.261
    1UNL     H8   75  -0.646   0.328  -0.425
    1UNL     H9   76  -0.773   0.364  -0.317
    1UNL    H10   77  -0.867   0.210  -0.537
    1UNL    H11   78  -0.611   0.066  -0.455
    1UNL    H12   79  -0.882  -0.029  -0.479
    1UNL    H13   80  -0.673  -0.178  -0.388
    1UNL    H14   81  -0.833  -0.181  -0.207
    1UNL    H15   82  -0.587  -0.180  -0.171
    1UNL    H16   83  -0.461   0.039  -0.290
    1UNL    H17   84  -0.918   0.039   0.181
    1UNL    H18   85  -1.097  -0.242   0.446
    1UNL    H19   86  -1.035  -0.105   0.530
    1UNL    H20   87  -0.924  -0.251   0.495
    1UNL    H21   88  -0.584   0.072   0.409
    1UNL    H22   89  -0.571  -0.173   0.357
    1UNL    H23   90  -0.543  -0.115   0.187
    1UNL    H24   91  -0.146   0.022   0.252
    1UNL    H25   92  -0.162  -0.097   0.385
    1UNL    H26   93  -0.054  -0.262   0.233
    1UNL    H27   94   0.106   0.004   0.300
    1UNL    H28   95   0.105  -0.155   0.379
    1UNL    H29   96   0.184  -0.124   0.225
    1UNL    H30   97   0.008  -0.030   0.056
    1UNL    H31   98  -0.223  -0.033  -0.003
    1UNL    H32   99  -0.257  -0.194   0.056
    1UNL    H33  100  -0.124  -0.102  -0.211
    1UNL    H34  101  -0.336  -0.194  -0.213
    1UNL    H35  102  -0.068  -0.385  -0.117
    1UNL    H36  103  -0.013  -0.365  -0.341
    1UNL    H37  104   0.146  -0.316  -0.268
    1UNL    H38  105   0.040  -0.195  -0.317
    1UNL    H39  106   0.136  -0.162  -0.068
    1UNL    H40  107   0.065  -0.384   0.126
    1UNL    H41  108   0.157  -0.418  -0.023
    1UNL    H42  109   0.552  -0.264  -0.011
    1UNL    H43  110   0.516  -0.327   0.151
    1UNL    H44  111   0.393  -0.092   0.172
    1UNL    H45  112   0.227   0.308  -0.081
    1UNL    H46  113   0.120   0.156  -0.090
    1UNL    H47  114   0.168   0.243  -0.235
    1UNL    H48  115   0.542   0.030  -0.197
    1UNL    H49  116   0.814  -0.070   0.096
    1UNL    H50  117   0.958   0.182   0.120
    1UNL    H51  118   1.146   0.017  -0.082
    1UNL    H52  119   1.108  -0.003  -0.302
    1UNL    H53  120   0.947   0.085  -0.293
    1UNL    H54  121   0.875  -0.092  -0.160
    1UNL    H55  122   1.155   0.235  -0.234
    1UNL    H56  123   1.187   0.275   0.035
    1UNL    H57  124   0.959   0.382  -0.202
    1UNL    H58  125   1.106   0.478  -0.036
    1UNL    H59  126   0.809   0.334  -0.020
    1UNL    H60  127   0.720   0.133  -0.134
    1UNL    H61  128   0.734  -0.037   0.343
    1UNL    H62  129   0.450  -0.049   0.387
    1UNL    H63  130   0.521  -0.211   0.388
    1UNL    H64  131   0.571  -0.088   0.509
   0.00000   0.00000   0.00000   0.00000   0.00000   0.00000   0.00000   0.00000   0.00000
Generated with MDTraj, t= 53.0
 131
    1UNL     C1    1  -0.385   0.292   0.139
    1UNL     C2    2  -0.443   0.197   0.234
    1UNL     C3    3  -0.550   0.121   0.211
    1UNL     C4    4  -0.628   0.138   0.084
    1UNL     O1    5  -0.584   0.042  -0.013
    1UNL     C5    6  -0.662   0.035  -0.128
    1UNL     O2    7  -0.646   0.148  -0.218
    1UNL     C6    8  -0.749   0.159  -0.321
    1UNL     C7    9  -0.714   0.289  -0.399
    1UNL     O3   10  -0.796   0.305  -0.510
    1UNL     C8   11  -0.748   0.030  -0.412
    1UNL     O4   12  -0.875   0.020  -0.482
    1UNL     C9   13  -0.732  -0.098  -0.326
    1UNL     O5   14  -0.856  -0.123  -0.271
    1UNL    C10   15  -0.626  -0.089  -0.213
    1UNL     O6   16  -0.494  -0.068  -0.268
    1UNL     O7   17  -0.772   0.127   0.088
    1UNL    C11   18  -0.811   0.048   0.183
    1UNL    C12   19  -0.744   0.001   0.292
    1UNL    C13   20  -0.812  -0.082   0.390
    1UNL     O8   21  -0.753  -0.127   0.486
    1UNL     O9   22  -0.943  -0.110   0.358
    1UNL    C14   23  -1.005  -0.196   0.437
    1UNL    C15   24  -0.596   0.025   0.313
    1UNL    C16   25  -0.503  -0.105   0.311
    1UNL    C17   26  -0.362  -0.063   0.338
    1UNL    O10   27  -0.333  -0.009   0.441
    1UNL    O11   28  -0.277  -0.078   0.231
    1UNL    C18   29  -0.144  -0.049   0.267
    1UNL    C19   30  -0.042  -0.143   0.203
    1UNL    C20   31   0.091  -0.107   0.257
    1UNL    C21   32  -0.043  -0.135   0.047
    1UNL    C22   33  -0.181  -0.134  -0.025
    1UNL    C23   34  -0.150  -0.190  -0.169
    1UNL    O12   35  -0.253  -0.267  -0.226
    1UNL    C24   36  -0.025  -0.269  -0.153
    1UNL    C25   37   0.052  -0.244  -0.282
    1UNL    C26   38   0.057  -0.229  -0.030
    1UNL    C27   39   0.112  -0.358   0.038
    1UNL    O13   40   0.232  -0.326   0.106
    1UNL    C28   41   0.333  -0.292   0.022
    1UNL    O14   42   0.325  -0.278  -0.098
    1UNL    C29   43   0.476  -0.257   0.080
    1UNL    C30   44   0.492  -0.103   0.111
    1UNL    C31   45   0.471  -0.010  -0.006
    1UNL    C32   46   0.345   0.059  -0.030
    1UNL    O15   47   0.252   0.034   0.046
    1UNL    O16   48   0.336   0.144  -0.134
    1UNL    C33   49   0.200   0.197  -0.142
    1UNL    C34   50   0.575   0.008  -0.083
    1UNL    O17   51   0.705  -0.038  -0.064
    1UNL    C35   52   0.730  -0.008   0.076
    1UNL    O18   53   0.759   0.125   0.097
    1UNL    C36   54   0.883   0.161   0.043
    1UNL    O19   55   0.980   0.055   0.013
    1UNL    C37   56   1.071   0.064  -0.110
    1UNL    C38   57   1.012  -0.007  -0.232
    1UNL    O20   58   0.948  -0.120  -0.189
    1UNL    C39   59   1.110   0.215  -0.125
    1UNL    O21   60   1.227   0.253  -0.053
    1UNL    C40   61   0.992   0.319  -0.106
    1UNL    O22   62   1.021   0.410  -0.001
    1UNL    C41   63   0.858   0.260  -0.077
    1UNL    O23   64   0.805   0.191  -0.189
    1UNL    C42   65   0.623  -0.069   0.168
    1UNL    C43   66   0.643  -0.059   0.300
    1UNL    C44   67   0.540  -0.089   0.398
    1UNL     H1   68  -0.336   0.248   0.053
    1UNL     H2   69  -0.466   0.352   0.106
    1UNL     H3   70  -0.318   0.359   0.188
    1UNL     H4   71  -0.403   0.201   0.333
    1UNL     H5   72  -0.597   0.232   0.040
    1UNL     H6   73  -0.765   0.029  -0.081
    1UNL     H7   74  -0.842   0.172  -0.276
    1UNL     H8   75  -0.613   0.276  -0.441
    1UNL     H9   76  -0.712   0.368  -0.331
    1UNL    H10   77  -0.848   0.230  -0.537
    1UNL    H11   78  -0.675   0.046  -0.491
    1UNL    H12   79  -0.939  -0.027  -0.421
    1UNL    H13   80  -0.706  -0.173  -0.402
    1UNL    H14   81  -0.858  -0.200  -0.215
    1UNL    H15   82  -0.628  -0.181  -0.151
    1UNL    H16   83  -0.485   0.029  -0.289
    1UNL    H17   84  -0.913   0.012   0.175
    1UNL    H18   85  -1.119  -0.194   0.446
    1UNL    H19   86  -0.970  -0.168   0.540
    1UNL    H20   87  -0.966  -0.296   0.407
    1UNL    H21   88  -0.572   0.051   0.417
    1UNL    H22   89  -0.549  -0.175   0.383
    1UNL    H23   90  -0.509  -0.144   0.210
    1UNL    H24   91  -0.135   0.059   0.250
    1UNL    H25   92  -0.141  -0.075   0.367
    1UNL    H26   93  -0.074  -0.242   0.237
    1UNL    H27   94   0.133  -0.015   0.216
    1UNL    H28   95   0.086  -0.100   0.371
    1UNL    H29   96   0.161  -0.183   0.235
    1UNL    H30   97  -0.001  -0.038   0.020
    1UNL    H31   98  -0.241  -0.038  -0.031
    1UNL    H32   99  -0.257  -0.197   0.026
    1UNL    H33  100  -0.128  -0.100  -0.242
    1UNL    H34  101  -0.337  -0.216  -0.230
    1UNL    H35  102  -0.048  -0.372  -0.149
    1UNL    H36  103  -0.005  -0.263  -0.371
    1UNL    H37  104   0.149  -0.301  -0.295
    1UNL    H38  105   0.088  -0.139  -0.289
    1UNL    H39  106   0.155  -0.174  -0.048
    1UNL    H40  107   0.039  -0.399   0.107
    1UNL    H41  108   0.141  -0.437  -0.030
    1UNL    H42  109   0.546  -0.273  -0.003
    1UNL    H43  110   0.507  -0.328   0.162
    1UNL    H44  111   0.411  -0.079   0.182
    1UNL    H45  112   0.145   0.186  -0.040
    1UNL    H46  113   0.149   0.138  -0.220
    1UNL    H47  114   0.188   0.303  -0.169
    1UNL    H48  115   0.575   0.064  -0.171
    1UNL    H49  116   0.822  -0.054   0.099
    1UNL    H50  117   0.931   0.216   0.124
    1UNL    H51  118   1.154   0.008  -0.074
    1UNL    H52  119   1.094  -0.028  -0.304
    1UNL    H53  120   0.933   0.058  -0.289
    1UNL    H54  121   0.861  -0.099  -0.139
    1UNL    H55  122   1.149   0.214  -0.230
    1UNL    H56  123   1.196   0.249   0.041
    1UNL    H57  124   0.984   0.368  -0.205
    1UNL    H58  125   1.105   0.458  -0.019
    1UNL    H59  126   0.792   0.333  -0.041
    1UNL    H60  127   0.750   0.120  -0.147
    1UNL    H61  128   0.743  -0.022   0.346
    1UNL    H62  129   0.474  -0.001   0.402
    1UNL    H63  130   0.490  -0.183   0.385
    1UNL    H64  131   0.576  -0.092   0.504
   0.00000   0.00000   0.00000   0.00000   0.00000   0.00000   0.00000   0.00000   0.00000
Generated with MDTraj, t= 54.0
 131
    1UNL     C1    1  -0.386   0.308   0.125
    1UNL     C2    2  -0.446   0.221   0.225
    1UNL     C3    3  -0.548   0.138   0.204
    1UNL     C4    4  -0.622   0.131   0.070
    1UNL     O1    5  -0.597   0.009   0.003
    1UNL     C5    6  -0.656   0.023  -0.117
    1UNL     O2    7  -0.633   0.133  -0.197
    1UNL     C6    8  -0.739   0.151  -0.305
    1UNL     C7    9  -0.699   0.268  -0.394
    1UNL     O3   10  -0.787   0.289  -0.499
    1UNL     C8   11  -0.754   0.024  -0.398
    1UNL     O4   12  -0.869   0.032  -0.475
    1UNL     C9   13  -0.769  -0.110  -0.323
    1UNL     O5   14  -0.893  -0.137  -0.273
    1UNL    C10   15  -0.656  -0.105  -0.205
    1UNL     O6   16  -0.527  -0.103  -0.276
    1UNL     O7   17  -0.760   0.145   0.100
    1UNL    C11   18  -0.811   0.059   0.192
    1UNL    C12   19  -0.741  -0.007   0.285
    1UNL    C13   20  -0.807  -0.096   0.377
    1UNL     O8   21  -0.740  -0.147   0.463
    1UNL     O9   22  -0.943  -0.120   0.371
    1UNL    C14   23  -0.989  -0.208   0.463
    1UNL    C15   24  -0.600   0.038   0.308
    1UNL    C16   25  -0.499  -0.085   0.315
    1UNL    C17   26  -0.359  -0.049   0.331
    1UNL    O10   27  -0.312   0.004   0.430
    1UNL    O11   28  -0.280  -0.091   0.223
    1UNL    C18   29  -0.151  -0.044   0.259
    1UNL    C19   30  -0.038  -0.130   0.196
    1UNL    C20   31   0.094  -0.100   0.265
    1UNL    C21   32  -0.040  -0.117   0.038
    1UNL    C22   33  -0.173  -0.140  -0.021
    1UNL    C23   34  -0.146  -0.170  -0.173
    1UNL    O12   35  -0.237  -0.258  -0.240
    1UNL    C24   36  -0.010  -0.234  -0.176
    1UNL    C25   37   0.076  -0.208  -0.304
    1UNL    C26   38   0.063  -0.202  -0.045
    1UNL    C27   39   0.117  -0.327   0.018
    1UNL    O13   40   0.226  -0.305   0.097
    1UNL    C28   41   0.337  -0.277   0.018
    1UNL    O14   42   0.326  -0.275  -0.105
    1UNL    C29   43   0.458  -0.248   0.093
    1UNL    C30   44   0.473  -0.098   0.124
    1UNL    C31   45   0.451  -0.014  -0.003
    1UNL    C32   46   0.327   0.058  -0.032
    1UNL    O15   47   0.233   0.052   0.043
    1UNL    O16   48   0.325   0.133  -0.142
    1UNL    C33   49   0.199   0.199  -0.157
    1UNL    C34   50   0.556   0.000  -0.094
    1UNL    O17   51   0.680  -0.057  -0.070
    1UNL    C35   52   0.718  -0.022   0.070
    1UNL    O18   53   0.751   0.117   0.090
    1UNL    C36   54   0.889   0.148   0.048
    1UNL    O19   55   0.980   0.036   0.016
    1UNL    C37   56   1.072   0.066  -0.094
    1UNL    C38   57   1.017  -0.010  -0.217
    1UNL    O20   58   0.950  -0.128  -0.191
    1UNL    C39   59   1.124   0.216  -0.114
    1UNL    O21   60   1.221   0.235  -0.015
    1UNL    C40   61   1.012   0.325  -0.114
    1UNL    O22   62   1.034   0.428  -0.015
    1UNL    C41   63   0.877   0.255  -0.063
    1UNL    O23   64   0.819   0.188  -0.174
    1UNL    C42   65   0.614  -0.074   0.172
    1UNL    C43   66   0.653  -0.071   0.303
    1UNL    C44   67   0.560  -0.095   0.411
    1UNL     H1   68  -0.381   0.263   0.027
    1UNL     H2   69  -0.450   0.393   0.118
    1UNL     H3   70  -0.281   0.331   0.142
    1UNL     H4   71  -0.394   0.226   0.321
    1UNL     H5   72  -0.591   0.213   0.000
    1UNL     H6   73  -0.760   0.048  -0.077
    1UNL     H7   74  -0.833   0.175  -0.265
    1UNL     H8   75  -0.595   0.240  -0.427
    1UNL     H9   76  -0.697   0.358  -0.338
    1UNL    H10   77  -0.797   0.199  -0.549
    1UNL    H11   78  -0.671   0.015  -0.467
    1UNL    H12   79  -0.935  -0.008  -0.417
    1UNL    H13   80  -0.734  -0.193  -0.390
    1UNL    H14   81  -0.904  -0.230  -0.236
    1UNL    H15   82  -0.666  -0.195  -0.143
    1UNL    H16   83  -0.516  -0.014  -0.314
    1UNL    H17   84  -0.918   0.051   0.179
    1UNL    H18   85  -1.100  -0.226   0.471
    1UNL    H19   86  -0.956  -0.165   0.561
    1UNL    H20   87  -0.935  -0.302   0.443
    1UNL    H21   88  -0.600   0.081   0.409
    1UNL    H22   89  -0.528  -0.144   0.402
    1UNL    H23   90  -0.512  -0.138   0.217
    1UNL    H24   91  -0.142   0.058   0.218
    1UNL    H25   92  -0.150  -0.041   0.362
    1UNL    H26   93  -0.053  -0.235   0.221
    1UNL    H27   94   0.116   0.004   0.229
    1UNL    H28   95   0.097  -0.101   0.374
    1UNL    H29   96   0.173  -0.166   0.216
    1UNL    H30   97  -0.006  -0.021   0.002
    1UNL    H31   98  -0.248  -0.052  -0.013
    1UNL    H32   99  -0.225  -0.217   0.031
    1UNL    H33  100  -0.148  -0.076  -0.242
    1UNL    H34  101  -0.328  -0.211  -0.247
    1UNL    H35  102  -0.031  -0.337  -0.188
    1UNL    H36  103   0.030  -0.221  -0.402
    1UNL    H37  104   0.170  -0.266  -0.313
    1UNL    H38  105   0.115  -0.102  -0.304
    1UNL    H39  106   0.159  -0.146  -0.074
    1UNL    H40  107   0.046  -0.382   0.080
    1UNL    H41  108   0.150  -0.395  -0.059
    1UNL    H42  109   0.542  -0.294   0.037
    1UNL    H43  110   0.448  -0.304   0.189
    1UNL    H44  111   0.403  -0.060   0.201
    1UNL    H45  112   0.151   0.223  -0.058
    1UNL    H46  113   0.144   0.121  -0.212
    1UNL    H47  114   0.200   0.287  -0.219
    1UNL    H48  115   0.539   0.062  -0.181
    1UNL    H49  116   0.812  -0.068   0.085
    1UNL    H50  117   0.929   0.192   0.139
    1UNL    H51  118   1.156   0.008  -0.053
    1UNL    H52  119   1.095  -0.051  -0.283
    1UNL    H53  120   0.952   0.062  -0.282
    1UNL    H54  121   0.867  -0.109  -0.146
    1UNL    H55  122   1.189   0.204  -0.208
    1UNL    H56  123   1.182   0.226   0.074
    1UNL    H57  124   0.995   0.366  -0.214
    1UNL    H58  125   1.129   0.448   0.002
    1UNL    H59  126   0.813   0.339  -0.043
    1UNL    H60  127   0.750   0.137  -0.134
    1UNL    H61  128   0.739  -0.024   0.333
    1UNL    H62  129   0.504  -0.002   0.425
    1UNL    H63  130   0.500  -0.188   0.415
    1UNL    H64  131   0.602  -0.097   0.513
   0.00000   0.00000   0.00000   0.00000   0.00000   0.00000   0.00000   0.00000   0.00000
Generated with MDTraj, t= 55.0
 131
    1UNL     C1    1  -0.393   0.328   0.098
    1UNL     C2    2  -0.447   0.233   0.198
    1UNL     C3    3  -0.541   0.139   0.190
    1UNL     C4    4  -0.623   0.118   0.065
    1UNL     O1    5  -0.609  -0.011   0.013
    1UNL     C5    6  -0.674   0.001  -0.108
    1UNL     O2    7  -0.646   0.117  -0.193
    1UNL     C6    8  -0.729   0.137  -0.307
    1UNL     C7    9  -0.692   0.262  -0.382
    1UNL     O3   10  -0.795   0.297  -0.472
    1UNL     C8   11  -0.737   0.004  -0.386
    1UNL     O4   12  -0.843   0.011  -0.489
    1UNL     C9   13  -0.767  -0.118  -0.301
    1UNL     O5   14  -0.901  -0.107  -0.246
    1UNL    C10   15  -0.657  -0.131  -0.187
    1UNL     O6   16  -0.522  -0.146  -0.223
    1UNL     O7   17  -0.765   0.144   0.091
    1UNL    C11   18  -0.818   0.066   0.196
    1UNL    C12   19  -0.738  -0.000   0.282
    1UNL    C13   20  -0.790  -0.104   0.375
    1UNL     O8   21  -0.718  -0.168   0.452
    1UNL     O9   22  -0.929  -0.116   0.378
    1UNL    C14   23  -0.977  -0.209   0.468
    1UNL    C15   24  -0.591   0.040   0.292
    1UNL    C16   25  -0.498  -0.083   0.282
    1UNL    C17   26  -0.352  -0.054   0.318
    1UNL    O10   27  -0.328   0.026   0.406
    1UNL    O11   28  -0.267  -0.118   0.238
    1UNL    C18   29  -0.141  -0.052   0.253
    1UNL    C19   30  -0.030  -0.126   0.183
    1UNL    C20   31   0.105  -0.080   0.241
    1UNL    C21   32  -0.043  -0.094   0.033
    1UNL    C22   33  -0.176  -0.116  -0.033
    1UNL    C23   34  -0.150  -0.143  -0.184
    1UNL    O12   35  -0.251  -0.240  -0.232
    1UNL    C24   36  -0.010  -0.205  -0.187
    1UNL    C25   37   0.072  -0.147  -0.307
    1UNL    C26   38   0.056  -0.185  -0.050
    1UNL    C27   39   0.113  -0.316   0.008
    1UNL    O13   40   0.219  -0.293   0.096
    1UNL    C28   41   0.326  -0.277   0.020
    1UNL    O14   42   0.325  -0.275  -0.101
    1UNL    C29   43   0.455  -0.244   0.097
    1UNL    C30   44   0.476  -0.087   0.116
    1UNL    C31   45   0.453  -0.022  -0.018
    1UNL    C32   46   0.323   0.042  -0.045
    1UNL    O15   47   0.238   0.046   0.040
    1UNL    O16   48   0.314   0.111  -0.160
    1UNL    C33   49   0.205   0.194  -0.164
    1UNL    C34   50   0.563   0.012  -0.098
    1UNL    O17   51   0.693  -0.020  -0.065
    1UNL    C35   52   0.717  -0.005   0.074
    1UNL    O18   53   0.766   0.126   0.101
    1UNL    C36   54   0.892   0.156   0.047
    1UNL    O19   55   0.959   0.030   0.017
    1UNL    C37   56   1.069   0.034  -0.075
    1UNL    C38   57   1.024  -0.003  -0.219
    1UNL    O20   58   0.937  -0.112  -0.216
    1UNL    C39   59   1.128   0.179  -0.074
    1UNL    O21   60   1.192   0.208   0.050
    1UNL    C40   61   1.019   0.288  -0.112
    1UNL    O22   62   1.048   0.410  -0.040
    1UNL    C41   63   0.880   0.250  -0.069
    1UNL    O23   64   0.808   0.198  -0.171
    1UNL    C42   65   0.611  -0.048   0.171
    1UNL    C43   66   0.645  -0.068   0.300
    1UNL    C44   67   0.552  -0.124   0.411
    1UNL     H1   68  -0.328   0.283   0.027
    1UNL     H2   69  -0.474   0.372   0.043
    1UNL     H3   70  -0.326   0.400   0.146
    1UNL     H4   71  -0.397   0.230   0.293
    1UNL     H5   72  -0.595   0.199  -0.009
    1UNL     H6   73  -0.778   0.015  -0.073
    1UNL     H7   74  -0.826   0.164  -0.274
    1UNL     H8   75  -0.594   0.257  -0.441
    1UNL     H9   76  -0.684   0.344  -0.310
    1UNL    H10   77  -0.815   0.218  -0.518
    1UNL    H11   78  -0.649  -0.015  -0.445
    1UNL    H12   79  -0.925   0.034  -0.438
    1UNL    H13   80  -0.758  -0.215  -0.358
    1UNL    H14   81  -0.934  -0.188  -0.194
    1UNL    H15   82  -0.692  -0.220  -0.133
    1UNL    H16   83  -0.495  -0.062  -0.269
    1UNL    H17   84  -0.925   0.064   0.210
    1UNL    H18   85  -1.076  -0.250   0.450
    1UNL    H19   86  -0.974  -0.156   0.564
    1UNL    H20   87  -0.902  -0.285   0.474
    1UNL    H21   88  -0.595   0.079   0.396
    1UNL    H22   89  -0.535  -0.146   0.362
    1UNL    H23   90  -0.504  -0.124   0.174
    1UNL    H24   91  -0.154   0.054   0.214
    1UNL    H25   92  -0.114  -0.044   0.354
    1UNL    H26   93  -0.037  -0.235   0.204
    1UNL    H27   94   0.086   0.030   0.257
    1UNL    H28   95   0.146  -0.113   0.334
    1UNL    H29   96   0.187  -0.091   0.163
    1UNL    H30   97  -0.019   0.010   0.021
    1UNL    H31   98  -0.251  -0.028  -0.013
    1UNL    H32   99  -0.223  -0.197   0.014
    1UNL    H33  100  -0.161  -0.046  -0.245
    1UNL    H34  101  -0.335  -0.202  -0.219
    1UNL    H35  102  -0.035  -0.305  -0.209
    1UNL    H36  103   0.040  -0.169  -0.410
    1UNL    H37  104   0.179  -0.171  -0.297
    1UNL    H38  105   0.069  -0.035  -0.286
    1UNL    H39  106   0.148  -0.116  -0.054
    1UNL    H40  107   0.040  -0.380   0.062
    1UNL    H41  108   0.158  -0.380  -0.069
    1UNL    H42  109   0.547  -0.294   0.058
    1UNL    H43  110   0.434  -0.288   0.198
    1UNL    H44  111   0.397  -0.050   0.184
    1UNL    H45  112   0.234   0.299  -0.158
    1UNL    H46  113   0.143   0.161  -0.081
    1UNL    H47  114   0.152   0.173  -0.252
    1UNL    H48  115   0.539   0.068  -0.194
    1UNL    H49  116   0.800  -0.074   0.081
    1UNL    H50  117   0.927   0.204   0.140
    1UNL    H51  118   1.141  -0.041  -0.033
    1UNL    H52  119   1.109  -0.013  -0.284
    1UNL    H53  120   0.950   0.073  -0.269
    1UNL    H54  121   0.861  -0.083  -0.160
    1UNL    H55  122   1.217   0.186  -0.148
    1UNL    H56  123   1.134   0.220   0.125
    1UNL    H57  124   1.019   0.313  -0.219
    1UNL    H58  125   1.142   0.419  -0.012
    1UNL    H59  126   0.825   0.339  -0.037
    1UNL    H60  127   0.737   0.133  -0.141
    1UNL    H61  128   0.747  -0.035   0.337
    1UNL    H62  129   0.473  -0.049   0.414
    1UNL    H63  130   0.518  -0.230   0.405
    1UNL    H64  131   0.590  -0.113   0.511
   0.00000   0.00000   0.00000   0.00000   0.00000   0.00000   0.00000   0.00000   0.00000
Generated with MDTraj, t= 56.0
 131
    1UNL     C1    1  -0.402   0.331   0.135
    1UNL     C2    2  -0.463   0.234   0.223
    1UNL     C3    3  -0.552   0.140   0.199
    1UNL     C4    4  -0.636   0.124   0.070
    1UNL     O1    5  -0.607   0.002   0.013
    1UNL     C5    6  -0.680  -0.003  -0.109
    1UNL     O2    7  -0.637   0.103  -0.199
    1UNL     C6    8  -0.727   0.120  -0.307
    1UNL     C7    9  -0.706   0.247  -0.383
    1UNL     O3   10  -0.810   0.282  -0.477
    1UNL     C8   11  -0.734  -0.011  -0.390
    1UNL     O4   12  -0.821  -0.011  -0.516
    1UNL     C9   13  -0.764  -0.133  -0.306
    1UNL     O5   14  -0.903  -0.125  -0.262
    1UNL    C10   15  -0.666  -0.139  -0.189
    1UNL     O6   16  -0.534  -0.148  -0.216
    1UNL     O7   17  -0.775   0.141   0.097
    1UNL    C11   18  -0.808   0.072   0.210
    1UNL    C12   19  -0.732   0.009   0.303
    1UNL    C13   20  -0.789  -0.095   0.389
    1UNL     O8   21  -0.719  -0.154   0.470
    1UNL     O9   22  -0.928  -0.122   0.377
    1UNL    C14   23  -0.978  -0.216   0.461
    1UNL    C15   24  -0.588   0.042   0.306
    1UNL    C16   25  -0.495  -0.078   0.284
    1UNL    C17   26  -0.355  -0.039   0.313
    1UNL    O10   27  -0.325   0.053   0.387
    1UNL    O11   28  -0.265  -0.107   0.234
    1UNL    C18   29  -0.129  -0.077   0.273
    1UNL    C19   30  -0.015  -0.137   0.189
    1UNL    C20   31   0.117  -0.089   0.234
    1UNL    C21   32  -0.024  -0.097   0.042
    1UNL    C22   33  -0.170  -0.107  -0.011
    1UNL    C23   34  -0.158  -0.139  -0.165
    1UNL    O12   35  -0.257  -0.236  -0.207
    1UNL    C24   36  -0.018  -0.189  -0.196
    1UNL    C25   37   0.041  -0.117  -0.320
    1UNL    C26   38   0.062  -0.180  -0.066
    1UNL    C27   39   0.107  -0.312  -0.012
    1UNL    O13   40   0.217  -0.299   0.082
    1UNL    C28   41   0.326  -0.266   0.006
    1UNL    O14   42   0.330  -0.264  -0.118
    1UNL    C29   43   0.449  -0.233   0.083
    1UNL    C30   44   0.465  -0.080   0.102
    1UNL    C31   45   0.450  -0.002  -0.022
    1UNL    C32   46   0.325   0.066  -0.057
    1UNL    O15   47   0.234   0.076   0.026
    1UNL    O16   48   0.324   0.125  -0.183
    1UNL    C33   49   0.213   0.207  -0.189
    1UNL    C34   50   0.557  -0.003  -0.102
    1UNL    O17   51   0.684  -0.051  -0.058
    1UNL    C35   52   0.710  -0.010   0.079
    1UNL    O18   53   0.749   0.131   0.085
    1UNL    C36   54   0.895   0.146   0.061
    1UNL    O19   55   0.963   0.023   0.013
    1UNL    C37   56   1.067   0.035  -0.080
    1UNL    C38   57   1.019   0.009  -0.222
    1UNL    O20   58   0.936  -0.107  -0.211
    1UNL    C39   59   1.150   0.167  -0.061
    1UNL    O21   60   1.182   0.189   0.071
    1UNL    C40   61   1.051   0.285  -0.098
    1UNL    O22   62   1.093   0.410  -0.034
    1UNL    C41   63   0.901   0.249  -0.055
    1UNL    O23   64   0.811   0.211  -0.163
    1UNL    C42   65   0.594  -0.055   0.170
    1UNL    C43   66   0.626  -0.085   0.296
    1UNL    C44   67   0.525  -0.119   0.409
    1UNL     H1   68  -0.396   0.297   0.035
    1UNL     H2   69  -0.458   0.423   0.129
    1UNL     H3   70  -0.295   0.341   0.157
    1UNL     H4   71  -0.416   0.226   0.321
    1UNL     H5   72  -0.612   0.210  -0.001
    1UNL     H6   73  -0.780   0.018  -0.076
    1UNL     H7   74  -0.822   0.139  -0.259
    1UNL     H8   75  -0.607   0.237  -0.440
    1UNL     H9   76  -0.693   0.336  -0.317
    1UNL    H10   77  -0.830   0.195  -0.523
    1UNL    H11   78  -0.638  -0.015  -0.440
    1UNL    H12   79  -0.823  -0.103  -0.554
    1UNL    H13   80  -0.745  -0.229  -0.363
    1UNL    H14   81  -0.934  -0.204  -0.210
    1UNL    H15   82  -0.689  -0.226  -0.126
    1UNL    H16   83  -0.505  -0.058  -0.239
    1UNL    H17   84  -0.914   0.054   0.229
    1UNL    H18   85  -1.080  -0.192   0.482
    1UNL    H19   86  -0.919  -0.209   0.551
    1UNL    H20   87  -0.965  -0.310   0.419
    1UNL    H21   88  -0.572   0.078   0.410
    1UNL    H22   89  -0.514  -0.151   0.360
    1UNL    H23   90  -0.494  -0.108   0.172
    1UNL    H24   91  -0.119   0.037   0.255
    1UNL    H25   92  -0.119  -0.091   0.380
    1UNL    H26   93  -0.031  -0.249   0.198
    1UNL    H27   94   0.137   0.021   0.201
    1UNL    H28   95   0.121  -0.081   0.342
    1UNL    H29   96   0.205  -0.145   0.209
    1UNL    H30   97  -0.004   0.008   0.039
    1UNL    H31   98  -0.229  -0.010   0.010
    1UNL    H32   99  -0.220  -0.187   0.036
    1UNL    H33  100  -0.161  -0.037  -0.214
    1UNL    H34  101  -0.351  -0.195  -0.189
    1UNL    H35  102  -0.023  -0.288  -0.232
    1UNL    H36  103  -0.010  -0.147  -0.417
    1UNL    H37  104   0.148  -0.137  -0.331
    1UNL    H38  105   0.034  -0.010  -0.301
    1UNL    H39  106   0.156  -0.117  -0.083
    1UNL    H40  107   0.025  -0.374   0.036
    1UNL    H41  108   0.157  -0.373  -0.089
    1UNL    H42  109   0.538  -0.266   0.022
    1UNL    H43  110   0.450  -0.288   0.178
    1UNL    H44  111   0.385  -0.051   0.172
    1UNL    H45  112   0.252   0.304  -0.217
    1UNL    H46  113   0.180   0.214  -0.086
    1UNL    H47  114   0.142   0.176  -0.260
    1UNL    H48  115   0.552   0.007  -0.211
    1UNL    H49  116   0.803  -0.068   0.101
    1UNL    H50  117   0.939   0.193   0.151
    1UNL    H51  118   1.127  -0.061  -0.062
    1UNL    H52  119   1.095  -0.015  -0.290
    1UNL    H53  120   0.965   0.103  -0.259
    1UNL    H54  121   0.852  -0.095  -0.155
    1UNL    H55  122   1.236   0.169  -0.137
    1UNL    H56  123   1.243   0.122   0.107
    1UNL    H57  124   1.061   0.309  -0.205
    1UNL    H58  125   1.105   0.388   0.061
    1UNL    H59  126   0.864   0.353  -0.033
    1UNL    H60  127   0.770   0.125  -0.148
    1UNL    H61  128   0.726  -0.060   0.317
    1UNL    H62  129   0.433  -0.071   0.377
    1UNL    H63  130   0.505  -0.226   0.435
    1UNL    H64  131   0.556  -0.064   0.492
   0.00000   0.00000   0.00000   0.00000   0.00000   0.00000   0.00000   0.00000   0.00000
Generated with MDTraj, t= 57.0
 131
    1UNL     C1    1  -0.450   0.346   0.142
    1UNL     C2    2  -0.464   0.236   0.234
    1UNL     C3    3  -0.550   0.138   0.208
    1UNL     C4    4  -0.635   0.132   0.073
    1UNL     O1    5  -0.601   0.024   0.001
    1UNL     C5    6  -0.687   0.020  -0.108
    1UNL     O2    7  -0.663   0.120  -0.201
    1UNL     C6    8  -0.755   0.115  -0.313
    1UNL     C7    9  -0.728   0.236  -0.401
    1UNL     O3   10  -0.810   0.232  -0.514
    1UNL     C8   11  -0.728  -0.011  -0.389
    1UNL     O4   12  -0.811  -0.029  -0.503
    1UNL     C9   13  -0.745  -0.134  -0.302
    1UNL     O5   14  -0.883  -0.154  -0.281
    1UNL    C10   15  -0.655  -0.119  -0.172
    1UNL     O6   16  -0.523  -0.111  -0.218
    1UNL     O7   17  -0.775   0.140   0.103
    1UNL    C11   18  -0.813   0.059   0.201
    1UNL    C12   19  -0.734   0.001   0.293
    1UNL    C13   20  -0.784  -0.091   0.394
    1UNL     O8   21  -0.715  -0.135   0.486
    1UNL     O9   22  -0.921  -0.130   0.379
    1UNL    C14   23  -0.966  -0.215   0.474
    1UNL    C15   24  -0.589   0.036   0.313
    1UNL    C16   25  -0.493  -0.087   0.314
    1UNL    C17   26  -0.349  -0.038   0.333
    1UNL    O10   27  -0.319   0.052   0.410
    1UNL    O11   28  -0.263  -0.111   0.260
    1UNL    C18   29  -0.127  -0.071   0.274
    1UNL    C19   30  -0.029  -0.144   0.183
    1UNL    C20   31   0.113  -0.108   0.228
    1UNL    C21   32  -0.035  -0.100   0.038
    1UNL    C22   33  -0.183  -0.124  -0.012
    1UNL    C23   34  -0.174  -0.155  -0.162
    1UNL    O12   35  -0.257  -0.266  -0.187
    1UNL    C24   36  -0.030  -0.194  -0.197
    1UNL    C25   37   0.022  -0.113  -0.312
    1UNL    C26   38   0.053  -0.177  -0.070
    1UNL    C27   39   0.103  -0.312  -0.020
    1UNL    O13   40   0.216  -0.292   0.068
    1UNL    C28   41   0.321  -0.256  -0.011
    1UNL    O14   42   0.316  -0.234  -0.132
    1UNL    C29   43   0.447  -0.234   0.054
    1UNL    C30   44   0.461  -0.084   0.082
    1UNL    C31   45   0.458   0.002  -0.033
    1UNL    C32   46   0.340   0.079  -0.079
    1UNL    O15   47   0.239   0.068  -0.006
    1UNL    O16   48   0.362   0.172  -0.179
    1UNL    C33   49   0.241   0.234  -0.203
    1UNL    C34   50   0.571   0.024  -0.101
    1UNL    O17   51   0.697  -0.009  -0.071
    1UNL    C35   52   0.712  -0.015   0.072
    1UNL    O18   53   0.771   0.107   0.116
    1UNL    C36   54   0.903   0.122   0.070
    1UNL    O19   55   0.953   0.013  -0.001
    1UNL    C37   56   1.073   0.025  -0.077
    1UNL    C38   57   1.033  -0.010  -0.225
    1UNL    O20   58   0.934  -0.113  -0.226
    1UNL    C39   59   1.146   0.166  -0.051
    1UNL    O21   60   1.188   0.162   0.082
    1UNL    C40   61   1.041   0.280  -0.075
    1UNL    O22   62   1.086   0.392  -0.008
    1UNL    C41   63   0.903   0.234  -0.030
    1UNL    O23   64   0.821   0.202  -0.145
    1UNL    C42   65   0.593  -0.048   0.155
    1UNL    C43   66   0.615  -0.053   0.285
    1UNL    C44   67   0.518  -0.090   0.390
    1UNL     H1   68  -0.533   0.413   0.154
    1UNL     H2   69  -0.368   0.415   0.166
    1UNL     H3   70  -0.452   0.307   0.040
    1UNL     H4   71  -0.399   0.238   0.319
    1UNL     H5   72  -0.604   0.216   0.002
    1UNL     H6   73  -0.787   0.036  -0.072
    1UNL     H7   74  -0.851   0.115  -0.260
    1UNL     H8   75  -0.620   0.222  -0.440
    1UNL     H9   76  -0.728   0.336  -0.351
    1UNL    H10   77  -0.800   0.155  -0.571
    1UNL    H11   78  -0.624  -0.007  -0.427
    1UNL    H12   79  -0.887  -0.080  -0.469
    1UNL    H13   80  -0.705  -0.218  -0.363
    1UNL    H14   81  -0.907  -0.237  -0.239
    1UNL    H15   82  -0.660  -0.205  -0.103
    1UNL    H16   83  -0.490  -0.017  -0.202
    1UNL    H17   84  -0.920   0.035   0.203
    1UNL    H18   85  -1.067  -0.187   0.502
    1UNL    H19   86  -0.896  -0.205   0.558
    1UNL    H20   87  -0.959  -0.312   0.435
    1UNL    H21   88  -0.577   0.077   0.416
    1UNL    H22   89  -0.522  -0.151   0.395
    1UNL    H23   90  -0.500  -0.130   0.206
    1UNL    H24   91  -0.122   0.046   0.264
    1UNL    H25   92  -0.096  -0.095   0.378
    1UNL    H26   93  -0.054  -0.255   0.190
    1UNL    H27   94   0.112   0.001   0.262
    1UNL    H28   95   0.140  -0.168   0.318
    1UNL    H29   96   0.183  -0.124   0.152
    1UNL    H30   97  -0.012   0.004   0.026
    1UNL    H31   98  -0.249  -0.034  -0.003
    1UNL    H32   99  -0.227  -0.217   0.029
    1UNL    H33  100  -0.208  -0.066  -0.219
    1UNL    H34  101  -0.346  -0.237  -0.187
    1UNL    H35  102  -0.031  -0.294  -0.233
    1UNL    H36  103  -0.053  -0.118  -0.399
    1UNL    H37  104   0.116  -0.144  -0.361
    1UNL    H38  105   0.036  -0.011  -0.282
    1UNL    H39  106   0.141  -0.114  -0.106
    1UNL    H40  107   0.028  -0.366   0.047
    1UNL    H41  108   0.137  -0.383  -0.096
    1UNL    H42  109   0.525  -0.257  -0.025
    1UNL    H43  110   0.472  -0.290   0.144
    1UNL    H44  111   0.377  -0.053   0.146
    1UNL    H45  112   0.270   0.330  -0.239
    1UNL    H46  113   0.198   0.254  -0.103
    1UNL    H47  114   0.184   0.186  -0.281
    1UNL    H48  115   0.559   0.070  -0.192
    1UNL    H49  116   0.792  -0.091   0.099
    1UNL    H50  117   0.963   0.150   0.159
    1UNL    H51  118   1.151  -0.050  -0.035
    1UNL    H52  119   1.118  -0.029  -0.282
    1UNL    H53  120   0.982   0.083  -0.269
    1UNL    H54  121   0.853  -0.078  -0.177
    1UNL    H55  122   1.234   0.192  -0.115
    1UNL    H56  123   1.150   0.086   0.133
    1UNL    H57  124   1.031   0.300  -0.184
    1UNL    H58  125   1.126   0.353   0.073
    1UNL    H59  126   0.844   0.322   0.015
    1UNL    H60  127   0.767   0.129  -0.107
    1UNL    H61  128   0.719  -0.024   0.314
    1UNL    H62  129   0.425  -0.037   0.368
    1UNL    H63  130   0.486  -0.195   0.400
    1UNL    H64  131   0.543  -0.051   0.485
   0.00000   0.00000   0.00000   0.00000   0.00000   0.00000   0.00000   0.00000   0.00000
Generated with MDTraj, t= 58.0
 131
    1UNL     C1    1  -0.441   0.356   0.150
    1UNL     C2    2  -0.485   0.250   0.245
    1UNL     C3    3  -0.578   0.162   0.213
    1UNL     C4    4  -0.651   0.145   0.081
    1UNL     O1    5  -0.596   0.044  -0.007
    1UNL     C5    6  -0.679   0.018  -0.116
    1UNL     O2    7  -0.685   0.122  -0.199
    1UNL     C6    8  -0.766   0.101  -0.318
    1UNL     C7    9  -0.762   0.234  -0.402
    1UNL     O3   10  -0.786   0.214  -0.535
    1UNL     C8   11  -0.732  -0.022  -0.399
    1UNL     O4   12  -0.839  -0.047  -0.493
    1UNL     C9   13  -0.724  -0.142  -0.304
    1UNL     O5   14  -0.855  -0.177  -0.270
    1UNL    C10   15  -0.630  -0.116  -0.180
    1UNL     O6   16  -0.490  -0.109  -0.208
    1UNL     O7   17  -0.793   0.139   0.115
    1UNL    C11   18  -0.817   0.049   0.212
    1UNL    C12   19  -0.736   0.003   0.307
    1UNL    C13   20  -0.782  -0.094   0.405
    1UNL     O8   21  -0.705  -0.141   0.489
    1UNL     O9   22  -0.920  -0.127   0.401
    1UNL    C14   23  -0.956  -0.222   0.493
    1UNL    C15   24  -0.596   0.046   0.310
    1UNL    C16   25  -0.496  -0.065   0.289
    1UNL    C17   26  -0.353  -0.039   0.323
    1UNL    O10   27  -0.318   0.039   0.412
    1UNL    O11   28  -0.265  -0.108   0.242
    1UNL    C18   29  -0.140  -0.062   0.275
    1UNL    C19   30  -0.037  -0.134   0.187
    1UNL    C20   31   0.110  -0.079   0.222
    1UNL    C21   32  -0.064  -0.116   0.041
    1UNL    C22   33  -0.209  -0.151  -0.002
    1UNL    C23   34  -0.194  -0.163  -0.155
    1UNL    O12   35  -0.269  -0.273  -0.200
    1UNL    C24   36  -0.039  -0.197  -0.186
    1UNL    C25   37   0.018  -0.106  -0.294
    1UNL    C26   38   0.037  -0.184  -0.054
    1UNL    C27   39   0.097  -0.323  -0.015
    1UNL    O13   40   0.220  -0.292   0.049
    1UNL    C28   41   0.314  -0.251  -0.039
    1UNL    O14   42   0.303  -0.233  -0.159
    1UNL    C29   43   0.446  -0.225   0.029
    1UNL    C30   44   0.465  -0.078   0.071
    1UNL    C31   45   0.468   0.017  -0.044
    1UNL    C32   46   0.344   0.088  -0.085
    1UNL    O15   47   0.237   0.056  -0.035
    1UNL    O16   48   0.364   0.199  -0.169
    1UNL    C33   49   0.238   0.252  -0.195
    1UNL    C34   50   0.587   0.038  -0.112
    1UNL    O17   51   0.692  -0.035  -0.069
    1UNL    C35   52   0.711  -0.020   0.074
    1UNL    O18   53   0.773   0.098   0.118
    1UNL    C36   54   0.909   0.110   0.066
    1UNL    O19   55   0.978  -0.001   0.005
    1UNL    C37   56   1.084   0.021  -0.083
    1UNL    C38   57   1.030   0.019  -0.227
    1UNL    O20   58   0.949  -0.089  -0.239
    1UNL    C39   59   1.166   0.147  -0.042
    1UNL    O21   60   1.222   0.148   0.087
    1UNL    C40   61   1.069   0.270  -0.057
    1UNL    O22   62   1.115   0.373   0.025
    1UNL    C41   63   0.919   0.239  -0.026
    1UNL    O23   64   0.844   0.210  -0.143
    1UNL    C42   65   0.587  -0.054   0.160
    1UNL    C43   66   0.591  -0.051   0.291
    1UNL    C44   67   0.467  -0.067   0.368
    1UNL     H1   68  -0.486   0.448   0.187
    1UNL     H2   69  -0.334   0.383   0.160
    1UNL     H3   70  -0.469   0.346   0.046
    1UNL     H4   71  -0.432   0.244   0.340
    1UNL     H5   72  -0.630   0.236   0.016
    1UNL     H6   73  -0.781   0.001  -0.084
    1UNL     H7   74  -0.871   0.084  -0.285
    1UNL     H8   75  -0.658   0.282  -0.399
    1UNL     H9   76  -0.831   0.310  -0.361
    1UNL    H10   77  -0.753   0.133  -0.584
    1UNL    H11   78  -0.640  -0.008  -0.461
    1UNL    H12   79  -0.901  -0.116  -0.461
    1UNL    H13   80  -0.684  -0.224  -0.363
    1UNL    H14   81  -0.854  -0.261  -0.224
    1UNL    H15   82  -0.640  -0.199  -0.109
    1UNL    H16   83  -0.459  -0.018  -0.203
    1UNL    H17   84  -0.919   0.015   0.218
    1UNL    H18   85  -1.024  -0.298   0.447
    1UNL    H19   86  -1.007  -0.163   0.576
    1UNL    H20   87  -0.862  -0.263   0.530
    1UNL    H21   88  -0.577   0.072   0.418
    1UNL    H22   89  -0.542  -0.143   0.347
    1UNL    H23   90  -0.501  -0.082   0.175
    1UNL    H24   91  -0.140   0.054   0.255
    1UNL    H25   92  -0.122  -0.073   0.385
    1UNL    H26   93  -0.042  -0.247   0.205
    1UNL    H27   94   0.125   0.020   0.179
    1UNL    H28   95   0.121  -0.063   0.334
    1UNL    H29   96   0.185  -0.150   0.186
    1UNL    H30   97  -0.039  -0.014   0.015
    1UNL    H31   98  -0.280  -0.075   0.024
    1UNL    H32   99  -0.239  -0.255   0.034
    1UNL    H33  100  -0.245  -0.078  -0.196
    1UNL    H34  101  -0.367  -0.250  -0.205
    1UNL    H35  102  -0.044  -0.298  -0.216
    1UNL    H36  103  -0.046  -0.107  -0.388
    1UNL    H37  104   0.120  -0.123  -0.334
    1UNL    H38  105   0.023  -0.006  -0.257
    1UNL    H39  106   0.131  -0.120  -0.070
    1UNL    H40  107   0.031  -0.384   0.054
    1UNL    H41  108   0.132  -0.387  -0.097
    1UNL    H42  109   0.541  -0.251  -0.027
    1UNL    H43  110   0.457  -0.283   0.121
    1UNL    H44  111   0.376  -0.042   0.127
    1UNL    H45  112   0.242   0.301  -0.290
    1UNL    H46  113   0.219   0.332  -0.117
    1UNL    H47  114   0.160   0.173  -0.208
    1UNL    H48  115   0.578   0.106  -0.199
    1UNL    H49  116   0.800  -0.085   0.111
    1UNL    H50  117   0.971   0.126   0.158
    1UNL    H51  118   1.157  -0.066  -0.065
    1UNL    H52  119   1.109   0.006  -0.292
    1UNL    H53  120   0.972   0.112  -0.256
    1UNL    H54  121   0.885  -0.080  -0.165
    1UNL    H55  122   1.255   0.155  -0.106
    1UNL    H56  123   1.297   0.081   0.086
    1UNL    H57  124   1.080   0.319  -0.156
    1UNL    H58  125   1.144   0.336   0.112
    1UNL    H59  126   0.877   0.329   0.035
    1UNL    H60  127   0.768   0.165  -0.112
    1UNL    H61  128   0.686  -0.023   0.335
    1UNL    H62  129   0.415   0.027   0.379
    1UNL    H63  130   0.391  -0.130   0.322
    1UNL    H64  131   0.491  -0.102   0.467
   0.00000   0.00000   0.00000   0.00000   0.00000   0.00000   0.00000   0.00000   0.00000
Generated with MDTraj, t= 59.0
 131
    1UNL     C1    1  -0.448   0.353   0.130
    1UNL     C2    2  -0.490   0.253   0.234
    1UNL     C3    3  -0.585   0.161   0.215
    1UNL     C4    4  -0.662   0.149   0.081
    1UNL     O1    5  -0.618   0.030   0.014
    1UNL     C5    6  -0.693   0.010  -0.109
    1UNL     O2    7  -0.689   0.127  -0.189
    1UNL     C6    8  -0.756   0.101  -0.316
    1UNL     C7    9  -0.742   0.216  -0.409
    1UNL     O3   10  -0.830   0.211  -0.513
    1UNL     C8   11  -0.731  -0.033  -0.385
    1UNL     O4   12  -0.824  -0.060  -0.490
    1UNL     C9   13  -0.715  -0.158  -0.285
    1UNL     O5   14  -0.844  -0.193  -0.236
    1UNL    C10   15  -0.620  -0.116  -0.175
    1UNL     O6   16  -0.486  -0.079  -0.214
    1UNL     O7   17  -0.803   0.150   0.118
    1UNL    C11   18  -0.838   0.050   0.209
    1UNL    C12   19  -0.753  -0.002   0.303
    1UNL    C13   20  -0.795  -0.098   0.410
    1UNL     O8   21  -0.712  -0.147   0.488
    1UNL     O9   22  -0.929  -0.133   0.419
    1UNL    C14   23  -0.945  -0.224   0.521
    1UNL    C15   24  -0.609   0.046   0.306
    1UNL    C16   25  -0.505  -0.063   0.291
    1UNL    C17   26  -0.366  -0.027   0.309
    1UNL    O10   27  -0.324   0.060   0.384
    1UNL    O11   28  -0.280  -0.103   0.236
    1UNL    C18   29  -0.150  -0.051   0.263
    1UNL    C19   30  -0.038  -0.127   0.191
    1UNL    C20   31   0.102  -0.065   0.230
    1UNL    C21   32  -0.056  -0.114   0.040
    1UNL    C22   33  -0.195  -0.157  -0.011
    1UNL    C23   34  -0.184  -0.173  -0.162
    1UNL    O12   35  -0.267  -0.261  -0.230
    1UNL    C24   36  -0.040  -0.201  -0.195
    1UNL    C25   37   0.004  -0.124  -0.321
    1UNL    C26   38   0.043  -0.174  -0.065
    1UNL    C27   39   0.100  -0.306  -0.010
    1UNL    O13   40   0.224  -0.287   0.054
    1UNL    C28   41   0.325  -0.259  -0.039
    1UNL    O14   42   0.302  -0.258  -0.158
    1UNL    C29   43   0.453  -0.224   0.025
    1UNL    C30   44   0.460  -0.072   0.056
    1UNL    C31   45   0.463   0.014  -0.064
    1UNL    C32   46   0.339   0.089  -0.093
    1UNL    O15   47   0.239   0.088  -0.019
    1UNL    O16   48   0.342   0.180  -0.202
    1UNL    C33   49   0.241   0.273  -0.187
    1UNL    C34   50   0.581   0.051  -0.118
    1UNL    O17   51   0.710   0.003  -0.089
    1UNL    C35   52   0.724  -0.018   0.052
    1UNL    O18   53   0.792   0.078   0.125
    1UNL    C36   54   0.918   0.103   0.070
    1UNL    O19   55   0.967  -0.013   0.003
    1UNL    C37   56   1.088   0.009  -0.082
    1UNL    C38   57   1.047   0.012  -0.232
    1UNL    O20   58   0.939  -0.077  -0.252
    1UNL    C39   59   1.167   0.137  -0.028
    1UNL    O21   60   1.231   0.114   0.099
    1UNL    C40   61   1.088   0.270  -0.029
    1UNL    O22   62   1.140   0.355   0.069
    1UNL    C41   63   0.944   0.246  -0.002
    1UNL    O23   64   0.858   0.234  -0.116
    1UNL    C42   65   0.597  -0.056   0.131
    1UNL    C43   66   0.592  -0.046   0.263
    1UNL    C44   67   0.468  -0.062   0.350
    1UNL     H1   68  -0.534   0.388   0.073
    1UNL     H2   69  -0.427   0.445   0.186
    1UNL     H3   70  -0.370   0.332   0.058
    1UNL     H4   71  -0.432   0.259   0.323
    1UNL     H5   72  -0.640   0.230   0.004
    1UNL     H6   73  -0.798  -0.015  -0.087
    1UNL     H7   74  -0.865   0.103  -0.291
    1UNL     H8   75  -0.633   0.222  -0.439
    1UNL     H9   76  -0.764   0.309  -0.355
    1UNL    H10   77  -0.810   0.133  -0.572
    1UNL    H11   78  -0.630  -0.025  -0.434
    1UNL    H12   79  -0.834  -0.158  -0.503
    1UNL    H13   80  -0.674  -0.246  -0.330
    1UNL    H14   81  -0.834  -0.247  -0.152
    1UNL    H15   82  -0.612  -0.186  -0.092
    1UNL    H16   83  -0.471   0.011  -0.177
    1UNL    H17   84  -0.938   0.011   0.210
    1UNL    H18   85  -0.863  -0.299   0.508
    1UNL    H19   86  -1.050  -0.273   0.513
    1UNL    H20   87  -0.934  -0.164   0.614
    1UNL    H21   88  -0.601   0.091   0.407
    1UNL    H22   89  -0.535  -0.143   0.359
    1UNL    H23   90  -0.528  -0.085   0.183
    1UNL    H24   91  -0.151   0.060   0.231
    1UNL    H25   92  -0.131  -0.044   0.372
    1UNL    H26   93  -0.046  -0.236   0.225
    1UNL    H27   94   0.121   0.037   0.211
    1UNL    H28   95   0.136  -0.072   0.339
    1UNL    H29   96   0.185  -0.122   0.175
    1UNL    H30   97  -0.046  -0.006   0.032
    1UNL    H31   98  -0.267  -0.089   0.022
    1UNL    H32   99  -0.220  -0.261   0.032
    1UNL    H33  100  -0.205  -0.078  -0.205
    1UNL    H34  101  -0.355  -0.217  -0.230
    1UNL    H35  102  -0.023  -0.300  -0.225
    1UNL    H36  103  -0.019  -0.175  -0.417
    1UNL    H37  104   0.115  -0.115  -0.318
    1UNL    H38  105  -0.024  -0.019  -0.318
    1UNL    H39  106   0.138  -0.111  -0.076
    1UNL    H40  107   0.039  -0.343   0.078
    1UNL    H41  108   0.119  -0.383  -0.083
    1UNL    H42  109   0.545  -0.256  -0.032
    1UNL    H43  110   0.468  -0.283   0.116
    1UNL    H44  111   0.376  -0.045   0.123
    1UNL    H45  112   0.261   0.357  -0.253
    1UNL    H46  113   0.245   0.311  -0.078
    1UNL    H47  114   0.142   0.233  -0.224
    1UNL    H48  115   0.582   0.125  -0.203
    1UNL    H49  116   0.794  -0.109   0.063
    1UNL    H50  117   0.990   0.108   0.155
    1UNL    H51  118   1.142  -0.087  -0.059
    1UNL    H52  119   1.121  -0.011  -0.300
    1UNL    H53  120   1.008   0.116  -0.249
    1UNL    H54  121   0.860  -0.049  -0.205
    1UNL    H55  122   1.249   0.148  -0.097
    1UNL    H56  123   1.180   0.044   0.144
    1UNL    H57  124   1.090   0.329  -0.124
    1UNL    H58  125   1.183   0.303   0.141
    1UNL    H59  126   0.895   0.328   0.062
    1UNL    H60  127   0.783   0.168  -0.106
    1UNL    H61  128   0.682  -0.020   0.311
    1UNL    H62  129   0.391   0.003   0.314
    1UNL    H63  130   0.430  -0.160   0.340
    1UNL    H64  131   0.503  -0.035   0.452
   0.00000   0.00000   0.00000   0.00000   0.00000   0.00000   0.00000   0.00000   0.00000
Generated with MDTraj, t= 60.0
 131
    1UNL     C1    1  -0.483   0.362   0.113
    1UNL     C2    2  -0.511   0.270   0.226
    1UNL     C3    3  -0.594   0.169   0.210
    1UNL     C4    4  -0.671   0.131   0.086
    1UNL     O1    5  -0.618   0.023   0.027
    1UNL     C5    6  -0.686   0.001  -0.099
    1UNL     O2    7  -0.672   0.109  -0.190
    1UNL     C6    8  -0.763   0.086  -0.299
    1UNL     C7    9  -0.762   0.207  -0.387
    1UNL     O3   10  -0.868   0.193  -0.479
    1UNL     C8   11  -0.719  -0.041  -0.378
    1UNL     O4   12  -0.804  -0.067  -0.487
    1UNL     C9   13  -0.723  -0.162  -0.279
    1UNL     O5   14  -0.856  -0.198  -0.248
    1UNL    C10   15  -0.639  -0.123  -0.162
    1UNL     O6   16  -0.511  -0.097  -0.213
    1UNL     O7   17  -0.805   0.120   0.112
    1UNL    C11   18  -0.827   0.041   0.218
    1UNL    C12   19  -0.750   0.002   0.324
    1UNL    C13   20  -0.791  -0.096   0.422
    1UNL     O8   21  -0.718  -0.149   0.506
    1UNL     O9   22  -0.929  -0.125   0.414
    1UNL    C14   23  -0.972  -0.215   0.512
    1UNL    C15   24  -0.614   0.061   0.328
    1UNL    C16   25  -0.514  -0.053   0.300
    1UNL    C17   26  -0.368  -0.007   0.304
    1UNL    O10   27  -0.347   0.093   0.370
    1UNL    O11   28  -0.280  -0.092   0.238
    1UNL    C18   29  -0.147  -0.043   0.251
    1UNL    C19   30  -0.043  -0.119   0.168
    1UNL    C20   31   0.095  -0.081   0.216
    1UNL    C21   32  -0.050  -0.091   0.020
    1UNL    C22   33  -0.192  -0.098  -0.053
    1UNL    C23   34  -0.166  -0.152  -0.198
    1UNL    O12   35  -0.264  -0.244  -0.238
    1UNL    C24   36  -0.023  -0.211  -0.196
    1UNL    C25   37   0.042  -0.161  -0.329
    1UNL    C26   38   0.043  -0.178  -0.063
    1UNL    C27   39   0.108  -0.305   0.002
    1UNL    O13   40   0.238  -0.273   0.047
    1UNL    C28   41   0.326  -0.257  -0.055
    1UNL    O14   42   0.303  -0.273  -0.171
    1UNL    C29   43   0.462  -0.221   0.002
    1UNL    C30   44   0.467  -0.072   0.056
    1UNL    C31   45   0.457   0.032  -0.058
    1UNL    C32   46   0.329   0.101  -0.089
    1UNL    O15   47   0.225   0.075  -0.027
    1UNL    O16   48   0.338   0.192  -0.189
    1UNL    C33   49   0.215   0.246  -0.216
    1UNL    C34   50   0.573   0.052  -0.121
    1UNL    O17   51   0.703   0.009  -0.093
    1UNL    C35   52   0.726  -0.014   0.048
    1UNL    O18   53   0.791   0.097   0.118
    1UNL    C36   54   0.933   0.101   0.085
    1UNL    O19   55   0.972  -0.018   0.006
    1UNL    C37   56   1.084   0.009  -0.079
    1UNL    C38   57   1.037   0.040  -0.218
    1UNL    O20   58   0.935  -0.046  -0.279
    1UNL    C39   59   1.185   0.113  -0.021
    1UNL    O21   60   1.223   0.068   0.113
    1UNL    C40   61   1.117   0.260  -0.011
    1UNL    O22   62   1.180   0.328   0.100
    1UNL    C41   63   0.966   0.241   0.018
    1UNL    O23   64   0.886   0.237  -0.101
    1UNL    C42   65   0.599  -0.045   0.129
    1UNL    C43   66   0.607  -0.028   0.257
    1UNL    C44   67   0.502  -0.073   0.355
    1UNL     H1   68  -0.578   0.408   0.081
    1UNL     H2   69  -0.428   0.447   0.157
    1UNL     H3   70  -0.440   0.316   0.023
    1UNL     H4   71  -0.460   0.280   0.322
    1UNL     H5   72  -0.669   0.213   0.009
    1UNL     H6   73  -0.798  -0.008  -0.083
    1UNL     H7   74  -0.869   0.081  -0.258
    1UNL     H8   75  -0.668   0.222  -0.444
    1UNL     H9   76  -0.772   0.299  -0.330
    1UNL    H10   77  -0.836   0.168  -0.567
    1UNL    H11   78  -0.613  -0.032  -0.417
    1UNL    H12   79  -0.897  -0.062  -0.457
    1UNL    H13   80  -0.682  -0.250  -0.329
    1UNL    H14   81  -0.873  -0.247  -0.161
    1UNL    H15   82  -0.628  -0.205  -0.089
    1UNL    H16   83  -0.502  -0.009  -0.260
    1UNL    H17   84  -0.930   0.005   0.222
    1UNL    H18   85  -0.891  -0.226   0.583
    1UNL    H19   86  -0.993  -0.314   0.462
    1UNL    H20   87  -1.064  -0.175   0.554
    1UNL    H21   88  -0.598   0.092   0.434
    1UNL    H22   89  -0.534  -0.135   0.372
    1UNL    H23   90  -0.525  -0.092   0.198
    1UNL    H24   91  -0.152   0.067   0.227
    1UNL    H25   92  -0.126  -0.046   0.355
    1UNL    H26   93  -0.070  -0.229   0.190
    1UNL    H27   94   0.120   0.023   0.205
    1UNL    H28   95   0.109  -0.098   0.328
    1UNL    H29   96   0.170  -0.142   0.164
    1UNL    H30   97  -0.026   0.016   0.021
    1UNL    H31   98  -0.246  -0.008  -0.045
    1UNL    H32   99  -0.260  -0.172   0.001
    1UNL    H33  100  -0.166  -0.077  -0.271
    1UNL    H34  101  -0.347  -0.200  -0.238
    1UNL    H35  102  -0.026  -0.316  -0.213
    1UNL    H36  103  -0.017  -0.182  -0.416
    1UNL    H37  104   0.142  -0.208  -0.343
    1UNL    H38  105   0.066  -0.053  -0.317
    1UNL    H39  106   0.130  -0.106  -0.079
    1UNL    H40  107   0.053  -0.344   0.093
    1UNL    H41  108   0.121  -0.380  -0.071
    1UNL    H42  109   0.536  -0.246  -0.076
    1UNL    H43  110   0.493  -0.294   0.079
    1UNL    H44  111   0.388  -0.052   0.130
    1UNL    H45  112   0.210   0.300  -0.309
    1UNL    H46  113   0.187   0.318  -0.133
    1UNL    H47  114   0.137   0.163  -0.218
    1UNL    H48  115   0.563   0.105  -0.214
    1UNL    H49  116   0.793  -0.106   0.051
    1UNL    H50  117   0.996   0.082   0.174
    1UNL    H51  118   1.122  -0.094  -0.077
    1UNL    H52  119   1.124   0.027  -0.272
    1UNL    H53  120   0.999   0.145  -0.237
    1UNL    H54  121   0.852  -0.042  -0.227
    1UNL    H55  122   1.273   0.121  -0.079
    1UNL    H56  123   1.184  -0.015   0.143
    1UNL    H57  124   1.139   0.321  -0.100
    1UNL    H58  125   1.207   0.260   0.166
    1UNL    H59  126   0.923   0.325   0.080
    1UNL    H60  127   0.809   0.182  -0.075
    1UNL    H61  128   0.710   0.012   0.287
    1UNL    H62  129   0.423  -0.002   0.366
    1UNL    H63  130   0.451  -0.154   0.313
    1UNL    H64  131   0.550  -0.095   0.452
   0.00000   0.00000   0.00000   0.00000   0.00000   0.00000   0.00000   0.00000   0.00000
Generated with MDTraj, t= 61.0
 131
    1UNL     C1    1  -0.512   0.379   0.144
    1UNL     C2    2  -0.533   0.265   0.234
    1UNL     C3    3  -0.592   0.152   0.207
    1UNL     C4    4  -0.676   0.124   0.071
    1UNL     O1    5  -0.627   0.010   0.026
    1UNL     C5    6  -0.707  -0.018  -0.090
    1UNL     O2    7  -0.712   0.100  -0.179
    1UNL     C6    8  -0.794   0.072  -0.294
    1UNL     C7    9  -0.809   0.210  -0.366
    1UNL     O3   10  -0.902   0.202  -0.475
    1UNL     C8   11  -0.728  -0.044  -0.379
    1UNL     O4   12  -0.807  -0.076  -0.496
    1UNL     C9   13  -0.736  -0.170  -0.291
    1UNL     O5   14  -0.866  -0.201  -0.250
    1UNL    C10   15  -0.654  -0.143  -0.164
    1UNL     O6   16  -0.509  -0.119  -0.179
    1UNL     O7   17  -0.817   0.100   0.099
    1UNL    C11   18  -0.841   0.039   0.216
    1UNL    C12   19  -0.759   0.013   0.320
    1UNL    C13   20  -0.804  -0.074   0.429
    1UNL     O8   21  -0.728  -0.106   0.522
    1UNL     O9   22  -0.932  -0.129   0.411
    1UNL    C14   23  -0.964  -0.214   0.517
    1UNL    C15   24  -0.612   0.060   0.318
    1UNL    C16   25  -0.507  -0.056   0.309
    1UNL    C17   26  -0.364   0.003   0.296
    1UNL    O10   27  -0.339   0.098   0.365
    1UNL    O11   28  -0.282  -0.043   0.201
    1UNL    C18   29  -0.141  -0.001   0.221
    1UNL    C19   30  -0.034  -0.104   0.158
    1UNL    C20   31   0.102  -0.078   0.222
    1UNL    C21   32  -0.021  -0.084   0.003
    1UNL    C22   33  -0.164  -0.096  -0.061
    1UNL    C23   34  -0.134  -0.142  -0.211
    1UNL    O12   35  -0.234  -0.232  -0.257
    1UNL    C24   36  -0.004  -0.224  -0.205
    1UNL    C25   37   0.073  -0.197  -0.336
    1UNL    C26   38   0.069  -0.179  -0.080
    1UNL    C27   39   0.124  -0.300   0.003
    1UNL    O13   40   0.249  -0.264   0.054
    1UNL    C28   41   0.335  -0.245  -0.054
    1UNL    O14   42   0.318  -0.250  -0.173
    1UNL    C29   43   0.469  -0.208   0.008
    1UNL    C30   44   0.477  -0.059   0.056
    1UNL    C31   45   0.453   0.044  -0.054
    1UNL    C32   46   0.324   0.087  -0.094
    1UNL    O15   47   0.230   0.050  -0.027
    1UNL    O16   48   0.320   0.177  -0.201
    1UNL    C33   49   0.189   0.218  -0.219
    1UNL    C34   50   0.572   0.081  -0.115
    1UNL    O17   51   0.697   0.048  -0.082
    1UNL    C35   52   0.722   0.002   0.054
    1UNL    O18   53   0.806   0.091   0.138
    1UNL    C36   54   0.939   0.099   0.085
    1UNL    O19   55   0.967  -0.013  -0.002
    1UNL    C37   56   1.087  -0.004  -0.084
    1UNL    C38   57   1.057   0.044  -0.234
    1UNL    O20   58   0.928  -0.010  -0.277
    1UNL    C39   59   1.194   0.083  -0.012
    1UNL    O21   60   1.231   0.028   0.111
    1UNL    C40   61   1.131   0.223   0.008
    1UNL    O22   62   1.199   0.299   0.114
    1UNL    C41   63   0.974   0.229   0.026
    1UNL    O23   64   0.905   0.277  -0.088
    1UNL    C42   65   0.609  -0.039   0.134
    1UNL    C43   66   0.614  -0.065   0.260
    1UNL    C44   67   0.489  -0.093   0.337
    1UNL     H1   68  -0.599   0.449   0.147
    1UNL     H2   69  -0.434   0.441   0.191
    1UNL     H3   70  -0.496   0.358   0.037
    1UNL     H4   71  -0.500   0.281   0.335
    1UNL     H5   72  -0.667   0.198  -0.011
    1UNL     H6   73  -0.814  -0.030  -0.053
    1UNL     H7   74  -0.899   0.035  -0.264
    1UNL     H8   75  -0.716   0.256  -0.396
    1UNL     H9   76  -0.859   0.282  -0.306
    1UNL    H10   77  -0.929   0.292  -0.514
    1UNL    H11   78  -0.620  -0.024  -0.402
    1UNL    H12   79  -0.899  -0.073  -0.468
    1UNL    H13   80  -0.700  -0.257  -0.350
    1UNL    H14   81  -0.854  -0.271  -0.183
    1UNL    H15   82  -0.659  -0.225  -0.089
    1UNL    H16   83  -0.474  -0.094  -0.092
    1UNL    H17   84  -0.943   0.000   0.216
    1UNL    H18   85  -0.973  -0.154   0.603
    1UNL    H19   86  -0.877  -0.277   0.534
    1UNL    H20   87  -1.052  -0.270   0.493
    1UNL    H21   88  -0.591   0.116   0.411
    1UNL    H22   89  -0.495  -0.109   0.407
    1UNL    H23   90  -0.535  -0.128   0.234
    1UNL    H24   91  -0.130   0.101   0.180
    1UNL    H25   92  -0.130   0.011   0.323
    1UNL    H26   93  -0.072  -0.211   0.176
    1UNL    H27   94   0.133   0.019   0.174
    1UNL    H28   95   0.098  -0.059   0.333
    1UNL    H29   96   0.164  -0.157   0.193
    1UNL    H30   97   0.013   0.022  -0.007
    1UNL    H31   98  -0.221  -0.006  -0.058
    1UNL    H32   99  -0.232  -0.162  -0.002
    1UNL    H33  100  -0.134  -0.054  -0.269
    1UNL    H34  101  -0.330  -0.195  -0.237
    1UNL    H35  102  -0.039  -0.325  -0.194
    1UNL    H36  103   0.008  -0.207  -0.419
    1UNL    H37  104   0.166  -0.257  -0.352
    1UNL    H38  105   0.113  -0.092  -0.326
    1UNL    H39  106   0.156  -0.117  -0.119
    1UNL    H40  107   0.053  -0.337   0.085
    1UNL    H41  108   0.144  -0.385  -0.056
    1UNL    H42  109   0.554  -0.229  -0.059
    1UNL    H43  110   0.490  -0.282   0.090
    1UNL    H44  111   0.400  -0.029   0.129
    1UNL    H45  112   0.163   0.299  -0.280
    1UNL    H46  113   0.141   0.229  -0.119
    1UNL    H47  114   0.133   0.127  -0.254
    1UNL    H48  115   0.559   0.152  -0.192
    1UNL    H49  116   0.779  -0.093   0.041
    1UNL    H50  117   1.014   0.072   0.161
    1UNL    H51  118   1.123  -0.103  -0.096
    1UNL    H52  119   1.125   0.027  -0.311
    1UNL    H53  120   1.041   0.157  -0.232
    1UNL    H54  121   0.861   0.006  -0.204
    1UNL    H55  122   1.281   0.082  -0.075
    1UNL    H56  123   1.160  -0.032   0.141
    1UNL    H57  124   1.161   0.279  -0.081
    1UNL    H58  125   1.218   0.239   0.188
    1UNL    H59  126   0.962   0.311   0.100
    1UNL    H60  127   0.830   0.219  -0.094
    1UNL    H61  128   0.704  -0.068   0.309
    1UNL    H62  129   0.423  -0.011   0.351
    1UNL    H63  130   0.427  -0.156   0.281
    1UNL    H64  131   0.508  -0.141   0.434
   0.00000   0.00000   0.00000   0.00000   0.00000   0.00000   0.00000   0.00000   0.00000
Generated with MDTraj, t= 62.0
 131
    1UNL     C1    1  -0.537   0.397   0.124
    1UNL     C2    2  -0.544   0.283   0.226
    1UNL     C3    3  -0.603   0.168   0.206
    1UNL     C4    4  -0.688   0.131   0.084
    1UNL     O1    5  -0.643   0.015   0.030
    1UNL     C5    6  -0.720  -0.015  -0.089
    1UNL     O2    7  -0.728   0.104  -0.176
    1UNL     C6    8  -0.803   0.074  -0.295
    1UNL     C7    9  -0.827   0.203  -0.381
    1UNL     O3   10  -0.954   0.182  -0.436
    1UNL     C8   11  -0.740  -0.048  -0.373
    1UNL     O4   12  -0.805  -0.063  -0.497
    1UNL     C9   13  -0.735  -0.181  -0.291
    1UNL     O5   14  -0.864  -0.236  -0.277
    1UNL    C10   15  -0.665  -0.139  -0.156
    1UNL     O6   16  -0.530  -0.112  -0.181
    1UNL     O7   17  -0.829   0.122   0.120
    1UNL    C11   18  -0.843   0.051   0.233
    1UNL    C12   19  -0.751   0.006   0.320
    1UNL    C13   20  -0.788  -0.084   0.429
    1UNL     O8   21  -0.714  -0.088   0.527
    1UNL     O9   22  -0.906  -0.158   0.419
    1UNL    C14   23  -0.952  -0.192   0.542
    1UNL    C15   24  -0.612   0.057   0.308
    1UNL    C16   25  -0.507  -0.051   0.269
    1UNL    C17   26  -0.364  -0.008   0.275
    1UNL    O10   27  -0.327   0.069   0.358
    1UNL    O11   28  -0.278  -0.056   0.176
    1UNL    C18   29  -0.150   0.011   0.194
    1UNL    C19   30  -0.038  -0.080   0.150
    1UNL    C20   31   0.099  -0.052   0.205
    1UNL    C21   32  -0.039  -0.078  -0.010
    1UNL    C22   33  -0.176  -0.112  -0.070
    1UNL    C23   34  -0.136  -0.152  -0.213
    1UNL    O12   35  -0.240  -0.228  -0.281
    1UNL    C24   36  -0.006  -0.232  -0.208
    1UNL    C25   37   0.079  -0.220  -0.334
    1UNL    C26   38   0.063  -0.175  -0.081
    1UNL    C27   39   0.122  -0.292   0.004
    1UNL    O13   40   0.247  -0.260   0.054
    1UNL    C28   41   0.338  -0.248  -0.050
    1UNL    O14   42   0.330  -0.272  -0.169
    1UNL    C29   43   0.467  -0.197   0.003
    1UNL    C30   44   0.477  -0.052   0.062
    1UNL    C31   45   0.458   0.048  -0.053
    1UNL    C32   46   0.329   0.090  -0.091
    1UNL    O15   47   0.234   0.070  -0.014
    1UNL    O16   48   0.314   0.157  -0.208
    1UNL    C33   49   0.189   0.201  -0.230
    1UNL    C34   50   0.577   0.104  -0.094
    1UNL    O17   51   0.712   0.099  -0.064
    1UNL    C35   52   0.730   0.020   0.060
    1UNL    O18   53   0.821   0.081   0.150
    1UNL    C36   54   0.954   0.078   0.097
    1UNL    O19   55   0.969  -0.009  -0.016
    1UNL    C37   56   1.084   0.001  -0.094
    1UNL    C38   57   1.035   0.060  -0.231
    1UNL    O20   58   0.920  -0.000  -0.269
    1UNL    C39   59   1.200   0.069  -0.022
    1UNL    O21   60   1.243   0.003   0.096
    1UNL    C40   61   1.154   0.212   0.021
    1UNL    O22   62   1.225   0.271   0.133
    1UNL    C41   63   0.996   0.223   0.057
    1UNL    O23   64   0.927   0.271  -0.059
    1UNL    C42   65   0.601  -0.015   0.139
    1UNL    C43   66   0.619  -0.041   0.264
    1UNL    C44   67   0.516  -0.118   0.348
    1UNL     H1   68  -0.634   0.422   0.073
    1UNL     H2   69  -0.512   0.484   0.187
    1UNL     H3   70  -0.469   0.383   0.037
    1UNL     H4   71  -0.494   0.274   0.324
    1UNL     H5   72  -0.669   0.209   0.010
    1UNL     H6   73  -0.825  -0.046  -0.059
    1UNL     H7   74  -0.906   0.040  -0.254
    1UNL     H8   75  -0.752   0.231  -0.455
    1UNL     H9   76  -0.836   0.284  -0.315
    1UNL    H10   77  -0.970   0.218  -0.530
    1UNL    H11   78  -0.633  -0.023  -0.389
    1UNL    H12   79  -0.898  -0.077  -0.474
    1UNL    H13   80  -0.687  -0.258  -0.359
    1UNL    H14   81  -0.857  -0.331  -0.267
    1UNL    H15   82  -0.679  -0.224  -0.086
    1UNL    H16   83  -0.495  -0.040  -0.120
    1UNL    H17   84  -0.949   0.033   0.249
    1UNL    H18   85  -1.010  -0.114   0.581
    1UNL    H19   86  -0.868  -0.205   0.609
    1UNL    H20   87  -1.006  -0.284   0.530
    1UNL    H21   88  -0.589   0.088   0.412
    1UNL    H22   89  -0.525  -0.133   0.344
    1UNL    H23   90  -0.518  -0.090   0.170
    1UNL    H24   91  -0.154   0.100   0.129
    1UNL    H25   92  -0.134   0.043   0.291
    1UNL    H26   93  -0.061  -0.191   0.171
    1UNL    H27   94   0.115   0.063   0.210
    1UNL    H28   95   0.121  -0.089   0.303
    1UNL    H29   96   0.172  -0.092   0.137
    1UNL    H30   97  -0.007   0.023  -0.047
    1UNL    H31   98  -0.241  -0.024  -0.073
    1UNL    H32   99  -0.237  -0.184  -0.025
    1UNL    H33  100  -0.105  -0.070  -0.275
    1UNL    H34  101  -0.327  -0.201  -0.255
    1UNL    H35  102  -0.022  -0.334  -0.180
    1UNL    H36  103   0.038  -0.284  -0.410
    1UNL    H37  104   0.188  -0.235  -0.325
    1UNL    H38  105   0.073  -0.115  -0.373
    1UNL    H39  106   0.154  -0.124  -0.122
    1UNL    H40  107   0.057  -0.323   0.093
    1UNL    H41  108   0.127  -0.386  -0.045
    1UNL    H42  109   0.541  -0.216  -0.074
    1UNL    H43  110   0.494  -0.268   0.086
    1UNL    H44  111   0.389  -0.034   0.125
    1UNL    H45  112   0.182   0.263  -0.311
    1UNL    H46  113   0.146   0.245  -0.141
    1UNL    H47  114   0.123   0.112  -0.233
    1UNL    H48  115   0.574   0.176  -0.175
    1UNL    H49  116   0.777  -0.073   0.030
    1UNL    H50  117   1.023   0.042   0.175
    1UNL    H51  118   1.118  -0.096  -0.109
    1UNL    H52  119   1.109   0.042  -0.303
    1UNL    H53  120   1.015   0.173  -0.230
    1UNL    H54  121   0.846   0.007  -0.200
    1UNL    H55  122   1.291   0.075  -0.083
    1UNL    H56  123   1.298  -0.079   0.081
    1UNL    H57  124   1.161   0.273  -0.068
    1UNL    H58  125   1.240   0.196   0.196
    1UNL    H59  126   0.960   0.287   0.137
    1UNL    H60  127   0.852   0.213  -0.096
    1UNL    H61  128   0.723  -0.030   0.311
    1UNL    H62  129   0.416  -0.113   0.313
    1UNL    H63  130   0.537  -0.223   0.333
    1UNL    H64  131   0.528  -0.092   0.452
   0.00000   0.00000   0.00000   0.00000   0.00000   0.00000   0.00000   0.00000   0.00000
Generated with MDTraj, t= 63.0
 131
    1UNL     C1    1  -0.559   0.395   0.110
    1UNL     C2    2  -0.543   0.286   0.211
    1UNL     C3    3  -0.611   0.172   0.207
    1UNL     C4    4  -0.696   0.132   0.077
    1UNL     O1    5  -0.627   0.029   0.013
    1UNL     C5    6  -0.711  -0.015  -0.097
    1UNL     O2    7  -0.739   0.099  -0.187
    1UNL     C6    8  -0.821   0.068  -0.302
    1UNL     C7    9  -0.879   0.192  -0.371
    1UNL     O3   10  -0.990   0.162  -0.450
    1UNL     C8   11  -0.746  -0.035  -0.393
    1UNL     O4   12  -0.818  -0.084  -0.501
    1UNL     C9   13  -0.718  -0.166  -0.305
    1UNL     O5   14  -0.850  -0.213  -0.270
    1UNL    C10   15  -0.645  -0.129  -0.166
    1UNL     O6   16  -0.508  -0.108  -0.182
    1UNL     O7   17  -0.831   0.102   0.116
    1UNL    C11   18  -0.850   0.030   0.234
    1UNL    C12   19  -0.749   0.002   0.321
    1UNL    C13   20  -0.781  -0.073   0.444
    1UNL     O8   21  -0.689  -0.099   0.521
    1UNL     O9   22  -0.913  -0.120   0.469
    1UNL    C14   23  -0.907  -0.220   0.561
    1UNL    C15   24  -0.612   0.064   0.302
    1UNL    C16   25  -0.509  -0.045   0.263
    1UNL    C17   26  -0.368   0.001   0.265
    1UNL    O10   27  -0.327   0.071   0.355
    1UNL    O11   28  -0.287  -0.068   0.176
    1UNL    C18   29  -0.163  -0.008   0.202
    1UNL    C19   30  -0.049  -0.077   0.134
    1UNL    C20   31   0.090  -0.030   0.182
    1UNL    C21   32  -0.049  -0.069  -0.024
    1UNL    C22   33  -0.184  -0.086  -0.091
    1UNL    C23   34  -0.158  -0.156  -0.224
    1UNL    O12   35  -0.265  -0.260  -0.258
    1UNL    C24   36  -0.028  -0.234  -0.214
    1UNL    C25   37   0.045  -0.232  -0.348
    1UNL    C26   38   0.051  -0.172  -0.090
    1UNL    C27   39   0.119  -0.286  -0.008
    1UNL    O13   40   0.241  -0.243   0.046
    1UNL    C28   41   0.342  -0.236  -0.041
    1UNL    O14   42   0.344  -0.269  -0.158
    1UNL    C29   43   0.471  -0.187   0.019
    1UNL    C30   44   0.480  -0.046   0.071
    1UNL    C31   45   0.461   0.068  -0.035
    1UNL    C32   46   0.329   0.098  -0.085
    1UNL    O15   47   0.227   0.050  -0.028
    1UNL    O16   48   0.337   0.167  -0.200
    1UNL    C33   49   0.216   0.191  -0.254
    1UNL    C34   50   0.575   0.119  -0.087
    1UNL    O17   51   0.707   0.094  -0.048
    1UNL    C35   52   0.732   0.014   0.071
    1UNL    O18   53   0.829   0.082   0.153
    1UNL    C36   54   0.960   0.063   0.102
    1UNL    O19   55   0.970  -0.019  -0.012
    1UNL    C37   56   1.086   0.003  -0.101
    1UNL    C38   57   1.031   0.078  -0.225
    1UNL    O20   58   0.906   0.041  -0.261
    1UNL    C39   59   1.213   0.070  -0.031
    1UNL    O21   60   1.257  -0.027   0.063
    1UNL    C40   61   1.170   0.207   0.025
    1UNL    O22   62   1.251   0.246   0.137
    1UNL    C41   63   1.019   0.206   0.076
    1UNL    O23   64   0.934   0.260  -0.021
    1UNL    C42   65   0.613  -0.026   0.145
    1UNL    C43   66   0.631  -0.048   0.269
    1UNL    C44   67   0.525  -0.095   0.369
    1UNL     H1   68  -0.660   0.439   0.118
    1UNL     H2   69  -0.482   0.469   0.143
    1UNL     H3   70  -0.550   0.357   0.004
    1UNL     H4   71  -0.473   0.299   0.291
    1UNL     H5   72  -0.697   0.213   0.008
    1UNL     H6   73  -0.809  -0.051  -0.057
    1UNL     H7   74  -0.907   0.003  -0.256
    1UNL     H8   75  -0.798   0.233  -0.431
    1UNL     H9   76  -0.900   0.266  -0.299
    1UNL    H10   77  -1.031   0.244  -0.482
    1UNL    H11   78  -0.652   0.008  -0.428
    1UNL    H12   79  -0.903  -0.119  -0.470
    1UNL    H13   80  -0.663  -0.247  -0.362
    1UNL    H14   81  -0.831  -0.308  -0.255
    1UNL    H15   82  -0.649  -0.218  -0.100
    1UNL    H16   83  -0.477  -0.053  -0.108
    1UNL    H17   84  -0.949   0.001   0.264
    1UNL    H18   85  -0.859  -0.185   0.652
    1UNL    H19   86  -0.838  -0.297   0.521
    1UNL    H20   87  -1.007  -0.265   0.577
    1UNL    H21   88  -0.585   0.110   0.397
    1UNL    H22   89  -0.526  -0.146   0.313
    1UNL    H23   90  -0.535  -0.062   0.163
    1UNL    H24   91  -0.161   0.101   0.181
    1UNL    H25   92  -0.151  -0.025   0.304
    1UNL    H26   93  -0.055  -0.191   0.143
    1UNL    H27   94   0.118   0.072   0.143
    1UNL    H28   95   0.093  -0.013   0.287
    1UNL    H29   96   0.176  -0.098   0.158
    1UNL    H30   97  -0.007   0.032  -0.050
    1UNL    H31   98  -0.247   0.004  -0.100
    1UNL    H32   99  -0.237  -0.151  -0.036
    1UNL    H33  100  -0.147  -0.084  -0.306
    1UNL    H34  101  -0.357  -0.219  -0.242
    1UNL    H35  102  -0.062  -0.330  -0.179
    1UNL    H36  103  -0.021  -0.259  -0.434
    1UNL    H37  104   0.132  -0.296  -0.335
    1UNL    H38  105   0.090  -0.132  -0.361
    1UNL    H39  106   0.136  -0.114  -0.134
    1UNL    H40  107   0.053  -0.334   0.074
    1UNL    H41  108   0.131  -0.375  -0.067
    1UNL    H42  109   0.552  -0.201  -0.050
    1UNL    H43  110   0.488  -0.253   0.110
    1UNL    H44  111   0.394  -0.034   0.139
    1UNL    H45  112   0.222   0.227  -0.350
    1UNL    H46  113   0.161   0.261  -0.191
    1UNL    H47  114   0.149   0.106  -0.235
    1UNL    H48  115   0.571   0.173  -0.187
    1UNL    H49  116   0.779  -0.077   0.042
    1UNL    H50  117   1.016   0.037   0.192
    1UNL    H51  118   1.115  -0.092  -0.128
    1UNL    H52  119   1.084   0.065  -0.316
    1UNL    H53  120   1.030   0.192  -0.202
    1UNL    H54  121   0.840   0.078  -0.194
    1UNL    H55  122   1.297   0.090  -0.102
    1UNL    H56  123   1.185  -0.042   0.131
    1UNL    H57  124   1.181   0.283  -0.052
    1UNL    H58  125   1.292   0.164   0.171
    1UNL    H59  126   1.020   0.258   0.169
    1UNL    H60  127   0.845   0.221  -0.007
    1UNL    H61  128   0.717  -0.023   0.317
    1UNL    H62  129   0.421  -0.081   0.345
    1UNL    H63  130   0.536  -0.203   0.379
    1UNL    H64  131   0.547  -0.056   0.465
   0.00000   0.00000   0.00000   0.00000   0.00000   0.00000   0.00000   0.00000   0.00000
Generated with MDTraj, t= 64.0
 131
    1UNL     C1    1  -0.552   0.380   0.104
    1UNL     C2    2  -0.548   0.278   0.215
    1UNL     C3    3  -0.622   0.169   0.204
    1UNL     C4    4  -0.710   0.126   0.089
    1UNL     O1    5  -0.645   0.024   0.017
    1UNL     C5    6  -0.719  -0.013  -0.100
    1UNL     O2    7  -0.749   0.095  -0.185
    1UNL     C6    8  -0.837   0.055  -0.296
    1UNL     C7    9  -0.896   0.168  -0.382
    1UNL     O3   10  -1.003   0.130  -0.468
    1UNL     C8   11  -0.764  -0.035  -0.397
    1UNL     O4   12  -0.833  -0.065  -0.516
    1UNL     C9   13  -0.724  -0.160  -0.309
    1UNL     O5   14  -0.833  -0.244  -0.269
    1UNL    C10   15  -0.637  -0.111  -0.185
    1UNL     O6   16  -0.515  -0.062  -0.237
    1UNL     O7   17  -0.839   0.096   0.123
    1UNL    C11   18  -0.846   0.015   0.235
    1UNL    C12   19  -0.748  -0.008   0.324
    1UNL    C13   20  -0.761  -0.091   0.445
    1UNL     O8   21  -0.659  -0.123   0.508
    1UNL     O9   22  -0.890  -0.132   0.476
    1UNL    C14   23  -0.894  -0.194   0.594
    1UNL    C15   24  -0.613   0.061   0.310
    1UNL    C16   25  -0.503  -0.037   0.275
    1UNL    C17   26  -0.365   0.025   0.272
    1UNL    O10   27  -0.331   0.125   0.333
    1UNL    O11   28  -0.284  -0.051   0.184
    1UNL    C18   29  -0.157   0.000   0.196
    1UNL    C19   30  -0.050  -0.086   0.129
    1UNL    C20   31   0.083  -0.032   0.188
    1UNL    C21   32  -0.046  -0.080  -0.027
    1UNL    C22   33  -0.189  -0.106  -0.075
    1UNL    C23   34  -0.171  -0.171  -0.210
    1UNL    O12   35  -0.284  -0.255  -0.241
    1UNL    C24   36  -0.038  -0.244  -0.220
    1UNL    C25   37   0.015  -0.238  -0.359
    1UNL    C26   38   0.048  -0.182  -0.103
    1UNL    C27   39   0.119  -0.286  -0.012
    1UNL    O13   40   0.237  -0.242   0.053
    1UNL    C28   41   0.346  -0.220  -0.032
    1UNL    O14   42   0.327  -0.219  -0.154
    1UNL    C29   43   0.477  -0.186   0.035
    1UNL    C30   44   0.487  -0.045   0.081
    1UNL    C31   45   0.483   0.051  -0.039
    1UNL    C32   46   0.360   0.088  -0.105
    1UNL    O15   47   0.254   0.056  -0.046
    1UNL    O16   48   0.363   0.177  -0.215
    1UNL    C33   49   0.235   0.207  -0.265
    1UNL    C34   50   0.599   0.114  -0.080
    1UNL    O17   51   0.728   0.104  -0.030
    1UNL    C35   52   0.741   0.018   0.083
    1UNL    O18   53   0.851   0.039   0.169
    1UNL    C36   54   0.975   0.055   0.102
    1UNL    O19   55   0.971  -0.017  -0.026
    1UNL    C37   56   1.074   0.011  -0.124
    1UNL    C38   57   1.025   0.100  -0.233
    1UNL    O20   58   0.897   0.053  -0.267
    1UNL    C39   59   1.200   0.066  -0.048
    1UNL    O21   60   1.250  -0.038   0.043
    1UNL    C40   61   1.172   0.198   0.032
    1UNL    O22   62   1.257   0.206   0.146
    1UNL    C41   63   1.028   0.197   0.099
    1UNL    O23   64   0.935   0.276   0.021
    1UNL    C42   65   0.614  -0.021   0.164
    1UNL    C43   66   0.615  -0.044   0.293
    1UNL    C44   67   0.487  -0.065   0.384
    1UNL     H1   68  -0.653   0.415   0.079
    1UNL     H2   69  -0.495   0.467   0.146
    1UNL     H3   70  -0.504   0.342   0.008
    1UNL     H4   71  -0.474   0.274   0.295
    1UNL     H5   72  -0.709   0.212   0.026
    1UNL     H6   73  -0.808  -0.062  -0.061
    1UNL     H7   74  -0.924  -0.007  -0.246
    1UNL     H8   75  -0.810   0.203  -0.444
    1UNL     H9   76  -0.915   0.251  -0.317
    1UNL    H10   77  -1.034   0.205  -0.516
    1UNL    H11   78  -0.677   0.019  -0.431
    1UNL    H12   79  -0.928  -0.037  -0.516
    1UNL    H13   80  -0.676  -0.224  -0.389
    1UNL    H14   81  -0.799  -0.318  -0.207
    1UNL    H15   82  -0.605  -0.191  -0.116
    1UNL    H16   83  -0.540   0.026  -0.274
    1UNL    H17   84  -0.937  -0.037   0.265
    1UNL    H18   85  -0.794  -0.236   0.619
    1UNL    H19   86  -0.962  -0.282   0.582
    1UNL    H20   87  -0.939  -0.126   0.674
    1UNL    H21   88  -0.587   0.099   0.409
    1UNL    H22   89  -0.504  -0.134   0.336
    1UNL    H23   90  -0.529  -0.074   0.180
    1UNL    H24   91  -0.177   0.101   0.147
    1UNL    H25   92  -0.137   0.011   0.300
    1UNL    H26   93  -0.065  -0.194   0.165
    1UNL    H27   94   0.075   0.075   0.203
    1UNL    H28   95   0.090  -0.074   0.288
    1UNL    H29   96   0.172  -0.063   0.125
    1UNL    H30   97  -0.022   0.029  -0.046
    1UNL    H31   98  -0.246  -0.013  -0.074
    1UNL    H32   99  -0.232  -0.170  -0.005
    1UNL    H33  100  -0.172  -0.085  -0.283
    1UNL    H34  101  -0.363  -0.197  -0.239
    1UNL    H35  102  -0.069  -0.341  -0.186
    1UNL    H36  103  -0.064  -0.283  -0.429
    1UNL    H37  104   0.109  -0.290  -0.354
    1UNL    H38  105   0.038  -0.135  -0.380
    1UNL    H39  106   0.124  -0.122  -0.154
    1UNL    H40  107   0.043  -0.334   0.062
    1UNL    H41  108   0.143  -0.377  -0.069
    1UNL    H42  109   0.553  -0.203  -0.041
    1UNL    H43  110   0.488  -0.254   0.125
    1UNL    H44  111   0.404  -0.021   0.149
    1UNL    H45  112   0.235   0.306  -0.302
    1UNL    H46  113   0.155   0.201  -0.187
    1UNL    H47  114   0.201   0.135  -0.342
    1UNL    H48  115   0.576   0.195  -0.148
    1UNL    H49  116   0.780  -0.070   0.040
    1UNL    H50  117   1.033  -0.013   0.163
    1UNL    H51  118   1.104  -0.075  -0.172
    1UNL    H52  119   1.093   0.089  -0.315
    1UNL    H53  120   1.028   0.212  -0.203
    1UNL    H54  121   0.843   0.052  -0.181
    1UNL    H55  122   1.279   0.087  -0.126
    1UNL    H56  123   1.296  -0.104  -0.014
    1UNL    H57  124   1.176   0.290  -0.025
    1UNL    H58  125   1.258   0.116   0.184
    1UNL    H59  126   1.041   0.241   0.193
    1UNL    H60  127   0.849   0.230   0.028
    1UNL    H61  128   0.704  -0.007   0.351
    1UNL    H62  129   0.434   0.019   0.425
    1UNL    H63  130   0.416  -0.137   0.342
    1UNL    H64  131   0.519  -0.112   0.471
   0.00000   0.00000   0.00000   0.00000   0.00000   0.00000   0.00000   0.00000   0.00000
Generated with MDTraj, t= 65.0
 131
    1UNL     C1    1  -0.571   0.361   0.076
    1UNL     C2    2  -0.557   0.274   0.198
    1UNL     C3    3  -0.626   0.160   0.203
    1UNL     C4    4  -0.715   0.115   0.075
    1UNL     O1    5  -0.639   0.023  -0.003
    1UNL     C5    6  -0.722  -0.017  -0.109
    1UNL     O2    7  -0.775   0.089  -0.186
    1UNL     C6    8  -0.858   0.042  -0.291
    1UNL     C7    9  -0.919   0.163  -0.365
    1UNL     O3   10  -1.005   0.131  -0.475
    1UNL     C8   11  -0.780  -0.050  -0.393
    1UNL     O4   12  -0.861  -0.093  -0.500
    1UNL     C9   13  -0.714  -0.161  -0.314
    1UNL     O5   14  -0.818  -0.248  -0.273
    1UNL    C10   15  -0.628  -0.107  -0.195
    1UNL     O6   16  -0.518  -0.025  -0.239
    1UNL     O7   17  -0.841   0.058   0.118
    1UNL    C11   18  -0.835  -0.004   0.237
    1UNL    C12   19  -0.732  -0.022   0.319
    1UNL    C13   20  -0.748  -0.092   0.443
    1UNL     O8   21  -0.651  -0.121   0.512
    1UNL     O9   22  -0.880  -0.127   0.475
    1UNL    C14   23  -0.891  -0.197   0.597
    1UNL    C15   24  -0.600   0.056   0.303
    1UNL    C16   25  -0.486  -0.038   0.265
    1UNL    C17   26  -0.354   0.031   0.262
    1UNL    O10   27  -0.344   0.144   0.298
    1UNL    O11   28  -0.257  -0.047   0.213
    1UNL    C18   29  -0.129   0.017   0.203
    1UNL    C19   30  -0.019  -0.070   0.142
    1UNL    C20   31   0.115  -0.012   0.177
    1UNL    C21   32  -0.033  -0.080  -0.010
    1UNL    C22   33  -0.183  -0.113  -0.052
    1UNL    C23   34  -0.177  -0.153  -0.195
    1UNL    O12   35  -0.301  -0.212  -0.232
    1UNL    C24   36  -0.038  -0.238  -0.208
    1UNL    C25   37   0.033  -0.253  -0.341
    1UNL    C26   38   0.051  -0.182  -0.094
    1UNL    C27   39   0.109  -0.294  -0.016
    1UNL    O13   40   0.222  -0.255   0.054
    1UNL    C28   41   0.322  -0.224  -0.031
    1UNL    O14   42   0.306  -0.210  -0.153
    1UNL    C29   43   0.464  -0.194   0.032
    1UNL    C30   44   0.478  -0.044   0.071
    1UNL    C31   45   0.482   0.057  -0.041
    1UNL    C32   46   0.366   0.111  -0.107
    1UNL    O15   47   0.251   0.088  -0.061
    1UNL    O16   48   0.384   0.193  -0.221
    1UNL    C33   49   0.262   0.221  -0.282
    1UNL    C34   50   0.602   0.118  -0.072
    1UNL    O17   51   0.726   0.097  -0.019
    1UNL    C35   52   0.732  -0.000   0.094
    1UNL    O18   53   0.847  -0.003   0.173
    1UNL    C36   54   0.967   0.022   0.099
    1UNL    O19   55   0.965  -0.026  -0.039
    1UNL    C37   56   1.074   0.021  -0.136
    1UNL    C38   57   1.027   0.130  -0.227
    1UNL    O20   58   0.891   0.096  -0.271
    1UNL    C39   59   1.194   0.061  -0.050
    1UNL    O21   60   1.248  -0.047   0.023
    1UNL    C40   61   1.168   0.176   0.048
    1UNL    O22   62   1.271   0.186   0.144
    1UNL    C41   63   1.025   0.162   0.116
    1UNL    O23   64   0.936   0.256   0.053
    1UNL    C42   65   0.599  -0.020   0.171
    1UNL    C43   66   0.605  -0.016   0.303
    1UNL    C44   67   0.479  -0.031   0.388
    1UNL     H1   68  -0.671   0.401   0.056
    1UNL     H2   69  -0.506   0.453   0.080
    1UNL     H3   70  -0.529   0.312  -0.018
    1UNL     H4   71  -0.479   0.298   0.266
    1UNL     H5   72  -0.728   0.199   0.010
    1UNL     H6   73  -0.802  -0.073  -0.065
    1UNL     H7   74  -0.950  -0.014  -0.243
    1UNL     H8   75  -0.837   0.235  -0.392
    1UNL     H9   76  -0.985   0.218  -0.296
    1UNL    H10   77  -1.028   0.210  -0.529
    1UNL    H11   78  -0.701   0.012  -0.434
    1UNL    H12   79  -0.914  -0.017  -0.527
    1UNL    H13   80  -0.644  -0.220  -0.373
    1UNL    H14   81  -0.912  -0.227  -0.291
    1UNL    H15   82  -0.573  -0.186  -0.140
    1UNL    H16   83  -0.503   0.037  -0.165
    1UNL    H17   84  -0.933  -0.040   0.271
    1UNL    H18   85  -0.890  -0.306   0.578
    1UNL    H19   86  -0.986  -0.173   0.646
    1UNL    H20   87  -0.808  -0.162   0.666
    1UNL    H21   88  -0.580   0.109   0.397
    1UNL    H22   89  -0.491  -0.127   0.335
    1UNL    H23   90  -0.500  -0.086   0.171
    1UNL    H24   91  -0.136   0.116   0.144
    1UNL    H25   92  -0.122   0.034   0.311
    1UNL    H26   93  -0.035  -0.171   0.190
    1UNL    H27   94   0.143   0.068   0.115
    1UNL    H28   95   0.110   0.033   0.282
    1UNL    H29   96   0.187  -0.089   0.175
    1UNL    H30   97  -0.023   0.032  -0.034
    1UNL    H31   98  -0.243  -0.029  -0.034
    1UNL    H32   99  -0.220  -0.201   0.005
    1UNL    H33  100  -0.152  -0.067  -0.268
    1UNL    H34  101  -0.373  -0.144  -0.228
    1UNL    H35  102  -0.055  -0.336  -0.166
    1UNL    H36  103  -0.031  -0.322  -0.403
    1UNL    H37  104   0.139  -0.273  -0.344
    1UNL    H38  105   0.025  -0.158  -0.388
    1UNL    H39  106   0.130  -0.126  -0.142
    1UNL    H40  107   0.029  -0.342   0.054
    1UNL    H41  108   0.133  -0.374  -0.088
    1UNL    H42  109   0.538  -0.226  -0.041
    1UNL    H43  110   0.470  -0.254   0.127
    1UNL    H44  111   0.384  -0.024   0.124
    1UNL    H45  112   0.280   0.305  -0.346
    1UNL    H46  113   0.182   0.252  -0.208
    1UNL    H47  114   0.235   0.132  -0.349
    1UNL    H48  115   0.585   0.177  -0.156
    1UNL    H49  116   0.752  -0.089   0.039
    1UNL    H50  117   1.029  -0.055   0.146
    1UNL    H51  118   1.092  -0.067  -0.187
    1UNL    H52  119   1.097   0.142  -0.307
    1UNL    H53  120   1.024   0.231  -0.169
    1UNL    H54  121   0.842   0.089  -0.187
    1UNL    H55  122   1.283   0.096  -0.109
    1UNL    H56  123   1.267  -0.119  -0.038
    1UNL    H57  124   1.170   0.272  -0.005
    1UNL    H58  125   1.288   0.095   0.176
    1UNL    H59  126   1.044   0.181   0.218
    1UNL    H60  127   0.851   0.220   0.027
    1UNL    H61  128   0.691   0.018   0.352
    1UNL    H62  129   0.396   0.035   0.366
    1UNL    H63  130   0.456  -0.136   0.392
    1UNL    H64  131   0.513  -0.001   0.483
   0.00000   0.00000   0.00000   0.00000   0.00000   0.00000   0.00000   0.00000   0.00000
Generated with MDTraj, t= 66.0
 131
    1UNL     C1    1  -0.593   0.378   0.065
    1UNL     C2    2  -0.566   0.277   0.176
    1UNL     C3    3  -0.630   0.161   0.179
    1UNL     C4    4  -0.716   0.096   0.071
    1UNL     O1    5  -0.632   0.017  -0.020
    1UNL     C5    6  -0.712  -0.027  -0.125
    1UNL     O2    7  -0.771   0.079  -0.196
    1UNL     C6    8  -0.868   0.037  -0.293
    1UNL     C7    9  -0.928   0.166  -0.350
    1UNL     O3   10  -1.016   0.150  -0.459
    1UNL     C8   11  -0.796  -0.061  -0.402
    1UNL     O4   12  -0.902  -0.118  -0.484
    1UNL     C9   13  -0.704  -0.176  -0.334
    1UNL     O5   14  -0.792  -0.281  -0.296
    1UNL    C10   15  -0.623  -0.120  -0.217
    1UNL     O6   16  -0.509  -0.044  -0.254
    1UNL     O7   17  -0.844   0.045   0.128
    1UNL    C11   18  -0.831  -0.014   0.244
    1UNL    C12   19  -0.730  -0.009   0.332
    1UNL    C13   20  -0.736  -0.082   0.454
    1UNL     O8   21  -0.638  -0.104   0.522
    1UNL     O9   22  -0.860  -0.137   0.479
    1UNL    C14   23  -0.866  -0.218   0.598
    1UNL    C15   24  -0.601   0.064   0.295
    1UNL    C16   25  -0.486  -0.034   0.259
    1UNL    C17   26  -0.351   0.033   0.254
    1UNL    O10   27  -0.328   0.149   0.280
    1UNL    O11   28  -0.253  -0.052   0.214
    1UNL    C18   29  -0.124   0.003   0.235
    1UNL    C19   30  -0.010  -0.057   0.154
    1UNL    C20   31   0.127   0.001   0.183
    1UNL    C21   32  -0.034  -0.049  -0.001
    1UNL    C22   33  -0.183  -0.069  -0.052
    1UNL    C23   34  -0.178  -0.125  -0.191
    1UNL    O12   35  -0.291  -0.202  -0.214
    1UNL    C24   36  -0.047  -0.217  -0.199
    1UNL    C25   37   0.038  -0.238  -0.323
    1UNL    C26   38   0.044  -0.154  -0.081
    1UNL    C27   39   0.115  -0.266  -0.001
    1UNL    O13   40   0.227  -0.227   0.065
    1UNL    C28   41   0.330  -0.221  -0.023
    1UNL    O14   42   0.316  -0.253  -0.141
    1UNL    C29   43   0.466  -0.179   0.026
    1UNL    C30   44   0.472  -0.029   0.066
    1UNL    C31   45   0.480   0.066  -0.045
    1UNL    C32   46   0.356   0.110  -0.108
    1UNL    O15   47   0.240   0.082  -0.061
    1UNL    O16   48   0.382   0.192  -0.219
    1UNL    C33   49   0.270   0.239  -0.284
    1UNL    C34   50   0.599   0.114  -0.078
    1UNL    O17   51   0.724   0.089  -0.035
    1UNL    C35   52   0.727  -0.023   0.068
    1UNL    O18   53   0.837  -0.013   0.152
    1UNL    C36   54   0.967  -0.008   0.089
    1UNL    O19   55   0.955  -0.031  -0.052
    1UNL    C37   56   1.064   0.029  -0.127
    1UNL    C38   57   1.018   0.152  -0.205
    1UNL    O20   58   0.889   0.145  -0.262
    1UNL    C39   59   1.188   0.051  -0.039
    1UNL    O21   60   1.228  -0.074   0.015
    1UNL    C40   61   1.167   0.157   0.074
    1UNL    O22   62   1.271   0.141   0.164
    1UNL    C41   63   1.019   0.131   0.127
    1UNL    O23   64   0.935   0.237   0.076
    1UNL    C42   65   0.600  -0.019   0.151
    1UNL    C43   66   0.607  -0.004   0.280
    1UNL    C44   67   0.494   0.005   0.381
    1UNL     H1   68  -0.693   0.429   0.064
    1UNL     H2   69  -0.516   0.460   0.062
    1UNL     H3   70  -0.573   0.330  -0.034
    1UNL     H4   71  -0.491   0.298   0.252
    1UNL     H5   72  -0.746   0.178   0.006
    1UNL     H6   73  -0.782  -0.094  -0.079
    1UNL     H7   74  -0.955  -0.015  -0.232
    1UNL     H8   75  -0.848   0.238  -0.387
    1UNL     H9   76  -0.993   0.216  -0.274
    1UNL    H10   77  -1.040   0.241  -0.498
    1UNL    H11   78  -0.736   0.001  -0.469
    1UNL    H12   79  -0.961  -0.041  -0.505
    1UNL    H13   80  -0.644  -0.213  -0.415
    1UNL    H14   81  -0.881  -0.247  -0.292
    1UNL    H15   82  -0.581  -0.205  -0.162
    1UNL    H16   83  -0.547   0.038  -0.289
    1UNL    H17   84  -0.919  -0.070   0.273
    1UNL    H18   85  -0.874  -0.322   0.572
    1UNL    H19   86  -0.951  -0.191   0.654
    1UNL    H20   87  -0.776  -0.195   0.658
    1UNL    H21   88  -0.580   0.115   0.388
    1UNL    H22   89  -0.480  -0.118   0.334
    1UNL    H23   90  -0.512  -0.095   0.172
    1UNL    H24   91  -0.146   0.113   0.210
    1UNL    H25   92  -0.102  -0.012   0.344
    1UNL    H26   93  -0.004  -0.165   0.185
    1UNL    H27   94   0.137   0.107   0.186
    1UNL    H28   95   0.159  -0.029   0.286
    1UNL    H29   96   0.201  -0.037   0.119
    1UNL    H30   97   0.013   0.052  -0.031
    1UNL    H31   98  -0.225   0.025  -0.055
    1UNL    H32   99  -0.241  -0.137   0.019
    1UNL    H33  100  -0.178  -0.046  -0.277
    1UNL    H34  101  -0.372  -0.147  -0.228
    1UNL    H35  102  -0.081  -0.309  -0.153
    1UNL    H36  103  -0.029  -0.229  -0.411
    1UNL    H37  104   0.099  -0.327  -0.327
    1UNL    H38  105   0.107  -0.158  -0.335
    1UNL    H39  106   0.123  -0.105  -0.136
    1UNL    H40  107   0.035  -0.313   0.070
    1UNL    H41  108   0.142  -0.345  -0.072
    1UNL    H42  109   0.532  -0.191  -0.061
    1UNL    H43  110   0.491  -0.244   0.114
    1UNL    H44  111   0.382  -0.004   0.121
    1UNL    H45  112   0.292   0.237  -0.390
    1UNL    H46  113   0.259   0.350  -0.265
    1UNL    H47  114   0.185   0.161  -0.277
    1UNL    H48  115   0.596   0.191  -0.155
    1UNL    H49  116   0.722  -0.116   0.015
    1UNL    H50  117   1.032  -0.086   0.129
    1UNL    H51  118   1.068  -0.043  -0.204
    1UNL    H52  119   1.078   0.162  -0.295
    1UNL    H53  120   1.026   0.250  -0.143
    1UNL    H54  121   0.821   0.120  -0.200
    1UNL    H55  122   1.268   0.090  -0.103
    1UNL    H56  123   1.178  -0.141  -0.035
    1UNL    H57  124   1.163   0.259   0.030
    1UNL    H58  125   1.287   0.044   0.171
    1UNL    H59  126   1.021   0.131   0.235
    1UNL    H60  127   0.854   0.188   0.047
    1UNL    H61  128   0.709   0.000   0.324
    1UNL    H62  129   0.398   0.039   0.352
    1UNL    H63  130   0.491  -0.088   0.435
    1UNL    H64  131   0.532   0.075   0.453
   0.00000   0.00000   0.00000   0.00000   0.00000   0.00000   0.00000   0.00000   0.00000
Generated with MDTraj, t= 67.0
 131
    1UNL     C1    1  -0.606   0.374   0.056
    1UNL     C2    2  -0.582   0.275   0.162
    1UNL     C3    3  -0.624   0.150   0.166
    1UNL     C4    4  -0.706   0.088   0.059
    1UNL     O1    5  -0.639  -0.014  -0.011
    1UNL     C5    6  -0.715  -0.043  -0.127
    1UNL     O2    7  -0.763   0.071  -0.196
    1UNL     C6    8  -0.862   0.040  -0.294
    1UNL     C7    9  -0.925   0.155  -0.362
    1UNL     O3   10  -1.042   0.116  -0.433
    1UNL     C8   11  -0.800  -0.055  -0.402
    1UNL     O4   12  -0.906  -0.117  -0.474
    1UNL     C9   13  -0.720  -0.174  -0.337
    1UNL     O5   14  -0.810  -0.280  -0.300
    1UNL    C10   15  -0.632  -0.124  -0.228
    1UNL     O6   16  -0.529  -0.039  -0.281
    1UNL     O7   17  -0.833   0.055   0.111
    1UNL    C11   18  -0.830  -0.021   0.224
    1UNL    C12   19  -0.729  -0.022   0.315
    1UNL    C13   20  -0.729  -0.083   0.449
    1UNL     O8   21  -0.631  -0.070   0.520
    1UNL     O9   22  -0.838  -0.161   0.483
    1UNL    C14   23  -0.812  -0.219   0.605
    1UNL    C15   24  -0.605   0.064   0.285
    1UNL    C16   25  -0.492  -0.042   0.269
    1UNL    C17   26  -0.361   0.029   0.261
    1UNL    O10   27  -0.353   0.149   0.283
    1UNL    O11   28  -0.246  -0.039   0.229
    1UNL    C18   29  -0.139   0.050   0.219
    1UNL    C19   30  -0.020  -0.031   0.157
    1UNL    C20   31   0.114   0.023   0.222
    1UNL    C21   32  -0.030  -0.031   0.005
    1UNL    C22   33  -0.177  -0.041  -0.045
    1UNL    C23   34  -0.176  -0.111  -0.183
    1UNL    O12   35  -0.290  -0.192  -0.212
    1UNL    C24   36  -0.044  -0.197  -0.194
    1UNL    C25   37   0.017  -0.189  -0.332
    1UNL    C26   38   0.051  -0.145  -0.069
    1UNL    C27   39   0.120  -0.262   0.021
    1UNL    O13   40   0.246  -0.229   0.076
    1UNL    C28   41   0.343  -0.225  -0.023
    1UNL    O14   42   0.329  -0.256  -0.139
    1UNL    C29   43   0.480  -0.188   0.015
    1UNL    C30   44   0.480  -0.040   0.064
    1UNL    C31   45   0.484   0.059  -0.051
    1UNL    C32   46   0.355   0.094  -0.109
    1UNL    O15   47   0.252   0.057  -0.047
    1UNL    O16   48   0.368   0.175  -0.218
    1UNL    C33   49   0.247   0.234  -0.252
    1UNL    C34   50   0.604   0.116  -0.085
    1UNL    O17   51   0.721   0.097  -0.029
    1UNL    C35   52   0.724  -0.021   0.061
    1UNL    O18   53   0.836  -0.032   0.145
    1UNL    C36   54   0.963  -0.012   0.078
    1UNL    O19   55   0.955  -0.015  -0.068
    1UNL    C37   56   1.071   0.033  -0.137
    1UNL    C38   57   1.034   0.171  -0.204
    1UNL    O20   58   0.907   0.176  -0.249
    1UNL    C39   59   1.197   0.040  -0.045
    1UNL    O21   60   1.222  -0.092  -0.000
    1UNL    C40   61   1.180   0.121   0.085
    1UNL    O22   62   1.262   0.078   0.196
    1UNL    C41   63   1.022   0.123   0.125
    1UNL    O23   64   0.955   0.242   0.080
    1UNL    C42   65   0.597  -0.021   0.146
    1UNL    C43   66   0.601   0.014   0.270
    1UNL    C44   67   0.472   0.031   0.356
    1UNL     H1   68  -0.710   0.385   0.014
    1UNL     H2   69  -0.573   0.471   0.101
    1UNL     H3   70  -0.532   0.349  -0.023
    1UNL     H4   71  -0.534   0.320   0.246
    1UNL     H5   72  -0.740   0.161  -0.016
    1UNL     H6   73  -0.800  -0.099  -0.085
    1UNL     H7   74  -0.941  -0.024  -0.233
    1UNL     H8   75  -0.855   0.194  -0.443
    1UNL     H9   76  -0.956   0.239  -0.292
    1UNL    H10   77  -1.089   0.199  -0.464
    1UNL    H11   78  -0.726  -0.006  -0.469
    1UNL    H12   79  -0.976  -0.049  -0.496
    1UNL    H13   80  -0.658  -0.218  -0.413
    1UNL    H14   81  -0.905  -0.259  -0.334
    1UNL    H15   82  -0.577  -0.208  -0.184
    1UNL    H16   83  -0.575   0.038  -0.325
    1UNL    H17   84  -0.921  -0.075   0.241
    1UNL    H18   85  -0.714  -0.261   0.604
    1UNL    H19   86  -0.884  -0.293   0.615
    1UNL    H20   87  -0.825  -0.140   0.678
    1UNL    H21   88  -0.584   0.122   0.375
    1UNL    H22   89  -0.500  -0.114   0.354
    1UNL    H23   90  -0.513  -0.118   0.188
    1UNL    H24   91  -0.169   0.141   0.155
    1UNL    H25   92  -0.129   0.073   0.329
    1UNL    H26   93  -0.028  -0.139   0.185
    1UNL    H27   94   0.134   0.129   0.211
    1UNL    H28   95   0.117   0.006   0.325
    1UNL    H29   96   0.199  -0.036   0.177
    1UNL    H30   97   0.022   0.063  -0.035
    1UNL    H31   98  -0.231   0.048  -0.043
    1UNL    H32   99  -0.224  -0.109   0.033
    1UNL    H33  100  -0.195  -0.035  -0.269
    1UNL    H34  101  -0.372  -0.142  -0.234
    1UNL    H35  102  -0.070  -0.298  -0.164
    1UNL    H36  103  -0.040  -0.258  -0.393
    1UNL    H37  104   0.118  -0.227  -0.320
    1UNL    H38  105   0.020  -0.088  -0.374
    1UNL    H39  106   0.138  -0.103  -0.117
    1UNL    H40  107   0.046  -0.293   0.104
    1UNL    H41  108   0.135  -0.342  -0.050
    1UNL    H42  109   0.539  -0.189  -0.080
    1UNL    H43  110   0.516  -0.253   0.098
    1UNL    H44  111   0.390  -0.008   0.118
    1UNL    H45  112   0.258   0.277  -0.351
    1UNL    H46  113   0.239   0.320  -0.182
    1UNL    H47  114   0.172   0.151  -0.255
    1UNL    H48  115   0.608   0.203  -0.157
    1UNL    H49  116   0.714  -0.109  -0.004
    1UNL    H50  117   1.030  -0.099   0.098
    1UNL    H51  118   1.092  -0.038  -0.215
    1UNL    H52  119   1.103   0.211  -0.275
    1UNL    H53  120   1.031   0.250  -0.119
    1UNL    H54  121   0.848   0.133  -0.184
    1UNL    H55  122   1.295   0.065  -0.084
    1UNL    H56  123   1.226  -0.159  -0.073
    1UNL    H57  124   1.203   0.229   0.068
    1UNL    H58  125   1.281  -0.019   0.189
    1UNL    H59  126   1.012   0.115   0.234
    1UNL    H60  127   0.867   0.219   0.042
    1UNL    H61  128   0.701   0.028   0.308
    1UNL    H62  129   0.429   0.127   0.373
    1UNL    H63  130   0.393  -0.035   0.335
    1UNL    H64  131   0.496   0.000   0.457
   0.00000   0.00000   0.00000   0.00000   0.00000   0.00000   0.00000   0.00000   0.00000
Generated with MDTraj, t= 68.0
 131
    1UNL     C1    1  -0.607   0.369   0.027
    1UNL     C2    2  -0.598   0.282   0.150
    1UNL     C3    3  -0.644   0.160   0.164
    1UNL     C4    4  -0.732   0.097   0.054
    1UNL     O1    5  -0.646   0.008  -0.015
    1UNL     C5    6  -0.723  -0.043  -0.122
    1UNL     O2    7  -0.788   0.060  -0.188
    1UNL     C6    8  -0.877   0.020  -0.292
    1UNL     C7    9  -0.952   0.139  -0.348
    1UNL     O3   10  -1.063   0.110  -0.437
    1UNL     C8   11  -0.806  -0.065  -0.397
    1UNL     O4   12  -0.889  -0.118  -0.497
    1UNL     C9   13  -0.733  -0.183  -0.331
    1UNL     O5   14  -0.829  -0.273  -0.276
    1UNL    C10   15  -0.642  -0.130  -0.223
    1UNL     O6   16  -0.530  -0.061  -0.291
    1UNL     O7   17  -0.836   0.008   0.092
    1UNL    C11   18  -0.813  -0.048   0.219
    1UNL    C12   19  -0.724  -0.023   0.315
    1UNL    C13   20  -0.731  -0.086   0.447
    1UNL     O8   21  -0.649  -0.061   0.534
    1UNL     O9   22  -0.829  -0.183   0.471
    1UNL    C14   23  -0.826  -0.241   0.602
    1UNL    C15   24  -0.612   0.072   0.283
    1UNL    C16   25  -0.480  -0.005   0.257
    1UNL    C17   26  -0.349   0.068   0.258
    1UNL    O10   27  -0.341   0.178   0.307
    1UNL    O11   28  -0.242  -0.006   0.214
    1UNL    C18   29  -0.115   0.050   0.254
    1UNL    C19   30  -0.010  -0.022   0.170
    1UNL    C20   31   0.127   0.035   0.213
    1UNL    C21   32  -0.036  -0.023   0.014
    1UNL    C22   33  -0.179  -0.048  -0.044
    1UNL    C23   34  -0.169  -0.106  -0.189
    1UNL    O12   35  -0.271  -0.200  -0.228
    1UNL    C24   36  -0.034  -0.179  -0.189
    1UNL    C25   37   0.042  -0.163  -0.323
    1UNL    C26   38   0.054  -0.130  -0.062
    1UNL    C27   39   0.093  -0.256   0.018
    1UNL    O13   40   0.225  -0.245   0.070
    1UNL    C28   41   0.319  -0.237  -0.028
    1UNL    O14   42   0.304  -0.250  -0.145
    1UNL    C29   43   0.462  -0.195   0.006
    1UNL    C30   44   0.470  -0.045   0.060
    1UNL    C31   45   0.477   0.057  -0.052
    1UNL    C32   46   0.354   0.112  -0.104
    1UNL    O15   47   0.252   0.074  -0.044
    1UNL    O16   48   0.350   0.197  -0.213
    1UNL    C33   49   0.219   0.223  -0.266
    1UNL    C34   50   0.600   0.117  -0.080
    1UNL    O17   51   0.717   0.096  -0.025
    1UNL    C35   52   0.722  -0.022   0.057
    1UNL    O18   53   0.837  -0.014   0.148
    1UNL    C36   54   0.966  -0.008   0.087
    1UNL    O19   55   0.966  -0.012  -0.058
    1UNL    C37   56   1.082   0.036  -0.132
    1UNL    C38   57   1.063   0.183  -0.184
    1UNL    O20   58   0.935   0.188  -0.235
    1UNL    C39   59   1.211   0.024  -0.048
    1UNL    O21   60   1.247  -0.115  -0.018
    1UNL    C40   61   1.199   0.107   0.085
    1UNL    O22   62   1.281   0.047   0.185
    1UNL    C41   63   1.045   0.119   0.133
    1UNL    O23   64   0.992   0.239   0.084
    1UNL    C42   65   0.596  -0.030   0.140
    1UNL    C43   66   0.608   0.012   0.265
    1UNL    C44   67   0.483   0.025   0.364
    1UNL     H1   68  -0.695   0.438   0.009
    1UNL     H2   69  -0.521   0.440   0.024
    1UNL     H3   70  -0.591   0.309  -0.064
    1UNL     H4   71  -0.556   0.327   0.242
    1UNL     H5   72  -0.784   0.171  -0.013
    1UNL     H6   73  -0.807  -0.093  -0.064
    1UNL     H7   74  -0.957  -0.051  -0.242
    1UNL     H8   75  -0.880   0.211  -0.400
    1UNL     H9   76  -0.992   0.191  -0.255
    1UNL    H10   77  -1.127   0.181  -0.437
    1UNL    H11   78  -0.727   0.005  -0.437
    1UNL    H12   79  -0.964  -0.056  -0.495
    1UNL    H13   80  -0.686  -0.245  -0.408
    1UNL    H14   81  -0.913  -0.268  -0.325
    1UNL    H15   82  -0.601  -0.215  -0.169
    1UNL    H16   83  -0.528   0.029  -0.259
    1UNL    H17   84  -0.893  -0.115   0.248
    1UNL    H18   85  -0.733  -0.214   0.653
    1UNL    H19   86  -0.835  -0.344   0.587
    1UNL    H20   87  -0.914  -0.202   0.655
    1UNL    H21   88  -0.587   0.128   0.373
    1UNL    H22   89  -0.474  -0.091   0.325
    1UNL    H23   90  -0.498  -0.067   0.162
    1UNL    H24   91  -0.117   0.157   0.220
    1UNL    H25   92  -0.092   0.031   0.360
    1UNL    H26   93  -0.013  -0.127   0.205
    1UNL    H27   94   0.143   0.141   0.193
    1UNL    H28   95   0.139   0.014   0.313
    1UNL    H29   96   0.197  -0.027   0.153
    1UNL    H30   97  -0.021   0.085  -0.021
    1UNL    H31   98  -0.248   0.035  -0.024
    1UNL    H32   99  -0.223  -0.130   0.015
    1UNL    H33  100  -0.159  -0.032  -0.276
    1UNL    H34  101  -0.360  -0.155  -0.243
    1UNL    H35  102  -0.053  -0.286  -0.171
    1UNL    H36  103  -0.016  -0.214  -0.392
    1UNL    H37  104   0.140  -0.210  -0.314
    1UNL    H38  105   0.062  -0.056  -0.349
    1UNL    H39  106   0.142  -0.083  -0.102
    1UNL    H40  107   0.021  -0.268   0.105
    1UNL    H41  108   0.090  -0.346  -0.041
    1UNL    H42  109   0.523  -0.198  -0.088
    1UNL    H43  110   0.498  -0.254   0.091
    1UNL    H44  111   0.388  -0.013   0.125
    1UNL    H45  112   0.216   0.325  -0.305
    1UNL    H46  113   0.161   0.211  -0.177
    1UNL    H47  114   0.191   0.150  -0.339
    1UNL    H48  115   0.609   0.184  -0.164
    1UNL    H49  116   0.725  -0.113  -0.011
    1UNL    H50  117   1.024  -0.101   0.113
    1UNL    H51  118   1.092  -0.024  -0.223
    1UNL    H52  119   1.131   0.229  -0.252
    1UNL    H53  120   1.062   0.266  -0.104
    1UNL    H54  121   0.879   0.147  -0.165
    1UNL    H55  122   1.287   0.057  -0.117
    1UNL    H56  123   1.234  -0.165  -0.104
    1UNL    H57  124   1.231   0.211   0.061
    1UNL    H58  125   1.290  -0.047   0.157
    1UNL    H59  126   1.054   0.112   0.244
    1UNL    H60  127   0.907   0.216   0.047
    1UNL    H61  128   0.706   0.011   0.310
    1UNL    H62  129   0.387   0.047   0.324
    1UNL    H63  130   0.477  -0.064   0.419
    1UNL    H64  131   0.503   0.103   0.438
   0.00000   0.00000   0.00000   0.00000   0.00000   0.00000   0.00000   0.00000   0.00000
Generated with MDTraj, t= 69.0
 131
    1UNL     C1    1  -0.615   0.359   0.023
    1UNL     C2    2  -0.589   0.268   0.143
    1UNL     C3    3  -0.644   0.153   0.167
    1UNL     C4    4  -0.736   0.091   0.062
    1UNL     O1    5  -0.657   0.017  -0.023
    1UNL     C5    6  -0.733  -0.033  -0.130
    1UNL     O2    7  -0.804   0.066  -0.206
    1UNL     C6    8  -0.883   0.016  -0.311
    1UNL     C7    9  -0.977   0.131  -0.360
    1UNL     O3   10  -1.081   0.081  -0.445
    1UNL     C8   11  -0.804  -0.074  -0.409
    1UNL     O4   12  -0.896  -0.135  -0.495
    1UNL     C9   13  -0.728  -0.189  -0.335
    1UNL     O5   14  -0.826  -0.276  -0.280
    1UNL    C10   15  -0.650  -0.129  -0.215
    1UNL     O6   16  -0.534  -0.062  -0.266
    1UNL     O7   17  -0.845   0.014   0.116
    1UNL    C11   18  -0.834  -0.027   0.244
    1UNL    C12   19  -0.735  -0.006   0.333
    1UNL    C13   20  -0.732  -0.087   0.456
    1UNL     O8   21  -0.650  -0.065   0.543
    1UNL     O9   22  -0.810  -0.202   0.454
    1UNL    C14   23  -0.839  -0.251   0.584
    1UNL    C15   24  -0.613   0.078   0.294
    1UNL    C16   25  -0.482  -0.001   0.302
    1UNL    C17   26  -0.362   0.071   0.264
    1UNL    O10   27  -0.365   0.187   0.300
    1UNL    O11   28  -0.253   0.002   0.215
    1UNL    C18   29  -0.136   0.079   0.221
    1UNL    C19   30  -0.027  -0.017   0.160
    1UNL    C20   31   0.113   0.019   0.217
    1UNL    C21   32  -0.042  -0.027   0.000
    1UNL    C22   33  -0.187  -0.061  -0.047
    1UNL    C23   34  -0.173  -0.118  -0.187
    1UNL    O12   35  -0.278  -0.203  -0.227
    1UNL    C24   36  -0.030  -0.182  -0.192
    1UNL    C25   37   0.056  -0.131  -0.316
    1UNL    C26   38   0.053  -0.132  -0.065
    1UNL    C27   39   0.105  -0.244   0.018
    1UNL    O13   40   0.234  -0.214   0.071
    1UNL    C28   41   0.331  -0.202  -0.028
    1UNL    O14   42   0.313  -0.215  -0.145
    1UNL    C29   43   0.468  -0.177   0.021
    1UNL    C30   44   0.481  -0.030   0.068
    1UNL    C31   45   0.485   0.074  -0.044
    1UNL    C32   46   0.362   0.119  -0.104
    1UNL    O15   47   0.254   0.088  -0.049
    1UNL    O16   48   0.370   0.201  -0.210
    1UNL    C33   49   0.249   0.240  -0.266
    1UNL    C34   50   0.602   0.122  -0.092
    1UNL    O17   51   0.729   0.094  -0.045
    1UNL    C35   52   0.734  -0.010   0.054
    1UNL    O18   53   0.846   0.007   0.148
    1UNL    C36   54   0.968  -0.019   0.079
    1UNL    O19   55   0.973  -0.014  -0.069
    1UNL    C37   56   1.094   0.034  -0.139
    1UNL    C38   57   1.065   0.177  -0.182
    1UNL    O20   58   0.931   0.181  -0.241
    1UNL    C39   59   1.211   0.012  -0.047
    1UNL    O21   60   1.224  -0.129  -0.014
    1UNL    C40   61   1.206   0.098   0.081
    1UNL    O22   62   1.296   0.041   0.171
    1UNL    C41   63   1.062   0.095   0.138
    1UNL    O23   64   0.997   0.217   0.114
    1UNL    C42   65   0.616  -0.023   0.140
    1UNL    C43   66   0.624  -0.012   0.274
    1UNL    C44   67   0.506  -0.031   0.372
    1UNL     H1   68  -0.721   0.381  -0.006
    1UNL     H2   69  -0.568   0.458   0.042
    1UNL     H3   70  -0.563   0.314  -0.062
    1UNL     H4   71  -0.525   0.296   0.223
    1UNL     H5   72  -0.784   0.172  -0.000
    1UNL     H6   73  -0.815  -0.085  -0.070
    1UNL     H7   74  -0.962  -0.066  -0.273
    1UNL     H8   75  -0.916   0.202  -0.422
    1UNL     H9   76  -1.015   0.190  -0.272
    1UNL    H10   77  -1.156   0.141  -0.452
    1UNL    H11   78  -0.731  -0.015  -0.471
    1UNL    H12   79  -0.976  -0.077  -0.506
    1UNL    H13   80  -0.670  -0.241  -0.416
    1UNL    H14   81  -0.856  -0.340  -0.343
    1UNL    H15   82  -0.615  -0.207  -0.147
    1UNL    H16   83  -0.539   0.030  -0.240
    1UNL    H17   84  -0.919  -0.092   0.272
    1UNL    H18   85  -0.740  -0.270   0.635
    1UNL    H19   86  -0.898  -0.341   0.573
    1UNL    H20   87  -0.894  -0.171   0.641
    1UNL    H21   88  -0.604   0.149   0.377
    1UNL    H22   89  -0.468  -0.052   0.397
    1UNL    H23   90  -0.490  -0.093   0.232
    1UNL    H24   91  -0.148   0.163   0.151
    1UNL    H25   92  -0.113   0.097   0.325
    1UNL    H26   93  -0.057  -0.116   0.195
    1UNL    H27   94   0.149   0.101   0.153
    1UNL    H28   95   0.108   0.054   0.318
    1UNL    H29   96   0.186  -0.052   0.207
    1UNL    H30   97  -0.026   0.083  -0.028
    1UNL    H31   98  -0.251   0.034  -0.049
    1UNL    H32   99  -0.242  -0.115   0.028
    1UNL    H33  100  -0.155  -0.033  -0.258
    1UNL    H34  101  -0.359  -0.156  -0.233
    1UNL    H35  102  -0.048  -0.291  -0.189
    1UNL    H36  103  -0.008  -0.133  -0.397
    1UNL    H37  104   0.142  -0.192  -0.342
    1UNL    H38  105   0.102  -0.031  -0.306
    1UNL    H39  106   0.136  -0.078  -0.109
    1UNL    H40  107   0.038  -0.273   0.104
    1UNL    H41  108   0.122  -0.336  -0.033
    1UNL    H42  109   0.532  -0.181  -0.073
    1UNL    H43  110   0.486  -0.251   0.100
    1UNL    H44  111   0.403  -0.011   0.141
    1UNL    H45  112   0.282   0.290  -0.358
    1UNL    H46  113   0.207   0.297  -0.184
    1UNL    H47  114   0.181   0.160  -0.277
    1UNL    H48  115   0.597   0.194  -0.166
    1UNL    H49  116   0.752  -0.110   0.001
    1UNL    H50  117   0.999  -0.122   0.109
    1UNL    H51  118   1.098  -0.042  -0.223
    1UNL    H52  119   1.129   0.206  -0.259
    1UNL    H53  120   1.091   0.255  -0.102
    1UNL    H54  121   0.857   0.155  -0.185
    1UNL    H55  122   1.310   0.039  -0.085
    1UNL    H56  123   1.177  -0.189  -0.077
    1UNL    H57  124   1.226   0.207   0.063
    1UNL    H58  125   1.303  -0.052   0.142
    1UNL    H59  126   1.073   0.081   0.251
    1UNL    H60  127   0.903   0.187   0.088
    1UNL    H61  128   0.721  -0.014   0.320
    1UNL    H62  129   0.489  -0.131   0.406
    1UNL    H63  130   0.533   0.030   0.455
    1UNL    H64  131   0.416   0.014   0.336
   0.00000   0.00000   0.00000   0.00000   0.00000   0.00000   0.00000   0.00000   0.00000
Generated with MDTraj, t= 70.0
 131
    1UNL     C1    1  -0.569   0.356   0.036
    1UNL     C2    2  -0.601   0.284   0.163
    1UNL     C3    3  -0.659   0.165   0.178
    1UNL     C4    4  -0.738   0.088   0.068
    1UNL     O1    5  -0.663   0.011  -0.018
    1UNL     C5    6  -0.744  -0.045  -0.117
    1UNL     O2    7  -0.809   0.061  -0.200
    1UNL     C6    8  -0.887   0.010  -0.306
    1UNL     C7    9  -0.978   0.117  -0.375
    1UNL     O3   10  -1.072   0.056  -0.454
    1UNL     C8   11  -0.810  -0.081  -0.400
    1UNL     O4   12  -0.902  -0.150  -0.479
    1UNL     C9   13  -0.720  -0.192  -0.333
    1UNL     O5   14  -0.808  -0.303  -0.296
    1UNL    C10   15  -0.654  -0.139  -0.201
    1UNL     O6   16  -0.543  -0.063  -0.244
    1UNL     O7   17  -0.861   0.028   0.116
    1UNL    C11   18  -0.856  -0.037   0.233
    1UNL    C12   19  -0.760  -0.016   0.326
    1UNL    C13   20  -0.756  -0.088   0.451
    1UNL     O8   21  -0.656  -0.071   0.519
    1UNL     O9   22  -0.851  -0.184   0.481
    1UNL    C14   23  -0.808  -0.267   0.585
    1UNL    C15   24  -0.641   0.085   0.295
    1UNL    C16   25  -0.515   0.003   0.294
    1UNL    C17   26  -0.375   0.078   0.272
    1UNL    O10   27  -0.358   0.198   0.301
    1UNL    O11   28  -0.273  -0.005   0.222
    1UNL    C18   29  -0.151   0.070   0.218
    1UNL    C19   30  -0.029   0.001   0.152
    1UNL    C20   31   0.108   0.050   0.192
    1UNL    C21   32  -0.043  -0.018  -0.008
    1UNL    C22   33  -0.186  -0.056  -0.050
    1UNL    C23   34  -0.182  -0.105  -0.201
    1UNL    O12   35  -0.289  -0.201  -0.229
    1UNL    C24   36  -0.036  -0.177  -0.208
    1UNL    C25   37   0.043  -0.149  -0.338
    1UNL    C26   38   0.049  -0.122  -0.088
    1UNL    C27   39   0.108  -0.233  -0.004
    1UNL    O13   40   0.225  -0.189   0.065
    1UNL    C28   41   0.324  -0.189  -0.028
    1UNL    O14   42   0.304  -0.202  -0.147
    1UNL    C29   43   0.466  -0.168   0.030
    1UNL    C30   44   0.500  -0.024   0.072
    1UNL    C31   45   0.509   0.076  -0.039
    1UNL    C32   46   0.386   0.129  -0.100
    1UNL    O15   47   0.276   0.120  -0.045
    1UNL    O16   48   0.399   0.203  -0.214
    1UNL    C33   49   0.281   0.280  -0.255
    1UNL    C34   50   0.629   0.143  -0.066
    1UNL    O17   51   0.751   0.118  -0.006
    1UNL    C35   52   0.747  -0.002   0.075
    1UNL    O18   53   0.865  -0.022   0.162
    1UNL    C36   54   0.977  -0.021   0.080
    1UNL    O19   55   0.959  -0.017  -0.061
    1UNL    C37   56   1.079   0.018  -0.144
    1UNL    C38   57   1.074   0.158  -0.202
    1UNL    O20   58   0.934   0.183  -0.237
    1UNL    C39   59   1.208  -0.001  -0.058
    1UNL    O21   60   1.221  -0.136  -0.011
    1UNL    C40   61   1.216   0.093   0.065
    1UNL    O22   62   1.308   0.042   0.160
    1UNL    C41   63   1.070   0.096   0.122
    1UNL    O23   64   0.998   0.208   0.086
    1UNL    C42   65   0.621  -0.021   0.156
    1UNL    C43   66   0.624  -0.046   0.286
    1UNL    C44   67   0.511  -0.076   0.370
    1UNL     H1   68  -0.642   0.336  -0.045
    1UNL     H2   69  -0.558   0.464   0.056
    1UNL     H3   70  -0.470   0.317   0.011
    1UNL     H4   71  -0.552   0.325   0.253
    1UNL     H5   72  -0.774   0.167  -0.007
    1UNL     H6   73  -0.827  -0.111  -0.076
    1UNL     H7   74  -0.965  -0.059  -0.249
    1UNL     H8   75  -0.915   0.177  -0.443
    1UNL     H9   76  -1.024   0.189  -0.305
    1UNL    H10   77  -1.125   0.128  -0.502
    1UNL    H11   78  -0.738  -0.014  -0.453
    1UNL    H12   79  -0.985  -0.099  -0.494
    1UNL    H13   80  -0.640  -0.218  -0.410
    1UNL    H14   81  -0.831  -0.360  -0.373
    1UNL    H15   82  -0.614  -0.223  -0.140
    1UNL    H16   83  -0.544   0.024  -0.195
    1UNL    H17   84  -0.942  -0.101   0.252
    1UNL    H18   85  -0.736  -0.345   0.544
    1UNL    H19   86  -0.898  -0.314   0.626
    1UNL    H20   87  -0.751  -0.203   0.660
    1UNL    H21   88  -0.643   0.153   0.381
    1UNL    H22   89  -0.500  -0.059   0.381
    1UNL    H23   90  -0.528  -0.075   0.210
    1UNL    H24   91  -0.175   0.163   0.168
    1UNL    H25   92  -0.129   0.074   0.323
    1UNL    H26   93  -0.037  -0.104   0.180
    1UNL    H27   94   0.099   0.156   0.192
    1UNL    H28   95   0.137   0.017   0.293
    1UNL    H29   96   0.182   0.038   0.120
    1UNL    H30   97  -0.024   0.088  -0.043
    1UNL    H31   98  -0.258   0.033  -0.034
    1UNL    H32   99  -0.225  -0.123   0.021
    1UNL    H33  100  -0.188  -0.022  -0.271
    1UNL    H34  101  -0.382  -0.154  -0.229
    1UNL    H35  102  -0.074  -0.281  -0.192
    1UNL    H36  103   0.012  -0.227  -0.404
    1UNL    H37  104   0.150  -0.157  -0.322
    1UNL    H38  105   0.027  -0.052  -0.385
    1UNL    H39  106   0.133  -0.071  -0.137
    1UNL    H40  107   0.034  -0.274   0.070
    1UNL    H41  108   0.139  -0.316  -0.063
    1UNL    H42  109   0.530  -0.197  -0.059
    1UNL    H43  110   0.476  -0.230   0.119
    1UNL    H44  111   0.417  -0.004   0.140
    1UNL    H45  112   0.291   0.307  -0.361
    1UNL    H46  113   0.270   0.363  -0.184
    1UNL    H47  114   0.199   0.218  -0.227
    1UNL    H48  115   0.618   0.233  -0.128
    1UNL    H49  116   0.768  -0.090   0.002
    1UNL    H50  117   1.020  -0.124   0.091
    1UNL    H51  118   1.076  -0.055  -0.232
    1UNL    H52  119   1.145   0.182  -0.275
    1UNL    H53  120   1.093   0.237  -0.124
    1UNL    H54  121   0.869   0.154  -0.166
    1UNL    H55  122   1.291   0.032  -0.123
    1UNL    H56  123   1.221  -0.187  -0.093
    1UNL    H57  124   1.244   0.200   0.052
    1UNL    H58  125   1.313  -0.054   0.141
    1UNL    H59  126   1.083   0.098   0.237
    1UNL    H60  127   0.904   0.182   0.073
    1UNL    H61  128   0.722  -0.065   0.323
    1UNL    H62  129   0.528  -0.029   0.467
    1UNL    H63  130   0.428  -0.019   0.332
    1UNL    H64  131   0.481  -0.176   0.386
   0.00000   0.00000   0.00000   0.00000   0.00000   0.00000   0.00000   0.00000   0.00000
Generated with MDTraj, t= 71.0
 131
    1UNL     C1    1  -0.611   0.358   0.022
    1UNL     C2    2  -0.582   0.275   0.146
    1UNL     C3    3  -0.647   0.165   0.169
    1UNL     C4    4  -0.739   0.101   0.070
    1UNL     O1    5  -0.668  -0.005   0.000
    1UNL     C5    6  -0.741  -0.060  -0.103
    1UNL     O2    7  -0.814   0.042  -0.176
    1UNL     C6    8  -0.892  -0.018  -0.282
    1UNL     C7    9  -0.976   0.093  -0.352
    1UNL     O3   10  -1.053   0.062  -0.469
    1UNL     C8   11  -0.805  -0.097  -0.384
    1UNL     O4   12  -0.884  -0.167  -0.482
    1UNL     C9   13  -0.716  -0.196  -0.311
    1UNL     O5   14  -0.799  -0.306  -0.267
    1UNL    C10   15  -0.642  -0.138  -0.193
    1UNL     O6   16  -0.534  -0.063  -0.245
    1UNL     O7   17  -0.860   0.069   0.131
    1UNL    C11   18  -0.848  -0.016   0.241
    1UNL    C12   19  -0.741  -0.018   0.322
    1UNL    C13   20  -0.746  -0.098   0.441
    1UNL     O8   21  -0.649  -0.098   0.515
    1UNL     O9   22  -0.860  -0.175   0.463
    1UNL    C14   23  -0.850  -0.249   0.583
    1UNL    C15   24  -0.625   0.074   0.292
    1UNL    C16   25  -0.513  -0.016   0.252
    1UNL    C17   26  -0.386   0.054   0.260
    1UNL    O10   27  -0.373   0.161   0.313
    1UNL    O11   28  -0.290  -0.004   0.187
    1UNL    C18   29  -0.171   0.072   0.200
    1UNL    C19   30  -0.049   0.010   0.136
    1UNL    C20   31   0.084   0.081   0.182
    1UNL    C21   32  -0.073   0.004  -0.016
    1UNL    C22   33  -0.206  -0.047  -0.061
    1UNL    C23   34  -0.188  -0.102  -0.206
    1UNL    O12   35  -0.293  -0.197  -0.235
    1UNL    C24   36  -0.046  -0.158  -0.210
    1UNL    C25   37   0.027  -0.156  -0.343
    1UNL    C26   38   0.033  -0.087  -0.089
    1UNL    C27   39   0.100  -0.197  -0.004
    1UNL    O13   40   0.223  -0.165   0.058
    1UNL    C28   41   0.318  -0.171  -0.039
    1UNL    O14   42   0.288  -0.184  -0.154
    1UNL    C29   43   0.462  -0.151   0.005
    1UNL    C30   44   0.506  -0.021   0.080
    1UNL    C31   45   0.511   0.098  -0.011
    1UNL    C32   46   0.400   0.155  -0.081
    1UNL    O15   47   0.286   0.129  -0.049
    1UNL    O16   48   0.424   0.245  -0.179
    1UNL    C33   49   0.313   0.277  -0.260
    1UNL    C34   50   0.632   0.164  -0.020
    1UNL    O17   51   0.755   0.123   0.028
    1UNL    C35   52   0.759  -0.009   0.092
    1UNL    O18   53   0.885  -0.033   0.165
    1UNL    C36   54   0.995  -0.031   0.080
    1UNL    O19   55   0.962  -0.036  -0.062
    1UNL    C37   56   1.068  -0.005  -0.149
    1UNL    C38   57   1.053   0.128  -0.207
    1UNL    O20   58   0.922   0.145  -0.238
    1UNL    C39   59   1.207  -0.008  -0.071
    1UNL    O21   60   1.245  -0.136  -0.023
    1UNL    C40   61   1.221   0.095   0.053
    1UNL    O22   62   1.311   0.043   0.146
    1UNL    C41   63   1.080   0.105   0.118
    1UNL    O23   64   1.011   0.224   0.074
    1UNL    C42   65   0.632  -0.030   0.169
    1UNL    C43   66   0.623  -0.073   0.297
    1UNL    C44   67   0.510  -0.107   0.379
    1UNL     H1   68  -0.713   0.395   0.009
    1UNL     H2   69  -0.544   0.445   0.012
    1UNL     H3   70  -0.578   0.300  -0.066
    1UNL     H4   71  -0.510   0.294   0.221
    1UNL     H5   72  -0.761   0.178  -0.012
    1UNL     H6   73  -0.816  -0.134  -0.066
    1UNL     H7   74  -0.964  -0.096  -0.227
    1UNL     H8   75  -0.915   0.180  -0.372
    1UNL     H9   76  -1.051   0.126  -0.282
    1UNL    H10   77  -1.075   0.147  -0.520
    1UNL    H11   78  -0.744  -0.022  -0.437
    1UNL    H12   79  -0.959  -0.110  -0.499
    1UNL    H13   80  -0.642  -0.229  -0.390
    1UNL    H14   81  -0.815  -0.366  -0.346
    1UNL    H15   82  -0.605  -0.220  -0.126
    1UNL    H16   83  -0.575   0.020  -0.271
    1UNL    H17   84  -0.934  -0.070   0.275
    1UNL    H18   85  -0.764  -0.319   0.579
    1UNL    H19   86  -0.944  -0.300   0.594
    1UNL    H20   87  -0.830  -0.178   0.666
    1UNL    H21   88  -0.591   0.126   0.384
    1UNL    H22   89  -0.513  -0.106   0.314
    1UNL    H23   90  -0.520  -0.050   0.141
    1UNL    H24   91  -0.196   0.164   0.151
    1UNL    H25   92  -0.150   0.077   0.306
    1UNL    H26   93  -0.033  -0.093   0.161
    1UNL    H27   94   0.098   0.159   0.118
    1UNL    H28   95   0.064   0.122   0.282
    1UNL    H29   96   0.179   0.027   0.172
    1UNL    H30   97  -0.060   0.105  -0.064
    1UNL    H31   98  -0.281   0.041  -0.066
    1UNL    H32   99  -0.247  -0.122   0.000
    1UNL    H33  100  -0.187  -0.029  -0.284
    1UNL    H34  101  -0.376  -0.154  -0.243
    1UNL    H35  102  -0.064  -0.264  -0.178
    1UNL    H36  103  -0.038  -0.201  -0.420
    1UNL    H37  104   0.110  -0.221  -0.326
    1UNL    H38  105   0.062  -0.058  -0.367
    1UNL    H39  106   0.127  -0.039  -0.121
    1UNL    H40  107   0.024  -0.238   0.068
    1UNL    H41  108   0.129  -0.279  -0.065
    1UNL    H42  109   0.525  -0.136  -0.088
    1UNL    H43  110   0.490  -0.238   0.064
    1UNL    H44  111   0.419  -0.001   0.143
    1UNL    H45  112   0.359   0.358  -0.323
    1UNL    H46  113   0.225   0.314  -0.203
    1UNL    H47  114   0.292   0.181  -0.311
    1UNL    H48  115   0.634   0.260  -0.082
    1UNL    H49  116   0.763  -0.086   0.007
    1UNL    H50  117   1.043  -0.130   0.099
    1UNL    H51  118   1.071  -0.091  -0.228
    1UNL    H52  119   1.102   0.148  -0.296
    1UNL    H53  120   1.089   0.209  -0.135
    1UNL    H54  121   0.870   0.117  -0.156
    1UNL    H55  122   1.289   0.015  -0.144
    1UNL    H56  123   1.256  -0.201  -0.095
    1UNL    H57  124   1.272   0.189   0.024
    1UNL    H58  125   1.316  -0.053   0.125
    1UNL    H59  126   1.089   0.102   0.235
    1UNL    H60  127   0.916   0.196   0.072
    1UNL    H61  128   0.718  -0.102   0.348
    1UNL    H62  129   0.429  -0.052   0.331
    1UNL    H63  130   0.486  -0.213   0.372
    1UNL    H64  131   0.515  -0.066   0.476
   0.00000   0.00000   0.00000   0.00000   0.00000   0.00000   0.00000   0.00000   0.00000
Generated with MDTraj, t= 72.0
 131
    1UNL     C1    1  -0.621   0.373   0.062
    1UNL     C2    2  -0.605   0.278   0.172
    1UNL     C3    3  -0.661   0.158   0.178
    1UNL     C4    4  -0.749   0.090   0.061
    1UNL     O1    5  -0.685  -0.032   0.023
    1UNL     C5    6  -0.744  -0.082  -0.095
    1UNL     O2    7  -0.810   0.020  -0.173
    1UNL     C6    8  -0.887  -0.029  -0.285
    1UNL     C7    9  -0.951   0.088  -0.358
    1UNL     O3   10  -1.050   0.046  -0.455
    1UNL     C8   11  -0.794  -0.116  -0.384
    1UNL     O4   12  -0.876  -0.184  -0.481
    1UNL     C9   13  -0.722  -0.212  -0.293
    1UNL     O5   14  -0.817  -0.310  -0.245
    1UNL    C10   15  -0.641  -0.149  -0.182
    1UNL     O6   16  -0.550  -0.045  -0.242
    1UNL     O7   17  -0.877   0.062   0.107
    1UNL    C11   18  -0.868  -0.008   0.225
    1UNL    C12   19  -0.762  -0.016   0.309
    1UNL    C13   20  -0.762  -0.094   0.432
    1UNL     O8   21  -0.661  -0.117   0.498
    1UNL     O9   22  -0.882  -0.149   0.459
    1UNL    C14   23  -0.879  -0.231   0.574
    1UNL    C15   24  -0.639   0.063   0.290
    1UNL    C16   25  -0.502  -0.022   0.266
    1UNL    C17   26  -0.375   0.059   0.273
    1UNL    O10   27  -0.366   0.160   0.336
    1UNL    O11   28  -0.273   0.012   0.191
    1UNL    C18   29  -0.156   0.092   0.180
    1UNL    C19   30  -0.041   0.025   0.115
    1UNL    C20   31   0.083   0.110   0.148
    1UNL    C21   32  -0.044   0.018  -0.036
    1UNL    C22   33  -0.186  -0.018  -0.077
    1UNL    C23   34  -0.180  -0.089  -0.213
    1UNL    O12   35  -0.287  -0.182  -0.229
    1UNL    C24   36  -0.037  -0.160  -0.216
    1UNL    C25   37   0.029  -0.147  -0.352
    1UNL    C26   38   0.053  -0.086  -0.105
    1UNL    C27   39   0.117  -0.189  -0.014
    1UNL    O13   40   0.240  -0.168   0.048
    1UNL    C28   41   0.337  -0.156  -0.049
    1UNL    O14   42   0.315  -0.157  -0.169
    1UNL    C29   43   0.482  -0.133  -0.008
    1UNL    C30   44   0.508  -0.018   0.094
    1UNL    C31   45   0.512   0.118   0.013
    1UNL    C32   46   0.395   0.172  -0.064
    1UNL    O15   47   0.279   0.129  -0.060
    1UNL    O16   48   0.423   0.276  -0.148
    1UNL    C33   49   0.323   0.305  -0.251
    1UNL    C34   50   0.632   0.177  -0.020
    1UNL    O17   51   0.754   0.128   0.017
    1UNL    C35   52   0.762  -0.002   0.090
    1UNL    O18   53   0.878  -0.031   0.169
    1UNL    C36   54   0.989  -0.038   0.091
    1UNL    O19   55   0.962  -0.060  -0.047
    1UNL    C37   56   1.068  -0.028  -0.148
    1UNL    C38   57   1.022   0.106  -0.209
    1UNL    O20   58   0.888   0.106  -0.235
    1UNL    C39   59   1.213  -0.015  -0.071
    1UNL    O21   60   1.246  -0.142  -0.024
    1UNL    C40   61   1.222   0.087   0.048
    1UNL    O22   62   1.318   0.040   0.135
    1UNL    C41   63   1.079   0.091   0.107
    1UNL    O23   64   1.014   0.218   0.091
    1UNL    C42   65   0.632  -0.033   0.165
    1UNL    C43   66   0.635  -0.092   0.286
    1UNL    C44   67   0.522  -0.134   0.369
    1UNL     H1   68  -0.648   0.474   0.091
    1UNL     H2   69  -0.529   0.375   0.000
    1UNL     H3   70  -0.690   0.327  -0.012
    1UNL     H4   71  -0.525   0.304   0.243
    1UNL     H5   72  -0.760   0.155  -0.032
    1UNL     H6   73  -0.831  -0.146  -0.074
    1UNL     H7   74  -0.969  -0.109  -0.247
    1UNL     H8   75  -0.876   0.149  -0.404
    1UNL     H9   76  -1.003   0.145  -0.285
    1UNL    H10   77  -1.092   0.121  -0.497
    1UNL    H11   78  -0.726  -0.057  -0.448
    1UNL    H12   79  -0.952  -0.122  -0.495
    1UNL    H13   80  -0.640  -0.267  -0.346
    1UNL    H14   81  -0.844  -0.371  -0.314
    1UNL    H15   82  -0.583  -0.225  -0.122
    1UNL    H16   83  -0.590   0.041  -0.218
    1UNL    H17   84  -0.956  -0.063   0.256
    1UNL    H18   85  -0.783  -0.277   0.592
    1UNL    H19   86  -0.956  -0.303   0.562
    1UNL    H20   87  -0.895  -0.170   0.660
    1UNL    H21   88  -0.625   0.133   0.376
    1UNL    H22   89  -0.505  -0.104   0.338
    1UNL    H23   90  -0.522  -0.062   0.164
    1UNL    H24   91  -0.184   0.177   0.123
    1UNL    H25   92  -0.130   0.111   0.286
    1UNL    H26   93  -0.023  -0.072   0.155
    1UNL    H27   94   0.063   0.209   0.128
    1UNL    H28   95   0.116   0.107   0.250
    1UNL    H29   96   0.168   0.091   0.077
    1UNL    H30   97  -0.029   0.115  -0.089
    1UNL    H31   98  -0.264   0.065  -0.080
    1UNL    H32   99  -0.216  -0.096  -0.005
    1UNL    H33  100  -0.180  -0.022  -0.294
    1UNL    H34  101  -0.377  -0.135  -0.219
    1UNL    H35  102  -0.053  -0.267  -0.188
    1UNL    H36  103  -0.035  -0.183  -0.437
    1UNL    H37  104   0.116  -0.207  -0.348
    1UNL    H38  105   0.059  -0.048  -0.371
    1UNL    H39  106   0.145  -0.048  -0.155
    1UNL    H40  107   0.033  -0.219   0.055
    1UNL    H41  108   0.129  -0.278  -0.074
    1UNL    H42  109   0.545  -0.114  -0.100
    1UNL    H43  110   0.519  -0.218   0.051
    1UNL    H44  111   0.424  -0.007   0.162
    1UNL    H45  112   0.356   0.403  -0.296
    1UNL    H46  113   0.220   0.321  -0.214
    1UNL    H47  114   0.336   0.213  -0.314
    1UNL    H48  115   0.642   0.256  -0.091
    1UNL    H49  116   0.778  -0.072   0.004
    1UNL    H50  117   1.050  -0.125   0.125
    1UNL    H51  118   1.075  -0.110  -0.232
    1UNL    H52  119   1.072   0.132  -0.297
    1UNL    H53  120   1.034   0.194  -0.138
    1UNL    H54  121   0.841   0.101  -0.146
    1UNL    H55  122   1.292   0.006  -0.150
    1UNL    H56  123   1.206  -0.209  -0.086
    1UNL    H57  124   1.249   0.188   0.018
    1UNL    H58  125   1.344  -0.049   0.102
    1UNL    H59  126   1.088   0.107   0.224
    1UNL    H60  127   0.921   0.208   0.070
    1UNL    H61  128   0.730  -0.103   0.324
    1UNL    H62  129   0.501  -0.239   0.347
    1UNL    H63  130   0.544  -0.132   0.475
    1UNL    H64  131   0.431  -0.081   0.344
   0.00000   0.00000   0.00000   0.00000   0.00000   0.00000   0.00000   0.00000   0.00000
Generated with MDTraj, t= 73.0
 131
    1UNL     C1    1  -0.638   0.372   0.088
    1UNL     C2    2  -0.604   0.282   0.192
    1UNL     C3    3  -0.660   0.164   0.187
    1UNL     C4    4  -0.727   0.101   0.072
    1UNL     O1    5  -0.648   0.009  -0.002
    1UNL     C5    6  -0.728  -0.052  -0.103
    1UNL     O2    7  -0.783   0.041  -0.196
    1UNL     C6    8  -0.880  -0.026  -0.285
    1UNL     C7    9  -0.952   0.072  -0.368
    1UNL     O3   10  -1.045   0.016  -0.457
    1UNL     C8   11  -0.803  -0.132  -0.380
    1UNL     O4   12  -0.892  -0.197  -0.468
    1UNL     C9   13  -0.728  -0.234  -0.290
    1UNL     O5   14  -0.821  -0.342  -0.254
    1UNL    C10   15  -0.650  -0.169  -0.173
    1UNL     O6   16  -0.525  -0.104  -0.224
    1UNL     O7   17  -0.857   0.049   0.106
    1UNL    C11   18  -0.851  -0.007   0.228
    1UNL    C12   19  -0.748  -0.018   0.320
    1UNL    C13   20  -0.768  -0.104   0.438
    1UNL     O8   21  -0.676  -0.135   0.513
    1UNL     O9   22  -0.894  -0.157   0.453
    1UNL    C14   23  -0.908  -0.224   0.576
    1UNL    C15   24  -0.624   0.068   0.307
    1UNL    C16   25  -0.494  -0.019   0.277
    1UNL    C17   26  -0.377   0.073   0.260
    1UNL    O10   27  -0.377   0.179   0.318
    1UNL    O11   28  -0.284   0.023   0.168
    1UNL    C18   29  -0.169   0.093   0.184
    1UNL    C19   30  -0.046   0.024   0.121
    1UNL    C20   31   0.092   0.077   0.176
    1UNL    C21   32  -0.050   0.032  -0.031
    1UNL    C22   33  -0.192  -0.016  -0.082
    1UNL    C23   34  -0.173  -0.074  -0.219
    1UNL    O12   35  -0.266  -0.169  -0.256
    1UNL    C24   36  -0.026  -0.139  -0.219
    1UNL    C25   37   0.047  -0.132  -0.350
    1UNL    C26   38   0.046  -0.069  -0.100
    1UNL    C27   39   0.116  -0.175  -0.016
    1UNL    O13   40   0.237  -0.138   0.039
    1UNL    C28   41   0.331  -0.148  -0.061
    1UNL    O14   42   0.304  -0.173  -0.178
    1UNL    C29   43   0.471  -0.137  -0.019
    1UNL    C30   44   0.498  -0.012   0.072
    1UNL    C31   45   0.524   0.110  -0.020
    1UNL    C32   46   0.406   0.170  -0.079
    1UNL    O15   47   0.290   0.140  -0.048
    1UNL    O16   48   0.432   0.280  -0.156
    1UNL    C33   49   0.314   0.362  -0.181
    1UNL    C34   50   0.645   0.173  -0.029
    1UNL    O17   51   0.754   0.135   0.041
    1UNL    C35   52   0.752   0.004   0.098
    1UNL    O18   53   0.869  -0.025   0.182
    1UNL    C36   54   0.985  -0.045   0.101
    1UNL    O19   55   0.951  -0.052  -0.044
    1UNL    C37   56   1.057  -0.033  -0.133
    1UNL    C38   57   1.026   0.089  -0.221
    1UNL    O20   58   0.887   0.102  -0.251
    1UNL    C39   59   1.189  -0.039  -0.068
    1UNL    O21   60   1.242  -0.161  -0.019
    1UNL    C40   61   1.214   0.073   0.040
    1UNL    O22   62   1.326   0.042   0.124
    1UNL    C41   63   1.080   0.084   0.120
    1UNL    O23   64   1.027   0.208   0.074
    1UNL    C42   65   0.626  -0.025   0.157
    1UNL    C43   66   0.621  -0.089   0.274
    1UNL    C44   67   0.499  -0.133   0.345
    1UNL     H1   68  -0.553   0.438   0.078
    1UNL     H2   69  -0.659   0.314  -0.003
    1UNL     H3   70  -0.737   0.419   0.105
    1UNL     H4   71  -0.533   0.303   0.267
    1UNL     H5   72  -0.750   0.183  -0.001
    1UNL     H6   73  -0.816  -0.094  -0.058
    1UNL     H7   74  -0.956  -0.082  -0.212
    1UNL     H8   75  -0.876   0.123  -0.424
    1UNL     H9   76  -1.005   0.138  -0.303
    1UNL    H10   77  -1.107   0.082  -0.489
    1UNL    H11   78  -0.740  -0.075  -0.449
    1UNL    H12   79  -0.971  -0.139  -0.477
    1UNL    H13   80  -0.650  -0.285  -0.347
    1UNL    H14   81  -0.844  -0.396  -0.331
    1UNL    H15   82  -0.626  -0.252  -0.103
    1UNL    H16   83  -0.526  -0.012  -0.186
    1UNL    H17   84  -0.947  -0.055   0.252
    1UNL    H18   85  -0.879  -0.327   0.572
    1UNL    H19   86  -1.011  -0.214   0.604
    1UNL    H20   87  -0.841  -0.181   0.648
    1UNL    H21   88  -0.609   0.123   0.402
    1UNL    H22   89  -0.491  -0.077   0.374
    1UNL    H23   90  -0.516  -0.083   0.191
    1UNL    H24   91  -0.194   0.185   0.131
    1UNL    H25   92  -0.159   0.104   0.295
    1UNL    H26   93  -0.053  -0.075   0.158
    1UNL    H27   94   0.117   0.177   0.147
    1UNL    H28   95   0.097   0.081   0.280
    1UNL    H29   96   0.183   0.022   0.142
    1UNL    H30   97  -0.049   0.137  -0.066
    1UNL    H31   98  -0.265   0.069  -0.076
    1UNL    H32   99  -0.235  -0.097  -0.011
    1UNL    H33  100  -0.187   0.006  -0.285
    1UNL    H34  101  -0.354  -0.133  -0.249
    1UNL    H35  102  -0.050  -0.243  -0.183
    1UNL    H36  103   0.013  -0.216  -0.415
    1UNL    H37  104   0.152  -0.147  -0.340
    1UNL    H38  105   0.033  -0.043  -0.406
    1UNL    H39  106   0.131  -0.015  -0.148
    1UNL    H40  107   0.049  -0.209   0.069
    1UNL    H41  108   0.125  -0.271  -0.071
    1UNL    H42  109   0.539  -0.135  -0.108
    1UNL    H43  110   0.489  -0.230   0.037
    1UNL    H44  111   0.409   0.015   0.131
    1UNL    H45  112   0.359   0.442  -0.246
    1UNL    H46  113   0.279   0.422  -0.096
    1UNL    H47  114   0.237   0.302  -0.234
    1UNL    H48  115   0.660   0.262  -0.080
    1UNL    H49  116   0.766  -0.056   0.009
    1UNL    H50  117   1.035  -0.133   0.141
    1UNL    H51  118   1.039  -0.123  -0.206
    1UNL    H52  119   1.085   0.084  -0.309
    1UNL    H53  120   1.060   0.178  -0.156
    1UNL    H54  121   0.835   0.097  -0.167
    1UNL    H55  122   1.268  -0.014  -0.147
    1UNL    H56  123   1.205  -0.241  -0.067
    1UNL    H57  124   1.248   0.172   0.004
    1UNL    H58  125   1.375  -0.037   0.092
    1UNL    H59  126   1.100   0.106   0.232
    1UNL    H60  127   0.927   0.192   0.077
    1UNL    H61  128   0.720  -0.107   0.327
    1UNL    H62  129   0.518  -0.190   0.436
    1UNL    H63  130   0.427  -0.059   0.376
    1UNL    H64  131   0.450  -0.207   0.280
   0.00000   0.00000   0.00000   0.00000   0.00000   0.00000   0.00000   0.00000   0.00000
Generated with MDTraj, t= 74.0
 131
    1UNL     C1    1  -0.628   0.389   0.090
    1UNL     C2    2  -0.613   0.281   0.188
    1UNL     C3    3  -0.661   0.158   0.187
    1UNL     C4    4  -0.737   0.105   0.064
    1UNL     O1    5  -0.648   0.021  -0.008
    1UNL     C5    6  -0.724  -0.051  -0.106
    1UNL     O2    7  -0.789   0.032  -0.196
    1UNL     C6    8  -0.881  -0.032  -0.287
    1UNL     C7    9  -0.941   0.066  -0.386
    1UNL     O3   10  -1.052   0.018  -0.453
    1UNL     C8   11  -0.806  -0.143  -0.363
    1UNL     O4   12  -0.890  -0.214  -0.450
    1UNL     C9   13  -0.721  -0.234  -0.270
    1UNL     O5   14  -0.819  -0.314  -0.204
    1UNL    C10   15  -0.635  -0.160  -0.167
    1UNL     O6   16  -0.509  -0.105  -0.212
    1UNL     O7   17  -0.862   0.043   0.107
    1UNL    C11   18  -0.859  -0.037   0.215
    1UNL    C12   19  -0.765  -0.031   0.311
    1UNL    C13   20  -0.771  -0.100   0.432
    1UNL     O8   21  -0.676  -0.103   0.509
    1UNL     O9   22  -0.891  -0.159   0.453
    1UNL    C14   23  -0.885  -0.226   0.573
    1UNL    C15   24  -0.647   0.061   0.295
    1UNL    C16   25  -0.513  -0.013   0.269
    1UNL    C17   26  -0.388   0.069   0.265
    1UNL    O10   27  -0.374   0.173   0.324
    1UNL    O11   28  -0.291   0.019   0.187
    1UNL    C18   29  -0.173   0.103   0.187
    1UNL    C19   30  -0.050   0.025   0.125
    1UNL    C20   31   0.084   0.074   0.184
    1UNL    C21   32  -0.046   0.018  -0.025
    1UNL    C22   33  -0.181  -0.039  -0.095
    1UNL    C23   34  -0.153  -0.083  -0.237
    1UNL    O12   35  -0.229  -0.190  -0.282
    1UNL    C24   36   0.004  -0.128  -0.237
    1UNL    C25   37   0.093  -0.071  -0.348
    1UNL    C26   38   0.060  -0.079  -0.099
    1UNL    C27   39   0.118  -0.198  -0.013
    1UNL    O13   40   0.243  -0.156   0.031
    1UNL    C28   41   0.330  -0.164  -0.070
    1UNL    O14   42   0.308  -0.204  -0.185
    1UNL    C29   43   0.471  -0.130  -0.032
    1UNL    C30   44   0.488  -0.004   0.062
    1UNL    C31   45   0.508   0.122  -0.021
    1UNL    C32   46   0.395   0.201  -0.052
    1UNL    O15   47   0.283   0.172  -0.013
    1UNL    O16   48   0.423   0.316  -0.118
    1UNL    C33   49   0.301   0.387  -0.160
    1UNL    C34   50   0.634   0.168  -0.037
    1UNL    O17   51   0.747   0.115   0.006
    1UNL    C35   52   0.740  -0.004   0.079
    1UNL    O18   53   0.857  -0.019   0.169
    1UNL    C36   54   0.982  -0.034   0.095
    1UNL    O19   55   0.954  -0.069  -0.050
    1UNL    C37   56   1.068  -0.044  -0.145
    1UNL    C38   57   1.047   0.097  -0.218
    1UNL    O20   58   0.909   0.114  -0.251
    1UNL    C39   59   1.201  -0.056  -0.068
    1UNL    O21   60   1.207  -0.182   0.005
    1UNL    C40   61   1.215   0.058   0.041
    1UNL    O22   62   1.315   0.021   0.138
    1UNL    C41   63   1.080   0.086   0.098
    1UNL    O23   64   1.028   0.202   0.059
    1UNL    C42   65   0.605  -0.020   0.147
    1UNL    C43   66   0.606  -0.064   0.275
    1UNL    C44   67   0.476  -0.111   0.331
    1UNL     H1   68  -0.622   0.488   0.133
    1UNL     H2   69  -0.552   0.386   0.009
    1UNL     H3   70  -0.714   0.373   0.025
    1UNL     H4   71  -0.565   0.327   0.276
    1UNL     H5   72  -0.762   0.183  -0.013
    1UNL     H6   73  -0.805  -0.097  -0.052
    1UNL     H7   74  -0.964  -0.071  -0.211
    1UNL     H8   75  -0.862   0.091  -0.457
    1UNL     H9   76  -0.967   0.154  -0.326
    1UNL    H10   77  -1.118   0.092  -0.471
    1UNL    H11   78  -0.734  -0.097  -0.430
    1UNL    H12   79  -0.962  -0.155  -0.477
    1UNL    H13   80  -0.653  -0.287  -0.335
    1UNL    H14   81  -0.848  -0.388  -0.266
    1UNL    H15   82  -0.608  -0.226  -0.084
    1UNL    H16   83  -0.509  -0.019  -0.166
    1UNL    H17   84  -0.950  -0.096   0.231
    1UNL    H18   85  -0.840  -0.327   0.565
    1UNL    H19   86  -0.988  -0.231   0.612
    1UNL    H20   87  -0.816  -0.178   0.644
    1UNL    H21   88  -0.645   0.123   0.387
    1UNL    H22   89  -0.500  -0.100   0.340
    1UNL    H23   90  -0.527  -0.043   0.165
    1UNL    H24   91  -0.191   0.195   0.131
    1UNL    H25   92  -0.159   0.118   0.300
    1UNL    H26   93  -0.065  -0.070   0.166
    1UNL    H27   94   0.087   0.182   0.204
    1UNL    H28   95   0.098   0.024   0.275
    1UNL    H29   96   0.161   0.054   0.117
    1UNL    H30   97  -0.039   0.124  -0.051
    1UNL    H31   98  -0.258   0.039  -0.086
    1UNL    H32   99  -0.226  -0.128  -0.032
    1UNL    H33  100  -0.166  -0.003  -0.303
    1UNL    H34  101  -0.331  -0.168  -0.278
    1UNL    H35  102   0.004  -0.240  -0.239
    1UNL    H36  103   0.033  -0.076  -0.440
    1UNL    H37  104   0.181  -0.130  -0.363
    1UNL    H38  105   0.121   0.031  -0.323
    1UNL    H39  106   0.152  -0.017  -0.114
    1UNL    H40  107   0.057  -0.230   0.079
    1UNL    H41  108   0.132  -0.305  -0.050
    1UNL    H42  109   0.525  -0.122  -0.128
    1UNL    H43  110   0.507  -0.224   0.016
    1UNL    H44  111   0.397   0.010   0.120
    1UNL    H45  112   0.341   0.451  -0.243
    1UNL    H46  113   0.277   0.457  -0.083
    1UNL    H47  114   0.219   0.334  -0.206
    1UNL    H48  115   0.644   0.256  -0.105
    1UNL    H49  116   0.761  -0.077   0.005
    1UNL    H50  117   1.027  -0.121   0.144
    1UNL    H51  118   1.053  -0.118  -0.231
    1UNL    H52  119   1.117   0.110  -0.300
    1UNL    H53  120   1.076   0.171  -0.134
    1UNL    H54  121   0.864   0.115  -0.164
    1UNL    H55  122   1.282  -0.054  -0.147
    1UNL    H56  123   1.201  -0.252  -0.064
    1UNL    H57  124   1.257   0.148  -0.008
    1UNL    H58  125   1.335  -0.075   0.127
    1UNL    H59  126   1.096   0.106   0.210
    1UNL    H60  127   0.934   0.189   0.045
    1UNL    H61  128   0.694  -0.073   0.326
    1UNL    H62  129   0.487  -0.133   0.434
    1UNL    H63  130   0.392  -0.042   0.320
    1UNL    H64  131   0.462  -0.207   0.276
   0.00000   0.00000   0.00000   0.00000   0.00000   0.00000   0.00000   0.00000   0.00000
Generated with MDTraj, t= 75.0
 131
    1UNL     C1    1  -0.631   0.400   0.074
    1UNL     C2    2  -0.623   0.302   0.183
    1UNL     C3    3  -0.667   0.179   0.177
    1UNL     C4    4  -0.734   0.110   0.066
    1UNL     O1    5  -0.653   0.006   0.018
    1UNL     C5    6  -0.712  -0.057  -0.096
    1UNL     O2    7  -0.767   0.030  -0.190
    1UNL     C6    8  -0.854  -0.034  -0.279
    1UNL     C7    9  -0.928   0.060  -0.380
    1UNL     O3   10  -1.025  -0.009  -0.461
    1UNL     C8   11  -0.794  -0.151  -0.359
    1UNL     O4   12  -0.886  -0.230  -0.434
    1UNL     C9   13  -0.717  -0.245  -0.267
    1UNL     O5   14  -0.818  -0.308  -0.182
    1UNL    C10   15  -0.622  -0.163  -0.168
    1UNL     O6   16  -0.525  -0.086  -0.240
    1UNL     O7   17  -0.865   0.064   0.114
    1UNL    C11   18  -0.862  -0.018   0.228
    1UNL    C12   19  -0.763  -0.011   0.316
    1UNL    C13   20  -0.768  -0.092   0.432
    1UNL     O8   21  -0.674  -0.088   0.511
    1UNL     O9   22  -0.879  -0.171   0.450
    1UNL    C14   23  -0.871  -0.248   0.569
    1UNL    C15   24  -0.644   0.080   0.297
    1UNL    C16   25  -0.529  -0.008   0.263
    1UNL    C17   26  -0.393   0.052   0.246
    1UNL    O10   27  -0.369   0.151   0.313
    1UNL    O11   28  -0.295  -0.002   0.161
    1UNL    C18   29  -0.176   0.075   0.190
    1UNL    C19   30  -0.050   0.007   0.138
    1UNL    C20   31   0.074   0.066   0.202
    1UNL    C21   32  -0.048   0.004  -0.015
    1UNL    C22   33  -0.178  -0.041  -0.090
    1UNL    C23   34  -0.136  -0.080  -0.228
    1UNL    O12   35  -0.206  -0.188  -0.287
    1UNL    C24   36   0.019  -0.109  -0.235
    1UNL    C25   37   0.081  -0.021  -0.341
    1UNL    C26   38   0.066  -0.073  -0.088
    1UNL    C27   39   0.119  -0.198  -0.013
    1UNL    O13   40   0.252  -0.171   0.026
    1UNL    C28   41   0.338  -0.159  -0.078
    1UNL    O14   42   0.313  -0.187  -0.195
    1UNL    C29   43   0.476  -0.117  -0.043
    1UNL    C30   44   0.484  -0.003   0.060
    1UNL    C31   45   0.498   0.132  -0.007
    1UNL    C32   46   0.380   0.206  -0.048
    1UNL    O15   47   0.266   0.170  -0.015
    1UNL    O16   48   0.404   0.333  -0.105
    1UNL    C33   49   0.277   0.409  -0.123
    1UNL    C34   50   0.619   0.174  -0.044
    1UNL    O17   51   0.738   0.112  -0.030
    1UNL    C35   52   0.730  -0.007   0.052
    1UNL    O18   53   0.847  -0.015   0.142
    1UNL    C36   54   0.968  -0.044   0.079
    1UNL    O19   55   0.958  -0.070  -0.073
    1UNL    C37   56   1.077  -0.054  -0.145
    1UNL    C38   57   1.067   0.084  -0.224
    1UNL    O20   58   0.943   0.108  -0.273
    1UNL    C39   59   1.199  -0.067  -0.057
    1UNL    O21   60   1.192  -0.197   0.007
    1UNL    C40   61   1.205   0.046   0.058
    1UNL    O22   62   1.272  -0.007   0.171
    1UNL    C41   63   1.059   0.077   0.110
    1UNL    O23   64   1.004   0.197   0.061
    1UNL    C42   65   0.608  -0.024   0.132
    1UNL    C43   66   0.610  -0.052   0.264
    1UNL    C44   67   0.501  -0.060   0.358
    1UNL     H1   68  -0.584   0.497   0.097
    1UNL     H2   69  -0.593   0.368  -0.023
    1UNL     H3   70  -0.731   0.415   0.032
    1UNL     H4   71  -0.591   0.336   0.277
    1UNL     H5   72  -0.743   0.180  -0.019
    1UNL     H6   73  -0.802  -0.109  -0.058
    1UNL     H7   74  -0.942  -0.078  -0.212
    1UNL     H8   75  -0.851   0.098  -0.453
    1UNL     H9   76  -0.967   0.152  -0.329
    1UNL    H10   77  -1.093   0.059  -0.494
    1UNL    H11   78  -0.728  -0.110  -0.435
    1UNL    H12   79  -0.956  -0.173  -0.478
    1UNL    H13   80  -0.666  -0.317  -0.329
    1UNL    H14   81  -0.861  -0.383  -0.222
    1UNL    H15   82  -0.569  -0.231  -0.104
    1UNL    H16   83  -0.579  -0.017  -0.287
    1UNL    H17   84  -0.938  -0.089   0.254
    1UNL    H18   85  -0.766  -0.257   0.609
    1UNL    H19   86  -0.924  -0.349   0.558
    1UNL    H20   87  -0.918  -0.194   0.654
    1UNL    H21   88  -0.617   0.119   0.398
    1UNL    H22   89  -0.519  -0.092   0.341
    1UNL    H23   90  -0.545  -0.046   0.164
    1UNL    H24   91  -0.200   0.173   0.145
    1UNL    H25   92  -0.173   0.078   0.306
    1UNL    H26   93  -0.058  -0.090   0.173
    1UNL    H27   94   0.121   0.145   0.142
    1UNL    H28   95   0.045   0.104   0.297
    1UNL    H29   96   0.142  -0.010   0.213
    1UNL    H30   97  -0.030   0.107  -0.046
    1UNL    H31   98  -0.267   0.028  -0.081
    1UNL    H32   99  -0.214  -0.134  -0.037
    1UNL    H33  100  -0.146  -0.001  -0.298
    1UNL    H34  101  -0.299  -0.179  -0.287
    1UNL    H35  102   0.045  -0.215  -0.262
    1UNL    H36  103   0.030  -0.055  -0.428
    1UNL    H37  104   0.185  -0.048  -0.355
    1UNL    H38  105   0.061   0.087  -0.324
    1UNL    H39  106   0.160  -0.015  -0.107
    1UNL    H40  107   0.067  -0.241   0.081
    1UNL    H41  108   0.122  -0.300  -0.064
    1UNL    H42  109   0.527  -0.094  -0.136
    1UNL    H43  110   0.522  -0.212  -0.004
    1UNL    H44  111   0.396   0.003   0.122
    1UNL    H45  112   0.311   0.514  -0.127
    1UNL    H46  113   0.221   0.393  -0.036
    1UNL    H47  114   0.222   0.403  -0.215
    1UNL    H48  115   0.615   0.274  -0.094
    1UNL    H49  116   0.743  -0.087  -0.015
    1UNL    H50  117   1.011  -0.137   0.122
    1UNL    H51  118   1.076  -0.144  -0.212
    1UNL    H52  119   1.136   0.067  -0.305
    1UNL    H53  120   1.112   0.174  -0.164
    1UNL    H54  121   0.888   0.095  -0.192
    1UNL    H55  122   1.291  -0.074  -0.115
    1UNL    H56  123   1.189  -0.275  -0.049
    1UNL    H57  124   1.261   0.138   0.031
    1UNL    H58  125   1.272  -0.105   0.167
    1UNL    H59  126   1.071   0.107   0.218
    1UNL    H60  127   0.903   0.187   0.051
    1UNL    H61  128   0.709  -0.077   0.315
    1UNL    H62  129   0.510  -0.152   0.413
    1UNL    H63  130   0.498   0.021   0.434
    1UNL    H64  131   0.407  -0.077   0.303
   0.00000   0.00000   0.00000   0.00000   0.00000   0.00000   0.00000   0.00000   0.00000
Generated with MDTraj, t= 76.0
 131
    1UNL     C1    1  -0.641   0.405   0.070
    1UNL     C2    2  -0.608   0.304   0.168
    1UNL     C3    3  -0.653   0.179   0.179
    1UNL     C4    4  -0.723   0.116   0.059
    1UNL     O1    5  -0.639   0.030   0.003
    1UNL     C5    6  -0.707  -0.048  -0.100
    1UNL     O2    7  -0.773   0.020  -0.208
    1UNL     C6    8  -0.860  -0.050  -0.289
    1UNL     C7    9  -0.922   0.057  -0.386
    1UNL     O3   10  -1.007  -0.004  -0.483
    1UNL     C8   11  -0.791  -0.167  -0.359
    1UNL     O4   12  -0.884  -0.249  -0.431
    1UNL     C9   13  -0.709  -0.250  -0.253
    1UNL     O5   14  -0.791  -0.344  -0.171
    1UNL    C10   15  -0.621  -0.164  -0.154
    1UNL     O6   16  -0.515  -0.098  -0.227
    1UNL     O7   17  -0.845   0.050   0.089
    1UNL    C11   18  -0.850  -0.005   0.218
    1UNL    C12   19  -0.760   0.003   0.319
    1UNL    C13   20  -0.773  -0.084   0.440
    1UNL     O8   21  -0.686  -0.079   0.526
    1UNL     O9   22  -0.875  -0.176   0.447
    1UNL    C14   23  -0.864  -0.266   0.551
    1UNL    C15   24  -0.629   0.080   0.289
    1UNL    C16   25  -0.509  -0.019   0.279
    1UNL    C17   26  -0.377   0.058   0.264
    1UNL    O10   27  -0.383   0.173   0.309
    1UNL    O11   28  -0.280  -0.002   0.197
    1UNL    C18   29  -0.160   0.068   0.218
    1UNL    C19   30  -0.048  -0.015   0.145
    1UNL    C20   31   0.097   0.016   0.194
    1UNL    C21   32  -0.063   0.012  -0.007
    1UNL    C22   33  -0.188  -0.026  -0.077
    1UNL    C23   34  -0.159  -0.060  -0.220
    1UNL    O12   35  -0.229  -0.162  -0.289
    1UNL    C24   36  -0.009  -0.086  -0.230
    1UNL    C25   37   0.045  -0.001  -0.339
    1UNL    C26   38   0.050  -0.054  -0.088
    1UNL    C27   39   0.100  -0.192  -0.027
    1UNL    O13   40   0.233  -0.176   0.012
    1UNL    C28   41   0.322  -0.152  -0.090
    1UNL    O14   42   0.299  -0.146  -0.209
    1UNL    C29   43   0.466  -0.137  -0.043
    1UNL    C30   44   0.485  -0.017   0.044
    1UNL    C31   45   0.494   0.122  -0.026
    1UNL    C32   46   0.373   0.201  -0.053
    1UNL    O15   47   0.265   0.156  -0.018
    1UNL    O16   48   0.382   0.332  -0.086
    1UNL    C33   49   0.261   0.399  -0.083
    1UNL    C34   50   0.614   0.177  -0.056
    1UNL    O17   51   0.739   0.125  -0.020
    1UNL    C35   52   0.735  -0.002   0.056
    1UNL    O18   53   0.847  -0.033   0.143
    1UNL    C36   54   0.963  -0.048   0.080
    1UNL    O19   55   0.957  -0.061  -0.064
    1UNL    C37   56   1.084  -0.056  -0.132
    1UNL    C38   57   1.085   0.075  -0.231
    1UNL    O20   58   0.964   0.102  -0.290
    1UNL    C39   59   1.206  -0.071  -0.044
    1UNL    O21   60   1.200  -0.202  -0.000
    1UNL    C40   61   1.207   0.034   0.072
    1UNL    O22   62   1.283  -0.016   0.180
    1UNL    C41   63   1.059   0.069   0.108
    1UNL    O23   64   1.009   0.178   0.030
    1UNL    C42   65   0.603  -0.019   0.129
    1UNL    C43   66   0.596  -0.014   0.265
    1UNL    C44   67   0.480  -0.021   0.352
    1UNL     H1   68  -0.581   0.496   0.086
    1UNL     H2   69  -0.629   0.364  -0.029
    1UNL     H3   70  -0.746   0.429   0.071
    1UNL     H4   71  -0.553   0.355   0.250
    1UNL     H5   72  -0.742   0.193  -0.016
    1UNL     H6   73  -0.793  -0.088  -0.038
    1UNL     H7   74  -0.949  -0.094  -0.223
    1UNL     H8   75  -0.838   0.104  -0.446
    1UNL     H9   76  -0.976   0.143  -0.333
    1UNL    H10   77  -1.036   0.065  -0.543
    1UNL    H11   78  -0.723  -0.115  -0.430
    1UNL    H12   79  -0.957  -0.192  -0.458
    1UNL    H13   80  -0.645  -0.314  -0.315
    1UNL    H14   81  -0.831  -0.410  -0.231
    1UNL    H15   82  -0.579  -0.217  -0.070
    1UNL    H16   83  -0.544  -0.003  -0.240
    1UNL    H17   84  -0.939  -0.062   0.234
    1UNL    H18   85  -0.759  -0.299   0.569
    1UNL    H19   86  -0.939  -0.350   0.529
    1UNL    H20   87  -0.891  -0.220   0.646
    1UNL    H21   88  -0.602   0.141   0.377
    1UNL    H22   89  -0.506  -0.090   0.370
    1UNL    H23   90  -0.537  -0.078   0.194
    1UNL    H24   91  -0.172   0.169   0.179
    1UNL    H25   92  -0.148   0.067   0.333
    1UNL    H26   93  -0.069  -0.116   0.153
    1UNL    H27   94   0.096   0.104   0.254
    1UNL    H28   95   0.146  -0.063   0.246
    1UNL    H29   96   0.165   0.041   0.114
    1UNL    H30   97  -0.048   0.118  -0.018
    1UNL    H31   98  -0.272   0.052  -0.058
    1UNL    H32   99  -0.230  -0.111  -0.027
    1UNL    H33  100  -0.188   0.030  -0.274
    1UNL    H34  101  -0.327  -0.159  -0.258
    1UNL    H35  102  -0.014  -0.197  -0.252
    1UNL    H36  103   0.022  -0.038  -0.434
    1UNL    H37  104   0.154  -0.005  -0.329
    1UNL    H38  105   0.010   0.105  -0.342
    1UNL    H39  106   0.141   0.010  -0.106
    1UNL    H40  107   0.053  -0.256   0.059
    1UNL    H41  108   0.093  -0.276  -0.098
    1UNL    H42  109   0.533  -0.142  -0.127
    1UNL    H43  110   0.486  -0.228   0.023
    1UNL    H44  111   0.393  -0.007   0.100
    1UNL    H45  112   0.290   0.494  -0.031
    1UNL    H46  113   0.186   0.344  -0.034
    1UNL    H47  114   0.241   0.440  -0.182
    1UNL    H48  115   0.624   0.269  -0.106
    1UNL    H49  116   0.743  -0.078  -0.019
    1UNL    H50  117   1.007  -0.136   0.133
    1UNL    H51  118   1.072  -0.142  -0.198
    1UNL    H52  119   1.161   0.091  -0.308
    1UNL    H53  120   1.101   0.163  -0.156
    1UNL    H54  121   0.902   0.098  -0.211
    1UNL    H55  122   1.286  -0.044  -0.110
    1UNL    H56  123   1.197  -0.268  -0.073
    1UNL    H57  124   1.257   0.131   0.043
    1UNL    H58  125   1.281  -0.114   0.181
    1UNL    H59  126   1.043   0.089   0.214
    1UNL    H60  127   0.911   0.162   0.019
    1UNL    H61  128   0.689  -0.015   0.310
    1UNL    H62  129   0.500  -0.069   0.448
    1UNL    H63  130   0.431   0.073   0.385
    1UNL    H64  131   0.408  -0.092   0.313
   0.00000   0.00000   0.00000   0.00000   0.00000   0.00000   0.00000   0.00000   0.00000
Generated with MDTraj, t= 77.0
 131
    1UNL     C1    1  -0.606   0.402   0.071
    1UNL     C2    2  -0.615   0.306   0.181
    1UNL     C3    3  -0.659   0.182   0.171
    1UNL     C4    4  -0.725   0.108   0.053
    1UNL     O1    5  -0.647   0.002   0.013
    1UNL     C5    6  -0.714  -0.059  -0.097
    1UNL     O2    7  -0.766   0.028  -0.196
    1UNL     C6    8  -0.843  -0.054  -0.293
    1UNL     C7    9  -0.902   0.030  -0.400
    1UNL     O3   10  -0.996  -0.028  -0.483
    1UNL     C8   11  -0.778  -0.182  -0.363
    1UNL     O4   12  -0.873  -0.261  -0.429
    1UNL     C9   13  -0.700  -0.260  -0.252
    1UNL     O5   14  -0.793  -0.338  -0.172
    1UNL    C10   15  -0.627  -0.165  -0.162
    1UNL     O6   16  -0.534  -0.086  -0.238
    1UNL     O7   17  -0.856   0.056   0.087
    1UNL    C11   18  -0.854  -0.005   0.209
    1UNL    C12   19  -0.750  -0.010   0.301
    1UNL    C13   20  -0.761  -0.093   0.420
    1UNL     O8   21  -0.684  -0.070   0.511
    1UNL     O9   22  -0.861  -0.184   0.425
    1UNL    C14   23  -0.880  -0.248   0.551
    1UNL    C15   24  -0.637   0.084   0.289
    1UNL    C16   25  -0.499   0.005   0.289
    1UNL    C17   26  -0.369   0.068   0.287
    1UNL    O10   27  -0.358   0.188   0.311
    1UNL    O11   28  -0.262  -0.015   0.237
    1UNL    C18   29  -0.136   0.051   0.233
    1UNL    C19   30  -0.036  -0.026   0.149
    1UNL    C20   31   0.107   0.006   0.188
    1UNL    C21   32  -0.056   0.006  -0.001
    1UNL    C22   33  -0.198  -0.005  -0.051
    1UNL    C23   34  -0.188  -0.025  -0.203
    1UNL    O12   35  -0.255  -0.138  -0.258
    1UNL    C24   36  -0.037  -0.058  -0.239
    1UNL    C25   37   0.017   0.032  -0.349
    1UNL    C26   38   0.040  -0.051  -0.104
    1UNL    C27   39   0.097  -0.194  -0.071
    1UNL    O13   40   0.223  -0.184  -0.010
    1UNL    C28   41   0.315  -0.149  -0.104
    1UNL    O14   42   0.294  -0.121  -0.219
    1UNL    C29   43   0.451  -0.137  -0.041
    1UNL    C30   44   0.478  -0.021   0.050
    1UNL    C31   45   0.487   0.110  -0.025
    1UNL    C32   46   0.371   0.192  -0.042
    1UNL    O15   47   0.260   0.148  -0.021
    1UNL    O16   48   0.388   0.329  -0.071
    1UNL    C33   49   0.263   0.395  -0.088
    1UNL    C34   50   0.612   0.168  -0.046
    1UNL    O17   51   0.731   0.105  -0.027
    1UNL    C35   52   0.731  -0.009   0.060
    1UNL    O18   53   0.846  -0.028   0.143
    1UNL    C36   54   0.965  -0.038   0.078
    1UNL    O19   55   0.961  -0.068  -0.069
    1UNL    C37   56   1.081  -0.062  -0.143
    1UNL    C38   57   1.077   0.066  -0.222
    1UNL    O20   58   0.948   0.089  -0.267
    1UNL    C39   59   1.207  -0.079  -0.047
    1UNL    O21   60   1.200  -0.209   0.010
    1UNL    C40   61   1.214   0.031   0.065
    1UNL    O22   62   1.302  -0.006   0.168
    1UNL    C41   63   1.069   0.077   0.109
    1UNL    O23   64   1.017   0.198   0.042
    1UNL    C42   65   0.600  -0.018   0.134
    1UNL    C43   66   0.598  -0.010   0.270
    1UNL    C44   67   0.475   0.005   0.350
    1UNL     H1   68  -0.599   0.506   0.111
    1UNL     H2   69  -0.524   0.372   0.009
    1UNL     H3   70  -0.688   0.388   0.005
    1UNL     H4   71  -0.574   0.332   0.275
    1UNL     H5   72  -0.730   0.178  -0.029
    1UNL     H6   73  -0.797  -0.115  -0.042
    1UNL     H7   74  -0.928  -0.099  -0.222
    1UNL     H8   75  -0.817   0.064  -0.468
    1UNL     H9   76  -0.954   0.121  -0.354
    1UNL    H10   77  -1.010   0.023  -0.563
    1UNL    H11   78  -0.698  -0.157  -0.435
    1UNL    H12   79  -0.940  -0.204  -0.468
    1UNL    H13   80  -0.631  -0.334  -0.297
    1UNL    H14   81  -0.857  -0.374  -0.239
    1UNL    H15   82  -0.580  -0.224  -0.083
    1UNL    H16   83  -0.577  -0.002  -0.254
    1UNL    H17   84  -0.950  -0.053   0.230
    1UNL    H18   85  -0.814  -0.333   0.559
    1UNL    H19   86  -0.989  -0.274   0.560
    1UNL    H20   87  -0.847  -0.187   0.630
    1UNL    H21   88  -0.638   0.137   0.387
    1UNL    H22   89  -0.509  -0.067   0.376
    1UNL    H23   90  -0.505  -0.058   0.202
    1UNL    H24   91  -0.163   0.148   0.197
    1UNL    H25   92  -0.100   0.056   0.341
    1UNL    H26   93  -0.057  -0.127   0.168
    1UNL    H27   94   0.149   0.083   0.134
    1UNL    H28   95   0.121   0.016   0.293
    1UNL    H29   96   0.164  -0.089   0.171
    1UNL    H30   97  -0.047   0.113  -0.004
    1UNL    H31   98  -0.263   0.084  -0.012
    1UNL    H32   99  -0.247  -0.085  -0.006
    1UNL    H33  100  -0.212   0.070  -0.255
    1UNL    H34  101  -0.348  -0.120  -0.255
    1UNL    H35  102  -0.052  -0.164  -0.277
    1UNL    H36  103  -0.049   0.047  -0.430
    1UNL    H37  104   0.112  -0.002  -0.393
    1UNL    H38  105   0.033   0.137  -0.317
    1UNL    H39  106   0.132   0.014  -0.108
    1UNL    H40  107   0.016  -0.261  -0.024
    1UNL    H41  108   0.111  -0.254  -0.158
    1UNL    H42  109   0.526  -0.143  -0.120
    1UNL    H43  110   0.466  -0.226   0.027
    1UNL    H44  111   0.385  -0.011   0.106
    1UNL    H45  112   0.277   0.507  -0.105
    1UNL    H46  113   0.193   0.366  -0.013
    1UNL    H47  114   0.229   0.353  -0.184
    1UNL    H48  115   0.617   0.250  -0.113
    1UNL    H49  116   0.733  -0.094  -0.007
    1UNL    H50  117   1.014  -0.127   0.123
    1UNL    H51  118   1.073  -0.149  -0.203
    1UNL    H52  119   1.143   0.040  -0.304
    1UNL    H53  120   1.127   0.157  -0.168
    1UNL    H54  121   0.885   0.081  -0.189
    1UNL    H55  122   1.296  -0.074  -0.107
    1UNL    H56  123   1.189  -0.282  -0.057
    1UNL    H57  124   1.269   0.123   0.031
    1UNL    H58  125   1.291  -0.101   0.187
    1UNL    H59  126   1.073   0.096   0.214
    1UNL    H60  127   0.924   0.180   0.027
    1UNL    H61  128   0.698  -0.022   0.318
    1UNL    H62  129   0.493   0.021   0.458
    1UNL    H63  130   0.413   0.091   0.317
    1UNL    H64  131   0.426  -0.091   0.337
   0.00000   0.00000   0.00000   0.00000   0.00000   0.00000   0.00000   0.00000   0.00000
Generated with MDTraj, t= 78.0
 131
    1UNL     C1    1  -0.601   0.387   0.050
    1UNL     C2    2  -0.581   0.294   0.163
    1UNL     C3    3  -0.626   0.170   0.172
    1UNL     C4    4  -0.708   0.108   0.052
    1UNL     O1    5  -0.638   0.006  -0.006
    1UNL     C5    6  -0.718  -0.069  -0.095
    1UNL     O2    7  -0.783   0.012  -0.194
    1UNL     C6    8  -0.866  -0.064  -0.287
    1UNL     C7    9  -0.919   0.034  -0.387
    1UNL     O3   10  -0.990  -0.033  -0.488
    1UNL     C8   11  -0.784  -0.186  -0.357
    1UNL     O4   12  -0.859  -0.273  -0.433
    1UNL     C9   13  -0.706  -0.260  -0.241
    1UNL     O5   14  -0.806  -0.330  -0.161
    1UNL    C10   15  -0.623  -0.165  -0.160
    1UNL     O6   16  -0.539  -0.081  -0.256
    1UNL     O7   17  -0.837   0.073   0.103
    1UNL    C11   18  -0.847   0.008   0.223
    1UNL    C12   19  -0.744  -0.005   0.309
    1UNL    C13   20  -0.758  -0.087   0.426
    1UNL     O8   21  -0.661  -0.102   0.501
    1UNL     O9   22  -0.880  -0.146   0.434
    1UNL    C14   23  -0.883  -0.248   0.536
    1UNL    C15   24  -0.615   0.071   0.288
    1UNL    C16   25  -0.492  -0.019   0.255
    1UNL    C17   26  -0.362   0.056   0.261
    1UNL    O10   27  -0.348   0.171   0.291
    1UNL    O11   28  -0.271  -0.021   0.211
    1UNL    C18   29  -0.146   0.040   0.230
    1UNL    C19   30  -0.030  -0.029   0.155
    1UNL    C20   31   0.106   0.020   0.210
    1UNL    C21   32  -0.052   0.010   0.007
    1UNL    C22   33  -0.199  -0.011  -0.050
    1UNL    C23   34  -0.186  -0.028  -0.203
    1UNL    O12   35  -0.237  -0.148  -0.245
    1UNL    C24   36  -0.032  -0.024  -0.235
    1UNL    C25   37   0.010   0.103  -0.320
    1UNL    C26   38   0.044  -0.037  -0.103
    1UNL    C27   39   0.109  -0.178  -0.077
    1UNL    O13   40   0.230  -0.172  -0.002
    1UNL    C28   41   0.322  -0.133  -0.096
    1UNL    O14   42   0.291  -0.109  -0.210
    1UNL    C29   43   0.453  -0.129  -0.027
    1UNL    C30   44   0.481  -0.006   0.057
    1UNL    C31   45   0.498   0.121  -0.020
    1UNL    C32   46   0.375   0.189  -0.050
    1UNL    O15   47   0.267   0.160   0.002
    1UNL    O16   48   0.394   0.314  -0.108
    1UNL    C33   49   0.285   0.399  -0.107
    1UNL    C34   50   0.618   0.157  -0.059
    1UNL    O17   51   0.732   0.087  -0.031
    1UNL    C35   52   0.729  -0.024   0.059
    1UNL    O18   53   0.840  -0.020   0.145
    1UNL    C36   54   0.957  -0.039   0.089
    1UNL    O19   55   0.945  -0.098  -0.052
    1UNL    C37   56   1.056  -0.066  -0.138
    1UNL    C38   57   1.045   0.067  -0.209
    1UNL    O20   58   0.909   0.076  -0.260
    1UNL    C39   59   1.194  -0.079  -0.052
    1UNL    O21   60   1.195  -0.208   0.015
    1UNL    C40   61   1.192   0.040   0.053
    1UNL    O22   62   1.290   0.015   0.145
    1UNL    C41   63   1.052   0.076   0.107
    1UNL    O23   64   0.985   0.195   0.057
    1UNL    C42   65   0.606  -0.024   0.138
    1UNL    C43   66   0.609  -0.032   0.276
    1UNL    C44   67   0.495  -0.010   0.366
    1UNL     H1   68  -0.532   0.472   0.051
    1UNL     H2   69  -0.587   0.330  -0.040
    1UNL     H3   70  -0.703   0.416   0.040
    1UNL     H4   71  -0.525   0.325   0.253
    1UNL     H5   72  -0.719   0.179  -0.027
    1UNL     H6   73  -0.788  -0.123  -0.025
    1UNL     H7   74  -0.960  -0.112  -0.231
    1UNL     H8   75  -0.837   0.097  -0.430
    1UNL     H9   76  -0.993   0.099  -0.332
    1UNL    H10   77  -1.010   0.019  -0.572
    1UNL    H11   78  -0.707  -0.142  -0.425
    1UNL    H12   79  -0.919  -0.213  -0.487
    1UNL    H13   80  -0.639  -0.345  -0.273
    1UNL    H14   81  -0.869  -0.373  -0.219
    1UNL    H15   82  -0.555  -0.224  -0.095
    1UNL    H16   83  -0.590   0.002  -0.274
    1UNL    H17   84  -0.939  -0.047   0.240
    1UNL    H18   85  -0.785  -0.285   0.542
    1UNL    H19   86  -0.959  -0.325   0.516
    1UNL    H20   87  -0.901  -0.203   0.627
    1UNL    H21   88  -0.592   0.127   0.380
    1UNL    H22   89  -0.483  -0.111   0.319
    1UNL    H23   90  -0.501  -0.061   0.153
    1UNL    H24   91  -0.149   0.142   0.203
    1UNL    H25   92  -0.137   0.036   0.343
    1UNL    H26   93  -0.032  -0.133   0.165
    1UNL    H27   94   0.095   0.121   0.240
    1UNL    H28   95   0.145  -0.043   0.285
    1UNL    H29   96   0.181   0.016   0.129
    1UNL    H30   97  -0.056   0.117   0.012
    1UNL    H31   98  -0.270   0.078  -0.032
    1UNL    H32   99  -0.246  -0.094  -0.005
    1UNL    H33  100  -0.227   0.061  -0.262
    1UNL    H34  101  -0.336  -0.136  -0.258
    1UNL    H35  102  -0.010  -0.110  -0.304
    1UNL    H36  103  -0.060   0.119  -0.404
    1UNL    H37  104   0.111   0.089  -0.362
    1UNL    H38  105  -0.001   0.196  -0.267
    1UNL    H39  106   0.136   0.027  -0.112
    1UNL    H40  107   0.032  -0.250  -0.037
    1UNL    H41  108   0.121  -0.222  -0.172
    1UNL    H42  109   0.529  -0.121  -0.106
    1UNL    H43  110   0.464  -0.226   0.027
    1UNL    H44  111   0.392   0.004   0.120
    1UNL    H45  112   0.294   0.457  -0.208
    1UNL    H46  113   0.278   0.463  -0.022
    1UNL    H47  114   0.196   0.333  -0.107
    1UNL    H48  115   0.627   0.252  -0.114
    1UNL    H49  116   0.731  -0.111  -0.009
    1UNL    H50  117   0.992  -0.128   0.142
    1UNL    H51  118   1.052  -0.135  -0.216
    1UNL    H52  119   1.123   0.071  -0.282
    1UNL    H53  120   1.068   0.152  -0.130
    1UNL    H54  121   0.844   0.069  -0.185
    1UNL    H55  122   1.280  -0.075  -0.118
    1UNL    H56  123   1.187  -0.282  -0.052
    1UNL    H57  124   1.230   0.132   0.003
    1UNL    H58  125   1.293  -0.082   0.158
    1UNL    H59  126   1.052   0.094   0.211
    1UNL    H60  127   0.895   0.170   0.026
    1UNL    H61  128   0.709  -0.044   0.314
    1UNL    H62  129   0.510  -0.056   0.467
    1UNL    H63  130   0.479   0.099   0.382
    1UNL    H64  131   0.414  -0.066   0.319
   0.00000   0.00000   0.00000   0.00000   0.00000   0.00000   0.00000   0.00000   0.00000
Generated with MDTraj, t= 79.0
 131
    1UNL     C1    1  -0.571   0.379   0.051
    1UNL     C2    2  -0.568   0.286   0.160
    1UNL     C3    3  -0.632   0.171   0.160
    1UNL     C4    4  -0.713   0.110   0.045
    1UNL     O1    5  -0.635   0.013  -0.027
    1UNL     C5    6  -0.712  -0.066  -0.113
    1UNL     O2    7  -0.767   0.015  -0.217
    1UNL     C6    8  -0.865  -0.060  -0.285
    1UNL     C7    9  -0.934   0.040  -0.379
    1UNL     O3   10  -1.019  -0.021  -0.481
    1UNL     C8   11  -0.795  -0.186  -0.357
    1UNL     O4   12  -0.887  -0.277  -0.409
    1UNL     C9   13  -0.709  -0.265  -0.254
    1UNL     O5   14  -0.789  -0.356  -0.173
    1UNL    C10   15  -0.627  -0.182  -0.164
    1UNL     O6   16  -0.501  -0.130  -0.216
    1UNL     O7   17  -0.842   0.079   0.091
    1UNL    C11   18  -0.843   0.010   0.211
    1UNL    C12   19  -0.745  -0.001   0.300
    1UNL    C13   20  -0.761  -0.091   0.414
    1UNL     O8   21  -0.655  -0.114   0.473
    1UNL     O9   22  -0.883  -0.144   0.450
    1UNL    C14   23  -0.871  -0.228   0.558
    1UNL    C15   24  -0.616   0.077   0.274
    1UNL    C16   25  -0.502  -0.025   0.245
    1UNL    C17   26  -0.359   0.038   0.263
    1UNL    O10   27  -0.344   0.153   0.299
    1UNL    O11   28  -0.253  -0.048   0.219
    1UNL    C18   29  -0.136   0.009   0.249
    1UNL    C19   30  -0.026  -0.031   0.152
    1UNL    C20   31   0.100   0.042   0.184
    1UNL    C21   32  -0.055   0.026   0.011
    1UNL    C22   33  -0.192   0.008  -0.048
    1UNL    C23   34  -0.176  -0.005  -0.208
    1UNL    O12   35  -0.210  -0.137  -0.246
    1UNL    C24   36  -0.022   0.014  -0.236
    1UNL    C25   37   0.005   0.145  -0.322
    1UNL    C26   38   0.052  -0.015  -0.103
    1UNL    C27   39   0.097  -0.165  -0.101
    1UNL    O13   40   0.201  -0.184  -0.003
    1UNL    C28   41   0.310  -0.137  -0.068
    1UNL    O14   42   0.315  -0.087  -0.180
    1UNL    C29   43   0.442  -0.136   0.011
    1UNL    C30   44   0.467  -0.002   0.081
    1UNL    C31   45   0.497   0.117  -0.006
    1UNL    C32   46   0.383   0.204  -0.042
    1UNL    O15   47   0.284   0.210   0.032
    1UNL    O16   48   0.403   0.300  -0.142
    1UNL    C33   49   0.302   0.390  -0.156
    1UNL    C34   50   0.621   0.145  -0.047
    1UNL    O17   51   0.736   0.087  -0.007
    1UNL    C35   52   0.725  -0.025   0.087
    1UNL    O18   53   0.842  -0.050   0.168
    1UNL    C36   54   0.954  -0.053   0.090
    1UNL    O19   55   0.940  -0.073  -0.055
    1UNL    C37   56   1.053  -0.062  -0.138
    1UNL    C38   57   1.022   0.044  -0.244
    1UNL    O20   58   0.880   0.047  -0.282
    1UNL    C39   59   1.190  -0.063  -0.060
    1UNL    O21   60   1.210  -0.180   0.003
    1UNL    C40   61   1.192   0.055   0.042
    1UNL    O22   62   1.298   0.030   0.136
    1UNL    C41   63   1.045   0.074   0.111
    1UNL    O23   64   0.983   0.183   0.042
    1UNL    C42   65   0.590  -0.015   0.162
    1UNL    C43   66   0.582  -0.042   0.294
    1UNL    C44   67   0.465  -0.066   0.365
    1UNL     H1   68  -0.472   0.409   0.019
    1UNL     H2   69  -0.623   0.334  -0.031
    1UNL     H3   70  -0.625   0.468   0.074
    1UNL     H4   71  -0.498   0.297   0.239
    1UNL     H5   72  -0.727   0.184  -0.030
    1UNL     H6   73  -0.785  -0.102  -0.038
    1UNL     H7   74  -0.945  -0.103  -0.207
    1UNL     H8   75  -0.855   0.103  -0.423
    1UNL     H9   76  -0.997   0.111  -0.323
    1UNL    H10   77  -1.068   0.051  -0.534
    1UNL    H11   78  -0.735  -0.154  -0.445
    1UNL    H12   79  -0.959  -0.224  -0.451
    1UNL    H13   80  -0.645  -0.332  -0.317
    1UNL    H14   81  -0.880  -0.363  -0.214
    1UNL    H15   82  -0.594  -0.245  -0.077
    1UNL    H16   83  -0.533  -0.066  -0.282
    1UNL    H17   84  -0.932  -0.044   0.236
    1UNL    H18   85  -0.784  -0.288   0.536
    1UNL    H19   86  -0.965  -0.285   0.568
    1UNL    H20   87  -0.861  -0.169   0.645
    1UNL    H21   88  -0.588   0.139   0.361
    1UNL    H22   89  -0.498  -0.106   0.320
    1UNL    H23   90  -0.505  -0.076   0.145
    1UNL    H24   91  -0.153   0.111   0.237
    1UNL    H25   92  -0.111  -0.012   0.354
    1UNL    H26   93  -0.004  -0.134   0.158
    1UNL    H27   94   0.093   0.149   0.159
    1UNL    H28   95   0.114   0.043   0.288
    1UNL    H29   96   0.189   0.000   0.148
    1UNL    H30   97  -0.045   0.133   0.019
    1UNL    H31   98  -0.253   0.096  -0.019
    1UNL    H32   99  -0.236  -0.085  -0.012
    1UNL    H33  100  -0.252   0.066  -0.260
    1UNL    H34  101  -0.303  -0.152  -0.219
    1UNL    H35  102   0.001  -0.081  -0.292
    1UNL    H36  103  -0.020   0.129  -0.432
    1UNL    H37  104   0.111   0.167  -0.307
    1UNL    H38  105  -0.061   0.224  -0.295
    1UNL    H39  106   0.151   0.036  -0.093
    1UNL    H40  107   0.004  -0.222  -0.076
    1UNL    H41  108   0.138  -0.202  -0.191
    1UNL    H42  109   0.519  -0.158  -0.067
    1UNL    H43  110   0.449  -0.211   0.091
    1UNL    H44  111   0.387   0.020   0.151
    1UNL    H45  112   0.344   0.470  -0.230
    1UNL    H46  113   0.268   0.434  -0.065
    1UNL    H47  114   0.215   0.337  -0.198
    1UNL    H48  115   0.627   0.227  -0.123
    1UNL    H49  116   0.730  -0.109   0.011
    1UNL    H50  117   1.015  -0.136   0.128
    1UNL    H51  118   1.036  -0.152  -0.189
    1UNL    H52  119   1.068   0.026  -0.336
    1UNL    H53  120   1.047   0.147  -0.195
    1UNL    H54  121   0.828   0.047  -0.199
    1UNL    H55  122   1.276  -0.047  -0.129
    1UNL    H56  123   1.218  -0.254  -0.062
    1UNL    H57  124   1.234   0.143  -0.008
    1UNL    H58  125   1.321  -0.065   0.128
    1UNL    H59  126   1.055   0.092   0.214
    1UNL    H60  127   0.894   0.152   0.017
    1UNL    H61  128   0.680  -0.045   0.337
    1UNL    H62  129   0.487  -0.069   0.476
    1UNL    H63  130   0.385   0.011   0.362
    1UNL    H64  131   0.434  -0.170   0.345
   0.00000   0.00000   0.00000   0.00000   0.00000   0.00000   0.00000   0.00000   0.00000
Generated with MDTraj, t= 80.0
 131
    1UNL     C1    1  -0.537   0.375   0.059
    1UNL     C2    2  -0.557   0.277   0.170
    1UNL     C3    3  -0.613   0.157   0.151
    1UNL     C4    4  -0.693   0.103   0.031
    1UNL     O1    5  -0.632  -0.015  -0.017
    1UNL     C5    6  -0.719  -0.070  -0.110
    1UNL     O2    7  -0.757   0.013  -0.219
    1UNL     C6    8  -0.847  -0.059  -0.295
    1UNL     C7    9  -0.921   0.027  -0.401
    1UNL     O3   10  -1.046  -0.029  -0.430
    1UNL     C8   11  -0.798  -0.191  -0.358
    1UNL     O4   12  -0.904  -0.268  -0.410
    1UNL     C9   13  -0.720  -0.274  -0.254
    1UNL     O5   14  -0.822  -0.362  -0.193
    1UNL    C10   15  -0.639  -0.190  -0.158
    1UNL     O6   16  -0.522  -0.142  -0.228
    1UNL     O7   17  -0.830   0.071   0.069
    1UNL    C11   18  -0.828  -0.009   0.181
    1UNL    C12   19  -0.731  -0.011   0.282
    1UNL    C13   20  -0.743  -0.091   0.406
    1UNL     O8   21  -0.646  -0.102   0.482
    1UNL     O9   22  -0.867  -0.144   0.431
    1UNL    C14   23  -0.883  -0.191   0.559
    1UNL    C15   24  -0.601   0.059   0.265
    1UNL    C16   25  -0.484  -0.040   0.245
    1UNL    C17   26  -0.356   0.038   0.258
    1UNL    O10   27  -0.348   0.142   0.316
    1UNL    O11   28  -0.257  -0.033   0.208
    1UNL    C18   29  -0.139   0.036   0.225
    1UNL    C19   30  -0.026  -0.025   0.137
    1UNL    C20   31   0.119   0.019   0.184
    1UNL    C21   32  -0.055   0.040   0.001
    1UNL    C22   33  -0.193   0.022  -0.050
    1UNL    C23   34  -0.182   0.017  -0.204
    1UNL    O12   35  -0.224  -0.113  -0.246
    1UNL    C24   36  -0.034   0.030  -0.244
    1UNL    C25   37  -0.022   0.178  -0.302
    1UNL    C26   38   0.041  -0.003  -0.113
    1UNL    C27   39   0.087  -0.142  -0.105
    1UNL    O13   40   0.179  -0.154   0.003
    1UNL    C28   41   0.305  -0.110  -0.043
    1UNL    O14   42   0.314  -0.056  -0.152
    1UNL    C29   43   0.431  -0.128   0.028
    1UNL    C30   44   0.475  -0.001   0.107
    1UNL    C31   45   0.492   0.111   0.013
    1UNL    C32   46   0.380   0.190  -0.038
    1UNL    O15   47   0.266   0.189   0.006
    1UNL    O16   48   0.425   0.291  -0.132
    1UNL    C33   49   0.321   0.364  -0.182
    1UNL    C34   50   0.615   0.136  -0.040
    1UNL    O17   51   0.724   0.069  -0.016
    1UNL    C35   52   0.726  -0.029   0.093
    1UNL    O18   53   0.849  -0.022   0.173
    1UNL    C36   54   0.964  -0.037   0.099
    1UNL    O19   55   0.938  -0.090  -0.029
    1UNL    C37   56   1.038  -0.077  -0.135
    1UNL    C38   57   1.000   0.038  -0.236
    1UNL    O20   58   0.872   0.037  -0.269
    1UNL    C39   59   1.181  -0.062  -0.072
    1UNL    O21   60   1.221  -0.172   0.001
    1UNL    C40   61   1.189   0.061   0.020
    1UNL    O22   62   1.284   0.035   0.123
    1UNL    C41   63   1.051   0.090   0.094
    1UNL    O23   64   0.974   0.193   0.037
    1UNL    C42   65   0.606  -0.032   0.178
    1UNL    C43   66   0.610  -0.075   0.308
    1UNL    C44   67   0.502  -0.087   0.400
    1UNL     H1   68  -0.484   0.460   0.093
    1UNL     H2   69  -0.489   0.322  -0.026
    1UNL     H3   70  -0.630   0.414   0.023
    1UNL     H4   71  -0.499   0.298   0.261
    1UNL     H5   72  -0.692   0.183  -0.040
    1UNL     H6   73  -0.802  -0.114  -0.055
    1UNL     H7   74  -0.930  -0.086  -0.213
    1UNL     H8   75  -0.870   0.039  -0.495
    1UNL     H9   76  -0.931   0.127  -0.363
    1UNL    H10   77  -1.097   0.039  -0.476
    1UNL    H11   78  -0.730  -0.161  -0.440
    1UNL    H12   79  -0.979  -0.212  -0.434
    1UNL    H13   80  -0.651  -0.345  -0.305
    1UNL    H14   81  -0.907  -0.351  -0.240
    1UNL    H15   82  -0.599  -0.259  -0.076
    1UNL    H16   83  -0.527  -0.044  -0.223
    1UNL    H17   84  -0.913  -0.070   0.206
    1UNL    H18   85  -0.871  -0.301   0.545
    1UNL    H19   86  -0.986  -0.160   0.599
    1UNL    H20   87  -0.808  -0.146   0.623
    1UNL    H21   88  -0.591   0.112   0.361
    1UNL    H22   89  -0.491  -0.129   0.309
    1UNL    H23   90  -0.488  -0.083   0.138
    1UNL    H24   91  -0.149   0.137   0.208
    1UNL    H25   92  -0.115   0.024   0.330
    1UNL    H26   93  -0.039  -0.131   0.144
    1UNL    H27   94   0.111   0.118   0.233
    1UNL    H28   95   0.162  -0.040   0.259
    1UNL    H29   96   0.188   0.023   0.107
    1UNL    H30   97  -0.045   0.146   0.009
    1UNL    H31   98  -0.269   0.092  -0.025
    1UNL    H32   99  -0.218  -0.085  -0.020
    1UNL    H33  100  -0.243   0.102  -0.254
    1UNL    H34  101  -0.325  -0.122  -0.231
    1UNL    H35  102  -0.005  -0.044  -0.325
    1UNL    H36  103  -0.111   0.205  -0.369
    1UNL    H37  104   0.071   0.179  -0.358
    1UNL    H38  105  -0.024   0.257  -0.229
    1UNL    H39  106   0.133   0.059  -0.113
    1UNL    H40  107  -0.001  -0.205  -0.073
    1UNL    H41  108   0.134  -0.176  -0.195
    1UNL    H42  109   0.514  -0.133  -0.049
    1UNL    H43  110   0.424  -0.220   0.087
    1UNL    H44  111   0.396   0.036   0.176
    1UNL    H45  112   0.362   0.438  -0.259
    1UNL    H46  113   0.264   0.412  -0.108
    1UNL    H47  114   0.250   0.292  -0.224
    1UNL    H48  115   0.612   0.196  -0.128
    1UNL    H49  116   0.730  -0.125   0.030
    1UNL    H50  117   1.024  -0.111   0.151
    1UNL    H51  118   1.031  -0.170  -0.186
    1UNL    H52  119   1.051   0.019  -0.326
    1UNL    H53  120   1.013   0.145  -0.196
    1UNL    H54  121   0.818   0.044  -0.188
    1UNL    H55  122   1.261  -0.055  -0.151
    1UNL    H56  123   1.202  -0.250  -0.053
    1UNL    H57  124   1.207   0.150  -0.039
    1UNL    H58  125   1.311  -0.059   0.114
    1UNL    H59  126   1.057   0.134   0.190
    1UNL    H60  127   0.884   0.154   0.010
    1UNL    H61  128   0.713  -0.098   0.347
    1UNL    H62  129   0.526  -0.152   0.489
    1UNL    H63  130   0.471   0.010   0.444
    1UNL    H64  131   0.423  -0.147   0.348
   0.00000   0.00000   0.00000   0.00000   0.00000   0.00000   0.00000   0.00000   0.00000
Generated with MDTraj, t= 81.0
 131
    1UNL     C1    1  -0.546   0.368   0.026
    1UNL     C2    2  -0.537   0.265   0.140
    1UNL     C3    3  -0.606   0.149   0.145
    1UNL     C4    4  -0.682   0.089   0.026
    1UNL     O1    5  -0.612  -0.022  -0.029
    1UNL     C5    6  -0.697  -0.086  -0.118
    1UNL     O2    7  -0.770   0.001  -0.197
    1UNL     C6    8  -0.865  -0.068  -0.275
    1UNL     C7    9  -0.949   0.035  -0.362
    1UNL     O3   10  -1.042  -0.030  -0.442
    1UNL     C8   11  -0.808  -0.186  -0.353
    1UNL     O4   12  -0.893  -0.258  -0.438
    1UNL     C9   13  -0.740  -0.289  -0.260
    1UNL     O5   14  -0.837  -0.335  -0.164
    1UNL    C10   15  -0.628  -0.207  -0.189
    1UNL     O6   16  -0.530  -0.172  -0.287
    1UNL     O7   17  -0.817   0.056   0.064
    1UNL    C11   18  -0.823   0.013   0.192
    1UNL    C12   19  -0.731  -0.002   0.293
    1UNL    C13   20  -0.763  -0.083   0.415
    1UNL     O8   21  -0.676  -0.115   0.496
    1UNL     O9   22  -0.896  -0.125   0.435
    1UNL    C14   23  -0.909  -0.208   0.550
    1UNL    C15   24  -0.606   0.069   0.271
    1UNL    C16   25  -0.488  -0.032   0.275
    1UNL    C17   26  -0.355   0.025   0.273
    1UNL    O10   27  -0.330   0.126   0.335
    1UNL    O11   28  -0.244  -0.045   0.218
    1UNL    C18   29  -0.120   0.024   0.240
    1UNL    C19   30  -0.011  -0.001   0.137
    1UNL    C20   31   0.112   0.068   0.187
    1UNL    C21   32  -0.048   0.062  -0.001
    1UNL    C22   33  -0.193   0.032  -0.037
    1UNL    C23   34  -0.200   0.024  -0.194
    1UNL    O12   35  -0.220  -0.110  -0.239
    1UNL    C24   36  -0.053   0.054  -0.255
    1UNL    C25   37  -0.022   0.190  -0.317
    1UNL    C26   38   0.043   0.019  -0.130
    1UNL    C27   39   0.088  -0.123  -0.129
    1UNL    O13   40   0.184  -0.145  -0.020
    1UNL    C28   41   0.306  -0.108  -0.060
    1UNL    O14   42   0.333  -0.071  -0.174
    1UNL    C29   43   0.411  -0.138   0.044
    1UNL    C30   44   0.478  -0.007   0.112
    1UNL    C31   45   0.497   0.112   0.019
    1UNL    C32   46   0.385   0.189  -0.027
    1UNL    O15   47   0.275   0.180   0.023
    1UNL    O16   48   0.418   0.291  -0.112
    1UNL    C33   49   0.309   0.349  -0.163
    1UNL    C34   50   0.618   0.133  -0.038
    1UNL    O17   51   0.732   0.076  -0.008
    1UNL    C35   52   0.732  -0.024   0.091
    1UNL    O18   53   0.858  -0.032   0.173
    1UNL    C36   54   0.975  -0.041   0.094
    1UNL    O19   55   0.947  -0.102  -0.036
    1UNL    C37   56   1.044  -0.083  -0.135
    1UNL    C38   57   1.004   0.023  -0.233
    1UNL    O20   58   0.871   0.014  -0.266
    1UNL    C39   59   1.185  -0.064  -0.075
    1UNL    O21   60   1.214  -0.167   0.026
    1UNL    C40   61   1.184   0.068   0.010
    1UNL    O22   62   1.286   0.055   0.114
    1UNL    C41   63   1.051   0.098   0.085
    1UNL    O23   64   0.978   0.197   0.019
    1UNL    C42   65   0.604  -0.038   0.174
    1UNL    C43   66   0.619  -0.076   0.308
    1UNL    C44   67   0.514  -0.083   0.417
    1UNL     H1   68  -0.600   0.453   0.058
    1UNL     H2   69  -0.452   0.385  -0.027
    1UNL     H3   70  -0.607   0.330  -0.056
    1UNL     H4   71  -0.472   0.293   0.219
    1UNL     H5   72  -0.683   0.156  -0.059
    1UNL     H6   73  -0.772  -0.128  -0.051
    1UNL     H7   74  -0.930  -0.121  -0.189
    1UNL     H8   75  -0.882   0.086  -0.427
    1UNL     H9   76  -1.002   0.110  -0.308
    1UNL    H10   77  -1.099   0.032  -0.486
    1UNL    H11   78  -0.730  -0.143  -0.419
    1UNL    H12   79  -0.962  -0.196  -0.477
    1UNL    H13   80  -0.703  -0.374  -0.320
    1UNL    H14   81  -0.925  -0.339  -0.204
    1UNL    H15   82  -0.569  -0.264  -0.112
    1UNL    H16   83  -0.567  -0.095  -0.337
    1UNL    H17   84  -0.919  -0.036   0.209
    1UNL    H18   85  -0.824  -0.281   0.538
    1UNL    H19   86  -1.009  -0.265   0.547
    1UNL    H20   87  -0.912  -0.142   0.639
    1UNL    H21   88  -0.601   0.140   0.354
    1UNL    H22   89  -0.501  -0.106   0.354
    1UNL    H23   90  -0.514  -0.093   0.180
    1UNL    H24   91  -0.144   0.124   0.240
    1UNL    H25   92  -0.087   0.005   0.344
    1UNL    H26   93  -0.000  -0.107   0.137
    1UNL    H27   94   0.099   0.175   0.182
    1UNL    H28   95   0.134   0.045   0.287
    1UNL    H29   96   0.189   0.036   0.115
    1UNL    H30   97  -0.038   0.168   0.003
    1UNL    H31   98  -0.244   0.119  -0.014
    1UNL    H32   99  -0.241  -0.063   0.007
    1UNL    H33  100  -0.272   0.099  -0.246
    1UNL    H34  101  -0.314  -0.124  -0.257
    1UNL    H35  102  -0.038  -0.014  -0.343
    1UNL    H36  103  -0.099   0.223  -0.392
    1UNL    H37  104   0.076   0.192  -0.361
    1UNL    H38  105  -0.027   0.276  -0.249
    1UNL    H39  106   0.133   0.083  -0.132
    1UNL    H40  107  -0.002  -0.191  -0.121
    1UNL    H41  108   0.145  -0.149  -0.216
    1UNL    H42  109   0.486  -0.208  -0.005
    1UNL    H43  110   0.368  -0.187   0.131
    1UNL    H44  111   0.401   0.036   0.180
    1UNL    H45  112   0.338   0.443  -0.215
    1UNL    H46  113   0.235   0.363  -0.089
    1UNL    H47  114   0.265   0.278  -0.230
    1UNL    H48  115   0.641   0.210  -0.105
    1UNL    H49  116   0.746  -0.113   0.017
    1UNL    H50  117   1.038  -0.117   0.140
    1UNL    H51  118   1.052  -0.175  -0.191
    1UNL    H52  119   1.061   0.022  -0.320
    1UNL    H53  120   1.019   0.128  -0.187
    1UNL    H54  121   0.814   0.018  -0.185
    1UNL    H55  122   1.270  -0.078  -0.148
    1UNL    H56  123   1.171  -0.247  -0.007
    1UNL    H57  124   1.218   0.153  -0.047
    1UNL    H58  125   1.304  -0.040   0.134
    1UNL    H59  126   1.079   0.138   0.181
    1UNL    H60  127   0.894   0.158  -0.004
    1UNL    H61  128   0.719  -0.097   0.330
    1UNL    H62  129   0.516  -0.182   0.466
    1UNL    H63  130   0.527  -0.004   0.492
    1UNL    H64  131   0.414  -0.081   0.366
   0.00000   0.00000   0.00000   0.00000   0.00000   0.00000   0.00000   0.00000   0.00000
Generated with MDTraj, t= 82.0
 131
    1UNL     C1    1  -0.517   0.327   0.018
    1UNL     C2    2  -0.526   0.242   0.136
    1UNL     C3    3  -0.596   0.132   0.143
    1UNL     C4    4  -0.676   0.080   0.031
    1UNL     O1    5  -0.614  -0.038  -0.018
    1UNL     C5    6  -0.704  -0.097  -0.111
    1UNL     O2    7  -0.768  -0.011  -0.203
    1UNL     C6    8  -0.868  -0.069  -0.287
    1UNL     C7    9  -0.932   0.047  -0.373
    1UNL     O3   10  -1.049  -0.005  -0.434
    1UNL     C8   11  -0.818  -0.191  -0.366
    1UNL     O4   12  -0.925  -0.273  -0.399
    1UNL     C9   13  -0.734  -0.288  -0.279
    1UNL     O5   14  -0.817  -0.355  -0.189
    1UNL    C10   15  -0.628  -0.207  -0.192
    1UNL     O6   16  -0.532  -0.136  -0.274
    1UNL     O7   17  -0.814   0.065   0.066
    1UNL    C11   18  -0.829  -0.005   0.186
    1UNL    C12   19  -0.738  -0.016   0.286
    1UNL    C13   20  -0.769  -0.078   0.419
    1UNL     O8   21  -0.683  -0.094   0.508
    1UNL     O9   22  -0.902  -0.118   0.422
    1UNL    C14   23  -0.925  -0.193   0.530
    1UNL    C15   24  -0.602   0.055   0.268
    1UNL    C16   25  -0.489  -0.044   0.275
    1UNL    C17   26  -0.355   0.030   0.289
    1UNL    O10   27  -0.341   0.128   0.361
    1UNL    O11   28  -0.257  -0.026   0.217
    1UNL    C18   29  -0.135   0.041   0.243
    1UNL    C19   30  -0.024   0.007   0.139
    1UNL    C20   31   0.113   0.040   0.192
    1UNL    C21   32  -0.069   0.070   0.006
    1UNL    C22   33  -0.215   0.042  -0.044
    1UNL    C23   34  -0.200   0.020  -0.204
    1UNL    O12   35  -0.222  -0.117  -0.249
    1UNL    C24   36  -0.056   0.053  -0.239
    1UNL    C25   37  -0.048   0.190  -0.294
    1UNL    C26   38   0.029   0.029  -0.113
    1UNL    C27   39   0.095  -0.109  -0.093
    1UNL    O13   40   0.205  -0.114   0.003
    1UNL    C28   41   0.321  -0.114  -0.066
    1UNL    O14   42   0.335  -0.095  -0.186
    1UNL    C29   43   0.442  -0.131   0.021
    1UNL    C30   44   0.480  -0.002   0.102
    1UNL    C31   45   0.498   0.107  -0.000
    1UNL    C32   46   0.383   0.200  -0.023
    1UNL    O15   47   0.281   0.207   0.047
    1UNL    O16   48   0.406   0.294  -0.125
    1UNL    C33   49   0.304   0.390  -0.137
    1UNL    C34   50   0.619   0.134  -0.048
    1UNL    O17   51   0.736   0.063  -0.024
    1UNL    C35   52   0.728  -0.027   0.089
    1UNL    O18   53   0.853  -0.032   0.171
    1UNL    C36   54   0.970  -0.051   0.090
    1UNL    O19   55   0.944  -0.084  -0.045
    1UNL    C37   56   1.063  -0.100  -0.127
    1UNL    C38   57   1.042  -0.012  -0.253
    1UNL    O20   58   0.892   0.003  -0.287
    1UNL    C39   59   1.196  -0.071  -0.065
    1UNL    O21   60   1.230  -0.169   0.034
    1UNL    C40   61   1.186   0.065   0.014
    1UNL    O22   62   1.299   0.080   0.106
    1UNL    C41   63   1.055   0.080   0.090
    1UNL    O23   64   0.979   0.180   0.029
    1UNL    C42   65   0.608  -0.020   0.174
    1UNL    C43   66   0.609  -0.055   0.307
    1UNL    C44   67   0.494  -0.078   0.390
    1UNL     H1   68  -0.607   0.324  -0.037
    1UNL     H2   69  -0.483   0.428   0.040
    1UNL     H3   70  -0.438   0.299  -0.054
    1UNL     H4   71  -0.472   0.263   0.230
    1UNL     H5   72  -0.671   0.142  -0.060
    1UNL     H6   73  -0.787  -0.133  -0.047
    1UNL     H7   74  -0.947  -0.108  -0.209
    1UNL     H8   75  -0.868   0.070  -0.458
    1UNL     H9   76  -0.949   0.133  -0.313
    1UNL    H10   77  -1.115   0.061  -0.468
    1UNL    H11   78  -0.775  -0.157  -0.460
    1UNL    H12   79  -0.990  -0.216  -0.443
    1UNL    H13   80  -0.697  -0.365  -0.346
    1UNL    H14   81  -0.909  -0.364  -0.228
    1UNL    H15   82  -0.571  -0.270  -0.120
    1UNL    H16   83  -0.587  -0.067  -0.316
    1UNL    H17   84  -0.930  -0.044   0.202
    1UNL    H18   85  -0.829  -0.196   0.585
    1UNL    H19   86  -0.940  -0.299   0.491
    1UNL    H20   87  -1.019  -0.154   0.572
    1UNL    H21   88  -0.584   0.119   0.356
    1UNL    H22   89  -0.519  -0.106   0.360
    1UNL    H23   90  -0.490  -0.119   0.187
    1UNL    H24   91  -0.148   0.145   0.259
    1UNL    H25   92  -0.109   0.007   0.347
    1UNL    H26   93  -0.032  -0.099   0.129
    1UNL    H27   94   0.117   0.134   0.237
    1UNL    H28   95   0.145  -0.030   0.268
    1UNL    H29   96   0.187   0.048   0.107
    1UNL    H30   97  -0.049   0.174   0.014
    1UNL    H31   98  -0.290   0.108  -0.016
    1UNL    H32   99  -0.247  -0.062  -0.009
    1UNL    H33  100  -0.280   0.086  -0.251
    1UNL    H34  101  -0.326  -0.125  -0.259
    1UNL    H35  102  -0.034  -0.021  -0.318
    1UNL    H36  103  -0.066   0.179  -0.400
    1UNL    H37  104   0.050   0.235  -0.280
    1UNL    H38  105  -0.128   0.266  -0.270
    1UNL    H39  106   0.111   0.101  -0.111
    1UNL    H40  107   0.028  -0.189  -0.048
    1UNL    H41  108   0.135  -0.146  -0.187
    1UNL    H42  109   0.534  -0.166  -0.035
    1UNL    H43  110   0.405  -0.211   0.088
    1UNL    H44  111   0.393   0.035   0.161
    1UNL    H45  112   0.341   0.495  -0.136
    1UNL    H46  113   0.241   0.374  -0.055
    1UNL    H47  114   0.240   0.370  -0.220
    1UNL    H48  115   0.633   0.203  -0.136
    1UNL    H49  116   0.727  -0.126   0.029
    1UNL    H50  117   1.020  -0.137   0.134
    1UNL    H51  118   1.065  -0.206  -0.161
    1UNL    H52  119   1.079  -0.059  -0.340
    1UNL    H53  120   1.081   0.091  -0.239
    1UNL    H54  121   0.840   0.020  -0.203
    1UNL    H55  122   1.279  -0.069  -0.140
    1UNL    H56  123   1.232  -0.260  -0.006
    1UNL    H57  124   1.188   0.149  -0.057
    1UNL    H58  125   1.309  -0.006   0.154
    1UNL    H59  126   1.071   0.108   0.194
    1UNL    H60  127   0.896   0.131  -0.005
    1UNL    H61  128   0.716  -0.072   0.346
    1UNL    H62  129   0.515  -0.104   0.495
    1UNL    H63  130   0.424   0.009   0.391
    1UNL    H64  131   0.436  -0.167   0.353
   0.00000   0.00000   0.00000   0.00000   0.00000   0.00000   0.00000   0.00000   0.00000
Generated with MDTraj, t= 83.0
 131
    1UNL     C1    1  -0.477   0.289   0.018
    1UNL     C2    2  -0.525   0.235   0.146
    1UNL     C3    3  -0.606   0.130   0.152
    1UNL     C4    4  -0.682   0.078   0.031
    1UNL     O1    5  -0.610  -0.032  -0.015
    1UNL     C5    6  -0.696  -0.094  -0.119
    1UNL     O2    7  -0.747  -0.005  -0.220
    1UNL     C6    8  -0.860  -0.058  -0.288
    1UNL     C7    9  -0.923   0.047  -0.374
    1UNL     O3   10  -1.048  -0.002  -0.426
    1UNL     C8   11  -0.819  -0.188  -0.364
    1UNL     O4   12  -0.936  -0.265  -0.383
    1UNL     C9   13  -0.720  -0.286  -0.289
    1UNL     O5   14  -0.793  -0.383  -0.218
    1UNL    C10   15  -0.629  -0.207  -0.193
    1UNL     O6   16  -0.525  -0.148  -0.268
    1UNL     O7   17  -0.822   0.060   0.061
    1UNL    C11   18  -0.838  -0.002   0.181
    1UNL    C12   19  -0.758  -0.009   0.289
    1UNL    C13   20  -0.786  -0.078   0.408
    1UNL     O8   21  -0.702  -0.079   0.496
    1UNL     O9   22  -0.909  -0.139   0.413
    1UNL    C14   23  -0.936  -0.184   0.545
    1UNL    C15   24  -0.625   0.066   0.283
    1UNL    C16   25  -0.510  -0.032   0.305
    1UNL    C17   26  -0.372   0.023   0.307
    1UNL    O10   27  -0.357   0.119   0.381
    1UNL    O11   28  -0.272  -0.034   0.232
    1UNL    C18   29  -0.155   0.036   0.262
    1UNL    C19   30  -0.030   0.012   0.160
    1UNL    C20   31   0.100   0.077   0.214
    1UNL    C21   32  -0.065   0.066   0.020
    1UNL    C22   33  -0.205   0.020  -0.034
    1UNL    C23   34  -0.202   0.020  -0.188
    1UNL    O12   35  -0.232  -0.104  -0.248
    1UNL    C24   36  -0.056   0.047  -0.229
    1UNL    C25   37  -0.043   0.185  -0.295
    1UNL    C26   38   0.034   0.023  -0.094
    1UNL    C27   39   0.075  -0.129  -0.091
    1UNL    O13   40   0.190  -0.139  -0.021
    1UNL    C28   41   0.309  -0.122  -0.085
    1UNL    O14   42   0.323  -0.090  -0.202
    1UNL    C29   43   0.435  -0.138  -0.007
    1UNL    C30   44   0.480  -0.010   0.062
    1UNL    C31   45   0.501   0.116  -0.021
    1UNL    C32   46   0.397   0.218  -0.033
    1UNL    O15   47   0.298   0.201   0.034
    1UNL    O16   48   0.423   0.334  -0.100
    1UNL    C33   49   0.312   0.408  -0.107
    1UNL    C34   50   0.628   0.142  -0.062
    1UNL    O17   51   0.734   0.054  -0.045
    1UNL    C35   52   0.738  -0.034   0.067
    1UNL    O18   53   0.851  -0.004   0.151
    1UNL    C36   54   0.967  -0.041   0.090
    1UNL    O19   55   0.950  -0.100  -0.036
    1UNL    C37   56   1.073  -0.103  -0.122
    1UNL    C38   57   1.045  -0.002  -0.240
    1UNL    O20   58   0.902  -0.032  -0.281
    1UNL    C39   59   1.199  -0.081  -0.050
    1UNL    O21   60   1.224  -0.178   0.049
    1UNL    C40   61   1.197   0.058   0.022
    1UNL    O22   62   1.302   0.080   0.113
    1UNL    C41   63   1.060   0.083   0.089
    1UNL    O23   64   0.988   0.190   0.024
    1UNL    C42   65   0.609  -0.031   0.137
    1UNL    C43   66   0.617  -0.056   0.272
    1UNL    C44   67   0.511  -0.038   0.368
    1UNL     H1   68  -0.457   0.200  -0.043
    1UNL     H2   69  -0.545   0.358  -0.027
    1UNL     H3   70  -0.391   0.356   0.034
    1UNL     H4   71  -0.489   0.278   0.235
    1UNL     H5   72  -0.697   0.150  -0.054
    1UNL     H6   73  -0.789  -0.129  -0.068
    1UNL     H7   74  -0.937  -0.087  -0.203
    1UNL     H8   75  -0.852   0.082  -0.452
    1UNL     H9   76  -0.951   0.131  -0.309
    1UNL    H10   77  -1.108   0.072  -0.461
    1UNL    H11   78  -0.783  -0.159  -0.463
    1UNL    H12   79  -1.012  -0.209  -0.413
    1UNL    H13   80  -0.648  -0.340  -0.353
    1UNL    H14   81  -0.882  -0.398  -0.257
    1UNL    H15   82  -0.584  -0.282  -0.126
    1UNL    H16   83  -0.565  -0.061  -0.299
    1UNL    H17   84  -0.937  -0.041   0.195
    1UNL    H18   85  -0.967  -0.102   0.604
    1UNL    H19   86  -0.837  -0.208   0.584
    1UNL    H20   87  -0.998  -0.271   0.533
    1UNL    H21   88  -0.614   0.139   0.364
    1UNL    H22   89  -0.512  -0.086   0.402
    1UNL    H23   90  -0.521  -0.109   0.223
    1UNL    H24   91  -0.188   0.138   0.269
    1UNL    H25   92  -0.125   0.021   0.372
    1UNL    H26   93  -0.017  -0.093   0.151
    1UNL    H27   94   0.094   0.180   0.201
    1UNL    H28   95   0.112   0.062   0.323
    1UNL    H29   96   0.192   0.055   0.158
    1UNL    H30   97  -0.056   0.172   0.016
    1UNL    H31   98  -0.288   0.080  -0.007
    1UNL    H32   99  -0.240  -0.081  -0.000
    1UNL    H33  100  -0.275   0.098  -0.220
    1UNL    H34  101  -0.324  -0.121  -0.260
    1UNL    H35  102  -0.034  -0.027  -0.309
    1UNL    H36  103  -0.133   0.209  -0.348
    1UNL    H37  104   0.043   0.192  -0.364
    1UNL    H38  105  -0.034   0.266  -0.215
    1UNL    H39  106   0.122   0.086  -0.075
    1UNL    H40  107  -0.003  -0.191  -0.039
    1UNL    H41  108   0.097  -0.178  -0.189
    1UNL    H42  109   0.507  -0.153  -0.093
    1UNL    H43  110   0.431  -0.224   0.063
    1UNL    H44  111   0.403   0.029   0.133
    1UNL    H45  112   0.340   0.500  -0.166
    1UNL    H46  113   0.292   0.439  -0.006
    1UNL    H47  114   0.233   0.349  -0.150
    1UNL    H48  115   0.654   0.230  -0.126
    1UNL    H49  116   0.761  -0.136   0.019
    1UNL    H50  117   1.027  -0.113   0.148
    1UNL    H51  118   1.072  -0.209  -0.163
    1UNL    H52  119   1.108  -0.020  -0.324
    1UNL    H53  120   1.037   0.105  -0.215
    1UNL    H54  121   0.844  -0.030  -0.202
    1UNL    H55  122   1.285  -0.082  -0.116
    1UNL    H56  123   1.225  -0.274   0.019
    1UNL    H57  124   1.202   0.140  -0.053
    1UNL    H58  125   1.302   0.006   0.177
    1UNL    H59  126   1.079   0.124   0.192
    1UNL    H60  127   0.903   0.155  -0.005
    1UNL    H61  128   0.714  -0.067   0.302
    1UNL    H62  129   0.543   0.030   0.449
    1UNL    H63  130   0.419   0.010   0.325
    1UNL    H64  131   0.482  -0.132   0.420
   0.00000   0.00000   0.00000   0.00000   0.00000   0.00000   0.00000   0.00000   0.00000
Generated with MDTraj, t= 84.0
 131
    1UNL     C1    1  -0.486   0.306   0.010
    1UNL     C2    2  -0.501   0.225   0.132
    1UNL     C3    3  -0.590   0.128   0.150
    1UNL     C4    4  -0.676   0.077   0.032
    1UNL     O1    5  -0.604  -0.031  -0.022
    1UNL     C5    6  -0.688  -0.097  -0.123
    1UNL     O2    7  -0.757   0.003  -0.207
    1UNL     C6    8  -0.867  -0.063  -0.275
    1UNL     C7    9  -0.941   0.042  -0.356
    1UNL     O3   10  -1.046  -0.007  -0.434
    1UNL     C8   11  -0.803  -0.186  -0.361
    1UNL     O4   12  -0.909  -0.255  -0.430
    1UNL     C9   13  -0.721  -0.292  -0.277
    1UNL     O5   14  -0.810  -0.359  -0.190
    1UNL    C10   15  -0.622  -0.204  -0.207
    1UNL     O6   16  -0.524  -0.146  -0.296
    1UNL     O7   17  -0.815   0.034   0.061
    1UNL    C11   18  -0.835  -0.010   0.185
    1UNL    C12   19  -0.758  -0.006   0.300
    1UNL    C13   20  -0.802  -0.066   0.422
    1UNL     O8   21  -0.729  -0.077   0.517
    1UNL     O9   22  -0.931  -0.119   0.415
    1UNL    C14   23  -0.959  -0.205   0.531
    1UNL    C15   24  -0.617   0.056   0.287
    1UNL    C16   25  -0.507  -0.048   0.307
    1UNL    C17   26  -0.374   0.020   0.316
    1UNL    O10   27  -0.365   0.120   0.385
    1UNL    O11   28  -0.269  -0.021   0.242
    1UNL    C18   29  -0.148   0.052   0.270
    1UNL    C19   30  -0.044   0.009   0.178
    1UNL    C20   31   0.094   0.060   0.210
    1UNL    C21   32  -0.078   0.051   0.032
    1UNL    C22   33  -0.212   0.004  -0.030
    1UNL    C23   34  -0.192  -0.001  -0.184
    1UNL    O12   35  -0.225  -0.126  -0.252
    1UNL    C24   36  -0.043   0.037  -0.214
    1UNL    C25   37  -0.016   0.180  -0.263
    1UNL    C26   38   0.029   0.017  -0.082
    1UNL    C27   39   0.068  -0.130  -0.058
    1UNL    O13   40   0.196  -0.133  -0.005
    1UNL    C28   41   0.290  -0.100  -0.099
    1UNL    O14   42   0.280  -0.050  -0.209
    1UNL    C29   43   0.436  -0.125  -0.040
    1UNL    C30   44   0.478  -0.014   0.053
    1UNL    C31   45   0.505   0.117  -0.018
    1UNL    C32   46   0.396   0.211  -0.043
    1UNL    O15   47   0.283   0.194  -0.002
    1UNL    O16   48   0.437   0.337  -0.094
    1UNL    C33   49   0.340   0.438  -0.074
    1UNL    C34   50   0.633   0.136  -0.067
    1UNL    O17   51   0.736   0.050  -0.056
    1UNL    C35   52   0.739  -0.035   0.064
    1UNL    O18   53   0.847   0.004   0.140
    1UNL    C36   54   0.974  -0.033   0.080
    1UNL    O19   55   0.973  -0.122  -0.037
    1UNL    C37   56   1.083  -0.113  -0.121
    1UNL    C38   57   1.053  -0.012  -0.228
    1UNL    O20   58   0.924  -0.024  -0.269
    1UNL    C39   59   1.218  -0.085  -0.048
    1UNL    O21   60   1.234  -0.181   0.058
    1UNL    C40   61   1.204   0.060   0.023
    1UNL    O22   62   1.275   0.070   0.141
    1UNL    C41   63   1.055   0.095   0.058
    1UNL    O23   64   0.987   0.177  -0.044
    1UNL    C42   65   0.607  -0.031   0.133
    1UNL    C43   66   0.609  -0.020   0.271
    1UNL    C44   67   0.491  -0.027   0.357
    1UNL     H1   68  -0.447   0.236  -0.068
    1UNL     H2   69  -0.577   0.354  -0.018
    1UNL     H3   70  -0.430   0.397   0.030
    1UNL     H4   71  -0.443   0.257   0.221
    1UNL     H5   72  -0.701   0.154  -0.047
    1UNL     H6   73  -0.770  -0.148  -0.063
    1UNL     H7   74  -0.939  -0.104  -0.192
    1UNL     H8   75  -0.865   0.093  -0.422
    1UNL     H9   76  -0.980   0.120  -0.284
    1UNL    H10   77  -1.065   0.062  -0.501
    1UNL    H11   78  -0.741  -0.140  -0.438
    1UNL    H12   79  -0.983  -0.190  -0.447
    1UNL    H13   80  -0.667  -0.358  -0.347
    1UNL    H14   81  -0.884  -0.377  -0.253
    1UNL    H15   82  -0.570  -0.269  -0.139
    1UNL    H16   83  -0.550  -0.052  -0.303
    1UNL    H17   84  -0.925  -0.069   0.187
    1UNL    H18   85  -1.045  -0.265   0.518
    1UNL    H19   86  -0.984  -0.130   0.606
    1UNL    H20   87  -0.871  -0.261   0.555
    1UNL    H21   88  -0.611   0.123   0.375
    1UNL    H22   89  -0.532  -0.103   0.402
    1UNL    H23   90  -0.498  -0.114   0.220
    1UNL    H24   91  -0.157   0.162   0.275
    1UNL    H25   92  -0.116   0.030   0.378
    1UNL    H26   93  -0.047  -0.098   0.185
    1UNL    H27   94   0.112   0.164   0.186
    1UNL    H28   95   0.127   0.032   0.313
    1UNL    H29   96   0.153   0.012   0.136
    1UNL    H30   97  -0.081   0.157   0.026
    1UNL    H31   98  -0.307   0.052   0.003
    1UNL    H32   99  -0.235  -0.099  -0.006
    1UNL    H33  100  -0.247   0.078  -0.234
    1UNL    H34  101  -0.325  -0.152  -0.265
    1UNL    H35  102  -0.003  -0.017  -0.301
    1UNL    H36  103  -0.071   0.192  -0.353
    1UNL    H37  104   0.093   0.197  -0.292
    1UNL    H38  105  -0.045   0.261  -0.190
    1UNL    H39  106   0.117   0.081  -0.078
    1UNL    H40  107   0.008  -0.189   0.017
    1UNL    H41  108   0.063  -0.181  -0.157
    1UNL    H42  109   0.511  -0.128  -0.123
    1UNL    H43  110   0.439  -0.217   0.024
    1UNL    H44  111   0.393  -0.003   0.123
    1UNL    H45  112   0.347   0.520  -0.152
    1UNL    H46  113   0.366   0.488   0.020
    1UNL    H47  114   0.244   0.385  -0.072
    1UNL    H48  115   0.651   0.223  -0.123
    1UNL    H49  116   0.769  -0.138   0.029
    1UNL    H50  117   1.018  -0.097   0.160
    1UNL    H51  118   1.090  -0.215  -0.173
    1UNL    H52  119   1.103  -0.027  -0.321
    1UNL    H53  120   1.058   0.086  -0.182
    1UNL    H54  121   0.854  -0.011  -0.197
    1UNL    H55  122   1.298  -0.095  -0.120
    1UNL    H56  123   1.160  -0.247   0.054
    1UNL    H57  124   1.249   0.142  -0.037
    1UNL    H58  125   1.252  -0.007   0.198
    1UNL    H59  126   1.054   0.150   0.159
    1UNL    H60  127   0.895   0.138  -0.060
    1UNL    H61  128   0.712  -0.012   0.320
    1UNL    H62  129   0.521  -0.001   0.462
    1UNL    H63  130   0.419   0.051   0.322
    1UNL    H64  131   0.447  -0.129   0.360
   0.00000   0.00000   0.00000   0.00000   0.00000   0.00000   0.00000   0.00000   0.00000
Generated with MDTraj, t= 85.0
 131
    1UNL     C1    1  -0.496   0.329   0.029
    1UNL     C2    2  -0.523   0.245   0.141
    1UNL     C3    3  -0.602   0.138   0.150
    1UNL     C4    4  -0.678   0.069   0.030
    1UNL     O1    5  -0.615  -0.045  -0.010
    1UNL     C5    6  -0.692  -0.097  -0.113
    1UNL     O2    7  -0.750  -0.001  -0.208
    1UNL     C6    8  -0.857  -0.065  -0.289
    1UNL     C7    9  -0.935   0.034  -0.380
    1UNL     O3   10  -1.051  -0.025  -0.435
    1UNL     C8   11  -0.793  -0.180  -0.376
    1UNL     O4   12  -0.896  -0.250  -0.445
    1UNL     C9   13  -0.723  -0.274  -0.281
    1UNL     O5   14  -0.819  -0.343  -0.200
    1UNL    C10   15  -0.612  -0.195  -0.194
    1UNL     O6   16  -0.511  -0.137  -0.284
    1UNL     O7   17  -0.815   0.044   0.062
    1UNL    C11   18  -0.833  -0.023   0.181
    1UNL    C12   19  -0.758  -0.015   0.293
    1UNL    C13   20  -0.808  -0.083   0.414
    1UNL     O8   21  -0.730  -0.080   0.508
    1UNL     O9   22  -0.932  -0.141   0.410
    1UNL    C14   23  -0.971  -0.174   0.542
    1UNL    C15   24  -0.621   0.064   0.286
    1UNL    C16   25  -0.508  -0.033   0.330
    1UNL    C17   26  -0.370   0.022   0.334
    1UNL    O10   27  -0.353   0.124   0.400
    1UNL    O11   28  -0.277  -0.029   0.249
    1UNL    C18   29  -0.154   0.033   0.270
    1UNL    C19   30  -0.035  -0.007   0.171
    1UNL    C20   31   0.101   0.044   0.235
    1UNL    C21   32  -0.065   0.039   0.027
    1UNL    C22   33  -0.205   0.002  -0.024
    1UNL    C23   34  -0.192   0.004  -0.184
    1UNL    O12   35  -0.234  -0.123  -0.220
    1UNL    C24   36  -0.038   0.024  -0.214
    1UNL    C25   37  -0.015   0.161  -0.269
    1UNL    C26   38   0.032  -0.004  -0.081
    1UNL    C27   39   0.083  -0.152  -0.067
    1UNL    O13   40   0.209  -0.156  -0.004
    1UNL    C28   41   0.304  -0.111  -0.090
    1UNL    O14   42   0.284  -0.068  -0.199
    1UNL    C29   43   0.434  -0.122  -0.023
    1UNL    C30   44   0.478   0.008   0.045
    1UNL    C31   45   0.506   0.134  -0.039
    1UNL    C32   46   0.407   0.242  -0.038
    1UNL    O15   47   0.303   0.225   0.024
    1UNL    O16   48   0.440   0.368  -0.084
    1UNL    C33   49   0.332   0.461  -0.084
    1UNL    C34   50   0.628   0.145  -0.087
    1UNL    O17   51   0.736   0.066  -0.076
    1UNL    C35   52   0.736  -0.013   0.048
    1UNL    O18   53   0.839   0.004   0.136
    1UNL    C36   54   0.962  -0.030   0.078
    1UNL    O19   55   0.949  -0.102  -0.047
    1UNL    C37   56   1.073  -0.113  -0.116
    1UNL    C38   57   1.067  -0.046  -0.256
    1UNL    O20   58   0.943  -0.055  -0.303
    1UNL    C39   59   1.212  -0.068  -0.033
    1UNL    O21   60   1.255  -0.176   0.049
    1UNL    C40   61   1.193   0.061   0.043
    1UNL    O22   62   1.252   0.056   0.162
    1UNL    C41   63   1.044   0.095   0.059
    1UNL    O23   64   0.991   0.165  -0.052
    1UNL    C42   65   0.603  -0.027   0.122
    1UNL    C43   66   0.596  -0.049   0.258
    1UNL    C44   67   0.476  -0.035   0.342
    1UNL     H1   68  -0.487   0.264  -0.061
    1UNL     H2   69  -0.569   0.408   0.015
    1UNL     H3   70  -0.413   0.397   0.040
    1UNL     H4   71  -0.484   0.274   0.236
    1UNL     H5   72  -0.681   0.130  -0.065
    1UNL     H6   73  -0.784  -0.138  -0.061
    1UNL     H7   74  -0.936  -0.115  -0.219
    1UNL     H8   75  -0.859   0.070  -0.458
    1UNL     H9   76  -0.963   0.125  -0.318
    1UNL    H10   77  -1.093   0.037  -0.492
    1UNL    H11   78  -0.726  -0.133  -0.449
    1UNL    H12   79  -0.966  -0.189  -0.467
    1UNL    H13   80  -0.667  -0.350  -0.339
    1UNL    H14   81  -0.882  -0.408  -0.244
    1UNL    H15   82  -0.569  -0.265  -0.125
    1UNL    H16   83  -0.522  -0.039  -0.281
    1UNL    H17   84  -0.928  -0.076   0.174
    1UNL    H18   85  -0.897  -0.241   0.586
    1UNL    H19   86  -1.070  -0.225   0.531
    1UNL    H20   87  -0.985  -0.080   0.598
    1UNL    H21   88  -0.636   0.141   0.364
    1UNL    H22   89  -0.536  -0.052   0.440
    1UNL    H23   90  -0.524  -0.116   0.264
    1UNL    H24   91  -0.172   0.142   0.265
    1UNL    H25   92  -0.120   0.027   0.378
    1UNL    H26   93  -0.033  -0.115   0.174
    1UNL    H27   94   0.096   0.148   0.278
    1UNL    H28   95   0.126  -0.029   0.314
    1UNL    H29   96   0.174   0.053   0.163
    1UNL    H30   97  -0.056   0.146   0.029
    1UNL    H31   98  -0.284   0.073   0.015
    1UNL    H32   99  -0.241  -0.087   0.015
    1UNL    H33  100  -0.267   0.072  -0.215
    1UNL    H34  101  -0.329  -0.131  -0.231
    1UNL    H35  102  -0.016  -0.055  -0.287
    1UNL    H36  103   0.021   0.154  -0.372
    1UNL    H37  104   0.070   0.220  -0.221
    1UNL    H38  105  -0.102   0.229  -0.263
    1UNL    H39  106   0.125   0.052  -0.069
    1UNL    H40  107   0.011  -0.220  -0.019
    1UNL    H41  108   0.112  -0.190  -0.167
    1UNL    H42  109   0.514  -0.152  -0.091
    1UNL    H43  110   0.421  -0.202   0.055
    1UNL    H44  111   0.394   0.026   0.116
    1UNL    H45  112   0.369   0.566  -0.078
    1UNL    H46  113   0.276   0.445   0.011
    1UNL    H47  114   0.272   0.432  -0.175
    1UNL    H48  115   0.641   0.223  -0.157
    1UNL    H49  116   0.763  -0.110   0.002
    1UNL    H50  117   1.005  -0.100   0.153
    1UNL    H51  118   1.089  -0.227  -0.124
    1UNL    H52  119   1.127  -0.100  -0.326
    1UNL    H53  120   1.089   0.063  -0.244
    1UNL    H54  121   0.876  -0.035  -0.228
    1UNL    H55  122   1.290  -0.058  -0.107
    1UNL    H56  123   1.201  -0.174   0.130
    1UNL    H57  124   1.248   0.146  -0.007
    1UNL    H58  125   1.325  -0.011   0.165
    1UNL    H59  126   1.033   0.155   0.157
    1UNL    H60  127   0.906   0.125  -0.070
    1UNL    H61  128   0.688  -0.065   0.304
    1UNL    H62  129   0.480  -0.092   0.440
    1UNL    H63  130   0.467   0.073   0.369
    1UNL    H64  131   0.379  -0.065   0.297
   0.00000   0.00000   0.00000   0.00000   0.00000   0.00000   0.00000   0.00000   0.00000
Generated with MDTraj, t= 86.0
 131
    1UNL     C1    1  -0.497   0.326   0.039
    1UNL     C2    2  -0.535   0.255   0.164
    1UNL     C3    3  -0.616   0.148   0.170
    1UNL     C4    4  -0.688   0.087   0.043
    1UNL     O1    5  -0.613  -0.017  -0.028
    1UNL     C5    6  -0.695  -0.086  -0.117
    1UNL     O2    7  -0.742  -0.000  -0.218
    1UNL     C6    8  -0.848  -0.067  -0.292
    1UNL     C7    9  -0.919   0.041  -0.380
    1UNL     O3   10  -1.032  -0.007  -0.451
    1UNL     C8   11  -0.793  -0.187  -0.374
    1UNL     O4   12  -0.892  -0.260  -0.441
    1UNL     C9   13  -0.711  -0.275  -0.290
    1UNL     O5   14  -0.792  -0.371  -0.231
    1UNL    C10   15  -0.617  -0.197  -0.184
    1UNL     O6   16  -0.504  -0.143  -0.244
    1UNL     O7   17  -0.827   0.063   0.072
    1UNL    C11   18  -0.851  -0.003   0.195
    1UNL    C12   19  -0.761  -0.017   0.292
    1UNL    C13   20  -0.796  -0.082   0.416
    1UNL     O8   21  -0.719  -0.090   0.511
    1UNL     O9   22  -0.931  -0.116   0.417
    1UNL    C14   23  -0.961  -0.181   0.541
    1UNL    C15   24  -0.623   0.050   0.288
    1UNL    C16   25  -0.508  -0.049   0.295
    1UNL    C17   26  -0.375   0.021   0.315
    1UNL    O10   27  -0.378   0.121   0.386
    1UNL    O11   28  -0.268  -0.031   0.240
    1UNL    C18   29  -0.149   0.033   0.270
    1UNL    C19   30  -0.043  -0.022   0.170
    1UNL    C20   31   0.098   0.005   0.220
    1UNL    C21   32  -0.062   0.042   0.040
    1UNL    C22   33  -0.205   0.026  -0.021
    1UNL    C23   34  -0.201  -0.006  -0.177
    1UNL    O12   35  -0.233  -0.137  -0.207
    1UNL    C24   36  -0.054   0.015  -0.217
    1UNL    C25   37  -0.024   0.154  -0.282
    1UNL    C26   38   0.030  -0.007  -0.078
    1UNL    C27   39   0.080  -0.151  -0.053
    1UNL    O13   40   0.212  -0.146   0.005
    1UNL    C28   41   0.300  -0.107  -0.093
    1UNL    O14   42   0.258  -0.082  -0.203
    1UNL    C29   43   0.443  -0.109  -0.052
    1UNL    C30   44   0.474   0.004   0.052
    1UNL    C31   45   0.490   0.140  -0.023
    1UNL    C32   46   0.391   0.247  -0.036
    1UNL    O15   47   0.292   0.237   0.034
    1UNL    O16   48   0.431   0.359  -0.112
    1UNL    C33   49   0.345   0.470  -0.101
    1UNL    C34   50   0.610   0.157  -0.081
    1UNL    O17   51   0.721   0.076  -0.068
    1UNL    C35   52   0.731  -0.007   0.049
    1UNL    O18   53   0.839   0.028   0.132
    1UNL    C36   54   0.968  -0.012   0.084
    1UNL    O19   55   0.968  -0.110  -0.027
    1UNL    C37   56   1.078  -0.115  -0.118
    1UNL    C38   57   1.049  -0.043  -0.243
    1UNL    O20   58   0.921  -0.098  -0.297
    1UNL    C39   59   1.220  -0.065  -0.046
    1UNL    O21   60   1.263  -0.163   0.033
    1UNL    C40   61   1.207   0.063   0.042
    1UNL    O22   62   1.258   0.037   0.171
    1UNL    C41   63   1.052   0.111   0.061
    1UNL    O23   64   1.006   0.173  -0.054
    1UNL    C42   65   0.602  -0.028   0.128
    1UNL    C43   66   0.605  -0.055   0.261
    1UNL    C44   67   0.491  -0.073   0.341
    1UNL     H1   68  -0.474   0.246  -0.035
    1UNL     H2   69  -0.572   0.400   0.007
    1UNL     H3   70  -0.415   0.395   0.051
    1UNL     H4   71  -0.490   0.286   0.259
    1UNL     H5   72  -0.693   0.164  -0.039
    1UNL     H6   73  -0.783  -0.115  -0.056
    1UNL     H7   74  -0.926  -0.109  -0.218
    1UNL     H8   75  -0.845   0.076  -0.458
    1UNL     H9   76  -0.939   0.131  -0.315
    1UNL    H10   77  -1.114   0.049  -0.442
    1UNL    H11   78  -0.730  -0.138  -0.450
    1UNL    H12   79  -0.967  -0.198  -0.463
    1UNL    H13   80  -0.641  -0.329  -0.360
    1UNL    H14   81  -0.836  -0.428  -0.295
    1UNL    H15   82  -0.591  -0.268  -0.108
    1UNL    H16   83  -0.518  -0.044  -0.249
    1UNL    H17   84  -0.955  -0.031   0.218
    1UNL    H18   85  -0.971  -0.106   0.625
    1UNL    H19   86  -0.868  -0.237   0.572
    1UNL    H20   87  -1.044  -0.259   0.535
    1UNL    H21   88  -0.618   0.103   0.388
    1UNL    H22   89  -0.530  -0.116   0.387
    1UNL    H23   90  -0.510  -0.097   0.200
    1UNL    H24   91  -0.152   0.142   0.291
    1UNL    H25   92  -0.122  -0.004   0.372
    1UNL    H26   93  -0.070  -0.127   0.170
    1UNL    H27   94   0.142   0.096   0.169
    1UNL    H28   95   0.103   0.013   0.327
    1UNL    H29   96   0.171  -0.068   0.192
    1UNL    H30   97  -0.044   0.146   0.059
    1UNL    H31   98  -0.270   0.119  -0.010
    1UNL    H32   99  -0.263  -0.046   0.026
    1UNL    H33  100  -0.254   0.065  -0.234
    1UNL    H34  101  -0.337  -0.139  -0.209
    1UNL    H35  102  -0.020  -0.059  -0.290
    1UNL    H36  103  -0.108   0.215  -0.324
    1UNL    H37  104   0.040   0.136  -0.375
    1UNL    H38  105   0.043   0.209  -0.218
    1UNL    H39  106   0.121   0.048  -0.087
    1UNL    H40  107   0.015  -0.208   0.015
    1UNL    H41  108   0.097  -0.209  -0.143
    1UNL    H42  109   0.508  -0.109  -0.138
    1UNL    H43  110   0.464  -0.206   0.001
    1UNL    H44  111   0.385   0.010   0.120
    1UNL    H45  112   0.404   0.558  -0.072
    1UNL    H46  113   0.283   0.449  -0.011
    1UNL    H47  114   0.289   0.476  -0.196
    1UNL    H48  115   0.624   0.232  -0.164
    1UNL    H49  116   0.755  -0.103   0.005
    1UNL    H50  117   1.027  -0.057   0.168
    1UNL    H51  118   1.088  -0.226  -0.136
    1UNL    H52  119   1.136  -0.064  -0.303
    1UNL    H53  120   1.037   0.069  -0.229
    1UNL    H54  121   0.862  -0.081  -0.224
    1UNL    H55  122   1.290  -0.055  -0.131
    1UNL    H56  123   1.193  -0.203   0.086
    1UNL    H57  124   1.258   0.147  -0.011
    1UNL    H58  125   1.335  -0.024   0.168
    1UNL    H59  126   1.038   0.190   0.146
    1UNL    H60  127   0.906   0.163  -0.056
    1UNL    H61  128   0.706  -0.079   0.300
    1UNL    H62  129   0.518  -0.045   0.449
    1UNL    H63  130   0.411  -0.003   0.314
    1UNL    H64  131   0.445  -0.175   0.347
   0.00000   0.00000   0.00000   0.00000   0.00000   0.00000   0.00000   0.00000   0.00000
Generated with MDTraj, t= 87.0
 131
    1UNL     C1    1  -0.529   0.334   0.040
    1UNL     C2    2  -0.539   0.245   0.155
    1UNL     C3    3  -0.617   0.136   0.160
    1UNL     C4    4  -0.696   0.088   0.040
    1UNL     O1    5  -0.623  -0.028  -0.007
    1UNL     C5    6  -0.700  -0.090  -0.104
    1UNL     O2    7  -0.754   0.001  -0.201
    1UNL     C6    8  -0.852  -0.057  -0.286
    1UNL     C7    9  -0.910   0.044  -0.381
    1UNL     O3   10  -1.008  -0.008  -0.469
    1UNL     C8   11  -0.792  -0.177  -0.365
    1UNL     O4   12  -0.883  -0.259  -0.446
    1UNL     C9   13  -0.705  -0.270  -0.274
    1UNL     O5   14  -0.799  -0.347  -0.207
    1UNL    C10   15  -0.606  -0.187  -0.179
    1UNL     O6   16  -0.509  -0.125  -0.254
    1UNL     O7   17  -0.840   0.080   0.076
    1UNL    C11   18  -0.858   0.019   0.197
    1UNL    C12   19  -0.766  -0.014   0.289
    1UNL    C13   20  -0.798  -0.077   0.412
    1UNL     O8   21  -0.714  -0.098   0.497
    1UNL     O9   22  -0.930  -0.109   0.432
    1UNL    C14   23  -0.931  -0.186   0.541
    1UNL    C15   24  -0.627   0.049   0.278
    1UNL    C16   25  -0.514  -0.050   0.304
    1UNL    C17   26  -0.384   0.021   0.307
    1UNL    O10   27  -0.370   0.122   0.370
    1UNL    O11   28  -0.292  -0.042   0.226
    1UNL    C18   29  -0.163   0.005   0.270
    1UNL    C19   30  -0.041  -0.021   0.176
    1UNL    C20   31   0.090   0.038   0.237
    1UNL    C21   32  -0.065   0.041   0.037
    1UNL    C22   33  -0.201   0.031  -0.025
    1UNL    C23   34  -0.194  -0.014  -0.173
    1UNL    O12   35  -0.211  -0.154  -0.189
    1UNL    C24   36  -0.040   0.017  -0.213
    1UNL    C25   37  -0.026   0.160  -0.284
    1UNL    C26   38   0.033  -0.005  -0.079
    1UNL    C27   39   0.091  -0.142  -0.074
    1UNL    O13   40   0.221  -0.158  -0.013
    1UNL    C28   41   0.313  -0.108  -0.098
    1UNL    O14   42   0.297  -0.061  -0.209
    1UNL    C29   43   0.456  -0.112  -0.053
    1UNL    C30   44   0.488   0.001   0.052
    1UNL    C31   45   0.506   0.133  -0.024
    1UNL    C32   46   0.391   0.225  -0.046
    1UNL    O15   47   0.289   0.192   0.007
    1UNL    O16   48   0.420   0.351  -0.099
    1UNL    C33   49   0.303   0.434  -0.105
    1UNL    C34   50   0.629   0.152  -0.083
    1UNL    O17   51   0.743   0.079  -0.063
    1UNL    C35   52   0.744  -0.003   0.053
    1UNL    O18   53   0.847   0.031   0.144
    1UNL    C36   54   0.971  -0.013   0.092
    1UNL    O19   55   0.959  -0.124  -0.007
    1UNL    C37   56   1.070  -0.118  -0.106
    1UNL    C38   57   1.030  -0.063  -0.242
    1UNL    O20   58   0.881  -0.056  -0.256
    1UNL    C39   59   1.209  -0.072  -0.046
    1UNL    O21   60   1.270  -0.161   0.035
    1UNL    C40   61   1.192   0.066   0.021
    1UNL    O22   62   1.264   0.059   0.150
    1UNL    C41   63   1.046   0.112   0.044
    1UNL    O23   64   0.994   0.181  -0.060
    1UNL    C42   65   0.612  -0.022   0.131
    1UNL    C43   66   0.610  -0.058   0.262
    1UNL    C44   67   0.488  -0.098   0.332
    1UNL     H1   68  -0.571   0.281  -0.044
    1UNL     H2   69  -0.572   0.434   0.069
    1UNL     H3   70  -0.427   0.359   0.025
    1UNL     H4   71  -0.492   0.277   0.245
    1UNL     H5   72  -0.689   0.164  -0.040
    1UNL     H6   73  -0.778  -0.145  -0.053
    1UNL     H7   74  -0.932  -0.100  -0.217
    1UNL     H8   75  -0.828   0.085  -0.444
    1UNL     H9   76  -0.958   0.124  -0.323
    1UNL    H10   77  -1.025   0.047  -0.554
    1UNL    H11   78  -0.726  -0.127  -0.439
    1UNL    H12   79  -0.951  -0.200  -0.490
    1UNL    H13   80  -0.641  -0.319  -0.351
    1UNL    H14   81  -0.852  -0.390  -0.280
    1UNL    H15   82  -0.557  -0.254  -0.109
    1UNL    H16   83  -0.517  -0.028  -0.249
    1UNL    H17   84  -0.952  -0.030   0.219
    1UNL    H18   85  -1.034  -0.230   0.543
    1UNL    H19   86  -0.932  -0.120   0.631
    1UNL    H20   87  -0.843  -0.258   0.538
    1UNL    H21   88  -0.611   0.108   0.372
    1UNL    H22   89  -0.535  -0.116   0.397
    1UNL    H23   90  -0.501  -0.099   0.209
    1UNL    H24   91  -0.175   0.115   0.274
    1UNL    H25   92  -0.144  -0.016   0.376
    1UNL    H26   93  -0.035  -0.131   0.168
    1UNL    H27   94   0.079   0.147   0.255
    1UNL    H28   95   0.122  -0.015   0.322
    1UNL    H29   96   0.170   0.034   0.158
    1UNL    H30   97  -0.053   0.148   0.049
    1UNL    H31   98  -0.265   0.120  -0.000
    1UNL    H32   99  -0.251  -0.055   0.016
    1UNL    H33  100  -0.256   0.038  -0.244
    1UNL    H34  101  -0.303  -0.168  -0.198
    1UNL    H35  102  -0.016  -0.060  -0.286
    1UNL    H36  103  -0.127   0.198  -0.321
    1UNL    H37  104   0.032   0.147  -0.378
    1UNL    H38  105   0.031   0.231  -0.226
    1UNL    H39  106   0.116   0.061  -0.083
    1UNL    H40  107   0.033  -0.210  -0.011
    1UNL    H41  108   0.100  -0.187  -0.171
    1UNL    H42  109   0.526  -0.109  -0.137
    1UNL    H43  110   0.479  -0.213  -0.009
    1UNL    H44  111   0.403   0.032   0.118
    1UNL    H45  112   0.316   0.510  -0.177
    1UNL    H46  113   0.303   0.484  -0.006
    1UNL    H47  114   0.218   0.368  -0.126
    1UNL    H48  115   0.641   0.243  -0.148
    1UNL    H49  116   0.770  -0.100   0.018
    1UNL    H50  117   1.033  -0.046   0.179
    1UNL    H51  118   1.081  -0.226  -0.113
    1UNL    H52  119   1.074  -0.121  -0.323
    1UNL    H53  120   1.082   0.041  -0.242
    1UNL    H54  121   0.835   0.004  -0.191
    1UNL    H55  122   1.279  -0.059  -0.134
    1UNL    H56  123   1.214  -0.198   0.106
    1UNL    H57  124   1.235   0.142  -0.047
    1UNL    H58  125   1.335  -0.007   0.147
    1UNL    H59  126   1.032   0.181   0.138
    1UNL    H60  127   0.898   0.167  -0.057
    1UNL    H61  128   0.705  -0.079   0.307
    1UNL    H62  129   0.525  -0.155   0.423
    1UNL    H63  130   0.434  -0.007   0.361
    1UNL    H64  131   0.421  -0.165   0.272
   0.00000   0.00000   0.00000   0.00000   0.00000   0.00000   0.00000   0.00000   0.00000
Generated with MDTraj, t= 88.0
 131
    1UNL     C1    1  -0.525   0.350   0.036
    1UNL     C2    2  -0.557   0.270   0.155
    1UNL     C3    3  -0.636   0.161   0.166
    1UNL     C4    4  -0.703   0.094   0.047
    1UNL     O1    5  -0.627  -0.018   0.004
    1UNL     C5    6  -0.703  -0.081  -0.098
    1UNL     O2    7  -0.753   0.007  -0.196
    1UNL     C6    8  -0.847  -0.051  -0.289
    1UNL     C7    9  -0.898   0.045  -0.391
    1UNL     O3   10  -0.984  -0.013  -0.488
    1UNL     C8   11  -0.779  -0.171  -0.365
    1UNL     O4   12  -0.868  -0.243  -0.452
    1UNL     C9   13  -0.722  -0.274  -0.265
    1UNL     O5   14  -0.823  -0.346  -0.192
    1UNL    C10   15  -0.623  -0.194  -0.171
    1UNL     O6   16  -0.521  -0.131  -0.241
    1UNL     O7   17  -0.837   0.056   0.078
    1UNL    C11   18  -0.845  -0.002   0.199
    1UNL    C12   19  -0.753  -0.014   0.298
    1UNL    C13   20  -0.785  -0.092   0.418
    1UNL     O8   21  -0.717  -0.095   0.521
    1UNL     O9   22  -0.920  -0.136   0.418
    1UNL    C14   23  -0.946  -0.181   0.546
    1UNL    C15   24  -0.623   0.065   0.283
    1UNL    C16   25  -0.503  -0.037   0.269
    1UNL    C17   26  -0.365   0.024   0.297
    1UNL    O10   27  -0.353   0.126   0.361
    1UNL    O11   28  -0.259  -0.040   0.235
    1UNL    C18   29  -0.140   0.034   0.259
    1UNL    C19   30  -0.034  -0.023   0.165
    1UNL    C20   31   0.109   0.030   0.212
    1UNL    C21   32  -0.067   0.039   0.028
    1UNL    C22   33  -0.204  -0.013  -0.026
    1UNL    C23   34  -0.196  -0.001  -0.180
    1UNL    O12   35  -0.229  -0.118  -0.241
    1UNL    C24   36  -0.040   0.021  -0.222
    1UNL    C25   37  -0.017   0.166  -0.284
    1UNL    C26   38   0.039   0.002  -0.085
    1UNL    C27   39   0.089  -0.147  -0.079
    1UNL    O13   40   0.207  -0.150  -0.001
    1UNL    C28   41   0.310  -0.119  -0.090
    1UNL    O14   42   0.302  -0.077  -0.206
    1UNL    C29   43   0.449  -0.124  -0.034
    1UNL    C30   44   0.481  -0.002   0.061
    1UNL    C31   45   0.495   0.134  -0.009
    1UNL    C32   46   0.370   0.207  -0.037
    1UNL    O15   47   0.263   0.167   0.006
    1UNL    O16   48   0.394   0.322  -0.107
    1UNL    C33   49   0.274   0.400  -0.111
    1UNL    C34   50   0.616   0.169  -0.055
    1UNL    O17   51   0.731   0.094  -0.041
    1UNL    C35   52   0.744   0.002   0.067
    1UNL    O18   53   0.849   0.034   0.157
    1UNL    C36   54   0.978  -0.004   0.097
    1UNL    O19   55   0.963  -0.107  -0.009
    1UNL    C37   56   1.067  -0.111  -0.108
    1UNL    C38   57   1.016  -0.044  -0.232
    1UNL    O20   58   0.896  -0.083  -0.272
    1UNL    C39   59   1.208  -0.072  -0.051
    1UNL    O21   60   1.253  -0.164   0.042
    1UNL    C40   61   1.200   0.072   0.009
    1UNL    O22   62   1.313   0.085   0.111
    1UNL    C41   63   1.061   0.114   0.052
    1UNL    O23   64   0.999   0.178  -0.053
    1UNL    C42   65   0.614  -0.033   0.138
    1UNL    C43   66   0.609  -0.086   0.263
    1UNL    C44   67   0.484  -0.109   0.345
    1UNL     H1   68  -0.430   0.323  -0.004
    1UNL     H2   69  -0.597   0.338  -0.050
    1UNL     H3   70  -0.531   0.457   0.051
    1UNL     H4   71  -0.506   0.298   0.249
    1UNL     H5   72  -0.700   0.162  -0.039
    1UNL     H6   73  -0.783  -0.128  -0.044
    1UNL     H7   74  -0.932  -0.099  -0.232
    1UNL     H8   75  -0.814   0.077  -0.454
    1UNL     H9   76  -0.946   0.131  -0.350
    1UNL    H10   77  -1.002   0.047  -0.563
    1UNL    H11   78  -0.696  -0.121  -0.420
    1UNL    H12   79  -0.925  -0.176  -0.488
    1UNL    H13   80  -0.654  -0.341  -0.318
    1UNL    H14   81  -0.896  -0.374  -0.251
    1UNL    H15   82  -0.580  -0.267  -0.099
    1UNL    H16   83  -0.551  -0.036  -0.248
    1UNL    H17   84  -0.941  -0.044   0.215
    1UNL    H18   85  -1.016  -0.264   0.536
    1UNL    H19   86  -1.000  -0.112   0.606
    1UNL    H20   87  -0.856  -0.214   0.595
    1UNL    H21   88  -0.615   0.118   0.381
    1UNL    H22   89  -0.514  -0.125   0.338
    1UNL    H23   90  -0.514  -0.064   0.165
    1UNL    H24   91  -0.163   0.140   0.240
    1UNL    H25   92  -0.119   0.023   0.362
    1UNL    H26   93  -0.037  -0.133   0.156
    1UNL    H27   94   0.105   0.054   0.316
    1UNL    H28   95   0.192  -0.034   0.189
    1UNL    H29   96   0.120   0.133   0.165
    1UNL    H30   97  -0.075   0.147   0.023
    1UNL    H31   98  -0.288   0.050   0.007
    1UNL    H32   99  -0.223  -0.115   0.020
    1UNL    H33  100  -0.266   0.085  -0.190
    1UNL    H34  101  -0.332  -0.136  -0.251
    1UNL    H35  102  -0.028  -0.063  -0.289
    1UNL    H36  103  -0.000   0.151  -0.397
    1UNL    H37  104   0.063   0.225  -0.241
    1UNL    H38  105  -0.109   0.225  -0.276
    1UNL    H39  106   0.121   0.069  -0.082
    1UNL    H40  107   0.007  -0.207  -0.038
    1UNL    H41  108   0.127  -0.192  -0.170
    1UNL    H42  109   0.516  -0.126  -0.122
    1UNL    H43  110   0.468  -0.223   0.012
    1UNL    H44  111   0.394   0.020   0.129
    1UNL    H45  112   0.266   0.442  -0.206
    1UNL    H46  113   0.304   0.479  -0.040
    1UNL    H47  114   0.184   0.346  -0.084
    1UNL    H48  115   0.624   0.244  -0.126
    1UNL    H49  116   0.778  -0.089   0.028
    1UNL    H50  117   1.035  -0.056   0.176
    1UNL    H51  118   1.078  -0.213  -0.133
    1UNL    H52  119   1.095  -0.069  -0.306
    1UNL    H53  120   1.011   0.072  -0.223
    1UNL    H54  121   0.820  -0.053  -0.220
    1UNL    H55  122   1.282  -0.068  -0.137
    1UNL    H56  123   1.186  -0.186   0.110
    1UNL    H57  124   1.236   0.146  -0.062
    1UNL    H58  125   1.344  -0.005   0.138
    1UNL    H59  126   1.070   0.188   0.140
    1UNL    H60  127   0.898   0.157  -0.047
    1UNL    H61  128   0.703  -0.111   0.309
    1UNL    H62  129   0.475  -0.219   0.367
    1UNL    H63  130   0.494  -0.050   0.439
    1UNL    H64  131   0.388  -0.068   0.302
   0.00000   0.00000   0.00000   0.00000   0.00000   0.00000   0.00000   0.00000   0.00000
Generated with MDTraj, t= 89.0
 131
    1UNL     C1    1  -0.554   0.371   0.061
    1UNL     C2    2  -0.540   0.262   0.161
    1UNL     C3    3  -0.610   0.148   0.165
    1UNL     C4    4  -0.693   0.096   0.045
    1UNL     O1    5  -0.627  -0.016  -0.001
    1UNL     C5    6  -0.708  -0.069  -0.108
    1UNL     O2    7  -0.744   0.008  -0.220
    1UNL     C6    8  -0.840  -0.052  -0.313
    1UNL     C7    9  -0.883   0.050  -0.417
    1UNL     O3   10  -0.985   0.005  -0.504
    1UNL     C8   11  -0.774  -0.183  -0.372
    1UNL     O4   12  -0.879  -0.248  -0.448
    1UNL     C9   13  -0.727  -0.273  -0.255
    1UNL     O5   14  -0.835  -0.328  -0.185
    1UNL    C10   15  -0.630  -0.198  -0.161
    1UNL     O6   16  -0.513  -0.141  -0.217
    1UNL     O7   17  -0.826   0.057   0.082
    1UNL    C11   18  -0.840  -0.006   0.204
    1UNL    C12   19  -0.752  -0.004   0.304
    1UNL    C13   20  -0.785  -0.089   0.425
    1UNL     O8   21  -0.713  -0.081   0.525
    1UNL     O9   22  -0.908  -0.156   0.427
    1UNL    C14   23  -0.925  -0.200   0.562
    1UNL    C15   24  -0.618   0.074   0.296
    1UNL    C16   25  -0.501  -0.032   0.310
    1UNL    C17   26  -0.364   0.038   0.296
    1UNL    O10   27  -0.339   0.151   0.337
    1UNL    O11   28  -0.273  -0.042   0.232
    1UNL    C18   29  -0.148   0.027   0.244
    1UNL    C19   30  -0.042  -0.022   0.152
    1UNL    C20   31   0.097   0.009   0.198
    1UNL    C21   32  -0.064   0.034   0.010
    1UNL    C22   33  -0.201  -0.002  -0.049
    1UNL    C23   34  -0.188   0.007  -0.204
    1UNL    O12   35  -0.236  -0.107  -0.276
    1UNL    C24   36  -0.034   0.019  -0.236
    1UNL    C25   37   0.006   0.155  -0.297
    1UNL    C26   38   0.036  -0.009  -0.106
    1UNL    C27   39   0.090  -0.150  -0.093
    1UNL    O13   40   0.203  -0.157   0.002
    1UNL    C28   41   0.313  -0.131  -0.068
    1UNL    O14   42   0.311  -0.098  -0.187
    1UNL    C29   43   0.441  -0.135   0.007
    1UNL    C30   44   0.475  -0.006   0.086
    1UNL    C31   45   0.479   0.116  -0.009
    1UNL    C32   46   0.362   0.202  -0.023
    1UNL    O15   47   0.275   0.201   0.063
    1UNL    O16   48   0.379   0.296  -0.125
    1UNL    C33   49   0.267   0.383  -0.126
    1UNL    C34   50   0.595   0.153  -0.059
    1UNL    O17   51   0.720   0.097  -0.047
    1UNL    C35   52   0.735   0.001   0.061
    1UNL    O18   53   0.844   0.017   0.143
    1UNL    C36   54   0.968  -0.014   0.084
    1UNL    O19   55   0.946  -0.094  -0.030
    1UNL    C37   56   1.064  -0.121  -0.111
    1UNL    C38   57   1.033  -0.052  -0.247
    1UNL    O20   58   0.905  -0.063  -0.272
    1UNL    C39   59   1.200  -0.076  -0.042
    1UNL    O21   60   1.234  -0.156   0.062
    1UNL    C40   61   1.190   0.073  -0.001
    1UNL    O22   62   1.298   0.107   0.089
    1UNL    C41   63   1.057   0.111   0.067
    1UNL    O23   64   0.977   0.209  -0.012
    1UNL    C42   65   0.614  -0.013   0.151
    1UNL    C43   66   0.636  -0.067   0.271
    1UNL    C44   67   0.540  -0.135   0.359
    1UNL     H1   68  -0.582   0.467   0.093
    1UNL     H2   69  -0.455   0.386   0.013
    1UNL     H3   70  -0.626   0.354  -0.021
    1UNL     H4   71  -0.487   0.291   0.248
    1UNL     H5   72  -0.694   0.164  -0.041
    1UNL     H6   73  -0.800  -0.086  -0.052
    1UNL     H7   74  -0.931  -0.091  -0.263
    1UNL     H8   75  -0.799   0.084  -0.477
    1UNL     H9   76  -0.917   0.136  -0.368
    1UNL    H10   77  -1.047   0.075  -0.519
    1UNL    H11   78  -0.689  -0.160  -0.441
    1UNL    H12   79  -0.931  -0.177  -0.499
    1UNL    H13   80  -0.671  -0.354  -0.301
    1UNL    H14   81  -0.914  -0.329  -0.244
    1UNL    H15   82  -0.606  -0.271  -0.079
    1UNL    H16   83  -0.544  -0.058  -0.263
    1UNL    H17   84  -0.933  -0.063   0.207
    1UNL    H18   85  -1.028  -0.218   0.594
    1UNL    H19   86  -0.888  -0.133   0.633
    1UNL    H20   87  -0.868  -0.288   0.574
    1UNL    H21   88  -0.630   0.144   0.383
    1UNL    H22   89  -0.521  -0.064   0.414
    1UNL    H23   90  -0.516  -0.115   0.241
    1UNL    H24   91  -0.160   0.135   0.237
    1UNL    H25   92  -0.123   0.013   0.345
    1UNL    H26   93  -0.049  -0.132   0.141
    1UNL    H27   94   0.128  -0.059   0.274
    1UNL    H28   95   0.180   0.001   0.120
    1UNL    H29   96   0.105   0.105   0.254
    1UNL    H30   97  -0.065   0.143   0.006
    1UNL    H31   98  -0.289   0.044  -0.008
    1UNL    H32   99  -0.221  -0.118  -0.034
    1UNL    H33  100  -0.234   0.102  -0.245
    1UNL    H34  101  -0.328  -0.123  -0.264
    1UNL    H35  102  -0.024  -0.057  -0.311
    1UNL    H36  103  -0.085   0.192  -0.353
    1UNL    H37  104   0.088   0.150  -0.368
    1UNL    H38  105   0.036   0.237  -0.227
    1UNL    H39  106   0.119   0.057  -0.097
    1UNL    H40  107   0.017  -0.220  -0.055
    1UNL    H41  108   0.125  -0.173  -0.196
    1UNL    H42  109   0.520  -0.150  -0.070
    1UNL    H43  110   0.443  -0.229   0.063
    1UNL    H44  111   0.390   0.004   0.159
    1UNL    H45  112   0.278   0.463  -0.191
    1UNL    H46  113   0.263   0.417  -0.019
    1UNL    H47  114   0.177   0.330  -0.155
    1UNL    H48  115   0.602   0.241  -0.122
    1UNL    H49  116   0.754  -0.092   0.017
    1UNL    H50  117   1.014  -0.088   0.152
    1UNL    H51  118   1.072  -0.226  -0.124
    1UNL    H52  119   1.088  -0.088  -0.336
    1UNL    H53  120   1.060   0.063  -0.240
    1UNL    H54  121   0.844  -0.009  -0.213
    1UNL    H55  122   1.280  -0.089  -0.122
    1UNL    H56  123   1.158  -0.201   0.109
    1UNL    H57  124   1.194   0.133  -0.092
    1UNL    H58  125   1.338   0.020   0.111
    1UNL    H59  126   1.077   0.175   0.158
    1UNL    H60  127   0.888   0.176  -0.023
    1UNL    H61  128   0.745  -0.072   0.292
    1UNL    H62  129   0.522  -0.241   0.328
    1UNL    H63  130   0.576  -0.129   0.466
    1UNL    H64  131   0.441  -0.084   0.374
   0.00000   0.00000   0.00000   0.00000   0.00000   0.00000   0.00000   0.00000   0.00000
Generated with MDTraj, t= 90.0
 131
    1UNL     C1    1  -0.554   0.362   0.051
    1UNL     C2    2  -0.574   0.276   0.176
    1UNL     C3    3  -0.623   0.151   0.173
    1UNL     C4    4  -0.698   0.092   0.059
    1UNL     O1    5  -0.625  -0.016   0.004
    1UNL     C5    6  -0.699  -0.069  -0.109
    1UNL     O2    7  -0.728   0.015  -0.215
    1UNL     C6    8  -0.828  -0.043  -0.305
    1UNL     C7    9  -0.862   0.056  -0.413
    1UNL     O3   10  -0.965   0.017  -0.505
    1UNL     C8   11  -0.781  -0.182  -0.366
    1UNL     O4   12  -0.893  -0.237  -0.433
    1UNL     C9   13  -0.729  -0.281  -0.253
    1UNL     O5   14  -0.841  -0.322  -0.179
    1UNL    C10   15  -0.630  -0.200  -0.164
    1UNL     O6   16  -0.523  -0.149  -0.237
    1UNL     O7   17  -0.832   0.059   0.091
    1UNL    C11   18  -0.846   0.011   0.218
    1UNL    C12   19  -0.763   0.012   0.324
    1UNL    C13   20  -0.781  -0.070   0.436
    1UNL     O8   21  -0.688  -0.083   0.513
    1UNL     O9   22  -0.903  -0.130   0.455
    1UNL    C14   23  -0.884  -0.224   0.547
    1UNL    C15   24  -0.626   0.074   0.301
    1UNL    C16   25  -0.507  -0.028   0.276
    1UNL    C17   26  -0.377   0.031   0.282
    1UNL    O10   27  -0.363   0.133   0.343
    1UNL    O11   28  -0.281  -0.025   0.210
    1UNL    C18   29  -0.152   0.036   0.240
    1UNL    C19   30  -0.046  -0.016   0.139
    1UNL    C20   31   0.091  -0.012   0.198
    1UNL    C21   32  -0.058   0.037  -0.004
    1UNL    C22   33  -0.190   0.021  -0.079
    1UNL    C23   34  -0.173  -0.006  -0.232
    1UNL    O12   35  -0.221  -0.137  -0.263
    1UNL    C24   36  -0.020   0.009  -0.254
    1UNL    C25   37   0.020   0.135  -0.327
    1UNL    C26   38   0.052  -0.012  -0.110
    1UNL    C27   39   0.095  -0.160  -0.106
    1UNL    O13   40   0.195  -0.183  -0.013
    1UNL    C28   41   0.311  -0.124  -0.053
    1UNL    O14   42   0.320  -0.069  -0.163
    1UNL    C29   43   0.427  -0.140   0.036
    1UNL    C30   44   0.475  -0.013   0.096
    1UNL    C31   45   0.482   0.106   0.001
    1UNL    C32   46   0.365   0.190  -0.016
    1UNL    O15   47   0.274   0.175   0.061
    1UNL    O16   48   0.378   0.294  -0.107
    1UNL    C33   49   0.267   0.371  -0.102
    1UNL    C34   50   0.602   0.117  -0.061
    1UNL    O17   51   0.717   0.043  -0.047
    1UNL    C35   52   0.737  -0.024   0.085
    1UNL    O18   53   0.847   0.026   0.156
    1UNL    C36   54   0.971  -0.007   0.080
    1UNL    O19   55   0.954  -0.081  -0.030
    1UNL    C37   56   1.064  -0.100  -0.121
    1UNL    C38   57   1.038  -0.015  -0.245
    1UNL    O20   58   0.899  -0.031  -0.283
    1UNL    C39   59   1.200  -0.069  -0.054
    1UNL    O21   60   1.209  -0.149   0.064
    1UNL    C40   61   1.194   0.090  -0.013
    1UNL    O22   62   1.297   0.106   0.090
    1UNL    C41   63   1.054   0.128   0.048
    1UNL    O23   64   0.967   0.207  -0.042
    1UNL    C42   65   0.609  -0.037   0.162
    1UNL    C43   66   0.620  -0.083   0.288
    1UNL    C44   67   0.507  -0.097   0.375
    1UNL     H1   68  -0.594   0.321  -0.039
    1UNL     H2   69  -0.580   0.465   0.079
    1UNL     H3   70  -0.447   0.361   0.019
    1UNL     H4   71  -0.536   0.318   0.270
    1UNL     H5   72  -0.712   0.171  -0.014
    1UNL     H6   73  -0.798  -0.085  -0.061
    1UNL     H7   74  -0.923  -0.051  -0.248
    1UNL     H8   75  -0.771   0.088  -0.463
    1UNL     H9   76  -0.890   0.143  -0.361
    1UNL    H10   77  -1.002   0.101  -0.544
    1UNL    H11   78  -0.697  -0.159  -0.434
    1UNL    H12   79  -0.936  -0.173  -0.492
    1UNL    H13   80  -0.680  -0.369  -0.297
    1UNL    H14   81  -0.911  -0.354  -0.241
    1UNL    H15   82  -0.593  -0.274  -0.088
    1UNL    H16   83  -0.549  -0.067  -0.286
    1UNL    H17   84  -0.924  -0.065   0.225
    1UNL    H18   85  -0.977  -0.284   0.543
    1UNL    H19   86  -0.867  -0.189   0.647
    1UNL    H20   87  -0.799  -0.280   0.513
    1UNL    H21   88  -0.598   0.133   0.390
    1UNL    H22   89  -0.507  -0.103   0.353
    1UNL    H23   90  -0.518  -0.084   0.180
    1UNL    H24   91  -0.165   0.145   0.239
    1UNL    H25   92  -0.131   0.010   0.339
    1UNL    H26   93  -0.068  -0.125   0.139
    1UNL    H27   94   0.092  -0.003   0.308
    1UNL    H28   95   0.148  -0.106   0.171
    1UNL    H29   96   0.147   0.077   0.166
    1UNL    H30   97  -0.036   0.145   0.001
    1UNL    H31   98  -0.245   0.113  -0.063
    1UNL    H32   99  -0.259  -0.059  -0.033
    1UNL    H33  100  -0.230   0.071  -0.297
    1UNL    H34  101  -0.325  -0.147  -0.250
    1UNL    H35  102   0.010  -0.071  -0.320
    1UNL    H36  103   0.004   0.134  -0.436
    1UNL    H37  104   0.128   0.150  -0.305
    1UNL    H38  105  -0.030   0.229  -0.287
    1UNL    H39  106   0.140   0.046  -0.096
    1UNL    H40  107   0.007  -0.221  -0.090
    1UNL    H41  108   0.146  -0.187  -0.203
    1UNL    H42  109   0.513  -0.186  -0.018
    1UNL    H43  110   0.409  -0.201   0.123
    1UNL    H44  111   0.402   0.017   0.178
    1UNL    H45  112   0.267   0.437  -0.185
    1UNL    H46  113   0.270   0.424  -0.001
    1UNL    H47  114   0.178   0.304  -0.109
    1UNL    H48  115   0.609   0.197  -0.141
    1UNL    H49  116   0.761  -0.122   0.057
    1UNL    H50  117   1.034  -0.072   0.144
    1UNL    H51  118   1.063  -0.207  -0.142
    1UNL    H52  119   1.104  -0.036  -0.331
    1UNL    H53  120   1.062   0.099  -0.224
    1UNL    H54  121   0.853   0.010  -0.208
    1UNL    H55  122   1.281  -0.099  -0.124
    1UNL    H56  123   1.248  -0.240   0.058
    1UNL    H57  124   1.234   0.155  -0.093
    1UNL    H58  125   1.335   0.017   0.106
    1UNL    H59  126   1.074   0.174   0.146
    1UNL    H60  127   0.882   0.165  -0.037
    1UNL    H61  128   0.714  -0.092   0.328
    1UNL    H62  129   0.417  -0.140   0.324
    1UNL    H63  130   0.542  -0.160   0.464
    1UNL    H64  131   0.485  -0.003   0.428
   0.00000   0.00000   0.00000   0.00000   0.00000   0.00000   0.00000   0.00000   0.00000
Generated with MDTraj, t= 91.0
 131
    1UNL     C1    1  -0.577   0.346   0.028
    1UNL     C2    2  -0.565   0.277   0.161
    1UNL     C3    3  -0.626   0.161   0.173
    1UNL     C4    4  -0.710   0.110   0.056
    1UNL     O1    5  -0.639   0.001   0.008
    1UNL     C5    6  -0.713  -0.066  -0.095
    1UNL     O2    7  -0.744   0.023  -0.199
    1UNL     C6    8  -0.829  -0.026  -0.300
    1UNL     C7    9  -0.853   0.079  -0.403
    1UNL     O3   10  -0.943   0.033  -0.501
    1UNL     C8   11  -0.780  -0.164  -0.354
    1UNL     O4   12  -0.888  -0.227  -0.419
    1UNL     C9   13  -0.725  -0.262  -0.244
    1UNL     O5   14  -0.831  -0.319  -0.175
    1UNL    C10   15  -0.631  -0.188  -0.149
    1UNL     O6   16  -0.515  -0.137  -0.206
    1UNL     O7   17  -0.842   0.064   0.095
    1UNL    C11   18  -0.847  -0.013   0.205
    1UNL    C12   19  -0.755  -0.007   0.304
    1UNL    C13   20  -0.761  -0.093   0.417
    1UNL     O8   21  -0.677  -0.079   0.506
    1UNL     O9   22  -0.885  -0.161   0.429
    1UNL    C14   23  -0.894  -0.203   0.564
    1UNL    C15   24  -0.624   0.075   0.291
    1UNL    C16   25  -0.508  -0.030   0.275
    1UNL    C17   26  -0.369   0.038   0.260
    1UNL    O10   27  -0.342   0.119   0.349
    1UNL    O11   28  -0.281  -0.004   0.162
    1UNL    C18   29  -0.159   0.038   0.205
    1UNL    C19   30  -0.043  -0.023   0.116
    1UNL    C20   31   0.083   0.004   0.204
    1UNL    C21   32  -0.056   0.034  -0.027
    1UNL    C22   33  -0.190   0.025  -0.095
    1UNL    C23   34  -0.164  -0.029  -0.237
    1UNL    O12   35  -0.221  -0.160  -0.253
    1UNL    C24   36  -0.010  -0.014  -0.258
    1UNL    C25   37   0.008   0.123  -0.323
    1UNL    C26   38   0.058  -0.026  -0.118
    1UNL    C27   39   0.091  -0.174  -0.092
    1UNL    O13   40   0.193  -0.192  -0.004
    1UNL    C28   41   0.312  -0.147  -0.057
    1UNL    O14   42   0.312  -0.086  -0.163
    1UNL    C29   43   0.438  -0.160   0.025
    1UNL    C30   44   0.479  -0.033   0.097
    1UNL    C31   45   0.486   0.087   0.010
    1UNL    C32   46   0.373   0.181  -0.001
    1UNL    O15   47   0.268   0.166   0.052
    1UNL    O16   48   0.404   0.289  -0.079
    1UNL    C33   49   0.295   0.373  -0.089
    1UNL    C34   50   0.609   0.101  -0.048
    1UNL    O17   51   0.721   0.025  -0.044
    1UNL    C35   52   0.735  -0.038   0.081
    1UNL    O18   53   0.844   0.015   0.158
    1UNL    C36   54   0.972  -0.005   0.084
    1UNL    O19   55   0.963  -0.089  -0.030
    1UNL    C37   56   1.062  -0.082  -0.132
    1UNL    C38   57   1.022  -0.002  -0.259
    1UNL    O20   58   0.876  -0.019  -0.287
    1UNL    C39   59   1.192  -0.033  -0.059
    1UNL    O21   60   1.236  -0.138   0.025
    1UNL    C40   61   1.171   0.103   0.009
    1UNL    O22   62   1.257   0.108   0.116
    1UNL    C41   63   1.033   0.132   0.052
    1UNL    O23   64   0.944   0.188  -0.049
    1UNL    C42   65   0.611  -0.044   0.168
    1UNL    C43   66   0.628  -0.057   0.301
    1UNL    C44   67   0.510  -0.051   0.399
    1UNL     H1   68  -0.505   0.306  -0.044
    1UNL     H2   69  -0.684   0.350   0.011
    1UNL     H3   70  -0.557   0.454   0.042
    1UNL     H4   71  -0.497   0.312   0.235
    1UNL     H5   72  -0.726   0.183  -0.020
    1UNL     H6   73  -0.805  -0.091  -0.034
    1UNL     H7   74  -0.925  -0.037  -0.248
    1UNL     H8   75  -0.755   0.092  -0.453
    1UNL     H9   76  -0.877   0.175  -0.363
    1UNL    H10   77  -1.034   0.008  -0.462
    1UNL    H11   78  -0.701  -0.148  -0.428
    1UNL    H12   79  -0.937  -0.163  -0.477
    1UNL    H13   80  -0.668  -0.340  -0.298
    1UNL    H14   81  -0.896  -0.359  -0.237
    1UNL    H15   82  -0.600  -0.253  -0.062
    1UNL    H16   83  -0.511  -0.038  -0.194
    1UNL    H17   84  -0.928  -0.083   0.222
    1UNL    H18   85  -0.997  -0.231   0.610
    1UNL    H19   86  -0.847  -0.130   0.632
    1UNL    H20   87  -0.820  -0.286   0.568
    1UNL    H21   88  -0.600   0.134   0.380
    1UNL    H22   89  -0.507  -0.100   0.355
    1UNL    H23   90  -0.525  -0.098   0.187
    1UNL    H24   91  -0.161   0.151   0.205
    1UNL    H25   92  -0.158   0.009   0.307
    1UNL    H26   93  -0.061  -0.130   0.131
    1UNL    H27   94   0.113  -0.075   0.282
    1UNL    H28   95   0.157   0.015   0.130
    1UNL    H29   96   0.067   0.096   0.257
    1UNL    H30   97  -0.028   0.141  -0.023
    1UNL    H31   98  -0.242   0.121  -0.107
    1UNL    H32   99  -0.258  -0.036  -0.030
    1UNL    H33  100  -0.226   0.037  -0.309
    1UNL    H34  101  -0.311  -0.154  -0.227
    1UNL    H35  102   0.032  -0.091  -0.319
    1UNL    H36  103  -0.041   0.128  -0.419
    1UNL    H37  104   0.120   0.131  -0.337
    1UNL    H38  105  -0.025   0.213  -0.263
    1UNL    H39  106   0.144   0.035  -0.118
    1UNL    H40  107   0.005  -0.232  -0.061
    1UNL    H41  108   0.134  -0.216  -0.188
    1UNL    H42  109   0.532  -0.185  -0.031
    1UNL    H43  110   0.421  -0.232   0.102
    1UNL    H44  111   0.405  -0.006   0.178
    1UNL    H45  112   0.306   0.446  -0.167
    1UNL    H46  113   0.272   0.424   0.013
    1UNL    H47  114   0.207   0.308  -0.113
    1UNL    H48  115   0.608   0.176  -0.126
    1UNL    H49  116   0.755  -0.138   0.053
    1UNL    H50  117   1.041  -0.054   0.154
    1UNL    H51  118   1.073  -0.187  -0.169
    1UNL    H52  119   1.089  -0.039  -0.337
    1UNL    H53  120   1.047   0.114  -0.253
    1UNL    H54  121   0.822  -0.019  -0.208
    1UNL    H55  122   1.271  -0.019  -0.132
    1UNL    H56  123   1.161  -0.183   0.064
    1UNL    H57  124   1.192   0.197  -0.050
    1UNL    H58  125   1.326   0.038   0.105
    1UNL    H59  126   1.026   0.196   0.138
    1UNL    H60  127   0.853   0.145  -0.028
    1UNL    H61  128   0.734  -0.049   0.341
    1UNL    H62  129   0.429  -0.122   0.371
    1UNL    H63  130   0.547  -0.062   0.507
    1UNL    H64  131   0.467   0.049   0.408
   0.00000   0.00000   0.00000   0.00000   0.00000   0.00000   0.00000   0.00000   0.00000
Generated with MDTraj, t= 92.0
 131
    1UNL     C1    1  -0.567   0.384   0.074
    1UNL     C2    2  -0.566   0.283   0.178
    1UNL     C3    3  -0.641   0.175   0.179
    1UNL     C4    4  -0.720   0.112   0.061
    1UNL     O1    5  -0.648  -0.002   0.015
    1UNL     C5    6  -0.712  -0.069  -0.094
    1UNL     O2    7  -0.744   0.017  -0.199
    1UNL     C6    8  -0.823  -0.038  -0.307
    1UNL     C7    9  -0.862   0.070  -0.404
    1UNL     O3   10  -0.966   0.034  -0.489
    1UNL     C8   11  -0.760  -0.156  -0.375
    1UNL     O4   12  -0.854  -0.220  -0.462
    1UNL     C9   13  -0.718  -0.261  -0.268
    1UNL     O5   14  -0.834  -0.316  -0.201
    1UNL    C10   15  -0.630  -0.190  -0.154
    1UNL     O6   16  -0.508  -0.157  -0.213
    1UNL     O7   17  -0.850   0.078   0.105
    1UNL    C11   18  -0.851   0.013   0.227
    1UNL    C12   19  -0.755   0.006   0.322
    1UNL    C13   20  -0.773  -0.093   0.426
    1UNL     O8   21  -0.678  -0.106   0.502
    1UNL     O9   22  -0.899  -0.139   0.450
    1UNL    C14   23  -0.900  -0.220   0.560
    1UNL    C15   24  -0.620   0.078   0.294
    1UNL    C16   25  -0.504  -0.021   0.278
    1UNL    C17   26  -0.369   0.051   0.277
    1UNL    O10   27  -0.351   0.144   0.355
    1UNL    O11   28  -0.271  -0.006   0.193
    1UNL    C18   29  -0.151   0.055   0.209
    1UNL    C19   30  -0.033  -0.022   0.125
    1UNL    C20   31   0.103  -0.011   0.187
    1UNL    C21   32  -0.047   0.032  -0.024
    1UNL    C22   33  -0.192   0.013  -0.085
    1UNL    C23   34  -0.174  -0.039  -0.234
    1UNL    O12   35  -0.226  -0.172  -0.262
    1UNL    C24   36  -0.020  -0.036  -0.266
    1UNL    C25   37   0.022   0.081  -0.356
    1UNL    C26   38   0.057  -0.025  -0.133
    1UNL    C27   39   0.095  -0.169  -0.097
    1UNL    O13   40   0.202  -0.184  -0.005
    1UNL    C28   41   0.320  -0.171  -0.067
    1UNL    O14   42   0.335  -0.163  -0.187
    1UNL    C29   43   0.439  -0.164   0.027
    1UNL    C30   44   0.467  -0.027   0.101
    1UNL    C31   45   0.483   0.090  -0.002
    1UNL    C32   46   0.377   0.190  -0.009
    1UNL    O15   47   0.278   0.184   0.060
    1UNL    O16   48   0.415   0.295  -0.088
    1UNL    C33   49   0.320   0.396  -0.079
    1UNL    C34   50   0.599   0.102  -0.068
    1UNL    O17   51   0.708   0.018  -0.043
    1UNL    C35   52   0.719  -0.051   0.081
    1UNL    O18   53   0.838  -0.022   0.162
    1UNL    C36   54   0.961  -0.024   0.087
    1UNL    O19   55   0.974  -0.105  -0.034
    1UNL    C37   56   1.059  -0.066  -0.137
    1UNL    C38   57   0.990   0.004  -0.259
    1UNL    O20   58   0.863  -0.052  -0.283
    1UNL    C39   59   1.193   0.006  -0.078
    1UNL    O21   60   1.280  -0.089  -0.025
    1UNL    C40   61   1.164   0.117   0.027
    1UNL    O22   62   1.251   0.112   0.143
    1UNL    C41   63   1.016   0.113   0.067
    1UNL    O23   64   0.927   0.186  -0.021
    1UNL    C42   65   0.601  -0.043   0.174
    1UNL    C43   66   0.624  -0.037   0.306
    1UNL    C44   67   0.512  -0.021   0.415
    1UNL     H1   68  -0.581   0.351  -0.030
    1UNL     H2   69  -0.655   0.439   0.101
    1UNL     H3   70  -0.486   0.458   0.076
    1UNL     H4   71  -0.482   0.273   0.250
    1UNL     H5   72  -0.729   0.182  -0.018
    1UNL     H6   73  -0.804  -0.105  -0.038
    1UNL     H7   74  -0.909  -0.082  -0.257
    1UNL     H8   75  -0.776   0.096  -0.471
    1UNL     H9   76  -0.886   0.160  -0.349
    1UNL    H10   77  -1.052   0.026  -0.444
    1UNL    H11   78  -0.679  -0.125  -0.440
    1UNL    H12   79  -0.893  -0.160  -0.530
    1UNL    H13   80  -0.666  -0.346  -0.319
    1UNL    H14   81  -0.917  -0.327  -0.252
    1UNL    H15   82  -0.608  -0.272  -0.080
    1UNL    H16   83  -0.494  -0.062  -0.224
    1UNL    H17   84  -0.940  -0.048   0.230
    1UNL    H18   85  -0.968  -0.312   0.539
    1UNL    H19   86  -0.940  -0.164   0.647
    1UNL    H20   87  -0.793  -0.244   0.583
    1UNL    H21   88  -0.608   0.140   0.383
    1UNL    H22   89  -0.508  -0.106   0.341
    1UNL    H23   90  -0.521  -0.073   0.178
    1UNL    H24   91  -0.162   0.165   0.182
    1UNL    H25   92  -0.129   0.048   0.312
    1UNL    H26   93  -0.064  -0.127   0.122
    1UNL    H27   94   0.118   0.060   0.279
    1UNL    H28   95   0.139  -0.105   0.218
    1UNL    H29   96   0.169   0.026   0.110
    1UNL    H30   97  -0.025   0.141  -0.024
    1UNL    H31   98  -0.245   0.112  -0.083
    1UNL    H32   99  -0.264  -0.053  -0.042
    1UNL    H33  100  -0.224   0.024  -0.314
    1UNL    H34  101  -0.330  -0.177  -0.252
    1UNL    H35  102   0.005  -0.133  -0.306
    1UNL    H36  103  -0.052   0.092  -0.434
    1UNL    H37  104   0.127   0.060  -0.397
    1UNL    H38  105   0.024   0.180  -0.304
    1UNL    H39  106   0.138   0.043  -0.135
    1UNL    H40  107   0.014  -0.229  -0.060
    1UNL    H41  108   0.134  -0.219  -0.191
    1UNL    H42  109   0.522  -0.190  -0.040
    1UNL    H43  110   0.428  -0.237   0.105
    1UNL    H44  111   0.381  -0.010   0.172
    1UNL    H45  112   0.361   0.493  -0.091
    1UNL    H46  113   0.258   0.393   0.018
    1UNL    H47  114   0.248   0.369  -0.159
    1UNL    H48  115   0.624   0.183  -0.128
    1UNL    H49  116   0.728  -0.157   0.058
    1UNL    H50  117   1.033  -0.071   0.154
    1UNL    H51  118   1.085  -0.171  -0.178
    1UNL    H52  119   1.047  -0.001  -0.350
    1UNL    H53  120   0.981   0.116  -0.226
    1UNL    H54  121   0.825  -0.064  -0.193
    1UNL    H55  122   1.248   0.039  -0.163
    1UNL    H56  123   1.236  -0.134   0.047
    1UNL    H57  124   1.185   0.221  -0.010
    1UNL    H58  125   1.338   0.084   0.110
    1UNL    H59  126   1.009   0.166   0.158
    1UNL    H60  127   0.840   0.152  -0.016
    1UNL    H61  128   0.721  -0.019   0.332
    1UNL    H62  129   0.459  -0.114   0.445
    1UNL    H63  130   0.551   0.042   0.502
    1UNL    H64  131   0.429   0.046   0.387
   0.00000   0.00000   0.00000   0.00000   0.00000   0.00000   0.00000   0.00000   0.00000
Generated with MDTraj, t= 93.0
 131
    1UNL     C1    1  -0.588   0.388   0.070
    1UNL     C2    2  -0.577   0.296   0.189
    1UNL     C3    3  -0.616   0.169   0.189
    1UNL     C4    4  -0.689   0.107   0.069
    1UNL     O1    5  -0.632  -0.011   0.007
    1UNL     C5    6  -0.715  -0.057  -0.095
    1UNL     O2    7  -0.750   0.037  -0.196
    1UNL     C6    8  -0.827  -0.029  -0.302
    1UNL     C7    9  -0.877   0.071  -0.412
    1UNL     O3   10  -0.982   0.017  -0.488
    1UNL     C8   11  -0.750  -0.143  -0.373
    1UNL     O4   12  -0.828  -0.198  -0.486
    1UNL     C9   13  -0.716  -0.247  -0.267
    1UNL     O5   14  -0.833  -0.308  -0.223
    1UNL    C10   15  -0.641  -0.178  -0.153
    1UNL     O6   16  -0.519  -0.137  -0.206
    1UNL     O7   17  -0.827   0.081   0.103
    1UNL    C11   18  -0.840   0.010   0.222
    1UNL    C12   19  -0.741  -0.006   0.316
    1UNL    C13   20  -0.765  -0.093   0.431
    1UNL     O8   21  -0.682  -0.116   0.518
    1UNL     O9   22  -0.896  -0.120   0.450
    1UNL    C14   23  -0.908  -0.224   0.541
    1UNL    C15   24  -0.610   0.075   0.303
    1UNL    C16   25  -0.494  -0.023   0.305
    1UNL    C17   26  -0.365   0.034   0.274
    1UNL    O10   27  -0.339   0.142   0.321
    1UNL    O11   28  -0.278  -0.028   0.193
    1UNL    C18   29  -0.161   0.046   0.206
    1UNL    C19   30  -0.033  -0.010   0.128
    1UNL    C20   31   0.097   0.040   0.182
    1UNL    C21   32  -0.051   0.028  -0.017
    1UNL    C22   33  -0.197   0.000  -0.075
    1UNL    C23   34  -0.180  -0.048  -0.224
    1UNL    O12   35  -0.248  -0.170  -0.262
    1UNL    C24   36  -0.030  -0.059  -0.251
    1UNL    C25   37   0.033   0.052  -0.342
    1UNL    C26   38   0.049  -0.048  -0.116
    1UNL    C27   39   0.094  -0.196  -0.082
    1UNL    O13   40   0.199  -0.189   0.012
    1UNL    C28   41   0.317  -0.180  -0.060
    1UNL    O14   42   0.322  -0.169  -0.180
    1UNL    C29   43   0.443  -0.177   0.017
    1UNL    C30   44   0.466  -0.041   0.095
    1UNL    C31   45   0.493   0.073  -0.003
    1UNL    C32   46   0.396   0.180  -0.013
    1UNL    O15   47   0.291   0.158   0.043
    1UNL    O16   48   0.435   0.292  -0.086
    1UNL    C33   49   0.330   0.385  -0.078
    1UNL    C34   50   0.615   0.087  -0.057
    1UNL    O17   51   0.724   0.008  -0.041
    1UNL    C35   52   0.722  -0.059   0.085
    1UNL    O18   53   0.839  -0.023   0.163
    1UNL    C36   54   0.964  -0.024   0.095
    1UNL    O19   55   0.961  -0.096  -0.032
    1UNL    C37   56   1.059  -0.058  -0.128
    1UNL    C38   57   0.974   0.005  -0.253
    1UNL    O20   58   0.863  -0.061  -0.279
    1UNL    C39   59   1.187   0.025  -0.089
    1UNL    O21   60   1.298  -0.051  -0.072
    1UNL    C40   61   1.158   0.127   0.030
    1UNL    O22   62   1.245   0.103   0.143
    1UNL    C41   63   1.008   0.124   0.082
    1UNL    O23   64   0.925   0.202  -0.010
    1UNL    C42   65   0.595  -0.045   0.170
    1UNL    C43   66   0.589  -0.036   0.302
    1UNL    C44   67   0.469   0.015   0.378
    1UNL     H1   68  -0.556   0.351  -0.031
    1UNL     H2   69  -0.694   0.397   0.064
    1UNL     H3   70  -0.547   0.487   0.086
    1UNL     H4   71  -0.526   0.325   0.277
    1UNL     H5   72  -0.692   0.178  -0.012
    1UNL     H6   73  -0.800  -0.092  -0.032
    1UNL     H7   74  -0.906  -0.074  -0.245
    1UNL     H8   75  -0.792   0.093  -0.485
    1UNL     H9   76  -0.909   0.168  -0.370
    1UNL    H10   77  -1.061   0.007  -0.437
    1UNL    H11   78  -0.660  -0.097  -0.415
    1UNL    H12   79  -0.891  -0.131  -0.511
    1UNL    H13   80  -0.647  -0.320  -0.318
    1UNL    H14   81  -0.903  -0.318  -0.288
    1UNL    H15   82  -0.625  -0.255  -0.074
    1UNL    H16   83  -0.505  -0.041  -0.188
    1UNL    H17   84  -0.909  -0.074   0.218
    1UNL    H18   85  -0.992  -0.286   0.498
    1UNL    H19   86  -0.938  -0.185   0.637
    1UNL    H20   87  -0.809  -0.266   0.548
    1UNL    H21   88  -0.606   0.137   0.392
    1UNL    H22   89  -0.495  -0.086   0.390
    1UNL    H23   90  -0.518  -0.096   0.224
    1UNL    H24   91  -0.179   0.154   0.170
    1UNL    H25   92  -0.130   0.053   0.309
    1UNL    H26   93  -0.027  -0.119   0.128
    1UNL    H27   94   0.132   0.145   0.158
    1UNL    H28   95   0.093   0.042   0.289
    1UNL    H29   96   0.177  -0.025   0.141
    1UNL    H30   97  -0.027   0.137  -0.026
    1UNL    H31   98  -0.271   0.088  -0.078
    1UNL    H32   99  -0.246  -0.071  -0.018
    1UNL    H33  100  -0.207   0.039  -0.288
    1UNL    H34  101  -0.340  -0.168  -0.252
    1UNL    H35  102  -0.013  -0.156  -0.293
    1UNL    H36  103   0.019   0.025  -0.448
    1UNL    H37  104   0.145   0.065  -0.322
    1UNL    H38  105  -0.015   0.150  -0.335
    1UNL    H39  106   0.129   0.020  -0.124
    1UNL    H40  107   0.020  -0.255  -0.035
    1UNL    H41  108   0.126  -0.251  -0.175
    1UNL    H42  109   0.520  -0.189  -0.059
    1UNL    H43  110   0.431  -0.268   0.078
    1UNL    H44  111   0.373  -0.026   0.157
    1UNL    H45  112   0.348   0.465  -0.144
    1UNL    H46  113   0.318   0.431   0.023
    1UNL    H47  114   0.239   0.327  -0.094
    1UNL    H48  115   0.638   0.168  -0.129
    1UNL    H49  116   0.735  -0.168   0.076
    1UNL    H50  117   1.027  -0.078   0.164
    1UNL    H51  118   1.092  -0.165  -0.156
    1UNL    H52  119   1.028   0.029  -0.340
    1UNL    H53  120   0.930   0.103  -0.209
    1UNL    H54  121   0.804  -0.069  -0.198
    1UNL    H55  122   1.214   0.075  -0.180
    1UNL    H56  123   1.304  -0.070   0.024
    1UNL    H57  124   1.190   0.225  -0.008
    1UNL    H58  125   1.339   0.109   0.112
    1UNL    H59  126   0.992   0.169   0.175
    1UNL    H60  127   0.829   0.171  -0.001
    1UNL    H61  128   0.688  -0.030   0.358
    1UNL    H62  129   0.372  -0.032   0.349
    1UNL    H63  130   0.493   0.011   0.487
    1UNL    H64  131   0.457   0.126   0.366
   0.00000   0.00000   0.00000   0.00000   0.00000   0.00000   0.00000   0.00000   0.00000
Generated with MDTraj, t= 94.0
 131
    1UNL     C1    1  -0.573   0.389   0.072
    1UNL     C2    2  -0.576   0.285   0.184
    1UNL     C3    3  -0.643   0.168   0.179
    1UNL     C4    4  -0.718   0.114   0.056
    1UNL     O1    5  -0.647  -0.001   0.009
    1UNL     C5    6  -0.718  -0.061  -0.089
    1UNL     O2    7  -0.752   0.041  -0.191
    1UNL     C6    8  -0.838  -0.016  -0.290
    1UNL     C7    9  -0.900   0.099  -0.376
    1UNL     O3   10  -0.975   0.050  -0.490
    1UNL     C8   11  -0.755  -0.124  -0.369
    1UNL     O4   12  -0.830  -0.189  -0.474
    1UNL     C9   13  -0.705  -0.235  -0.266
    1UNL     O5   14  -0.813  -0.306  -0.222
    1UNL    C10   15  -0.624  -0.174  -0.150
    1UNL     O6   16  -0.495  -0.119  -0.188
    1UNL     O7   17  -0.855   0.084   0.097
    1UNL    C11   18  -0.855  -0.002   0.206
    1UNL    C12   19  -0.753  -0.019   0.296
    1UNL    C13   20  -0.761  -0.106   0.410
    1UNL     O8   21  -0.687  -0.090   0.508
    1UNL     O9   22  -0.888  -0.164   0.428
    1UNL    C14   23  -0.915  -0.205   0.569
    1UNL    C15   24  -0.629   0.062   0.288
    1UNL    C16   25  -0.509  -0.030   0.267
    1UNL    C17   26  -0.373   0.043   0.276
    1UNL    O10   27  -0.365   0.147   0.339
    1UNL    O11   28  -0.263  -0.014   0.206
    1UNL    C18   29  -0.144   0.053   0.227
    1UNL    C19   30  -0.031  -0.002   0.142
    1UNL    C20   31   0.111   0.054   0.186
    1UNL    C21   32  -0.052   0.014  -0.016
    1UNL    C22   33  -0.182  -0.040  -0.071
    1UNL    C23   34  -0.161  -0.066  -0.218
    1UNL    O12   35  -0.226  -0.184  -0.271
    1UNL    C24   36  -0.008  -0.080  -0.240
    1UNL    C25   37   0.036   0.032  -0.338
    1UNL    C26   38   0.054  -0.063  -0.100
    1UNL    C27   39   0.091  -0.211  -0.060
    1UNL    O13   40   0.203  -0.212   0.026
    1UNL    C28   41   0.308  -0.176  -0.053
    1UNL    O14   42   0.298  -0.140  -0.167
    1UNL    C29   43   0.450  -0.182   0.001
    1UNL    C30   44   0.484  -0.047   0.080
    1UNL    C31   45   0.496   0.071  -0.013
    1UNL    C32   46   0.389   0.169  -0.038
    1UNL    O15   47   0.278   0.149  -0.000
    1UNL    O16   48   0.434   0.275  -0.109
    1UNL    C33   49   0.338   0.375  -0.101
    1UNL    C34   50   0.618   0.073  -0.072
    1UNL    O17   51   0.720  -0.008  -0.047
    1UNL    C35   52   0.732  -0.069   0.087
    1UNL    O18   53   0.839  -0.012   0.165
    1UNL    C36   54   0.969  -0.008   0.104
    1UNL    O19   55   0.961  -0.080  -0.025
    1UNL    C37   56   1.056  -0.043  -0.129
    1UNL    C38   57   0.967   0.026  -0.245
    1UNL    O20   58   0.864  -0.056  -0.271
    1UNL    C39   59   1.186   0.036  -0.090
    1UNL    O21   60   1.284  -0.052  -0.060
    1UNL    C40   61   1.157   0.143   0.032
    1UNL    O22   62   1.238   0.099   0.144
    1UNL    C41   63   1.011   0.137   0.079
    1UNL    O23   64   0.925   0.200  -0.013
    1UNL    C42   65   0.604  -0.064   0.172
    1UNL    C43   66   0.607  -0.020   0.300
    1UNL    C44   67   0.487  -0.006   0.382
    1UNL     H1   68  -0.537   0.354  -0.030
    1UNL     H2   69  -0.679   0.402   0.062
    1UNL     H3   70  -0.526   0.481   0.104
    1UNL     H4   71  -0.515   0.306   0.274
    1UNL     H5   72  -0.721   0.194  -0.017
    1UNL     H6   73  -0.803  -0.108  -0.038
    1UNL     H7   74  -0.913  -0.066  -0.234
    1UNL     H8   75  -0.818   0.171  -0.413
    1UNL     H9   76  -0.967   0.159  -0.309
    1UNL    H10   77  -1.065   0.023  -0.462
    1UNL    H11   78  -0.667  -0.074  -0.413
    1UNL    H12   79  -0.886  -0.119  -0.520
    1UNL    H13   80  -0.629  -0.291  -0.324
    1UNL    H14   81  -0.865  -0.351  -0.293
    1UNL    H15   82  -0.612  -0.250  -0.073
    1UNL    H16   83  -0.501  -0.021  -0.189
    1UNL    H17   84  -0.946  -0.060   0.226
    1UNL    H18   85  -1.015  -0.173   0.599
    1UNL    H19   86  -0.844  -0.168   0.638
    1UNL    H20   87  -0.897  -0.308   0.569
    1UNL    H21   88  -0.609   0.107   0.385
    1UNL    H22   89  -0.510  -0.114   0.335
    1UNL    H23   90  -0.513  -0.081   0.170
    1UNL    H24   91  -0.166   0.166   0.205
    1UNL    H25   92  -0.120   0.052   0.334
    1UNL    H26   93  -0.019  -0.110   0.156
    1UNL    H27   94   0.141   0.144   0.135
    1UNL    H28   95   0.127   0.070   0.294
    1UNL    H29   96   0.173  -0.027   0.138
    1UNL    H30   97  -0.043   0.122  -0.044
    1UNL    H31   98  -0.274   0.018  -0.036
    1UNL    H32   99  -0.187  -0.137  -0.032
    1UNL    H33  100  -0.199   0.023  -0.266
    1UNL    H34  101  -0.324  -0.183  -0.235
    1UNL    H35  102  -0.005  -0.178  -0.286
    1UNL    H36  103  -0.056   0.056  -0.402
    1UNL    H37  104   0.120   0.002  -0.404
    1UNL    H38  105   0.059   0.128  -0.292
    1UNL    H39  106   0.139  -0.000  -0.101
    1UNL    H40  107   0.005  -0.264  -0.028
    1UNL    H41  108   0.123  -0.261  -0.154
    1UNL    H42  109   0.512  -0.201  -0.084
    1UNL    H43  110   0.454  -0.268   0.069
    1UNL    H44  111   0.396  -0.024   0.145
    1UNL    H45  112   0.378   0.458  -0.151
    1UNL    H46  113   0.329   0.415   0.001
    1UNL    H47  114   0.239   0.340  -0.127
    1UNL    H48  115   0.629   0.139  -0.163
    1UNL    H49  116   0.768  -0.175   0.074
    1UNL    H50  117   1.038  -0.045   0.179
    1UNL    H51  118   1.087  -0.148  -0.160
    1UNL    H52  119   1.019   0.034  -0.335
    1UNL    H53  120   0.919   0.127  -0.225
    1UNL    H54  121   0.814  -0.071  -0.189
    1UNL    H55  122   1.228   0.088  -0.176
    1UNL    H56  123   1.254  -0.106   0.017
    1UNL    H57  124   1.186   0.245   0.012
    1UNL    H58  125   1.334   0.102   0.126
    1UNL    H59  126   0.992   0.202   0.161
    1UNL    H60  127   0.850   0.140  -0.030
    1UNL    H61  128   0.697   0.005   0.345
    1UNL    H62  129   0.432  -0.103   0.387
    1UNL    H63  130   0.521   0.038   0.477
    1UNL    H64  131   0.413   0.072   0.346
   0.00000   0.00000   0.00000   0.00000   0.00000   0.00000   0.00000   0.00000   0.00000
Generated with MDTraj, t= 95.0
 131
    1UNL     C1    1  -0.572   0.385   0.083
    1UNL     C2    2  -0.584   0.290   0.184
    1UNL     C3    3  -0.643   0.171   0.178
    1UNL     C4    4  -0.720   0.110   0.060
    1UNL     O1    5  -0.638   0.004  -0.001
    1UNL     C5    6  -0.711  -0.057  -0.097
    1UNL     O2    7  -0.749   0.044  -0.195
    1UNL     C6    8  -0.837  -0.006  -0.297
    1UNL     C7    9  -0.878   0.109  -0.392
    1UNL     O3   10  -0.988   0.075  -0.480
    1UNL     C8   11  -0.766  -0.122  -0.383
    1UNL     O4   12  -0.854  -0.189  -0.468
    1UNL     C9   13  -0.706  -0.229  -0.286
    1UNL     O5   14  -0.802  -0.325  -0.255
    1UNL    C10   15  -0.624  -0.158  -0.170
    1UNL     O6   16  -0.508  -0.091  -0.210
    1UNL     O7   17  -0.842   0.063   0.100
    1UNL    C11   18  -0.854   0.005   0.222
    1UNL    C12   19  -0.769   0.008   0.327
    1UNL    C13   20  -0.781  -0.091   0.436
    1UNL     O8   21  -0.692  -0.098   0.521
    1UNL     O9   22  -0.901  -0.155   0.446
    1UNL    C14   23  -0.903  -0.241   0.554
    1UNL    C15   24  -0.628   0.075   0.296
    1UNL    C16   25  -0.510  -0.031   0.277
    1UNL    C17   26  -0.384   0.049   0.275
    1UNL    O10   27  -0.373   0.150   0.336
    1UNL    O11   28  -0.290  -0.002   0.196
    1UNL    C18   29  -0.164   0.049   0.224
    1UNL    C19   30  -0.049  -0.024   0.149
    1UNL    C20   31   0.081   0.010   0.220
    1UNL    C21   32  -0.051   0.006  -0.003
    1UNL    C22   33  -0.184  -0.030  -0.061
    1UNL    C23   34  -0.169  -0.073  -0.208
    1UNL    O12   35  -0.236  -0.186  -0.252
    1UNL    C24   36  -0.013  -0.091  -0.233
    1UNL    C25   37   0.047   0.019  -0.322
    1UNL    C26   38   0.051  -0.074  -0.089
    1UNL    C27   39   0.099  -0.221  -0.039
    1UNL    O13   40   0.213  -0.211   0.045
    1UNL    C28   41   0.322  -0.186  -0.033
    1UNL    O14   42   0.315  -0.173  -0.153
    1UNL    C29   43   0.456  -0.174   0.034
    1UNL    C30   44   0.477  -0.032   0.086
    1UNL    C31   45   0.489   0.074  -0.015
    1UNL    C32   46   0.383   0.168  -0.057
    1UNL    O15   47   0.271   0.152  -0.016
    1UNL    O16   48   0.428   0.277  -0.138
    1UNL    C33   49   0.317   0.365  -0.177
    1UNL    C34   50   0.608   0.067  -0.084
    1UNL    O17   51   0.727   0.002  -0.055
    1UNL    C35   52   0.742  -0.048   0.077
    1UNL    O18   53   0.847  -0.014   0.164
    1UNL    C36   54   0.976  -0.006   0.101
    1UNL    O19   55   0.971  -0.073  -0.033
    1UNL    C37   56   1.070  -0.042  -0.134
    1UNL    C38   57   1.018   0.031  -0.253
    1UNL    O20   58   0.887  -0.028  -0.286
    1UNL    C39   59   1.197   0.025  -0.079
    1UNL    O21   60   1.285  -0.070  -0.023
    1UNL    C40   61   1.155   0.146   0.022
    1UNL    O22   62   1.241   0.136   0.138
    1UNL    C41   63   1.012   0.140   0.071
    1UNL    O23   64   0.920   0.204  -0.019
    1UNL    C42   65   0.613  -0.035   0.163
    1UNL    C43   66   0.619  -0.045   0.296
    1UNL    C44   67   0.508  -0.053   0.390
    1UNL     H1   68  -0.573   0.350  -0.024
    1UNL     H2   69  -0.669   0.436   0.090
    1UNL     H3   70  -0.488   0.452   0.094
    1UNL     H4   71  -0.540   0.319   0.275
    1UNL     H5   72  -0.738   0.188  -0.014
    1UNL     H6   73  -0.799  -0.103  -0.057
    1UNL     H7   74  -0.926  -0.042  -0.256
    1UNL     H8   75  -0.788   0.145  -0.452
    1UNL     H9   76  -0.910   0.196  -0.331
    1UNL    H10   77  -1.072   0.058  -0.425
    1UNL    H11   78  -0.685  -0.078  -0.445
    1UNL    H12   79  -0.912  -0.121  -0.506
    1UNL    H13   80  -0.629  -0.285  -0.340
    1UNL    H14   81  -0.844  -0.371  -0.331
    1UNL    H15   82  -0.609  -0.240  -0.101
    1UNL    H16   83  -0.521   0.004  -0.202
    1UNL    H17   84  -0.937  -0.066   0.224
    1UNL    H18   85  -0.913  -0.186   0.649
    1UNL    H19   86  -0.817  -0.304   0.554
    1UNL    H20   87  -0.980  -0.310   0.530
    1UNL    H21   88  -0.597   0.135   0.381
    1UNL    H22   89  -0.502  -0.096   0.364
    1UNL    H23   90  -0.517  -0.095   0.192
    1UNL    H24   91  -0.169   0.167   0.218
    1UNL    H25   92  -0.156   0.041   0.335
    1UNL    H26   93  -0.066  -0.132   0.156
    1UNL    H27   94   0.082   0.114   0.234
    1UNL    H28   95   0.091  -0.037   0.325
    1UNL    H29   96   0.161  -0.010   0.145
    1UNL    H30   97  -0.045   0.116  -0.018
    1UNL    H31   98  -0.249   0.060  -0.049
    1UNL    H32   99  -0.234  -0.111  -0.009
    1UNL    H33  100  -0.203   0.006  -0.270
    1UNL    H34  101  -0.327  -0.163  -0.246
    1UNL    H35  102   0.006  -0.189  -0.276
    1UNL    H36  103   0.038   0.005  -0.436
    1UNL    H37  104   0.151   0.028  -0.293
    1UNL    H38  105   0.002   0.118  -0.304
    1UNL    H39  106   0.139  -0.017  -0.089
    1UNL    H40  107   0.024  -0.277   0.009
    1UNL    H41  108   0.131  -0.276  -0.128
    1UNL    H42  109   0.529  -0.189  -0.041
    1UNL    H43  110   0.473  -0.244   0.118
    1UNL    H44  111   0.401  -0.003   0.160
    1UNL    H45  112   0.359   0.461  -0.192
    1UNL    H46  113   0.250   0.383  -0.090
    1UNL    H47  114   0.254   0.327  -0.256
    1UNL    H48  115   0.619   0.138  -0.160
    1UNL    H49  116   0.754  -0.159   0.050
    1UNL    H50  117   1.049  -0.039   0.175
    1UNL    H51  118   1.098  -0.146  -0.165
    1UNL    H52  119   1.075   0.024  -0.339
    1UNL    H53  120   1.006   0.138  -0.228
    1UNL    H54  121   0.843  -0.035  -0.197
    1UNL    H55  122   1.257   0.064  -0.164
    1UNL    H56  123   1.236  -0.111   0.054
    1UNL    H57  124   1.177   0.238  -0.027
    1UNL    H58  125   1.323   0.082   0.121
    1UNL    H59  126   1.002   0.212   0.152
    1UNL    H60  127   0.858   0.128  -0.044
    1UNL    H61  128   0.717  -0.065   0.345
    1UNL    H62  129   0.464  -0.156   0.400
    1UNL    H63  130   0.537  -0.004   0.483
    1UNL    H64  131   0.418   0.010   0.363
   0.00000   0.00000   0.00000   0.00000   0.00000   0.00000   0.00000   0.00000   0.00000
Generated with MDTraj, t= 96.0
 131
    1UNL     C1    1  -0.601   0.364   0.055
    1UNL     C2    2  -0.600   0.282   0.173
    1UNL     C3    3  -0.646   0.158   0.181
    1UNL     C4    4  -0.722   0.100   0.067
    1UNL     O1    5  -0.641  -0.006   0.003
    1UNL     C5    6  -0.709  -0.040  -0.116
    1UNL     O2    7  -0.749   0.068  -0.214
    1UNL     C6    8  -0.843   0.007  -0.303
    1UNL     C7    9  -0.891   0.106  -0.400
    1UNL     O3   10  -0.995   0.068  -0.477
    1UNL     C8   11  -0.767  -0.104  -0.386
    1UNL     O4   12  -0.857  -0.168  -0.466
    1UNL     C9   13  -0.709  -0.215  -0.293
    1UNL     O5   14  -0.815  -0.283  -0.243
    1UNL    C10   15  -0.619  -0.140  -0.188
    1UNL     O6   16  -0.506  -0.075  -0.248
    1UNL     O7   17  -0.850   0.056   0.103
    1UNL    C11   18  -0.866   0.014   0.228
    1UNL    C12   19  -0.770  -0.005   0.320
    1UNL    C13   20  -0.787  -0.094   0.436
    1UNL     O8   21  -0.697  -0.093   0.520
    1UNL     O9   22  -0.910  -0.150   0.451
    1UNL    C14   23  -0.905  -0.259   0.548
    1UNL    C15   24  -0.638   0.070   0.308
    1UNL    C16   25  -0.512  -0.024   0.310
    1UNL    C17   26  -0.376   0.042   0.300
    1UNL    O10   27  -0.353   0.149   0.349
    1UNL    O11   28  -0.285  -0.032   0.224
    1UNL    C18   29  -0.163   0.034   0.229
    1UNL    C19   30  -0.045  -0.030   0.160
    1UNL    C20   31   0.077  -0.008   0.227
    1UNL    C21   32  -0.055   0.002   0.007
    1UNL    C22   33  -0.196  -0.009  -0.066
    1UNL    C23   34  -0.168  -0.062  -0.213
    1UNL    O12   35  -0.240  -0.178  -0.231
    1UNL    C24   36  -0.010  -0.092  -0.225
    1UNL    C25   37   0.072  -0.011  -0.323
    1UNL    C26   38   0.044  -0.073  -0.079
    1UNL    C27   39   0.083  -0.210  -0.023
    1UNL    O13   40   0.200  -0.206   0.062
    1UNL    C28   41   0.310  -0.194  -0.023
    1UNL    O14   42   0.305  -0.199  -0.145
    1UNL    C29   43   0.441  -0.172   0.043
    1UNL    C30   44   0.482  -0.036   0.087
    1UNL    C31   45   0.491   0.065  -0.025
    1UNL    C32   46   0.369   0.145  -0.063
    1UNL    O15   47   0.264   0.127  -0.000
    1UNL    O16   48   0.401   0.231  -0.169
    1UNL    C33   49   0.287   0.300  -0.209
    1UNL    C34   50   0.605   0.098  -0.081
    1UNL    O17   51   0.730   0.049  -0.038
    1UNL    C35   52   0.746  -0.032   0.075
    1UNL    O18   53   0.850   0.003   0.153
    1UNL    C36   54   0.977   0.009   0.079
    1UNL    O19   55   0.985  -0.070  -0.039
    1UNL    C37   56   1.093  -0.049  -0.128
    1UNL    C38   57   1.053   0.034  -0.246
    1UNL    O20   58   0.916  -0.003  -0.290
    1UNL    C39   59   1.217   0.012  -0.060
    1UNL    O21   60   1.270  -0.079   0.036
    1UNL    C40   61   1.180   0.151   0.004
    1UNL    O22   62   1.274   0.171   0.113
    1UNL    C41   63   1.035   0.150   0.048
    1UNL    O23   64   0.951   0.223  -0.042
    1UNL    C42   65   0.618  -0.041   0.162
    1UNL    C43   66   0.628  -0.072   0.288
    1UNL    C44   67   0.511  -0.071   0.377
    1UNL     H1   68  -0.552   0.330  -0.036
    1UNL     H2   69  -0.706   0.370   0.023
    1UNL     H3   70  -0.566   0.465   0.075
    1UNL     H4   71  -0.555   0.324   0.264
    1UNL     H5   72  -0.727   0.176  -0.012
    1UNL     H6   73  -0.804  -0.074  -0.078
    1UNL     H7   74  -0.922  -0.036  -0.252
    1UNL     H8   75  -0.807   0.135  -0.470
    1UNL     H9   76  -0.919   0.198  -0.346
    1UNL    H10   77  -1.071   0.048  -0.415
    1UNL    H11   78  -0.687  -0.060  -0.450
    1UNL    H12   79  -0.914  -0.098  -0.506
    1UNL    H13   80  -0.644  -0.274  -0.356
    1UNL    H14   81  -0.878  -0.312  -0.314
    1UNL    H15   82  -0.585  -0.210  -0.114
    1UNL    H16   83  -0.528   0.021  -0.267
    1UNL    H17   84  -0.949  -0.055   0.239
    1UNL    H18   85  -0.812  -0.251   0.613
    1UNL    H19   86  -0.910  -0.357   0.501
    1UNL    H20   87  -0.995  -0.254   0.610
    1UNL    H21   88  -0.645   0.131   0.397
    1UNL    H22   89  -0.517  -0.061   0.415
    1UNL    H23   90  -0.527  -0.102   0.242
    1UNL    H24   91  -0.185   0.143   0.194
    1UNL    H25   92  -0.146   0.054   0.335
    1UNL    H26   93  -0.076  -0.134   0.182
    1UNL    H27   94   0.128   0.078   0.192
    1UNL    H28   95   0.054   0.019   0.337
    1UNL    H29   96   0.152  -0.086   0.217
    1UNL    H30   97  -0.028   0.110   0.006
    1UNL    H31   98  -0.265   0.074  -0.070
    1UNL    H32   99  -0.250  -0.092  -0.013
    1UNL    H33  100  -0.192   0.010  -0.286
    1UNL    H34  101  -0.341  -0.155  -0.235
    1UNL    H35  102   0.007  -0.198  -0.247
    1UNL    H36  103   0.019   0.007  -0.421
    1UNL    H37  104   0.163  -0.068  -0.335
    1UNL    H38  105   0.106   0.091  -0.288
    1UNL    H39  106   0.135  -0.020  -0.082
    1UNL    H40  107   0.002  -0.263   0.019
    1UNL    H41  108   0.118  -0.279  -0.102
    1UNL    H42  109   0.516  -0.190  -0.030
    1UNL    H43  110   0.453  -0.246   0.123
    1UNL    H44  111   0.397  -0.008   0.152
    1UNL    H45  112   0.322   0.380  -0.273
    1UNL    H46  113   0.242   0.352  -0.120
    1UNL    H47  114   0.209   0.238  -0.255
    1UNL    H48  115   0.613   0.170  -0.158
    1UNL    H49  116   0.771  -0.134   0.026
    1UNL    H50  117   1.042  -0.035   0.155
    1UNL    H51  118   1.120  -0.145  -0.171
    1UNL    H52  119   1.132   0.040  -0.313
    1UNL    H53  120   1.039   0.138  -0.211
    1UNL    H54  121   0.843   0.013  -0.223
    1UNL    H55  122   1.300   0.020  -0.137
    1UNL    H56  123   1.211  -0.086   0.115
    1UNL    H57  124   1.203   0.228  -0.069
    1UNL    H58  125   1.334   0.095   0.131
    1UNL    H59  126   1.034   0.214   0.139
    1UNL    H60  127   0.861   0.197  -0.016
    1UNL    H61  128   0.726  -0.096   0.326
    1UNL    H62  129   0.412  -0.091   0.328
    1UNL    H63  130   0.532  -0.132   0.465
    1UNL    H64  131   0.502   0.027   0.426
   0.00000   0.00000   0.00000   0.00000   0.00000   0.00000   0.00000   0.00000   0.00000
Generated with MDTraj, t= 97.0
 131
    1UNL     C1    1  -0.579   0.373   0.066
    1UNL     C2    2  -0.594   0.278   0.183
    1UNL     C3    3  -0.653   0.157   0.182
    1UNL     C4    4  -0.728   0.108   0.061
    1UNL     O1    5  -0.632   0.018  -0.006
    1UNL     C5    6  -0.709  -0.040  -0.113
    1UNL     O2    7  -0.777   0.057  -0.187
    1UNL     C6    8  -0.861   0.007  -0.296
    1UNL     C7    9  -0.910   0.128  -0.380
    1UNL     O3   10  -1.002   0.097  -0.482
    1UNL     C8   11  -0.779  -0.098  -0.388
    1UNL     O4   12  -0.854  -0.152  -0.494
    1UNL     C9   13  -0.719  -0.212  -0.297
    1UNL     O5   14  -0.823  -0.276  -0.236
    1UNL    C10   15  -0.622  -0.134  -0.196
    1UNL     O6   16  -0.521  -0.063  -0.257
    1UNL     O7   17  -0.856   0.038   0.091
    1UNL    C11   18  -0.861  -0.025   0.210
    1UNL    C12   19  -0.764  -0.025   0.306
    1UNL    C13   20  -0.774  -0.109   0.423
    1UNL     O8   21  -0.702  -0.089   0.522
    1UNL     O9   22  -0.897  -0.179   0.433
    1UNL    C14   23  -0.922  -0.226   0.568
    1UNL    C15   24  -0.641   0.060   0.295
    1UNL    C16   25  -0.510  -0.019   0.272
    1UNL    C17   26  -0.385   0.055   0.292
    1UNL    O10   27  -0.374   0.151   0.362
    1UNL    O11   28  -0.288  -0.005   0.223
    1UNL    C18   29  -0.166   0.055   0.246
    1UNL    C19   30  -0.041  -0.021   0.182
    1UNL    C20   31   0.095   0.032   0.234
    1UNL    C21   32  -0.055  -0.011   0.022
    1UNL    C22   33  -0.192  -0.033  -0.042
    1UNL    C23   34  -0.170  -0.054  -0.192
    1UNL    O12   35  -0.257  -0.149  -0.249
    1UNL    C24   36  -0.021  -0.105  -0.206
    1UNL    C25   37   0.059  -0.063  -0.330
    1UNL    C26   38   0.049  -0.091  -0.066
    1UNL    C27   39   0.097  -0.227  -0.009
    1UNL    O13   40   0.224  -0.234   0.059
    1UNL    C28   41   0.320  -0.203  -0.028
    1UNL    O14   42   0.306  -0.172  -0.146
    1UNL    C29   43   0.463  -0.179   0.021
    1UNL    C30   44   0.491  -0.042   0.075
    1UNL    C31   45   0.493   0.051  -0.041
    1UNL    C32   46   0.359   0.110  -0.074
    1UNL    O15   47   0.266   0.090   0.002
    1UNL    O16   48   0.349   0.186  -0.192
    1UNL    C33   49   0.238   0.260  -0.190
    1UNL    C34   50   0.606   0.094  -0.102
    1UNL    O17   51   0.732   0.059  -0.068
    1UNL    C35   52   0.754  -0.006   0.060
    1UNL    O18   53   0.852   0.054   0.139
    1UNL    C36   54   0.981   0.021   0.083
    1UNL    O19   55   0.981  -0.064  -0.032
    1UNL    C37   56   1.094  -0.057  -0.115
    1UNL    C38   57   1.052   0.029  -0.242
    1UNL    O20   58   0.922  -0.009  -0.277
    1UNL    C39   59   1.217   0.009  -0.037
    1UNL    O21   60   1.262  -0.074   0.069
    1UNL    C40   61   1.200   0.150   0.015
    1UNL    O22   62   1.299   0.180   0.114
    1UNL    C41   63   1.055   0.160   0.063
    1UNL    O23   64   0.976   0.230  -0.037
    1UNL    C42   65   0.630  -0.022   0.147
    1UNL    C43   66   0.647  -0.046   0.276
    1UNL    C44   67   0.551  -0.105   0.374
    1UNL     H1   68  -0.567   0.325  -0.027
    1UNL     H2   69  -0.679   0.420   0.051
    1UNL     H3   70  -0.500   0.448   0.089
    1UNL     H4   71  -0.556   0.322   0.271
    1UNL     H5   72  -0.761   0.199   0.003
    1UNL     H6   73  -0.792  -0.099  -0.073
    1UNL     H7   74  -0.938  -0.042  -0.250
    1UNL     H8   75  -0.825   0.179  -0.430
    1UNL     H9   76  -0.955   0.203  -0.318
    1UNL    H10   77  -1.089   0.088  -0.445
    1UNL    H11   78  -0.694  -0.039  -0.430
    1UNL    H12   79  -0.894  -0.076  -0.545
    1UNL    H13   80  -0.660  -0.279  -0.359
    1UNL    H14   81  -0.903  -0.285  -0.295
    1UNL    H15   82  -0.590  -0.214  -0.129
    1UNL    H16   83  -0.510   0.020  -0.206
    1UNL    H17   84  -0.952  -0.079   0.226
    1UNL    H18   85  -0.828  -0.264   0.621
    1UNL    H19   86  -1.002  -0.305   0.569
    1UNL    H20   87  -0.965  -0.140   0.625
    1UNL    H21   88  -0.632   0.114   0.389
    1UNL    H22   89  -0.516  -0.104   0.344
    1UNL    H23   90  -0.514  -0.049   0.173
    1UNL    H24   91  -0.166   0.166   0.215
    1UNL    H25   92  -0.163   0.066   0.353
    1UNL    H26   93  -0.058  -0.118   0.231
    1UNL    H27   94   0.083   0.141   0.246
    1UNL    H28   95   0.113   0.006   0.343
    1UNL    H29   96   0.182   0.022   0.171
    1UNL    H30   97  -0.021   0.094   0.007
    1UNL    H31   98  -0.262   0.040  -0.010
    1UNL    H32   99  -0.234  -0.138  -0.014
    1UNL    H33  100  -0.186   0.036  -0.246
    1UNL    H34  101  -0.349  -0.125  -0.251
    1UNL    H35  102  -0.032  -0.213  -0.214
    1UNL    H36  103   0.158  -0.111  -0.329
    1UNL    H37  104   0.072   0.046  -0.318
    1UNL    H38  105   0.015  -0.084  -0.433
    1UNL    H39  106   0.139  -0.039  -0.084
    1UNL    H40  107   0.026  -0.269   0.059
    1UNL    H41  108   0.102  -0.311  -0.082
    1UNL    H42  109   0.533  -0.200  -0.057
    1UNL    H43  110   0.489  -0.244   0.102
    1UNL    H44  111   0.404  -0.023   0.143
    1UNL    H45  112   0.234   0.291  -0.296
    1UNL    H46  113   0.252   0.349  -0.124
    1UNL    H47  114   0.146   0.204  -0.159
    1UNL    H48  115   0.600   0.166  -0.186
    1UNL    H49  116   0.795  -0.114   0.044
    1UNL    H50  117   1.039  -0.042   0.153
    1UNL    H51  118   1.120  -0.155  -0.144
    1UNL    H52  119   1.106   0.002  -0.328
    1UNL    H53  120   1.062   0.140  -0.235
    1UNL    H54  121   0.856   0.031  -0.213
    1UNL    H55  122   1.308   0.015  -0.104
    1UNL    H56  123   1.356  -0.098   0.065
    1UNL    H57  124   1.214   0.224  -0.065
    1UNL    H58  125   1.298   0.117   0.188
    1UNL    H59  126   1.050   0.224   0.156
    1UNL    H60  127   0.877   0.203  -0.033
    1UNL    H61  128   0.747  -0.037   0.314
    1UNL    H62  129   0.523  -0.209   0.347
    1UNL    H63  130   0.598  -0.089   0.475
    1UNL    H64  131   0.460  -0.046   0.380
   0.00000   0.00000   0.00000   0.00000   0.00000   0.00000   0.00000   0.00000   0.00000
Generated with MDTraj, t= 98.0
 131
    1UNL     C1    1  -0.584   0.377   0.094
    1UNL     C2    2  -0.577   0.267   0.188
    1UNL     C3    3  -0.647   0.154   0.184
    1UNL     C4    4  -0.726   0.108   0.071
    1UNL     O1    5  -0.650   0.012   0.006
    1UNL     C5    6  -0.729  -0.036  -0.113
    1UNL     O2    7  -0.777   0.068  -0.197
    1UNL     C6    8  -0.864   0.030  -0.305
    1UNL     C7    9  -0.931   0.149  -0.386
    1UNL     O3   10  -1.020   0.088  -0.481
    1UNL     C8   11  -0.794  -0.072  -0.403
    1UNL     O4   12  -0.882  -0.144  -0.491
    1UNL     C9   13  -0.722  -0.185  -0.326
    1UNL     O5   14  -0.811  -0.280  -0.279
    1UNL    C10   15  -0.631  -0.125  -0.205
    1UNL     O6   16  -0.528  -0.037  -0.254
    1UNL     O7   17  -0.859   0.063   0.109
    1UNL    C11   18  -0.859  -0.019   0.214
    1UNL    C12   19  -0.761  -0.035   0.307
    1UNL    C13   20  -0.782  -0.110   0.429
    1UNL     O8   21  -0.701  -0.093   0.521
    1UNL     O9   22  -0.908  -0.166   0.447
    1UNL    C14   23  -0.920  -0.231   0.560
    1UNL    C15   24  -0.632   0.051   0.295
    1UNL    C16   25  -0.508  -0.038   0.270
    1UNL    C17   26  -0.382   0.045   0.277
    1UNL    O10   27  -0.372   0.149   0.341
    1UNL    O11   28  -0.273  -0.011   0.212
    1UNL    C18   29  -0.155   0.056   0.237
    1UNL    C19   30  -0.047  -0.022   0.178
    1UNL    C20   31   0.091   0.033   0.227
    1UNL    C21   32  -0.047  -0.020   0.019
    1UNL    C22   33  -0.179  -0.052  -0.040
    1UNL    C23   34  -0.158  -0.079  -0.185
    1UNL    O12   35  -0.260  -0.162  -0.238
    1UNL    C24   36  -0.017  -0.145  -0.195
    1UNL    C25   37   0.067  -0.112  -0.321
    1UNL    C26   38   0.061  -0.111  -0.058
    1UNL    C27   39   0.115  -0.231   0.030
    1UNL    O13   40   0.242  -0.204   0.088
    1UNL    C28   41   0.337  -0.206  -0.010
    1UNL    O14   42   0.300  -0.208  -0.127
    1UNL    C29   43   0.480  -0.185   0.017
    1UNL    C30   44   0.505  -0.042   0.067
    1UNL    C31   45   0.493   0.070  -0.033
    1UNL    C32   46   0.358   0.128  -0.061
    1UNL    O15   47   0.271   0.119   0.021
    1UNL    O16   48   0.334   0.183  -0.193
    1UNL    C33   49   0.202   0.230  -0.200
    1UNL    C34   50   0.605   0.114  -0.102
    1UNL    O17   51   0.728   0.070  -0.080
    1UNL    C35   52   0.755   0.008   0.047
    1UNL    O18   53   0.842   0.080   0.130
    1UNL    C36   54   0.976   0.041   0.083
    1UNL    O19   55   0.982  -0.055  -0.024
    1UNL    C37   56   1.100  -0.058  -0.107
    1UNL    C38   57   1.064   0.018  -0.242
    1UNL    O20   58   0.946  -0.023  -0.288
    1UNL    C39   59   1.224   0.007  -0.032
    1UNL    O21   60   1.260  -0.077   0.076
    1UNL    C40   61   1.205   0.154   0.025
    1UNL    O22   62   1.295   0.179   0.131
    1UNL    C41   63   1.053   0.176   0.053
    1UNL    O23   64   0.984   0.237  -0.062
    1UNL    C42   65   0.635  -0.035   0.138
    1UNL    C43   66   0.648  -0.082   0.260
    1UNL    C44   67   0.538  -0.105   0.358
    1UNL     H1   68  -0.572   0.346  -0.006
    1UNL     H2   69  -0.690   0.415   0.086
    1UNL     H3   70  -0.519   0.464   0.122
    1UNL     H4   71  -0.506   0.280   0.271
    1UNL     H5   72  -0.757   0.195   0.004
    1UNL     H6   73  -0.817  -0.087  -0.066
    1UNL     H7   74  -0.937  -0.023  -0.257
    1UNL     H8   75  -0.860   0.211  -0.440
    1UNL     H9   76  -0.989   0.213  -0.325
    1UNL    H10   77  -1.091   0.041  -0.436
    1UNL    H11   78  -0.724  -0.013  -0.465
    1UNL    H12   79  -0.932  -0.083  -0.545
    1UNL    H13   80  -0.651  -0.222  -0.401
    1UNL    H14   81  -0.895  -0.281  -0.327
    1UNL    H15   82  -0.586  -0.204  -0.143
    1UNL    H16   83  -0.531   0.042  -0.195
    1UNL    H17   84  -0.953  -0.071   0.233
    1UNL    H18   85  -0.867  -0.330   0.562
    1UNL    H19   86  -1.029  -0.247   0.570
    1UNL    H20   87  -0.890  -0.161   0.641
    1UNL    H21   88  -0.613   0.101   0.389
    1UNL    H22   89  -0.499  -0.116   0.348
    1UNL    H23   90  -0.516  -0.072   0.170
    1UNL    H24   91  -0.156   0.155   0.184
    1UNL    H25   92  -0.138   0.076   0.339
    1UNL    H26   93  -0.061  -0.124   0.217
    1UNL    H27   94   0.110   0.131   0.172
    1UNL    H28   95   0.099   0.052   0.332
    1UNL    H29   96   0.167  -0.036   0.190
    1UNL    H30   97  -0.018   0.081  -0.017
    1UNL    H31   98  -0.244   0.031  -0.027
    1UNL    H32   99  -0.231  -0.144   0.012
    1UNL    H33  100  -0.158   0.014  -0.242
    1UNL    H34  101  -0.352  -0.112  -0.239
    1UNL    H35  102  -0.042  -0.251  -0.194
    1UNL    H36  103   0.067  -0.004  -0.335
    1UNL    H37  104   0.007  -0.155  -0.408
    1UNL    H38  105   0.172  -0.150  -0.323
    1UNL    H39  106   0.148  -0.059  -0.085
    1UNL    H40  107   0.051  -0.259   0.112
    1UNL    H41  108   0.118  -0.328  -0.027
    1UNL    H42  109   0.543  -0.202  -0.069
    1UNL    H43  110   0.512  -0.259   0.086
    1UNL    H44  111   0.432  -0.022   0.149
    1UNL    H45  112   0.180   0.226  -0.310
    1UNL    H46  113   0.195   0.333  -0.159
    1UNL    H47  114   0.133   0.162  -0.146
    1UNL    H48  115   0.599   0.201  -0.172
    1UNL    H49  116   0.811  -0.092   0.033
    1UNL    H50  117   1.030  -0.021   0.160
    1UNL    H51  118   1.116  -0.160  -0.128
    1UNL    H52  119   1.130   0.006  -0.324
    1UNL    H53  120   1.058   0.131  -0.232
    1UNL    H54  121   0.867   0.009  -0.236
    1UNL    H55  122   1.311   0.019  -0.101
    1UNL    H56  123   1.321  -0.030   0.136
    1UNL    H57  124   1.225   0.228  -0.057
    1UNL    H58  125   1.253   0.145   0.213
    1UNL    H59  126   1.028   0.238   0.148
    1UNL    H60  127   0.910   0.180  -0.086
    1UNL    H61  128   0.752  -0.099   0.295
    1UNL    H62  129   0.573  -0.153   0.451
    1UNL    H63  130   0.489  -0.005   0.373
    1UNL    H64  131   0.463  -0.172   0.321
   0.00000   0.00000   0.00000   0.00000   0.00000   0.00000   0.00000   0.00000   0.00000
Generated with MDTraj, t= 99.0
 131
    1UNL     C1    1  -0.612   0.383   0.077
    1UNL     C2    2  -0.599   0.290   0.193
    1UNL     C3    3  -0.646   0.167   0.196
    1UNL     C4    4  -0.722   0.117   0.075
    1UNL     O1    5  -0.644   0.030  -0.009
    1UNL     C5    6  -0.727  -0.019  -0.126
    1UNL     O2    7  -0.784   0.076  -0.206
    1UNL     C6    8  -0.876   0.027  -0.303
    1UNL     C7    9  -0.948   0.150  -0.374
    1UNL     O3   10  -1.061   0.116  -0.459
    1UNL     C8   11  -0.792  -0.053  -0.405
    1UNL     O4   12  -0.874  -0.117  -0.503
    1UNL     C9   13  -0.713  -0.164  -0.337
    1UNL     O5   14  -0.790  -0.276  -0.300
    1UNL    C10   15  -0.635  -0.107  -0.210
    1UNL     O6   16  -0.514  -0.052  -0.245
    1UNL     O7   17  -0.851   0.059   0.104
    1UNL    C11   18  -0.864   0.001   0.225
    1UNL    C12   19  -0.765  -0.013   0.316
    1UNL    C13   20  -0.782  -0.101   0.434
    1UNL     O8   21  -0.681  -0.130   0.497
    1UNL     O9   22  -0.913  -0.138   0.465
    1UNL    C14   23  -0.915  -0.248   0.551
    1UNL    C15   24  -0.635   0.065   0.303
    1UNL    C16   25  -0.522  -0.041   0.292
    1UNL    C17   26  -0.384   0.027   0.288
    1UNL    O10   27  -0.371   0.135   0.348
    1UNL    O11   28  -0.283  -0.041   0.226
    1UNL    C18   29  -0.168   0.030   0.241
    1UNL    C19   30  -0.047  -0.039   0.167
    1UNL    C20   31   0.085   0.022   0.229
    1UNL    C21   32  -0.046  -0.028   0.022
    1UNL    C22   33  -0.178  -0.043  -0.058
    1UNL    C23   34  -0.147  -0.106  -0.193
    1UNL    O12   35  -0.262  -0.198  -0.208
    1UNL    C24   36  -0.010  -0.187  -0.182
    1UNL    C25   37   0.085  -0.184  -0.306
    1UNL    C26   38   0.065  -0.121  -0.055
    1UNL    C27   39   0.125  -0.234   0.035
    1UNL    O13   40   0.253  -0.194   0.077
    1UNL    C28   41   0.341  -0.207  -0.023
    1UNL    O14   42   0.306  -0.259  -0.128
    1UNL    C29   43   0.482  -0.179   0.008
    1UNL    C30   44   0.493  -0.033   0.070
    1UNL    C31   45   0.481   0.071  -0.039
    1UNL    C32   46   0.354   0.141  -0.075
    1UNL    O15   47   0.263   0.138   0.005
    1UNL    O16   48   0.353   0.205  -0.197
    1UNL    C33   49   0.220   0.248  -0.227
    1UNL    C34   50   0.595   0.115  -0.091
    1UNL    O17   51   0.720   0.082  -0.058
    1UNL    C35   52   0.747   0.004   0.060
    1UNL    O18   53   0.849   0.075   0.135
    1UNL    C36   54   0.982   0.043   0.077
    1UNL    O19   55   0.991  -0.060  -0.022
    1UNL    C37   56   1.112  -0.050  -0.102
    1UNL    C38   57   1.091   0.002  -0.242
    1UNL    O20   58   0.958  -0.020  -0.285
    1UNL    C39   59   1.229   0.017  -0.032
    1UNL    O21   60   1.274  -0.064   0.077
    1UNL    C40   61   1.197   0.165   0.012
    1UNL    O22   62   1.262   0.191   0.135
    1UNL    C41   63   1.040   0.181   0.028
    1UNL    O23   64   0.975   0.228  -0.093
    1UNL    C42   65   0.626  -0.027   0.149
    1UNL    C43   66   0.636  -0.048   0.279
    1UNL    C44   67   0.549  -0.118   0.374
    1UNL     H1   68  -0.555   0.346  -0.007
    1UNL     H2   69  -0.713   0.378   0.030
    1UNL     H3   70  -0.583   0.491   0.087
    1UNL     H4   71  -0.527   0.309   0.268
    1UNL     H5   72  -0.749   0.199   0.002
    1UNL     H6   73  -0.811  -0.077  -0.078
    1UNL     H7   74  -0.943  -0.032  -0.255
    1UNL     H8   75  -0.877   0.195  -0.441
    1UNL     H9   76  -0.973   0.225  -0.304
    1UNL    H10   77  -1.136   0.073  -0.407
    1UNL    H11   78  -0.732   0.019  -0.462
    1UNL    H12   79  -0.940  -0.049  -0.540
    1UNL    H13   80  -0.636  -0.197  -0.410
    1UNL    H14   81  -0.866  -0.288  -0.362
    1UNL    H15   82  -0.612  -0.204  -0.158
    1UNL    H16   83  -0.496   0.034  -0.198
    1UNL    H17   84  -0.945  -0.072   0.235
    1UNL    H18   85  -0.831  -0.312   0.531
    1UNL    H19   86  -1.005  -0.307   0.549
    1UNL    H20   87  -0.903  -0.206   0.648
    1UNL    H21   88  -0.622   0.120   0.398
    1UNL    H22   89  -0.525  -0.102   0.381
    1UNL    H23   90  -0.541  -0.094   0.200
    1UNL    H24   91  -0.180   0.131   0.200
    1UNL    H25   92  -0.139   0.039   0.340
    1UNL    H26   93  -0.057  -0.149   0.189
    1UNL    H27   94   0.087   0.136   0.209
    1UNL    H28   95   0.088   0.003   0.332
    1UNL    H29   96   0.179  -0.019   0.190
    1UNL    H30   97  -0.033   0.081   0.006
    1UNL    H31   98  -0.250   0.037  -0.076
    1UNL    H32   99  -0.237  -0.114   0.007
    1UNL    H33  100  -0.134  -0.036  -0.278
    1UNL    H34  101  -0.341  -0.149  -0.221
    1UNL    H35  102  -0.043  -0.290  -0.162
    1UNL    H36  103   0.038  -0.250  -0.381
    1UNL    H37  104   0.188  -0.227  -0.285
    1UNL    H38  105   0.094  -0.085  -0.349
    1UNL    H39  106   0.144  -0.056  -0.079
    1UNL    H40  107   0.059  -0.267   0.114
    1UNL    H41  108   0.136  -0.328  -0.028
    1UNL    H42  109   0.538  -0.191  -0.084
    1UNL    H43  110   0.525  -0.256   0.064
    1UNL    H44  111   0.414  -0.020   0.147
    1UNL    H45  112   0.226   0.331  -0.303
    1UNL    H46  113   0.171   0.275  -0.135
    1UNL    H47  114   0.166   0.166  -0.272
    1UNL    H48  115   0.591   0.186  -0.165
    1UNL    H49  116   0.787  -0.096   0.024
    1UNL    H50  117   1.059   0.000   0.149
    1UNL    H51  118   1.136  -0.152  -0.106
    1UNL    H52  119   1.172  -0.025  -0.307
    1UNL    H53  120   1.098   0.116  -0.238
    1UNL    H54  121   0.890  -0.003  -0.215
    1UNL    H55  122   1.310   0.025  -0.105
    1UNL    H56  123   1.343  -0.014   0.131
    1UNL    H57  124   1.239   0.239  -0.063
    1UNL    H58  125   1.208   0.150   0.206
    1UNL    H59  126   1.031   0.245   0.124
    1UNL    H60  127   0.890   0.181  -0.085
    1UNL    H61  128   0.733  -0.044   0.317
    1UNL    H62  129   0.578  -0.127   0.479
    1UNL    H63  130   0.446  -0.079   0.360
    1UNL    H64  131   0.543  -0.220   0.339
   0.00000   0.00000   0.00000   0.00000   0.00000   0.00000   0.00000   0.00000   0.00000
