1TPCN00238
15
    1res  C1    1   -0.209  -0.166   0.178
    1res  C2    2   -0.019  -0.107   0.046
    1res  C3    3    0.147  -0.235  -0.120
    1res  C4    4   -0.105  -0.328  -0.195
    1res  C5    5   -0.050  -0.082  -0.322
    1res  C6    6    0.231  -0.025  -0.069
    1res  C7    7    0.240   0.107   0.120
    1res  C8    8    0.182   0.267   0.262
    1res  C9    9    0.473   0.201   0.184
    1res  C10   10    0.529  -0.005   0.107
    1res  C11   11    0.438  -0.028  -0.111
    1res  C12   12   -0.167   0.156  -0.132
    1res  C13   13   -0.531   0.159  -0.079
    1res  C14   14   -0.715   0.151   0.101
    1res  C15   15   -0.446   0.144   0.210
  10.00000  10.00000  10.00000
