1TPCN04207
19
    1res  C1    1   -0.605  -0.251  -0.154
    1res  C2    2   -0.722  -0.085   0.064
    1res  C3    3   -0.467  -0.035  -0.050
    1res  C4    4   -0.524   0.231   0.047
    1res  C5    5   -0.242   0.155  -0.203
    1res  C6    6   -0.079  -0.003   0.106
    1res  C7    7    0.019  -0.044  -0.249
    1res  C8    8    0.149  -0.195  -0.004
    1res  C9    9    0.374  -0.055  -0.043
    1res  C10   10    0.642   0.025   0.020
    1res  C11   11    0.790  -0.111  -0.113
    1res  C12   12    0.805   0.114   0.196
    1res  C13   13    0.703  -0.096   0.301
    1res  C14   14    0.510   0.060   0.245
    1res  C15   15    0.357   0.153  -0.190
    1res  C16   16    0.290  -0.092  -0.353
    1res  C17   17    0.059   0.223   0.016
    1res  C18   18   -0.277   0.157   0.203
    1res  C19   19   -0.509   0.024   0.296
  10.00000  10.00000  10.00000
