Generated with MDTraj, t= 0.0
 43
    1UNL     C1    1   0.342   0.024  -0.188
    1UNL     C2    2   0.283   0.074  -0.062
    1UNL     C3    3   0.204   0.004   0.019
    1UNL     C4    4   0.169  -0.137  -0.013
    1UNL     O1    5   0.199  -0.188  -0.120
    1UNL     N1    6   0.096  -0.212   0.081
    1UNL     C5    7   0.016  -0.327   0.032
    1UNL     C6    8  -0.130  -0.289  -0.001
    1UNL     C7    9  -0.161  -0.146   0.033
    1UNL     C8   10  -0.085  -0.074   0.123
    1UNL     N2   11  -0.095   0.062   0.097
    1UNL     C9   12  -0.196   0.078   0.001
    1UNL    C10   13  -0.255   0.191  -0.058
    1UNL    C11   14  -0.347   0.174  -0.158
    1UNL    C12   15  -0.384   0.046  -0.201
    1UNL    C13   16  -0.330  -0.066  -0.145
    1UNL    C14   17  -0.236  -0.051  -0.041
    1UNL    C15   18   0.021   0.153   0.125
    1UNL    C16   19   0.042   0.261   0.020
    1UNL     O2   20   0.159   0.337   0.044
    1UNL    C17   21   0.152   0.069   0.146
    1UNL    C18   22   0.127  -0.038   0.253
    1UNL    C19   23   0.030  -0.140   0.192
    1UNL     H1   24   0.397   0.101  -0.242
    1UNL     H2   25   0.410  -0.059  -0.168
    1UNL     H3   26   0.263  -0.014  -0.254
    1UNL     H4   27   0.306   0.176  -0.034
    1UNL     H5   28   0.068  -0.367  -0.057
    1UNL     H6   29   0.021  -0.406   0.107
    1UNL     H7   30  -0.200  -0.354   0.052
    1UNL     H8   31  -0.150  -0.304  -0.108
    1UNL     H9   32  -0.231   0.290  -0.023
    1UNL    H10   33  -0.393   0.260  -0.203
    1UNL    H11   34  -0.457   0.036  -0.281
    1UNL    H12   35  -0.358  -0.165  -0.177
    1UNL    H13   36  -0.002   0.203   0.220
    1UNL    H14   37  -0.043   0.330   0.017
    1UNL    H15   38   0.050   0.215  -0.079
    1UNL    H16   39   0.168   0.410  -0.021
    1UNL    H17   40   0.231   0.138   0.182
    1UNL    H18   41   0.085   0.006   0.344
    1UNL    H19   42   0.221  -0.088   0.281
    1UNL    H20   43  -0.006  -0.212   0.266
   0.00000   0.00000   0.00000   0.00000   0.00000   0.00000   0.00000   0.00000   0.00000
Generated with MDTraj, t= 1.0
 43
    1UNL     C1    1   0.345   0.031  -0.193
    1UNL     C2    2   0.272   0.084  -0.072
    1UNL     C3    3   0.214   0.001   0.019
    1UNL     C4    4   0.188  -0.151  -0.004
    1UNL     O1    5   0.239  -0.212  -0.096
    1UNL     N1    6   0.096  -0.219   0.075
    1UNL     C5    7   0.004  -0.330   0.025
    1UNL     C6    8  -0.148  -0.290   0.002
    1UNL     C7    9  -0.163  -0.139   0.034
    1UNL     C8   10  -0.083  -0.066   0.118
    1UNL     N2   11  -0.088   0.069   0.081
    1UNL     C9   12  -0.196   0.078  -0.019
    1UNL    C10   13  -0.248   0.198  -0.084
    1UNL    C11   14  -0.354   0.172  -0.167
    1UNL    C12   15  -0.409   0.038  -0.178
    1UNL    C13   16  -0.355  -0.072  -0.130
    1UNL    C14   17  -0.246  -0.052  -0.046
    1UNL    C15   18   0.031   0.151   0.115
    1UNL    C16   19   0.045   0.275   0.029
    1UNL     O2   20   0.162   0.353   0.074
    1UNL    C17   21   0.156   0.068   0.138
    1UNL    C18   22   0.126  -0.042   0.245
    1UNL    C19   23   0.028  -0.141   0.189
    1UNL     H1   24   0.396   0.107  -0.234
    1UNL     H2   25   0.415  -0.053  -0.155
    1UNL     H3   26   0.267  -0.012  -0.255
    1UNL     H4   27   0.273   0.194  -0.060
    1UNL     H5   28   0.040  -0.381  -0.064
    1UNL     H6   29   0.023  -0.400   0.105
    1UNL     H7   30  -0.202  -0.353   0.073
    1UNL     H8   31  -0.187  -0.306  -0.100
    1UNL     H9   32  -0.200   0.292  -0.076
    1UNL    H10   33  -0.413   0.253  -0.207
    1UNL    H11   34  -0.502   0.019  -0.230
    1UNL    H12   35  -0.376  -0.167  -0.161
    1UNL    H13   36  -0.006   0.181   0.213
    1UNL    H14   37  -0.037   0.343   0.054
    1UNL    H15   38   0.050   0.249  -0.075
    1UNL    H16   39   0.179   0.447   0.050
    1UNL    H17   40   0.233   0.130   0.189
    1UNL    H18   41   0.101   0.011   0.348
    1UNL    H19   42   0.212  -0.101   0.269
    1UNL    H20   43  -0.007  -0.215   0.259
   0.00000   0.00000   0.00000   0.00000   0.00000   0.00000   0.00000   0.00000   0.00000
Generated with MDTraj, t= 2.0
 43
    1UNL     C1    1   0.328   0.012  -0.200
    1UNL     C2    2   0.278   0.068  -0.073
    1UNL     C3    3   0.217  -0.001   0.023
    1UNL     C4    4   0.193  -0.148  -0.001
    1UNL     O1    5   0.223  -0.204  -0.105
    1UNL     N1    6   0.101  -0.210   0.075
    1UNL     C5    7   0.014  -0.319   0.023
    1UNL     C6    8  -0.136  -0.294   0.004
    1UNL     C7    9  -0.167  -0.149   0.027
    1UNL     C8   10  -0.090  -0.071   0.117
    1UNL     N2   11  -0.096   0.066   0.089
    1UNL     C9   12  -0.199   0.076  -0.006
    1UNL    C10   13  -0.253   0.187  -0.067
    1UNL    C11   14  -0.354   0.175  -0.161
    1UNL    C12   15  -0.398   0.045  -0.197
    1UNL    C13   16  -0.342  -0.067  -0.141
    1UNL    C14   17  -0.244  -0.054  -0.044
    1UNL    C15   18   0.023   0.156   0.120
    1UNL    C16   19   0.044   0.278   0.020
    1UNL     O2   20   0.163   0.343   0.080
    1UNL    C17   21   0.162   0.073   0.142
    1UNL    C18   22   0.125  -0.028   0.253
    1UNL    C19   23   0.029  -0.133   0.186
    1UNL     H1   24   0.400   0.071  -0.248
    1UNL     H2   25   0.376  -0.091  -0.192
    1UNL     H3   26   0.249   0.005  -0.272
    1UNL     H4   27   0.267   0.174  -0.063
    1UNL     H5   28   0.074  -0.338  -0.064
    1UNL     H6   29   0.022  -0.411   0.077
    1UNL     H7   30  -0.201  -0.338   0.082
    1UNL     H8   31  -0.154  -0.329  -0.100
    1UNL     H9   32  -0.200   0.282  -0.042
    1UNL    H10   33  -0.413   0.259  -0.198
    1UNL    H11   34  -0.480   0.032  -0.267
    1UNL    H12   35  -0.368  -0.175  -0.177
    1UNL    H13   36  -0.002   0.203   0.213
    1UNL    H14   37  -0.032   0.354   0.014
    1UNL    H15   38   0.078   0.251  -0.077
    1UNL    H16   39   0.163   0.437   0.047
    1UNL    H17   40   0.244   0.144   0.171
    1UNL    H18   41   0.073   0.015   0.355
    1UNL    H19   42   0.218  -0.066   0.286
    1UNL    H20   43  -0.004  -0.194   0.267
   0.00000   0.00000   0.00000   0.00000   0.00000   0.00000   0.00000   0.00000   0.00000
Generated with MDTraj, t= 3.0
 43
    1UNL     C1    1   0.324   0.031  -0.195
    1UNL     C2    2   0.270   0.074  -0.066
    1UNL     C3    3   0.199  -0.001   0.018
    1UNL     C4    4   0.172  -0.146  -0.009
    1UNL     O1    5   0.192  -0.195  -0.121
    1UNL     N1    6   0.104  -0.216   0.089
    1UNL     C5    7   0.009  -0.326   0.043
    1UNL     C6    8  -0.133  -0.283  -0.006
    1UNL     C7    9  -0.153  -0.143   0.031
    1UNL     C8   10  -0.088  -0.078   0.131
    1UNL     N2   11  -0.095   0.062   0.107
    1UNL     C9   12  -0.197   0.076   0.007
    1UNL    C10   13  -0.251   0.188  -0.054
    1UNL    C11   14  -0.340   0.180  -0.157
    1UNL    C12   15  -0.372   0.054  -0.212
    1UNL    C13   16  -0.312  -0.065  -0.161
    1UNL    C14   17  -0.225  -0.046  -0.046
    1UNL    C15   18   0.022   0.152   0.135
    1UNL    C16   19   0.031   0.263   0.022
    1UNL     O2   20   0.149   0.337   0.030
    1UNL    C17   21   0.154   0.065   0.143
    1UNL    C18   22   0.133  -0.040   0.255
    1UNL    C19   23   0.037  -0.142   0.193
    1UNL     H1   24   0.364   0.119  -0.261
    1UNL     H2   25   0.401  -0.044  -0.190
    1UNL     H3   26   0.245  -0.010  -0.255
    1UNL     H4   27   0.275   0.179  -0.043
    1UNL     H5   28   0.066  -0.363  -0.041
    1UNL     H6   29   0.021  -0.403   0.116
    1UNL     H7   30  -0.203  -0.347   0.053
    1UNL     H8   31  -0.144  -0.287  -0.118
    1UNL     H9   32  -0.238   0.281  -0.006
    1UNL    H10   33  -0.364   0.277  -0.199
    1UNL    H11   34  -0.440   0.044  -0.295
    1UNL    H12   35  -0.333  -0.167  -0.178
    1UNL    H13   36   0.007   0.204   0.226
    1UNL    H14   37  -0.047   0.338   0.029
    1UNL    H15   38   0.041   0.210  -0.070
    1UNL    H16   39   0.135   0.413  -0.030
    1UNL    H17   40   0.236   0.134   0.178
    1UNL    H18   41   0.078   0.022   0.336
    1UNL    H19   42   0.218  -0.078   0.309
    1UNL    H20   43   0.013  -0.205   0.274
   0.00000   0.00000   0.00000   0.00000   0.00000   0.00000   0.00000   0.00000   0.00000
Generated with MDTraj, t= 4.0
 43
    1UNL     C1    1   0.330   0.034  -0.198
    1UNL     C2    2   0.271   0.077  -0.068
    1UNL     C3    3   0.193   0.003   0.014
    1UNL     C4    4   0.151  -0.134  -0.015
    1UNL     O1    5   0.168  -0.183  -0.126
    1UNL     N1    6   0.102  -0.215   0.088
    1UNL     C5    7   0.015  -0.332   0.041
    1UNL     C6    8  -0.122  -0.288  -0.013
    1UNL     C7    9  -0.147  -0.148   0.042
    1UNL     C8   10  -0.081  -0.076   0.139
    1UNL     N2   11  -0.102   0.061   0.108
    1UNL     C9   12  -0.203   0.080   0.012
    1UNL    C10   13  -0.259   0.193  -0.044
    1UNL    C11   14  -0.335   0.183  -0.160
    1UNL    C12   15  -0.354   0.051  -0.219
    1UNL    C13   16  -0.303  -0.066  -0.161
    1UNL    C14   17  -0.230  -0.055  -0.038
    1UNL    C15   18   0.022   0.153   0.131
    1UNL    C16   19   0.037   0.251   0.017
    1UNL     O2   20   0.156   0.323   0.027
    1UNL    C17   21   0.149   0.073   0.143
    1UNL    C18   22   0.128  -0.035   0.260
    1UNL    C19   23   0.037  -0.145   0.205
    1UNL     H1   24   0.386   0.128  -0.243
    1UNL     H2   25   0.392  -0.048  -0.184
    1UNL     H3   26   0.246   0.010  -0.264
    1UNL     H4   27   0.300   0.179  -0.043
    1UNL     H5   28   0.066  -0.399  -0.026
    1UNL     H6   29   0.013  -0.383   0.134
    1UNL     H7   30  -0.201  -0.362   0.017
    1UNL     H8   31  -0.109  -0.279  -0.124
    1UNL     H9   32  -0.246   0.288   0.007
    1UNL    H10   33  -0.372   0.274  -0.208
    1UNL    H11   34  -0.405   0.037  -0.313
    1UNL    H12   35  -0.341  -0.159  -0.195
    1UNL    H13   36   0.004   0.208   0.219
    1UNL    H14   37  -0.045   0.320   0.031
    1UNL    H15   38   0.047   0.187  -0.070
    1UNL    H16   39   0.187   0.374  -0.053
    1UNL    H17   40   0.233   0.134   0.185
    1UNL    H18   41   0.081   0.016   0.338
    1UNL    H19   42   0.223  -0.069   0.305
    1UNL    H20   43   0.019  -0.217   0.280
   0.00000   0.00000   0.00000   0.00000   0.00000   0.00000   0.00000   0.00000   0.00000
Generated with MDTraj, t= 5.0
 43
    1UNL     C1    1   0.341   0.016  -0.192
    1UNL     C2    2   0.288   0.064  -0.062
    1UNL     C3    3   0.204   0.000   0.018
    1UNL     C4    4   0.160  -0.135  -0.011
    1UNL     O1    5   0.184  -0.179  -0.123
    1UNL     N1    6   0.095  -0.211   0.082
    1UNL     C5    7   0.023  -0.328   0.028
    1UNL     C6    8  -0.132  -0.295   0.006
    1UNL     C7    9  -0.168  -0.149   0.034
    1UNL     C8   10  -0.082  -0.073   0.117
    1UNL     N2   11  -0.088   0.061   0.093
    1UNL     C9   12  -0.189   0.075  -0.004
    1UNL    C10   13  -0.256   0.197  -0.055
    1UNL    C11   14  -0.347   0.176  -0.157
    1UNL    C12   15  -0.370   0.044  -0.204
    1UNL    C13   16  -0.326  -0.070  -0.144
    1UNL    C14   17  -0.237  -0.053  -0.042
    1UNL    C15   18   0.025   0.155   0.126
    1UNL    C16   19   0.038   0.265   0.018
    1UNL     O2   20   0.152   0.344   0.049
    1UNL    C17   21   0.155   0.072   0.144
    1UNL    C18   22   0.126  -0.035   0.256
    1UNL    C19   23   0.032  -0.140   0.195
    1UNL     H1   24   0.438   0.056  -0.222
    1UNL     H2   25   0.353  -0.091  -0.202
    1UNL     H3   26   0.273   0.048  -0.277
    1UNL     H4   27   0.312   0.166  -0.040
    1UNL     H5   28   0.092  -0.355  -0.055
    1UNL     H6   29   0.017  -0.406   0.101
    1UNL     H7   30  -0.181  -0.364   0.077
    1UNL     H8   31  -0.158  -0.337  -0.095
    1UNL     H9   32  -0.222   0.296  -0.025
    1UNL    H10   33  -0.406   0.256  -0.198
    1UNL    H11   34  -0.442   0.036  -0.285
    1UNL    H12   35  -0.344  -0.181  -0.166
    1UNL    H13   36  -0.001   0.211   0.211
    1UNL    H14   37  -0.053   0.322   0.022
    1UNL    H15   38   0.049   0.203  -0.071
    1UNL    H16   39   0.137   0.440   0.028
    1UNL    H17   40   0.242   0.136   0.175
    1UNL    H18   41   0.083  -0.003   0.340
    1UNL    H19   42   0.227  -0.073   0.283
    1UNL    H20   43  -0.010  -0.200   0.274
   0.00000   0.00000   0.00000   0.00000   0.00000   0.00000   0.00000   0.00000   0.00000
Generated with MDTraj, t= 6.0
 43
    1UNL     C1    1   0.369   0.021  -0.176
    1UNL     C2    2   0.302   0.075  -0.059
    1UNL     C3    3   0.210   0.010   0.013
    1UNL     C4    4   0.171  -0.137  -0.017
    1UNL     O1    5   0.212  -0.193  -0.119
    1UNL     N1    6   0.087  -0.204   0.072
    1UNL     C5    7   0.011  -0.324   0.028
    1UNL     C6    8  -0.136  -0.283   0.011
    1UNL     C7    9  -0.173  -0.140   0.037
    1UNL     C8   10  -0.085  -0.071   0.113
    1UNL     N2   11  -0.083   0.062   0.073
    1UNL     C9   12  -0.192   0.083  -0.014
    1UNL    C10   13  -0.259   0.187  -0.075
    1UNL    C11   14  -0.360   0.160  -0.163
    1UNL    C12   15  -0.407   0.027  -0.189
    1UNL    C13   16  -0.350  -0.074  -0.122
    1UNL    C14   17  -0.248  -0.046  -0.032
    1UNL    C15   18   0.023   0.156   0.123
    1UNL    C16   19   0.044   0.283   0.028
    1UNL     O2   20   0.169   0.342   0.071
    1UNL    C17   21   0.156   0.067   0.141
    1UNL    C18   22   0.128  -0.049   0.242
    1UNL    C19   23   0.027  -0.141   0.183
    1UNL     H1   24   0.427   0.086  -0.227
    1UNL     H2   25   0.430  -0.073  -0.159
    1UNL     H3   26   0.288  -0.009  -0.251
    1UNL     H4   27   0.322   0.181  -0.039
    1UNL     H5   28   0.053  -0.360  -0.068
    1UNL     H6   29   0.025  -0.398   0.105
    1UNL     H7   30  -0.202  -0.344   0.078
    1UNL     H8   31  -0.176  -0.322  -0.088
    1UNL     H9   32  -0.208   0.278  -0.068
    1UNL    H10   33  -0.409   0.236  -0.224
    1UNL    H11   34  -0.494  -0.003  -0.246
    1UNL    H12   35  -0.377  -0.168  -0.149
    1UNL    H13   36   0.003   0.204   0.214
    1UNL    H14   37  -0.048   0.344   0.024
    1UNL    H15   38   0.062   0.240  -0.070
    1UNL    H16   39   0.159   0.433   0.037
    1UNL    H17   40   0.233   0.136   0.183
    1UNL    H18   41   0.088  -0.001   0.327
    1UNL    H19   42   0.210  -0.118   0.271
    1UNL    H20   43  -0.020  -0.213   0.251
   0.00000   0.00000   0.00000   0.00000   0.00000   0.00000   0.00000   0.00000   0.00000
Generated with MDTraj, t= 7.0
 43
    1UNL     C1    1   0.370   0.024  -0.172
    1UNL     C2    2   0.296   0.081  -0.055
    1UNL     C3    3   0.214   0.007   0.018
    1UNL     C4    4   0.176  -0.132  -0.020
    1UNL     O1    5   0.227  -0.187  -0.114
    1UNL     N1    6   0.088  -0.207   0.066
    1UNL     C5    7   0.013  -0.328   0.017
    1UNL     C6    8  -0.138  -0.302   0.017
    1UNL     C7    9  -0.168  -0.151   0.038
    1UNL     C8   10  -0.090  -0.075   0.120
    1UNL     N2   11  -0.091   0.060   0.079
    1UNL     C9   12  -0.193   0.077  -0.016
    1UNL    C10   13  -0.249   0.194  -0.075
    1UNL    C11   14  -0.350   0.176  -0.162
    1UNL    C12   15  -0.410   0.049  -0.178
    1UNL    C13   16  -0.356  -0.066  -0.122
    1UNL    C14   17  -0.251  -0.052  -0.032
    1UNL    C15   18   0.023   0.148   0.118
    1UNL    C16   19   0.051   0.255   0.015
    1UNL     O2   20   0.148   0.348   0.053
    1UNL    C17   21   0.149   0.067   0.139
    1UNL    C18   22   0.127  -0.041   0.249
    1UNL    C19   23   0.029  -0.139   0.186
    1UNL     H1   24   0.399   0.105  -0.233
    1UNL     H2   25   0.455  -0.042  -0.133
    1UNL     H3   26   0.293  -0.039  -0.220
    1UNL     H4   27   0.318   0.180  -0.027
    1UNL     H5   28   0.055  -0.345  -0.086
    1UNL     H6   29   0.044  -0.407   0.080
    1UNL     H7   30  -0.193  -0.380   0.076
    1UNL     H8   31  -0.194  -0.327  -0.079
    1UNL     H9   32  -0.222   0.299  -0.053
    1UNL    H10   33  -0.377   0.264  -0.216
    1UNL    H11   34  -0.500   0.059  -0.238
    1UNL    H12   35  -0.408  -0.167  -0.125
    1UNL    H13   36  -0.001   0.199   0.209
    1UNL    H14   37  -0.042   0.314   0.011
    1UNL    H15   38   0.071   0.207  -0.082
    1UNL    H16   39   0.199   0.382  -0.025
    1UNL    H17   40   0.217   0.139   0.189
    1UNL    H18   41   0.072  -0.003   0.342
    1UNL    H19   42   0.211  -0.095   0.287
    1UNL    H20   43   0.000  -0.224   0.252
   0.00000   0.00000   0.00000   0.00000   0.00000   0.00000   0.00000   0.00000   0.00000
Generated with MDTraj, t= 8.0
 43
    1UNL     C1    1   0.357   0.017  -0.173
    1UNL     C2    2   0.301   0.068  -0.046
    1UNL     C3    3   0.213   0.004   0.026
    1UNL     C4    4   0.172  -0.131  -0.019
    1UNL     O1    5   0.210  -0.183  -0.121
    1UNL     N1    6   0.094  -0.204   0.072
    1UNL     C5    7   0.019  -0.325   0.019
    1UNL     C6    8  -0.132  -0.291  -0.002
    1UNL     C7    9  -0.156  -0.146   0.032
    1UNL     C8   10  -0.084  -0.070   0.127
    1UNL     N2   11  -0.102   0.068   0.104
    1UNL     C9   12  -0.201   0.081   0.004
    1UNL    C10   13  -0.276   0.189  -0.038
    1UNL    C11   14  -0.368   0.168  -0.142
    1UNL    C12   15  -0.391   0.050  -0.204
    1UNL    C13   16  -0.334  -0.066  -0.154
    1UNL    C14   17  -0.243  -0.052  -0.040
    1UNL    C15   18   0.025   0.155   0.122
    1UNL    C16   19   0.046   0.252   0.006
    1UNL     O2   20   0.164   0.326   0.014
    1UNL    C17   21   0.152   0.070   0.150
    1UNL    C18   22   0.124  -0.037   0.260
    1UNL    C19   23   0.032  -0.138   0.190
    1UNL     H1   24   0.420   0.101  -0.227
    1UNL     H2   25   0.420  -0.074  -0.164
    1UNL     H3   26   0.276  -0.005  -0.237
    1UNL     H4   27   0.332   0.166  -0.006
    1UNL     H5   28   0.068  -0.332  -0.083
    1UNL     H6   29   0.042  -0.412   0.078
    1UNL     H7   30  -0.222  -0.349   0.034
    1UNL     H8   31  -0.158  -0.311  -0.112
    1UNL     H9   32  -0.263   0.282   0.012
    1UNL    H10   33  -0.408   0.260  -0.186
    1UNL    H11   34  -0.464   0.050  -0.285
    1UNL    H12   35  -0.384  -0.157  -0.186
    1UNL    H13   36  -0.001   0.209   0.212
    1UNL    H14   37  -0.040   0.322   0.001
    1UNL    H15   38   0.055   0.196  -0.089
    1UNL    H16   39   0.165   0.423  -0.006
    1UNL    H17   40   0.225   0.142   0.186
    1UNL    H18   41   0.058  -0.019   0.358
    1UNL    H19   42   0.213  -0.080   0.292
    1UNL    H20   43  -0.010  -0.216   0.261
   0.00000   0.00000   0.00000   0.00000   0.00000   0.00000   0.00000   0.00000   0.00000
Generated with MDTraj, t= 9.0
 43
    1UNL     C1    1   0.370   0.025  -0.159
    1UNL     C2    2   0.297   0.069  -0.040
    1UNL     C3    3   0.202   0.002   0.023
    1UNL     C4    4   0.167  -0.142  -0.017
    1UNL     O1    5   0.175  -0.183  -0.131
    1UNL     N1    6   0.104  -0.214   0.086
    1UNL     C5    7   0.022  -0.325   0.047
    1UNL     C6    8  -0.107  -0.276  -0.021
    1UNL     C7    9  -0.157  -0.140   0.018
    1UNL     C8   10  -0.087  -0.083   0.120
    1UNL     N2   11  -0.096   0.055   0.111
    1UNL     C9   12  -0.203   0.074   0.014
    1UNL    C10   13  -0.273   0.188  -0.023
    1UNL    C11   14  -0.353   0.177  -0.132
    1UNL    C12   15  -0.381   0.062  -0.200
    1UNL    C13   16  -0.327  -0.051  -0.153
    1UNL    C14   17  -0.236  -0.046  -0.048
    1UNL    C15   18   0.017   0.154   0.126
    1UNL    C16   19   0.034   0.241  -0.009
    1UNL     O2   20   0.148   0.329  -0.010
    1UNL    C17   21   0.148   0.071   0.149
    1UNL    C18   22   0.125  -0.036   0.256
    1UNL    C19   23   0.035  -0.144   0.190
    1UNL     H1   24   0.472   0.082  -0.183
    1UNL     H2   25   0.399  -0.080  -0.166
    1UNL     H3   26   0.310   0.042  -0.246
    1UNL     H4   27   0.315   0.170  -0.013
    1UNL     H5   28   0.084  -0.385  -0.027
    1UNL     H6   29   0.000  -0.388   0.134
    1UNL     H7   30  -0.186  -0.353  -0.002
    1UNL     H8   31  -0.109  -0.276  -0.134
    1UNL     H9   32  -0.247   0.288   0.010
    1UNL    H10   33  -0.386   0.263  -0.183
    1UNL    H11   34  -0.458   0.055  -0.274
    1UNL    H12   35  -0.355  -0.143  -0.191
    1UNL    H13   36  -0.008   0.211   0.217
    1UNL    H14   37  -0.054   0.305  -0.033
    1UNL    H15   38   0.043   0.182  -0.104
    1UNL    H16   39   0.140   0.400  -0.078
    1UNL    H17   40   0.219   0.151   0.171
    1UNL    H18   41   0.072   0.019   0.346
    1UNL    H19   42   0.206  -0.089   0.297
    1UNL    H20   43  -0.003  -0.220   0.266
   0.00000   0.00000   0.00000   0.00000   0.00000   0.00000   0.00000   0.00000   0.00000
Generated with MDTraj, t= 10.0
 43
    1UNL     C1    1   0.377   0.006  -0.163
    1UNL     C2    2   0.313   0.072  -0.042
    1UNL     C3    3   0.221   0.004   0.031
    1UNL     C4    4   0.172  -0.128  -0.017
    1UNL     O1    5   0.199  -0.178  -0.123
    1UNL     N1    6   0.094  -0.206   0.069
    1UNL     C5    7   0.024  -0.324   0.013
    1UNL     C6    8  -0.124  -0.287  -0.010
    1UNL     C7    9  -0.162  -0.146   0.031
    1UNL     C8   10  -0.089  -0.077   0.125
    1UNL     N2   11  -0.103   0.062   0.108
    1UNL     C9   12  -0.207   0.078   0.017
    1UNL    C10   13  -0.280   0.195  -0.034
    1UNL    C11   14  -0.366   0.180  -0.140
    1UNL    C12   15  -0.388   0.054  -0.193
    1UNL    C13   16  -0.328  -0.054  -0.150
    1UNL    C14   17  -0.242  -0.048  -0.036
    1UNL    C15   18   0.020   0.146   0.121
    1UNL    C16   19   0.041   0.228  -0.012
    1UNL     O2   20   0.138   0.333   0.007
    1UNL    C17   21   0.158   0.075   0.151
    1UNL    C18   22   0.121  -0.033   0.256
    1UNL    C19   23   0.028  -0.137   0.188
    1UNL     H1   24   0.476   0.045  -0.183
    1UNL     H2   25   0.383  -0.103  -0.149
    1UNL     H3   26   0.305   0.026  -0.249
    1UNL     H4   27   0.351   0.174  -0.019
    1UNL     H5   28   0.079  -0.367  -0.078
    1UNL     H6   29   0.023  -0.394   0.097
    1UNL     H7   30  -0.191  -0.352   0.053
    1UNL     H8   31  -0.152  -0.308  -0.117
    1UNL     H9   32  -0.236   0.292  -0.015
    1UNL    H10   33  -0.413   0.267  -0.189
    1UNL    H11   34  -0.468   0.053  -0.266
    1UNL    H12   35  -0.359  -0.154  -0.196
    1UNL    H13   36   0.013   0.208   0.214
    1UNL    H14   37  -0.049   0.274  -0.063
    1UNL    H15   38   0.072   0.161  -0.097
    1UNL    H16   39   0.181   0.349  -0.081
    1UNL    H17   40   0.230   0.147   0.187
    1UNL    H18   41   0.083   0.014   0.353
    1UNL    H19   42   0.210  -0.084   0.292
    1UNL    H20   43   0.002  -0.222   0.261
   0.00000   0.00000   0.00000   0.00000   0.00000   0.00000   0.00000   0.00000   0.00000
Generated with MDTraj, t= 11.0
 43
    1UNL     C1    1   0.411   0.027  -0.144
    1UNL     C2    2   0.312   0.079  -0.042
    1UNL     C3    3   0.220   0.004   0.024
    1UNL     C4    4   0.178  -0.128  -0.018
    1UNL     O1    5   0.217  -0.181  -0.120
    1UNL     N1    6   0.093  -0.203   0.068
    1UNL     C5    7   0.016  -0.314   0.002
    1UNL     C6    8  -0.141  -0.293   0.002
    1UNL     C7    9  -0.173  -0.148   0.036
    1UNL     C8   10  -0.086  -0.068   0.115
    1UNL     N2   11  -0.099   0.068   0.087
    1UNL     C9   12  -0.204   0.077  -0.006
    1UNL    C10   13  -0.264   0.190  -0.061
    1UNL    C11   14  -0.371   0.176  -0.136
    1UNL    C12   15  -0.415   0.045  -0.174
    1UNL    C13   16  -0.357  -0.070  -0.127
    1UNL    C14   17  -0.258  -0.055  -0.027
    1UNL    C15   18   0.022   0.146   0.109
    1UNL    C16   19   0.051   0.247  -0.001
    1UNL     O2   20   0.166   0.323   0.012
    1UNL    C17   21   0.149   0.069   0.144
    1UNL    C18   22   0.115  -0.043   0.250
    1UNL    C19   23   0.023  -0.142   0.184
    1UNL     H1   24   0.442   0.100  -0.209
    1UNL     H2   25   0.504  -0.012  -0.099
    1UNL     H3   26   0.360  -0.059  -0.206
    1UNL     H4   27   0.338   0.167   0.011
    1UNL     H5   28   0.062  -0.327  -0.104
    1UNL     H6   29   0.039  -0.409   0.052
    1UNL     H7   30  -0.184  -0.359   0.083
    1UNL     H8   31  -0.186  -0.318  -0.096
    1UNL     H9   32  -0.233   0.289  -0.038
    1UNL    H10   33  -0.416   0.258  -0.190
    1UNL    H11   34  -0.509   0.046  -0.226
    1UNL    H12   35  -0.404  -0.161  -0.143
    1UNL    H13   36   0.000   0.202   0.207
    1UNL    H14   37  -0.037   0.317   0.014
    1UNL    H15   38   0.039   0.212  -0.108
    1UNL    H16   39   0.170   0.405  -0.043
    1UNL    H17   40   0.219   0.138   0.188
    1UNL    H18   41   0.077  -0.015   0.350
    1UNL    H19   42   0.214  -0.081   0.287
    1UNL    H20   43  -0.017  -0.215   0.264
   0.00000   0.00000   0.00000   0.00000   0.00000   0.00000   0.00000   0.00000   0.00000
Generated with MDTraj, t= 12.0
 43
    1UNL     C1    1   0.412   0.027  -0.144
    1UNL     C2    2   0.331   0.067  -0.028
    1UNL     C3    3   0.225   0.002   0.028
    1UNL     C4    4   0.182  -0.136  -0.015
    1UNL     O1    5   0.213  -0.175  -0.128
    1UNL     N1    6   0.096  -0.205   0.069
    1UNL     C5    7   0.014  -0.320   0.013
    1UNL     C6    8  -0.136  -0.282  -0.005
    1UNL     C7    9  -0.173  -0.144   0.036
    1UNL     C8   10  -0.093  -0.076   0.116
    1UNL     N2   11  -0.092   0.060   0.081
    1UNL     C9   12  -0.202   0.077  -0.008
    1UNL    C10   13  -0.270   0.189  -0.060
    1UNL    C11   14  -0.380   0.165  -0.145
    1UNL    C12   15  -0.431   0.041  -0.171
    1UNL    C13   16  -0.369  -0.067  -0.119
    1UNL    C14   17  -0.261  -0.049  -0.022
    1UNL    C15   18   0.026   0.150   0.105
    1UNL    C16   19   0.063   0.255  -0.006
    1UNL     O2   20   0.169   0.337   0.025
    1UNL    C17   21   0.150   0.069   0.143
    1UNL    C18   22   0.109  -0.043   0.243
    1UNL    C19   23   0.021  -0.138   0.174
    1UNL     H1   24   0.352   0.013  -0.230
    1UNL     H2   25   0.492   0.093  -0.183
    1UNL     H3   26   0.459  -0.071  -0.130
    1UNL     H4   27   0.360   0.158   0.027
    1UNL     H5   28   0.049  -0.354  -0.092
    1UNL     H6   29   0.031  -0.412   0.073
    1UNL     H7   30  -0.192  -0.357   0.059
    1UNL     H8   31  -0.154  -0.283  -0.116
    1UNL     H9   32  -0.237   0.289  -0.031
    1UNL    H10   33  -0.415   0.246  -0.203
    1UNL    H11   34  -0.522   0.022  -0.226
    1UNL    H12   35  -0.414  -0.166  -0.119
    1UNL    H13   36  -0.012   0.209   0.197
    1UNL    H14   37  -0.024   0.318  -0.039
    1UNL    H15   38   0.087   0.193  -0.097
    1UNL    H16   39   0.174   0.433  -0.003
    1UNL    H17   40   0.217   0.141   0.187
    1UNL    H18   41   0.076  -0.001   0.335
    1UNL    H19   42   0.199  -0.107   0.283
    1UNL    H20   43  -0.010  -0.220   0.247
   0.00000   0.00000   0.00000   0.00000   0.00000   0.00000   0.00000   0.00000   0.00000
Generated with MDTraj, t= 13.0
 43
    1UNL     C1    1   0.407   0.004  -0.149
    1UNL     C2    2   0.316   0.060  -0.038
    1UNL     C3    3   0.213   0.001   0.029
    1UNL     C4    4   0.172  -0.135  -0.012
    1UNL     O1    5   0.189  -0.170  -0.132
    1UNL     N1    6   0.099  -0.212   0.077
    1UNL     C5    7   0.027  -0.330   0.017
    1UNL     C6    8  -0.127  -0.294  -0.004
    1UNL     C7    9  -0.157  -0.148   0.019
    1UNL     C8   10  -0.092  -0.078   0.121
    1UNL     N2   11  -0.103   0.058   0.100
    1UNL     C9   12  -0.195   0.082  -0.002
    1UNL    C10   13  -0.274   0.189  -0.036
    1UNL    C11   14  -0.379   0.183  -0.132
    1UNL    C12   15  -0.408   0.058  -0.183
    1UNL    C13   16  -0.335  -0.049  -0.138
    1UNL    C14   17  -0.238  -0.044  -0.046
    1UNL    C15   18   0.017   0.147   0.110
    1UNL    C16   19   0.044   0.243  -0.013
    1UNL     O2   20   0.143   0.347   0.014
    1UNL    C17   21   0.152   0.073   0.147
    1UNL    C18   22   0.121  -0.036   0.254
    1UNL    C19   23   0.028  -0.140   0.187
    1UNL     H1   24   0.373  -0.102  -0.161
    1UNL     H2   25   0.392   0.057  -0.246
    1UNL     H3   26   0.502   0.007  -0.116
    1UNL     H4   27   0.346   0.155  -0.001
    1UNL     H5   28   0.080  -0.348  -0.084
    1UNL     H6   29   0.035  -0.429   0.067
    1UNL     H7   30  -0.185  -0.351   0.075
    1UNL     H8   31  -0.140  -0.316  -0.113
    1UNL     H9   32  -0.251   0.288  -0.009
    1UNL    H10   33  -0.428   0.275  -0.168
    1UNL    H11   34  -0.502   0.049  -0.240
    1UNL    H12   35  -0.371  -0.148  -0.178
    1UNL    H13   36  -0.015   0.217   0.195
    1UNL    H14   37  -0.054   0.288  -0.049
    1UNL    H15   38   0.068   0.187  -0.106
    1UNL    H16   39   0.172   0.368  -0.079
    1UNL    H17   40   0.220   0.149   0.181
    1UNL    H18   41   0.067   0.002   0.333
    1UNL    H19   42   0.217  -0.081   0.307
    1UNL    H20   43   0.006  -0.224   0.257
   0.00000   0.00000   0.00000   0.00000   0.00000   0.00000   0.00000   0.00000   0.00000
Generated with MDTraj, t= 14.0
 43
    1UNL     C1    1   0.388   0.005  -0.158
    1UNL     C2    2   0.306   0.066  -0.046
    1UNL     C3    3   0.210   0.002   0.021
    1UNL     C4    4   0.165  -0.132  -0.014
    1UNL     O1    5   0.182  -0.174  -0.132
    1UNL     N1    6   0.105  -0.211   0.083
    1UNL     C5    7   0.025  -0.324   0.018
    1UNL     C6    8  -0.111  -0.272  -0.030
    1UNL     C7    9  -0.157  -0.139   0.032
    1UNL     C8   10  -0.089  -0.072   0.133
    1UNL     N2   11  -0.114   0.066   0.119
    1UNL     C9   12  -0.216   0.075   0.023
    1UNL    C10   13  -0.281   0.193  -0.024
    1UNL    C11   14  -0.358   0.183  -0.135
    1UNL    C12   15  -0.382   0.061  -0.199
    1UNL    C13   16  -0.322  -0.060  -0.157
    1UNL    C14   17  -0.239  -0.047  -0.036
    1UNL    C15   18   0.016   0.142   0.112
    1UNL    C16   19   0.033   0.232  -0.010
    1UNL     O2   20   0.148   0.323   0.002
    1UNL    C17   21   0.148   0.069   0.145
    1UNL    C18   22   0.122  -0.035   0.256
    1UNL    C19   23   0.033  -0.138   0.193
    1UNL     H1   24   0.460  -0.065  -0.105
    1UNL     H2   25   0.329  -0.063  -0.221
    1UNL     H3   26   0.442   0.076  -0.210
    1UNL     H4   27   0.337   0.158   0.006
    1UNL     H5   28   0.086  -0.384  -0.059
    1UNL     H6   29  -0.002  -0.404   0.092
    1UNL     H7   30  -0.192  -0.346  -0.002
    1UNL     H8   31  -0.099  -0.241  -0.138
    1UNL     H9   32  -0.244   0.292   0.004
    1UNL    H10   33  -0.395   0.271  -0.180
    1UNL    H11   34  -0.466   0.047  -0.264
    1UNL    H12   35  -0.334  -0.151  -0.200
    1UNL    H13   36   0.007   0.219   0.197
    1UNL    H14   37  -0.053   0.305  -0.024
    1UNL    H15   38   0.025   0.173  -0.100
    1UNL    H16   39   0.181   0.356  -0.084
    1UNL    H17   40   0.213   0.144   0.188
    1UNL    H18   41   0.082  -0.004   0.349
    1UNL    H19   42   0.222  -0.090   0.272
    1UNL    H20   43  -0.002  -0.217   0.259
   0.00000   0.00000   0.00000   0.00000   0.00000   0.00000   0.00000   0.00000   0.00000
Generated with MDTraj, t= 15.0
 43
    1UNL     C1    1   0.366   0.040  -0.165
    1UNL     C2    2   0.310   0.073  -0.032
    1UNL     C3    3   0.220   0.001   0.034
    1UNL     C4    4   0.171  -0.138  -0.009
    1UNL     O1    5   0.187  -0.187  -0.125
    1UNL     N1    6   0.099  -0.214   0.082
    1UNL     C5    7   0.021  -0.328   0.024
    1UNL     C6    8  -0.123  -0.286  -0.013
    1UNL     C7    9  -0.160  -0.145   0.025
    1UNL     C8   10  -0.091  -0.078   0.122
    1UNL     N2   11  -0.103   0.060   0.102
    1UNL     C9   12  -0.205   0.078   0.012
    1UNL    C10   13  -0.266   0.193  -0.038
    1UNL    C11   14  -0.361   0.189  -0.131
    1UNL    C12   15  -0.390   0.058  -0.196
    1UNL    C13   16  -0.324  -0.052  -0.153
    1UNL    C14   17  -0.242  -0.046  -0.041
    1UNL    C15   18   0.023   0.151   0.115
    1UNL    C16   19   0.040   0.242  -0.003
    1UNL     O2   20   0.157   0.320  -0.010
    1UNL    C17   21   0.151   0.068   0.150
    1UNL    C18   22   0.116  -0.043   0.253
    1UNL    C19   23   0.026  -0.149   0.192
    1UNL     H1   24   0.476   0.058  -0.171
    1UNL     H2   25   0.367  -0.060  -0.188
    1UNL     H3   26   0.321   0.094  -0.253
    1UNL     H4   27   0.328   0.171   0.005
    1UNL     H5   28   0.069  -0.395  -0.054
    1UNL     H6   29   0.010  -0.402   0.111
    1UNL     H7   30  -0.192  -0.345   0.052
    1UNL     H8   31  -0.143  -0.295  -0.123
    1UNL     H9   32  -0.235   0.287   0.001
    1UNL    H10   33  -0.407   0.275  -0.179
    1UNL    H11   34  -0.463   0.054  -0.274
    1UNL    H12   35  -0.355  -0.156  -0.186
    1UNL    H13   36  -0.003   0.216   0.206
    1UNL    H14   37  -0.045   0.314   0.016
    1UNL    H15   38   0.028   0.203  -0.101
    1UNL    H16   39   0.168   0.398  -0.073
    1UNL    H17   40   0.224   0.136   0.194
    1UNL    H18   41   0.078  -0.008   0.350
    1UNL    H19   42   0.206  -0.103   0.268
    1UNL    H20   43  -0.006  -0.230   0.254
   0.00000   0.00000   0.00000   0.00000   0.00000   0.00000   0.00000   0.00000   0.00000
Generated with MDTraj, t= 16.0
 43
    1UNL     C1    1   0.362   0.018  -0.173
    1UNL     C2    2   0.300   0.075  -0.044
    1UNL     C3    3   0.214   0.005   0.026
    1UNL     C4    4   0.180  -0.134  -0.006
    1UNL     O1    5   0.218  -0.190  -0.112
    1UNL     N1    6   0.091  -0.208   0.072
    1UNL     C5    7   0.019  -0.317   0.006
    1UNL     C6    8  -0.132  -0.294  -0.001
    1UNL     C7    9  -0.174  -0.148   0.033
    1UNL     C8   10  -0.094  -0.076   0.117
    1UNL     N2   11  -0.092   0.059   0.092
    1UNL     C9   12  -0.197   0.078   0.005
    1UNL    C10   13  -0.262   0.192  -0.060
    1UNL    C11   14  -0.369   0.183  -0.149
    1UNL    C12   15  -0.405   0.050  -0.189
    1UNL    C13   16  -0.340  -0.058  -0.138
    1UNL    C14   17  -0.251  -0.048  -0.034
    1UNL    C15   18   0.025   0.150   0.118
    1UNL    C16   19   0.053   0.253   0.003
    1UNL     O2   20   0.166   0.329   0.035
    1UNL    C17   21   0.157   0.070   0.150
    1UNL    C18   22   0.122  -0.043   0.248
    1UNL    C19   23   0.021  -0.137   0.182
    1UNL     H1   24   0.413   0.097  -0.227
    1UNL     H2   25   0.432  -0.054  -0.147
    1UNL     H3   26   0.275  -0.027  -0.238
    1UNL     H4   27   0.316   0.180  -0.023
    1UNL     H5   28   0.067  -0.320  -0.095
    1UNL     H6   29   0.041  -0.425   0.040
    1UNL     H7   30  -0.187  -0.353   0.076
    1UNL     H8   31  -0.179  -0.322  -0.098
    1UNL     H9   32  -0.226   0.288  -0.022
    1UNL    H10   33  -0.405   0.274  -0.199
    1UNL    H11   34  -0.485   0.038  -0.264
    1UNL    H12   35  -0.376  -0.158  -0.149
    1UNL    H13   36  -0.014   0.204   0.211
    1UNL    H14   37  -0.024   0.326  -0.032
    1UNL    H15   38   0.069   0.193  -0.082
    1UNL    H16   39   0.151   0.417  -0.008
    1UNL    H17   40   0.231   0.145   0.186
    1UNL    H18   41   0.072  -0.010   0.344
    1UNL    H19   42   0.201  -0.099   0.280
    1UNL    H20   43  -0.004  -0.211   0.253
   0.00000   0.00000   0.00000   0.00000   0.00000   0.00000   0.00000   0.00000   0.00000
Generated with MDTraj, t= 17.0
 43
    1UNL     C1    1   0.387   0.021  -0.171
    1UNL     C2    2   0.291   0.070  -0.060
    1UNL     C3    3   0.199   0.001   0.004
    1UNL     C4    4   0.173  -0.141  -0.019
    1UNL     O1    5   0.224  -0.206  -0.112
    1UNL     N1    6   0.091  -0.210   0.071
    1UNL     C5    7   0.011  -0.321   0.024
    1UNL     C6    8  -0.138  -0.288   0.004
    1UNL     C7    9  -0.163  -0.141   0.034
    1UNL     C8   10  -0.088  -0.064   0.119
    1UNL     N2   11  -0.096   0.068   0.085
    1UNL     C9   12  -0.195   0.077  -0.018
    1UNL    C10   13  -0.249   0.192  -0.076
    1UNL    C11   14  -0.359   0.179  -0.158
    1UNL    C12   15  -0.413   0.050  -0.184
    1UNL    C13   16  -0.358  -0.067  -0.127
    1UNL    C14   17  -0.247  -0.052  -0.039
    1UNL    C15   18   0.018   0.149   0.126
    1UNL    C16   19   0.044   0.268   0.031
    1UNL     O2   20   0.160   0.345   0.060
    1UNL    C17   21   0.150   0.067   0.138
    1UNL    C18   22   0.138  -0.049   0.245
    1UNL    C19   23   0.031  -0.142   0.186
    1UNL     H1   24   0.394   0.094  -0.249
    1UNL     H2   25   0.488   0.010  -0.129
    1UNL     H3   26   0.348  -0.078  -0.212
    1UNL     H4   27   0.304   0.175  -0.037
    1UNL     H5   28   0.044  -0.356  -0.076
    1UNL     H6   29   0.034  -0.407   0.096
    1UNL     H7   30  -0.218  -0.348   0.056
    1UNL     H8   31  -0.173  -0.302  -0.101
    1UNL     H9   32  -0.205   0.285  -0.052
    1UNL    H10   33  -0.402   0.262  -0.209
    1UNL    H11   34  -0.502   0.031  -0.233
    1UNL    H12   35  -0.396  -0.164  -0.149
    1UNL    H13   36  -0.009   0.183   0.231
    1UNL    H14   37  -0.050   0.328   0.036
    1UNL    H15   38   0.058   0.243  -0.071
    1UNL    H16   39   0.162   0.427   0.006
    1UNL    H17   40   0.230   0.139   0.165
    1UNL    H18   41   0.099  -0.016   0.346
    1UNL    H19   42   0.220  -0.104   0.263
    1UNL    H20   43  -0.000  -0.207   0.264
   0.00000   0.00000   0.00000   0.00000   0.00000   0.00000   0.00000   0.00000   0.00000
Generated with MDTraj, t= 18.0
 43
    1UNL     C1    1   0.342   0.022  -0.186
    1UNL     C2    2   0.301   0.060  -0.051
    1UNL     C3    3   0.209   0.000   0.017
    1UNL     C4    4   0.161  -0.135  -0.017
    1UNL     O1    5   0.189  -0.188  -0.124
    1UNL     N1    6   0.097  -0.214   0.079
    1UNL     C5    7   0.016  -0.331   0.035
    1UNL     C6    8  -0.134  -0.295   0.006
    1UNL     C7    9  -0.159  -0.147   0.031
    1UNL     C8   10  -0.087  -0.072   0.122
    1UNL     N2   11  -0.092   0.068   0.089
    1UNL     C9   12  -0.198   0.080  -0.009
    1UNL    C10   13  -0.265   0.192  -0.055
    1UNL    C11   14  -0.351   0.173  -0.163
    1UNL    C12   15  -0.393   0.046  -0.207
    1UNL    C13   16  -0.343  -0.070  -0.145
    1UNL    C14   17  -0.241  -0.055  -0.046
    1UNL    C15   18   0.032   0.152   0.125
    1UNL    C16   19   0.060   0.266   0.023
    1UNL     O2   20   0.157   0.360   0.068
    1UNL    C17   21   0.156   0.067   0.140
    1UNL    C18   22   0.127  -0.036   0.249
    1UNL    C19   23   0.033  -0.142   0.190
    1UNL     H1   24   0.376   0.098  -0.252
    1UNL     H2   25   0.429  -0.056  -0.191
    1UNL     H3   26   0.263  -0.022  -0.239
    1UNL     H4   27   0.346   0.151  -0.015
    1UNL     H5   28   0.059  -0.361  -0.061
    1UNL     H6   29   0.023  -0.421   0.106
    1UNL     H7   30  -0.209  -0.354   0.066
    1UNL     H8   31  -0.181  -0.318  -0.093
    1UNL     H9   32  -0.231   0.292  -0.033
    1UNL    H10   33  -0.404   0.263  -0.198
    1UNL    H11   34  -0.476   0.043  -0.283
    1UNL    H12   35  -0.367  -0.172  -0.189
    1UNL    H13   36   0.026   0.201   0.225
    1UNL    H14   37  -0.029   0.334   0.010
    1UNL    H15   38   0.085   0.215  -0.067
    1UNL    H16   39   0.201   0.431   0.012
    1UNL    H17   40   0.246   0.124   0.176
    1UNL    H18   41   0.083   0.007   0.340
    1UNL    H19   42   0.214  -0.098   0.277
    1UNL    H20   43   0.012  -0.208   0.273
   0.00000   0.00000   0.00000   0.00000   0.00000   0.00000   0.00000   0.00000   0.00000
Generated with MDTraj, t= 19.0
 43
    1UNL     C1    1   0.327   0.026  -0.194
    1UNL     C2    2   0.271   0.072  -0.065
    1UNL     C3    3   0.194   0.004   0.020
    1UNL     C4    4   0.155  -0.135  -0.017
    1UNL     O1    5   0.166  -0.184  -0.129
    1UNL     N1    6   0.093  -0.212   0.081
    1UNL     C5    7   0.024  -0.329   0.037
    1UNL     C6    8  -0.122  -0.295  -0.005
    1UNL     C7    9  -0.158  -0.151   0.029
    1UNL     C8   10  -0.089  -0.082   0.128
    1UNL     N2   11  -0.096   0.059   0.108
    1UNL     C9   12  -0.193   0.074   0.007
    1UNL    C10   13  -0.250   0.189  -0.052
    1UNL    C11   14  -0.328   0.177  -0.163
    1UNL    C12   15  -0.363   0.051  -0.211
    1UNL    C13   16  -0.317  -0.063  -0.153
    1UNL    C14   17  -0.228  -0.051  -0.043
    1UNL    C15   18   0.020   0.157   0.139
    1UNL    C16   19   0.037   0.272   0.025
    1UNL     O2   20   0.170   0.338   0.034
    1UNL    C17   21   0.148   0.073   0.151
    1UNL    C18   22   0.134  -0.040   0.258
    1UNL    C19   23   0.029  -0.146   0.198
    1UNL     H1   24   0.437   0.034  -0.197
    1UNL     H2   25   0.301  -0.084  -0.213
    1UNL     H3   26   0.289   0.084  -0.268
    1UNL     H4   27   0.292   0.177  -0.049
    1UNL     H5   28   0.076  -0.365  -0.051
    1UNL     H6   29   0.012  -0.408   0.117
    1UNL     H7   30  -0.199  -0.361   0.045
    1UNL     H8   31  -0.144  -0.328  -0.110
    1UNL     H9   32  -0.229   0.292  -0.016
    1UNL    H10   33  -0.362   0.270  -0.202
    1UNL    H11   34  -0.432   0.045  -0.290
    1UNL    H12   35  -0.339  -0.156  -0.188
    1UNL    H13   36   0.005   0.210   0.233
    1UNL    H14   37  -0.050   0.345   0.024
    1UNL    H15   38   0.041   0.222  -0.069
    1UNL    H16   39   0.180   0.394  -0.046
    1UNL    H17   40   0.235   0.138   0.182
    1UNL    H18   41   0.084  -0.006   0.346
    1UNL    H19   42   0.237  -0.095   0.276
    1UNL    H20   43   0.008  -0.216   0.279
   0.00000   0.00000   0.00000   0.00000   0.00000   0.00000   0.00000   0.00000   0.00000
Generated with MDTraj, t= 20.0
 43
    1UNL     C1    1   0.319   0.031  -0.199
    1UNL     C2    2   0.271   0.083  -0.073
    1UNL     C3    3   0.195   0.006   0.007
    1UNL     C4    4   0.159  -0.139  -0.015
    1UNL     O1    5   0.188  -0.183  -0.123
    1UNL     N1    6   0.087  -0.213   0.086
    1UNL     C5    7   0.014  -0.327   0.032
    1UNL     C6    8  -0.132  -0.282   0.000
    1UNL     C7    9  -0.162  -0.139   0.041
    1UNL     C8   10  -0.089  -0.072   0.137
    1UNL     N2   11  -0.100   0.061   0.118
    1UNL     C9   12  -0.198   0.078   0.011
    1UNL    C10   13  -0.242   0.192  -0.056
    1UNL    C11   14  -0.326   0.174  -0.162
    1UNL    C12   15  -0.353   0.046  -0.215
    1UNL    C13   16  -0.304  -0.066  -0.160
    1UNL    C14   17  -0.233  -0.052  -0.038
    1UNL    C15   18   0.027   0.150   0.137
    1UNL    C16   19   0.033   0.258   0.022
    1UNL     O2   20   0.155   0.332   0.040
    1UNL    C17   21   0.155   0.062   0.143
    1UNL    C18   22   0.143  -0.049   0.249
    1UNL    C19   23   0.026  -0.143   0.197
    1UNL     H1   24   0.381  -0.058  -0.177
    1UNL     H2   25   0.233  -0.003  -0.249
    1UNL     H3   26   0.374   0.108  -0.250
    1UNL     H4   27   0.293   0.183  -0.044
    1UNL     H5   28   0.056  -0.369  -0.058
    1UNL     H6   29   0.002  -0.396   0.120
    1UNL     H7   30  -0.206  -0.357   0.041
    1UNL     H8   31  -0.150  -0.290  -0.109
    1UNL     H9   32  -0.233   0.281  -0.005
    1UNL    H10   33  -0.365   0.250  -0.229
    1UNL    H11   34  -0.410   0.034  -0.309
    1UNL    H12   35  -0.335  -0.167  -0.196
    1UNL    H13   36   0.005   0.202   0.228
    1UNL    H14   37  -0.059   0.326   0.021
    1UNL    H15   38   0.037   0.201  -0.069
    1UNL    H16   39   0.143   0.412  -0.016
    1UNL    H17   40   0.235   0.133   0.183
    1UNL    H18   41   0.100  -0.008   0.337
    1UNL    H19   42   0.245  -0.113   0.261
    1UNL    H20   43  -0.011  -0.204   0.283
   0.00000   0.00000   0.00000   0.00000   0.00000   0.00000   0.00000   0.00000   0.00000
Generated with MDTraj, t= 21.0
 43
    1UNL     C1    1   0.321   0.035  -0.208
    1UNL     C2    2   0.280   0.071  -0.079
    1UNL     C3    3   0.219   0.002   0.021
    1UNL     C4    4   0.172  -0.144  -0.008
    1UNL     O1    5   0.204  -0.200  -0.110
    1UNL     N1    6   0.090  -0.213   0.085
    1UNL     C5    7   0.017  -0.336   0.038
    1UNL     C6    8  -0.140  -0.300   0.017
    1UNL     C7    9  -0.161  -0.145   0.031
    1UNL     C8   10  -0.083  -0.073   0.117
    1UNL     N2   11  -0.095   0.061   0.085
    1UNL     C9   12  -0.198   0.078  -0.009
    1UNL    C10   13  -0.248   0.200  -0.067
    1UNL    C11   14  -0.346   0.179  -0.161
    1UNL    C12   15  -0.386   0.050  -0.200
    1UNL    C13   16  -0.328  -0.060  -0.157
    1UNL    C14   17  -0.235  -0.052  -0.049
    1UNL    C15   18   0.027   0.152   0.126
    1UNL    C16   19   0.048   0.266   0.032
    1UNL     O2   20   0.153   0.346   0.067
    1UNL    C17   21   0.153   0.065   0.141
    1UNL    C18   22   0.134  -0.039   0.253
    1UNL    C19   23   0.033  -0.142   0.193
    1UNL     H1   24   0.349  -0.070  -0.213
    1UNL     H2   25   0.245   0.043  -0.274
    1UNL     H3   26   0.415   0.090  -0.243
    1UNL     H4   27   0.300   0.174  -0.046
    1UNL     H5   28   0.059  -0.369  -0.054
    1UNL     H6   29   0.025  -0.410   0.121
    1UNL     H7   30  -0.207  -0.357   0.089
    1UNL     H8   31  -0.179  -0.339  -0.079
    1UNL     H9   32  -0.231   0.301  -0.024
    1UNL    H10   33  -0.392   0.264  -0.211
    1UNL    H11   34  -0.454   0.052  -0.286
    1UNL    H12   35  -0.363  -0.159  -0.179
    1UNL    H13   36   0.005   0.200   0.218
    1UNL    H14   37  -0.045   0.334   0.032
    1UNL    H15   38   0.065   0.227  -0.068
    1UNL    H16   39   0.134   0.442   0.091
    1UNL    H17   40   0.225   0.136   0.196
    1UNL    H18   41   0.094  -0.001   0.347
    1UNL    H19   42   0.235  -0.096   0.261
    1UNL    H20   43  -0.006  -0.213   0.273
   0.00000   0.00000   0.00000   0.00000   0.00000   0.00000   0.00000   0.00000   0.00000
Generated with MDTraj, t= 22.0
 43
    1UNL     C1    1   0.336   0.015  -0.196
    1UNL     C2    2   0.274   0.067  -0.080
    1UNL     C3    3   0.204   0.000   0.018
    1UNL     C4    4   0.180  -0.146  -0.001
    1UNL     O1    5   0.215  -0.201  -0.102
    1UNL     N1    6   0.099  -0.214   0.085
    1UNL     C5    7   0.017  -0.323   0.026
    1UNL     C6    8  -0.126  -0.286  -0.017
    1UNL     C7    9  -0.166  -0.145   0.027
    1UNL     C8   10  -0.082  -0.072   0.112
    1UNL     N2   11  -0.090   0.062   0.084
    1UNL     C9   12  -0.194   0.082  -0.007
    1UNL    C10   13  -0.251   0.188  -0.075
    1UNL    C11   14  -0.351   0.164  -0.166
    1UNL    C12   15  -0.411   0.039  -0.198
    1UNL    C13   16  -0.357  -0.066  -0.127
    1UNL    C14   17  -0.243  -0.048  -0.040
    1UNL    C15   18   0.032   0.158   0.125
    1UNL    C16   19   0.050   0.286   0.044
    1UNL     O2   20   0.176   0.347   0.069
    1UNL    C17   21   0.156   0.069   0.141
    1UNL    C18   22   0.125  -0.037   0.249
    1UNL    C19   23   0.027  -0.138   0.188
    1UNL     H1   24   0.391  -0.073  -0.176
    1UNL     H2   25   0.260  -0.013  -0.267
    1UNL     H3   26   0.409   0.090  -0.239
    1UNL     H4   27   0.286   0.172  -0.060
    1UNL     H5   28   0.076  -0.349  -0.060
    1UNL     H6   29   0.012  -0.411   0.091
    1UNL     H7   30  -0.206  -0.357   0.019
    1UNL     H8   31  -0.141  -0.290  -0.127
    1UNL     H9   32  -0.219   0.290  -0.079
    1UNL    H10   33  -0.390   0.252  -0.215
    1UNL    H11   34  -0.491   0.029  -0.264
    1UNL    H12   35  -0.390  -0.161  -0.163
    1UNL    H13   36   0.012   0.197   0.222
    1UNL    H14   37  -0.041   0.358   0.053
    1UNL    H15   38   0.054   0.264  -0.063
    1UNL    H16   39   0.176   0.413   0.142
    1UNL    H17   40   0.234   0.136   0.191
    1UNL    H18   41   0.064   0.007   0.333
    1UNL    H19   42   0.215  -0.090   0.277
    1UNL    H20   43  -0.019  -0.204   0.268
   0.00000   0.00000   0.00000   0.00000   0.00000   0.00000   0.00000   0.00000   0.00000
Generated with MDTraj, t= 23.0
 43
    1UNL     C1    1   0.350   0.038  -0.195
    1UNL     C2    2   0.278   0.073  -0.070
    1UNL     C3    3   0.203  -0.005   0.021
    1UNL     C4    4   0.178  -0.150  -0.005
    1UNL     O1    5   0.215  -0.200  -0.109
    1UNL     N1    6   0.091  -0.216   0.082
    1UNL     C5    7   0.011  -0.326   0.027
    1UNL     C6    8  -0.134  -0.283   0.001
    1UNL     C7    9  -0.161  -0.141   0.027
    1UNL     C8   10  -0.090  -0.076   0.122
    1UNL     N2   11  -0.094   0.060   0.096
    1UNL     C9   12  -0.191   0.076  -0.003
    1UNL    C10   13  -0.259   0.188  -0.049
    1UNL    C11   14  -0.350   0.181  -0.152
    1UNL    C12   15  -0.386   0.059  -0.198
    1UNL    C13   16  -0.338  -0.064  -0.144
    1UNL    C14   17  -0.232  -0.047  -0.049
    1UNL    C15   18   0.024   0.149   0.122
    1UNL    C16   19   0.047   0.253   0.012
    1UNL     O2   20   0.156   0.352   0.035
    1UNL    C17   21   0.152   0.061   0.145
    1UNL    C18   22   0.130  -0.043   0.260
    1UNL    C19   23   0.027  -0.140   0.194
    1UNL     H1   24   0.438  -0.014  -0.178
    1UNL     H2   25   0.280  -0.030  -0.258
    1UNL     H3   26   0.379   0.130  -0.247
    1UNL     H4   27   0.293   0.180  -0.046
    1UNL     H5   28   0.052  -0.348  -0.071
    1UNL     H6   29   0.026  -0.410   0.093
    1UNL     H7   30  -0.210  -0.346   0.055
    1UNL     H8   31  -0.163  -0.287  -0.106
    1UNL     H9   32  -0.236   0.284  -0.013
    1UNL    H10   33  -0.409   0.268  -0.175
    1UNL    H11   34  -0.474   0.057  -0.269
    1UNL    H12   35  -0.349  -0.160  -0.199
    1UNL    H13   36  -0.005   0.197   0.213
    1UNL    H14   37  -0.047   0.312  -0.018
    1UNL    H15   38   0.055   0.197  -0.083
    1UNL    H16   39   0.140   0.377   0.128
    1UNL    H17   40   0.226   0.140   0.182
    1UNL    H18   41   0.063   0.011   0.335
    1UNL    H19   42   0.216  -0.082   0.298
    1UNL    H20   43  -0.026  -0.197   0.278
   0.00000   0.00000   0.00000   0.00000   0.00000   0.00000   0.00000   0.00000   0.00000
Generated with MDTraj, t= 24.0
 43
    1UNL     C1    1   0.358   0.030  -0.186
    1UNL     C2    2   0.298   0.076  -0.062
    1UNL     C3    3   0.213   0.005   0.018
    1UNL     C4    4   0.172  -0.133  -0.011
    1UNL     O1    5   0.201  -0.186  -0.115
    1UNL     N1    6   0.092  -0.211   0.079
    1UNL     C5    7   0.017  -0.329   0.026
    1UNL     C6    8  -0.129  -0.289  -0.010
    1UNL     C7    9  -0.160  -0.146   0.038
    1UNL     C8   10  -0.090  -0.073   0.131
    1UNL     N2   11  -0.108   0.064   0.111
    1UNL     C9   12  -0.204   0.077   0.010
    1UNL    C10   13  -0.268   0.196  -0.034
    1UNL    C11   14  -0.348   0.188  -0.148
    1UNL    C12   15  -0.378   0.061  -0.206
    1UNL    C13   16  -0.317  -0.053  -0.156
    1UNL    C14   17  -0.232  -0.051  -0.047
    1UNL    C15   18   0.021   0.146   0.125
    1UNL    C16   19   0.034   0.232   0.006
    1UNL     O2   20   0.150   0.314   0.010
    1UNL    C17   21   0.155   0.070   0.144
    1UNL    C18   22   0.121  -0.033   0.258
    1UNL    C19   23   0.027  -0.139   0.195
    1UNL     H1   24   0.428  -0.053  -0.178
    1UNL     H2   25   0.278  -0.020  -0.257
    1UNL     H3   26   0.413   0.102  -0.239
    1UNL     H4   27   0.318   0.175  -0.033
    1UNL     H5   28   0.073  -0.350  -0.064
    1UNL     H6   29   0.029  -0.407   0.099
    1UNL     H7   30  -0.205  -0.351   0.046
    1UNL     H8   31  -0.143  -0.297  -0.120
    1UNL     H9   32  -0.270   0.286   0.033
    1UNL    H10   33  -0.405   0.274  -0.178
    1UNL    H11   34  -0.444   0.058  -0.285
    1UNL    H12   35  -0.348  -0.143  -0.196
    1UNL    H13   36   0.012   0.206   0.214
    1UNL    H14   37  -0.060   0.296  -0.013
    1UNL    H15   38   0.042   0.185  -0.093
    1UNL    H16   39   0.176   0.343   0.102
    1UNL    H17   40   0.232   0.142   0.188
    1UNL    H18   41   0.082   0.015   0.354
    1UNL    H19   42   0.203  -0.086   0.283
    1UNL    H20   43   0.002  -0.208   0.282
   0.00000   0.00000   0.00000   0.00000   0.00000   0.00000   0.00000   0.00000   0.00000
Generated with MDTraj, t= 25.0
 43
    1UNL     C1    1   0.374   0.020  -0.166
    1UNL     C2    2   0.304   0.070  -0.045
    1UNL     C3    3   0.215   0.003   0.029
    1UNL     C4    4   0.167  -0.130  -0.016
    1UNL     O1    5   0.182  -0.184  -0.125
    1UNL     N1    6   0.100  -0.210   0.081
    1UNL     C5    7   0.020  -0.320   0.025
    1UNL     C6    8  -0.121  -0.282  -0.033
    1UNL     C7    9  -0.158  -0.142   0.023
    1UNL     C8   10  -0.088  -0.075   0.121
    1UNL     N2   11  -0.092   0.062   0.105
    1UNL     C9   12  -0.206   0.079   0.021
    1UNL    C10   13  -0.263   0.197  -0.042
    1UNL    C11   14  -0.357   0.175  -0.140
    1UNL    C12   15  -0.391   0.047  -0.195
    1UNL    C13   16  -0.331  -0.058  -0.140
    1UNL    C14   17  -0.243  -0.046  -0.035
    1UNL    C15   18   0.024   0.151   0.115
    1UNL    C16   19   0.046   0.242  -0.007
    1UNL     O2   20   0.153   0.327   0.001
    1UNL    C17   21   0.152   0.068   0.149
    1UNL    C18   22   0.113  -0.038   0.258
    1UNL    C19   23   0.021  -0.144   0.194
    1UNL     H1   24   0.378  -0.095  -0.178
    1UNL     H2   25   0.326   0.046  -0.263
    1UNL     H3   26   0.476   0.048  -0.168
    1UNL     H4   27   0.325   0.175  -0.019
    1UNL     H5   28   0.085  -0.365  -0.048
    1UNL     H6   29   0.010  -0.384   0.111
    1UNL     H7   30  -0.190  -0.355   0.016
    1UNL     H8   31  -0.123  -0.282  -0.144
    1UNL     H9   32  -0.261   0.278   0.021
    1UNL    H10   33  -0.400   0.264  -0.184
    1UNL    H11   34  -0.447   0.025  -0.290
    1UNL    H12   35  -0.360  -0.163  -0.165
    1UNL    H13   36   0.007   0.208   0.207
    1UNL    H14   37  -0.039   0.316  -0.024
    1UNL    H15   38   0.028   0.188  -0.101
    1UNL    H16   39   0.153   0.385   0.082
    1UNL    H17   40   0.235   0.129   0.195
    1UNL    H18   41   0.076   0.002   0.356
    1UNL    H19   42   0.205  -0.090   0.280
    1UNL    H20   43  -0.003  -0.217   0.277
   0.00000   0.00000   0.00000   0.00000   0.00000   0.00000   0.00000   0.00000   0.00000
Generated with MDTraj, t= 26.0
 43
    1UNL     C1    1   0.397   0.006  -0.150
    1UNL     C2    2   0.319   0.067  -0.029
    1UNL     C3    3   0.216  -0.000   0.027
    1UNL     C4    4   0.170  -0.138  -0.016
    1UNL     O1    5   0.191  -0.177  -0.130
    1UNL     N1    6   0.099  -0.213   0.074
    1UNL     C5    7   0.021  -0.331   0.019
    1UNL     C6    8  -0.127  -0.292  -0.003
    1UNL     C7    9  -0.164  -0.144   0.019
    1UNL     C8   10  -0.086  -0.071   0.105
    1UNL     N2   11  -0.087   0.068   0.082
    1UNL     C9   12  -0.205   0.079   0.006
    1UNL    C10   13  -0.273   0.190  -0.039
    1UNL    C11   14  -0.373   0.179  -0.132
    1UNL    C12   15  -0.413   0.047  -0.177
    1UNL    C13   16  -0.350  -0.069  -0.136
    1UNL    C14   17  -0.245  -0.047  -0.044
    1UNL    C15   18   0.022   0.156   0.111
    1UNL    C16   19   0.055   0.255  -0.007
    1UNL     O2   20   0.161   0.343   0.018
    1UNL    C17   21   0.154   0.074   0.152
    1UNL    C18   22   0.113  -0.036   0.249
    1UNL    C19   23   0.021  -0.138   0.176
    1UNL     H1   24   0.409  -0.110  -0.144
    1UNL     H2   25   0.344   0.024  -0.239
    1UNL     H3   26   0.495   0.057  -0.146
    1UNL     H4   27   0.342   0.169  -0.011
    1UNL     H5   28   0.069  -0.354  -0.075
    1UNL     H6   29   0.038  -0.415   0.083
    1UNL     H7   30  -0.188  -0.347   0.074
    1UNL     H8   31  -0.147  -0.312  -0.110
    1UNL     H9   32  -0.231   0.285   0.006
    1UNL    H10   33  -0.430   0.260  -0.177
    1UNL    H11   34  -0.489   0.043  -0.250
    1UNL    H12   35  -0.368  -0.166  -0.173
    1UNL    H13   36  -0.014   0.211   0.201
    1UNL    H14   37  -0.040   0.296  -0.052
    1UNL    H15   38   0.082   0.199  -0.096
    1UNL    H16   39   0.132   0.416   0.075
    1UNL    H17   40   0.237   0.139   0.191
    1UNL    H18   41   0.058   0.012   0.328
    1UNL    H19   42   0.204  -0.091   0.296
    1UNL    H20   43  -0.031  -0.207   0.247
   0.00000   0.00000   0.00000   0.00000   0.00000   0.00000   0.00000   0.00000   0.00000
Generated with MDTraj, t= 27.0
 43
    1UNL     C1    1   0.416   0.004  -0.143
    1UNL     C2    2   0.332   0.066  -0.031
    1UNL     C3    3   0.220   0.015   0.014
    1UNL     C4    4   0.175  -0.127  -0.024
    1UNL     O1    5   0.230  -0.180  -0.119
    1UNL     N1    6   0.090  -0.198   0.058
    1UNL     C5    7   0.008  -0.320   0.006
    1UNL     C6    8  -0.141  -0.287  -0.002
    1UNL     C7    9  -0.171  -0.146   0.036
    1UNL     C8   10  -0.089  -0.074   0.120
    1UNL     N2   11  -0.110   0.064   0.091
    1UNL     C9   12  -0.208   0.080  -0.008
    1UNL    C10   13  -0.269   0.193  -0.059
    1UNL    C11   14  -0.377   0.179  -0.145
    1UNL    C12   15  -0.423   0.047  -0.178
    1UNL    C13   16  -0.368  -0.067  -0.114
    1UNL    C14   17  -0.253  -0.050  -0.036
    1UNL    C15   18   0.015   0.146   0.114
    1UNL    C16   19   0.051   0.244  -0.001
    1UNL     O2   20   0.161   0.328   0.022
    1UNL    C17   21   0.158   0.072   0.146
    1UNL    C18   22   0.125  -0.039   0.251
    1UNL    C19   23   0.030  -0.141   0.178
    1UNL     H1   24   0.491  -0.071  -0.108
    1UNL     H2   25   0.354  -0.048  -0.208
    1UNL     H3   26   0.470   0.090  -0.195
    1UNL     H4   27   0.369   0.159   0.015
    1UNL     H5   28   0.056  -0.336  -0.090
    1UNL     H6   29   0.031  -0.408   0.062
    1UNL     H7   30  -0.194  -0.355   0.069
    1UNL     H8   31  -0.167  -0.289  -0.110
    1UNL     H9   32  -0.235   0.293  -0.052
    1UNL    H10   33  -0.424   0.274  -0.166
    1UNL    H11   34  -0.512   0.046  -0.243
    1UNL    H12   35  -0.388  -0.167  -0.151
    1UNL    H13   36  -0.002   0.214   0.201
    1UNL    H14   37  -0.040   0.305  -0.027
    1UNL    H15   38   0.058   0.188  -0.092
    1UNL    H16   39   0.128   0.409   0.069
    1UNL    H17   40   0.234   0.147   0.179
    1UNL    H18   41   0.089   0.001   0.343
    1UNL    H19   42   0.226  -0.098   0.281
    1UNL    H20   43   0.002  -0.231   0.233
   0.00000   0.00000   0.00000   0.00000   0.00000   0.00000   0.00000   0.00000   0.00000
Generated with MDTraj, t= 28.0
 43
    1UNL     C1    1   0.397   0.021  -0.145
    1UNL     C2    2   0.311   0.070  -0.029
    1UNL     C3    3   0.218   0.008   0.031
    1UNL     C4    4   0.174  -0.127  -0.018
    1UNL     O1    5   0.228  -0.174  -0.119
    1UNL     N1    6   0.092  -0.203   0.064
    1UNL     C5    7   0.010  -0.319   0.001
    1UNL     C6    8  -0.145  -0.291  -0.002
    1UNL     C7    9  -0.172  -0.145   0.039
    1UNL     C8   10  -0.091  -0.074   0.124
    1UNL     N2   11  -0.094   0.060   0.091
    1UNL     C9   12  -0.202   0.077   0.004
    1UNL    C10   13  -0.265   0.191  -0.045
    1UNL    C11   14  -0.368   0.181  -0.141
    1UNL    C12   15  -0.417   0.055  -0.180
    1UNL    C13   16  -0.359  -0.062  -0.132
    1UNL    C14   17  -0.243  -0.049  -0.038
    1UNL    C15   18   0.021   0.153   0.113
    1UNL    C16   19   0.057   0.231  -0.011
    1UNL     O2   20   0.161   0.329  -0.002
    1UNL    C17   21   0.147   0.066   0.148
    1UNL    C18   22   0.113  -0.041   0.245
    1UNL    C19   23   0.028  -0.145   0.183
    1UNL     H1   24   0.483  -0.032  -0.119
    1UNL     H2   25   0.347  -0.053  -0.206
    1UNL     H3   26   0.430   0.107  -0.215
    1UNL     H4   27   0.328   0.166   0.014
    1UNL     H5   28   0.058  -0.326  -0.098
    1UNL     H6   29   0.042  -0.406   0.051
    1UNL     H7   30  -0.189  -0.358   0.075
    1UNL     H8   31  -0.179  -0.306  -0.107
    1UNL     H9   32  -0.236   0.286  -0.007
    1UNL    H10   33  -0.411   0.277  -0.173
    1UNL    H11   34  -0.509   0.046  -0.238
    1UNL    H12   35  -0.395  -0.157  -0.170
    1UNL    H13   36   0.005   0.231   0.195
    1UNL    H14   37  -0.031   0.293  -0.041
    1UNL    H15   38   0.073   0.170  -0.098
    1UNL    H16   39   0.155   0.381   0.084
    1UNL    H17   40   0.220   0.132   0.196
    1UNL    H18   41   0.078  -0.008   0.343
    1UNL    H19   42   0.216  -0.090   0.272
    1UNL    H20   43   0.007  -0.234   0.240
   0.00000   0.00000   0.00000   0.00000   0.00000   0.00000   0.00000   0.00000   0.00000
Generated with MDTraj, t= 29.0
 43
    1UNL     C1    1   0.372   0.021  -0.157
    1UNL     C2    2   0.303   0.072  -0.028
    1UNL     C3    3   0.217  -0.003   0.037
    1UNL     C4    4   0.174  -0.136  -0.011
    1UNL     O1    5   0.201  -0.175  -0.123
    1UNL     N1    6   0.098  -0.211   0.077
    1UNL     C5    7   0.017  -0.324   0.020
    1UNL     C6    8  -0.127  -0.287  -0.017
    1UNL     C7    9  -0.161  -0.141   0.017
    1UNL     C8   10  -0.084  -0.073   0.113
    1UNL     N2   11  -0.095   0.062   0.103
    1UNL     C9   12  -0.212   0.078   0.022
    1UNL    C10   13  -0.272   0.191  -0.031
    1UNL    C11   14  -0.367   0.179  -0.131
    1UNL    C12   15  -0.397   0.056  -0.191
    1UNL    C13   16  -0.334  -0.056  -0.145
    1UNL    C14   17  -0.249  -0.051  -0.035
    1UNL    C15   18   0.024   0.159   0.106
    1UNL    C16   19   0.054   0.237  -0.018
    1UNL     O2   20   0.164   0.332  -0.012
    1UNL    C17   21   0.149   0.068   0.152
    1UNL    C18   22   0.114  -0.044   0.252
    1UNL    C19   23   0.026  -0.145   0.185
    1UNL     H1   24   0.394  -0.080  -0.151
    1UNL     H2   25   0.295   0.024  -0.241
    1UNL     H3   26   0.460   0.085  -0.179
    1UNL     H4   27   0.312   0.180  -0.011
    1UNL     H5   28   0.075  -0.371  -0.063
    1UNL     H6   29   0.019  -0.400   0.094
    1UNL     H7   30  -0.196  -0.359   0.030
    1UNL     H8   31  -0.123  -0.295  -0.128
    1UNL     H9   32  -0.264   0.285   0.032
    1UNL    H10   33  -0.418   0.263  -0.170
    1UNL    H11   34  -0.451   0.060  -0.282
    1UNL    H12   35  -0.358  -0.155  -0.175
    1UNL    H13   36  -0.022   0.224   0.190
    1UNL    H14   37  -0.036   0.291  -0.058
    1UNL    H15   38   0.086   0.170  -0.096
    1UNL    H16   39   0.190   0.358   0.079
    1UNL    H17   40   0.213   0.139   0.203
    1UNL    H18   41   0.068   0.005   0.342
    1UNL    H19   42   0.202  -0.087   0.297
    1UNL    H20   43  -0.023  -0.216   0.247
   0.00000   0.00000   0.00000   0.00000   0.00000   0.00000   0.00000   0.00000   0.00000
Generated with MDTraj, t= 30.0
 43
    1UNL     C1    1   0.373   0.009  -0.164
    1UNL     C2    2   0.305   0.076  -0.053
    1UNL     C3    3   0.208   0.006   0.017
    1UNL     C4    4   0.172  -0.140  -0.011
    1UNL     O1    5   0.192  -0.186  -0.121
    1UNL     N1    6   0.101  -0.215   0.083
    1UNL     C5    7   0.017  -0.331   0.040
    1UNL     C6    8  -0.111  -0.277  -0.026
    1UNL     C7    9  -0.155  -0.143   0.018
    1UNL     C8   10  -0.084  -0.076   0.113
    1UNL     N2   11  -0.112   0.059   0.113
    1UNL     C9   12  -0.211   0.080   0.015
    1UNL    C10   13  -0.269   0.202  -0.041
    1UNL    C11   14  -0.362   0.186  -0.143
    1UNL    C12   15  -0.391   0.054  -0.190
    1UNL    C13   16  -0.328  -0.051  -0.152
    1UNL    C14   17  -0.238  -0.041  -0.043
    1UNL    C15   18   0.016   0.150   0.122
    1UNL    C16   19   0.030   0.244   0.004
    1UNL     O2   20   0.148   0.322   0.006
    1UNL    C17   21   0.157   0.069   0.146
    1UNL    C18   22   0.132  -0.045   0.255
    1UNL    C19   23   0.033  -0.138   0.191
    1UNL     H1   24   0.368  -0.099  -0.149
    1UNL     H2   25   0.310   0.017  -0.260
    1UNL     H3   26   0.471   0.042  -0.180
    1UNL     H4   27   0.335   0.178  -0.048
    1UNL     H5   28   0.082  -0.390  -0.030
    1UNL     H6   29  -0.002  -0.403   0.118
    1UNL     H7   30  -0.185  -0.353   0.004
    1UNL     H8   31  -0.099  -0.275  -0.136
    1UNL     H9   32  -0.251   0.288   0.010
    1UNL    H10   33  -0.405   0.278  -0.186
    1UNL    H11   34  -0.465   0.043  -0.272
    1UNL    H12   35  -0.352  -0.148  -0.201
    1UNL    H13   36  -0.010   0.218   0.213
    1UNL    H14   37  -0.051   0.320  -0.006
    1UNL    H15   38   0.038   0.182  -0.084
    1UNL    H16   39   0.136   0.398   0.066
    1UNL    H17   40   0.227   0.144   0.177
    1UNL    H18   41   0.095   0.000   0.355
    1UNL    H19   42   0.217  -0.088   0.288
    1UNL    H20   43  -0.014  -0.203   0.259
   0.00000   0.00000   0.00000   0.00000   0.00000   0.00000   0.00000   0.00000   0.00000
Generated with MDTraj, t= 31.0
 43
    1UNL     C1    1   0.357   0.020  -0.186
    1UNL     C2    2   0.302   0.067  -0.061
    1UNL     C3    3   0.215   0.003   0.023
    1UNL     C4    4   0.174  -0.135  -0.012
    1UNL     O1    5   0.206  -0.187  -0.118
    1UNL     N1    6   0.095  -0.210   0.077
    1UNL     C5    7   0.017  -0.329   0.029
    1UNL     C6    8  -0.136  -0.290   0.000
    1UNL     C7    9  -0.166  -0.142   0.028
    1UNL     C8   10  -0.088  -0.075   0.126
    1UNL     N2   11  -0.096   0.062   0.095
    1UNL     C9   12  -0.202   0.083  -0.001
    1UNL    C10   13  -0.267   0.196  -0.048
    1UNL    C11   14  -0.359   0.179  -0.143
    1UNL    C12   15  -0.398   0.054  -0.195
    1UNL    C13   16  -0.329  -0.064  -0.156
    1UNL    C14   17  -0.234  -0.050  -0.053
    1UNL    C15   18   0.021   0.151   0.122
    1UNL    C16   19   0.047   0.250   0.009
    1UNL     O2   20   0.153   0.334   0.038
    1UNL    C17   21   0.155   0.069   0.147
    1UNL    C18   22   0.124  -0.039   0.254
    1UNL    C19   23   0.025  -0.137   0.198
    1UNL     H1   24   0.413  -0.079  -0.175
    1UNL     H2   25   0.280  -0.023  -0.256
    1UNL     H3   26   0.422   0.078  -0.240
    1UNL     H4   27   0.334   0.167  -0.032
    1UNL     H5   28   0.067  -0.354  -0.070
    1UNL     H6   29   0.042  -0.419   0.086
    1UNL     H7   30  -0.202  -0.349   0.064
    1UNL     H8   31  -0.158  -0.311  -0.106
    1UNL     H9   32  -0.238   0.302  -0.026
    1UNL    H10   33  -0.411   0.260  -0.184
    1UNL    H11   34  -0.477   0.052  -0.263
    1UNL    H12   35  -0.331  -0.151  -0.213
    1UNL    H13   36   0.014   0.218   0.216
    1UNL    H14   37  -0.044   0.314  -0.009
    1UNL    H15   38   0.081   0.198  -0.080
    1UNL    H16   39   0.120   0.415   0.085
    1UNL    H17   40   0.227   0.135   0.192
    1UNL    H18   41   0.098   0.007   0.356
    1UNL    H19   42   0.209  -0.087   0.285
    1UNL    H20   43  -0.006  -0.208   0.270
   0.00000   0.00000   0.00000   0.00000   0.00000   0.00000   0.00000   0.00000   0.00000
Generated with MDTraj, t= 32.0
 43
    1UNL     C1    1   0.350   0.043  -0.190
    1UNL     C2    2   0.279   0.072  -0.064
    1UNL     C3    3   0.205  -0.003   0.022
    1UNL     C4    4   0.172  -0.140  -0.011
    1UNL     O1    5   0.216  -0.193  -0.113
    1UNL     N1    6   0.094  -0.221   0.078
    1UNL     C5    7   0.007  -0.319   0.015
    1UNL     C6    8  -0.143  -0.292   0.000
    1UNL     C7    9  -0.172  -0.153   0.042
    1UNL     C8   10  -0.090  -0.077   0.124
    1UNL     N2   11  -0.084   0.063   0.087
    1UNL     C9   12  -0.186   0.075  -0.008
    1UNL    C10   13  -0.239   0.186  -0.070
    1UNL    C11   14  -0.343   0.165  -0.161
    1UNL    C12   15  -0.391   0.043  -0.200
    1UNL    C13   16  -0.357  -0.067  -0.129
    1UNL    C14   17  -0.249  -0.047  -0.031
    1UNL    C15   18   0.026   0.154   0.120
    1UNL    C16   19   0.052   0.276   0.023
    1UNL     O2   20   0.173   0.350   0.045
    1UNL    C17   21   0.149   0.069   0.146
    1UNL    C18   22   0.118  -0.039   0.250
    1UNL    C19   23   0.025  -0.146   0.190
    1UNL     H1   24   0.443  -0.020  -0.170
    1UNL     H2   25   0.299  -0.030  -0.248
    1UNL     H3   26   0.382   0.127  -0.249
    1UNL     H4   27   0.292   0.171  -0.023
    1UNL     H5   28   0.057  -0.331  -0.087
    1UNL     H6   29   0.033  -0.408   0.072
    1UNL     H7   30  -0.196  -0.368   0.058
    1UNL     H8   31  -0.166  -0.304  -0.108
    1UNL     H9   32  -0.193   0.284  -0.056
    1UNL    H10   33  -0.400   0.255  -0.190
    1UNL    H11   34  -0.476   0.042  -0.273
    1UNL    H12   35  -0.398  -0.166  -0.160
    1UNL    H13   36   0.005   0.204   0.222
    1UNL    H14   37  -0.036   0.346   0.040
    1UNL    H15   38   0.061   0.235  -0.079
    1UNL    H16   39   0.161   0.390   0.135
    1UNL    H17   40   0.227   0.132   0.186
    1UNL    H18   41   0.072   0.003   0.344
    1UNL    H19   42   0.209  -0.077   0.296
    1UNL    H20   43  -0.016  -0.207   0.269
   0.00000   0.00000   0.00000   0.00000   0.00000   0.00000   0.00000   0.00000   0.00000
Generated with MDTraj, t= 33.0
 43
    1UNL     C1    1   0.335   0.037  -0.202
    1UNL     C2    2   0.277   0.075  -0.074
    1UNL     C3    3   0.202  -0.001   0.015
    1UNL     C4    4   0.173  -0.141  -0.011
    1UNL     O1    5   0.209  -0.197  -0.115
    1UNL     N1    6   0.097  -0.216   0.079
    1UNL     C5    7   0.008  -0.326   0.024
    1UNL     C6    8  -0.144  -0.287   0.015
    1UNL     C7    9  -0.170  -0.144   0.045
    1UNL     C8   10  -0.081  -0.074   0.122
    1UNL     N2   11  -0.093   0.060   0.092
    1UNL     C9   12  -0.193   0.078  -0.009
    1UNL    C10   13  -0.249   0.189  -0.075
    1UNL    C11   14  -0.336   0.169  -0.177
    1UNL    C12   15  -0.382   0.045  -0.204
    1UNL    C13   16  -0.337  -0.064  -0.135
    1UNL    C14   17  -0.243  -0.054  -0.039
    1UNL    C15   18   0.022   0.148   0.130
    1UNL    C16   19   0.045   0.276   0.036
    1UNL     O2   20   0.170   0.345   0.060
    1UNL    C17   21   0.155   0.065   0.144
    1UNL    C18   22   0.128  -0.040   0.252
    1UNL    C19   23   0.029  -0.142   0.187
    1UNL     H1   24   0.406  -0.046  -0.180
    1UNL     H2   25   0.260  -0.001  -0.257
    1UNL     H3   26   0.391   0.128  -0.237
    1UNL     H4   27   0.290   0.180  -0.046
    1UNL     H5   28   0.044  -0.324  -0.085
    1UNL     H6   29   0.042  -0.423   0.066
    1UNL     H7   30  -0.200  -0.350   0.082
    1UNL     H8   31  -0.176  -0.309  -0.088
    1UNL     H9   32  -0.238   0.283  -0.038
    1UNL    H10   33  -0.373   0.255  -0.227
    1UNL    H11   34  -0.465   0.027  -0.267
    1UNL    H12   35  -0.386  -0.159  -0.143
    1UNL    H13   36  -0.019   0.189   0.227
    1UNL    H14   37  -0.038   0.354   0.042
    1UNL    H15   38   0.051   0.232  -0.066
    1UNL    H16   39   0.163   0.392   0.145
    1UNL    H17   40   0.237   0.134   0.162
    1UNL    H18   41   0.079   0.007   0.336
    1UNL    H19   42   0.220  -0.090   0.300
    1UNL    H20   43  -0.010  -0.213   0.259
   0.00000   0.00000   0.00000   0.00000   0.00000   0.00000   0.00000   0.00000   0.00000
Generated with MDTraj, t= 34.0
 43
    1UNL     C1    1   0.311   0.029  -0.213
    1UNL     C2    2   0.280   0.072  -0.077
    1UNL     C3    3   0.210  -0.004   0.014
    1UNL     C4    4   0.161  -0.144  -0.011
    1UNL     O1    5   0.186  -0.195  -0.120
    1UNL     N1    6   0.091  -0.211   0.084
    1UNL     C5    7   0.013  -0.329   0.042
    1UNL     C6    8  -0.128  -0.282   0.008
    1UNL     C7    9  -0.148  -0.138   0.034
    1UNL     C8   10  -0.083  -0.069   0.132
    1UNL     N2   11  -0.099   0.062   0.103
    1UNL     C9   12  -0.191   0.080  -0.004
    1UNL    C10   13  -0.251   0.196  -0.066
    1UNL    C11   14  -0.338   0.179  -0.168
    1UNL    C12   15  -0.369   0.052  -0.209
    1UNL    C13   16  -0.313  -0.059  -0.157
    1UNL    C14   17  -0.223  -0.046  -0.048
    1UNL    C15   18   0.025   0.142   0.132
    1UNL    C16   19   0.039   0.251   0.026
    1UNL     O2   20   0.141   0.339   0.066
    1UNL    C17   21   0.156   0.065   0.145
    1UNL    C18   22   0.136  -0.035   0.250
    1UNL    C19   23   0.032  -0.140   0.199
    1UNL     H1   24   0.327  -0.075  -0.210
    1UNL     H2   25   0.227   0.043  -0.281
    1UNL     H3   26   0.406   0.078  -0.250
    1UNL     H4   27   0.292   0.174  -0.043
    1UNL     H5   28   0.078  -0.367  -0.044
    1UNL     H6   29   0.013  -0.409   0.119
    1UNL     H7   30  -0.193  -0.336   0.078
    1UNL     H8   31  -0.159  -0.320  -0.090
    1UNL     H9   32  -0.238   0.294  -0.014
    1UNL    H10   33  -0.367   0.255  -0.241
    1UNL    H11   34  -0.428   0.029  -0.299
    1UNL    H12   35  -0.346  -0.159  -0.187
    1UNL    H13   36   0.011   0.188   0.234
    1UNL    H14   37  -0.057   0.311   0.022
    1UNL    H15   38   0.063   0.217  -0.077
    1UNL    H16   39   0.124   0.386   0.150
    1UNL    H17   40   0.239   0.129   0.178
    1UNL    H18   41   0.111   0.009   0.343
    1UNL    H19   42   0.235  -0.097   0.277
    1UNL    H20   43  -0.003  -0.217   0.271
   0.00000   0.00000   0.00000   0.00000   0.00000   0.00000   0.00000   0.00000   0.00000
Generated with MDTraj, t= 35.0
 43
    1UNL     C1    1   0.309   0.019  -0.201
    1UNL     C2    2   0.250   0.072  -0.080
    1UNL     C3    3   0.191   0.003   0.016
    1UNL     C4    4   0.159  -0.140  -0.012
    1UNL     O1    5   0.176  -0.197  -0.120
    1UNL     N1    6   0.100  -0.213   0.091
    1UNL     C5    7   0.021  -0.329   0.039
    1UNL     C6    8  -0.117  -0.288  -0.017
    1UNL     C7    9  -0.153  -0.144   0.027
    1UNL     C8   10  -0.082  -0.072   0.122
    1UNL     N2   11  -0.098   0.068   0.110
    1UNL     C9   12  -0.187   0.079   0.013
    1UNL    C10   13  -0.249   0.192  -0.052
    1UNL    C11   14  -0.330   0.175  -0.159
    1UNL    C12   15  -0.361   0.046  -0.214
    1UNL    C13   16  -0.307  -0.066  -0.160
    1UNL    C14   17  -0.226  -0.049  -0.045
    1UNL    C15   18   0.025   0.154   0.133
    1UNL    C16   19   0.036   0.273   0.035
    1UNL     O2   20   0.164   0.333   0.044
    1UNL    C17   21   0.155   0.070   0.147
    1UNL    C18   22   0.128  -0.032   0.252
    1UNL    C19   23   0.025  -0.142   0.198
    1UNL     H1   24   0.368  -0.063  -0.183
    1UNL     H2   25   0.233  -0.017  -0.284
    1UNL     H3   26   0.378   0.091  -0.248
    1UNL     H4   27   0.259   0.177  -0.060
    1UNL     H5   28   0.081  -0.400  -0.025
    1UNL     H6   29  -0.000  -0.376   0.139
    1UNL     H7   30  -0.192  -0.366   0.004
    1UNL     H8   31  -0.118  -0.293  -0.125
    1UNL     H9   32  -0.229   0.295  -0.025
    1UNL    H10   33  -0.372   0.255  -0.217
    1UNL    H11   34  -0.420   0.052  -0.302
    1UNL    H12   35  -0.325  -0.167  -0.198
    1UNL    H13   36   0.013   0.194   0.235
    1UNL    H14   37  -0.043   0.355   0.044
    1UNL    H15   38   0.021   0.229  -0.065
    1UNL    H16   39   0.176   0.362   0.139
    1UNL    H17   40   0.244   0.131   0.175
    1UNL    H18   41   0.103   0.001   0.350
    1UNL    H19   42   0.232  -0.084   0.268
    1UNL    H20   43  -0.027  -0.206   0.274
   0.00000   0.00000   0.00000   0.00000   0.00000   0.00000   0.00000   0.00000   0.00000
Generated with MDTraj, t= 36.0
 43
    1UNL     C1    1   0.310   0.043  -0.207
    1UNL     C2    2   0.268   0.082  -0.068
    1UNL     C3    3   0.205   0.002   0.016
    1UNL     C4    4   0.170  -0.145  -0.008
    1UNL     O1    5   0.205  -0.206  -0.109
    1UNL     N1    6   0.091  -0.219   0.086
    1UNL     C5    7   0.009  -0.334   0.035
    1UNL     C6    8  -0.136  -0.294  -0.001
    1UNL     C7    9  -0.166  -0.150   0.033
    1UNL     C8   10  -0.088  -0.079   0.120
    1UNL     N2   11  -0.091   0.061   0.093
    1UNL     C9   12  -0.194   0.076   0.007
    1UNL    C10   13  -0.250   0.190  -0.047
    1UNL    C11   14  -0.329   0.181  -0.156
    1UNL    C12   15  -0.363   0.051  -0.213
    1UNL    C13   16  -0.322  -0.067  -0.154
    1UNL    C14   17  -0.238  -0.051  -0.039
    1UNL    C15   18   0.027   0.156   0.125
    1UNL    C16   19   0.051   0.270   0.019
    1UNL     O2   20   0.164   0.356   0.040
    1UNL    C17   21   0.154   0.064   0.153
    1UNL    C18   22   0.125  -0.043   0.257
    1UNL    C19   23   0.028  -0.143   0.188
    1UNL     H1   24   0.414   0.010  -0.207
    1UNL     H2   25   0.243  -0.045  -0.244
    1UNL     H3   26   0.304   0.134  -0.267
    1UNL     H4   27   0.286   0.186  -0.042
    1UNL     H5   28   0.064  -0.369  -0.056
    1UNL     H6   29   0.011  -0.418   0.110
    1UNL     H7   30  -0.212  -0.354   0.051
    1UNL     H8   31  -0.167  -0.324  -0.101
    1UNL     H9   32  -0.226   0.290  -0.026
    1UNL    H10   33  -0.381   0.271  -0.193
    1UNL    H11   34  -0.441   0.045  -0.289
    1UNL    H12   35  -0.342  -0.160  -0.201
    1UNL    H13   36  -0.010   0.208   0.213
    1UNL    H14   37  -0.043   0.332   0.019
    1UNL    H15   38   0.055   0.236  -0.084
    1UNL    H16   39   0.178   0.371   0.136
    1UNL    H17   40   0.218   0.148   0.190
    1UNL    H18   41   0.070   0.007   0.339
    1UNL    H19   42   0.213  -0.093   0.302
    1UNL    H20   43  -0.011  -0.220   0.261
   0.00000   0.00000   0.00000   0.00000   0.00000   0.00000   0.00000   0.00000   0.00000
Generated with MDTraj, t= 37.0
 43
    1UNL     C1    1   0.332   0.021  -0.198
    1UNL     C2    2   0.288   0.074  -0.068
    1UNL     C3    3   0.210   0.008   0.014
    1UNL     C4    4   0.179  -0.137  -0.007
    1UNL     O1    5   0.238  -0.193  -0.097
    1UNL     N1    6   0.085  -0.209   0.073
    1UNL     C5    7   0.011  -0.329   0.019
    1UNL     C6    8  -0.141  -0.286   0.007
    1UNL     C7    9  -0.163  -0.144   0.034
    1UNL     C8   10  -0.095  -0.071   0.127
    1UNL     N2   11  -0.097   0.062   0.091
    1UNL     C9   12  -0.195   0.080  -0.008
    1UNL    C10   13  -0.250   0.194  -0.067
    1UNL    C11   14  -0.349   0.175  -0.166
    1UNL    C12   15  -0.397   0.052  -0.203
    1UNL    C13   16  -0.340  -0.062  -0.141
    1UNL    C14   17  -0.239  -0.048  -0.042
    1UNL    C15   18   0.022   0.151   0.130
    1UNL    C16   19   0.039   0.263   0.034
    1UNL     O2   20   0.158   0.332   0.049
    1UNL    C17   21   0.161   0.064   0.142
    1UNL    C18   22   0.135  -0.044   0.250
    1UNL    C19   23   0.028  -0.135   0.189
    1UNL     H1   24   0.427  -0.049  -0.188
    1UNL     H2   25   0.255  -0.045  -0.238
    1UNL     H3   26   0.361   0.101  -0.266
    1UNL     H4   27   0.308   0.179  -0.062
    1UNL     H5   28   0.043  -0.344  -0.086
    1UNL     H6   29   0.027  -0.423   0.080
    1UNL     H7   30  -0.209  -0.348   0.067
    1UNL     H8   31  -0.188  -0.304  -0.089
    1UNL     H9   32  -0.216   0.297  -0.045
    1UNL    H10   33  -0.396   0.259  -0.212
    1UNL    H11   34  -0.486   0.036  -0.259
    1UNL    H12   35  -0.373  -0.166  -0.162
    1UNL    H13   36  -0.008   0.184   0.226
    1UNL    H14   37  -0.042   0.342   0.028
    1UNL    H15   38   0.032   0.223  -0.066
    1UNL    H16   39   0.186   0.351   0.140
    1UNL    H17   40   0.238   0.132   0.187
    1UNL    H18   41   0.099  -0.011   0.351
    1UNL    H19   42   0.217  -0.102   0.270
    1UNL    H20   43   0.006  -0.223   0.258
   0.00000   0.00000   0.00000   0.00000   0.00000   0.00000   0.00000   0.00000   0.00000
Generated with MDTraj, t= 38.0
 43
    1UNL     C1    1   0.362   0.026  -0.183
    1UNL     C2    2   0.281   0.071  -0.061
    1UNL     C3    3   0.199   0.002   0.015
    1UNL     C4    4   0.174  -0.143  -0.010
    1UNL     O1    5   0.228  -0.191  -0.107
    1UNL     N1    6   0.093  -0.213   0.079
    1UNL     C5    7   0.016  -0.323   0.031
    1UNL     C6    8  -0.134  -0.289  -0.006
    1UNL     C7    9  -0.160  -0.145   0.020
    1UNL     C8   10  -0.083  -0.069   0.114
    1UNL     N2   11  -0.092   0.071   0.095
    1UNL     C9   12  -0.194   0.085  -0.005
    1UNL    C10   13  -0.255   0.196  -0.064
    1UNL    C11   14  -0.363   0.176  -0.159
    1UNL    C12   15  -0.410   0.047  -0.189
    1UNL    C13   16  -0.350  -0.062  -0.133
    1UNL    C14   17  -0.243  -0.048  -0.045
    1UNL    C15   18   0.023   0.155   0.119
    1UNL    C16   19   0.053   0.251   0.014
    1UNL     O2   20   0.159   0.339   0.051
    1UNL    C17   21   0.146   0.064   0.145
    1UNL    C18   22   0.132  -0.046   0.246
    1UNL    C19   23   0.030  -0.142   0.192
    1UNL     H1   24   0.355  -0.086  -0.216
    1UNL     H2   25   0.344   0.072  -0.274
    1UNL     H3   26   0.474   0.038  -0.172
    1UNL     H4   27   0.290   0.178  -0.044
    1UNL     H5   28   0.065  -0.369  -0.055
    1UNL     H6   29   0.007  -0.399   0.115
    1UNL     H7   30  -0.214  -0.348   0.042
    1UNL     H8   31  -0.153  -0.315  -0.108
    1UNL     H9   32  -0.232   0.294  -0.031
    1UNL    H10   33  -0.394   0.264  -0.215
    1UNL    H11   34  -0.491   0.028  -0.259
    1UNL    H12   35  -0.394  -0.157  -0.137
    1UNL    H13   36  -0.002   0.207   0.208
    1UNL    H14   37  -0.042   0.307  -0.004
    1UNL    H15   38   0.068   0.211  -0.084
    1UNL    H16   39   0.147   0.376   0.141
    1UNL    H17   40   0.224   0.130   0.194
    1UNL    H18   41   0.097  -0.019   0.349
    1UNL    H19   42   0.216  -0.101   0.257
    1UNL    H20   43  -0.014  -0.208   0.275
   0.00000   0.00000   0.00000   0.00000   0.00000   0.00000   0.00000   0.00000   0.00000
Generated with MDTraj, t= 39.0
 43
    1UNL     C1    1   0.359   0.012  -0.169
    1UNL     C2    2   0.309   0.062  -0.042
    1UNL     C3    3   0.211   0.005   0.028
    1UNL     C4    4   0.169  -0.134  -0.008
    1UNL     O1    5   0.190  -0.174  -0.120
    1UNL     N1    6   0.100  -0.218   0.079
    1UNL     C5    7   0.023  -0.334   0.026
    1UNL     C6    8  -0.125  -0.290  -0.011
    1UNL     C7    9  -0.157  -0.148   0.020
    1UNL     C8   10  -0.077  -0.077   0.103
    1UNL     N2   11  -0.090   0.064   0.096
    1UNL     C9   12  -0.203   0.075   0.005
    1UNL    C10   13  -0.276   0.192  -0.033
    1UNL    C11   14  -0.366   0.181  -0.136
    1UNL    C12   15  -0.394   0.050  -0.193
    1UNL    C13   16  -0.335  -0.062  -0.148
    1UNL    C14   17  -0.239  -0.051  -0.041
    1UNL    C15   18   0.022   0.159   0.113
    1UNL    C16   19   0.057   0.253  -0.004
    1UNL     O2   20   0.157   0.359   0.015
    1UNL    C17   21   0.150   0.070   0.151
    1UNL    C18   22   0.114  -0.041   0.253
    1UNL    C19   23   0.026  -0.146   0.187
    1UNL     H1   24   0.282  -0.007  -0.241
    1UNL     H2   25   0.433   0.080  -0.208
    1UNL     H3   26   0.409  -0.092  -0.151
    1UNL     H4   27   0.339   0.163  -0.022
    1UNL     H5   28   0.061  -0.386  -0.061
    1UNL     H6   29   0.010  -0.407   0.112
    1UNL     H7   30  -0.201  -0.351   0.040
    1UNL     H8   31  -0.153  -0.310  -0.114
    1UNL     H9   32  -0.254   0.284   0.019
    1UNL    H10   33  -0.401   0.270  -0.181
    1UNL    H11   34  -0.453   0.041  -0.280
    1UNL    H12   35  -0.361  -0.165  -0.173
    1UNL    H13   36  -0.002   0.227   0.191
    1UNL    H14   37  -0.036   0.298  -0.046
    1UNL    H15   38   0.078   0.187  -0.084
    1UNL    H16   39   0.160   0.381   0.112
    1UNL    H17   40   0.227   0.141   0.193
    1UNL    H18   41   0.064  -0.003   0.343
    1UNL    H19   42   0.198  -0.103   0.289
    1UNL    H20   43  -0.017  -0.215   0.269
   0.00000   0.00000   0.00000   0.00000   0.00000   0.00000   0.00000   0.00000   0.00000
Generated with MDTraj, t= 40.0
 43
    1UNL     C1    1   0.394   0.017  -0.152
    1UNL     C2    2   0.323   0.069  -0.036
    1UNL     C3    3   0.213   0.010   0.021
    1UNL     C4    4   0.163  -0.126  -0.020
    1UNL     O1    5   0.186  -0.169  -0.131
    1UNL     N1    6   0.088  -0.206   0.070
    1UNL     C5    7   0.016  -0.327   0.030
    1UNL     C6    8  -0.119  -0.283  -0.020
    1UNL     C7    9  -0.165  -0.147   0.027
    1UNL     C8   10  -0.091  -0.080   0.125
    1UNL     N2   11  -0.108   0.060   0.107
    1UNL     C9   12  -0.212   0.076   0.017
    1UNL    C10   13  -0.268   0.191  -0.030
    1UNL    C11   14  -0.355   0.182  -0.132
    1UNL    C12   15  -0.388   0.051  -0.192
    1UNL    C13   16  -0.329  -0.064  -0.146
    1UNL    C14   17  -0.243  -0.053  -0.034
    1UNL    C15   18   0.015   0.150   0.119
    1UNL    C16   19   0.033   0.244  -0.006
    1UNL     O2   20   0.154   0.317  -0.013
    1UNL    C17   21   0.152   0.074   0.143
    1UNL    C18   22   0.128  -0.034   0.248
    1UNL    C19   23   0.028  -0.139   0.183
    1UNL     H1   24   0.378   0.070  -0.237
    1UNL     H2   25   0.502   0.009  -0.118
    1UNL     H3   26   0.346  -0.083  -0.169
    1UNL     H4   27   0.349   0.168   0.002
    1UNL     H5   28   0.067  -0.376  -0.049
    1UNL     H6   29   0.002  -0.401   0.114
    1UNL     H7   30  -0.194  -0.356   0.013
    1UNL     H8   31  -0.139  -0.287  -0.125
    1UNL     H9   32  -0.229   0.284   0.006
    1UNL    H10   33  -0.405   0.267  -0.180
    1UNL    H11   34  -0.469   0.053  -0.269
    1UNL    H12   35  -0.339  -0.159  -0.199
    1UNL    H13   36   0.006   0.215   0.204
    1UNL    H14   37  -0.053   0.314  -0.008
    1UNL    H15   38   0.032   0.187  -0.092
    1UNL    H16   39   0.169   0.352   0.078
    1UNL    H17   40   0.236   0.140   0.182
    1UNL    H18   41   0.080  -0.001   0.338
    1UNL    H19   42   0.225  -0.091   0.288
    1UNL    H20   43   0.018  -0.216   0.267
   0.00000   0.00000   0.00000   0.00000   0.00000   0.00000   0.00000   0.00000   0.00000
Generated with MDTraj, t= 41.0
 43
    1UNL     C1    1   0.394   0.018  -0.146
    1UNL     C2    2   0.315   0.076  -0.036
    1UNL     C3    3   0.218   0.010   0.030
    1UNL     C4    4   0.171  -0.118  -0.022
    1UNL     O1    5   0.206  -0.164  -0.130
    1UNL     N1    6   0.091  -0.192   0.065
    1UNL     C5    7   0.019  -0.312   0.008
    1UNL     C6    8  -0.140  -0.289  -0.003
    1UNL     C7    9  -0.164  -0.141   0.031
    1UNL     C8   10  -0.094  -0.075   0.129
    1UNL     N2   11  -0.104   0.062   0.111
    1UNL     C9   12  -0.203   0.073   0.010
    1UNL    C10   13  -0.260   0.191  -0.045
    1UNL    C11   14  -0.363   0.179  -0.135
    1UNL    C12   15  -0.410   0.051  -0.182
    1UNL    C13   16  -0.342  -0.063  -0.145
    1UNL    C14   17  -0.241  -0.046  -0.042
    1UNL    C15   18   0.020   0.144   0.115
    1UNL    C16   19   0.044   0.217  -0.022
    1UNL     O2   20   0.150   0.305  -0.006
    1UNL    C17   21   0.148   0.072   0.155
    1UNL    C18   22   0.128  -0.038   0.254
    1UNL    C19   23   0.031  -0.143   0.185
    1UNL     H1   24   0.473   0.075  -0.189
    1UNL     H2   25   0.448  -0.073  -0.099
    1UNL     H3   26   0.332  -0.006  -0.226
    1UNL     H4   27   0.333   0.167   0.016
    1UNL     H5   28   0.054  -0.329  -0.091
    1UNL     H6   29   0.039  -0.401   0.069
    1UNL     H7   30  -0.210  -0.357   0.048
    1UNL     H8   31  -0.154  -0.308  -0.107
    1UNL     H9   32  -0.225   0.290  -0.016
    1UNL    H10   33  -0.408   0.274  -0.158
    1UNL    H11   34  -0.507   0.053  -0.222
    1UNL    H12   35  -0.368  -0.159  -0.181
    1UNL    H13   36  -0.000   0.214   0.195
    1UNL    H14   37  -0.037   0.277  -0.065
    1UNL    H15   38   0.073   0.142  -0.089
    1UNL    H16   39   0.122   0.380   0.051
    1UNL    H17   40   0.221   0.141   0.203
    1UNL    H18   41   0.081  -0.006   0.344
    1UNL    H19   42   0.230  -0.091   0.290
    1UNL    H20   43   0.002  -0.220   0.263
   0.00000   0.00000   0.00000   0.00000   0.00000   0.00000   0.00000   0.00000   0.00000
Generated with MDTraj, t= 42.0
 43
    1UNL     C1    1   0.405   0.032  -0.140
    1UNL     C2    2   0.331   0.067  -0.021
    1UNL     C3    3   0.225  -0.001   0.035
    1UNL     C4    4   0.183  -0.137  -0.014
    1UNL     O1    5   0.215  -0.180  -0.126
    1UNL     N1    6   0.097  -0.211   0.072
    1UNL     C5    7   0.014  -0.321   0.005
    1UNL     C6    8  -0.139  -0.297  -0.005
    1UNL     C7    9  -0.165  -0.144   0.026
    1UNL     C8   10  -0.087  -0.074   0.112
    1UNL     N2   11  -0.097   0.061   0.089
    1UNL     C9   12  -0.207   0.080   0.005
    1UNL    C10   13  -0.273   0.192  -0.039
    1UNL    C11   14  -0.375   0.174  -0.134
    1UNL    C12   15  -0.426   0.050  -0.176
    1UNL    C13   16  -0.365  -0.065  -0.122
    1UNL    C14   17  -0.257  -0.054  -0.034
    1UNL    C15   18   0.026   0.159   0.108
    1UNL    C16   19   0.059   0.239  -0.022
    1UNL     O2   20   0.160   0.341  -0.005
    1UNL    C17   21   0.148   0.073   0.145
    1UNL    C18   22   0.110  -0.035   0.248
    1UNL    C19   23   0.028  -0.146   0.176
    1UNL     H1   24   0.518   0.032  -0.139
    1UNL     H2   25   0.385  -0.076  -0.154
    1UNL     H3   26   0.375   0.091  -0.217
    1UNL     H4   27   0.363   0.160   0.030
    1UNL     H5   28   0.051  -0.326  -0.095
    1UNL     H6   29   0.033  -0.420   0.046
    1UNL     H7   30  -0.185  -0.370   0.061
    1UNL     H8   31  -0.181  -0.313  -0.102
    1UNL     H9   32  -0.240   0.288  -0.003
    1UNL    H10   33  -0.417   0.260  -0.182
    1UNL    H11   34  -0.506   0.031  -0.246
    1UNL    H12   35  -0.416  -0.159  -0.146
    1UNL    H13   36  -0.017   0.223   0.188
    1UNL    H14   37  -0.032   0.292  -0.053
    1UNL    H15   38   0.099   0.181  -0.099
    1UNL    H16   39   0.137   0.412   0.060
    1UNL    H17   40   0.223   0.145   0.185
    1UNL    H18   41   0.051   0.005   0.330
    1UNL    H19   42   0.207  -0.082   0.288
    1UNL    H20   43  -0.010  -0.219   0.251
   0.00000   0.00000   0.00000   0.00000   0.00000   0.00000   0.00000   0.00000   0.00000
Generated with MDTraj, t= 43.0
 43
    1UNL     C1    1   0.418   0.011  -0.135
    1UNL     C2    2   0.321   0.067  -0.041
    1UNL     C3    3   0.217   0.000   0.018
    1UNL     C4    4   0.183  -0.137  -0.011
    1UNL     O1    5   0.219  -0.188  -0.115
    1UNL     N1    6   0.099  -0.213   0.073
    1UNL     C5    7   0.021  -0.327   0.009
    1UNL     C6    8  -0.125  -0.285  -0.020
    1UNL     C7    9  -0.165  -0.145   0.025
    1UNL     C8   10  -0.084  -0.070   0.105
    1UNL     N2   11  -0.099   0.060   0.085
    1UNL     C9   12  -0.210   0.072   0.001
    1UNL    C10   13  -0.281   0.191  -0.044
    1UNL    C11   14  -0.385   0.174  -0.133
    1UNL    C12   15  -0.425   0.051  -0.169
    1UNL    C13   16  -0.367  -0.066  -0.118
    1UNL    C14   17  -0.257  -0.050  -0.035
    1UNL    C15   18   0.024   0.159   0.108
    1UNL    C16   19   0.040   0.264  -0.006
    1UNL     O2   20   0.167   0.336   0.006
    1UNL    C17   21   0.152   0.075   0.136
    1UNL    C18   22   0.116  -0.031   0.250
    1UNL    C19   23   0.026  -0.139   0.183
    1UNL     H1   24   0.499  -0.057  -0.094
    1UNL     H2   25   0.364  -0.059  -0.189
    1UNL     H3   26   0.462   0.093  -0.194
    1UNL     H4   27   0.348   0.163  -0.006
    1UNL     H5   28   0.072  -0.352  -0.084
    1UNL     H6   29   0.033  -0.421   0.059
    1UNL     H7   30  -0.192  -0.344   0.041
    1UNL     H8   31  -0.148  -0.311  -0.122
    1UNL     H9   32  -0.257   0.289  -0.006
    1UNL    H10   33  -0.422   0.265  -0.186
    1UNL    H11   34  -0.503   0.044  -0.249
    1UNL    H12   35  -0.408  -0.164  -0.140
    1UNL    H13   36  -0.010   0.207   0.204
    1UNL    H14   37  -0.037   0.344  -0.010
    1UNL    H15   38   0.046   0.205  -0.094
    1UNL    H16   39   0.165   0.392   0.088
    1UNL    H17   40   0.220   0.148   0.179
    1UNL    H18   41   0.056   0.021   0.330
    1UNL    H19   42   0.198  -0.081   0.294
    1UNL    H20   43  -0.008  -0.220   0.249
   0.00000   0.00000   0.00000   0.00000   0.00000   0.00000   0.00000   0.00000   0.00000
Generated with MDTraj, t= 44.0
 43
    1UNL     C1    1   0.402   0.016  -0.164
    1UNL     C2    2   0.309   0.068  -0.050
    1UNL     C3    3   0.219   0.005   0.026
    1UNL     C4    4   0.175  -0.130  -0.011
    1UNL     O1    5   0.202  -0.182  -0.118
    1UNL     N1    6   0.091  -0.202   0.078
    1UNL     C5    7   0.022  -0.312   0.015
    1UNL     C6    8  -0.124  -0.284  -0.008
    1UNL     C7    9  -0.164  -0.143   0.027
    1UNL     C8   10  -0.092  -0.075   0.122
    1UNL     N2   11  -0.103   0.063   0.094
    1UNL     C9   12  -0.200   0.083  -0.000
    1UNL    C10   13  -0.276   0.194  -0.045
    1UNL    C11   14  -0.380   0.178  -0.129
    1UNL    C12   15  -0.410   0.047  -0.174
    1UNL    C13   16  -0.338  -0.065  -0.145
    1UNL    C14   17  -0.236  -0.046  -0.054
    1UNL    C15   18   0.020   0.143   0.111
    1UNL    C16   19   0.046   0.230  -0.014
    1UNL     O2   20   0.148   0.325   0.017
    1UNL    C17   21   0.156   0.069   0.145
    1UNL    C18   22   0.128  -0.037   0.256
    1UNL    C19   23   0.026  -0.134   0.198
    1UNL     H1   24   0.398  -0.093  -0.182
    1UNL     H2   25   0.360   0.036  -0.256
    1UNL     H3   26   0.513   0.051  -0.164
    1UNL     H4   27   0.333   0.173  -0.029
    1UNL     H5   28   0.080  -0.354  -0.068
    1UNL     H6   29   0.026  -0.385   0.091
    1UNL     H7   30  -0.178  -0.348   0.060
    1UNL     H8   31  -0.157  -0.292  -0.110
    1UNL     H9   32  -0.256   0.296  -0.015
    1UNL    H10   33  -0.440   0.257  -0.158
    1UNL    H11   34  -0.495   0.036  -0.234
    1UNL    H12   35  -0.372  -0.159  -0.184
    1UNL    H13   36   0.002   0.214   0.197
    1UNL    H14   37  -0.049   0.287  -0.037
    1UNL    H15   38   0.088   0.175  -0.097
    1UNL    H16   39   0.113   0.397   0.073
    1UNL    H17   40   0.222   0.142   0.189
    1UNL    H18   41   0.073   0.003   0.348
    1UNL    H19   42   0.215  -0.081   0.276
    1UNL    H20   43  -0.019  -0.199   0.270
   0.00000   0.00000   0.00000   0.00000   0.00000   0.00000   0.00000   0.00000   0.00000
Generated with MDTraj, t= 45.0
 43
    1UNL     C1    1   0.361   0.036  -0.174
    1UNL     C2    2   0.300   0.078  -0.047
    1UNL     C3    3   0.220   0.005   0.026
    1UNL     C4    4   0.169  -0.131  -0.008
    1UNL     O1    5   0.186  -0.178  -0.118
    1UNL     N1    6   0.097  -0.209   0.080
    1UNL     C5    7   0.025  -0.328   0.027
    1UNL     C6    8  -0.123  -0.292  -0.008
    1UNL     C7    9  -0.167  -0.152   0.039
    1UNL     C8   10  -0.093  -0.080   0.129
    1UNL     N2   11  -0.092   0.058   0.102
    1UNL     C9   12  -0.201   0.076   0.012
    1UNL    C10   13  -0.258   0.192  -0.044
    1UNL    C11   14  -0.344   0.178  -0.142
    1UNL    C12   15  -0.380   0.055  -0.200
    1UNL    C13   16  -0.335  -0.060  -0.143
    1UNL    C14   17  -0.245  -0.051  -0.034
    1UNL    C15   18   0.025   0.150   0.117
    1UNL    C16   19   0.036   0.243  -0.004
    1UNL     O2   20   0.145   0.325  -0.008
    1UNL    C17   21   0.155   0.073   0.144
    1UNL    C18   22   0.119  -0.042   0.251
    1UNL    C19   23   0.025  -0.144   0.192
    1UNL     H1   24   0.285   0.012  -0.243
    1UNL     H2   25   0.408   0.119  -0.228
    1UNL     H3   26   0.449  -0.041  -0.177
    1UNL     H4   27   0.325   0.176  -0.015
    1UNL     H5   28   0.081  -0.371  -0.056
    1UNL     H6   29   0.035  -0.400   0.101
    1UNL     H7   30  -0.195  -0.356   0.040
    1UNL     H8   31  -0.133  -0.293  -0.116
    1UNL     H9   32  -0.239   0.293  -0.010
    1UNL    H10   33  -0.406   0.261  -0.189
    1UNL    H11   34  -0.454   0.055  -0.285
    1UNL    H12   35  -0.361  -0.157  -0.178
    1UNL    H13   36   0.012   0.220   0.206
    1UNL    H14   37  -0.051   0.314  -0.000
    1UNL    H15   38   0.037   0.176  -0.091
    1UNL    H16   39   0.140   0.383   0.070
    1UNL    H17   40   0.218   0.149   0.189
    1UNL    H18   41   0.078  -0.001   0.347
    1UNL    H19   42   0.201  -0.108   0.265
    1UNL    H20   43  -0.006  -0.219   0.260
   0.00000   0.00000   0.00000   0.00000   0.00000   0.00000   0.00000   0.00000   0.00000
Generated with MDTraj, t= 46.0
 43
    1UNL     C1    1   0.351   0.030  -0.191
    1UNL     C2    2   0.289   0.076  -0.056
    1UNL     C3    3   0.207   0.005   0.018
    1UNL     C4    4   0.167  -0.140  -0.014
    1UNL     O1    5   0.180  -0.188  -0.125
    1UNL     N1    6   0.099  -0.213   0.086
    1UNL     C5    7   0.021  -0.330   0.034
    1UNL     C6    8  -0.129  -0.291  -0.004
    1UNL     C7    9  -0.159  -0.149   0.035
    1UNL     C8   10  -0.086  -0.072   0.127
    1UNL     N2   11  -0.098   0.064   0.101
    1UNL     C9   12  -0.210   0.074   0.014
    1UNL    C10   13  -0.273   0.188  -0.045
    1UNL    C11   14  -0.353   0.168  -0.153
    1UNL    C12   15  -0.367   0.045  -0.207
    1UNL    C13   16  -0.322  -0.065  -0.150
    1UNL    C14   17  -0.243  -0.054  -0.034
    1UNL    C15   18   0.020   0.158   0.123
    1UNL    C16   19   0.046   0.267   0.015
    1UNL     O2   20   0.167   0.339   0.015
    1UNL    C17   21   0.150   0.069   0.143
    1UNL    C18   22   0.127  -0.043   0.256
    1UNL    C19   23   0.029  -0.136   0.192
    1UNL     H1   24   0.277   0.062  -0.261
    1UNL     H2   25   0.452   0.086  -0.207
    1UNL     H3   26   0.375  -0.080  -0.194
    1UNL     H4   27   0.314   0.179  -0.028
    1UNL     H5   28   0.079  -0.347  -0.057
    1UNL     H6   29   0.029  -0.414   0.093
    1UNL     H7   30  -0.193  -0.359   0.048
    1UNL     H8   31  -0.138  -0.291  -0.113
    1UNL     H9   32  -0.255   0.282   0.009
    1UNL    H10   33  -0.395   0.251  -0.200
    1UNL    H11   34  -0.420   0.030  -0.297
    1UNL    H12   35  -0.338  -0.165  -0.188
    1UNL    H13   36  -0.003   0.200   0.226
    1UNL    H14   37  -0.041   0.338   0.029
    1UNL    H15   38   0.043   0.222  -0.087
    1UNL    H16   39   0.180   0.385   0.102
    1UNL    H17   40   0.229   0.136   0.175
    1UNL    H18   41   0.079  -0.004   0.346
    1UNL    H19   42   0.221  -0.098   0.287
    1UNL    H20   43   0.006  -0.209   0.266
   0.00000   0.00000   0.00000   0.00000   0.00000   0.00000   0.00000   0.00000   0.00000
Generated with MDTraj, t= 47.0
 43
    1UNL     C1    1   0.339   0.001  -0.199
    1UNL     C2    2   0.275   0.070  -0.068
    1UNL     C3    3   0.196   0.003   0.013
    1UNL     C4    4   0.166  -0.142  -0.013
    1UNL     O1    5   0.193  -0.190  -0.122
    1UNL     N1    6   0.101  -0.211   0.088
    1UNL     C5    7   0.023  -0.327   0.031
    1UNL     C6    8  -0.124  -0.292   0.007
    1UNL     C7    9  -0.151  -0.146   0.028
    1UNL     C8   10  -0.082  -0.070   0.122
    1UNL     N2   11  -0.092   0.064   0.093
    1UNL     C9   12  -0.192   0.080  -0.014
    1UNL    C10   13  -0.252   0.189  -0.072
    1UNL    C11   14  -0.352   0.173  -0.165
    1UNL    C12   15  -0.401   0.047  -0.188
    1UNL    C13   16  -0.334  -0.062  -0.144
    1UNL    C14   17  -0.228  -0.055  -0.055
    1UNL    C15   18   0.023   0.152   0.125
    1UNL    C16   19   0.049   0.263   0.022
    1UNL     O2   20   0.142   0.354   0.068
    1UNL    C17   21   0.157   0.070   0.145
    1UNL    C18   22   0.138  -0.036   0.259
    1UNL    C19   23   0.034  -0.133   0.197
    1UNL     H1   24   0.248  -0.004  -0.264
    1UNL     H2   25   0.421   0.077  -0.235
    1UNL     H3   26   0.386  -0.094  -0.177
    1UNL     H4   27   0.302   0.169  -0.039
    1UNL     H5   28   0.072  -0.359  -0.060
    1UNL     H6   29   0.038  -0.405   0.097
    1UNL     H7   30  -0.186  -0.350   0.073
    1UNL     H8   31  -0.139  -0.315  -0.098
    1UNL     H9   32  -0.229   0.286  -0.040
    1UNL    H10   33  -0.388   0.263  -0.218
    1UNL    H11   34  -0.485   0.038  -0.256
    1UNL    H12   35  -0.373  -0.158  -0.170
    1UNL    H13   36  -0.003   0.190   0.228
    1UNL    H14   37  -0.034   0.326  -0.021
    1UNL    H15   38   0.090   0.210  -0.069
    1UNL    H16   39   0.111   0.413   0.143
    1UNL    H17   40   0.241   0.137   0.162
    1UNL    H18   41   0.099   0.009   0.347
    1UNL    H19   42   0.242  -0.087   0.293
    1UNL    H20   43  -0.004  -0.189   0.278
   0.00000   0.00000   0.00000   0.00000   0.00000   0.00000   0.00000   0.00000   0.00000
Generated with MDTraj, t= 48.0
 43
    1UNL     C1    1   0.339   0.026  -0.203
    1UNL     C2    2   0.281   0.073  -0.073
    1UNL     C3    3   0.205   0.002   0.005
    1UNL     C4    4   0.173  -0.144  -0.015
    1UNL     O1    5   0.216  -0.207  -0.108
    1UNL     N1    6   0.094  -0.208   0.079
    1UNL     C5    7   0.010  -0.329   0.042
    1UNL     C6    8  -0.134  -0.287   0.005
    1UNL     C7    9  -0.165  -0.139   0.037
    1UNL     C8   10  -0.088  -0.071   0.127
    1UNL     N2   11  -0.094   0.067   0.093
    1UNL     C9   12  -0.194   0.078  -0.014
    1UNL    C10   13  -0.251   0.187  -0.085
    1UNL    C11   14  -0.357   0.163  -0.173
    1UNL    C12   15  -0.399   0.037  -0.203
    1UNL    C13   16  -0.349  -0.074  -0.138
    1UNL    C14   17  -0.240  -0.047  -0.041
    1UNL    C15   18   0.028   0.154   0.129
    1UNL    C16   19   0.048   0.272   0.037
    1UNL     O2   20   0.160   0.350   0.083
    1UNL    C17   21   0.158   0.074   0.132
    1UNL    C18   22   0.139  -0.035   0.242
    1UNL    C19   23   0.035  -0.136   0.192
    1UNL     H1   24   0.259  -0.048  -0.252
    1UNL     H2   25   0.353   0.120  -0.268
    1UNL     H3   26   0.438  -0.015  -0.198
    1UNL     H4   27   0.313   0.169  -0.031
    1UNL     H5   28   0.069  -0.384  -0.028
    1UNL     H6   29   0.011  -0.392   0.125
    1UNL     H7   30  -0.197  -0.341   0.073
    1UNL     H8   31  -0.163  -0.315  -0.096
    1UNL     H9   32  -0.219   0.292  -0.067
    1UNL    H10   33  -0.405   0.253  -0.217
    1UNL    H11   34  -0.474   0.026  -0.283
    1UNL    H12   35  -0.380  -0.173  -0.168
    1UNL    H13   36   0.021   0.187   0.234
    1UNL    H14   37  -0.051   0.329   0.037
    1UNL    H15   38   0.063   0.253  -0.075
    1UNL    H16   39   0.148   0.372   0.178
    1UNL    H17   40   0.242   0.141   0.151
    1UNL    H18   41   0.121   0.015   0.336
    1UNL    H19   42   0.241  -0.092   0.257
    1UNL    H20   43   0.010  -0.204   0.271
   0.00000   0.00000   0.00000   0.00000   0.00000   0.00000   0.00000   0.00000   0.00000
Generated with MDTraj, t= 49.0
 43
    1UNL     C1    1   0.318   0.040  -0.200
    1UNL     C2    2   0.263   0.080  -0.071
    1UNL     C3    3   0.201   0.006   0.021
    1UNL     C4    4   0.177  -0.143  -0.006
    1UNL     O1    5   0.212  -0.203  -0.108
    1UNL     N1    6   0.097  -0.217   0.080
    1UNL     C5    7   0.014  -0.328   0.024
    1UNL     C6    8  -0.138  -0.297   0.017
    1UNL     C7    9  -0.172  -0.149   0.043
    1UNL     C8   10  -0.081  -0.075   0.123
    1UNL     N2   11  -0.094   0.057   0.090
    1UNL     C9   12  -0.195   0.074  -0.004
    1UNL    C10   13  -0.236   0.190  -0.064
    1UNL    C11   14  -0.326   0.175  -0.167
    1UNL    C12   15  -0.377   0.044  -0.203
    1UNL    C13   16  -0.330  -0.073  -0.142
    1UNL    C14   17  -0.239  -0.058  -0.040
    1UNL    C15   18   0.019   0.158   0.130
    1UNL    C16   19   0.043   0.280   0.031
    1UNL     O2   20   0.163   0.360   0.035
    1UNL    C17   21   0.151   0.072   0.147
    1UNL    C18   22   0.124  -0.047   0.247
    1UNL    C19   23   0.029  -0.143   0.187
    1UNL     H1   24   0.250  -0.037  -0.256
    1UNL     H2   25   0.328   0.122  -0.274
    1UNL     H3   26   0.416  -0.007  -0.203
    1UNL     H4   27   0.279   0.181  -0.044
    1UNL     H5   28   0.066  -0.357  -0.065
    1UNL     H6   29   0.036  -0.406   0.091
    1UNL     H7   30  -0.186  -0.364   0.086
    1UNL     H8   31  -0.184  -0.321  -0.078
    1UNL     H9   32  -0.210   0.290  -0.034
    1UNL    H10   33  -0.371   0.259  -0.208
    1UNL    H11   34  -0.454   0.051  -0.274
    1UNL    H12   35  -0.373  -0.164  -0.179
    1UNL    H13   36   0.001   0.197   0.230
    1UNL    H14   37  -0.040   0.359   0.031
    1UNL    H15   38   0.019   0.242  -0.074
    1UNL    H16   39   0.188   0.352   0.128
    1UNL    H17   40   0.237   0.133   0.179
    1UNL    H18   41   0.087  -0.005   0.343
    1UNL    H19   42   0.221  -0.093   0.270
    1UNL    H20   43  -0.005  -0.216   0.260
   0.00000   0.00000   0.00000   0.00000   0.00000   0.00000   0.00000   0.00000   0.00000
Generated with MDTraj, t= 50.0
 43
    1UNL     C1    1   0.296   0.035  -0.207
    1UNL     C2    2   0.264   0.082  -0.068
    1UNL     C3    3   0.200   0.001   0.021
    1UNL     C4    4   0.166  -0.135  -0.005
    1UNL     O1    5   0.198  -0.184  -0.112
    1UNL     N1    6   0.090  -0.210   0.085
    1UNL     C5    7   0.021  -0.327   0.034
    1UNL     C6    8  -0.123  -0.291  -0.004
    1UNL     C7    9  -0.156  -0.145   0.036
    1UNL     C8   10  -0.092  -0.075   0.132
    1UNL     N2   11  -0.101   0.063   0.112
    1UNL     C9   12  -0.204   0.071   0.013
    1UNL    C10   13  -0.250   0.186  -0.057
    1UNL    C11   14  -0.337   0.176  -0.161
    1UNL    C12   15  -0.358   0.045  -0.212
    1UNL    C13   16  -0.311  -0.064  -0.153
    1UNL    C14   17  -0.231  -0.052  -0.037
    1UNL    C15   18   0.026   0.151   0.120
    1UNL    C16   19   0.047   0.260   0.008
    1UNL     O2   20   0.166   0.329   0.031
    1UNL    C17   21   0.153   0.068   0.147
    1UNL    C18   22   0.131  -0.044   0.258
    1UNL    C19   23   0.031  -0.138   0.199
    1UNL     H1   24   0.225   0.069  -0.279
    1UNL     H2   25   0.397   0.073  -0.237
    1UNL     H3   26   0.291  -0.079  -0.223
    1UNL     H4   27   0.292   0.185  -0.043
    1UNL     H5   28   0.076  -0.354  -0.051
    1UNL     H6   29   0.031  -0.402   0.108
    1UNL     H7   30  -0.197  -0.359   0.031
    1UNL     H8   31  -0.118  -0.307  -0.112
    1UNL     H9   32  -0.220   0.273  -0.007
    1UNL    H10   33  -0.380   0.271  -0.204
    1UNL    H11   34  -0.414   0.030  -0.309
    1UNL    H12   35  -0.326  -0.161  -0.194
    1UNL    H13   36   0.010   0.212   0.208
    1UNL    H14   37  -0.039   0.331  -0.014
    1UNL    H15   38   0.064   0.226  -0.098
    1UNL    H16   39   0.173   0.364   0.124
    1UNL    H17   40   0.228   0.141   0.181
    1UNL    H18   41   0.084   0.011   0.348
    1UNL    H19   42   0.222  -0.084   0.287
    1UNL    H20   43  -0.020  -0.210   0.266
   0.00000   0.00000   0.00000   0.00000   0.00000   0.00000   0.00000   0.00000   0.00000
Generated with MDTraj, t= 51.0
 43
    1UNL     C1    1   0.332   0.016  -0.197
    1UNL     C2    2   0.271   0.070  -0.075
    1UNL     C3    3   0.193   0.001   0.014
    1UNL     C4    4   0.165  -0.141  -0.008
    1UNL     O1    5   0.180  -0.193  -0.121
    1UNL     N1    6   0.101  -0.216   0.096
    1UNL     C5    7   0.016  -0.332   0.055
    1UNL     C6    8  -0.118  -0.287  -0.009
    1UNL     C7    9  -0.145  -0.143   0.025
    1UNL     C8   10  -0.080  -0.073   0.131
    1UNL     N2   11  -0.100   0.060   0.105
    1UNL     C9   12  -0.196   0.083  -0.000
    1UNL    C10   13  -0.259   0.196  -0.058
    1UNL    C11   14  -0.348   0.180  -0.157
    1UNL    C12   15  -0.385   0.049  -0.204
    1UNL    C13   16  -0.308  -0.057  -0.158
    1UNL    C14   17  -0.214  -0.047  -0.059
    1UNL    C15   18   0.019   0.153   0.139
    1UNL    C16   19   0.028   0.256   0.027
    1UNL     O2   20   0.142   0.340   0.035
    1UNL    C17   21   0.151   0.070   0.137
    1UNL    C18   22   0.145  -0.042   0.247
    1UNL    C19   23   0.038  -0.130   0.201
    1UNL     H1   24   0.268   0.023  -0.278
    1UNL     H2   25   0.430   0.071  -0.217
    1UNL     H3   26   0.349  -0.100  -0.190
    1UNL     H4   27   0.298   0.173  -0.057
    1UNL     H5   28   0.071  -0.386  -0.015
    1UNL     H6   29   0.001  -0.393   0.142
    1UNL     H7   30  -0.191  -0.359   0.023
    1UNL     H8   31  -0.119  -0.292  -0.117
    1UNL     H9   32  -0.232   0.292  -0.008
    1UNL    H10   33  -0.388   0.263  -0.205
    1UNL    H11   34  -0.447   0.038  -0.287
    1UNL    H12   35  -0.322  -0.161  -0.191
    1UNL    H13   36  -0.005   0.194   0.236
    1UNL    H14   37  -0.058   0.328   0.014
    1UNL    H15   38   0.028   0.203  -0.070
    1UNL    H16   39   0.163   0.363   0.129
    1UNL    H17   40   0.231   0.139   0.169
    1UNL    H18   41   0.124   0.002   0.352
    1UNL    H19   42   0.235  -0.090   0.249
    1UNL    H20   43  -0.008  -0.202   0.275
   0.00000   0.00000   0.00000   0.00000   0.00000   0.00000   0.00000   0.00000   0.00000
Generated with MDTraj, t= 52.0
 43
    1UNL     C1    1   0.350   0.016  -0.190
    1UNL     C2    2   0.295   0.069  -0.067
    1UNL     C3    3   0.206   0.008   0.015
    1UNL     C4    4   0.174  -0.139  -0.013
    1UNL     O1    5   0.201  -0.197  -0.120
    1UNL     N1    6   0.102  -0.216   0.080
    1UNL     C5    7   0.018  -0.329   0.036
    1UNL     C6    8  -0.131  -0.291   0.004
    1UNL     C7    9  -0.165  -0.148   0.036
    1UNL     C8   10  -0.081  -0.073   0.119
    1UNL     N2   11  -0.097   0.064   0.091
    1UNL     C9   12  -0.208   0.073   0.005
    1UNL    C10   13  -0.266   0.186  -0.054
    1UNL    C11   14  -0.356   0.173  -0.159
    1UNL    C12   15  -0.389   0.045  -0.210
    1UNL    C13   16  -0.345  -0.070  -0.144
    1UNL    C14   17  -0.249  -0.050  -0.039
    1UNL    C15   18   0.026   0.160   0.119
    1UNL    C16   19   0.054   0.266   0.013
    1UNL     O2   20   0.160   0.359   0.060
    1UNL    C17   21   0.152   0.076   0.138
    1UNL    C18   22   0.132  -0.038   0.248
    1UNL    C19   23   0.032  -0.138   0.195
    1UNL     H1   24   0.285  -0.046  -0.249
    1UNL     H2   25   0.389   0.092  -0.263
    1UNL     H3   26   0.432  -0.059  -0.176
    1UNL     H4   27   0.329   0.166  -0.029
    1UNL     H5   28   0.071  -0.372  -0.043
    1UNL     H6   29   0.008  -0.390   0.126
    1UNL     H7   30  -0.203  -0.347   0.061
    1UNL     H8   31  -0.148  -0.323  -0.098
    1UNL     H9   32  -0.241   0.274  -0.005
    1UNL    H10   33  -0.407   0.266  -0.196
    1UNL    H11   34  -0.449   0.034  -0.302
    1UNL    H12   35  -0.366  -0.165  -0.182
    1UNL    H13   36   0.014   0.205   0.217
    1UNL    H14   37  -0.038   0.322  -0.013
    1UNL    H15   38   0.090   0.221  -0.078
    1UNL    H16   39   0.139   0.382   0.151
    1UNL    H17   40   0.227   0.147   0.179
    1UNL    H18   41   0.100   0.006   0.346
    1UNL    H19   42   0.227  -0.084   0.265
    1UNL    H20   43  -0.008  -0.218   0.266
   0.00000   0.00000   0.00000   0.00000   0.00000   0.00000   0.00000   0.00000   0.00000
Generated with MDTraj, t= 53.0
 43
    1UNL     C1    1   0.360   0.029  -0.172
    1UNL     C2    2   0.289   0.078  -0.050
    1UNL     C3    3   0.202   0.006   0.024
    1UNL     C4    4   0.171  -0.137  -0.010
    1UNL     O1    5   0.218  -0.183  -0.114
    1UNL     N1    6   0.088  -0.212   0.070
    1UNL     C5    7   0.014  -0.327   0.007
    1UNL     C6    8  -0.137  -0.295   0.013
    1UNL     C7    9  -0.174  -0.146   0.037
    1UNL     C8   10  -0.088  -0.076   0.114
    1UNL     N2   11  -0.084   0.061   0.080
    1UNL     C9   12  -0.192   0.070  -0.015
    1UNL    C10   13  -0.239   0.185  -0.079
    1UNL    C11   14  -0.350   0.169  -0.157
    1UNL    C12   15  -0.411   0.042  -0.179
    1UNL    C13   16  -0.360  -0.077  -0.119
    1UNL    C14   17  -0.252  -0.057  -0.040
    1UNL    C15   18   0.028   0.153   0.119
    1UNL    C16   19   0.049   0.276   0.016
    1UNL     O2   20   0.171   0.353   0.029
    1UNL    C17   21   0.156   0.067   0.150
    1UNL    C18   22   0.123  -0.044   0.253
    1UNL    C19   23   0.028  -0.137   0.184
    1UNL     H1   24   0.309  -0.061  -0.219
    1UNL     H2   25   0.373   0.113  -0.243
    1UNL     H3   26   0.452  -0.013  -0.145
    1UNL     H4   27   0.305   0.174  -0.006
    1UNL     H5   28   0.048  -0.335  -0.090
    1UNL     H6   29   0.042  -0.410   0.072
    1UNL     H7   30  -0.179  -0.359   0.087
    1UNL     H8   31  -0.194  -0.323  -0.073
    1UNL     H9   32  -0.216   0.288  -0.055
    1UNL    H10   33  -0.402   0.258  -0.178
    1UNL    H11   34  -0.501   0.028  -0.235
    1UNL    H12   35  -0.388  -0.183  -0.138
    1UNL    H13   36   0.008   0.205   0.215
    1UNL    H14   37  -0.034   0.347   0.022
    1UNL    H15   38   0.057   0.231  -0.080
    1UNL    H16   39   0.181   0.383   0.122
    1UNL    H17   40   0.229   0.146   0.178
    1UNL    H18   41   0.085  -0.006   0.345
    1UNL    H19   42   0.225  -0.090   0.275
    1UNL    H20   43  -0.021  -0.204   0.264
   0.00000   0.00000   0.00000   0.00000   0.00000   0.00000   0.00000   0.00000   0.00000
Generated with MDTraj, t= 54.0
 43
    1UNL     C1    1   0.369   0.027  -0.178
    1UNL     C2    2   0.309   0.079  -0.050
    1UNL     C3    3   0.216   0.011   0.021
    1UNL     C4    4   0.175  -0.131  -0.017
    1UNL     O1    5   0.220  -0.185  -0.114
    1UNL     N1    6   0.083  -0.195   0.060
    1UNL     C5    7   0.015  -0.320   0.020
    1UNL     C6    8  -0.136  -0.288   0.006
    1UNL     C7    9  -0.170  -0.147   0.042
    1UNL     C8   10  -0.093  -0.069   0.130
    1UNL     N2   11  -0.104   0.063   0.092
    1UNL     C9   12  -0.207   0.080   0.002
    1UNL    C10   13  -0.263   0.189  -0.062
    1UNL    C11   14  -0.363   0.167  -0.160
    1UNL    C12   15  -0.411   0.034  -0.188
    1UNL    C13   16  -0.343  -0.068  -0.130
    1UNL    C14   17  -0.244  -0.048  -0.038
    1UNL    C15   18   0.019   0.151   0.117
    1UNL    C16   19   0.057   0.247   0.000
    1UNL     O2   20   0.169   0.330   0.033
    1UNL    C17   21   0.152   0.071   0.148
    1UNL    C18   22   0.130  -0.049   0.250
    1UNL    C19   23   0.029  -0.140   0.186
    1UNL     H1   24   0.283   0.015  -0.256
    1UNL     H2   25   0.441   0.103  -0.199
    1UNL     H3   26   0.401  -0.069  -0.155
    1UNL     H4   27   0.328   0.181  -0.020
    1UNL     H5   28   0.058  -0.347  -0.070
    1UNL     H6   29   0.035  -0.393   0.099
    1UNL     H7   30  -0.200  -0.349   0.067
    1UNL     H8   31  -0.171  -0.318  -0.090
    1UNL     H9   32  -0.230   0.287  -0.022
    1UNL    H10   33  -0.411   0.248  -0.216
    1UNL    H11   34  -0.479   0.006  -0.267
    1UNL    H12   35  -0.372  -0.163  -0.167
    1UNL    H13   36   0.009   0.204   0.215
    1UNL    H14   37  -0.026   0.314  -0.017
    1UNL    H15   38   0.083   0.183  -0.080
    1UNL    H16   39   0.154   0.379   0.118
    1UNL    H17   40   0.225   0.148   0.184
    1UNL    H18   41   0.095  -0.009   0.337
    1UNL    H19   42   0.232  -0.103   0.273
    1UNL    H20   43   0.001  -0.221   0.262
   0.00000   0.00000   0.00000   0.00000   0.00000   0.00000   0.00000   0.00000   0.00000
Generated with MDTraj, t= 55.0
 43
    1UNL     C1    1   0.371   0.013  -0.165
    1UNL     C2    2   0.305   0.074  -0.049
    1UNL     C3    3   0.215   0.006   0.020
    1UNL     C4    4   0.173  -0.135  -0.015
    1UNL     O1    5   0.198  -0.185  -0.120
    1UNL     N1    6   0.101  -0.208   0.081
    1UNL     C5    7   0.029  -0.330   0.034
    1UNL     C6    8  -0.124  -0.300   0.006
    1UNL     C7    9  -0.152  -0.145   0.021
    1UNL     C8   10  -0.087  -0.073   0.119
    1UNL     N2   11  -0.099   0.063   0.111
    1UNL     C9   12  -0.202   0.075   0.013
    1UNL    C10   13  -0.269   0.200  -0.038
    1UNL    C11   14  -0.359   0.187  -0.138
    1UNL    C12   15  -0.394   0.064  -0.196
    1UNL    C13   16  -0.337  -0.054  -0.148
    1UNL    C14   17  -0.232  -0.051  -0.048
    1UNL    C15   18   0.024   0.152   0.114
    1UNL    C16   19   0.034   0.236  -0.013
    1UNL     O2   20   0.130   0.337   0.008
    1UNL    C17   21   0.147   0.067   0.138
    1UNL    C18   22   0.120  -0.042   0.250
    1UNL    C19   23   0.027  -0.136   0.186
    1UNL     H1   24   0.333   0.048  -0.264
    1UNL     H2   25   0.473   0.038  -0.155
    1UNL     H3   26   0.359  -0.095  -0.168
    1UNL     H4   27   0.328   0.177  -0.025
    1UNL     H5   28   0.084  -0.354  -0.053
    1UNL     H6   29   0.033  -0.412   0.106
    1UNL     H7   30  -0.193  -0.363   0.058
    1UNL     H8   31  -0.144  -0.328  -0.095
    1UNL     H9   32  -0.254   0.287   0.018
    1UNL    H10   33  -0.394   0.279  -0.181
    1UNL    H11   34  -0.451   0.068  -0.289
    1UNL    H12   35  -0.346  -0.157  -0.178
    1UNL    H13   36   0.012   0.202   0.214
    1UNL    H14   37  -0.061   0.283  -0.025
    1UNL    H15   38   0.066   0.176  -0.094
    1UNL    H16   39   0.119   0.381   0.097
    1UNL    H17   40   0.231   0.132   0.172
    1UNL    H18   41   0.083   0.002   0.336
    1UNL    H19   42   0.220  -0.097   0.276
    1UNL    H20   43  -0.005  -0.209   0.270
   0.00000   0.00000   0.00000   0.00000   0.00000   0.00000   0.00000   0.00000   0.00000
Generated with MDTraj, t= 56.0
 43
    1UNL     C1    1   0.371   0.009  -0.168
    1UNL     C2    2   0.305   0.061  -0.043
    1UNL     C3    3   0.212   0.001   0.026
    1UNL     C4    4   0.170  -0.137  -0.014
    1UNL     O1    5   0.190  -0.179  -0.125
    1UNL     N1    6   0.096  -0.209   0.084
    1UNL     C5    7   0.027  -0.323   0.024
    1UNL     C6    8  -0.110  -0.274  -0.033
    1UNL     C7    9  -0.154  -0.143   0.026
    1UNL     C8   10  -0.085  -0.070   0.117
    1UNL     N2   11  -0.104   0.068   0.107
    1UNL     C9   12  -0.218   0.085   0.021
    1UNL    C10   13  -0.282   0.189  -0.027
    1UNL    C11   14  -0.360   0.174  -0.133
    1UNL    C12   15  -0.384   0.044  -0.193
    1UNL    C13   16  -0.329  -0.066  -0.141
    1UNL    C14   17  -0.237  -0.048  -0.037
    1UNL    C15   18   0.023   0.159   0.120
    1UNL    C16   19   0.041   0.243  -0.011
    1UNL     O2   20   0.154   0.334  -0.015
    1UNL    C17   21   0.145   0.073   0.153
    1UNL    C18   22   0.118  -0.041   0.262
    1UNL    C19   23   0.027  -0.141   0.192
    1UNL     H1   24   0.321   0.005  -0.257
    1UNL     H2   25   0.455   0.069  -0.190
    1UNL     H3   26   0.413  -0.094  -0.167
    1UNL     H4   27   0.326   0.163  -0.018
    1UNL     H5   28   0.080  -0.366  -0.058
    1UNL     H6   29   0.019  -0.393   0.108
    1UNL     H7   30  -0.186  -0.349  -0.026
    1UNL     H8   31  -0.108  -0.255  -0.138
    1UNL     H9   32  -0.262   0.284   0.025
    1UNL    H10   33  -0.422   0.257  -0.165
    1UNL    H11   34  -0.447   0.036  -0.280
    1UNL    H12   35  -0.354  -0.158  -0.193
    1UNL    H13   36   0.006   0.231   0.204
    1UNL    H14   37  -0.039   0.307  -0.037
    1UNL    H15   38   0.054   0.176  -0.090
    1UNL    H16   39   0.187   0.366   0.071
    1UNL    H17   40   0.222   0.143   0.189
    1UNL    H18   41   0.061  -0.000   0.345
    1UNL    H19   42   0.215  -0.082   0.301
    1UNL    H20   43  -0.009  -0.216   0.271
   0.00000   0.00000   0.00000   0.00000   0.00000   0.00000   0.00000   0.00000   0.00000
Generated with MDTraj, t= 57.0
 43
    1UNL     C1    1   0.386   0.032  -0.165
    1UNL     C2    2   0.307   0.072  -0.041
    1UNL     C3    3   0.211   0.007   0.019
    1UNL     C4    4   0.166  -0.131  -0.013
    1UNL     O1    5   0.204  -0.179  -0.117
    1UNL     N1    6   0.091  -0.213   0.083
    1UNL     C5    7   0.026  -0.331   0.025
    1UNL     C6    8  -0.118  -0.289  -0.008
    1UNL     C7    9  -0.163  -0.149   0.022
    1UNL     C8   10  -0.089  -0.083   0.120
    1UNL     N2   11  -0.093   0.055   0.093
    1UNL     C9   12  -0.204   0.072   0.003
    1UNL    C10   13  -0.264   0.196  -0.045
    1UNL    C11   14  -0.372   0.178  -0.133
    1UNL    C12   15  -0.408   0.058  -0.181
    1UNL    C13   16  -0.350  -0.061  -0.137
    1UNL    C14   17  -0.242  -0.050  -0.046
    1UNL    C15   18   0.024   0.150   0.118
    1UNL    C16   19   0.046   0.243  -0.009
    1UNL     O2   20   0.166   0.326   0.001
    1UNL    C17   21   0.152   0.072   0.144
    1UNL    C18   22   0.111  -0.032   0.255
    1UNL    C19   23   0.027  -0.142   0.190
    1UNL     H1   24   0.334  -0.014  -0.239
    1UNL     H2   25   0.429   0.122  -0.202
    1UNL     H3   26   0.468  -0.040  -0.137
    1UNL     H4   27   0.341   0.172  -0.012
    1UNL     H5   28   0.084  -0.369  -0.059
    1UNL     H6   29   0.019  -0.407   0.103
    1UNL     H7   30  -0.193  -0.347   0.042
    1UNL     H8   31  -0.141  -0.311  -0.109
    1UNL     H9   32  -0.247   0.295  -0.011
    1UNL    H10   33  -0.427   0.269  -0.142
    1UNL    H11   34  -0.498   0.060  -0.244
    1UNL    H12   35  -0.374  -0.157  -0.176
    1UNL    H13   36  -0.003   0.214   0.206
    1UNL    H14   37  -0.038   0.295  -0.048
    1UNL    H15   38   0.072   0.181  -0.091
    1UNL    H16   39   0.136   0.419   0.016
    1UNL    H17   40   0.231   0.131   0.194
    1UNL    H18   41   0.047   0.017   0.338
    1UNL    H19   42   0.196  -0.076   0.303
    1UNL    H20   43  -0.007  -0.216   0.268
   0.00000   0.00000   0.00000   0.00000   0.00000   0.00000   0.00000   0.00000   0.00000
Generated with MDTraj, t= 58.0
 43
    1UNL     C1    1   0.395   0.016  -0.171
    1UNL     C2    2   0.323   0.068  -0.048
    1UNL     C3    3   0.229   0.006   0.024
    1UNL     C4    4   0.183  -0.132  -0.014
    1UNL     O1    5   0.228  -0.193  -0.110
    1UNL     N1    6   0.092  -0.202   0.068
    1UNL     C5    7   0.016  -0.307   0.002
    1UNL     C6    8  -0.143  -0.290   0.008
    1UNL     C7    9  -0.177  -0.144   0.037
    1UNL     C8   10  -0.090  -0.070   0.120
    1UNL     N2   11  -0.099   0.064   0.092
    1UNL     C9   12  -0.205   0.083  -0.005
    1UNL    C10   13  -0.266   0.193  -0.060
    1UNL    C11   14  -0.377   0.171  -0.147
    1UNL    C12   15  -0.419   0.042  -0.174
    1UNL    C13   16  -0.354  -0.067  -0.130
    1UNL    C14   17  -0.247  -0.050  -0.042
    1UNL    C15   18   0.024   0.146   0.116
    1UNL    C16   19   0.049   0.240   0.000
    1UNL     O2   20   0.151   0.341   0.025
    1UNL    C17   21   0.155   0.073   0.143
    1UNL    C18   22   0.124  -0.037   0.250
    1UNL    C19   23   0.028  -0.139   0.188
    1UNL     H1   24   0.332  -0.041  -0.240
    1UNL     H2   25   0.435   0.100  -0.218
    1UNL     H3   26   0.474  -0.048  -0.138
    1UNL     H4   27   0.364   0.163  -0.027
    1UNL     H5   28   0.052  -0.311  -0.103
    1UNL     H6   29   0.031  -0.403   0.046
    1UNL     H7   30  -0.193  -0.351   0.080
    1UNL     H8   31  -0.191  -0.316  -0.083
    1UNL     H9   32  -0.249   0.294  -0.018
    1UNL    H10   33  -0.443   0.248  -0.192
    1UNL    H11   34  -0.501   0.030  -0.242
    1UNL    H12   35  -0.401  -0.160  -0.162
    1UNL    H13   36   0.003   0.211   0.204
    1UNL    H14   37  -0.041   0.293  -0.029
    1UNL    H15   38   0.063   0.190  -0.094
    1UNL    H16   39   0.137   0.361   0.122
    1UNL    H17   40   0.224   0.145   0.191
    1UNL    H18   41   0.062   0.010   0.339
    1UNL    H19   42   0.207  -0.089   0.284
    1UNL    H20   43  -0.001  -0.227   0.251
   0.00000   0.00000   0.00000   0.00000   0.00000   0.00000   0.00000   0.00000   0.00000
Generated with MDTraj, t= 59.0
 43
    1UNL     C1    1   0.392   0.021  -0.153
    1UNL     C2    2   0.295   0.075  -0.058
    1UNL     C3    3   0.219  -0.001   0.020
    1UNL     C4    4   0.183  -0.144  -0.014
    1UNL     O1    5   0.225  -0.190  -0.119
    1UNL     N1    6   0.096  -0.210   0.072
    1UNL     C5    7   0.012  -0.318   0.016
    1UNL     C6    8  -0.143  -0.287   0.004
    1UNL     C7    9  -0.166  -0.142   0.037
    1UNL     C8   10  -0.082  -0.067   0.110
    1UNL     N2   11  -0.093   0.066   0.087
    1UNL     C9   12  -0.205   0.077   0.003
    1UNL    C10   13  -0.265   0.192  -0.060
    1UNL    C11   14  -0.359   0.168  -0.151
    1UNL    C12   15  -0.413   0.040  -0.181
    1UNL    C13   16  -0.364  -0.068  -0.121
    1UNL    C14   17  -0.256  -0.055  -0.026
    1UNL    C15   18   0.024   0.153   0.112
    1UNL    C16   19   0.047   0.264   0.001
    1UNL     O2   20   0.155   0.344   0.032
    1UNL    C17   21   0.151   0.067   0.140
    1UNL    C18   22   0.124  -0.041   0.244
    1UNL    C19   23   0.031  -0.138   0.181
    1UNL     H1   24   0.359  -0.002  -0.259
    1UNL     H2   25   0.475   0.082  -0.166
    1UNL     H3   26   0.430  -0.067  -0.120
    1UNL     H4   27   0.290   0.182  -0.039
    1UNL     H5   28   0.036  -0.329  -0.093
    1UNL     H6   29   0.034  -0.410   0.068
    1UNL     H7   30  -0.195  -0.354   0.068
    1UNL     H8   31  -0.181  -0.301  -0.094
    1UNL     H9   32  -0.247   0.291  -0.026
    1UNL    H10   33  -0.389   0.254  -0.207
    1UNL    H11   34  -0.475   0.031  -0.271
    1UNL    H12   35  -0.392  -0.165  -0.151
    1UNL    H13   36   0.003   0.212   0.202
    1UNL    H14   37  -0.038   0.326  -0.023
    1UNL    H15   38   0.057   0.223  -0.100
    1UNL    H16   39   0.165   0.363   0.127
    1UNL    H17   40   0.224   0.140   0.181
    1UNL    H18   41   0.071  -0.010   0.344
    1UNL    H19   42   0.211  -0.097   0.260
    1UNL    H20   43  -0.020  -0.203   0.253
   0.00000   0.00000   0.00000   0.00000   0.00000   0.00000   0.00000   0.00000   0.00000
Generated with MDTraj, t= 60.0
 43
    1UNL     C1    1   0.348   0.023  -0.174
    1UNL     C2    2   0.304   0.074  -0.046
    1UNL     C3    3   0.220   0.003   0.032
    1UNL     C4    4   0.168  -0.132  -0.012
    1UNL     O1    5   0.187  -0.174  -0.127
    1UNL     N1    6   0.093  -0.212   0.079
    1UNL     C5    7   0.017  -0.331   0.035
    1UNL     C6    8  -0.128  -0.291  -0.001
    1UNL     C7    9  -0.157  -0.147   0.022
    1UNL     C8   10  -0.086  -0.075   0.117
    1UNL     N2   11  -0.096   0.061   0.087
    1UNL     C9   12  -0.196   0.074  -0.002
    1UNL    C10   13  -0.267   0.186  -0.050
    1UNL    C11   14  -0.364   0.172  -0.140
    1UNL    C12   15  -0.398   0.046  -0.192
    1UNL    C13   16  -0.337  -0.067  -0.141
    1UNL    C14   17  -0.235  -0.053  -0.046
    1UNL    C15   18   0.026   0.155   0.114
    1UNL    C16   19   0.054   0.258  -0.001
    1UNL     O2   20   0.164   0.335   0.022
    1UNL    C17   21   0.156   0.073   0.146
    1UNL    C18   22   0.124  -0.031   0.257
    1UNL    C19   23   0.029  -0.141   0.191
    1UNL     H1   24   0.272   0.043  -0.254
    1UNL     H2   25   0.440   0.062  -0.201
    1UNL     H3   26   0.353  -0.081  -0.163
    1UNL     H4   27   0.309   0.174  -0.007
    1UNL     H5   28   0.074  -0.364  -0.058
    1UNL     H6   29   0.019  -0.409   0.109
    1UNL     H7   30  -0.205  -0.346   0.047
    1UNL     H8   31  -0.137  -0.308  -0.105
    1UNL     H9   32  -0.244   0.279  -0.004
    1UNL    H10   33  -0.420   0.260  -0.173
    1UNL    H11   34  -0.473   0.048  -0.266
    1UNL    H12   35  -0.350  -0.166  -0.190
    1UNL    H13   36  -0.004   0.199   0.209
    1UNL    H14   37  -0.038   0.310  -0.028
    1UNL    H15   38   0.073   0.205  -0.098
    1UNL    H16   39   0.174   0.370   0.113
    1UNL    H17   40   0.231   0.145   0.185
    1UNL    H18   41   0.069   0.013   0.341
    1UNL    H19   42   0.210  -0.085   0.295
    1UNL    H20   43  -0.012  -0.204   0.268
   0.00000   0.00000   0.00000   0.00000   0.00000   0.00000   0.00000   0.00000   0.00000
Generated with MDTraj, t= 61.0
 43
    1UNL     C1    1   0.345   0.016  -0.189
    1UNL     C2    2   0.297   0.069  -0.058
    1UNL     C3    3   0.199   0.013   0.023
    1UNL     C4    4   0.153  -0.128  -0.015
    1UNL     O1    5   0.174  -0.176  -0.127
    1UNL     N1    6   0.102  -0.213   0.085
    1UNL     C5    7   0.012  -0.326   0.044
    1UNL     C6    8  -0.120  -0.283  -0.020
    1UNL     C7    9  -0.161  -0.144   0.037
    1UNL     C8   10  -0.082  -0.081   0.129
    1UNL     N2   11  -0.103   0.054   0.114
    1UNL     C9   12  -0.200   0.075   0.012
    1UNL    C10   13  -0.256   0.191  -0.044
    1UNL    C11   14  -0.340   0.178  -0.154
    1UNL    C12   15  -0.378   0.050  -0.204
    1UNL    C13   16  -0.314  -0.067  -0.157
    1UNL    C14   17  -0.224  -0.047  -0.049
    1UNL    C15   18   0.017   0.151   0.129
    1UNL    C16   19   0.035   0.246   0.008
    1UNL     O2   20   0.151   0.325   0.014
    1UNL    C17   21   0.151   0.077   0.151
    1UNL    C18   22   0.138  -0.032   0.254
    1UNL    C19   23   0.038  -0.138   0.196
    1UNL     H1   24   0.271  -0.047  -0.224
    1UNL     H2   25   0.363   0.096  -0.255
    1UNL     H3   26   0.430  -0.044  -0.158
    1UNL     H4   27   0.333   0.167  -0.023
    1UNL     H5   28   0.070  -0.397  -0.024
    1UNL     H6   29  -0.006  -0.385   0.134
    1UNL     H7   30  -0.195  -0.354   0.002
    1UNL     H8   31  -0.120  -0.278  -0.127
    1UNL     H9   32  -0.238   0.295  -0.004
    1UNL    H10   33  -0.407   0.258  -0.184
    1UNL    H11   34  -0.464   0.043  -0.271
    1UNL    H12   35  -0.349  -0.158  -0.193
    1UNL    H13   36  -0.008   0.197   0.222
    1UNL    H14   37  -0.052   0.311  -0.003
    1UNL    H15   38   0.017   0.184  -0.087
    1UNL    H16   39   0.138   0.404   0.074
    1UNL    H17   40   0.225   0.157   0.173
    1UNL    H18   41   0.094   0.006   0.338
    1UNL    H19   42   0.235  -0.083   0.278
    1UNL    H20   43   0.019  -0.210   0.271
   0.00000   0.00000   0.00000   0.00000   0.00000   0.00000   0.00000   0.00000   0.00000
Generated with MDTraj, t= 62.0
 43
    1UNL     C1    1   0.346   0.022  -0.190
    1UNL     C2    2   0.281   0.072  -0.069
    1UNL     C3    3   0.190   0.005   0.007
    1UNL     C4    4   0.163  -0.136  -0.019
    1UNL     O1    5   0.208  -0.188  -0.120
    1UNL     N1    6   0.098  -0.212   0.076
    1UNL     C5    7   0.009  -0.334   0.034
    1UNL     C6    8  -0.139  -0.293   0.010
    1UNL     C7    9  -0.160  -0.143   0.039
    1UNL     C8   10  -0.081  -0.076   0.130
    1UNL     N2   11  -0.099   0.062   0.108
    1UNL     C9   12  -0.203   0.068   0.014
    1UNL    C10   13  -0.251   0.188  -0.042
    1UNL    C11   14  -0.343   0.176  -0.147
    1UNL    C12   15  -0.364   0.054  -0.212
    1UNL    C13   16  -0.315  -0.064  -0.159
    1UNL    C14   17  -0.242  -0.054  -0.040
    1UNL    C15   18   0.015   0.161   0.128
    1UNL    C16   19   0.035   0.257   0.017
    1UNL     O2   20   0.152   0.337   0.027
    1UNL    C17   21   0.147   0.079   0.143
    1UNL    C18   22   0.134  -0.032   0.247
    1UNL    C19   23   0.035  -0.143   0.195
    1UNL     H1   24   0.281  -0.016  -0.257
    1UNL     H2   25   0.404   0.096  -0.237
    1UNL     H3   26   0.413  -0.063  -0.163
    1UNL     H4   27   0.295   0.173  -0.038
    1UNL     H5   28   0.050  -0.392  -0.056
    1UNL     H6   29   0.010  -0.406   0.116
    1UNL     H7   30  -0.208  -0.355   0.062
    1UNL     H8   31  -0.164  -0.309  -0.093
    1UNL     H9   32  -0.234   0.280  -0.002
    1UNL    H10   33  -0.377   0.272  -0.183
    1UNL    H11   34  -0.411   0.040  -0.307
    1UNL    H12   35  -0.334  -0.161  -0.212
    1UNL    H13   36   0.012   0.217   0.220
    1UNL    H14   37  -0.057   0.315  -0.003
    1UNL    H15   38   0.038   0.207  -0.087
    1UNL    H16   39   0.142   0.409   0.094
    1UNL    H17   40   0.224   0.156   0.163
    1UNL    H18   41   0.111  -0.002   0.341
    1UNL    H19   42   0.236  -0.080   0.253
    1UNL    H20   43  -0.003  -0.203   0.273
   0.00000   0.00000   0.00000   0.00000   0.00000   0.00000   0.00000   0.00000   0.00000
Generated with MDTraj, t= 63.0
 43
    1UNL     C1    1   0.316   0.032  -0.197
    1UNL     C2    2   0.285   0.073  -0.059
    1UNL     C3    3   0.205   0.001   0.024
    1UNL     C4    4   0.180  -0.147  -0.005
    1UNL     O1    5   0.224  -0.192  -0.110
    1UNL     N1    6   0.092  -0.219   0.084
    1UNL     C5    7   0.010  -0.330   0.025
    1UNL     C6    8  -0.136  -0.293   0.002
    1UNL     C7    9  -0.161  -0.148   0.030
    1UNL     C8   10  -0.078  -0.071   0.112
    1UNL     N2   11  -0.086   0.064   0.081
    1UNL     C9   12  -0.196   0.080  -0.004
    1UNL    C10   13  -0.256   0.188  -0.069
    1UNL    C11   14  -0.354   0.171  -0.163
    1UNL    C12   15  -0.395   0.038  -0.195
    1UNL    C13   16  -0.340  -0.070  -0.128
    1UNL    C14   17  -0.242  -0.048  -0.037
    1UNL    C15   18   0.024   0.160   0.120
    1UNL    C16   19   0.052   0.270   0.024
    1UNL     O2   20   0.167   0.352   0.050
    1UNL    C17   21   0.155   0.070   0.148
    1UNL    C18   22   0.124  -0.038   0.250
    1UNL    C19   23   0.028  -0.138   0.186
    1UNL     H1   24   0.232   0.043  -0.264
    1UNL     H2   25   0.404   0.061  -0.246
    1UNL     H3   26   0.324  -0.076  -0.208
    1UNL     H4   27   0.293   0.181  -0.044
    1UNL     H5   28   0.054  -0.347  -0.080
    1UNL     H6   29   0.016  -0.425   0.080
    1UNL     H7   30  -0.197  -0.352   0.067
    1UNL     H8   31  -0.161  -0.322  -0.097
    1UNL     H9   32  -0.218   0.287  -0.038
    1UNL    H10   33  -0.382   0.249  -0.232
    1UNL    H11   34  -0.457   0.023  -0.285
    1UNL    H12   35  -0.364  -0.171  -0.145
    1UNL    H13   36   0.012   0.196   0.221
    1UNL    H14   37  -0.031   0.342   0.006
    1UNL    H15   38   0.058   0.225  -0.082
    1UNL    H16   39   0.148   0.399   0.133
    1UNL    H17   40   0.236   0.130   0.191
    1UNL    H18   41   0.089   0.001   0.346
    1UNL    H19   42   0.215  -0.095   0.277
    1UNL    H20   43  -0.017  -0.194   0.262
   0.00000   0.00000   0.00000   0.00000   0.00000   0.00000   0.00000   0.00000   0.00000
Generated with MDTraj, t= 64.0
 43
    1UNL     C1    1   0.326   0.027  -0.200
    1UNL     C2    2   0.273   0.081  -0.069
    1UNL     C3    3   0.203   0.007   0.017
    1UNL     C4    4   0.180  -0.134  -0.010
    1UNL     O1    5   0.229  -0.199  -0.099
    1UNL     N1    6   0.098  -0.212   0.080
    1UNL     C5    7   0.017  -0.328   0.038
    1UNL     C6    8  -0.134  -0.290   0.003
    1UNL     C7    9  -0.159  -0.144   0.030
    1UNL     C8   10  -0.080  -0.075   0.114
    1UNL     N2   11  -0.086   0.062   0.074
    1UNL     C9   12  -0.188   0.082  -0.020
    1UNL    C10   13  -0.249   0.190  -0.082
    1UNL    C11   14  -0.350   0.174  -0.168
    1UNL    C12   15  -0.408   0.043  -0.179
    1UNL    C13   16  -0.349  -0.066  -0.125
    1UNL    C14   17  -0.233  -0.047  -0.046
    1UNL    C15   18   0.019   0.154   0.117
    1UNL    C16   19   0.042   0.274   0.026
    1UNL     O2   20   0.167   0.329   0.063
    1UNL    C17   21   0.149   0.068   0.144
    1UNL    C18   22   0.128  -0.045   0.252
    1UNL    C19   23   0.026  -0.137   0.190
    1UNL     H1   24   0.244  -0.032  -0.253
    1UNL     H2   25   0.374   0.098  -0.260
    1UNL     H3   26   0.393  -0.053  -0.189
    1UNL     H4   27   0.293   0.185  -0.062
    1UNL     H5   28   0.069  -0.377  -0.051
    1UNL     H6   29   0.022  -0.404   0.118
    1UNL     H7   30  -0.205  -0.352   0.053
    1UNL     H8   31  -0.153  -0.306  -0.100
    1UNL     H9   32  -0.206   0.284  -0.043
    1UNL    H10   33  -0.400   0.262  -0.207
    1UNL    H11   34  -0.499   0.026  -0.229
    1UNL    H12   35  -0.379  -0.169  -0.118
    1UNL    H13   36  -0.031   0.196   0.207
    1UNL    H14   37  -0.039   0.349   0.032
    1UNL    H15   38   0.052   0.248  -0.085
    1UNL    H16   39   0.162   0.361   0.156
    1UNL    H17   40   0.223   0.136   0.185
    1UNL    H18   41   0.082  -0.001   0.351
    1UNL    H19   42   0.215  -0.100   0.281
    1UNL    H20   43  -0.003  -0.214   0.255
   0.00000   0.00000   0.00000   0.00000   0.00000   0.00000   0.00000   0.00000   0.00000
Generated with MDTraj, t= 65.0
 43
    1UNL     C1    1   0.341   0.019  -0.199
    1UNL     C2    2   0.276   0.069  -0.071
    1UNL     C3    3   0.202  -0.004   0.008
    1UNL     C4    4   0.168  -0.144  -0.015
    1UNL     O1    5   0.215  -0.201  -0.109
    1UNL     N1    6   0.090  -0.212   0.076
    1UNL     C5    7   0.011  -0.328   0.034
    1UNL     C6    8  -0.130  -0.287   0.001
    1UNL     C7    9  -0.161  -0.147   0.040
    1UNL     C8   10  -0.089  -0.068   0.131
    1UNL     N2   11  -0.093   0.069   0.100
    1UNL     C9   12  -0.192   0.086  -0.001
    1UNL    C10   13  -0.258   0.200  -0.047
    1UNL    C11   14  -0.345   0.176  -0.150
    1UNL    C12   15  -0.367   0.040  -0.212
    1UNL    C13   16  -0.323  -0.068  -0.145
    1UNL    C14   17  -0.234  -0.046  -0.039
    1UNL    C15   18   0.024   0.152   0.123
    1UNL    C16   19   0.036   0.255   0.020
    1UNL     O2   20   0.138   0.344   0.049
    1UNL    C17   21   0.157   0.074   0.132
    1UNL    C18   22   0.130  -0.033   0.243
    1UNL    C19   23   0.030  -0.134   0.188
    1UNL     H1   24   0.271  -0.055  -0.248
    1UNL     H2   25   0.374   0.102  -0.260
    1UNL     H3   26   0.423  -0.041  -0.186
    1UNL     H4   27   0.305   0.173  -0.050
    1UNL     H5   28   0.063  -0.390  -0.044
    1UNL     H6   29   0.021  -0.395   0.122
    1UNL     H7   30  -0.198  -0.353   0.050
    1UNL     H8   31  -0.153  -0.310  -0.100
    1UNL     H9   32  -0.258   0.289   0.004
    1UNL    H10   33  -0.414   0.256  -0.175
    1UNL    H11   34  -0.443   0.026  -0.293
    1UNL    H12   35  -0.340  -0.173  -0.177
    1UNL    H13   36  -0.008   0.211   0.214
    1UNL    H14   37  -0.052   0.320   0.021
    1UNL    H15   38   0.049   0.213  -0.086
    1UNL    H16   39   0.149   0.369   0.146
    1UNL    H17   40   0.237   0.136   0.172
    1UNL    H18   41   0.087   0.003   0.348
    1UNL    H19   42   0.223  -0.080   0.263
    1UNL    H20   43  -0.002  -0.203   0.263
   0.00000   0.00000   0.00000   0.00000   0.00000   0.00000   0.00000   0.00000   0.00000
Generated with MDTraj, t= 66.0
 43
    1UNL     C1    1   0.333   0.016  -0.192
    1UNL     C2    2   0.274   0.069  -0.062
    1UNL     C3    3   0.195   0.009   0.019
    1UNL     C4    4   0.162  -0.136  -0.016
    1UNL     O1    5   0.176  -0.191  -0.124
    1UNL     N1    6   0.099  -0.209   0.081
    1UNL     C5    7   0.023  -0.331   0.033
    1UNL     C6    8  -0.121  -0.289  -0.004
    1UNL     C7    9  -0.154  -0.146   0.029
    1UNL     C8   10  -0.078  -0.078   0.121
    1UNL     N2   11  -0.089   0.061   0.103
    1UNL     C9   12  -0.193   0.077   0.015
    1UNL    C10   13  -0.258   0.191  -0.034
    1UNL    C11   14  -0.340   0.180  -0.150
    1UNL    C12   15  -0.358   0.055  -0.208
    1UNL    C13   16  -0.313  -0.063  -0.151
    1UNL    C14   17  -0.228  -0.051  -0.040
    1UNL    C15   18   0.020   0.155   0.129
    1UNL    C16   19   0.032   0.257   0.011
    1UNL     O2   20   0.143   0.340   0.008
    1UNL    C17   21   0.154   0.072   0.150
    1UNL    C18   22   0.117  -0.032   0.263
    1UNL    C19   23   0.036  -0.145   0.197
    1UNL     H1   24   0.254  -0.036  -0.247
    1UNL     H2   25   0.380   0.094  -0.253
    1UNL     H3   26   0.407  -0.060  -0.189
    1UNL     H4   27   0.305   0.167  -0.033
    1UNL     H5   28   0.089  -0.379  -0.044
    1UNL     H6   29   0.028  -0.410   0.111
    1UNL     H7   30  -0.191  -0.356   0.040
    1UNL     H8   31  -0.141  -0.307  -0.106
    1UNL     H9   32  -0.240   0.292   0.012
    1UNL    H10   33  -0.387   0.261  -0.198
    1UNL    H11   34  -0.404   0.041  -0.299
    1UNL    H12   35  -0.318  -0.159  -0.191
    1UNL    H13   36  -0.004   0.217   0.221
    1UNL    H14   37  -0.052   0.326   0.002
    1UNL    H15   38   0.041   0.194  -0.082
    1UNL    H16   39   0.150   0.372   0.101
    1UNL    H17   40   0.238   0.128   0.190
    1UNL    H18   41   0.058   0.027   0.343
    1UNL    H19   42   0.199  -0.078   0.317
    1UNL    H20   43  -0.005  -0.213   0.269
   0.00000   0.00000   0.00000   0.00000   0.00000   0.00000   0.00000   0.00000   0.00000
Generated with MDTraj, t= 67.0
 43
    1UNL     C1    1   0.344   0.034  -0.190
    1UNL     C2    2   0.293   0.075  -0.054
    1UNL     C3    3   0.202   0.009   0.017
    1UNL     C4    4   0.162  -0.138  -0.015
    1UNL     O1    5   0.169  -0.177  -0.130
    1UNL     N1    6   0.104  -0.207   0.085
    1UNL     C5    7   0.017  -0.321   0.040
    1UNL     C6    8  -0.122  -0.281  -0.012
    1UNL     C7    9  -0.158  -0.147   0.034
    1UNL     C8   10  -0.080  -0.071   0.115
    1UNL     N2   11  -0.096   0.061   0.100
    1UNL     C9   12  -0.203   0.076   0.011
    1UNL    C10   13  -0.266   0.184  -0.048
    1UNL    C11   14  -0.354   0.170  -0.154
    1UNL    C12   15  -0.385   0.043  -0.202
    1UNL    C13   16  -0.327  -0.068  -0.147
    1UNL    C14   17  -0.236  -0.053  -0.037
    1UNL    C15   18   0.023   0.149   0.131
    1UNL    C16   19   0.049   0.250   0.009
    1UNL     O2   20   0.173   0.318   0.020
    1UNL    C17   21   0.156   0.067   0.152
    1UNL    C18   22   0.118  -0.029   0.265
    1UNL    C19   23   0.035  -0.137   0.194
    1UNL     H1   24   0.262   0.047  -0.254
    1UNL     H2   25   0.436   0.091  -0.212
    1UNL     H3   26   0.371  -0.077  -0.199
    1UNL     H4   27   0.327   0.171  -0.013
    1UNL     H5   28   0.078  -0.369  -0.040
    1UNL     H6   29   0.011  -0.400   0.117
    1UNL     H7   30  -0.189  -0.358   0.016
    1UNL     H8   31  -0.114  -0.291  -0.117
    1UNL     H9   32  -0.255   0.289  -0.025
    1UNL    H10   33  -0.390   0.263  -0.211
    1UNL    H11   34  -0.435   0.026  -0.300
    1UNL    H12   35  -0.353  -0.171  -0.182
    1UNL    H13   36  -0.002   0.215   0.219
    1UNL    H14   37  -0.032   0.322   0.004
    1UNL    H15   38   0.058   0.184  -0.080
    1UNL    H16   39   0.157   0.396   0.075
    1UNL    H17   40   0.236   0.135   0.181
    1UNL    H18   41   0.060   0.030   0.337
    1UNL    H19   42   0.206  -0.075   0.321
    1UNL    H20   43   0.011  -0.219   0.263
   0.00000   0.00000   0.00000   0.00000   0.00000   0.00000   0.00000   0.00000   0.00000
Generated with MDTraj, t= 68.0
 43
    1UNL     C1    1   0.379   0.018  -0.172
    1UNL     C2    2   0.301   0.073  -0.058
    1UNL     C3    3   0.229  -0.004   0.022
    1UNL     C4    4   0.179  -0.141  -0.018
    1UNL     O1    5   0.206  -0.186  -0.129
    1UNL     N1    6   0.095  -0.206   0.072
    1UNL     C5    7   0.011  -0.325   0.020
    1UNL     C6    8  -0.144  -0.292   0.015
    1UNL     C7    9  -0.161  -0.144   0.035
    1UNL     C8   10  -0.085  -0.068   0.125
    1UNL     N2   11  -0.094   0.067   0.085
    1UNL     C9   12  -0.190   0.081  -0.010
    1UNL    C10   13  -0.254   0.188  -0.070
    1UNL    C11   14  -0.365   0.172  -0.150
    1UNL    C12   15  -0.410   0.047  -0.188
    1UNL    C13   16  -0.355  -0.066  -0.132
    1UNL    C14   17  -0.240  -0.053  -0.041
    1UNL    C15   18   0.025   0.148   0.123
    1UNL    C16   19   0.037   0.253   0.012
    1UNL     O2   20   0.143   0.344   0.043
    1UNL    C17   21   0.160   0.070   0.141
    1UNL    C18   22   0.129  -0.033   0.251
    1UNL    C19   23   0.032  -0.139   0.185
    1UNL     H1   24   0.313   0.030  -0.253
    1UNL     H2   25   0.475   0.074  -0.168
    1UNL     H3   26   0.404  -0.094  -0.158
    1UNL     H4   27   0.309   0.176  -0.030
    1UNL     H5   28   0.051  -0.353  -0.076
    1UNL     H6   29   0.033  -0.407   0.092
    1UNL     H7   30  -0.190  -0.353   0.090
    1UNL     H8   31  -0.182  -0.317  -0.081
    1UNL     H9   32  -0.239   0.289  -0.039
    1UNL    H10   33  -0.407   0.256  -0.192
    1UNL    H11   34  -0.494   0.043  -0.252
    1UNL    H12   35  -0.398  -0.160  -0.152
    1UNL    H13   36  -0.019   0.189   0.219
    1UNL    H14   37  -0.055   0.307   0.010
    1UNL    H15   38   0.060   0.194  -0.079
    1UNL    H16   39   0.116   0.427   0.091
    1UNL    H17   40   0.235   0.144   0.172
    1UNL    H18   41   0.086   0.009   0.339
    1UNL    H19   42   0.237  -0.075   0.280
    1UNL    H20   43  -0.003  -0.210   0.263
   0.00000   0.00000   0.00000   0.00000   0.00000   0.00000   0.00000   0.00000   0.00000
Generated with MDTraj, t= 69.0
 43
    1UNL     C1    1   0.392   0.000  -0.163
    1UNL     C2    2   0.310   0.072  -0.062
    1UNL     C3    3   0.231   0.002   0.022
    1UNL     C4    4   0.186  -0.137  -0.014
    1UNL     O1    5   0.228  -0.190  -0.119
    1UNL     N1    6   0.094  -0.204   0.070
    1UNL     C5    7   0.009  -0.313   0.008
    1UNL     C6    8  -0.147  -0.283   0.002
    1UNL     C7    9  -0.178  -0.144   0.042
    1UNL     C8   10  -0.091  -0.071   0.121
    1UNL     N2   11  -0.089   0.064   0.079
    1UNL     C9   12  -0.207   0.079   0.000
    1UNL    C10   13  -0.272   0.189  -0.061
    1UNL    C11   14  -0.367   0.162  -0.154
    1UNL    C12   15  -0.416   0.034  -0.180
    1UNL    C13   16  -0.361  -0.076  -0.125
    1UNL    C14   17  -0.254  -0.050  -0.030
    1UNL    C15   18   0.030   0.150   0.101
    1UNL    C16   19   0.051   0.273   0.002
    1UNL     O2   20   0.152   0.354   0.056
    1UNL    C17   21   0.156   0.069   0.138
    1UNL    C18   22   0.124  -0.035   0.244
    1UNL    C19   23   0.029  -0.138   0.181
    1UNL     H1   24   0.322  -0.048  -0.232
    1UNL     H2   25   0.462   0.068  -0.219
    1UNL     H3   26   0.453  -0.084  -0.121
    1UNL     H4   27   0.328   0.175  -0.032
    1UNL     H5   28   0.050  -0.326  -0.089
    1UNL     H6   29   0.030  -0.407   0.064
    1UNL     H7   30  -0.198  -0.344   0.075
    1UNL     H8   31  -0.180  -0.302  -0.097
    1UNL     H9   32  -0.252   0.296  -0.037
    1UNL    H10   33  -0.438   0.238  -0.196
    1UNL    H11   34  -0.509   0.027  -0.234
    1UNL    H12   35  -0.398  -0.177  -0.144
    1UNL    H13   36  -0.003   0.190   0.200
    1UNL    H14   37  -0.036   0.334  -0.001
    1UNL    H15   38   0.087   0.240  -0.094
    1UNL    H16   39   0.149   0.371   0.154
    1UNL    H17   40   0.225   0.138   0.190
    1UNL    H18   41   0.079   0.013   0.327
    1UNL    H19   42   0.221  -0.088   0.286
    1UNL    H20   43   0.004  -0.219   0.257
   0.00000   0.00000   0.00000   0.00000   0.00000   0.00000   0.00000   0.00000   0.00000
Generated with MDTraj, t= 70.0
 43
    1UNL     C1    1   0.383   0.032  -0.157
    1UNL     C2    2   0.301   0.077  -0.052
    1UNL     C3    3   0.215   0.003   0.028
    1UNL     C4    4   0.174  -0.137  -0.009
    1UNL     O1    5   0.205  -0.173  -0.122
    1UNL     N1    6   0.099  -0.221   0.079
    1UNL     C5    7   0.015  -0.333   0.031
    1UNL     C6    8  -0.131  -0.292  -0.001
    1UNL     C7    9  -0.164  -0.151   0.028
    1UNL     C8   10  -0.083  -0.081   0.108
    1UNL     N2   11  -0.091   0.059   0.082
    1UNL     C9   12  -0.198   0.079  -0.004
    1UNL    C10   13  -0.264   0.197  -0.051
    1UNL    C11   14  -0.368   0.174  -0.133
    1UNL    C12   15  -0.408   0.048  -0.175
    1UNL    C13   16  -0.345  -0.060  -0.131
    1UNL    C14   17  -0.243  -0.053  -0.040
    1UNL    C15   18   0.024   0.155   0.106
    1UNL    C16   19   0.044   0.261  -0.011
    1UNL     O2   20   0.158   0.341   0.010
    1UNL    C17   21   0.153   0.069   0.150
    1UNL    C18   22   0.117  -0.041   0.253
    1UNL    C19   23   0.023  -0.145   0.187
    1UNL     H1   24   0.322  -0.036  -0.230
    1UNL     H2   25   0.416   0.111  -0.228
    1UNL     H3   26   0.466  -0.033  -0.136
    1UNL     H4   27   0.330   0.173  -0.016
    1UNL     H5   28   0.065  -0.376  -0.051
    1UNL     H6   29   0.014  -0.416   0.105
    1UNL     H7   30  -0.204  -0.348   0.054
    1UNL     H8   31  -0.149  -0.296  -0.106
    1UNL     H9   32  -0.236   0.296  -0.028
    1UNL    H10   33  -0.424   0.259  -0.165
    1UNL    H11   34  -0.497   0.038  -0.242
    1UNL    H12   35  -0.375  -0.155  -0.172
    1UNL    H13   36  -0.001   0.206   0.199
    1UNL    H14   37  -0.034   0.330  -0.024
    1UNL    H15   38   0.061   0.212  -0.104
    1UNL    H16   39   0.181   0.345   0.105
    1UNL    H17   40   0.226   0.140   0.194
    1UNL    H18   41   0.061   0.000   0.337
    1UNL    H19   42   0.205  -0.094   0.296
    1UNL    H20   43  -0.008  -0.229   0.258
   0.00000   0.00000   0.00000   0.00000   0.00000   0.00000   0.00000   0.00000   0.00000
Generated with MDTraj, t= 71.0
 43
    1UNL     C1    1   0.361   0.017  -0.174
    1UNL     C2    2   0.310   0.064  -0.047
    1UNL     C3    3   0.214   0.001   0.030
    1UNL     C4    4   0.172  -0.130  -0.010
    1UNL     O1    5   0.199  -0.160  -0.125
    1UNL     N1    6   0.101  -0.213   0.080
    1UNL     C5    7   0.023  -0.328   0.031
    1UNL     C6    8  -0.118  -0.278  -0.024
    1UNL     C7    9  -0.155  -0.145   0.029
    1UNL     C8   10  -0.084  -0.074   0.124
    1UNL     N2   11  -0.103   0.065   0.114
    1UNL     C9   12  -0.210   0.084   0.019
    1UNL    C10   13  -0.278   0.200  -0.038
    1UNL    C11   14  -0.374   0.176  -0.134
    1UNL    C12   15  -0.383   0.053  -0.194
    1UNL    C13   16  -0.318  -0.059  -0.149
    1UNL    C14   17  -0.240  -0.045  -0.035
    1UNL    C15   18   0.012   0.156   0.122
    1UNL    C16   19   0.036   0.221  -0.010
    1UNL     O2   20   0.151   0.309  -0.010
    1UNL    C17   21   0.146   0.077   0.155
    1UNL    C18   22   0.124  -0.038   0.253
    1UNL    C19   23   0.033  -0.143   0.191
    1UNL     H1   24   0.275   0.005  -0.252
    1UNL     H2   25   0.429   0.092  -0.224
    1UNL     H3   26   0.399  -0.083  -0.173
    1UNL     H4   27   0.366   0.155  -0.020
    1UNL     H5   28   0.078  -0.373  -0.046
    1UNL     H6   29   0.016  -0.410   0.105
    1UNL     H7   30  -0.201  -0.337   0.007
    1UNL     H8   31  -0.119  -0.262  -0.131
    1UNL     H9   32  -0.250   0.298   0.001
    1UNL    H10   33  -0.413   0.263  -0.187
    1UNL    H11   34  -0.430   0.055  -0.284
    1UNL    H12   35  -0.322  -0.148  -0.204
    1UNL    H13   36   0.001   0.231   0.198
    1UNL    H14   37  -0.052   0.265  -0.048
    1UNL    H15   38   0.056   0.151  -0.088
    1UNL    H16   39   0.113   0.385   0.041
    1UNL    H17   40   0.211   0.159   0.194
    1UNL    H18   41   0.067  -0.011   0.345
    1UNL    H19   42   0.216  -0.078   0.275
    1UNL    H20   43  -0.013  -0.212   0.271
   0.00000   0.00000   0.00000   0.00000   0.00000   0.00000   0.00000   0.00000   0.00000
Generated with MDTraj, t= 72.0
 43
    1UNL     C1    1   0.377   0.019  -0.158
    1UNL     C2    2   0.297   0.071  -0.049
    1UNL     C3    3   0.200   0.007   0.018
    1UNL     C4    4   0.169  -0.131  -0.018
    1UNL     O1    5   0.208  -0.183  -0.123
    1UNL     N1    6   0.106  -0.216   0.079
    1UNL     C5    7   0.023  -0.327   0.037
    1UNL     C6    8  -0.122  -0.288  -0.012
    1UNL     C7    9  -0.156  -0.148   0.027
    1UNL     C8   10  -0.081  -0.079   0.119
    1UNL     N2   11  -0.102   0.057   0.115
    1UNL     C9   12  -0.212   0.075   0.026
    1UNL    C10   13  -0.268   0.195  -0.025
    1UNL    C11   14  -0.350   0.188  -0.132
    1UNL    C12   15  -0.382   0.069  -0.193
    1UNL    C13   16  -0.319  -0.050  -0.151
    1UNL    C14   17  -0.238  -0.050  -0.036
    1UNL    C15   18   0.009   0.153   0.114
    1UNL    C16   19   0.022   0.231  -0.015
    1UNL     O2   20   0.138   0.316  -0.013
    1UNL    C17   21   0.139   0.073   0.142
    1UNL    C18   22   0.123  -0.032   0.247
    1UNL    C19   23   0.040  -0.143   0.188
    1UNL     H1   24   0.361   0.077  -0.254
    1UNL     H2   25   0.489   0.025  -0.139
    1UNL     H3   26   0.337  -0.080  -0.185
    1UNL     H4   27   0.336   0.164  -0.014
    1UNL     H5   28   0.071  -0.386  -0.035
    1UNL     H6   29   0.018  -0.392   0.125
    1UNL     H7   30  -0.201  -0.354   0.018
    1UNL     H8   31  -0.121  -0.276  -0.121
    1UNL     H9   32  -0.243   0.290   0.022
    1UNL    H10   33  -0.385   0.284  -0.169
    1UNL    H11   34  -0.447   0.062  -0.287
    1UNL    H12   35  -0.351  -0.148  -0.194
    1UNL    H13   36   0.005   0.220   0.197
    1UNL    H14   37  -0.065   0.283  -0.045
    1UNL    H15   38   0.028   0.165  -0.099
    1UNL    H16   39   0.113   0.407   0.020
    1UNL    H17   40   0.205   0.152   0.189
    1UNL    H18   41   0.067   0.010   0.335
    1UNL    H19   42   0.209  -0.075   0.277
    1UNL    H20   43   0.006  -0.214   0.272
   0.00000   0.00000   0.00000   0.00000   0.00000   0.00000   0.00000   0.00000   0.00000
Generated with MDTraj, t= 73.0
 43
    1UNL     C1    1   0.364   0.019  -0.154
    1UNL     C2    2   0.311   0.070  -0.034
    1UNL     C3    3   0.221   0.002   0.030
    1UNL     C4    4   0.180  -0.138  -0.018
    1UNL     O1    5   0.227  -0.192  -0.120
    1UNL     N1    6   0.091  -0.210   0.064
    1UNL     C5    7   0.010  -0.321   0.016
    1UNL     C6    8  -0.137  -0.282  -0.008
    1UNL     C7    9  -0.162  -0.143   0.032
    1UNL     C8   10  -0.084  -0.072   0.116
    1UNL     N2   11  -0.099   0.065   0.094
    1UNL     C9   12  -0.203   0.079   0.005
    1UNL    C10   13  -0.277   0.189  -0.037
    1UNL    C11   14  -0.379   0.169  -0.131
    1UNL    C12   15  -0.404   0.041  -0.188
    1UNL    C13   16  -0.336  -0.066  -0.134
    1UNL    C14   17  -0.236  -0.049  -0.042
    1UNL    C15   18   0.025   0.154   0.107
    1UNL    C16   19   0.049   0.251  -0.013
    1UNL     O2   20   0.154   0.343   0.006
    1UNL    C17   21   0.152   0.068   0.147
    1UNL    C18   22   0.121  -0.031   0.253
    1UNL    C19   23   0.033  -0.137   0.182
    1UNL     H1   24   0.444   0.071  -0.208
    1UNL     H2   25   0.415  -0.084  -0.141
    1UNL     H3   26   0.271   0.017  -0.226
    1UNL     H4   27   0.340   0.171   0.003
    1UNL     H5   28   0.051  -0.360  -0.073
    1UNL     H6   29   0.009  -0.395   0.095
    1UNL     H7   30  -0.200  -0.343   0.055
    1UNL     H8   31  -0.162  -0.294  -0.114
    1UNL     H9   32  -0.252   0.284   0.004
    1UNL    H10   33  -0.438   0.253  -0.157
    1UNL    H11   34  -0.493   0.020  -0.243
    1UNL    H12   35  -0.376  -0.159  -0.162
    1UNL    H13   36   0.007   0.209   0.196
    1UNL    H14   37  -0.041   0.298  -0.044
    1UNL    H15   38   0.070   0.189  -0.099
    1UNL    H16   39   0.162   0.392   0.090
    1UNL    H17   40   0.226   0.138   0.194
    1UNL    H18   41   0.060   0.009   0.335
    1UNL    H19   42   0.211  -0.071   0.296
    1UNL    H20   43   0.010  -0.218   0.260
   0.00000   0.00000   0.00000   0.00000   0.00000   0.00000   0.00000   0.00000   0.00000
Generated with MDTraj, t= 74.0
 43
    1UNL     C1    1   0.380   0.028  -0.151
    1UNL     C2    2   0.296   0.079  -0.045
    1UNL     C3    3   0.218   0.004   0.022
    1UNL     C4    4   0.186  -0.141  -0.016
    1UNL     O1    5   0.227  -0.193  -0.120
    1UNL     N1    6   0.098  -0.204   0.067
    1UNL     C5    7   0.022  -0.329   0.021
    1UNL     C6    8  -0.134  -0.289  -0.001
    1UNL     C7    9  -0.172  -0.143   0.033
    1UNL     C8   10  -0.085  -0.071   0.112
    1UNL     N2   11  -0.088   0.061   0.071
    1UNL     C9   12  -0.193   0.068  -0.022
    1UNL    C10   13  -0.260   0.188  -0.063
    1UNL    C11   14  -0.370   0.175  -0.146
    1UNL    C12   15  -0.431   0.044  -0.167
    1UNL    C13   16  -0.373  -0.070  -0.109
    1UNL    C14   17  -0.251  -0.055  -0.041
    1UNL    C15   18   0.023   0.154   0.108
    1UNL    C16   19   0.054   0.256  -0.004
    1UNL     O2   20   0.165   0.330   0.036
    1UNL    C17   21   0.151   0.075   0.146
    1UNL    C18   22   0.119  -0.025   0.251
    1UNL    C19   23   0.031  -0.132   0.178
    1UNL     H1   24   0.486   0.034  -0.125
    1UNL     H2   25   0.369  -0.086  -0.168
    1UNL     H3   26   0.348   0.097  -0.242
    1UNL     H4   27   0.301   0.182  -0.020
    1UNL     H5   28   0.065  -0.358  -0.072
    1UNL     H6   29   0.028  -0.406   0.093
    1UNL     H7   30  -0.189  -0.352   0.067
    1UNL     H8   31  -0.165  -0.312  -0.104
    1UNL     H9   32  -0.224   0.287  -0.029
    1UNL    H10   33  -0.424   0.263  -0.186
    1UNL    H11   34  -0.526   0.045  -0.215
    1UNL    H12   35  -0.419  -0.169  -0.110
    1UNL    H13   36  -0.025   0.202   0.189
    1UNL    H14   37  -0.034   0.316  -0.022
    1UNL    H15   38   0.072   0.199  -0.097
    1UNL    H16   39   0.171   0.345   0.133
    1UNL    H17   40   0.224   0.151   0.183
    1UNL    H18   41   0.064   0.016   0.329
    1UNL    H19   42   0.213  -0.066   0.293
    1UNL    H20   43  -0.009  -0.207   0.255
   0.00000   0.00000   0.00000   0.00000   0.00000   0.00000   0.00000   0.00000   0.00000
Generated with MDTraj, t= 75.0
 43
    1UNL     C1    1   0.382   0.011  -0.170
    1UNL     C2    2   0.310   0.069  -0.049
    1UNL     C3    3   0.214   0.009   0.019
    1UNL     C4    4   0.179  -0.137  -0.019
    1UNL     O1    5   0.211  -0.191  -0.125
    1UNL     N1    6   0.100  -0.202   0.072
    1UNL     C5    7   0.018  -0.309   0.013
    1UNL     C6    8  -0.135  -0.287   0.013
    1UNL     C7    9  -0.165  -0.140   0.034
    1UNL     C8   10  -0.083  -0.069   0.117
    1UNL     N2   11  -0.093   0.065   0.082
    1UNL     C9   12  -0.197   0.085  -0.006
    1UNL    C10   13  -0.273   0.192  -0.059
    1UNL    C11   14  -0.371   0.170  -0.155
    1UNL    C12   15  -0.415   0.032  -0.189
    1UNL    C13   16  -0.354  -0.073  -0.125
    1UNL    C14   17  -0.248  -0.046  -0.028
    1UNL    C15   18   0.027   0.148   0.116
    1UNL    C16   19   0.045   0.251   0.005
    1UNL     O2   20   0.148   0.337   0.036
    1UNL    C17   21   0.157   0.069   0.148
    1UNL    C18   22   0.127  -0.033   0.256
    1UNL    C19   23   0.032  -0.138   0.185
    1UNL     H1   24   0.468  -0.050  -0.133
    1UNL     H2   25   0.307  -0.062  -0.216
    1UNL     H3   26   0.399   0.103  -0.239
    1UNL     H4   27   0.339   0.171  -0.020
    1UNL     H5   28   0.056  -0.328  -0.086
    1UNL     H6   29   0.040  -0.391   0.076
    1UNL     H7   30  -0.190  -0.354   0.080
    1UNL     H8   31  -0.171  -0.314  -0.087
    1UNL     H9   32  -0.246   0.289  -0.026
    1UNL    H10   33  -0.415   0.248  -0.209
    1UNL    H11   34  -0.484   0.009  -0.280
    1UNL    H12   35  -0.383  -0.173  -0.152
    1UNL    H13   36   0.001   0.205   0.202
    1UNL    H14   37  -0.044   0.315  -0.001
    1UNL    H15   38   0.064   0.204  -0.094
    1UNL    H16   39   0.140   0.364   0.133
    1UNL    H17   40   0.232   0.144   0.185
    1UNL    H18   41   0.090   0.011   0.340
    1UNL    H19   42   0.221  -0.088   0.289
    1UNL    H20   43  -0.010  -0.216   0.256
   0.00000   0.00000   0.00000   0.00000   0.00000   0.00000   0.00000   0.00000   0.00000
Generated with MDTraj, t= 76.0
 43
    1UNL     C1    1   0.371   0.027  -0.181
    1UNL     C2    2   0.295   0.072  -0.057
    1UNL     C3    3   0.199   0.012   0.011
    1UNL     C4    4   0.159  -0.131  -0.019
    1UNL     O1    5   0.178  -0.185  -0.125
    1UNL     N1    6   0.097  -0.210   0.078
    1UNL     C5    7   0.020  -0.335   0.035
    1UNL     C6    8  -0.129  -0.295   0.007
    1UNL     C7    9  -0.163  -0.151   0.045
    1UNL     C8   10  -0.083  -0.074   0.123
    1UNL     N2   11  -0.088   0.058   0.091
    1UNL     C9   12  -0.196   0.081   0.008
    1UNL    C10   13  -0.262   0.194  -0.046
    1UNL    C11   14  -0.351   0.181  -0.151
    1UNL    C12   15  -0.368   0.046  -0.206
    1UNL    C13   16  -0.318  -0.067  -0.142
    1UNL    C14   17  -0.240  -0.052  -0.026
    1UNL    C15   18   0.022   0.152   0.124
    1UNL    C16   19   0.030   0.251   0.010
    1UNL     O2   20   0.141   0.338   0.013
    1UNL    C17   21   0.154   0.068   0.143
    1UNL    C18   22   0.127  -0.035   0.252
    1UNL    C19   23   0.034  -0.141   0.193
    1UNL     H1   24   0.357  -0.087  -0.206
    1UNL     H2   25   0.322   0.087  -0.263
    1UNL     H3   26   0.480   0.058  -0.172
    1UNL     H4   27   0.320   0.170  -0.025
    1UNL     H5   28   0.072  -0.357  -0.056
    1UNL     H6   29   0.029  -0.417   0.100
    1UNL     H7   30  -0.193  -0.363   0.063
    1UNL     H8   31  -0.161  -0.321  -0.095
    1UNL     H9   32  -0.261   0.292   0.001
    1UNL    H10   33  -0.385   0.277  -0.196
    1UNL    H11   34  -0.430   0.040  -0.286
    1UNL    H12   35  -0.324  -0.170  -0.176
    1UNL    H13   36   0.000   0.208   0.213
    1UNL    H14   37  -0.055   0.320   0.001
    1UNL    H15   38   0.037   0.196  -0.089
    1UNL    H16   39   0.111   0.426   0.048
    1UNL    H17   40   0.235   0.134   0.182
    1UNL    H18   41   0.089   0.009   0.341
    1UNL    H19   42   0.220  -0.088   0.285
    1UNL    H20   43   0.005  -0.219   0.269
   0.00000   0.00000   0.00000   0.00000   0.00000   0.00000   0.00000   0.00000   0.00000
Generated with MDTraj, t= 77.0
 43
    1UNL     C1    1   0.323   0.025  -0.195
    1UNL     C2    2   0.279   0.074  -0.065
    1UNL     C3    3   0.202   0.007   0.020
    1UNL     C4    4   0.157  -0.130  -0.010
    1UNL     O1    5   0.172  -0.174  -0.121
    1UNL     N1    6   0.099  -0.210   0.087
    1UNL     C5    7   0.027  -0.330   0.041
    1UNL     C6    8  -0.108  -0.284  -0.014
    1UNL     C7    9  -0.161  -0.152   0.041
    1UNL     C8   10  -0.089  -0.074   0.130
    1UNL     N2   11  -0.092   0.061   0.094
    1UNL     C9   12  -0.199   0.076   0.007
    1UNL    C10   13  -0.257   0.186  -0.041
    1UNL    C11   14  -0.350   0.170  -0.146
    1UNL    C12   15  -0.357   0.048  -0.209
    1UNL    C13   16  -0.307  -0.068  -0.152
    1UNL    C14   17  -0.238  -0.056  -0.030
    1UNL    C15   18   0.016   0.157   0.124
    1UNL    C16   19   0.039   0.253   0.009
    1UNL     O2   20   0.167   0.321   0.017
    1UNL    C17   21   0.152   0.074   0.148
    1UNL    C18   22   0.122  -0.030   0.256
    1UNL    C19   23   0.030  -0.139   0.195
    1UNL     H1   24   0.245   0.021  -0.285
    1UNL     H2   25   0.401   0.091  -0.240
    1UNL     H3   26   0.355  -0.083  -0.205
    1UNL     H4   27   0.297   0.180  -0.041
    1UNL     H5   28   0.085  -0.366  -0.042
    1UNL     H6   29   0.029  -0.400   0.118
    1UNL     H7   30  -0.185  -0.359   0.010
    1UNL     H8   31  -0.117  -0.285  -0.123
    1UNL     H9   32  -0.226   0.281   0.001
    1UNL    H10   33  -0.414   0.249  -0.169
    1UNL    H11   34  -0.416   0.031  -0.301
    1UNL    H12   35  -0.332  -0.169  -0.180
    1UNL    H13   36  -0.018   0.212   0.212
    1UNL    H14   37  -0.039   0.332  -0.000
    1UNL    H15   38   0.042   0.195  -0.088
    1UNL    H16   39   0.157   0.403   0.067
    1UNL    H17   40   0.234   0.137   0.188
    1UNL    H18   41   0.072   0.016   0.347
    1UNL    H19   42   0.212  -0.077   0.297
    1UNL    H20   43  -0.006  -0.211   0.271
   0.00000   0.00000   0.00000   0.00000   0.00000   0.00000   0.00000   0.00000   0.00000
Generated with MDTraj, t= 78.0
 43
    1UNL     C1    1   0.324   0.036  -0.198
    1UNL     C2    2   0.269   0.075  -0.070
    1UNL     C3    3   0.201  -0.003   0.018
    1UNL     C4    4   0.171  -0.144  -0.011
    1UNL     O1    5   0.200  -0.200  -0.113
    1UNL     N1    6   0.103  -0.220   0.087
    1UNL     C5    7   0.013  -0.325   0.048
    1UNL     C6    8  -0.126  -0.286   0.004
    1UNL     C7    9  -0.161  -0.147   0.037
    1UNL     C8   10  -0.078  -0.074   0.126
    1UNL     N2   11  -0.087   0.062   0.098
    1UNL     C9   12  -0.187   0.079  -0.009
    1UNL    C10   13  -0.253   0.191  -0.062
    1UNL    C11   14  -0.356   0.171  -0.153
    1UNL    C12   15  -0.387   0.044  -0.198
    1UNL    C13   16  -0.322  -0.065  -0.151
    1UNL    C14   17  -0.225  -0.048  -0.052
    1UNL    C15   18   0.023   0.151   0.119
    1UNL    C16   19   0.035   0.267   0.018
    1UNL     O2   20   0.144   0.354   0.051
    1UNL    C17   21   0.157   0.066   0.142
    1UNL    C18   22   0.134  -0.040   0.251
    1UNL    C19   23   0.037  -0.142   0.193
    1UNL     H1   24   0.283   0.085  -0.295
    1UNL     H2   25   0.435   0.051  -0.211
    1UNL     H3   26   0.301  -0.070  -0.236
    1UNL     H4   27   0.298   0.176  -0.047
    1UNL     H5   28   0.063  -0.382  -0.028
    1UNL     H6   29   0.008  -0.377   0.137
    1UNL     H7   30  -0.206  -0.358   0.030
    1UNL     H8   31  -0.136  -0.293  -0.105
    1UNL     H9   32  -0.226   0.292  -0.043
    1UNL    H10   33  -0.416   0.259  -0.193
    1UNL    H11   34  -0.474   0.023  -0.262
    1UNL    H12   35  -0.360  -0.164  -0.170
    1UNL    H13   36  -0.014   0.199   0.211
    1UNL    H14   37  -0.058   0.328   0.021
    1UNL    H15   38   0.046   0.222  -0.086
    1UNL    H16   39   0.196   0.376  -0.030
    1UNL    H17   40   0.240   0.130   0.175
    1UNL    H18   41   0.107   0.011   0.357
    1UNL    H19   42   0.224  -0.093   0.276
    1UNL    H20   43  -0.002  -0.207   0.272
   0.00000   0.00000   0.00000   0.00000   0.00000   0.00000   0.00000   0.00000   0.00000
Generated with MDTraj, t= 79.0
 43
    1UNL     C1    1   0.330   0.016  -0.204
    1UNL     C2    2   0.270   0.072  -0.081
    1UNL     C3    3   0.212  -0.007   0.017
    1UNL     C4    4   0.195  -0.146  -0.010
    1UNL     O1    5   0.240  -0.206  -0.104
    1UNL     N1    6   0.100  -0.215   0.074
    1UNL     C5    7   0.015  -0.328   0.033
    1UNL     C6    8  -0.139  -0.288   0.014
    1UNL     C7    9  -0.166  -0.141   0.043
    1UNL     C8   10  -0.077  -0.074   0.125
    1UNL     N2   11  -0.097   0.064   0.090
    1UNL     C9   12  -0.204   0.079  -0.005
    1UNL    C10   13  -0.265   0.189  -0.076
    1UNL    C11   14  -0.358   0.171  -0.173
    1UNL    C12   15  -0.399   0.041  -0.196
    1UNL    C13   16  -0.348  -0.067  -0.138
    1UNL    C14   17  -0.247  -0.051  -0.038
    1UNL    C15   18   0.018   0.153   0.117
    1UNL    C16   19   0.047   0.276   0.030
    1UNL     O2   20   0.154   0.352   0.076
    1UNL    C17   21   0.156   0.077   0.132
    1UNL    C18   22   0.139  -0.027   0.239
    1UNL    C19   23   0.040  -0.134   0.192
    1UNL     H1   24   0.325   0.090  -0.286
    1UNL     H2   25   0.440  -0.010  -0.179
    1UNL     H3   26   0.262  -0.069  -0.237
    1UNL     H4   27   0.286   0.180  -0.070
    1UNL     H5   28   0.055  -0.349  -0.066
    1UNL     H6   29   0.029  -0.404   0.101
    1UNL     H7   30  -0.209  -0.343   0.081
    1UNL     H8   31  -0.181  -0.321  -0.082
    1UNL     H9   32  -0.228   0.290  -0.058
    1UNL    H10   33  -0.378   0.245  -0.241
    1UNL    H11   34  -0.472   0.030  -0.267
    1UNL    H12   35  -0.367  -0.168  -0.170
    1UNL    H13   36  -0.007   0.206   0.214
    1UNL    H14   37  -0.042   0.342   0.036
    1UNL    H15   38   0.057   0.245  -0.078
    1UNL    H16   39   0.153   0.356   0.176
    1UNL    H17   40   0.229   0.150   0.167
    1UNL    H18   41   0.104   0.028   0.339
    1UNL    H19   42   0.231  -0.073   0.273
    1UNL    H20   43   0.014  -0.202   0.272
   0.00000   0.00000   0.00000   0.00000   0.00000   0.00000   0.00000   0.00000   0.00000
Generated with MDTraj, t= 80.0
 43
    1UNL     C1    1   0.312   0.029  -0.198
    1UNL     C2    2   0.263   0.078  -0.073
    1UNL     C3    3   0.203  -0.004   0.019
    1UNL     C4    4   0.186  -0.149  -0.008
    1UNL     O1    5   0.233  -0.203  -0.106
    1UNL     N1    6   0.100  -0.222   0.080
    1UNL     C5    7   0.011  -0.327   0.024
    1UNL     C6    8  -0.136  -0.288   0.013
    1UNL     C7    9  -0.157  -0.147   0.036
    1UNL     C8   10  -0.077  -0.070   0.117
    1UNL     N2   11  -0.097   0.063   0.092
    1UNL     C9   12  -0.186   0.073  -0.016
    1UNL    C10   13  -0.238   0.183  -0.082
    1UNL    C11   14  -0.341   0.166  -0.162
    1UNL    C12   15  -0.401   0.042  -0.185
    1UNL    C13   16  -0.347  -0.073  -0.138
    1UNL    C14   17  -0.245  -0.057  -0.037
    1UNL    C15   18   0.018   0.162   0.123
    1UNL    C16   19   0.044   0.280   0.030
    1UNL     O2   20   0.158   0.354   0.058
    1UNL    C17   21   0.156   0.074   0.142
    1UNL    C18   22   0.133  -0.031   0.250
    1UNL    C19   23   0.036  -0.139   0.187
    1UNL     H1   24   0.421   0.037  -0.219
    1UNL     H2   25   0.292  -0.085  -0.206
    1UNL     H3   26   0.254   0.083  -0.279
    1UNL     H4   27   0.270   0.184  -0.054
    1UNL     H5   28   0.038  -0.338  -0.081
    1UNL     H6   29   0.025  -0.411   0.084
    1UNL     H7   30  -0.191  -0.350   0.086
    1UNL     H8   31  -0.181  -0.318  -0.082
    1UNL     H9   32  -0.206   0.282  -0.062
    1UNL    H10   33  -0.397   0.248  -0.214
    1UNL    H11   34  -0.487   0.043  -0.263
    1UNL    H12   35  -0.387  -0.170  -0.164
    1UNL    H13   36   0.005   0.212   0.225
    1UNL    H14   37  -0.044   0.345   0.026
    1UNL    H15   38   0.056   0.243  -0.074
    1UNL    H16   39   0.132   0.448   0.066
    1UNL    H17   40   0.240   0.138   0.169
    1UNL    H18   41   0.094   0.004   0.350
    1UNL    H19   42   0.231  -0.074   0.282
    1UNL    H20   43  -0.012  -0.195   0.265
   0.00000   0.00000   0.00000   0.00000   0.00000   0.00000   0.00000   0.00000   0.00000
Generated with MDTraj, t= 81.0
 43
    1UNL     C1    1   0.303   0.037  -0.199
    1UNL     C2    2   0.272   0.083  -0.066
    1UNL     C3    3   0.195   0.011   0.016
    1UNL     C4    4   0.161  -0.136  -0.019
    1UNL     O1    5   0.201  -0.190  -0.120
    1UNL     N1    6   0.101  -0.209   0.082
    1UNL     C5    7   0.015  -0.328   0.044
    1UNL     C6    8  -0.133  -0.291  -0.000
    1UNL     C7    9  -0.163  -0.145   0.040
    1UNL     C8   10  -0.082  -0.076   0.129
    1UNL     N2   11  -0.097   0.062   0.105
    1UNL     C9   12  -0.192   0.071   0.006
    1UNL    C10   13  -0.243   0.181  -0.068
    1UNL    C11   14  -0.340   0.160  -0.158
    1UNL    C12   15  -0.377   0.037  -0.200
    1UNL    C13   16  -0.317  -0.076  -0.154
    1UNL    C14   17  -0.235  -0.057  -0.040
    1UNL    C15   18   0.017   0.165   0.124
    1UNL    C16   19   0.047   0.269   0.019
    1UNL     O2   20   0.171   0.334   0.044
    1UNL    C17   21   0.145   0.072   0.149
    1UNL    C18   22   0.140  -0.034   0.252
    1UNL    C19   23   0.036  -0.139   0.193
    1UNL     H1   24   0.324  -0.072  -0.209
    1UNL     H2   25   0.209   0.046  -0.262
    1UNL     H3   26   0.388   0.083  -0.258
    1UNL     H4   27   0.293   0.183  -0.031
    1UNL     H5   28   0.068  -0.374  -0.038
    1UNL     H6   29   0.008  -0.392   0.127
    1UNL     H7   30  -0.208  -0.361   0.042
    1UNL     H8   31  -0.145  -0.306  -0.108
    1UNL     H9   32  -0.227   0.284  -0.034
    1UNL    H10   33  -0.386   0.250  -0.200
    1UNL    H11   34  -0.462   0.025  -0.257
    1UNL    H12   35  -0.345  -0.175  -0.188
    1UNL    H13   36  -0.009   0.223   0.220
    1UNL    H14   37  -0.029   0.346   0.015
    1UNL    H15   38   0.046   0.219  -0.078
    1UNL    H16   39   0.175   0.424   0.007
    1UNL    H17   40   0.223   0.143   0.171
    1UNL    H18   41   0.108   0.011   0.344
    1UNL    H19   42   0.237  -0.090   0.285
    1UNL    H20   43  -0.006  -0.198   0.270
   0.00000   0.00000   0.00000   0.00000   0.00000   0.00000   0.00000   0.00000   0.00000
Generated with MDTraj, t= 82.0
 43
    1UNL     C1    1   0.329   0.020  -0.195
    1UNL     C2    2   0.278   0.076  -0.068
    1UNL     C3    3   0.189   0.014   0.008
    1UNL     C4    4   0.146  -0.132  -0.022
    1UNL     O1    5   0.163  -0.180  -0.132
    1UNL     N1    6   0.100  -0.214   0.086
    1UNL     C5    7   0.021  -0.340   0.058
    1UNL     C6    8  -0.122  -0.304   0.005
    1UNL     C7    9  -0.150  -0.151   0.038
    1UNL     C8   10  -0.080  -0.080   0.133
    1UNL     N2   11  -0.095   0.053   0.103
    1UNL     C9   12  -0.197   0.073   0.013
    1UNL    C10   13  -0.250   0.191  -0.051
    1UNL    C11   14  -0.333   0.172  -0.159
    1UNL    C12   15  -0.358   0.047  -0.210
    1UNL    C13   16  -0.303  -0.064  -0.155
    1UNL    C14   17  -0.226  -0.051  -0.039
    1UNL    C15   18   0.015   0.160   0.128
    1UNL    C16   19   0.025   0.262   0.026
    1UNL     O2   20   0.143   0.342   0.039
    1UNL    C17   21   0.150   0.078   0.139
    1UNL    C18   22   0.147  -0.027   0.241
    1UNL    C19   23   0.038  -0.137   0.199
    1UNL     H1   24   0.281  -0.081  -0.207
    1UNL     H2   25   0.289   0.086  -0.274
    1UNL     H3   26   0.443   0.001  -0.192
    1UNL     H4   27   0.307   0.175  -0.038
    1UNL     H5   28   0.077  -0.400  -0.010
    1UNL     H6   29   0.010  -0.394   0.150
    1UNL     H7   30  -0.200  -0.370   0.050
    1UNL     H8   31  -0.133  -0.326  -0.101
    1UNL     H9   32  -0.227   0.294  -0.033
    1UNL    H10   33  -0.376   0.248  -0.215
    1UNL    H11   34  -0.426   0.043  -0.295
    1UNL    H12   35  -0.330  -0.154  -0.205
    1UNL    H13   36  -0.009   0.212   0.229
    1UNL    H14   37  -0.061   0.325   0.024
    1UNL    H15   38   0.036   0.215  -0.070
    1UNL    H16   39   0.171   0.386  -0.047
    1UNL    H17   40   0.233   0.144   0.159
    1UNL    H18   41   0.134   0.010   0.339
    1UNL    H19   42   0.249  -0.087   0.251
    1UNL    H20   43   0.017  -0.204   0.277
   0.00000   0.00000   0.00000   0.00000   0.00000   0.00000   0.00000   0.00000   0.00000
Generated with MDTraj, t= 83.0
 43
    1UNL     C1    1   0.342   0.011  -0.193
    1UNL     C2    2   0.285   0.069  -0.063
    1UNL     C3    3   0.193   0.010   0.010
    1UNL     C4    4   0.160  -0.129  -0.020
    1UNL     O1    5   0.176  -0.167  -0.133
    1UNL     N1    6   0.098  -0.211   0.079
    1UNL     C5    7   0.016  -0.329   0.039
    1UNL     C6    8  -0.125  -0.288   0.012
    1UNL     C7    9  -0.159  -0.140   0.046
    1UNL     C8   10  -0.074  -0.070   0.125
    1UNL     N2   11  -0.093   0.066   0.094
    1UNL     C9   12  -0.200   0.077   0.002
    1UNL    C10   13  -0.268   0.187  -0.053
    1UNL    C11   14  -0.346   0.158  -0.157
    1UNL    C12   15  -0.365   0.032  -0.210
    1UNL    C13   16  -0.323  -0.082  -0.142
    1UNL    C14   17  -0.238  -0.057  -0.031
    1UNL    C15   18   0.020   0.162   0.124
    1UNL    C16   19   0.039   0.263   0.020
    1UNL     O2   20   0.150   0.346   0.048
    1UNL    C17   21   0.152   0.074   0.146
    1UNL    C18   22   0.145  -0.039   0.250
    1UNL    C19   23   0.038  -0.141   0.192
    1UNL     H1   24   0.257  -0.042  -0.248
    1UNL     H2   25   0.373   0.099  -0.251
    1UNL     H3   26   0.415  -0.075  -0.160
    1UNL     H4   27   0.315   0.168  -0.032
    1UNL     H5   28   0.057  -0.366  -0.051
    1UNL     H6   29   0.021  -0.407   0.115
    1UNL     H7   30  -0.197  -0.354   0.064
    1UNL     H8   31  -0.153  -0.300  -0.092
    1UNL     H9   32  -0.241   0.289  -0.037
    1UNL    H10   33  -0.395   0.242  -0.222
    1UNL    H11   34  -0.412   0.024  -0.311
    1UNL    H12   35  -0.355  -0.180  -0.178
    1UNL    H13   36  -0.004   0.220   0.221
    1UNL    H14   37  -0.044   0.331   0.019
    1UNL    H15   38   0.038   0.214  -0.076
    1UNL    H16   39   0.166   0.409  -0.027
    1UNL    H17   40   0.231   0.139   0.180
    1UNL    H18   41   0.135  -0.023   0.354
    1UNL    H19   42   0.246  -0.096   0.240
    1UNL    H20   43  -0.003  -0.207   0.264
   0.00000   0.00000   0.00000   0.00000   0.00000   0.00000   0.00000   0.00000   0.00000
Generated with MDTraj, t= 84.0
 43
    1UNL     C1    1   0.358   0.037  -0.184
    1UNL     C2    2   0.289   0.082  -0.055
    1UNL     C3    3   0.204   0.013   0.018
    1UNL     C4    4   0.176  -0.132  -0.012
    1UNL     O1    5   0.205  -0.175  -0.120
    1UNL     N1    6   0.101  -0.208   0.076
    1UNL     C5    7   0.021  -0.325   0.028
    1UNL     C6    8  -0.138  -0.297   0.019
    1UNL     C7    9  -0.170  -0.150   0.048
    1UNL     C8   10  -0.078  -0.074   0.114
    1UNL     N2   11  -0.087   0.057   0.078
    1UNL     C9   12  -0.185   0.071  -0.020
    1UNL    C10   13  -0.253   0.182  -0.078
    1UNL    C11   14  -0.357   0.164  -0.163
    1UNL    C12   15  -0.406   0.033  -0.185
    1UNL    C13   16  -0.363  -0.074  -0.114
    1UNL    C14   17  -0.246  -0.053  -0.034
    1UNL    C15   18   0.018   0.152   0.117
    1UNL    C16   19   0.046   0.264   0.015
    1UNL     O2   20   0.166   0.337   0.039
    1UNL    C17   21   0.154   0.071   0.148
    1UNL    C18   22   0.135  -0.038   0.250
    1UNL    C19   23   0.034  -0.142   0.187
    1UNL     H1   24   0.366   0.121  -0.263
    1UNL     H2   25   0.461   0.007  -0.162
    1UNL     H3   26   0.297  -0.044  -0.239
    1UNL     H4   27   0.308   0.186  -0.028
    1UNL     H5   28   0.053  -0.351  -0.068
    1UNL     H6   29   0.041  -0.409   0.097
    1UNL     H7   30  -0.198  -0.360   0.087
    1UNL     H8   31  -0.173  -0.327  -0.080
    1UNL     H9   32  -0.231   0.283  -0.037
    1UNL    H10   33  -0.387   0.251  -0.206
    1UNL    H11   34  -0.489   0.030  -0.245
    1UNL    H12   35  -0.412  -0.167  -0.124
    1UNL    H13   36  -0.025   0.200   0.212
    1UNL    H14   37  -0.045   0.324   0.013
    1UNL    H15   38   0.052   0.229  -0.088
    1UNL    H16   39   0.147   0.432   0.033
    1UNL    H17   40   0.230   0.140   0.183
    1UNL    H18   41   0.087   0.006   0.337
    1UNL    H19   42   0.222  -0.102   0.277
    1UNL    H20   43  -0.013  -0.206   0.258
   0.00000   0.00000   0.00000   0.00000   0.00000   0.00000   0.00000   0.00000   0.00000
Generated with MDTraj, t= 85.0
 43
    1UNL     C1    1   0.367   0.028  -0.182
    1UNL     C2    2   0.302   0.078  -0.059
    1UNL     C3    3   0.219   0.010   0.017
    1UNL     C4    4   0.182  -0.132  -0.011
    1UNL     O1    5   0.230  -0.195  -0.103
    1UNL     N1    6   0.091  -0.202   0.066
    1UNL     C5    7   0.016  -0.312   0.012
    1UNL     C6    8  -0.136  -0.294   0.006
    1UNL     C7    9  -0.170  -0.148   0.041
    1UNL     C8   10  -0.088  -0.074   0.127
    1UNL     N2   11  -0.088   0.055   0.082
    1UNL     C9   12  -0.197   0.079  -0.005
    1UNL    C10   13  -0.268   0.180  -0.065
    1UNL    C11   14  -0.370   0.159  -0.158
    1UNL    C12   15  -0.421   0.032  -0.179
    1UNL    C13   16  -0.355  -0.074  -0.121
    1UNL    C14   17  -0.246  -0.054  -0.033
    1UNL    C15   18   0.019   0.150   0.112
    1UNL    C16   19   0.049   0.262   0.014
    1UNL     O2   20   0.156   0.344   0.045
    1UNL    C17   21   0.159   0.073   0.134
    1UNL    C18   22   0.126  -0.024   0.250
    1UNL    C19   23   0.033  -0.135   0.188
    1UNL     H1   24   0.479  -0.002  -0.179
    1UNL     H2   25   0.322  -0.065  -0.222
    1UNL     H3   26   0.379   0.103  -0.266
    1UNL     H4   27   0.339   0.176  -0.035
    1UNL     H5   28   0.054  -0.331  -0.083
    1UNL     H6   29   0.032  -0.401   0.078
    1UNL     H7   30  -0.177  -0.363   0.082
    1UNL     H8   31  -0.187  -0.322  -0.087
    1UNL     H9   32  -0.241   0.274  -0.028
    1UNL    H10   33  -0.425   0.242  -0.206
    1UNL    H11   34  -0.512   0.022  -0.247
    1UNL    H12   35  -0.392  -0.176  -0.134
    1UNL    H13   36  -0.016   0.198   0.209
    1UNL    H14   37  -0.035   0.331   0.001
    1UNL    H15   38   0.064   0.210  -0.082
    1UNL    H16   39   0.191   0.384  -0.039
    1UNL    H17   40   0.235   0.143   0.169
    1UNL    H18   41   0.071   0.027   0.332
    1UNL    H19   42   0.206  -0.081   0.285
    1UNL    H20   43   0.020  -0.216   0.257
   0.00000   0.00000   0.00000   0.00000   0.00000   0.00000   0.00000   0.00000   0.00000
Generated with MDTraj, t= 86.0
 43
    1UNL     C1    1   0.378   0.023  -0.176
    1UNL     C2    2   0.291   0.074  -0.061
    1UNL     C3    3   0.214  -0.003   0.014
    1UNL     C4    4   0.182  -0.137  -0.013
    1UNL     O1    5   0.218  -0.205  -0.109
    1UNL     N1    6   0.096  -0.207   0.076
    1UNL     C5    7   0.023  -0.325   0.025
    1UNL     C6    8  -0.121  -0.288  -0.002
    1UNL     C7    9  -0.152  -0.143   0.026
    1UNL     C8   10  -0.082  -0.068   0.117
    1UNL     N2   11  -0.097   0.069   0.099
    1UNL     C9   12  -0.206   0.071   0.008
    1UNL    C10   13  -0.272   0.186  -0.036
    1UNL    C11   14  -0.368   0.172  -0.131
    1UNL    C12   15  -0.401   0.043  -0.182
    1UNL    C13   16  -0.336  -0.070  -0.141
    1UNL    C14   17  -0.236  -0.054  -0.040
    1UNL    C15   18   0.018   0.158   0.115
    1UNL    C16   19   0.035   0.249  -0.009
    1UNL     O2   20   0.130   0.348   0.007
    1UNL    C17   21   0.156   0.071   0.138
    1UNL    C18   22   0.122  -0.026   0.258
    1UNL    C19   23   0.031  -0.132   0.192
    1UNL     H1   24   0.362  -0.080  -0.228
    1UNL     H2   25   0.374   0.092  -0.266
    1UNL     H3   26   0.478   0.020  -0.130
    1UNL     H4   27   0.309   0.177  -0.035
    1UNL     H5   28   0.065  -0.353  -0.069
    1UNL     H6   29   0.039  -0.412   0.092
    1UNL     H7   30  -0.193  -0.341   0.062
    1UNL     H8   31  -0.151  -0.322  -0.102
    1UNL     H9   32  -0.247   0.285   0.006
    1UNL    H10   33  -0.417   0.268  -0.163
    1UNL    H11   34  -0.474   0.031  -0.255
    1UNL    H12   35  -0.356  -0.168  -0.180
    1UNL    H13   36  -0.012   0.223   0.202
    1UNL    H14   37  -0.062   0.303  -0.016
    1UNL    H15   38   0.058   0.193  -0.104
    1UNL    H16   39   0.130   0.381   0.102
    1UNL    H17   40   0.234   0.132   0.185
    1UNL    H18   41   0.067   0.028   0.342
    1UNL    H19   42   0.205  -0.076   0.284
    1UNL    H20   43  -0.007  -0.200   0.266
   0.00000   0.00000   0.00000   0.00000   0.00000   0.00000   0.00000   0.00000   0.00000
Generated with MDTraj, t= 87.0
 43
    1UNL     C1    1   0.363   0.022  -0.181
    1UNL     C2    2   0.302   0.076  -0.049
    1UNL     C3    3   0.214   0.004   0.025
    1UNL     C4    4   0.183  -0.135  -0.008
    1UNL     O1    5   0.185  -0.191  -0.122
    1UNL     N1    6   0.109  -0.207   0.089
    1UNL     C5    7   0.035  -0.322   0.036
    1UNL     C6    8  -0.101  -0.283  -0.027
    1UNL     C7    9  -0.148  -0.145   0.018
    1UNL     C8   10  -0.079  -0.070   0.115
    1UNL     N2   11  -0.104   0.069   0.112
    1UNL     C9   12  -0.213   0.078   0.023
    1UNL    C10   13  -0.280   0.188  -0.021
    1UNL    C11   14  -0.374   0.173  -0.125
    1UNL    C12   15  -0.388   0.043  -0.191
    1UNL    C13   16  -0.332  -0.071  -0.142
    1UNL    C14   17  -0.238  -0.052  -0.041
    1UNL    C15   18   0.018   0.155   0.114
    1UNL    C16   19   0.034   0.231  -0.016
    1UNL     O2   20   0.145   0.323  -0.009
    1UNL    C17   21   0.156   0.077   0.148
    1UNL    C18   22   0.112  -0.022   0.256
    1UNL    C19   23   0.028  -0.134   0.190
    1UNL     H1   24   0.323   0.068  -0.278
    1UNL     H2   25   0.475   0.043  -0.190
    1UNL     H3   26   0.349  -0.087  -0.174
    1UNL     H4   27   0.329   0.176  -0.023
    1UNL     H5   28   0.096  -0.368  -0.040
    1UNL     H6   29   0.029  -0.393   0.119
    1UNL     H7   30  -0.173  -0.362  -0.010
    1UNL     H8   31  -0.096  -0.277  -0.137
    1UNL     H9   32  -0.261   0.285   0.023
    1UNL    H10   33  -0.419   0.256  -0.162
    1UNL    H11   34  -0.459   0.044  -0.275
    1UNL    H12   35  -0.354  -0.167  -0.184
    1UNL    H13   36  -0.005   0.232   0.189
    1UNL    H14   37  -0.054   0.294  -0.047
    1UNL    H15   38   0.059   0.153  -0.095
    1UNL    H16   39   0.121   0.414   0.016
    1UNL    H17   40   0.232   0.145   0.193
    1UNL    H18   41   0.046   0.035   0.326
    1UNL    H19   42   0.197  -0.065   0.298
    1UNL    H20   43  -0.012  -0.196   0.271
   0.00000   0.00000   0.00000   0.00000   0.00000   0.00000   0.00000   0.00000   0.00000
Generated with MDTraj, t= 88.0
 43
    1UNL     C1    1   0.378   0.039  -0.170
    1UNL     C2    2   0.309   0.081  -0.047
    1UNL     C3    3   0.212   0.012   0.021
    1UNL     C4    4   0.172  -0.128  -0.012
    1UNL     O1    5   0.192  -0.176  -0.126
    1UNL     N1    6   0.105  -0.205   0.078
    1UNL     C5    7   0.029  -0.323   0.028
    1UNL     C6    8  -0.120  -0.290  -0.004
    1UNL     C7    9  -0.155  -0.147   0.030
    1UNL     C8   10  -0.085  -0.081   0.124
    1UNL     N2   11  -0.095   0.058   0.103
    1UNL     C9   12  -0.206   0.077   0.016
    1UNL    C10   13  -0.278   0.189  -0.038
    1UNL    C11   14  -0.367   0.172  -0.143
    1UNL    C12   15  -0.400   0.043  -0.185
    1UNL    C13   16  -0.336  -0.068  -0.133
    1UNL    C14   17  -0.233  -0.050  -0.034
    1UNL    C15   18   0.021   0.157   0.114
    1UNL    C16   19   0.027   0.232  -0.011
    1UNL     O2   20   0.141   0.319  -0.022
    1UNL    C17   21   0.153   0.076   0.150
    1UNL    C18   22   0.118  -0.029   0.263
    1UNL    C19   23   0.033  -0.142   0.191
    1UNL     H1   24   0.446   0.113  -0.224
    1UNL     H2   25   0.453  -0.046  -0.146
    1UNL     H3   26   0.308  -0.002  -0.244
    1UNL     H4   27   0.346   0.171   0.003
    1UNL     H5   28   0.084  -0.357  -0.062
    1UNL     H6   29   0.036  -0.403   0.102
    1UNL     H7   30  -0.190  -0.359   0.041
    1UNL     H8   31  -0.137  -0.305  -0.112
    1UNL     H9   32  -0.250   0.287  -0.012
    1UNL    H10   33  -0.425   0.262  -0.187
    1UNL    H11   34  -0.470   0.026  -0.267
    1UNL    H12   35  -0.359  -0.175  -0.146
    1UNL    H13   36  -0.006   0.222   0.197
    1UNL    H14   37  -0.064   0.296  -0.024
    1UNL    H15   38   0.043   0.161  -0.098
    1UNL    H16   39   0.182   0.339   0.064
    1UNL    H17   40   0.237   0.144   0.182
    1UNL    H18   41   0.064   0.031   0.334
    1UNL    H19   42   0.208  -0.078   0.305
    1UNL    H20   43   0.013  -0.227   0.260
   0.00000   0.00000   0.00000   0.00000   0.00000   0.00000   0.00000   0.00000   0.00000
Generated with MDTraj, t= 89.0
 43
    1UNL     C1    1   0.409   0.029  -0.156
    1UNL     C2    2   0.319   0.071  -0.050
    1UNL     C3    3   0.219   0.007   0.015
    1UNL     C4    4   0.171  -0.125  -0.023
    1UNL     O1    5   0.216  -0.165  -0.133
    1UNL     N1    6   0.086  -0.192   0.062
    1UNL     C5    7   0.013  -0.317   0.007
    1UNL     C6    8  -0.141  -0.291   0.019
    1UNL     C7    9  -0.170  -0.150   0.054
    1UNL     C8   10  -0.091  -0.069   0.135
    1UNL     N2   11  -0.098   0.060   0.090
    1UNL     C9   12  -0.206   0.070   0.004
    1UNL    C10   13  -0.274   0.180  -0.054
    1UNL    C11   14  -0.376   0.161  -0.143
    1UNL    C12   15  -0.408   0.026  -0.185
    1UNL    C13   16  -0.350  -0.081  -0.121
    1UNL    C14   17  -0.249  -0.061  -0.024
    1UNL    C15   18   0.024   0.154   0.105
    1UNL    C16   19   0.050   0.242  -0.013
    1UNL     O2   20   0.144   0.343   0.014
    1UNL    C17   21   0.157   0.072   0.144
    1UNL    C18   22   0.130  -0.034   0.247
    1UNL    C19   23   0.033  -0.132   0.185
    1UNL     H1   24   0.510   0.080  -0.149
    1UNL     H2   25   0.439  -0.078  -0.130
    1UNL     H3   26   0.385   0.048  -0.264
    1UNL     H4   27   0.330   0.167  -0.005
    1UNL     H5   28   0.050  -0.326  -0.099
    1UNL     H6   29   0.044  -0.402   0.064
    1UNL     H7   30  -0.178  -0.344   0.105
    1UNL     H8   31  -0.199  -0.333  -0.065
    1UNL     H9   32  -0.253   0.283  -0.017
    1UNL    H10   33  -0.424   0.245  -0.184
    1UNL    H11   34  -0.483   0.001  -0.255
    1UNL    H12   35  -0.376  -0.179  -0.149
    1UNL    H13   36  -0.001   0.215   0.190
    1UNL    H14   37  -0.039   0.300  -0.049
    1UNL    H15   38   0.086   0.176  -0.097
    1UNL    H16   39   0.119   0.383   0.103
    1UNL    H17   40   0.241   0.138   0.183
    1UNL    H18   41   0.079   0.014   0.325
    1UNL    H19   42   0.231  -0.074   0.288
    1UNL    H20   43   0.005  -0.212   0.260
   0.00000   0.00000   0.00000   0.00000   0.00000   0.00000   0.00000   0.00000   0.00000
Generated with MDTraj, t= 90.0
 43
    1UNL     C1    1   0.396  -0.006  -0.148
    1UNL     C2    2   0.323   0.071  -0.042
    1UNL     C3    3   0.218   0.015   0.022
    1UNL     C4    4   0.180  -0.117  -0.021
    1UNL     O1    5   0.207  -0.155  -0.137
    1UNL     N1    6   0.100  -0.198   0.064
    1UNL     C5    7   0.024  -0.316   0.017
    1UNL     C6    8  -0.129  -0.295   0.016
    1UNL     C7    9  -0.169  -0.155   0.041
    1UNL     C8   10  -0.085  -0.074   0.116
    1UNL     N2   11  -0.095   0.063   0.079
    1UNL     C9   12  -0.198   0.066  -0.012
    1UNL    C10   13  -0.258   0.179  -0.071
    1UNL    C11   14  -0.369   0.159  -0.150
    1UNL    C12   15  -0.427   0.029  -0.162
    1UNL    C13   16  -0.370  -0.083  -0.105
    1UNL    C14   17  -0.256  -0.066  -0.031
    1UNL    C15   18   0.021   0.156   0.105
    1UNL    C16   19   0.042   0.268   0.002
    1UNL     O2   20   0.151   0.349   0.021
    1UNL    C17   21   0.149   0.079   0.141
    1UNL    C18   22   0.123  -0.034   0.244
    1UNL    C19   23   0.035  -0.137   0.177
    1UNL     H1   24   0.464   0.070  -0.196
    1UNL     H2   25   0.446  -0.077  -0.074
    1UNL     H3   26   0.329  -0.053  -0.227
    1UNL     H4   27   0.355   0.170  -0.014
    1UNL     H5   28   0.066  -0.343  -0.086
    1UNL     H6   29   0.048  -0.392   0.087
    1UNL     H7   30  -0.173  -0.368   0.082
    1UNL     H8   31  -0.174  -0.315  -0.083
    1UNL     H9   32  -0.233   0.273  -0.035
    1UNL    H10   33  -0.422   0.242  -0.195
    1UNL    H11   34  -0.521   0.024  -0.221
    1UNL    H12   35  -0.411  -0.185  -0.115
    1UNL    H13   36  -0.005   0.212   0.193
    1UNL    H14   37  -0.050   0.329  -0.008
    1UNL    H15   38   0.064   0.226  -0.098
    1UNL    H16   39   0.145   0.395   0.109
    1UNL    H17   40   0.218   0.154   0.192
    1UNL    H18   41   0.084   0.005   0.331
    1UNL    H19   42   0.231  -0.069   0.277
    1UNL    H20   43   0.003  -0.221   0.247
   0.00000   0.00000   0.00000   0.00000   0.00000   0.00000   0.00000   0.00000   0.00000
Generated with MDTraj, t= 91.0
 43
    1UNL     C1    1   0.380   0.022  -0.158
    1UNL     C2    2   0.318   0.078  -0.039
    1UNL     C3    3   0.218   0.015   0.023
    1UNL     C4    4   0.172  -0.125  -0.021
    1UNL     O1    5   0.178  -0.162  -0.138
    1UNL     N1    6   0.107  -0.211   0.074
    1UNL     C5    7   0.021  -0.329   0.050
    1UNL     C6    8  -0.128  -0.296   0.010
    1UNL     C7    9  -0.155  -0.151   0.030
    1UNL     C8   10  -0.080  -0.074   0.110
    1UNL     N2   11  -0.091   0.064   0.089
    1UNL     C9   12  -0.207   0.075  -0.001
    1UNL    C10   13  -0.285   0.183  -0.054
    1UNL    C11   14  -0.385   0.155  -0.143
    1UNL    C12   15  -0.421   0.026  -0.179
    1UNL    C13   16  -0.347  -0.081  -0.131
    1UNL    C14   17  -0.242  -0.055  -0.037
    1UNL    C15   18   0.026   0.156   0.110
    1UNL    C16   19   0.054   0.260  -0.006
    1UNL     O2   20   0.168   0.348   0.018
    1UNL    C17   21   0.155   0.078   0.144
    1UNL    C18   22   0.126  -0.039   0.242
    1UNL    C19   23   0.037  -0.136   0.181
    1UNL     H1   24   0.476   0.076  -0.168
    1UNL     H2   25   0.392  -0.083  -0.119
    1UNL     H3   26   0.315   0.033  -0.255
    1UNL     H4   27   0.352   0.176  -0.012
    1UNL     H5   28   0.071  -0.398  -0.025
    1UNL     H6   29   0.018  -0.379   0.145
    1UNL     H7   30  -0.208  -0.350   0.058
    1UNL     H8   31  -0.128  -0.324  -0.097
    1UNL     H9   32  -0.264   0.286  -0.022
    1UNL    H10   33  -0.443   0.240  -0.192
    1UNL    H11   34  -0.492   0.006  -0.253
    1UNL    H12   35  -0.368  -0.181  -0.164
    1UNL    H13   36   0.003   0.220   0.191
    1UNL    H14   37  -0.038   0.316  -0.030
    1UNL    H15   38   0.070   0.206  -0.098
    1UNL    H16   39   0.146   0.414   0.086
    1UNL    H17   40   0.220   0.158   0.195
    1UNL    H18   41   0.090   0.003   0.332
    1UNL    H19   42   0.228  -0.085   0.272
    1UNL    H20   43  -0.002  -0.220   0.250
   0.00000   0.00000   0.00000   0.00000   0.00000   0.00000   0.00000   0.00000   0.00000
Generated with MDTraj, t= 92.0
 43
    1UNL     C1    1   0.349   0.028  -0.183
    1UNL     C2    2   0.289   0.072  -0.059
    1UNL     C3    3   0.209   0.012   0.022
    1UNL     C4    4   0.175  -0.132  -0.014
    1UNL     O1    5   0.217  -0.172  -0.121
    1UNL     N1    6   0.103  -0.209   0.078
    1UNL     C5    7   0.023  -0.331   0.044
    1UNL     C6    8  -0.124  -0.289  -0.004
    1UNL     C7    9  -0.158  -0.150   0.032
    1UNL     C8   10  -0.084  -0.076   0.127
    1UNL     N2   11  -0.104   0.060   0.110
    1UNL     C9   12  -0.211   0.073   0.020
    1UNL    C10   13  -0.260   0.185  -0.046
    1UNL    C11   14  -0.357   0.172  -0.140
    1UNL    C12   15  -0.388   0.048  -0.191
    1UNL    C13   16  -0.324  -0.062  -0.146
    1UNL    C14   17  -0.241  -0.058  -0.039
    1UNL    C15   18   0.014   0.153   0.125
    1UNL    C16   19   0.028   0.235  -0.010
    1UNL     O2   20   0.138   0.331  -0.008
    1UNL    C17   21   0.151   0.078   0.149
    1UNL    C18   22   0.133  -0.032   0.252
    1UNL    C19   23   0.041  -0.132   0.192
    1UNL     H1   24   0.445   0.079  -0.206
    1UNL     H2   25   0.392  -0.073  -0.169
    1UNL     H3   26   0.289   0.016  -0.282
    1UNL     H4   27   0.304   0.177  -0.035
    1UNL     H5   28   0.084  -0.376  -0.041
    1UNL     H6   29   0.026  -0.403   0.126
    1UNL     H7   30  -0.191  -0.355   0.048
    1UNL     H8   31  -0.149  -0.298  -0.111
    1UNL     H9   32  -0.230   0.285  -0.009
    1UNL    H10   33  -0.393   0.258  -0.179
    1UNL    H11   34  -0.462   0.035  -0.273
    1UNL    H12   35  -0.339  -0.152  -0.204
    1UNL    H13   36  -0.014   0.214   0.208
    1UNL    H14   37  -0.064   0.286  -0.037
    1UNL    H15   38   0.034   0.166  -0.091
    1UNL    H16   39   0.115   0.402   0.054
    1UNL    H17   40   0.227   0.152   0.191
    1UNL    H18   41   0.097  -0.001   0.351
    1UNL    H19   42   0.238  -0.064   0.272
    1UNL    H20   43   0.001  -0.206   0.272
   0.00000   0.00000   0.00000   0.00000   0.00000   0.00000   0.00000   0.00000   0.00000
Generated with MDTraj, t= 93.0
 43
    1UNL     C1    1   0.339   0.024  -0.202
    1UNL     C2    2   0.289   0.076  -0.068
    1UNL     C3    3   0.207   0.011   0.013
    1UNL     C4    4   0.177  -0.139  -0.007
    1UNL     O1    5   0.232  -0.189  -0.103
    1UNL     N1    6   0.102  -0.214   0.082
    1UNL     C5    7   0.019  -0.318   0.028
    1UNL     C6    8  -0.122  -0.280  -0.010
    1UNL     C7    9  -0.160  -0.150   0.038
    1UNL     C8   10  -0.092  -0.076   0.131
    1UNL     N2   11  -0.105   0.061   0.115
    1UNL     C9   12  -0.213   0.066   0.023
    1UNL    C10   13  -0.266   0.186  -0.033
    1UNL    C11   14  -0.356   0.168  -0.134
    1UNL    C12   15  -0.376   0.050  -0.198
    1UNL    C13   16  -0.313  -0.060  -0.155
    1UNL    C14   17  -0.234  -0.056  -0.037
    1UNL    C15   18   0.016   0.152   0.121
    1UNL    C16   19   0.027   0.243  -0.005
    1UNL     O2   20   0.140   0.331  -0.004
    1UNL    C17   21   0.146   0.078   0.142
    1UNL    C18   22   0.125  -0.026   0.254
    1UNL    C19   23   0.035  -0.135   0.196
    1UNL     H1   24   0.297   0.068  -0.297
    1UNL     H2   25   0.442   0.060  -0.222
    1UNL     H3   26   0.351  -0.087  -0.210
    1UNL     H4   27   0.309   0.180  -0.047
    1UNL     H5   28   0.071  -0.362  -0.061
    1UNL     H6   29   0.027  -0.397   0.107
    1UNL     H7   30  -0.197  -0.351   0.020
    1UNL     H8   31  -0.124  -0.279  -0.121
    1UNL     H9   32  -0.238   0.275   0.009
    1UNL    H10   33  -0.415   0.259  -0.171
    1UNL    H11   34  -0.439   0.055  -0.282
    1UNL    H12   35  -0.336  -0.158  -0.196
    1UNL    H13   36   0.000   0.213   0.209
    1UNL    H14   37  -0.062   0.295  -0.039
    1UNL    H15   38   0.048   0.183  -0.089
    1UNL    H16   39   0.135   0.397   0.071
    1UNL    H17   40   0.218   0.158   0.180
    1UNL    H18   41   0.092   0.028   0.351
    1UNL    H19   42   0.221  -0.067   0.280
    1UNL    H20   43  -0.003  -0.212   0.274
   0.00000   0.00000   0.00000   0.00000   0.00000   0.00000   0.00000   0.00000   0.00000
Generated with MDTraj, t= 94.0
 43
    1UNL     C1    1   0.346   0.044  -0.198
    1UNL     C2    2   0.281   0.081  -0.065
    1UNL     C3    3   0.207   0.005   0.019
    1UNL     C4    4   0.182  -0.145  -0.006
    1UNL     O1    5   0.227  -0.210  -0.100
    1UNL     N1    6   0.099  -0.221   0.093
    1UNL     C5    7   0.021  -0.338   0.043
    1UNL     C6    8  -0.124  -0.293  -0.009
    1UNL     C7    9  -0.149  -0.148   0.024
    1UNL     C8   10  -0.078  -0.077   0.117
    1UNL     N2   11  -0.091   0.060   0.091
    1UNL     C9   12  -0.195   0.081  -0.004
    1UNL    C10   13  -0.273   0.188  -0.048
    1UNL    C11   14  -0.373   0.172  -0.137
    1UNL    C12   15  -0.406   0.043  -0.185
    1UNL    C13   16  -0.338  -0.067  -0.136
    1UNL    C14   17  -0.222  -0.054  -0.050
    1UNL    C15   18   0.023   0.155   0.113
    1UNL    C16   19   0.042   0.267   0.003
    1UNL     O2   20   0.157   0.352   0.022
    1UNL    C17   21   0.148   0.074   0.138
    1UNL    C18   22   0.116  -0.032   0.247
    1UNL    C19   23   0.028  -0.140   0.195
    1UNL     H1   24   0.406  -0.052  -0.191
    1UNL     H2   25   0.257   0.018  -0.262
    1UNL     H3   26   0.406   0.135  -0.218
    1UNL     H4   27   0.294   0.188  -0.053
    1UNL     H5   28   0.090  -0.385  -0.029
    1UNL     H6   29   0.011  -0.412   0.128
    1UNL     H7   30  -0.204  -0.353   0.032
    1UNL     H8   31  -0.135  -0.291  -0.118
    1UNL     H9   32  -0.260   0.292  -0.004
    1UNL    H10   33  -0.434   0.253  -0.167
    1UNL    H11   34  -0.488   0.026  -0.259
    1UNL    H12   35  -0.383  -0.159  -0.157
    1UNL    H13   36   0.002   0.206   0.207
    1UNL    H14   37  -0.039   0.339   0.006
    1UNL    H15   38   0.044   0.233  -0.096
    1UNL    H16   39   0.150   0.396   0.111
    1UNL    H17   40   0.229   0.146   0.170
    1UNL    H18   41   0.063   0.029   0.333
    1UNL    H19   42   0.205  -0.069   0.288
    1UNL    H20   43  -0.021  -0.206   0.276
   0.00000   0.00000   0.00000   0.00000   0.00000   0.00000   0.00000   0.00000   0.00000
Generated with MDTraj, t= 95.0
 43
    1UNL     C1    1   0.344   0.032  -0.196
    1UNL     C2    2   0.285   0.072  -0.069
    1UNL     C3    3   0.217  -0.003   0.018
    1UNL     C4    4   0.183  -0.143  -0.007
    1UNL     O1    5   0.226  -0.201  -0.103
    1UNL     N1    6   0.097  -0.208   0.085
    1UNL     C5    7   0.031  -0.323   0.025
    1UNL     C6    8  -0.121  -0.289   0.004
    1UNL     C7    9  -0.156  -0.145   0.024
    1UNL     C8   10  -0.083  -0.068   0.112
    1UNL     N2   11  -0.093   0.065   0.078
    1UNL     C9   12  -0.198   0.079  -0.012
    1UNL    C10   13  -0.264   0.191  -0.073
    1UNL    C11   14  -0.367   0.161  -0.162
    1UNL    C12   15  -0.417   0.030  -0.174
    1UNL    C13   16  -0.358  -0.075  -0.111
    1UNL    C14   17  -0.240  -0.049  -0.039
    1UNL    C15   18   0.026   0.153   0.108
    1UNL    C16   19   0.046   0.270   0.014
    1UNL     O2   20   0.163   0.337   0.058
    1UNL    C17   21   0.152   0.075   0.137
    1UNL    C18   22   0.120  -0.027   0.250
    1UNL    C19   23   0.022  -0.131   0.189
    1UNL     H1   24   0.422   0.104  -0.235
    1UNL     H2   25   0.397  -0.073  -0.192
    1UNL     H3   26   0.266   0.047  -0.269
    1UNL     H4   27   0.292   0.175  -0.041
    1UNL     H5   28   0.083  -0.335  -0.072
    1UNL     H6   29   0.047  -0.420   0.083
    1UNL     H7   30  -0.175  -0.342   0.082
    1UNL     H8   31  -0.145  -0.323  -0.097
    1UNL     H9   32  -0.250   0.294  -0.047
    1UNL    H10   33  -0.407   0.245  -0.216
    1UNL    H11   34  -0.501   0.026  -0.236
    1UNL    H12   35  -0.388  -0.181  -0.135
    1UNL    H13   36   0.005   0.192   0.211
    1UNL    H14   37  -0.036   0.339   0.021
    1UNL    H15   38   0.064   0.237  -0.083
    1UNL    H16   39   0.143   0.378   0.145
    1UNL    H17   40   0.233   0.146   0.170
    1UNL    H18   41   0.076   0.023   0.347
    1UNL    H19   42   0.211  -0.072   0.281
    1UNL    H20   43  -0.027  -0.202   0.265
   0.00000   0.00000   0.00000   0.00000   0.00000   0.00000   0.00000   0.00000   0.00000
Generated with MDTraj, t= 96.0
 43
    1UNL     C1    1   0.362   0.042  -0.194
    1UNL     C2    2   0.283   0.082  -0.079
    1UNL     C3    3   0.210   0.006   0.008
    1UNL     C4    4   0.168  -0.138  -0.021
    1UNL     O1    5   0.204  -0.208  -0.112
    1UNL     N1    6   0.094  -0.204   0.077
    1UNL     C5    7   0.014  -0.313   0.012
    1UNL     C6    8  -0.133  -0.288   0.024
    1UNL     C7    9  -0.168  -0.143   0.047
    1UNL     C8   10  -0.086  -0.068   0.128
    1UNL     N2   11  -0.097   0.066   0.096
    1UNL     C9   12  -0.192   0.075  -0.008
    1UNL    C10   13  -0.246   0.184  -0.068
    1UNL    C11   14  -0.341   0.159  -0.167
    1UNL    C12   15  -0.390   0.032  -0.190
    1UNL    C13   16  -0.339  -0.074  -0.124
    1UNL    C14   17  -0.240  -0.055  -0.032
    1UNL    C15   18   0.022   0.152   0.122
    1UNL    C16   19   0.033   0.260   0.014
    1UNL     O2   20   0.143   0.339   0.048
    1UNL    C17   21   0.156   0.070   0.142
    1UNL    C18   22   0.133  -0.036   0.251
    1UNL    C19   23   0.031  -0.134   0.191
    1UNL     H1   24   0.364   0.106  -0.286
    1UNL     H2   25   0.473   0.020  -0.172
    1UNL     H3   26   0.318  -0.042  -0.247
    1UNL     H4   27   0.291   0.182  -0.036
    1UNL     H5   28   0.034  -0.323  -0.095
    1UNL     H6   29   0.052  -0.409   0.064
    1UNL     H7   30  -0.160  -0.348   0.112
    1UNL     H8   31  -0.183  -0.314  -0.069
    1UNL     H9   32  -0.224   0.279  -0.033
    1UNL    H10   33  -0.393   0.242  -0.221
    1UNL    H11   34  -0.460   0.012  -0.273
    1UNL    H12   35  -0.367  -0.171  -0.147
    1UNL    H13   36   0.007   0.198   0.223
    1UNL    H14   37  -0.055   0.320   0.007
    1UNL    H15   38   0.060   0.211  -0.075
    1UNL    H16   39   0.131   0.387   0.132
    1UNL    H17   40   0.234   0.141   0.171
    1UNL    H18   41   0.092   0.011   0.341
    1UNL    H19   42   0.227  -0.087   0.274
    1UNL    H20   43  -0.007  -0.207   0.270
   0.00000   0.00000   0.00000   0.00000   0.00000   0.00000   0.00000   0.00000   0.00000
Generated with MDTraj, t= 97.0
 43
    1UNL     C1    1   0.349   0.049  -0.195
    1UNL     C2    2   0.287   0.087  -0.068
    1UNL     C3    3   0.205   0.009   0.013
    1UNL     C4    4   0.155  -0.129  -0.025
    1UNL     O1    5   0.166  -0.194  -0.127
    1UNL     N1    6   0.094  -0.205   0.084
    1UNL     C5    7   0.016  -0.327   0.033
    1UNL     C6    8  -0.136  -0.296   0.011
    1UNL     C7    9  -0.165  -0.148   0.047
    1UNL     C8   10  -0.088  -0.075   0.135
    1UNL     N2   11  -0.090   0.058   0.105
    1UNL     C9   12  -0.202   0.073   0.010
    1UNL    C10   13  -0.259   0.180  -0.056
    1UNL    C11   14  -0.341   0.162  -0.164
    1UNL    C12   15  -0.364   0.031  -0.213
    1UNL    C13   16  -0.320  -0.077  -0.143
    1UNL    C14   17  -0.237  -0.055  -0.034
    1UNL    C15   18   0.025   0.151   0.131
    1UNL    C16   19   0.038   0.261   0.025
    1UNL     O2   20   0.160   0.336   0.020
    1UNL    C17   21   0.160   0.074   0.139
    1UNL    C18   22   0.134  -0.028   0.248
    1UNL    C19   23   0.037  -0.131   0.197
    1UNL     H1   24   0.321   0.128  -0.272
    1UNL     H2   25   0.460   0.032  -0.177
    1UNL     H3   26   0.300  -0.047  -0.224
    1UNL     H4   27   0.310   0.186  -0.032
    1UNL     H5   28   0.075  -0.360  -0.055
    1UNL     H6   29   0.025  -0.419   0.103
    1UNL     H7   30  -0.203  -0.357   0.076
    1UNL     H8   31  -0.156  -0.320  -0.091
    1UNL     H9   32  -0.236   0.288  -0.022
    1UNL    H10   33  -0.374   0.244  -0.216
    1UNL    H11   34  -0.420   0.010  -0.302
    1UNL    H12   35  -0.345  -0.182  -0.173
    1UNL    H13   36   0.009   0.196   0.234
    1UNL    H14   37  -0.046   0.326   0.043
    1UNL    H15   38   0.025   0.210  -0.068
    1UNL    H16   39   0.185   0.381   0.106
    1UNL    H17   40   0.234   0.149   0.167
    1UNL    H18   41   0.088   0.021   0.326
    1UNL    H19   42   0.230  -0.080   0.275
    1UNL    H20   43   0.015  -0.200   0.284
   0.00000   0.00000   0.00000   0.00000   0.00000   0.00000   0.00000   0.00000   0.00000
Generated with MDTraj, t= 98.0
 43
    1UNL     C1    1   0.324   0.029  -0.201
    1UNL     C2    2   0.277   0.076  -0.067
    1UNL     C3    3   0.202   0.002   0.020
    1UNL     C4    4   0.161  -0.135  -0.012
    1UNL     O1    5   0.149  -0.177  -0.125
    1UNL     N1    6   0.102  -0.210   0.094
    1UNL     C5    7   0.027  -0.322   0.044
    1UNL     C6    8  -0.110  -0.290  -0.002
    1UNL     C7    9  -0.149  -0.152   0.034
    1UNL     C8   10  -0.076  -0.078   0.130
    1UNL     N2   11  -0.089   0.055   0.094
    1UNL     C9   12  -0.199   0.063   0.008
    1UNL    C10   13  -0.254   0.179  -0.051
    1UNL    C11   14  -0.342   0.168  -0.157
    1UNL    C12   15  -0.378   0.044  -0.212
    1UNL    C13   16  -0.327  -0.070  -0.156
    1UNL    C14   17  -0.232  -0.062  -0.049
    1UNL    C15   18   0.027   0.156   0.121
    1UNL    C16   19   0.038   0.261   0.015
    1UNL     O2   20   0.158   0.343   0.023
    1UNL    C17   21   0.161   0.078   0.148
    1UNL    C18   22   0.131  -0.027   0.267
    1UNL    C19   23   0.037  -0.134   0.207
    1UNL     H1   24   0.375   0.117  -0.248
    1UNL     H2   25   0.379  -0.067  -0.177
    1UNL     H3   26   0.233  -0.002  -0.265
    1UNL     H4   27   0.283   0.183  -0.045
    1UNL     H5   28   0.085  -0.365  -0.040
    1UNL     H6   29   0.032  -0.418   0.112
    1UNL     H7   30  -0.188  -0.365   0.024
    1UNL     H8   31  -0.109  -0.287  -0.109
    1UNL     H9   32  -0.219   0.271  -0.012
    1UNL    H10   33  -0.378   0.268  -0.199
    1UNL    H11   34  -0.457   0.046  -0.287
    1UNL    H12   35  -0.370  -0.167  -0.173
    1UNL    H13   36   0.008   0.201   0.224
    1UNL    H14   37  -0.049   0.325   0.016
    1UNL    H15   38   0.040   0.208  -0.080
    1UNL    H16   39   0.151   0.408   0.098
    1UNL    H17   40   0.232   0.151   0.184
    1UNL    H18   41   0.087   0.011   0.351
    1UNL    H19   42   0.230  -0.078   0.287
    1UNL    H20   43   0.008  -0.209   0.285
   0.00000   0.00000   0.00000   0.00000   0.00000   0.00000   0.00000   0.00000   0.00000
Generated with MDTraj, t= 99.0
 43
    1UNL     C1    1   0.345   0.028  -0.201
    1UNL     C2    2   0.273   0.079  -0.080
    1UNL     C3    3   0.205   0.003   0.010
    1UNL     C4    4   0.181  -0.147  -0.005
    1UNL     O1    5   0.203  -0.198  -0.111
    1UNL     N1    6   0.099  -0.210   0.091
    1UNL     C5    7   0.019  -0.323   0.037
    1UNL     C6    8  -0.130  -0.285   0.004
    1UNL     C7    9  -0.158  -0.142   0.037
    1UNL     C8   10  -0.084  -0.071   0.126
    1UNL     N2   11  -0.102   0.065   0.104
    1UNL     C9   12  -0.201   0.076  -0.000
    1UNL    C10   13  -0.270   0.183  -0.057
    1UNL    C11   14  -0.362   0.169  -0.156
    1UNL    C12   15  -0.389   0.037  -0.207
    1UNL    C13   16  -0.326  -0.074  -0.149
    1UNL    C14   17  -0.232  -0.051  -0.045
    1UNL    C15   18   0.021   0.155   0.123
    1UNL    C16   19   0.038   0.261   0.018
    1UNL     O2   20   0.153   0.343   0.046
    1UNL    C17   21   0.159   0.070   0.134
    1UNL    C18   22   0.147  -0.034   0.248
    1UNL    C19   23   0.039  -0.129   0.201
    1UNL     H1   24   0.452   0.001  -0.182
    1UNL     H2   25   0.286  -0.054  -0.246
    1UNL     H3   26   0.351   0.097  -0.295
    1UNL     H4   27   0.272   0.182  -0.054
    1UNL     H5   28   0.055  -0.374  -0.055
    1UNL     H6   29   0.039  -0.416   0.104
    1UNL     H7   30  -0.202  -0.349   0.061
    1UNL     H8   31  -0.164  -0.299  -0.098
    1UNL     H9   32  -0.245   0.276  -0.019
    1UNL    H10   33  -0.422   0.246  -0.186
    1UNL    H11   34  -0.460   0.018  -0.289
    1UNL    H12   35  -0.349  -0.176  -0.169
    1UNL    H13   36   0.011   0.200   0.225
    1UNL    H14   37  -0.047   0.329   0.009
    1UNL    H15   38   0.055   0.222  -0.084
    1UNL    H16   39   0.127   0.423   0.096
    1UNL    H17   40   0.233   0.145   0.157
    1UNL    H18   41   0.114   0.009   0.339
    1UNL    H19   42   0.245  -0.088   0.257
    1UNL    H20   43  -0.000  -0.192   0.283
   0.00000   0.00000   0.00000   0.00000   0.00000   0.00000   0.00000   0.00000   0.00000
