1TPCN01002
8
    1res  C1    1    0.286   0.254  -0.030
    1res  C2    2    0.265   0.017  -0.043
    1res  C3    3    0.381  -0.162  -0.167
    1res  C4    4    0.188  -0.229   0.017
    1res  C5    5    0.019   0.088   0.221
    1res  C6    6   -0.085   0.298  -0.013
    1res  C7    7   -0.290   0.070  -0.054
    1res  C8    8   -0.096  -0.257   0.055
  10.00000  10.00000  10.00000
