[ moleculetype ]
; name        nrexcl
res           1

[ atoms ]
;    nr  type  resnr resid  atom  cgnr     charge       mass
      1 SC2       1 res   C1        1      0.000     54.000
      2 SC2       1 res   C2        2      0.000     54.000
      3 TC5       1 res   C3        3      0.000     36.000
      4 TC5       1 res   C4        4      0.000     36.000
      5 TC6       1 res   C5        5      0.000     36.000

[ constraints ]
;  ai    aj   funct      b0(nm)
    3     5     1      0.20988
    4     5     1      0.24293
    3     4     1      0.28459

[ bonds ]
;  ai    aj   funct      b0(nm)          k(kJ/mol/nm^2)
    1     2     1      0.35881           3740.4
    2     3     1      0.31648           9642.5

[ angles ]
;  ai    aj    ak  funct     th0(deg)        k(kJ/mol/rad^2)
    1     2     3     1    138.94079            40.27
    2     3     4     1     93.67117           140.03
    2     3     5     1    147.15552           143.52
    3     4     5     1     46.05161          6247.21
    3     5     4     1     77.50006          5305.79
    4     3     5     1     56.44835          6324.52

[ dihedrals ]
;  ai    aj    ak    al  funct   phi0(deg)        k(kJ/mol)   mult
    1     2     3     4     1   -108.99859       23.404      1
    1     2     3     5     1   -132.90057       27.975      1
    2     3     4     5     1      9.95133       14.708      1
    2     3     5     4     1   -161.61158       21.171      1
