1TPCN04041
25
    1res  C1    1   -0.014   0.534  -0.288
    1res  C2    2    0.065   0.459  -0.003
    1res  C3    3    0.027   0.183  -0.099
    1res  C4    4    0.263   0.207  -0.039
    1res  C5    5    0.375   0.022  -0.216
    1res  C6    6    0.373  -0.147  -0.497
    1res  C7    7    0.330  -0.261  -0.228
    1res  C8    8    0.306  -0.232  -0.018
    1res  C9    9    0.451  -0.039   0.014
    1res  C10   10    0.663  -0.230   0.156
    1res  C11   11    0.575  -0.398   0.303
    1res  C12   12    0.875  -0.190   0.350
    1res  C13   13    0.891  -0.030   0.192
    1res  C14   14    0.673   0.058   0.159
    1res  C15   15    0.019   0.066   0.129
    1res  C16   16   -0.160  -0.044  -0.100
    1res  C17   17   -0.366   0.193  -0.141
    1res  C18   18   -0.326   0.116   0.164
    1res  C19   19   -0.518  -0.124  -0.004
    1res  C20   20   -0.751  -0.005  -0.056
    1res  C21   21   -0.853  -0.241   0.057
    1res  C22   22   -0.703  -0.271   0.284
    1res  C23   23   -0.801  -0.015   0.295
    1res  C24   24   -0.356  -0.184   0.204
    1res  C25   25   -0.029   0.262  -0.349
  10.00000  10.00000  10.00000
