[ moleculetype ]
; name        nrexcl
res           1

[ atoms ]
;    nr  type  resnr resid  atom  cgnr     charge       mass
      1 TC4       1 res   C1        1      0.000     36.000
      2 SN6       1 res   C2        2      0.000     54.000
      3 SN5a      1 res   C3        3      0.000     54.000
      4 SC5       1 res   C4        4      0.000     54.000
      5 N4a       1 res   C5        5      0.000     72.000
      6 TC5       1 res   C6        6      0.000     36.000
      7 TC5       1 res   C7        7      0.000     36.000
      8 TC5       1 res   C8        8      0.000     36.000
      9 TN6       1 res   C9        9      0.000     36.000
     10 SN4a      1 res   C10      10      0.000     54.000
     11 TP1       1 res   C11      11      0.000     36.000
     12 SP4       1 res   C12      12      0.000     54.000
     13 TN6       1 res   C13      13      0.000     36.000

[ constraints ]
;  ai    aj   funct      b0(nm)
    1     2     1      0.36411
   10    11     1      0.24342
    4     9     1      0.22673
    2     3     1      0.28735
    6     8     1      0.29771
    3     4     1      0.31929
    7     8     1      0.28784
    1     3     1      0.35743
    5     6     1      0.31725
    6     7     1      0.25587
   12    13     1      0.27958
   10    12     1      0.28516
    1     9     1      0.26657
    2     4     1      0.27775

[ bonds ]
;  ai    aj   funct      b0(nm)          k(kJ/mol/nm^2)
    4     5     1      0.29570           8906.4
   10    13     1      0.27042          17983.1
    9    10     1      0.29107          11997.9

[ angles ]
;  ai    aj    ak  funct     th0(deg)        k(kJ/mol/rad^2)
    1     2     3     1     65.29345          3634.51
    1     2     4     1     74.90065          2596.35
    1     3     2     1     67.78585          1640.04
    1     3     4     1     71.43593          2795.05
    1     9     4     1    106.63734          1193.03
    1     9    10     1    105.68018            16.14
    2     1     3     1     46.92081          2778.76
    2     1     9     1     74.26346          2946.40
    2     3     4     1     54.18617          2418.66
    2     4     3     1     57.03754          1864.16
    2     4     5     1    126.62882           126.45
    2     4     9     1    100.28385          1909.41
    3     1     9     1     58.57261          3481.28
    3     2     4     1     68.77605          3086.62
    3     4     5     1     73.89120           238.19
    3     4     9     1     68.15859          2806.18
    4     5     6     1    106.43546            19.63
    4     9    10     1     98.87013            91.03
    5     4     9     1     75.48611           106.14
    5     6     7     1    160.29837           552.10
    5     6     8     1     99.75946           909.79
    6     7     8     1     66.09916          6492.75
    6     8     7     1     51.78636          9767.11
    7     6     8     1     62.11446          7726.41
    9    10    11     1    139.27609           169.69
    9    10    12     1    122.17307           212.37
    9    10    13     1     64.09479           330.04
   10    12    13     1     57.17990          1610.82
   10    13    12     1     62.48976          1384.72
   11    10    12     1     79.79988          1195.30
   11    10    13     1    134.24143           260.30
   12    10    13     1     60.33027          1744.79

[ dihedrals ]
;  ai    aj    ak    al  funct   phi0(deg)        k(kJ/mol)   mult
    1     2     3     4     1    -97.96330        4.775      1
    1     2     4     3     1    111.94573        3.245      1
    1     2     4     5     1     92.75372       17.152      1
    1     2     4     9     1    166.04167        6.330      1
    1     3     2     4     1     97.96330        4.775      1
    1     3     4     2     1   -104.04699        6.253      1
    1     3     4     5     1     57.00849       15.795      1
    1     3     4     9     1    136.01709        6.250      1
    1     9     4     2     1   -161.03139        8.572      1
    1     9     4     3     1   -113.02462        5.560      1
    1     9     4     5     1    -36.81659       14.356      1
    1     9    10    11     1   -144.48439       15.519      1
    1     9    10    12     1     77.45490       13.887      1
    1     9    10    13     1     80.61288       12.670      1
    2     1     3     4     1    122.94256        4.025      1
    2     1     9     4     1    165.03848        7.042      1
    2     1     9    10     1     37.66740       21.111      1
    2     3     1     9     1    -81.07140        5.553      1
    2     3     4     5     1    -17.21317       15.795      1
    2     3     4     9     1     61.20118        7.032      1
    2     4     5     6     1     91.06031       26.874      1
    2     4     9    10     1    -43.56638       26.768      1
    3     1     2     4     1   -106.07342        4.747      1
    3     1     9     4     1    116.96555        5.519      1
    3     1     9    10     1     -9.23067       19.703      1
    3     2     1     9     1    118.96056        5.525      1
    3     2     4     5     1    159.81593       15.730      1
    3     2     4     9     1   -124.03440        6.314      1
    3     4     5     6     1     69.33301       27.387      1
    3     4     9    10     1      6.42970       27.328      1
    4     2     1     9     1   -168.03032        6.277      1
    4     3     1     9     1   -140.31321        4.713      1
    4     5     6     7     1     87.92575       28.765      1
    4     5     6     8     1     88.57111       29.522      1
    4     9    10    11     1    107.61520       22.469      1
    4     9    10    12     1    -10.62912       22.136      1
    4     9    10    13     1    -28.95626       24.206      1
    5     4     9    10     1     80.07323       29.352      1
    5     6     7     8     1   -178.27906       29.630      1
    5     6     8     7     1      1.34476       14.360      1
    6     5     4     9     1      1.72461       28.627      1
    9    10    12    13     1    170.08624       16.422      1
    9    10    13    12     1    -11.83480       17.806      1
   11    10    12    13     1     24.31445       12.198      1
   11    10    13    12     1   -147.90796       13.615      1
