1TPCN06242
12
    1res  C1    1    0.512  -0.076  -0.011
    1res  C2    2    0.611   0.113   0.330
    1res  C3    3    0.328   0.027  -0.204
    1res  C4    4    0.127  -0.121  -0.150
    1res  C5    5   -0.053   0.050  -0.047
    1res  C6    6   -0.236   0.082  -0.216
    1res  C7    7   -0.252  -0.094   0.021
    1res  C8    8   -0.447   0.245   0.087
    1res  C9    9   -0.635   0.080  -0.123
    1res  C10   10   -0.593  -0.007   0.186
    1res  C11   11   -0.332   0.013   0.289
    1res  C12   12    0.098   0.024   0.149
  10.00000  10.00000  10.00000
