1TPCN00686
12
    1res  C1    1   -0.383   0.195   0.099
    1res  C2    2   -0.256   0.188  -0.197
    1res  C3    3   -0.027   0.134   0.074
    1res  C4    4    0.082   0.013   0.244
    1res  C5    5    0.170  -0.106  -0.004
    1res  C6    6    0.341   0.150   0.179
    1res  C7    7    0.386   0.025   0.005
    1res  C8    8    0.607   0.134  -0.039
    1res  C9    9    0.485  -0.080  -0.200
    1res  C10   10   -0.032  -0.176   0.089
    1res  C11   11   -0.157  -0.098   0.267
    1res  C12   12   -0.301  -0.290  -0.022
  10.00000  10.00000  10.00000
