1TPCN03093
15
    1res  C1    1   -0.206   0.289  -0.195
    1res  C2    2   -0.060   0.049  -0.117
    1res  C3    3   -0.206  -0.132  -0.250
    1res  C4    4   -0.495  -0.019  -0.131
    1res  C5    5   -0.379  -0.125   0.091
    1res  C6    6   -0.344   0.140   0.120
    1res  C7    7   -0.673   0.008   0.051
    1res  C8    8    0.116  -0.144  -0.050
    1res  C9    9    0.208   0.089  -0.060
    1res  C10   10    0.447  -0.051  -0.017
    1res  C11   11    0.509  -0.312   0.085
    1res  C12   12    0.683  -0.021  -0.009
    1res  C13   13    0.607   0.063   0.204
    1res  C14   14    0.469   0.222   0.127
    1res  C15   15    0.062   0.244  -0.001
  10.00000  10.00000  10.00000
