1TPCN05260
33
    1res  C1    1    1.102  -0.343   0.180
    1res  C2    2    0.927  -0.124   0.089
    1res  C3    3    0.728  -0.041   0.050
    1res  C4    4    0.493  -0.074  -0.079
    1res  C5    5    0.590   0.193  -0.104
    1res  C6    6    0.250  -0.273  -0.058
    1res  C7    7    0.015  -0.270   0.109
    1res  C8    8   -0.171  -0.046   0.096
    1res  C9    9   -0.356  -0.080  -0.124
    1res  C10   10   -0.192   0.168  -0.136
    1res  C11   11   -0.257   0.035  -0.387
    1res  C12   12   -0.662  -0.087   0.053
    1res  C13   13   -0.715   0.007  -0.238
    1res  C14   14   -0.717   0.246  -0.023
    1res  C15   15   -1.059   0.152  -0.141
    1res  C16   16   -1.091  -0.113   0.032
    1res  C17   17   -1.198   0.005   0.227
    1res  C18   18   -1.301   0.202  -0.009
    1res  C19   19   -1.242   0.336   0.234
    1res  C20   20   -0.882   0.213   0.189
    1res  C21   21   -0.455   0.105   0.177
    1res  C22   22   -0.208  -0.428   0.172
    1res  C23   23   -0.152  -0.523  -0.044
    1res  C24   24    0.067  -0.513  -0.014
    1res  C25   25    0.533  -0.319  -0.009
    1res  C26   26    0.653  -0.191   0.197
    1res  C27   27    0.997   0.054  -0.037
    1res  C28   28    1.233  -0.122   0.091
    1res  C29   29    1.286   0.130   0.020
    1res  C30   30    1.215   0.382  -0.019
    1res  C31   31    1.384   0.515  -0.099
    1res  C32   32    1.513   0.347   0.030
    1res  C33   33    1.485   0.152  -0.118
  10.00000  10.00000  10.00000
