[ moleculetype ]
; name        nrexcl
res           1

[ atoms ]
;    nr  type resnr resid  atom  cgnr     charge       mass
      1 SC4       1 res   C1        1      0.000     54.000
      2 TN4a      1 res   C2        2      0.000     36.000
      3 TN6       1 res   C3        3      0.000     36.000
      4 SN4a      1 res   C4        4      0.000     54.000
      5 TP1       1 res   C5        5      0.000     36.000
      6 TN6       1 res   C6        6      0.000     36.000
      7 TN6       1 res   C7        7      0.000     36.000
      8 TN6       1 res   C8        8      0.000     36.000
      9 SN6       1 res   C9        9      0.000     54.000
     10 SC3       1 res   C10      10      0.000     54.000
     11 TC4       1 res   C11      11      0.000     36.000
     12 SC4       1 res   C12      12      0.000     54.000
     13 TC3       1 res   C13      13      0.000     36.000
     14 SC4       1 res   C14      14      0.000     54.000
     15 TC4       1 res   C15      15      0.000     36.000
     16 TP1       1 res   C16      16      0.000     36.000
     17 TN6       1 res   C17      17      0.000     36.000
     18 SN4a      1 res   C18      18      0.000     54.000
     19 TN3r      1 res   C19      19      0.000     36.000
     20 TN4a      1 res   C20      20      0.000     36.000
     21 TC4       1 res   C21      21      0.000     36.000
     22 TN6       1 res   C22      22      0.000     36.000
     23 TN6       1 res   C23      23      0.000     36.000
     24 TN6       1 res   C24      24      0.000     36.000
     25 TN6       1 res   C25      25      0.000     36.000
     26 TN6       1 res   C26      26      0.000     36.000
     27 TN6       1 res   C27      27      0.000     36.000
     28 TC3       1 res   C28      28      0.000     36.000
     29 TC3       1 res   C29      29      0.000     36.000
     30 TC4       1 res   C30      30      0.000     36.000

[ bonds ]
;  ai    aj   funct      b0(nm)        k
    1     2     1      0.30069    20000
    2     3     1      0.25127    20000
    2     9     1      0.22279    20000
    3     4     1      0.28145    20000
    3     9     1      0.27401    20000
    4     5     1      0.28692    20000
    4     6     1      0.29755    20000
    4     8     1      0.27246    20000
    6     7     1      0.25908    20000
    7     8     1      0.25450    20000
    9    10     1      0.35840    20000
   10    11     1      0.30143    20000
   10    30     1      0.31272    20000
   11    12     1      0.29235    20000
   11    30     1      0.28079    20000
   12    13     1      0.24957    20000
   12    14     1      0.23268    20000
   12    29     1      0.30379    20000
   13    14     1      0.33789    20000
   14    15     1      0.40823    20000
   14    28     1      0.27882    20000
   15    16     1      0.28196    20000
   15    17     1      0.25411    20000
   17    18     1      0.28335    20000
   17    28     1      0.24813    20000
   18    19     1      0.22442    20000
   18    25     1      0.26968    20000
   18    27     1      0.30649    20000
   19    20     1      0.23134    20000
   20    21     1      0.30999    20000
   20    24     1      0.23020    20000
   21    22     1      0.28343    20000
   22    23     1      0.24456    20000
   23    24     1      0.21986    20000
   25    26     1      0.23793    20000
   26    27     1      0.22169    20000
   29    30     1      0.32633    20000
