[ moleculetype ]
; name        nrexcl
res           1

[ atoms ]
;    nr  type resnr resid  atom  cgnr     charge       mass
      1 TC3       1 res   C1        1      0.000     36.000
      2 TN6d      1 res   C2        2      0.000     36.000
      3 SC5       1 res   C3        3      0.000     54.000
      4 SN3r      1 res   C4        4      0.000     54.000
      5 TN6       1 res   C5        5      0.000     36.000
      6 TC3       1 res   C6        6      0.000     36.000
      7 TN3r      1 res   C7        7      0.000     36.000
      8 TC5       1 res   C8        8      0.000     36.000
      9 TC5       1 res   C9        9      0.000     36.000
     10 SN6       1 res   C10      10      0.000     54.000
     11 TN6       1 res   C11      11      0.000     36.000
     12 SN6       1 res   C12      12      0.000     54.000
     13 SN6       1 res   C13      13      0.000     54.000
     14 TN3r      1 res   C14      14      0.000     36.000
     15 TN3r      1 res   C15      15      0.000     36.000

[ bonds ]
;  ai    aj   funct      b0(nm)        k
    1     2     1      0.27078    20000
    2     3     1      0.26183    20000
    2     8     1      0.29084    20000
    3     4     1      0.32449    20000
    3     5     1      0.33915    20000
    3     8     1      0.26333    20000
    3    12     1      0.32446    20000
    3    15     1      0.30623    20000
    5     6     1      0.23127    20000
    6     7     1      0.25543    20000
    6     8     1      0.30029    20000
    8     9     1      0.27495    20000
    8    12     1      0.29211    20000
    9    10     1      0.27468    20000
    9    11     1      0.26890    20000
    9    12     1      0.30852    20000
   10    11     1      0.27418    20000
   10    13     1      0.34064    20000
   12    13     1      0.26975    20000
   13    14     1      0.26171    20000
