[ moleculetype ]
; name        nrexcl
res           1

[ atoms ]
;    nr  type  resnr resid  atom  cgnr     charge       mass
      1 TX2       1 res   C1        1      0.000     36.000
      2 TX3       1 res   C2        2      0.000     36.000
      3 TX3       1 res   C3        3      0.000     36.000
      4 TX3       1 res   C4        4      0.000     36.000
      5 TX3       1 res   C5        5      0.000     36.000
      6 TX3       1 res   C6        6      0.000     36.000

[ bonds ]
;  ai    aj   funct      b0(nm)          k(kJ/mol/nm^2)
    1     2     1      0.22624          79684.2
    1     6     1      0.22584          88434.5
    2     3     1      0.21704          64213.0
    3     4     1      0.22313         109035.0
    4     5     1      0.23111          61663.4
    5     6     1      0.22245          69639.4

[ angles ]
;  ai    aj    ak  funct     th0(deg)        k(kJ/mol/rad^2)
    1     2     3     1    100.17815           874.69
    1     6     5     1     95.74523           863.72
    2     1     6     1    103.55692           831.02
    2     3     4     1     97.61301          1019.78
    3     4     5     1     95.19806          1013.05
    4     5     6     1     96.04057           722.30

[ dihedrals ]
;  ai    aj    ak    al  funct   phi0(deg)        k(kJ/mol)   mult
    1     2     3     4     1    104.08210        9.222      1
    1     2     3     4     1     28.14811        9.013      2
    1     2     3     4     1    -47.81923        8.671      3
    1     6     5     4     1   -100.32468        7.805      1
    1     6     5     4     1    -20.62026        7.662      2
    1     6     5     4     1     59.14381        7.429      3
    2     1     6     5     1    103.85720        9.238      1
    2     1     6     5     1     27.72861        9.030      2
    2     1     6     5     1    -48.37058        8.688      3
    2     3     4     5     1    -96.89931        8.551      1
    2     3     4     5     1    -13.79703        8.399      2
    2     3     4     5     1     69.30857        8.149      3
    3     2     1     6     1   -105.93833        9.300      1
    3     2     1     6     1    -31.87562        9.104      2
    3     2     1     6     1     42.18927        8.782      3
    3     4     5     6     1     93.88853        9.285      1
    3     4     5     6     1      7.77475        9.089      2
    3     4     5     6     1    -78.34386        8.768      3
