1TPCN05597
35
    1res  C1    1    0.542  -0.486  -0.136
    1res  C2    2    0.535  -0.287  -0.304
    1res  C3    3    0.697  -0.112  -0.373
    1res  C4    4    0.559   0.054  -0.179
    1res  C5    5    0.368   0.099   0.064
    1res  C6    6    0.110   0.217   0.017
    1res  C7    7    0.103  -0.043  -0.254
    1res  C8    8    0.072  -0.152   0.007
    1res  C9    9   -0.192   0.118  -0.042
    1res  C10   10   -0.169  -0.260  -0.152
    1res  C11   11   -0.447  -0.175  -0.108
    1res  C12   12   -0.659  -0.340  -0.189
    1res  C13   13   -0.525  -0.512  -0.053
    1res  C14   14   -0.507  -0.410   0.164
    1res  C15   15   -0.528  -0.105   0.204
    1res  C16   16   -0.826   0.004   0.137
    1res  C17   17   -1.073  -0.168   0.068
    1res  C18   18   -0.889  -0.186   0.350
    1res  C19   19   -0.761  -0.031   0.463
    1res  C20   20   -0.708   0.123   0.288
    1res  C21   21   -0.702   0.288   0.145
    1res  C22   22   -0.952   0.310  -0.055
    1res  C23   23   -0.952   0.541   0.029
    1res  C24   24   -0.701   0.590   0.139
    1res  C25   25   -0.731   0.467   0.329
    1res  C26   26   -0.205  -0.250   0.152
    1res  C27   27    0.331   0.296  -0.216
    1res  C28   28    0.798  -0.012  -0.074
    1res  C29   29    0.876   0.182  -0.134
    1res  C30   30    1.032   0.285   0.122
    1res  C31   31    1.278   0.264   0.047
    1res  C32   32    1.126   0.252   0.350
    1res  C33   33    0.926   0.253   0.417
    1res  C34   34    0.759   0.243   0.208
    1res  C35   35    0.925  -0.120  -0.267
  10.00000  10.00000  10.00000
