1TPCN05094
34
    1res  C1    1   -1.198   0.027  -0.270
    1res  C2    2   -1.047  -0.052   0.003
    1res  C3    3   -0.826  -0.086   0.024
    1res  C4    4   -0.641  -0.043  -0.058
    1res  C5    5   -0.619   0.171  -0.214
    1res  C6    6   -0.388   0.178  -0.022
    1res  C7    7   -0.146   0.050  -0.106
    1res  C8    8    0.016  -0.118   0.022
    1res  C9    9    0.179  -0.005   0.252
    1res  C10   10    0.280  -0.132   0.045
    1res  C11   11    0.296  -0.084  -0.234
    1res  C12   12    0.442   0.130  -0.019
    1res  C13   13    0.691  -0.190  -0.039
    1res  C14   14    0.804   0.142  -0.278
    1res  C15   15    0.792   0.012  -0.494
    1res  C16   16    0.940  -0.139  -0.239
    1res  C17   17    0.919  -0.052  -0.035
    1res  C18   18    1.060  -0.134   0.260
    1res  C19   19    1.272  -0.008   0.368
    1res  C20   20    1.356  -0.022   0.141
    1res  C21   21    1.191  -0.048   0.001
    1res  C22   22    0.630   0.014   0.148
    1res  C23   23   -0.157   0.151   0.259
    1res  C24   24   -0.235  -0.141   0.216
    1res  C25   25   -0.506   0.375  -0.011
    1res  C26   26   -0.640   0.529   0.149
    1res  C27   27   -0.741   0.375  -0.119
    1res  C28   28   -0.534  -0.257   0.057
    1res  C29   29   -0.612  -0.338   0.266
    1res  C30   30   -0.699  -0.428  -0.038
    1res  C31   31   -0.866  -0.297   0.029
    1res  C32   32   -0.959   0.169   0.107
    1res  C33   33   -1.191   0.239   0.099
    1res  C34   34   -1.284   0.163  -0.085
  10.00000  10.00000  10.00000
