[ moleculetype ]
; name        nrexcl
res           1

[ atoms ]
;    nr  type  resnr resid  atom  cgnr     charge       mass
      1 TN6d      1 res   C1        1      0.000     36.000
      2 TN4a      1 res   C2        2      0.000     36.000
      3 TN5       1 res   C3        3      0.000     36.000
      4 SP2       1 res   C4        4      0.000     54.000

[ constraints ]
;  ai    aj   funct      b0(nm)
    1     2     1      0.21136
    2     3     1      0.21877
    3     4     1      0.25023

[ bonds ]
;  ai    aj   funct      b0(nm)          k(kJ/mol/nm^2)

[ angles ]
;  ai    aj    ak  funct     th0(deg)        k(kJ/mol/rad^2)
    1     2     3     1    123.65100           288.40
    2     3     4     1    153.29323            32.76

[ dihedrals ]
;  ai    aj    ak    al  funct   phi0(deg)        k(kJ/mol)   mult
    1     2     3     4     1    162.19374       13.837      1
