Generated with MDTraj, t= 0.0
 75
    1UNL     C1    1   0.846  -0.197   0.147
    1UNL     C2    2   0.782  -0.072   0.097
    1UNL     O1    3   0.742   0.010   0.177
    1UNL     O2    4   0.775  -0.059  -0.039
    1UNL     C3    5   0.707   0.059  -0.073
    1UNL     C4    6   0.558   0.035  -0.096
    1UNL     O3    7   0.501  -0.035   0.018
    1UNL     C5    8   0.384   0.026   0.074
    1UNL     O4    9   0.274   0.025  -0.015
    1UNL     C6   10   0.148   0.033   0.051
    1UNL     C7   11   0.032   0.019  -0.047
    1UNL     O5   12  -0.094   0.046   0.022
    1UNL     C8   13  -0.211  -0.010  -0.040
    1UNL     O6   14  -0.329   0.063  -0.010
    1UNL     C9   15  -0.335   0.093   0.128
    1UNL    C10   16  -0.351  -0.026   0.215
    1UNL    C11   17  -0.437  -0.125   0.191
    1UNL    C12   18  -0.447  -0.240   0.284
    1UNL    C13   19  -0.524  -0.126   0.070
    1UNL    C14   20  -0.671  -0.124   0.103
    1UNL     O7   21  -0.718  -0.217   0.165
    1UNL    C15   22  -0.753  -0.009   0.062
    1UNL    C16   23  -0.766   0.035  -0.063
    1UNL    C17   24  -0.851   0.154  -0.090
    1UNL    C18   25  -0.699  -0.031  -0.178
    1UNL    C19   26  -0.195  -0.020  -0.193
    1UNL     O8   27  -0.167   0.107  -0.246
    1UNL    C20   28  -0.082  -0.122  -0.227
    1UNL     O9   29  -0.133  -0.253  -0.244
    1UNL    C21   30   0.029  -0.120  -0.117
    1UNL    O10   31   0.153  -0.157  -0.175
    1UNL    C22   32   0.419   0.170   0.122
    1UNL    O11   33   0.506   0.165   0.232
    1UNL    C23   34   0.481   0.254   0.005
    1UNL    O12   35   0.610   0.297   0.040
    1UNL    C24   36   0.484   0.169  -0.125
    1UNL    O13   37   0.543   0.241  -0.232
    1UNL     H1   38   0.935  -0.174   0.205
    1UNL     H2   39   0.777  -0.252   0.211
    1UNL     H3   40   0.875  -0.261   0.064
    1UNL     H4   41   0.720   0.130   0.009
    1UNL     H5   42   0.754   0.101  -0.162
    1UNL     H6   43   0.545  -0.035  -0.180
    1UNL     H7   44   0.359  -0.037   0.161
    1UNL     H8   45   0.142  -0.046   0.126
    1UNL     H9   46   0.142   0.129   0.103
    1UNL    H10   47   0.040   0.096  -0.125
    1UNL    H11   48  -0.223  -0.110   0.003
    1UNL    H12   49  -0.244   0.149   0.152
    1UNL    H13   50  -0.419   0.162   0.142
    1UNL    H14   51  -0.290  -0.033   0.304
    1UNL    H15   52  -0.364  -0.309   0.269
    1UNL    H16   53  -0.445  -0.207   0.388
    1UNL    H17   54  -0.540  -0.294   0.269
    1UNL    H18   55  -0.502  -0.215   0.010
    1UNL    H19   56  -0.501  -0.039   0.007
    1UNL    H20   57  -0.808   0.040   0.140
    1UNL    H21   58  -0.822   0.238  -0.026
    1UNL    H22   59  -0.956   0.132  -0.071
    1UNL    H23   60  -0.842   0.187  -0.193
    1UNL    H24   61  -0.685  -0.138  -0.159
    1UNL    H25   62  -0.601   0.013  -0.197
    1UNL    H26   63  -0.758  -0.022  -0.269
    1UNL    H27   64  -0.289  -0.055  -0.238
    1UNL    H28   65  -0.219   0.174  -0.197
    1UNL    H29   66  -0.036  -0.091  -0.322
    1UNL    H30   67  -0.058  -0.315  -0.259
    1UNL    H31   68   0.004  -0.196  -0.042
    1UNL    H32   69   0.225  -0.111  -0.126
    1UNL    H33   70   0.328   0.219   0.159
    1UNL    H34   71   0.585   0.110   0.209
    1UNL    H35   72   0.422   0.345  -0.014
    1UNL    H36   73   0.610   0.327   0.134
    1UNL    H37   74   0.381   0.146  -0.155
    1UNL    H38   75   0.547   0.186  -0.313
   0.00000   0.00000   0.00000   0.00000   0.00000   0.00000   0.00000   0.00000   0.00000
Generated with MDTraj, t= 1.0
 75
    1UNL     C1    1   0.807  -0.212   0.155
    1UNL     C2    2   0.762  -0.076   0.103
    1UNL     O1    3   0.721  -0.001   0.192
    1UNL     O2    4   0.766  -0.048  -0.037
    1UNL     C3    5   0.701   0.072  -0.065
    1UNL     C4    6   0.558   0.034  -0.101
    1UNL     O3    7   0.506  -0.041   0.017
    1UNL     C5    8   0.390   0.011   0.074
    1UNL     O4    9   0.283   0.019  -0.016
    1UNL     C6   10   0.158   0.024   0.056
    1UNL     C7   11   0.040   0.022  -0.046
    1UNL     O5   12  -0.085   0.036   0.028
    1UNL     C8   13  -0.197  -0.016  -0.037
    1UNL     O6   14  -0.321   0.040  -0.002
    1UNL     C9   15  -0.335   0.088   0.134
    1UNL    C10   16  -0.351  -0.026   0.235
    1UNL    C11   17  -0.426  -0.129   0.199
    1UNL    C12   18  -0.452  -0.249   0.285
    1UNL    C13   19  -0.510  -0.130   0.076
    1UNL    C14   20  -0.661  -0.109   0.109
    1UNL     O7   21  -0.722  -0.196   0.166
    1UNL    C15   22  -0.733   0.017   0.066
    1UNL    C16   23  -0.772   0.034  -0.061
    1UNL    C17   24  -0.822   0.168  -0.113
    1UNL    C18   25  -0.778  -0.073  -0.159
    1UNL    C19   26  -0.181  -0.013  -0.197
    1UNL     O8   27  -0.169   0.120  -0.245
    1UNL    C20   28  -0.054  -0.098  -0.242
    1UNL     O9   29  -0.082  -0.230  -0.279
    1UNL    C21   30   0.041  -0.114  -0.118
    1UNL    O10   31   0.163  -0.157  -0.168
    1UNL    C22   32   0.422   0.163   0.117
    1UNL    O11   33   0.514   0.175   0.220
    1UNL    C23   34   0.462   0.246  -0.003
    1UNL    O12   35   0.589   0.310   0.034
    1UNL    C24   36   0.471   0.160  -0.130
    1UNL    O13   37   0.520   0.234  -0.240
    1UNL     H1   38   0.854  -0.210   0.252
    1UNL     H2   39   0.724  -0.285   0.155
    1UNL     H3   40   0.882  -0.246   0.082
    1UNL     H4   41   0.707   0.140   0.020
    1UNL     H5   42   0.748   0.115  -0.152
    1UNL     H6   43   0.562  -0.030  -0.191
    1UNL     H7   44   0.363  -0.042   0.168
    1UNL     H8   45   0.161  -0.058   0.128
    1UNL     H9   46   0.154   0.110   0.124
    1UNL    H10   47   0.056   0.108  -0.114
    1UNL    H11   48  -0.206  -0.114   0.010
    1UNL    H12   49  -0.253   0.152   0.152
    1UNL    H13   50  -0.423   0.148   0.144
    1UNL    H14   51  -0.289  -0.035   0.325
    1UNL    H15   52  -0.433  -0.337   0.230
    1UNL    H16   53  -0.374  -0.246   0.365
    1UNL    H17   54  -0.554  -0.246   0.319
    1UNL    H18   55  -0.497  -0.234   0.038
    1UNL    H19   56  -0.478  -0.066   0.004
    1UNL    H20   57  -0.734   0.089   0.148
    1UNL    H21   58  -0.750   0.245  -0.078
    1UNL    H22   59  -0.934   0.156  -0.104
    1UNL    H23   60  -0.820   0.182  -0.220
    1UNL    H24   61  -0.749  -0.171  -0.109
    1UNL    H25   62  -0.706  -0.057  -0.234
    1UNL    H26   63  -0.873  -0.087  -0.211
    1UNL    H27   64  -0.271  -0.063  -0.236
    1UNL    H28   65  -0.250   0.178  -0.220
    1UNL    H29   66  -0.003  -0.054  -0.328
    1UNL    H30   67   0.000  -0.271  -0.291
    1UNL    H31   68  -0.006  -0.186  -0.048
    1UNL    H32   69   0.229  -0.110  -0.126
    1UNL    H33   70   0.336   0.214   0.164
    1UNL    H34   71   0.597   0.129   0.199
    1UNL    H35   72   0.389   0.327  -0.016
    1UNL    H36   73   0.571   0.382   0.096
    1UNL    H37   74   0.365   0.135  -0.159
    1UNL    H38   75   0.526   0.187  -0.328
   0.00000   0.00000   0.00000   0.00000   0.00000   0.00000   0.00000   0.00000   0.00000
Generated with MDTraj, t= 2.0
 75
    1UNL     C1    1   0.802  -0.222   0.144
    1UNL     C2    2   0.780  -0.083   0.095
    1UNL     O1    3   0.747  -0.000   0.179
    1UNL     O2    4   0.789  -0.058  -0.034
    1UNL     C3    5   0.713   0.058  -0.071
    1UNL     C4    6   0.561   0.035  -0.082
    1UNL     O3    7   0.514  -0.019   0.051
    1UNL     C5    8   0.392   0.032   0.098
    1UNL     O4    9   0.284   0.011   0.004
    1UNL     C6   10   0.152  -0.005   0.070
    1UNL     C7   11   0.039   0.008  -0.038
    1UNL     O5   12  -0.094   0.047   0.019
    1UNL     C8   13  -0.206  -0.015  -0.043
    1UNL     O6   14  -0.331   0.037  -0.011
    1UNL     C9   15  -0.330   0.071   0.126
    1UNL    C10   16  -0.331  -0.053   0.215
    1UNL    C11   17  -0.417  -0.152   0.194
    1UNL    C12   18  -0.452  -0.243   0.307
    1UNL    C13   19  -0.518  -0.163   0.080
    1UNL    C14   20  -0.653  -0.103   0.105
    1UNL     O7   21  -0.735  -0.158   0.171
    1UNL    C15   22  -0.688   0.026   0.034
    1UNL    C16   23  -0.783   0.034  -0.060
    1UNL    C17   24  -0.827   0.162  -0.131
    1UNL    C18   25  -0.850  -0.088  -0.116
    1UNL    C19   26  -0.192  -0.015  -0.201
    1UNL     O8   27  -0.188   0.122  -0.243
    1UNL    C20   28  -0.071  -0.096  -0.249
    1UNL     O9   29  -0.090  -0.218  -0.321
    1UNL    C21   30   0.035  -0.114  -0.130
    1UNL    O10   31   0.160  -0.150  -0.184
    1UNL    C22   32   0.421   0.190   0.125
    1UNL    O11   33   0.514   0.193   0.228
    1UNL    C23   34   0.461   0.260  -0.007
    1UNL    O12   35   0.586   0.333   0.037
    1UNL    C24   36   0.483   0.161  -0.122
    1UNL    O13   37   0.540   0.223  -0.240
    1UNL     H1   38   0.822  -0.237   0.251
    1UNL     H2   39   0.715  -0.287   0.122
    1UNL     H3   40   0.891  -0.260   0.090
    1UNL     H4   41   0.726   0.137   0.002
    1UNL     H5   42   0.752   0.083  -0.170
    1UNL     H6   43   0.547  -0.046  -0.157
    1UNL     H7   44   0.356  -0.022   0.190
    1UNL     H8   45   0.136  -0.096   0.130
    1UNL     H9   46   0.153   0.069   0.150
    1UNL    H10   47   0.073   0.100  -0.093
    1UNL    H11   48  -0.211  -0.112   0.003
    1UNL    H12   49  -0.239   0.119   0.152
    1UNL    H13   50  -0.401   0.150   0.147
    1UNL    H14   51  -0.259  -0.066   0.292
    1UNL    H15   52  -0.437  -0.344   0.280
    1UNL    H16   53  -0.376  -0.234   0.388
    1UNL    H17   54  -0.553  -0.228   0.339
    1UNL    H18   55  -0.541  -0.269   0.057
    1UNL    H19   56  -0.475  -0.110   0.000
    1UNL    H20   57  -0.607   0.096   0.054
    1UNL    H21   58  -0.739   0.227  -0.145
    1UNL    H22   59  -0.894   0.212  -0.060
    1UNL    H23   60  -0.867   0.144  -0.229
    1UNL    H24   61  -0.884  -0.158  -0.030
    1UNL    H25   62  -0.780  -0.138  -0.177
    1UNL    H26   63  -0.931  -0.064  -0.182
    1UNL    H27   64  -0.286  -0.060  -0.243
    1UNL    H28   65  -0.120   0.168  -0.193
    1UNL    H29   66  -0.025  -0.030  -0.324
    1UNL    H30   67  -0.004  -0.257  -0.331
    1UNL    H31   68  -0.004  -0.198  -0.067
    1UNL    H32   69   0.234  -0.112  -0.126
    1UNL    H33   70   0.327   0.239   0.153
    1UNL    H34   71   0.587   0.130   0.197
    1UNL    H35   72   0.394   0.338  -0.041
    1UNL    H36   73   0.573   0.360   0.133
    1UNL    H37   74   0.382   0.116  -0.156
    1UNL    H38   75   0.531   0.152  -0.309
   0.00000   0.00000   0.00000   0.00000   0.00000   0.00000   0.00000   0.00000   0.00000
Generated with MDTraj, t= 3.0
 75
    1UNL     C1    1   0.853  -0.203   0.153
    1UNL     C2    2   0.793  -0.073   0.111
    1UNL     O1    3   0.764   0.013   0.196
    1UNL     O2    4   0.772  -0.061  -0.026
    1UNL     C3    5   0.696   0.047  -0.063
    1UNL     C4    6   0.542   0.028  -0.081
    1UNL     O3    7   0.496  -0.029   0.046
    1UNL     C5    8   0.382   0.034   0.096
    1UNL     O4    9   0.279   0.020  -0.001
    1UNL     C6   10   0.148   0.039   0.051
    1UNL     C7   11   0.040   0.018  -0.056
    1UNL     O5   12  -0.089   0.036   0.014
    1UNL     C8   13  -0.207  -0.028  -0.044
    1UNL     O6   14  -0.322   0.026  -0.008
    1UNL     C9   15  -0.325   0.061   0.126
    1UNL    C10   16  -0.362  -0.048   0.219
    1UNL    C11   17  -0.434  -0.153   0.195
    1UNL    C12   18  -0.447  -0.252   0.300
    1UNL    C13   19  -0.513  -0.185   0.074
    1UNL    C14   20  -0.645  -0.112   0.089
    1UNL     O7   21  -0.730  -0.128   0.176
    1UNL    C15   22  -0.666   0.001  -0.014
    1UNL    C16   23  -0.788   0.028  -0.055
    1UNL    C17   24  -0.814   0.144  -0.157
    1UNL    C18   25  -0.907  -0.058  -0.023
    1UNL    C19   26  -0.187  -0.014  -0.203
    1UNL     O8   27  -0.185   0.125  -0.233
    1UNL    C20   28  -0.069  -0.088  -0.257
    1UNL     O9   29  -0.110  -0.212  -0.323
    1UNL    C21   30   0.043  -0.106  -0.145
    1UNL    O10   31   0.172  -0.127  -0.204
    1UNL    C22   32   0.418   0.181   0.128
    1UNL    O11   33   0.516   0.179   0.234
    1UNL    C23   34   0.470   0.252   0.003
    1UNL    O12   35   0.605   0.304   0.030
    1UNL    C24   36   0.480   0.160  -0.120
    1UNL    O13   37   0.549   0.221  -0.235
    1UNL     H1   38   0.877  -0.199   0.261
    1UNL     H2   39   0.787  -0.292   0.142
    1UNL     H3   40   0.948  -0.224   0.101
    1UNL     H4   41   0.704   0.117   0.022
    1UNL     H5   42   0.738   0.082  -0.159
    1UNL     H6   43   0.532  -0.048  -0.161
    1UNL     H7   44   0.369  -0.017   0.196
    1UNL     H8   45   0.136  -0.035   0.133
    1UNL     H9   46   0.120   0.125   0.114
    1UNL    H10   47   0.054   0.109  -0.124
    1UNL    H11   48  -0.207  -0.131  -0.013
    1UNL    H12   49  -0.230   0.101   0.155
    1UNL    H13   50  -0.391   0.147   0.150
    1UNL    H14   51  -0.290  -0.063   0.302
    1UNL    H15   52  -0.407  -0.347   0.266
    1UNL    H16   53  -0.378  -0.241   0.383
    1UNL    H17   54  -0.548  -0.265   0.334
    1UNL    H18   55  -0.539  -0.290   0.072
    1UNL    H19   56  -0.470  -0.147  -0.026
    1UNL    H20   57  -0.578   0.049  -0.052
    1UNL    H21   58  -0.745   0.146  -0.241
    1UNL    H22   59  -0.784   0.244  -0.115
    1UNL    H23   60  -0.909   0.123  -0.206
    1UNL    H24   61  -0.918  -0.043   0.087
    1UNL    H25   62  -0.871  -0.160  -0.036
    1UNL    H26   63  -0.999  -0.041  -0.079
    1UNL    H27   64  -0.266  -0.059  -0.272
    1UNL    H28   65  -0.270   0.160  -0.212
    1UNL    H29   66  -0.030  -0.020  -0.336
    1UNL    H30   67  -0.031  -0.265  -0.353
    1UNL    H31   68   0.021  -0.198  -0.085
    1UNL    H32   69   0.241  -0.097  -0.132
    1UNL    H33   70   0.337   0.236   0.180
    1UNL    H34   71   0.590   0.115   0.216
    1UNL    H35   72   0.394   0.325  -0.017
    1UNL    H36   73   0.600   0.348   0.115
    1UNL    H37   74   0.371   0.148  -0.161
    1UNL    H38   75   0.555   0.170  -0.318
   0.00000   0.00000   0.00000   0.00000   0.00000   0.00000   0.00000   0.00000   0.00000
Generated with MDTraj, t= 4.0
 75
    1UNL     C1    1   0.893  -0.157   0.191
    1UNL     C2    2   0.798  -0.064   0.120
    1UNL     O1    3   0.738   0.009   0.200
    1UNL     O2    4   0.782  -0.065  -0.016
    1UNL     C3    5   0.712   0.040  -0.075
    1UNL     C4    6   0.550   0.024  -0.100
    1UNL     O3    7   0.492  -0.046   0.015
    1UNL     C5    8   0.378   0.024   0.078
    1UNL     O4    9   0.261   0.038  -0.007
    1UNL     C6   10   0.137   0.031   0.056
    1UNL     C7   11   0.030   0.039  -0.053
    1UNL     O5   12  -0.103   0.049   0.008
    1UNL     C8   13  -0.213  -0.028  -0.055
    1UNL     O6   14  -0.337   0.016  -0.016
    1UNL     C9   15  -0.344   0.056   0.122
    1UNL    C10   16  -0.362  -0.060   0.216
    1UNL    C11   17  -0.430  -0.166   0.190
    1UNL    C12   18  -0.443  -0.269   0.300
    1UNL    C13   19  -0.510  -0.190   0.074
    1UNL    C14   20  -0.640  -0.114   0.072
    1UNL     O7   21  -0.706  -0.130   0.171
    1UNL    C15   22  -0.685  -0.035  -0.040
    1UNL    C16   23  -0.800   0.030  -0.058
    1UNL    C17   24  -0.827   0.098  -0.192
    1UNL    C18   25  -0.893   0.036   0.063
    1UNL    C19   26  -0.191  -0.009  -0.208
    1UNL     O8   27  -0.201   0.121  -0.246
    1UNL    C20   28  -0.067  -0.075  -0.252
    1UNL     O9   29  -0.092  -0.214  -0.283
    1UNL    C21   30   0.046  -0.081  -0.141
    1UNL    O10   31   0.173  -0.084  -0.211
    1UNL    C22   32   0.419   0.163   0.126
    1UNL    O11   33   0.494   0.147   0.244
    1UNL    C23   34   0.494   0.237   0.009
    1UNL    O12   35   0.627   0.280   0.039
    1UNL    C24   36   0.490   0.161  -0.122
    1UNL    O13   37   0.545   0.230  -0.240
    1UNL     H1   38   0.915  -0.114   0.292
    1UNL     H2   39   0.857  -0.261   0.208
    1UNL     H3   40   0.990  -0.172   0.140
    1UNL     H4   41   0.718   0.121   0.000
    1UNL     H5   42   0.759   0.058  -0.174
    1UNL     H6   43   0.521  -0.049  -0.179
    1UNL     H7   44   0.360  -0.048   0.162
    1UNL     H8   45   0.121  -0.062   0.116
    1UNL     H9   46   0.128   0.103   0.138
    1UNL    H10   47   0.046   0.121  -0.132
    1UNL    H11   48  -0.202  -0.132  -0.022
    1UNL    H12   49  -0.250   0.100   0.159
    1UNL    H13   50  -0.416   0.146   0.135
    1UNL    H14   51  -0.302  -0.072   0.303
    1UNL    H15   52  -0.374  -0.354   0.280
    1UNL    H16   53  -0.396  -0.230   0.386
    1UNL    H17   54  -0.544  -0.302   0.318
    1UNL    H18   55  -0.544  -0.292   0.074
    1UNL    H19   56  -0.456  -0.164  -0.025
    1UNL    H20   57  -0.612  -0.059  -0.117
    1UNL    H21   58  -0.836   0.017  -0.262
    1UNL    H22   59  -0.756   0.177  -0.221
    1UNL    H23   60  -0.921   0.149  -0.190
    1UNL    H24   61  -0.835   0.064   0.147
    1UNL    H25   62  -0.941  -0.064   0.088
    1UNL    H26   63  -0.976   0.106   0.051
    1UNL    H27   64  -0.282  -0.054  -0.262
    1UNL    H28   65  -0.205   0.181  -0.166
    1UNL    H29   66  -0.022  -0.022  -0.339
    1UNL    H30   67  -0.000  -0.255  -0.309
    1UNL    H31   68   0.046  -0.182  -0.094
    1UNL    H32   69   0.239  -0.062  -0.147
    1UNL    H33   70   0.324   0.215   0.145
    1UNL    H34   71   0.569   0.086   0.230
    1UNL    H35   72   0.443   0.323  -0.021
    1UNL    H36   73   0.626   0.339   0.121
    1UNL    H37   74   0.380   0.139  -0.157
    1UNL    H38   75   0.556   0.167  -0.313
   0.00000   0.00000   0.00000   0.00000   0.00000   0.00000   0.00000   0.00000   0.00000
Generated with MDTraj, t= 5.0
 75
    1UNL     C1    1   0.891  -0.173   0.180
    1UNL     C2    2   0.801  -0.068   0.123
    1UNL     O1    3   0.757   0.015   0.202
    1UNL     O2    4   0.774  -0.073  -0.009
    1UNL     C3    5   0.710   0.039  -0.065
    1UNL     C4    6   0.553   0.022  -0.079
    1UNL     O3    7   0.502  -0.034   0.038
    1UNL     C5    8   0.379   0.027   0.080
    1UNL     O4    9   0.273   0.020  -0.020
    1UNL     C6   10   0.146   0.043   0.036
    1UNL     C7   11   0.027   0.048  -0.070
    1UNL     O5   12  -0.105   0.063  -0.001
    1UNL     C8   13  -0.222  -0.011  -0.051
    1UNL     O6   14  -0.346   0.033  -0.019
    1UNL     C9   15  -0.367   0.045   0.123
    1UNL    C10   16  -0.358  -0.078   0.205
    1UNL    C11   17  -0.427  -0.187   0.185
    1UNL    C12   18  -0.432  -0.286   0.291
    1UNL    C13   19  -0.512  -0.190   0.061
    1UNL    C14   20  -0.649  -0.123   0.079
    1UNL     O7   21  -0.698  -0.127   0.190
    1UNL    C15   22  -0.718  -0.082  -0.047
    1UNL    C16   23  -0.801   0.025  -0.046
    1UNL    C17   24  -0.862   0.067  -0.178
    1UNL    C18   25  -0.806   0.117   0.069
    1UNL    C19   26  -0.211  -0.016  -0.207
    1UNL     O8   27  -0.201   0.114  -0.252
    1UNL    C20   28  -0.079  -0.088  -0.257
    1UNL     O9   29  -0.103  -0.227  -0.295
    1UNL    C21   30   0.046  -0.079  -0.156
    1UNL    O10   31   0.159  -0.095  -0.241
    1UNL    C22   32   0.417   0.170   0.131
    1UNL    O11   33   0.491   0.157   0.253
    1UNL    C23   34   0.486   0.261   0.013
    1UNL    O12   35   0.618   0.303   0.049
    1UNL    C24   36   0.494   0.161  -0.116
    1UNL    O13   37   0.578   0.224  -0.216
    1UNL     H1   38   0.956  -0.139   0.265
    1UNL     H2   39   0.836  -0.265   0.212
    1UNL     H3   40   0.945  -0.219   0.093
    1UNL     H4   41   0.741   0.122   0.002
    1UNL     H5   42   0.748   0.042  -0.171
    1UNL     H6   43   0.512  -0.056  -0.149
    1UNL     H7   44   0.357  -0.037   0.168
    1UNL     H8   45   0.128  -0.014   0.130
    1UNL     H9   46   0.151   0.145   0.077
    1UNL    H10   47   0.035   0.141  -0.139
    1UNL    H11   48  -0.207  -0.113  -0.012
    1UNL    H12   49  -0.291   0.123   0.152
    1UNL    H13   50  -0.463   0.107   0.148
    1UNL    H14   51  -0.293  -0.079   0.294
    1UNL    H15   52  -0.345  -0.352   0.275
    1UNL    H16   53  -0.403  -0.234   0.377
    1UNL    H17   54  -0.525  -0.342   0.298
    1UNL    H18   55  -0.537  -0.289   0.024
    1UNL    H19   56  -0.459  -0.132  -0.019
    1UNL    H20   57  -0.698  -0.144  -0.131
    1UNL    H21   58  -0.929  -0.009  -0.211
    1UNL    H22   59  -0.790   0.099  -0.257
    1UNL    H23   60  -0.906   0.167  -0.188
    1UNL    H24   61  -0.723   0.112   0.132
    1UNL    H25   62  -0.900   0.093   0.128
    1UNL    H26   63  -0.823   0.220   0.035
    1UNL    H27   64  -0.308  -0.057  -0.255
    1UNL    H28   65  -0.225   0.182  -0.179
    1UNL    H29   66  -0.057  -0.040  -0.356
    1UNL    H30   67  -0.016  -0.273  -0.327
    1UNL    H31   68   0.045  -0.160  -0.081
    1UNL    H32   69   0.232  -0.073  -0.184
    1UNL    H33   70   0.323   0.209   0.172
    1UNL    H34   71   0.574   0.104   0.235
    1UNL    H35   72   0.431   0.345  -0.007
    1UNL    H36   73   0.616   0.343   0.140
    1UNL    H37   74   0.387   0.145  -0.164
    1UNL    H38   75   0.596   0.167  -0.295
   0.00000   0.00000   0.00000   0.00000   0.00000   0.00000   0.00000   0.00000   0.00000
Generated with MDTraj, t= 6.0
 75
    1UNL     C1    1   0.842  -0.211   0.179
    1UNL     C2    2   0.790  -0.081   0.137
    1UNL     O1    3   0.762   0.007   0.215
    1UNL     O2    4   0.777  -0.067  -0.000
    1UNL     C3    5   0.709   0.056  -0.043
    1UNL     C4    6   0.554   0.033  -0.076
    1UNL     O3    7   0.491  -0.034   0.030
    1UNL     C5    8   0.372   0.035   0.086
    1UNL     O4    9   0.271   0.039  -0.017
    1UNL     C6   10   0.138   0.048   0.034
    1UNL     C7   11   0.027   0.034  -0.077
    1UNL     O5   12  -0.096   0.066  -0.020
    1UNL     C8   13  -0.214  -0.011  -0.065
    1UNL     O6   14  -0.339   0.026  -0.014
    1UNL     C9   15  -0.332   0.039   0.128
    1UNL    C10   16  -0.329  -0.088   0.208
    1UNL    C11   17  -0.408  -0.188   0.174
    1UNL    C12   18  -0.417  -0.314   0.255
    1UNL    C13   19  -0.511  -0.171   0.053
    1UNL    C14   20  -0.652  -0.126   0.093
    1UNL     O7   21  -0.676  -0.103   0.210
    1UNL    C15   22  -0.751  -0.101  -0.019
    1UNL    C16   23  -0.793   0.028  -0.036
    1UNL    C17   24  -0.888   0.056  -0.143
    1UNL    C18   25  -0.728   0.140   0.034
    1UNL    C19   26  -0.210  -0.017  -0.225
    1UNL     O8   27  -0.209   0.116  -0.276
    1UNL    C20   28  -0.082  -0.093  -0.269
    1UNL     O9   29  -0.118  -0.226  -0.298
    1UNL    C21   30   0.037  -0.095  -0.165
    1UNL    O10   31   0.154  -0.128  -0.223
    1UNL    C22   32   0.418   0.181   0.139
    1UNL    O11   33   0.503   0.161   0.247
    1UNL    C23   34   0.474   0.270   0.013
    1UNL    O12   35   0.591   0.339   0.042
    1UNL    C24   36   0.489   0.169  -0.110
    1UNL    O13   37   0.571   0.228  -0.212
    1UNL     H1   38   0.946  -0.209   0.221
    1UNL     H2   39   0.779  -0.259   0.256
    1UNL     H3   40   0.817  -0.272   0.085
    1UNL     H4   41   0.723   0.122   0.043
    1UNL     H5   42   0.772   0.091  -0.128
    1UNL     H6   43   0.547  -0.034  -0.164
    1UNL     H7   44   0.335  -0.017   0.175
    1UNL     H8   45   0.122  -0.036   0.106
    1UNL     H9   46   0.132   0.130   0.110
    1UNL    H10   47   0.039   0.132  -0.141
    1UNL    H11   48  -0.196  -0.115  -0.029
    1UNL    H12   49  -0.249   0.110   0.153
    1UNL    H13   50  -0.427   0.100   0.156
    1UNL    H14   51  -0.277  -0.098   0.299
    1UNL    H15   52  -0.330  -0.375   0.237
    1UNL    H16   53  -0.417  -0.295   0.360
    1UNL    H17   54  -0.496  -0.382   0.227
    1UNL    H18   55  -0.516  -0.256  -0.019
    1UNL    H19   56  -0.482  -0.088  -0.002
    1UNL    H20   57  -0.784  -0.178  -0.089
    1UNL    H21   58  -0.980   0.003  -0.154
    1UNL    H22   59  -0.844   0.043  -0.240
    1UNL    H23   60  -0.914   0.160  -0.140
    1UNL    H24   61  -0.673   0.110   0.120
    1UNL    H25   62  -0.814   0.203   0.065
    1UNL    H26   63  -0.664   0.200  -0.033
    1UNL    H27   64  -0.308  -0.069  -0.258
    1UNL    H28   65  -0.240   0.179  -0.210
    1UNL    H29   66  -0.045  -0.050  -0.364
    1UNL    H30   67  -0.035  -0.270  -0.333
    1UNL    H31   68   0.020  -0.177  -0.095
    1UNL    H32   69   0.231  -0.086  -0.163
    1UNL    H33   70   0.335   0.234   0.186
    1UNL    H34   71   0.584   0.104   0.230
    1UNL    H35   72   0.408   0.345  -0.011
    1UNL    H36   73   0.614   0.324   0.135
    1UNL    H37   74   0.385   0.160  -0.162
    1UNL    H38   75   0.594   0.168  -0.289
   0.00000   0.00000   0.00000   0.00000   0.00000   0.00000   0.00000   0.00000   0.00000
Generated with MDTraj, t= 7.0
 75
    1UNL     C1    1   0.789  -0.222   0.185
    1UNL     C2    2   0.742  -0.080   0.137
    1UNL     O1    3   0.686  -0.013   0.222
    1UNL     O2    4   0.779  -0.049   0.006
    1UNL     C3    5   0.713   0.070  -0.044
    1UNL     C4    6   0.565   0.046  -0.085
    1UNL     O3    7   0.495  -0.025   0.018
    1UNL     C5    8   0.376   0.031   0.072
    1UNL     O4    9   0.271   0.022  -0.019
    1UNL     C6   10   0.142   0.037   0.042
    1UNL     C7   11   0.039   0.032  -0.069
    1UNL     O5   12  -0.087   0.069  -0.017
    1UNL     C8   13  -0.200  -0.011  -0.061
    1UNL     O6   14  -0.325   0.034  -0.020
    1UNL     C9   15  -0.342   0.039   0.119
    1UNL    C10   16  -0.325  -0.094   0.176
    1UNL    C11   17  -0.404  -0.195   0.145
    1UNL    C12   18  -0.398  -0.329   0.222
    1UNL    C13   19  -0.516  -0.185   0.051
    1UNL    C14   20  -0.639  -0.118   0.110
    1UNL     O7   21  -0.635  -0.080   0.223
    1UNL    C15   22  -0.756  -0.085   0.036
    1UNL    C16   23  -0.783   0.035  -0.024
    1UNL    C17   24  -0.897   0.054  -0.108
    1UNL    C18   25  -0.695   0.147  -0.003
    1UNL    C19   26  -0.192  -0.019  -0.220
    1UNL     O8   27  -0.215   0.111  -0.277
    1UNL    C20   28  -0.063  -0.094  -0.260
    1UNL     O9   29  -0.094  -0.220  -0.304
    1UNL    C21   30   0.042  -0.105  -0.148
    1UNL    O10   31   0.162  -0.141  -0.199
    1UNL    C22   32   0.401   0.176   0.125
    1UNL    O11   33   0.463   0.173   0.243
    1UNL    C23   34   0.475   0.259   0.010
    1UNL    O12   35   0.601   0.317   0.047
    1UNL    C24   36   0.494   0.177  -0.119
    1UNL    O13   37   0.554   0.261  -0.224
    1UNL     H1   38   0.899  -0.238   0.176
    1UNL     H2   39   0.763  -0.238   0.292
    1UNL     H3   40   0.723  -0.297   0.130
    1UNL     H4   41   0.727   0.142   0.037
    1UNL     H5   42   0.769   0.117  -0.126
    1UNL     H6   43   0.569  -0.026  -0.169
    1UNL     H7   44   0.345  -0.037   0.150
    1UNL     H8   45   0.115  -0.037   0.121
    1UNL     H9   46   0.136   0.128   0.105
    1UNL    H10   47   0.054   0.120  -0.146
    1UNL    H11   48  -0.183  -0.115  -0.021
    1UNL    H12   49  -0.282   0.118   0.167
    1UNL    H13   50  -0.454   0.055   0.143
    1UNL    H14   51  -0.247  -0.110   0.252
    1UNL    H15   52  -0.308  -0.383   0.212
    1UNL    H16   53  -0.418  -0.318   0.330
    1UNL    H17   54  -0.463  -0.405   0.181
    1UNL    H18   55  -0.536  -0.289   0.012
    1UNL    H19   56  -0.489  -0.131  -0.032
    1UNL    H20   57  -0.826  -0.167   0.029
    1UNL    H21   58  -0.991   0.012  -0.081
    1UNL    H22   59  -0.893  -0.005  -0.200
    1UNL    H23   60  -0.912   0.160  -0.113
    1UNL    H24   61  -0.717   0.214   0.083
    1UNL    H25   62  -0.700   0.204  -0.091
    1UNL    H26   63  -0.589   0.117   0.003
    1UNL    H27   64  -0.278  -0.081  -0.269
    1UNL    H28   65  -0.195   0.182  -0.219
    1UNL    H29   66  -0.019  -0.044  -0.349
    1UNL    H30   67  -0.017  -0.266  -0.338
    1UNL    H31   68   0.016  -0.194  -0.091
    1UNL    H32   69   0.233  -0.114  -0.144
    1UNL    H33   70   0.303   0.224   0.132
    1UNL    H34   71   0.539   0.112   0.232
    1UNL    H35   72   0.417   0.343  -0.004
    1UNL    H36   73   0.603   0.327   0.147
    1UNL    H37   74   0.388   0.149  -0.158
    1UNL    H38   75   0.598   0.193  -0.281
   0.00000   0.00000   0.00000   0.00000   0.00000   0.00000   0.00000   0.00000   0.00000
Generated with MDTraj, t= 8.0
 75
    1UNL     C1    1   0.761  -0.218   0.185
    1UNL     C2    2   0.734  -0.079   0.145
    1UNL     O1    3   0.685  -0.003   0.222
    1UNL     O2    4   0.771  -0.046   0.022
    1UNL     C3    5   0.700   0.067  -0.022
    1UNL     C4    6   0.564   0.049  -0.083
    1UNL     O3    7   0.481  -0.021   0.018
    1UNL     C5    8   0.362   0.042   0.062
    1UNL     O4    9   0.256   0.051  -0.029
    1UNL     C6   10   0.127   0.034   0.031
    1UNL     C7   11   0.023   0.022  -0.074
    1UNL     O5   12  -0.102   0.052  -0.013
    1UNL     C8   13  -0.207  -0.028  -0.068
    1UNL     O6   14  -0.333   0.021  -0.024
    1UNL     C9   15  -0.333   0.027   0.122
    1UNL    C10   16  -0.311  -0.109   0.168
    1UNL    C11   17  -0.399  -0.207   0.155
    1UNL    C12   18  -0.371  -0.354   0.189
    1UNL    C13   19  -0.516  -0.185   0.068
    1UNL    C14   20  -0.616  -0.086   0.126
    1UNL     O7   21  -0.599  -0.029   0.230
    1UNL    C15   22  -0.745  -0.072   0.055
    1UNL    C16   23  -0.776   0.042  -0.016
    1UNL    C17   24  -0.919   0.051  -0.075
    1UNL    C18   25  -0.677   0.143  -0.049
    1UNL    C19   26  -0.196  -0.021  -0.224
    1UNL     O8   27  -0.191   0.109  -0.266
    1UNL    C20   28  -0.071  -0.105  -0.273
    1UNL     O9   29  -0.095  -0.234  -0.330
    1UNL    C21   30   0.033  -0.117  -0.153
    1UNL    O10   31   0.166  -0.144  -0.211
    1UNL    C22   32   0.401   0.186   0.119
    1UNL    O11   33   0.461   0.166   0.246
    1UNL    C23   34   0.482   0.264   0.009
    1UNL    O12   35   0.611   0.300   0.069
    1UNL    C24   36   0.499   0.187  -0.119
    1UNL    O13   37   0.565   0.264  -0.223
    1UNL     H1   38   0.837  -0.275   0.126
    1UNL     H2   39   0.780  -0.218   0.296
    1UNL     H3   40   0.659  -0.267   0.171
    1UNL     H4   41   0.701   0.147   0.050
    1UNL     H5   42   0.761   0.103  -0.105
    1UNL     H6   43   0.568  -0.020  -0.170
    1UNL     H7   44   0.336  -0.012   0.152
    1UNL     H8   45   0.131  -0.044   0.108
    1UNL     H9   46   0.113   0.125   0.090
    1UNL    H10   47   0.036   0.112  -0.150
    1UNL    H11   48  -0.193  -0.135  -0.036
    1UNL    H12   49  -0.253   0.078   0.173
    1UNL    H13   50  -0.435   0.060   0.156
    1UNL    H14   51  -0.225  -0.125   0.228
    1UNL    H15   52  -0.267  -0.369   0.196
    1UNL    H16   53  -0.421  -0.380   0.285
    1UNL    H17   54  -0.395  -0.413   0.103
    1UNL    H18   55  -0.565  -0.283   0.048
    1UNL    H19   56  -0.486  -0.161  -0.032
    1UNL    H20   57  -0.824  -0.147   0.069
    1UNL    H21   58  -1.002   0.037  -0.010
    1UNL    H22   59  -0.940  -0.025  -0.148
    1UNL    H23   60  -0.929   0.153  -0.105
    1UNL    H24   61  -0.677   0.237   0.013
    1UNL    H25   62  -0.687   0.166  -0.150
    1UNL    H26   63  -0.580   0.095  -0.045
    1UNL    H27   64  -0.298  -0.055  -0.270
    1UNL    H28   65  -0.237   0.169  -0.204
    1UNL    H29   66  -0.023  -0.042  -0.350
    1UNL    H30   67  -0.020  -0.289  -0.337
    1UNL    H31   68   0.027  -0.199  -0.082
    1UNL    H32   69   0.222  -0.088  -0.156
    1UNL    H33   70   0.314   0.247   0.145
    1UNL    H34   71   0.539   0.103   0.239
    1UNL    H35   72   0.436   0.355  -0.009
    1UNL    H36   73   0.596   0.334   0.157
    1UNL    H37   74   0.389   0.187  -0.155
    1UNL    H38   75   0.606   0.205  -0.288
   0.00000   0.00000   0.00000   0.00000   0.00000   0.00000   0.00000   0.00000   0.00000
Generated with MDTraj, t= 9.0
 75
    1UNL     C1    1   0.773  -0.225   0.209
    1UNL     C2    2   0.741  -0.087   0.156
    1UNL     O1    3   0.723   0.006   0.229
    1UNL     O2    4   0.739  -0.086   0.013
    1UNL     C3    5   0.698   0.047  -0.028
    1UNL     C4    6   0.563   0.052  -0.074
    1UNL     O3    7   0.474  -0.019   0.027
    1UNL     C5    8   0.363   0.059   0.069
    1UNL     O4    9   0.259   0.056  -0.029
    1UNL     C6   10   0.132   0.031   0.024
    1UNL     C7   11   0.022   0.019  -0.087
    1UNL     O5   12  -0.105   0.014  -0.017
    1UNL     C8   13  -0.219  -0.036  -0.090
    1UNL     O6   14  -0.343   0.011  -0.044
    1UNL     C9   15  -0.329   0.013   0.100
    1UNL    C10   16  -0.315  -0.118   0.162
    1UNL    C11   17  -0.404  -0.217   0.162
    1UNL    C12   18  -0.381  -0.356   0.209
    1UNL    C13   19  -0.535  -0.193   0.091
    1UNL    C14   20  -0.614  -0.077   0.140
    1UNL     O7   21  -0.565   0.002   0.216
    1UNL    C15   22  -0.752  -0.067   0.074
    1UNL    C16   23  -0.780   0.038  -0.010
    1UNL    C17   24  -0.922   0.051  -0.056
    1UNL    C18   25  -0.656   0.117  -0.064
    1UNL    C19   26  -0.209  -0.017  -0.244
    1UNL     O8   27  -0.198   0.116  -0.270
    1UNL    C20   28  -0.084  -0.103  -0.293
    1UNL     O9   29  -0.125  -0.243  -0.316
    1UNL    C21   30   0.031  -0.104  -0.180
    1UNL    O10   31   0.160  -0.117  -0.250
    1UNL    C22   32   0.406   0.193   0.122
    1UNL    O11   33   0.483   0.176   0.242
    1UNL    C23   34   0.479   0.281   0.017
    1UNL    O12   35   0.597   0.332   0.088
    1UNL    C24   36   0.516   0.200  -0.109
    1UNL    O13   37   0.599   0.275  -0.198
    1UNL     H1   38   0.750  -0.306   0.135
    1UNL     H2   39   0.873  -0.234   0.263
    1UNL     H3   40   0.690  -0.245   0.286
    1UNL     H4   41   0.705   0.119   0.054
    1UNL     H5   42   0.766   0.090  -0.101
    1UNL     H6   43   0.556  -0.014  -0.162
    1UNL     H7   44   0.333  -0.000   0.156
    1UNL     H8   45   0.138  -0.064   0.076
    1UNL     H9   46   0.114   0.107   0.101
    1UNL    H10   47   0.008   0.109  -0.162
    1UNL    H11   48  -0.228  -0.146  -0.070
    1UNL    H12   49  -0.259   0.087   0.123
    1UNL    H13   50  -0.424   0.043   0.145
    1UNL    H14   51  -0.231  -0.125   0.233
    1UNL    H15   52  -0.301  -0.356   0.282
    1UNL    H16   53  -0.473  -0.385   0.258
    1UNL    H17   54  -0.347  -0.412   0.125
    1UNL    H18   55  -0.593  -0.286   0.085
    1UNL    H19   56  -0.496  -0.168  -0.010
    1UNL    H20   57  -0.814  -0.151   0.095
    1UNL    H21   58  -0.984   0.081   0.025
    1UNL    H22   59  -0.948  -0.046  -0.089
    1UNL    H23   60  -0.928   0.125  -0.131
    1UNL    H24   61  -0.604   0.178   0.015
    1UNL    H25   62  -0.698   0.187  -0.132
    1UNL    H26   63  -0.598   0.048  -0.121
    1UNL    H27   64  -0.311  -0.049  -0.294
    1UNL    H28   65  -0.229   0.174  -0.192
    1UNL    H29   66  -0.042  -0.068  -0.388
    1UNL    H30   67  -0.052  -0.305  -0.322
    1UNL    H31   68   0.018  -0.204  -0.136
    1UNL    H32   69   0.232  -0.094  -0.178
    1UNL    H33   70   0.311   0.244   0.140
    1UNL    H34   71   0.560   0.114   0.233
    1UNL    H35   72   0.417   0.360  -0.014
    1UNL    H36   73   0.575   0.356   0.181
    1UNL    H37   74   0.418   0.192  -0.166
    1UNL    H38   75   0.612   0.220  -0.278
   0.00000   0.00000   0.00000   0.00000   0.00000   0.00000   0.00000   0.00000   0.00000
Generated with MDTraj, t= 10.0
 75
    1UNL     C1    1   0.785  -0.203   0.214
    1UNL     C2    2   0.740  -0.072   0.150
    1UNL     O1    3   0.693   0.012   0.219
    1UNL     O2    4   0.757  -0.064   0.014
    1UNL     C3    5   0.704   0.063  -0.029
    1UNL     C4    6   0.563   0.041  -0.081
    1UNL     O3    7   0.486  -0.029   0.028
    1UNL     C5    8   0.360   0.041   0.064
    1UNL     O4    9   0.267   0.058  -0.040
    1UNL     C6   10   0.141   0.023   0.012
    1UNL     C7   11   0.027   0.022  -0.097
    1UNL     O5   12  -0.095   0.006  -0.026
    1UNL     C8   13  -0.206  -0.052  -0.098
    1UNL     O6   14  -0.336  -0.006  -0.056
    1UNL     C9   15  -0.338   0.014   0.087
    1UNL    C10   16  -0.328  -0.106   0.173
    1UNL    C11   17  -0.419  -0.200   0.177
    1UNL    C12   18  -0.400  -0.330   0.261
    1UNL    C13   19  -0.545  -0.194   0.095
    1UNL    C14   20  -0.638  -0.092   0.156
    1UNL     O7   21  -0.615  -0.032   0.258
    1UNL    C15   22  -0.768  -0.055   0.096
    1UNL    C16   23  -0.783   0.031  -0.008
    1UNL    C17   24  -0.919   0.053  -0.069
    1UNL    C18   25  -0.675   0.108  -0.062
    1UNL    C19   26  -0.195  -0.025  -0.254
    1UNL     O8   27  -0.179   0.117  -0.274
    1UNL    C20   28  -0.070  -0.096  -0.299
    1UNL     O9   29  -0.104  -0.230  -0.327
    1UNL    C21   30   0.047  -0.084  -0.204
    1UNL    O10   31   0.163  -0.061  -0.279
    1UNL    C22   32   0.395   0.184   0.114
    1UNL    O11   33   0.461   0.181   0.244
    1UNL    C23   34   0.499   0.263   0.028
    1UNL    O12   35   0.614   0.285   0.098
    1UNL    C24   36   0.519   0.188  -0.104
    1UNL    O13   37   0.607   0.253  -0.189
    1UNL     H1   38   0.689  -0.261   0.216
    1UNL     H2   39   0.865  -0.258   0.157
    1UNL     H3   40   0.820  -0.204   0.322
    1UNL     H4   41   0.718   0.132   0.055
    1UNL     H5   42   0.765   0.102  -0.111
    1UNL     H6   43   0.569  -0.024  -0.170
    1UNL     H7   44   0.325  -0.013   0.154
    1UNL     H8   45   0.143  -0.074   0.058
    1UNL     H9   46   0.112   0.099   0.086
    1UNL    H10   47   0.020   0.131  -0.139
    1UNL    H11   48  -0.206  -0.161  -0.081
    1UNL    H12   49  -0.255   0.075   0.109
    1UNL    H13   50  -0.433   0.069   0.094
    1UNL    H14   51  -0.247  -0.113   0.242
    1UNL    H15   52  -0.380  -0.311   0.368
    1UNL    H16   53  -0.481  -0.395   0.270
    1UNL    H17   54  -0.310  -0.382   0.231
    1UNL    H18   55  -0.586  -0.295   0.087
    1UNL    H19   56  -0.517  -0.161  -0.013
    1UNL    H20   57  -0.845  -0.085   0.167
    1UNL    H21   58  -0.974   0.130  -0.021
    1UNL    H22   59  -0.965  -0.041  -0.068
    1UNL    H23   60  -0.912   0.080  -0.171
    1UNL    H24   61  -0.625   0.142   0.028
    1UNL    H25   62  -0.711   0.202  -0.111
    1UNL    H26   63  -0.625   0.039  -0.126
    1UNL    H27   64  -0.284  -0.065  -0.321
    1UNL    H28   65  -0.219   0.167  -0.194
    1UNL    H29   66  -0.031  -0.047  -0.389
    1UNL    H30   67  -0.018  -0.280  -0.344
    1UNL    H31   68   0.062  -0.176  -0.143
    1UNL    H32   69   0.210  -0.017  -0.211
    1UNL    H33   70   0.302   0.238   0.134
    1UNL    H34   71   0.537   0.122   0.228
    1UNL    H35   72   0.457   0.358  -0.001
    1UNL    H36   73   0.585   0.349   0.170
    1UNL    H37   74   0.420   0.192  -0.155
    1UNL    H38   75   0.598   0.208  -0.277
   0.00000   0.00000   0.00000   0.00000   0.00000   0.00000   0.00000   0.00000   0.00000
Generated with MDTraj, t= 11.0
 75
    1UNL     C1    1   0.798  -0.200   0.232
    1UNL     C2    2   0.743  -0.084   0.161
    1UNL     O1    3   0.681   0.001   0.223
    1UNL     O2    4   0.773  -0.074   0.025
    1UNL     C3    5   0.722   0.056  -0.020
    1UNL     C4    6   0.584   0.043  -0.081
    1UNL     O3    7   0.502  -0.031   0.008
    1UNL     C5    8   0.375   0.031   0.053
    1UNL     O4    9   0.280   0.037  -0.047
    1UNL     C6   10   0.149   0.028   0.017
    1UNL     C7   11   0.024   0.031  -0.087
    1UNL     O5   12  -0.104   0.003  -0.021
    1UNL     C8   13  -0.196  -0.057  -0.104
    1UNL     O6   14  -0.321  -0.017  -0.065
    1UNL     C9   15  -0.328   0.013   0.078
    1UNL    C10   16  -0.329  -0.104   0.169
    1UNL    C11   17  -0.430  -0.187   0.184
    1UNL    C12   18  -0.425  -0.283   0.295
    1UNL    C13   19  -0.553  -0.176   0.105
    1UNL    C14   20  -0.665  -0.097   0.168
    1UNL     O7   21  -0.647  -0.056   0.281
    1UNL    C15   22  -0.790  -0.069   0.097
    1UNL    C16   23  -0.794   0.019  -0.004
    1UNL    C17   24  -0.920   0.045  -0.081
    1UNL    C18   25  -0.680   0.106  -0.042
    1UNL    C19   26  -0.185  -0.026  -0.255
    1UNL     O8   27  -0.196   0.118  -0.272
    1UNL    C20   28  -0.050  -0.078  -0.310
    1UNL     O9   29  -0.066  -0.209  -0.362
    1UNL    C21   30   0.060  -0.068  -0.200
    1UNL    O10   31   0.169  -0.041  -0.272
    1UNL    C22   32   0.398   0.170   0.111
    1UNL    O11   33   0.458   0.166   0.236
    1UNL    C23   34   0.485   0.266   0.020
    1UNL    O12   35   0.601   0.290   0.084
    1UNL    C24   36   0.515   0.179  -0.112
    1UNL    O13   37   0.573   0.263  -0.203
    1UNL     H1   38   0.744  -0.207   0.330
    1UNL     H2   39   0.772  -0.289   0.167
    1UNL     H3   40   0.907  -0.210   0.256
    1UNL     H4   41   0.731   0.128   0.061
    1UNL     H5   42   0.785   0.087  -0.105
    1UNL     H6   43   0.590  -0.025  -0.168
    1UNL     H7   44   0.342  -0.043   0.130
    1UNL     H8   45   0.140  -0.070   0.060
    1UNL     H9   46   0.133   0.104   0.095
    1UNL    H10   47   0.022   0.135  -0.139
    1UNL    H11   48  -0.188  -0.165  -0.093
    1UNL    H12   49  -0.243   0.079   0.083
    1UNL    H13   50  -0.422   0.066   0.094
    1UNL    H14   51  -0.236  -0.113   0.224
    1UNL    H15   52  -0.487  -0.247   0.377
    1UNL    H16   53  -0.462  -0.379   0.281
    1UNL    H17   54  -0.325  -0.283   0.340
    1UNL    H18   55  -0.591  -0.267   0.062
    1UNL    H19   56  -0.530  -0.116   0.006
    1UNL    H20   57  -0.868  -0.120   0.151
    1UNL    H21   58  -0.959   0.143  -0.072
    1UNL    H22   59  -0.992  -0.028  -0.059
    1UNL    H23   60  -0.905   0.027  -0.184
    1UNL    H24   61  -0.671   0.173   0.037
    1UNL    H25   62  -0.681   0.171  -0.134
    1UNL    H26   63  -0.597   0.040  -0.048
    1UNL    H27   64  -0.278  -0.071  -0.312
    1UNL    H28   65  -0.239   0.151  -0.191
    1UNL    H29   66  -0.022  -0.018  -0.398
    1UNL    H30   67   0.027  -0.244  -0.391
    1UNL    H31   68   0.070  -0.176  -0.168
    1UNL    H32   69   0.250  -0.029  -0.209
    1UNL    H33   70   0.298   0.209   0.129
    1UNL    H34   71   0.541   0.113   0.243
    1UNL    H35   72   0.444   0.363  -0.014
    1UNL    H36   73   0.580   0.348   0.157
    1UNL    H37   74   0.418   0.157  -0.160
    1UNL    H38   75   0.572   0.227  -0.296
   0.00000   0.00000   0.00000   0.00000   0.00000   0.00000   0.00000   0.00000   0.00000
Generated with MDTraj, t= 12.0
 75
    1UNL     C1    1   0.807  -0.214   0.191
    1UNL     C2    2   0.764  -0.078   0.162
    1UNL     O1    3   0.722   0.003   0.244
    1UNL     O2    4   0.775  -0.060   0.031
    1UNL     C3    5   0.716   0.070  -0.002
    1UNL     C4    6   0.578   0.045  -0.062
    1UNL     O3    7   0.493  -0.031   0.025
    1UNL     C5    8   0.368   0.032   0.067
    1UNL     O4    9   0.275   0.035  -0.045
    1UNL     C6   10   0.147   0.010   0.008
    1UNL     C7   11   0.037   0.022  -0.097
    1UNL     O5   12  -0.092   0.010  -0.021
    1UNL     C8   13  -0.193  -0.064  -0.101
    1UNL     O6   14  -0.328  -0.041  -0.058
    1UNL     C9   15  -0.328   0.018   0.075
    1UNL    C10   16  -0.335  -0.080   0.185
    1UNL    C11   17  -0.433  -0.166   0.203
    1UNL    C12   18  -0.426  -0.263   0.316
    1UNL    C13   19  -0.551  -0.172   0.112
    1UNL    C14   20  -0.672  -0.103   0.165
    1UNL     O7   21  -0.664  -0.061   0.282
    1UNL    C15   22  -0.787  -0.092   0.063
    1UNL    C16   23  -0.809   0.021  -0.008
    1UNL    C17   24  -0.933   0.033  -0.089
    1UNL    C18   25  -0.699   0.129  -0.020
    1UNL    C19   26  -0.197  -0.026  -0.254
    1UNL     O8   27  -0.224   0.119  -0.272
    1UNL    C20   28  -0.058  -0.059  -0.324
    1UNL     O9   29  -0.053  -0.177  -0.410
    1UNL    C21   30   0.052  -0.083  -0.209
    1UNL    O10   31   0.182  -0.078  -0.263
    1UNL    C22   32   0.405   0.173   0.118
    1UNL    O11   33   0.481   0.162   0.233
    1UNL    C23   34   0.476   0.255   0.012
    1UNL    O12   35   0.589   0.311   0.062
    1UNL    C24   36   0.511   0.170  -0.115
    1UNL    O13   37   0.603   0.244  -0.190
    1UNL     H1   38   0.833  -0.225   0.299
    1UNL     H2   39   0.718  -0.278   0.164
    1UNL     H3   40   0.891  -0.259   0.133
    1UNL     H4   41   0.702   0.132   0.087
    1UNL     H5   42   0.773   0.127  -0.079
    1UNL     H6   43   0.581  -0.028  -0.145
    1UNL     H7   44   0.332  -0.036   0.148
    1UNL     H8   45   0.144  -0.091   0.048
    1UNL     H9   46   0.122   0.086   0.086
    1UNL    H10   47   0.042   0.126  -0.147
    1UNL    H11   48  -0.162  -0.167  -0.095
    1UNL    H12   49  -0.232   0.070   0.083
    1UNL    H13   50  -0.409   0.092   0.067
    1UNL    H14   51  -0.242  -0.092   0.240
    1UNL    H15   52  -0.523  -0.265   0.360
    1UNL    H16   53  -0.402  -0.365   0.290
    1UNL    H17   54  -0.360  -0.216   0.388
    1UNL    H18   55  -0.589  -0.269   0.078
    1UNL    H19   56  -0.529  -0.129   0.009
    1UNL    H20   57  -0.845  -0.185   0.060
    1UNL    H21   58  -0.970   0.132  -0.095
    1UNL    H22   59  -1.007  -0.030  -0.047
    1UNL    H23   60  -0.925  -0.022  -0.179
    1UNL    H24   61  -0.641   0.137   0.067
    1UNL    H25   62  -0.728   0.235  -0.035
    1UNL    H26   63  -0.638   0.104  -0.104
    1UNL    H27   64  -0.289  -0.076  -0.307
    1UNL    H28   65  -0.249   0.155  -0.189
    1UNL    H29   66  -0.025   0.032  -0.379
    1UNL    H30   67   0.046  -0.188  -0.434
    1UNL    H31   68   0.048  -0.182  -0.153
    1UNL    H32   69   0.242  -0.041  -0.187
    1UNL    H33   70   0.310   0.222   0.144
    1UNL    H34   71   0.558   0.105   0.211
    1UNL    H35   72   0.414   0.347  -0.016
    1UNL    H36   73   0.554   0.352   0.149
    1UNL    H37   74   0.424   0.145  -0.177
    1UNL    H38   75   0.615   0.203  -0.280
   0.00000   0.00000   0.00000   0.00000   0.00000   0.00000   0.00000   0.00000   0.00000
Generated with MDTraj, t= 13.0
 75
    1UNL     C1    1   0.835  -0.215   0.186
    1UNL     C2    2   0.770  -0.082   0.151
    1UNL     O1    3   0.709  -0.007   0.231
    1UNL     O2    4   0.785  -0.059   0.021
    1UNL     C3    5   0.736   0.067  -0.011
    1UNL     C4    6   0.585   0.049  -0.051
    1UNL     O3    7   0.509  -0.026   0.047
    1UNL     C5    8   0.383   0.023   0.075
    1UNL     O4    9   0.280   0.015  -0.031
    1UNL     C6   10   0.145  -0.013   0.015
    1UNL     C7   11   0.042   0.011  -0.100
    1UNL     O5   12  -0.092   0.018  -0.036
    1UNL     C8   13  -0.198  -0.053  -0.104
    1UNL     O6   14  -0.329  -0.038  -0.047
    1UNL     C9   15  -0.338   0.028   0.075
    1UNL    C10   16  -0.339  -0.061   0.191
    1UNL    C11   17  -0.429  -0.157   0.200
    1UNL    C12   18  -0.432  -0.238   0.327
    1UNL    C13   19  -0.543  -0.188   0.113
    1UNL    C14   20  -0.658  -0.104   0.147
    1UNL     O7   21  -0.680  -0.055   0.257
    1UNL    C15   22  -0.765  -0.102   0.047
    1UNL    C16   23  -0.802   0.014  -0.009
    1UNL    C17   24  -0.924   0.014  -0.103
    1UNL    C18   25  -0.748   0.146   0.028
    1UNL    C19   26  -0.192  -0.023  -0.253
    1UNL     O8   27  -0.245   0.104  -0.275
    1UNL    C20   28  -0.057  -0.053  -0.319
    1UNL     O9   29  -0.057  -0.142  -0.436
    1UNL    C21   30   0.044  -0.096  -0.210
    1UNL    O10   31   0.178  -0.108  -0.257
    1UNL    C22   32   0.402   0.177   0.121
    1UNL    O11   33   0.462   0.182   0.247
    1UNL    C23   34   0.484   0.260   0.020
    1UNL    O12   35   0.606   0.314   0.073
    1UNL    C24   36   0.512   0.171  -0.106
    1UNL    O13   37   0.579   0.240  -0.210
    1UNL     H1   38   0.934  -0.196   0.236
    1UNL     H2   39   0.760  -0.251   0.261
    1UNL     H3   40   0.847  -0.296   0.111
    1UNL     H4   41   0.733   0.124   0.083
    1UNL     H5   42   0.800   0.118  -0.087
    1UNL     H6   43   0.584  -0.031  -0.128
    1UNL     H7   44   0.358  -0.034   0.167
    1UNL     H8   45   0.135  -0.116   0.052
    1UNL     H9   46   0.128   0.060   0.099
    1UNL    H10   47   0.065   0.108  -0.157
    1UNL    H11   48  -0.175  -0.157  -0.088
    1UNL    H12   49  -0.257   0.103   0.061
    1UNL    H13   50  -0.434   0.083   0.069
    1UNL    H14   51  -0.251  -0.071   0.251
    1UNL    H15   52  -0.530  -0.274   0.337
    1UNL    H16   53  -0.366  -0.328   0.334
    1UNL    H17   54  -0.421  -0.170   0.408
    1UNL    H18   55  -0.567  -0.298   0.118
    1UNL    H19   56  -0.527  -0.178   0.005
    1UNL    H20   57  -0.832  -0.185   0.043
    1UNL    H21   58  -0.938   0.107  -0.149
    1UNL    H22   59  -1.016  -0.011  -0.056
    1UNL    H23   60  -0.925  -0.072  -0.165
    1UNL    H24   61  -0.695   0.146   0.121
    1UNL    H25   62  -0.828   0.215   0.038
    1UNL    H26   63  -0.680   0.169  -0.054
    1UNL    H27   64  -0.272  -0.093  -0.302
    1UNL    H28   65  -0.187   0.166  -0.223
    1UNL    H29   66  -0.033   0.044  -0.369
    1UNL    H30   67   0.031  -0.156  -0.474
    1UNL    H31   68   0.013  -0.196  -0.171
    1UNL    H32   69   0.234  -0.080  -0.190
    1UNL    H33   70   0.305   0.228   0.137
    1UNL    H34   71   0.540   0.122   0.243
    1UNL    H35   72   0.431   0.358  -0.016
    1UNL    H36   73   0.585   0.366   0.151
    1UNL    H37   74   0.414   0.148  -0.146
    1UNL    H38   75   0.574   0.192  -0.294
   0.00000   0.00000   0.00000   0.00000   0.00000   0.00000   0.00000   0.00000   0.00000
Generated with MDTraj, t= 14.0
 75
    1UNL     C1    1   0.845  -0.181   0.205
    1UNL     C2    2   0.772  -0.062   0.146
    1UNL     O1    3   0.695   0.003   0.216
    1UNL     O2    4   0.778  -0.054   0.013
    1UNL     C3    5   0.718   0.061  -0.025
    1UNL     C4    6   0.574   0.026  -0.078
    1UNL     O3    7   0.498  -0.056   0.017
    1UNL     C5    8   0.380   0.005   0.070
    1UNL     O4    9   0.266   0.014  -0.026
    1UNL     C6   10   0.132  -0.001   0.026
    1UNL     C7   11   0.035   0.021  -0.085
    1UNL     O5   12  -0.098   0.033  -0.034
    1UNL     C8   13  -0.192  -0.056  -0.099
    1UNL     O6   14  -0.324  -0.032  -0.042
    1UNL     C9   15  -0.325   0.043   0.074
    1UNL    C10   16  -0.322  -0.049   0.192
    1UNL    C11   17  -0.402  -0.155   0.209
    1UNL    C12   18  -0.415  -0.228   0.336
    1UNL    C13   19  -0.521  -0.190   0.114
    1UNL    C14   20  -0.647  -0.098   0.127
    1UNL     O7   21  -0.673  -0.030   0.224
    1UNL    C15   22  -0.735  -0.093   0.012
    1UNL    C16   23  -0.814   0.016  -0.016
    1UNL    C17   24  -0.909   0.012  -0.123
    1UNL    C18   25  -0.829   0.127   0.082
    1UNL    C19   26  -0.185  -0.030  -0.255
    1UNL     O8   27  -0.238   0.103  -0.269
    1UNL    C20   28  -0.049  -0.052  -0.317
    1UNL     O9   29  -0.039  -0.161  -0.410
    1UNL    C21   30   0.055  -0.075  -0.207
    1UNL    O10   31   0.194  -0.077  -0.252
    1UNL    C22   32   0.400   0.153   0.132
    1UNL    O11   33   0.463   0.142   0.256
    1UNL    C23   34   0.470   0.240   0.019
    1UNL    O12   35   0.596   0.300   0.071
    1UNL    C24   36   0.501   0.156  -0.112
    1UNL    O13   37   0.563   0.242  -0.202
    1UNL     H1   38   0.947  -0.183   0.163
    1UNL     H2   39   0.849  -0.150   0.310
    1UNL     H3   40   0.788  -0.277   0.207
    1UNL     H4   41   0.709   0.120   0.066
    1UNL     H5   42   0.788   0.113  -0.094
    1UNL     H6   43   0.598  -0.039  -0.164
    1UNL     H7   44   0.360  -0.074   0.144
    1UNL     H8   45   0.134  -0.105   0.061
    1UNL     H9   46   0.112   0.065   0.116
    1UNL    H10   47   0.057   0.126  -0.121
    1UNL    H11   48  -0.160  -0.158  -0.079
    1UNL    H12   49  -0.239   0.117   0.069
    1UNL    H13   50  -0.423   0.097   0.065
    1UNL    H14   51  -0.238  -0.042   0.261
    1UNL    H15   52  -0.496  -0.294   0.347
    1UNL    H16   53  -0.322  -0.278   0.368
    1UNL    H17   54  -0.435  -0.152   0.406
    1UNL    H18   55  -0.549  -0.299   0.132
    1UNL    H19   56  -0.479  -0.204   0.020
    1UNL    H20   57  -0.747  -0.186  -0.041
    1UNL    H21   58  -0.871   0.084  -0.188
    1UNL    H22   59  -1.010   0.034  -0.098
    1UNL    H23   60  -0.915  -0.086  -0.163
    1UNL    H24   61  -0.857   0.089   0.181
    1UNL    H25   62  -0.911   0.180   0.054
    1UNL    H26   63  -0.737   0.183   0.099
    1UNL    H27   64  -0.252  -0.106  -0.312
    1UNL    H28   65  -0.196   0.166  -0.200
    1UNL    H29   66  -0.012   0.044  -0.361
    1UNL    H30   67   0.052  -0.176  -0.429
    1UNL    H31   68   0.042  -0.176  -0.166
    1UNL    H32   69   0.257  -0.062  -0.173
    1UNL    H33   70   0.296   0.194   0.138
    1UNL    H34   71   0.546   0.087   0.250
    1UNL    H35   72   0.401   0.331  -0.009
    1UNL    H36   73   0.580   0.318   0.164
    1UNL    H37   74   0.405   0.139  -0.155
    1UNL    H38   75   0.564   0.197  -0.288
   0.00000   0.00000   0.00000   0.00000   0.00000   0.00000   0.00000   0.00000   0.00000
Generated with MDTraj, t= 15.0
 75
    1UNL     C1    1   0.851  -0.187   0.201
    1UNL     C2    2   0.790  -0.059   0.147
    1UNL     O1    3   0.744   0.027   0.218
    1UNL     O2    4   0.763  -0.062   0.013
    1UNL     C3    5   0.699   0.056  -0.024
    1UNL     C4    6   0.558   0.023  -0.070
    1UNL     O3    7   0.495  -0.060   0.037
    1UNL     C5    8   0.369  -0.008   0.080
    1UNL     O4    9   0.267  -0.004  -0.026
    1UNL     C6   10   0.136   0.020   0.018
    1UNL     C7   11   0.040   0.041  -0.093
    1UNL     O5   12  -0.095   0.040  -0.037
    1UNL     C8   13  -0.189  -0.051  -0.101
    1UNL     O6   14  -0.325  -0.033  -0.051
    1UNL     C9   15  -0.334   0.045   0.065
    1UNL    C10   16  -0.329  -0.040   0.193
    1UNL    C11   17  -0.407  -0.146   0.213
    1UNL    C12   18  -0.384  -0.224   0.334
    1UNL    C13   19  -0.520  -0.180   0.116
    1UNL    C14   20  -0.625  -0.074   0.121
    1UNL     O7   21  -0.643  -0.006   0.217
    1UNL    C15   22  -0.693  -0.049  -0.002
    1UNL    C16   23  -0.811   0.018  -0.007
    1UNL    C17   24  -0.880   0.016  -0.141
    1UNL    C18   25  -0.890   0.045   0.106
    1UNL    C19   26  -0.195  -0.030  -0.255
    1UNL     O8   27  -0.229   0.109  -0.283
    1UNL    C20   28  -0.055  -0.060  -0.315
    1UNL     O9   29  -0.056  -0.190  -0.380
    1UNL    C21   30   0.064  -0.062  -0.208
    1UNL    O10   31   0.193  -0.053  -0.271
    1UNL    C22   32   0.389   0.137   0.139
    1UNL    O11   33   0.468   0.123   0.250
    1UNL    C23   34   0.454   0.227   0.029
    1UNL    O12   35   0.583   0.284   0.067
    1UNL    C24   36   0.479   0.153  -0.104
    1UNL    O13   37   0.540   0.244  -0.193
    1UNL     H1   38   0.890  -0.235   0.110
    1UNL     H2   39   0.943  -0.164   0.250
    1UNL     H3   40   0.786  -0.252   0.265
    1UNL     H4   41   0.698   0.121   0.062
    1UNL     H5   42   0.754   0.108  -0.103
    1UNL     H6   43   0.560  -0.046  -0.157
    1UNL     H7   44   0.351  -0.075   0.165
    1UNL     H8   45   0.101  -0.065   0.078
    1UNL     H9   46   0.148   0.107   0.089
    1UNL    H10   47   0.047   0.144  -0.135
    1UNL    H11   48  -0.157  -0.155  -0.083
    1UNL    H12   49  -0.247   0.117   0.056
    1UNL    H13   50  -0.432   0.097   0.069
    1UNL    H14   51  -0.260  -0.010   0.268
    1UNL    H15   52  -0.412  -0.328   0.324
    1UNL    H16   53  -0.284  -0.207   0.369
    1UNL    H17   54  -0.449  -0.181   0.405
    1UNL    H18   55  -0.564  -0.283   0.139
    1UNL    H19   56  -0.476  -0.201   0.024
    1UNL    H20   57  -0.657  -0.080  -0.099
    1UNL    H21   58  -0.810   0.053  -0.209
    1UNL    H22   59  -0.966   0.078  -0.147
    1UNL    H23   60  -0.904  -0.082  -0.170
    1UNL    H24   61  -0.967  -0.034   0.115
    1UNL    H25   62  -0.947   0.132   0.089
    1UNL    H26   63  -0.839   0.036   0.200
    1UNL    H27   64  -0.275  -0.092  -0.311
    1UNL    H28   65  -0.173   0.172  -0.231
    1UNL    H29   66  -0.038   0.015  -0.395
    1UNL    H30   67   0.034  -0.227  -0.392
    1UNL    H31   68   0.046  -0.159  -0.163
    1UNL    H32   69   0.264  -0.051  -0.196
    1UNL    H33   70   0.299   0.191   0.183
    1UNL    H34   71   0.551   0.085   0.215
    1UNL    H35   72   0.384   0.321   0.009
    1UNL    H36   73   0.582   0.294   0.167
    1UNL    H37   74   0.385   0.127  -0.145
    1UNL    H38   75   0.560   0.189  -0.272
   0.00000   0.00000   0.00000   0.00000   0.00000   0.00000   0.00000   0.00000   0.00000
Generated with MDTraj, t= 16.0
 75
    1UNL     C1    1   0.853  -0.183   0.194
    1UNL     C2    2   0.790  -0.065   0.132
    1UNL     O1    3   0.743   0.021   0.202
    1UNL     O2    4   0.771  -0.062  -0.006
    1UNL     C3    5   0.699   0.053  -0.035
    1UNL     C4    6   0.554   0.024  -0.052
    1UNL     O3    7   0.489  -0.053   0.056
    1UNL     C5    8   0.361  -0.002   0.091
    1UNL     O4    9   0.265  -0.001  -0.011
    1UNL     C6   10   0.127   0.000   0.025
    1UNL     C7   11   0.038   0.039  -0.100
    1UNL     O5   12  -0.103   0.059  -0.061
    1UNL     C8   13  -0.201  -0.026  -0.110
    1UNL     O6   14  -0.331  -0.004  -0.059
    1UNL     C9   15  -0.326   0.053   0.066
    1UNL    C10   16  -0.300  -0.046   0.185
    1UNL    C11   17  -0.396  -0.132   0.219
    1UNL    C12   18  -0.355  -0.215   0.343
    1UNL    C13   19  -0.510  -0.162   0.129
    1UNL    C14   20  -0.614  -0.055   0.125
    1UNL     O7   21  -0.639   0.010   0.222
    1UNL    C15   22  -0.681  -0.023  -0.003
    1UNL    C16   23  -0.814   0.001  -0.019
    1UNL    C17   24  -0.859   0.049  -0.150
    1UNL    C18   25  -0.906  -0.057   0.089
    1UNL    C19   26  -0.195  -0.026  -0.259
    1UNL     O8   27  -0.209   0.104  -0.303
    1UNL    C20   28  -0.061  -0.073  -0.318
    1UNL     O9   29  -0.082  -0.204  -0.373
    1UNL    C21   30   0.051  -0.082  -0.207
    1UNL    O10   31   0.168  -0.069  -0.276
    1UNL    C22   32   0.388   0.141   0.154
    1UNL    O11   33   0.470   0.118   0.258
    1UNL    C23   34   0.455   0.234   0.044
    1UNL    O12   35   0.580   0.287   0.087
    1UNL    C24   36   0.477   0.155  -0.088
    1UNL    O13   37   0.533   0.239  -0.187
    1UNL     H1   38   0.819  -0.272   0.142
    1UNL     H2   39   0.954  -0.183   0.159
    1UNL     H3   40   0.843  -0.197   0.302
    1UNL     H4   41   0.713   0.137   0.032
    1UNL     H5   42   0.746   0.083  -0.130
    1UNL     H6   43   0.532  -0.048  -0.133
    1UNL     H7   44   0.328  -0.073   0.166
    1UNL     H8   45   0.110  -0.094   0.076
    1UNL     H9   46   0.119   0.076   0.108
    1UNL    H10   47   0.079   0.131  -0.144
    1UNL    H11   48  -0.175  -0.128  -0.074
    1UNL    H12   49  -0.238   0.126   0.065
    1UNL    H13   50  -0.426   0.094   0.079
    1UNL    H14   51  -0.217  -0.036   0.258
    1UNL    H15   52  -0.327  -0.314   0.310
    1UNL    H16   53  -0.290  -0.164   0.408
    1UNL    H17   54  -0.443  -0.233   0.403
    1UNL    H18   55  -0.553  -0.261   0.163
    1UNL    H19   56  -0.486  -0.188   0.028
    1UNL    H20   57  -0.626   0.009  -0.090
    1UNL    H21   58  -0.779   0.064  -0.218
    1UNL    H22   59  -0.899   0.147  -0.130
    1UNL    H23   60  -0.917  -0.025  -0.198
    1UNL    H24   61  -1.003  -0.096   0.059
    1UNL    H25   62  -0.927   0.019   0.166
    1UNL    H26   63  -0.858  -0.138   0.134
    1UNL    H27   64  -0.284  -0.093  -0.285
    1UNL    H28   65  -0.160   0.162  -0.242
    1UNL    H29   66  -0.021  -0.008  -0.398
    1UNL    H30   67   0.007  -0.252  -0.387
    1UNL    H31   68   0.046  -0.181  -0.165
    1UNL    H32   69   0.235  -0.067  -0.213
    1UNL    H33   70   0.290   0.180   0.195
    1UNL    H34   71   0.557   0.084   0.231
    1UNL    H35   72   0.382   0.323   0.020
    1UNL    H36   73   0.578   0.297   0.182
    1UNL    H37   74   0.379   0.138  -0.127
    1UNL    H38   75   0.553   0.192  -0.273
   0.00000   0.00000   0.00000   0.00000   0.00000   0.00000   0.00000   0.00000   0.00000
Generated with MDTraj, t= 17.0
 75
    1UNL     C1    1   0.851  -0.185   0.173
    1UNL     C2    2   0.761  -0.073   0.128
    1UNL     O1    3   0.700  -0.011   0.210
    1UNL     O2    4   0.758  -0.055  -0.006
    1UNL     C3    5   0.687   0.056  -0.030
    1UNL     C4    6   0.546   0.032  -0.075
    1UNL     O3    7   0.488  -0.045   0.031
    1UNL     C5    8   0.358  -0.000   0.071
    1UNL     O4    9   0.263   0.002  -0.030
    1UNL     C6   10   0.129   0.012   0.020
    1UNL     C7   11   0.040   0.028  -0.095
    1UNL     O5   12  -0.091   0.061  -0.046
    1UNL     C8   13  -0.198  -0.024  -0.095
    1UNL     O6   14  -0.326   0.030  -0.062
    1UNL     C9   15  -0.323   0.092   0.066
    1UNL    C10   16  -0.298  -0.014   0.177
    1UNL    C11   17  -0.378  -0.117   0.209
    1UNL    C12   18  -0.348  -0.211   0.321
    1UNL    C13   19  -0.490  -0.135   0.111
    1UNL    C14   20  -0.605  -0.042   0.129
    1UNL     O7   21  -0.647  -0.029   0.243
    1UNL    C15   22  -0.666   0.028   0.020
    1UNL    C16   23  -0.792  -0.007  -0.018
    1UNL    C17   24  -0.829   0.038  -0.151
    1UNL    C18   25  -0.874  -0.114   0.067
    1UNL    C19   26  -0.195  -0.029  -0.252
    1UNL     O8   27  -0.202   0.109  -0.302
    1UNL    C20   28  -0.059  -0.081  -0.300
    1UNL     O9   29  -0.082  -0.203  -0.366
    1UNL    C21   30   0.042  -0.106  -0.186
    1UNL    O10   31   0.164  -0.137  -0.247
    1UNL    C22   32   0.379   0.140   0.143
    1UNL    O11   33   0.444   0.125   0.268
    1UNL    C23   34   0.459   0.236   0.046
    1UNL    O12   35   0.575   0.278   0.102
    1UNL    C24   36   0.472   0.167  -0.093
    1UNL    O13   37   0.533   0.251  -0.186
    1UNL     H1   38   0.804  -0.248   0.247
    1UNL     H2   39   0.890  -0.246   0.096
    1UNL     H3   40   0.933  -0.142   0.230
    1UNL     H4   41   0.693   0.118   0.060
    1UNL     H5   42   0.747   0.112  -0.103
    1UNL     H6   43   0.536  -0.029  -0.166
    1UNL     H7   44   0.318  -0.072   0.141
    1UNL     H8   45   0.095  -0.068   0.085
    1UNL     H9   46   0.129   0.100   0.089
    1UNL    H10   47   0.076   0.109  -0.156
    1UNL    H11   48  -0.182  -0.124  -0.047
    1UNL    H12   49  -0.234   0.163   0.064
    1UNL    H13   50  -0.417   0.139   0.085
    1UNL    H14   51  -0.225   0.004   0.251
    1UNL    H15   52  -0.265  -0.275   0.294
    1UNL    H16   53  -0.346  -0.163   0.413
    1UNL    H17   54  -0.425  -0.289   0.328
    1UNL    H18   55  -0.532  -0.236   0.113
    1UNL    H19   56  -0.454  -0.129   0.006
    1UNL    H20   57  -0.620   0.105  -0.041
    1UNL    H21   58  -0.749   0.041  -0.222
    1UNL    H22   59  -0.857   0.140  -0.137
    1UNL    H23   60  -0.890  -0.032  -0.204
    1UNL    H24   61  -0.974  -0.099   0.103
    1UNL    H25   62  -0.817  -0.132   0.162
    1UNL    H26   63  -0.875  -0.206   0.020
    1UNL    H27   64  -0.276  -0.092  -0.300
    1UNL    H28   65  -0.284   0.160  -0.271
    1UNL    H29   66  -0.016  -0.003  -0.364
    1UNL    H30   67   0.004  -0.258  -0.384
    1UNL    H31   68   0.016  -0.191  -0.124
    1UNL    H32   69   0.236  -0.108  -0.177
    1UNL    H33   70   0.275   0.172   0.169
    1UNL    H34   71   0.531   0.078   0.250
    1UNL    H35   72   0.399   0.334   0.022
    1UNL    H36   73   0.564   0.285   0.203
    1UNL    H37   74   0.377   0.149  -0.136
    1UNL    H38   75   0.550   0.198  -0.268
   0.00000   0.00000   0.00000   0.00000   0.00000   0.00000   0.00000   0.00000   0.00000
Generated with MDTraj, t= 18.0
 75
    1UNL     C1    1   0.824  -0.222   0.158
    1UNL     C2    2   0.763  -0.082   0.133
    1UNL     O1    3   0.691  -0.032   0.217
    1UNL     O2    4   0.777  -0.039   0.005
    1UNL     C3    5   0.705   0.077  -0.020
    1UNL     C4    6   0.565   0.051  -0.067
    1UNL     O3    7   0.493  -0.053   0.006
    1UNL     C5    8   0.368  -0.004   0.069
    1UNL     O4    9   0.269  -0.001  -0.028
    1UNL     C6   10   0.137   0.019   0.016
    1UNL     C7   11   0.031   0.017  -0.087
    1UNL     O5   12  -0.100   0.064  -0.043
    1UNL     C8   13  -0.217   0.002  -0.098
    1UNL     O6   14  -0.335   0.069  -0.059
    1UNL     C9   15  -0.322   0.125   0.069
    1UNL    C10   16  -0.294   0.024   0.174
    1UNL    C11   17  -0.353  -0.094   0.200
    1UNL    C12   18  -0.317  -0.185   0.305
    1UNL    C13   19  -0.462  -0.133   0.102
    1UNL    C14   20  -0.596  -0.065   0.125
    1UNL     O7   21  -0.649  -0.067   0.236
    1UNL    C15   22  -0.660   0.002   0.022
    1UNL    C16   23  -0.783  -0.024  -0.019
    1UNL    C17   24  -0.830   0.060  -0.134
    1UNL    C18   25  -0.871  -0.143   0.022
    1UNL    C19   26  -0.206  -0.021  -0.249
    1UNL     O8   27  -0.226   0.100  -0.317
    1UNL    C20   28  -0.080  -0.093  -0.285
    1UNL     O9   29  -0.100  -0.218  -0.353
    1UNL    C21   30   0.016  -0.118  -0.163
    1UNL    O10   31   0.132  -0.181  -0.210
    1UNL    C22   32   0.392   0.132   0.138
    1UNL    O11   33   0.462   0.123   0.261
    1UNL    C23   34   0.449   0.244   0.044
    1UNL    O12   35   0.565   0.291   0.100
    1UNL    C24   36   0.476   0.175  -0.092
    1UNL    O13   37   0.540   0.268  -0.179
    1UNL     H1   38   0.861  -0.216   0.257
    1UNL     H2   39   0.756  -0.301   0.139
    1UNL     H3   40   0.914  -0.242   0.103
    1UNL     H4   41   0.699   0.123   0.080
    1UNL     H5   42   0.763   0.153  -0.076
    1UNL     H6   43   0.585   0.013  -0.168
    1UNL     H7   44   0.340  -0.075   0.147
    1UNL     H8   45   0.115  -0.061   0.083
    1UNL     H9   46   0.116   0.109   0.080
    1UNL    H10   47   0.048   0.092  -0.161
    1UNL    H11   48  -0.217  -0.100  -0.053
    1UNL    H12   49  -0.244   0.205   0.059
    1UNL    H13   50  -0.416   0.164   0.091
    1UNL    H14   51  -0.226   0.056   0.256
    1UNL    H15   52  -0.210  -0.193   0.307
    1UNL    H16   53  -0.371  -0.165   0.395
    1UNL    H17   54  -0.338  -0.285   0.272
    1UNL    H18   55  -0.480  -0.237   0.101
    1UNL    H19   56  -0.421  -0.109  -0.002
    1UNL    H20   57  -0.614   0.091  -0.016
    1UNL    H21   58  -0.773   0.042  -0.225
    1UNL    H22   59  -0.813   0.159  -0.103
    1UNL    H23   60  -0.924   0.037  -0.182
    1UNL    H24   61  -0.964  -0.116   0.059
    1UNL    H25   62  -0.820  -0.192   0.108
    1UNL    H26   63  -0.878  -0.223  -0.050
    1UNL    H27   64  -0.289  -0.089  -0.281
    1UNL    H28   65  -0.153   0.165  -0.295
    1UNL    H29   66  -0.031  -0.020  -0.350
    1UNL    H30   67  -0.017  -0.263  -0.370
    1UNL    H31   68  -0.039  -0.191  -0.102
    1UNL    H32   69   0.214  -0.146  -0.164
    1UNL    H33   70   0.292   0.161   0.185
    1UNL    H34   71   0.543   0.067   0.253
    1UNL    H35   72   0.377   0.335   0.034
    1UNL    H36   73   0.545   0.322   0.188
    1UNL    H37   74   0.391   0.143  -0.145
    1UNL    H38   75   0.572   0.223  -0.259
   0.00000   0.00000   0.00000   0.00000   0.00000   0.00000   0.00000   0.00000   0.00000
Generated with MDTraj, t= 19.0
 75
    1UNL     C1    1   0.800  -0.244   0.135
    1UNL     C2    2   0.772  -0.100   0.131
    1UNL     O1    3   0.712  -0.040   0.219
    1UNL     O2    4   0.789  -0.036   0.009
    1UNL     C3    5   0.710   0.081  -0.012
    1UNL     C4    6   0.574   0.054  -0.068
    1UNL     O3    7   0.495  -0.041   0.014
    1UNL     C5    8   0.359  -0.002   0.066
    1UNL     O4    9   0.260   0.010  -0.032
    1UNL     C6   10   0.131   0.022   0.012
    1UNL     C7   11   0.028   0.019  -0.102
    1UNL     O5   12  -0.094   0.092  -0.062
    1UNL     C8   13  -0.215   0.017  -0.091
    1UNL     O6   14  -0.335   0.091  -0.059
    1UNL     C9   15  -0.337   0.143   0.067
    1UNL    C10   16  -0.302   0.056   0.184
    1UNL    C11   17  -0.343  -0.069   0.191
    1UNL    C12   18  -0.308  -0.151   0.313
    1UNL    C13   19  -0.435  -0.132   0.090
    1UNL    C14   20  -0.582  -0.100   0.109
    1UNL     O7   21  -0.651  -0.143   0.198
    1UNL    C15   22  -0.644  -0.022   0.004
    1UNL    C16   23  -0.773  -0.021  -0.019
    1UNL    C17   24  -0.831   0.068  -0.118
    1UNL    C18   25  -0.859  -0.136   0.023
    1UNL    C19   26  -0.218  -0.018  -0.248
    1UNL     O8   27  -0.209   0.106  -0.311
    1UNL    C20   28  -0.105  -0.118  -0.280
    1UNL     O9   29  -0.145  -0.252  -0.299
    1UNL    C21   30   0.004  -0.122  -0.165
    1UNL    O10   31   0.129  -0.181  -0.209
    1UNL    C22   32   0.381   0.127   0.142
    1UNL    O11   33   0.465   0.122   0.252
    1UNL    C23   34   0.445   0.243   0.046
    1UNL    O12   35   0.556   0.296   0.110
    1UNL    C24   36   0.486   0.181  -0.088
    1UNL    O13   37   0.560   0.273  -0.166
    1UNL     H1   38   0.905  -0.244   0.142
    1UNL     H2   39   0.749  -0.291   0.217
    1UNL     H3   40   0.768  -0.295   0.048
    1UNL     H4   41   0.699   0.130   0.086
    1UNL     H5   42   0.776   0.144  -0.074
    1UNL     H6   43   0.589   0.004  -0.164
    1UNL     H7   44   0.319  -0.090   0.124
    1UNL     H8   45   0.109  -0.047   0.091
    1UNL     H9   46   0.126   0.119   0.069
    1UNL    H10   47   0.072   0.070  -0.182
    1UNL    H11   48  -0.204  -0.079  -0.034
    1UNL    H12   49  -0.278   0.236   0.058
    1UNL    H13   50  -0.436   0.173   0.076
    1UNL    H14   51  -0.263   0.095   0.274
    1UNL    H15   52  -0.218  -0.112   0.354
    1UNL    H16   53  -0.393  -0.175   0.378
    1UNL    H17   54  -0.270  -0.240   0.273
    1UNL    H18   55  -0.428  -0.236   0.097
    1UNL    H19   56  -0.405  -0.103  -0.018
    1UNL    H20   57  -0.577   0.044  -0.052
    1UNL    H21   58  -0.790   0.039  -0.213
    1UNL    H22   59  -0.795   0.163  -0.087
    1UNL    H23   60  -0.935   0.063  -0.141
    1UNL    H24   61  -0.957  -0.112   0.002
    1UNL    H25   62  -0.857  -0.156   0.129
    1UNL    H26   63  -0.829  -0.234  -0.020
    1UNL    H27   64  -0.309  -0.073  -0.276
    1UNL    H28   65  -0.277   0.158  -0.268
    1UNL    H29   66  -0.051  -0.074  -0.363
    1UNL    H30   67  -0.070  -0.304  -0.323
    1UNL    H31   68  -0.033  -0.189  -0.084
    1UNL    H32   69   0.200  -0.151  -0.155
    1UNL    H33   70   0.285   0.172   0.175
    1UNL    H34   71   0.547   0.069   0.239
    1UNL    H35   72   0.375   0.335   0.029
    1UNL    H36   73   0.527   0.318   0.205
    1UNL    H37   74   0.400   0.152  -0.141
    1UNL    H38   75   0.602   0.236  -0.246
   0.00000   0.00000   0.00000   0.00000   0.00000   0.00000   0.00000   0.00000   0.00000
Generated with MDTraj, t= 20.0
 75
    1UNL     C1    1   0.814  -0.234   0.152
    1UNL     C2    2   0.744  -0.100   0.119
    1UNL     O1    3   0.683  -0.060   0.215
    1UNL     O2    4   0.758  -0.056  -0.006
    1UNL     C3    5   0.695   0.066  -0.026
    1UNL     C4    6   0.556   0.049  -0.081
    1UNL     O3    7   0.481  -0.037   0.012
    1UNL     C5    8   0.355   0.008   0.053
    1UNL     O4    9   0.263   0.019  -0.047
    1UNL     C6   10   0.140   0.074  -0.019
    1UNL     C7   11   0.030   0.043  -0.126
    1UNL     O5   12  -0.090   0.102  -0.070
    1UNL     C8   13  -0.202   0.028  -0.098
    1UNL     O6   14  -0.324   0.098  -0.053
    1UNL     C9   15  -0.323   0.159   0.068
    1UNL    C10   16  -0.304   0.066   0.191
    1UNL    C11   17  -0.348  -0.060   0.193
    1UNL    C12   18  -0.349  -0.134   0.325
    1UNL    C13   19  -0.419  -0.136   0.084
    1UNL    C14   20  -0.568  -0.138   0.090
    1UNL     O7   21  -0.628  -0.210   0.164
    1UNL    C15   22  -0.639  -0.032   0.007
    1UNL    C16   23  -0.766  -0.026  -0.011
    1UNL    C17   24  -0.812   0.064  -0.124
    1UNL    C18   25  -0.866  -0.114   0.054
    1UNL    C19   26  -0.202  -0.013  -0.246
    1UNL     O8   27  -0.183   0.097  -0.328
    1UNL    C20   28  -0.099  -0.139  -0.256
    1UNL     O9   29  -0.158  -0.263  -0.226
    1UNL    C21   30   0.022  -0.111  -0.157
    1UNL    O10   31   0.143  -0.153  -0.216
    1UNL    C22   32   0.371   0.133   0.141
    1UNL    O11   33   0.446   0.099   0.256
    1UNL    C23   34   0.453   0.242   0.055
    1UNL    O12   35   0.564   0.268   0.131
    1UNL    C24   36   0.481   0.190  -0.085
    1UNL    O13   37   0.555   0.285  -0.163
    1UNL     H1   38   0.837  -0.261   0.054
    1UNL     H2   39   0.908  -0.227   0.203
    1UNL     H3   40   0.757  -0.311   0.196
    1UNL     H4   41   0.698   0.119   0.071
    1UNL     H5   42   0.752   0.121  -0.104
    1UNL     H6   43   0.555  -0.013  -0.171
    1UNL     H7   44   0.302  -0.077   0.105
    1UNL     H8   45   0.110   0.042   0.078
    1UNL     H9   46   0.147   0.185   0.002
    1UNL    H10   47   0.048   0.088  -0.218
    1UNL    H11   48  -0.184  -0.061  -0.032
    1UNL    H12   49  -0.238   0.231   0.064
    1UNL    H13   50  -0.413   0.211   0.077
    1UNL    H14   51  -0.258   0.109   0.283
    1UNL    H15   52  -0.340  -0.068   0.408
    1UNL    H16   53  -0.432  -0.206   0.335
    1UNL    H17   54  -0.263  -0.191   0.325
    1UNL    H18   55  -0.387  -0.239   0.085
    1UNL    H19   56  -0.393  -0.094  -0.010
    1UNL    H20   57  -0.592   0.031  -0.068
    1UNL    H21   58  -0.775   0.019  -0.214
    1UNL    H22   59  -0.787   0.167  -0.113
    1UNL    H23   60  -0.918   0.069  -0.126
    1UNL    H24   61  -0.957  -0.124  -0.002
    1UNL    H25   62  -0.893  -0.074   0.145
    1UNL    H26   63  -0.821  -0.212   0.082
    1UNL    H27   64  -0.299  -0.052  -0.273
    1UNL    H28   65  -0.233   0.168  -0.291
    1UNL    H29   66  -0.063  -0.137  -0.360
    1UNL    H30   67  -0.097  -0.337  -0.229
    1UNL    H31   68  -0.005  -0.161  -0.060
    1UNL    H32   69   0.217  -0.119  -0.150
    1UNL    H33   70   0.278   0.179   0.181
    1UNL    H34   71   0.532   0.061   0.227
    1UNL    H35   72   0.398   0.343   0.048
    1UNL    H36   73   0.531   0.271   0.221
    1UNL    H37   74   0.384   0.172  -0.123
    1UNL    H38   75   0.592   0.250  -0.247
   0.00000   0.00000   0.00000   0.00000   0.00000   0.00000   0.00000   0.00000   0.00000
Generated with MDTraj, t= 21.0
 75
    1UNL     C1    1   0.815  -0.234   0.153
    1UNL     C2    2   0.739  -0.113   0.125
    1UNL     O1    3   0.675  -0.054   0.208
    1UNL     O2    4   0.749  -0.067  -0.009
    1UNL     C3    5   0.694   0.055  -0.037
    1UNL     C4    6   0.548   0.049  -0.082
    1UNL     O3    7   0.472  -0.043   0.000
    1UNL     C5    8   0.351   0.012   0.040
    1UNL     O4    9   0.264   0.054  -0.063
    1UNL     C6   10   0.140   0.113  -0.033
    1UNL     C7   11   0.032   0.070  -0.126
    1UNL     O5   12  -0.095   0.129  -0.097
    1UNL     C8   13  -0.207   0.035  -0.099
    1UNL     O6   14  -0.334   0.084  -0.058
    1UNL     C9   15  -0.329   0.157   0.060
    1UNL    C10   16  -0.332   0.068   0.188
    1UNL    C11   17  -0.369  -0.061   0.198
    1UNL    C12   18  -0.375  -0.123   0.332
    1UNL    C13   19  -0.414  -0.147   0.076
    1UNL    C14   20  -0.566  -0.153   0.072
    1UNL     O7   21  -0.620  -0.228   0.149
    1UNL    C15   22  -0.638  -0.065  -0.016
    1UNL    C16   23  -0.765  -0.037  -0.018
    1UNL    C17   24  -0.820   0.080  -0.102
    1UNL    C18   25  -0.864  -0.101   0.083
    1UNL    C19   26  -0.205  -0.031  -0.238
    1UNL     O8   27  -0.187   0.064  -0.343
    1UNL    C20   28  -0.090  -0.143  -0.231
    1UNL     O9   29  -0.138  -0.262  -0.171
    1UNL    C21   30   0.042  -0.082  -0.153
    1UNL    O10   31   0.158  -0.122  -0.218
    1UNL    C22   32   0.376   0.125   0.140
    1UNL    O11   33   0.439   0.072   0.255
    1UNL    C23   34   0.467   0.231   0.069
    1UNL    O12   35   0.579   0.245   0.149
    1UNL    C24   36   0.491   0.199  -0.081
    1UNL    O13   37   0.569   0.292  -0.166
    1UNL     H1   38   0.740  -0.307   0.141
    1UNL     H2   39   0.879  -0.252   0.069
    1UNL     H3   40   0.862  -0.243   0.248
    1UNL     H4   41   0.704   0.112   0.056
    1UNL     H5   42   0.751   0.100  -0.120
    1UNL     H6   43   0.554   0.011  -0.186
    1UNL     H7   44   0.293  -0.069   0.089
    1UNL     H8   45   0.112   0.090   0.066
    1UNL     H9   46   0.148   0.225  -0.029
    1UNL    H10   47   0.047   0.105  -0.223
    1UNL    H11   48  -0.181  -0.037  -0.018
    1UNL    H12   49  -0.244   0.232   0.061
    1UNL    H13   50  -0.416   0.217   0.067
    1UNL    H14   51  -0.280   0.110   0.269
    1UNL    H15   52  -0.451  -0.071   0.387
    1UNL    H16   53  -0.392  -0.229   0.344
    1UNL    H17   54  -0.283  -0.107   0.379
    1UNL    H18   55  -0.373  -0.246   0.096
    1UNL    H19   56  -0.375  -0.115  -0.013
    1UNL    H20   57  -0.579  -0.003  -0.082
    1UNL    H21   58  -0.798   0.051  -0.203
    1UNL    H22   59  -0.792   0.182  -0.076
    1UNL    H23   60  -0.922   0.099  -0.069
    1UNL    H24   61  -0.963  -0.123   0.039
    1UNL    H25   62  -0.882  -0.037   0.161
    1UNL    H26   63  -0.828  -0.191   0.131
    1UNL    H27   64  -0.297  -0.084  -0.246
    1UNL    H28   65  -0.132   0.138  -0.303
    1UNL    H29   66  -0.045  -0.165  -0.329
    1UNL    H30   67  -0.060  -0.320  -0.149
    1UNL    H31   68   0.043  -0.139  -0.055
    1UNL    H32   69   0.230  -0.072  -0.181
    1UNL    H33   70   0.290   0.171   0.189
    1UNL    H34   71   0.531   0.039   0.235
    1UNL    H35   72   0.421   0.336   0.067
    1UNL    H36   73   0.560   0.242   0.248
    1UNL    H37   74   0.392   0.200  -0.120
    1UNL    H38   75   0.591   0.249  -0.253
   0.00000   0.00000   0.00000   0.00000   0.00000   0.00000   0.00000   0.00000   0.00000
Generated with MDTraj, t= 22.0
 75
    1UNL     C1    1   0.791  -0.273   0.133
    1UNL     C2    2   0.743  -0.129   0.120
    1UNL     O1    3   0.714  -0.064   0.215
    1UNL     O2    4   0.741  -0.090  -0.010
    1UNL     C3    5   0.700   0.045  -0.034
    1UNL     C4    6   0.557   0.063  -0.081
    1UNL     O3    7   0.470  -0.022  -0.013
    1UNL     C5    8   0.347   0.037   0.038
    1UNL     O4    9   0.263   0.085  -0.069
    1UNL     C6   10   0.131   0.123  -0.036
    1UNL     C7   11   0.025   0.074  -0.131
    1UNL     O5   12  -0.107   0.125  -0.110
    1UNL     C8   13  -0.217   0.024  -0.090
    1UNL     O6   14  -0.349   0.080  -0.074
    1UNL     C9   15  -0.358   0.148   0.050
    1UNL    C10   16  -0.349   0.066   0.169
    1UNL    C11   17  -0.371  -0.062   0.181
    1UNL    C12   18  -0.377  -0.116   0.320
    1UNL    C13   19  -0.418  -0.151   0.070
    1UNL    C14   20  -0.573  -0.148   0.069
    1UNL     O7   21  -0.627  -0.236   0.139
    1UNL    C15   22  -0.641  -0.050  -0.011
    1UNL    C16   23  -0.770  -0.028  -0.009
    1UNL    C17   24  -0.840   0.071  -0.093
    1UNL    C18   25  -0.860  -0.093   0.097
    1UNL    C19   26  -0.214  -0.066  -0.211
    1UNL     O8   27  -0.223   0.021  -0.325
    1UNL    C20   28  -0.079  -0.146  -0.219
    1UNL     O9   29  -0.104  -0.274  -0.174
    1UNL    C21   30   0.046  -0.078  -0.149
    1UNL    O10   31   0.158  -0.111  -0.222
    1UNL    C22   32   0.382   0.146   0.139
    1UNL    O11   33   0.441   0.084   0.251
    1UNL    C23   34   0.481   0.249   0.072
    1UNL    O12   35   0.596   0.255   0.158
    1UNL    C24   36   0.516   0.214  -0.080
    1UNL    O13   37   0.623   0.304  -0.125
    1UNL     H1   38   0.759  -0.309   0.228
    1UNL     H2   39   0.728  -0.324   0.066
    1UNL     H3   40   0.893  -0.300   0.120
    1UNL     H4   41   0.690   0.104   0.059
    1UNL     H5   42   0.776   0.077  -0.106
    1UNL     H6   43   0.561   0.037  -0.189
    1UNL     H7   44   0.288  -0.051   0.069
    1UNL     H8   45   0.119   0.084   0.062
    1UNL     H9   46   0.134   0.233  -0.019
    1UNL    H10   47   0.048   0.115  -0.224
    1UNL    H11   48  -0.186  -0.032  -0.001
    1UNL    H12   49  -0.264   0.215   0.052
    1UNL    H13   50  -0.435   0.225   0.049
    1UNL    H14   51  -0.312   0.118   0.259
    1UNL    H15   52  -0.482  -0.118   0.342
    1UNL    H16   53  -0.344  -0.216   0.331
    1UNL    H17   54  -0.318  -0.062   0.391
    1UNL    H18   55  -0.382  -0.252   0.075
    1UNL    H19   56  -0.373  -0.101  -0.020
    1UNL    H20   57  -0.583   0.016  -0.071
    1UNL    H21   58  -0.828   0.039  -0.194
    1UNL    H22   59  -0.796   0.169  -0.079
    1UNL    H23   60  -0.939   0.094  -0.055
    1UNL    H24   61  -0.967  -0.068   0.082
    1UNL    H25   62  -0.837  -0.058   0.198
    1UNL    H26   63  -0.857  -0.196   0.098
    1UNL    H27   64  -0.287  -0.144  -0.221
    1UNL    H28   65  -0.233   0.115  -0.293
    1UNL    H29   66  -0.061  -0.149  -0.329
    1UNL    H30   67  -0.021  -0.325  -0.140
    1UNL    H31   68   0.051  -0.127  -0.049
    1UNL    H32   69   0.240  -0.083  -0.179
    1UNL    H33   70   0.289   0.187   0.179
    1UNL    H34   71   0.515   0.026   0.225
    1UNL    H35   72   0.425   0.348   0.075
    1UNL    H36   73   0.573   0.260   0.256
    1UNL    H37   74   0.428   0.227  -0.142
    1UNL    H38   75   0.647   0.268  -0.214
   0.00000   0.00000   0.00000   0.00000   0.00000   0.00000   0.00000   0.00000   0.00000
Generated with MDTraj, t= 23.0
 75
    1UNL     C1    1   0.739  -0.293   0.118
    1UNL     C2    2   0.716  -0.145   0.114
    1UNL     O1    3   0.674  -0.098   0.214
    1UNL     O2    4   0.740  -0.085  -0.008
    1UNL     C3    5   0.706   0.046  -0.021
    1UNL     C4    6   0.568   0.082  -0.089
    1UNL     O3    7   0.464  -0.004  -0.031
    1UNL     C5    8   0.350   0.066   0.025
    1UNL     O4    9   0.268   0.129  -0.068
    1UNL     C6   10   0.128   0.138  -0.037
    1UNL     C7   11   0.032   0.068  -0.138
    1UNL     O5   12  -0.110   0.105  -0.103
    1UNL     C8   13  -0.215   0.004  -0.095
    1UNL     O6   14  -0.342   0.061  -0.078
    1UNL     C9   15  -0.341   0.138   0.045
    1UNL    C10   16  -0.342   0.061   0.169
    1UNL    C11   17  -0.372  -0.063   0.187
    1UNL    C12   18  -0.357  -0.120   0.326
    1UNL    C13   19  -0.442  -0.154   0.086
    1UNL    C14   20  -0.592  -0.147   0.085
    1UNL     O7   21  -0.652  -0.234   0.146
    1UNL    C15   22  -0.667  -0.054  -0.004
    1UNL    C16   23  -0.795  -0.020   0.002
    1UNL    C17   24  -0.859   0.080  -0.095
    1UNL    C18   25  -0.882  -0.083   0.100
    1UNL    C19   26  -0.203  -0.084  -0.218
    1UNL     O8   27  -0.233  -0.009  -0.333
    1UNL    C20   28  -0.059  -0.144  -0.234
    1UNL     O9   29  -0.069  -0.279  -0.214
    1UNL    C21   30   0.056  -0.089  -0.137
    1UNL    O10   31   0.182  -0.135  -0.186
    1UNL    C22   32   0.397   0.168   0.137
    1UNL    O11   33   0.447   0.097   0.251
    1UNL    C23   34   0.506   0.263   0.080
    1UNL    O12   35   0.627   0.259   0.154
    1UNL    C24   36   0.529   0.234  -0.074
    1UNL    O13   37   0.639   0.315  -0.113
    1UNL     H1   38   0.824  -0.319   0.178
    1UNL     H2   39   0.653  -0.319   0.174
    1UNL     H3   40   0.743  -0.347   0.027
    1UNL     H4   41   0.702   0.086   0.081
    1UNL     H5   42   0.774   0.104  -0.080
    1UNL     H6   43   0.569   0.064  -0.199
    1UNL     H7   44   0.282  -0.006   0.070
    1UNL     H8   45   0.120   0.100   0.062
    1UNL     H9   46   0.117   0.248  -0.030
    1UNL    H10   47   0.043   0.101  -0.238
    1UNL    H11   48  -0.197  -0.056  -0.006
    1UNL    H12   49  -0.267   0.226   0.041
    1UNL    H13   50  -0.435   0.195   0.043
    1UNL    H14   51  -0.295   0.113   0.249
    1UNL    H15   52  -0.439  -0.188   0.322
    1UNL    H16   53  -0.265  -0.168   0.339
    1UNL    H17   54  -0.361  -0.040   0.400
    1UNL    H18   55  -0.416  -0.257   0.108
    1UNL    H19   56  -0.420  -0.142  -0.025
    1UNL    H20   57  -0.620   0.021  -0.067
    1UNL    H21   58  -0.877   0.051  -0.195
    1UNL    H22   59  -0.788   0.161  -0.095
    1UNL    H23   60  -0.956   0.116  -0.064
    1UNL    H24   61  -0.976  -0.035   0.111
    1UNL    H25   62  -0.839  -0.088   0.203
    1UNL    H26   63  -0.904  -0.179   0.067
    1UNL    H27   64  -0.274  -0.160  -0.212
    1UNL    H28   65  -0.189   0.074  -0.319
    1UNL    H29   66  -0.030  -0.116  -0.338
    1UNL    H30   67   0.019  -0.310  -0.171
    1UNL    H31   68   0.043  -0.126  -0.034
    1UNL    H32   69   0.258  -0.067  -0.160
    1UNL    H33   70   0.315   0.223   0.184
    1UNL    H34   71   0.521   0.034   0.230
    1UNL    H35   72   0.467   0.368   0.078
    1UNL    H36   73   0.616   0.245   0.248
    1UNL    H37   74   0.439   0.258  -0.135
    1UNL    H38   75   0.662   0.294  -0.205
   0.00000   0.00000   0.00000   0.00000   0.00000   0.00000   0.00000   0.00000   0.00000
Generated with MDTraj, t= 24.0
 75
    1UNL     C1    1   0.678  -0.309   0.091
    1UNL     C2    2   0.670  -0.155   0.095
    1UNL     O1    3   0.596  -0.105   0.178
    1UNL     O2    4   0.735  -0.091  -0.012
    1UNL     C3    5   0.708   0.051  -0.020
    1UNL     C4    6   0.570   0.091  -0.081
    1UNL     O3    7   0.467   0.002  -0.028
    1UNL     C5    8   0.354   0.074   0.029
    1UNL     O4    9   0.274   0.131  -0.069
    1UNL     C6   10   0.135   0.134  -0.028
    1UNL     C7   11   0.046   0.070  -0.127
    1UNL     O5   12  -0.098   0.099  -0.098
    1UNL     C8   13  -0.191  -0.011  -0.099
    1UNL     O6   14  -0.330   0.028  -0.085
    1UNL     C9   15  -0.346   0.114   0.036
    1UNL    C10   16  -0.334   0.036   0.160
    1UNL    C11   17  -0.380  -0.082   0.183
    1UNL    C12   18  -0.385  -0.137   0.329
    1UNL    C13   19  -0.457  -0.160   0.088
    1UNL    C14   20  -0.607  -0.140   0.106
    1UNL     O7   21  -0.657  -0.188   0.203
    1UNL    C15   22  -0.674  -0.037   0.021
    1UNL    C16   23  -0.804  -0.008   0.009
    1UNL    C17   24  -0.867   0.086  -0.085
    1UNL    C18   25  -0.904  -0.086   0.092
    1UNL    C19   26  -0.168  -0.092  -0.231
    1UNL     O8   27  -0.202  -0.015  -0.344
    1UNL    C20   28  -0.016  -0.137  -0.252
    1UNL     O9   29  -0.008  -0.278  -0.239
    1UNL    C21   30   0.080  -0.081  -0.138
    1UNL    O10   31   0.213  -0.129  -0.160
    1UNL    C22   32   0.397   0.183   0.134
    1UNL    O11   33   0.425   0.129   0.262
    1UNL    C23   34   0.513   0.277   0.085
    1UNL    O12   35   0.633   0.264   0.158
    1UNL    C24   36   0.536   0.241  -0.069
    1UNL    O13   37   0.642   0.315  -0.126
    1UNL     H1   38   0.752  -0.343   0.020
    1UNL     H2   39   0.695  -0.341   0.190
    1UNL     H3   40   0.586  -0.351   0.059
    1UNL     H4   41   0.703   0.095   0.080
    1UNL     H5   42   0.794   0.089  -0.076
    1UNL     H6   43   0.564   0.061  -0.187
    1UNL     H7   44   0.284   0.011   0.082
    1UNL     H8   45   0.123   0.095   0.070
    1UNL     H9   46   0.115   0.244  -0.027
    1UNL    H10   47   0.059   0.103  -0.228
    1UNL    H11   48  -0.159  -0.073  -0.016
    1UNL    H12   49  -0.271   0.199   0.034
    1UNL    H13   50  -0.439   0.173   0.032
    1UNL    H14   51  -0.281   0.079   0.243
    1UNL    H15   52  -0.382  -0.242   0.316
    1UNL    H16   53  -0.310  -0.105   0.396
    1UNL    H17   54  -0.476  -0.110   0.384
    1UNL    H18   55  -0.434  -0.268   0.109
    1UNL    H19   56  -0.425  -0.140  -0.011
    1UNL    H20   57  -0.613   0.020  -0.049
    1UNL    H21   58  -0.903   0.051  -0.181
    1UNL    H22   59  -0.791   0.163  -0.097
    1UNL    H23   60  -0.966   0.122  -0.056
    1UNL    H24   61  -0.975  -0.023   0.132
    1UNL    H25   62  -0.863  -0.134   0.184
    1UNL    H26   63  -0.962  -0.158   0.037
    1UNL    H27   64  -0.219  -0.183  -0.229
    1UNL    H28   65  -0.296   0.011  -0.335
    1UNL    H29   66   0.014  -0.118  -0.357
    1UNL    H30   67   0.076  -0.303  -0.199
    1UNL    H31   68   0.052  -0.131  -0.045
    1UNL    H32   69   0.284  -0.090  -0.114
    1UNL    H33   70   0.313   0.252   0.158
    1UNL    H34   71   0.499   0.063   0.248
    1UNL    H35   72   0.472   0.380   0.081
    1UNL    H36   73   0.607   0.235   0.252
    1UNL    H37   74   0.441   0.258  -0.131
    1UNL    H38   75   0.666   0.302  -0.219
   0.00000   0.00000   0.00000   0.00000   0.00000   0.00000   0.00000   0.00000   0.00000
Generated with MDTraj, t= 25.0
 75
    1UNL     C1    1   0.617  -0.308   0.062
    1UNL     C2    2   0.645  -0.166   0.091
    1UNL     O1    3   0.606  -0.116   0.193
    1UNL     O2    4   0.699  -0.099  -0.011
    1UNL     C3    5   0.685   0.044  -0.003
    1UNL     C4    6   0.556   0.089  -0.075
    1UNL     O3    7   0.445   0.020  -0.021
    1UNL     C5    8   0.341   0.102   0.040
    1UNL     O4    9   0.261   0.160  -0.065
    1UNL     C6   10   0.120   0.163  -0.041
    1UNL     C7   11   0.046   0.074  -0.138
    1UNL     O5   12  -0.090   0.069  -0.089
    1UNL     C8   13  -0.171  -0.050  -0.097
    1UNL     O6   14  -0.312  -0.025  -0.087
    1UNL     C9   15  -0.329   0.078   0.016
    1UNL    C10   16  -0.310   0.011   0.148
    1UNL    C11   17  -0.381  -0.092   0.187
    1UNL    C12   18  -0.365  -0.151   0.323
    1UNL    C13   19  -0.485  -0.155   0.095
    1UNL    C14   20  -0.628  -0.108   0.130
    1UNL     O7   21  -0.672  -0.132   0.237
    1UNL    C15   22  -0.692  -0.033   0.025
    1UNL    C16   23  -0.824  -0.011   0.010
    1UNL    C17   24  -0.888   0.087  -0.084
    1UNL    C18   25  -0.927  -0.081   0.092
    1UNL    C19   26  -0.138  -0.113  -0.234
    1UNL     O8   27  -0.178  -0.010  -0.331
    1UNL    C20   28   0.014  -0.150  -0.248
    1UNL     O9   29   0.029  -0.293  -0.247
    1UNL    C21   30   0.108  -0.073  -0.152
    1UNL    O10   31   0.239  -0.078  -0.203
    1UNL    C22   32   0.405   0.194   0.147
    1UNL    O11   33   0.447   0.115   0.258
    1UNL    C23   34   0.518   0.285   0.083
    1UNL    O12   35   0.642   0.282   0.157
    1UNL    C24   36   0.539   0.241  -0.063
    1UNL    O13   37   0.651   0.300  -0.125
    1UNL     H1   38   0.573  -0.316  -0.034
    1UNL     H2   39   0.714  -0.353   0.067
    1UNL     H3   40   0.554  -0.359   0.131
    1UNL     H4   41   0.692   0.063   0.106
    1UNL     H5   42   0.770   0.101  -0.046
    1UNL     H6   43   0.569   0.073  -0.183
    1UNL     H7   44   0.270   0.034   0.082
    1UNL     H8   45   0.101   0.120   0.056
    1UNL     H9   46   0.086   0.269  -0.036
    1UNL    H10   47   0.043   0.115  -0.240
    1UNL    H11   48  -0.145  -0.108  -0.010
    1UNL    H12   49  -0.273   0.173   0.004
    1UNL    H13   50  -0.434   0.109   0.025
    1UNL    H14   51  -0.231   0.050   0.211
    1UNL    H15   52  -0.287  -0.221   0.315
    1UNL    H16   53  -0.340  -0.084   0.402
    1UNL    H17   54  -0.449  -0.202   0.372
    1UNL    H18   55  -0.472  -0.268   0.099
    1UNL    H19   56  -0.458  -0.131  -0.002
    1UNL    H20   57  -0.632   0.016  -0.049
    1UNL    H21   58  -0.887   0.056  -0.188
    1UNL    H22   59  -0.840   0.184  -0.078
    1UNL    H23   60  -0.997   0.084  -0.076
    1UNL    H24   61  -0.959  -0.018   0.168
    1UNL    H25   62  -0.874  -0.153   0.149
    1UNL    H26   63  -1.016  -0.128   0.045
    1UNL    H27   64  -0.203  -0.191  -0.252
    1UNL    H28   65  -0.239   0.057  -0.283
    1UNL    H29   66   0.035  -0.111  -0.348
    1UNL    H30   67   0.121  -0.315  -0.251
    1UNL    H31   68   0.118  -0.109  -0.051
    1UNL    H32   69   0.311  -0.054  -0.143
    1UNL    H33   70   0.340   0.275   0.184
    1UNL    H34   71   0.502   0.042   0.228
    1UNL    H35   72   0.482   0.389   0.088
    1UNL    H36   73   0.612   0.266   0.247
    1UNL    H37   74   0.448   0.260  -0.132
    1UNL    H38   75   0.663   0.278  -0.221
   0.00000   0.00000   0.00000   0.00000   0.00000   0.00000   0.00000   0.00000   0.00000
Generated with MDTraj, t= 26.0
 75
    1UNL     C1    1   0.589  -0.317   0.083
    1UNL     C2    2   0.621  -0.172   0.084
    1UNL     O1    3   0.600  -0.112   0.191
    1UNL     O2    4   0.664  -0.111  -0.031
    1UNL     C3    5   0.672   0.028  -0.013
    1UNL     C4    6   0.545   0.091  -0.074
    1UNL     O3    7   0.436   0.023  -0.016
    1UNL     C5    8   0.339   0.104   0.039
    1UNL     O4    9   0.263   0.176  -0.058
    1UNL     C6   10   0.123   0.172  -0.039
    1UNL     C7   11   0.043   0.075  -0.132
    1UNL     O5   12  -0.090   0.063  -0.083
    1UNL     C8   13  -0.150  -0.059  -0.109
    1UNL     O6   14  -0.290  -0.053  -0.103
    1UNL     C9   15  -0.327   0.036  -0.002
    1UNL    C10   16  -0.310  -0.015   0.135
    1UNL    C11   17  -0.389  -0.107   0.190
    1UNL    C12   18  -0.372  -0.166   0.327
    1UNL    C13   19  -0.517  -0.155   0.113
    1UNL    C14   20  -0.643  -0.089   0.152
    1UNL     O7   21  -0.697  -0.100   0.262
    1UNL    C15   22  -0.704  -0.017   0.039
    1UNL    C16   23  -0.837  -0.008   0.014
    1UNL    C17   24  -0.898   0.062  -0.102
    1UNL    C18   25  -0.922  -0.066   0.129
    1UNL    C19   26  -0.108  -0.114  -0.252
    1UNL     O8   27  -0.148  -0.031  -0.360
    1UNL    C20   28   0.044  -0.142  -0.260
    1UNL     O9   29   0.058  -0.281  -0.216
    1UNL    C21   30   0.129  -0.055  -0.167
    1UNL    O10   31   0.248  -0.009  -0.233
    1UNL    C22   32   0.405   0.200   0.144
    1UNL    O11   33   0.447   0.123   0.258
    1UNL    C23   34   0.526   0.282   0.087
    1UNL    O12   35   0.654   0.258   0.152
    1UNL    C24   36   0.548   0.246  -0.056
    1UNL    O13   37   0.659   0.314  -0.118
    1UNL     H1   38   0.490  -0.340   0.110
    1UNL     H2   39   0.619  -0.351  -0.014
    1UNL     H3   40   0.652  -0.376   0.149
    1UNL     H4   41   0.697   0.057   0.091
    1UNL     H5   42   0.769   0.050  -0.065
    1UNL     H6   43   0.543   0.072  -0.182
    1UNL     H7   44   0.268   0.042   0.093
    1UNL     H8   45   0.096   0.128   0.057
    1UNL     H9   46   0.074   0.270  -0.037
    1UNL    H10   47   0.017   0.115  -0.233
    1UNL    H11   48  -0.120  -0.121  -0.025
    1UNL    H12   49  -0.269   0.128  -0.001
    1UNL    H13   50  -0.432   0.066  -0.002
    1UNL    H14   51  -0.236   0.039   0.188
    1UNL    H15   52  -0.268  -0.189   0.335
    1UNL    H16   53  -0.405  -0.105   0.409
    1UNL    H17   54  -0.431  -0.256   0.336
    1UNL    H18   55  -0.535  -0.265   0.134
    1UNL    H19   56  -0.500  -0.153   0.009
    1UNL    H20   57  -0.640   0.014  -0.044
    1UNL    H21   58  -0.836   0.041  -0.189
    1UNL    H22   59  -0.896   0.168  -0.089
    1UNL    H23   60  -0.991   0.011  -0.130
    1UNL    H24   61  -0.899  -0.007   0.217
    1UNL    H25   62  -0.886  -0.158   0.158
    1UNL    H26   63  -1.031  -0.068   0.117
    1UNL    H27   64  -0.153  -0.207  -0.262
    1UNL    H28   65  -0.215   0.036  -0.330
    1UNL    H29   66   0.080  -0.141  -0.363
    1UNL    H30   67   0.151  -0.312  -0.224
    1UNL    H31   68   0.153  -0.118  -0.083
    1UNL    H32   69   0.296   0.064  -0.178
    1UNL    H33   70   0.335   0.276   0.187
    1UNL    H34   71   0.488   0.035   0.235
    1UNL    H35   72   0.511   0.387   0.102
    1UNL    H36   73   0.641   0.252   0.252
    1UNL    H37   74   0.450   0.279  -0.111
    1UNL    H38   75   0.673   0.277  -0.209
   0.00000   0.00000   0.00000   0.00000   0.00000   0.00000   0.00000   0.00000   0.00000
Generated with MDTraj, t= 27.0
 75
    1UNL     C1    1   0.592  -0.313   0.104
    1UNL     C2    2   0.612  -0.165   0.076
    1UNL     O1    3   0.578  -0.087   0.167
    1UNL     O2    4   0.665  -0.120  -0.041
    1UNL     C3    5   0.666   0.019  -0.032
    1UNL     C4    6   0.539   0.083  -0.087
    1UNL     O3    7   0.419   0.030  -0.020
    1UNL     C5    8   0.329   0.122   0.042
    1UNL     O4    9   0.250   0.202  -0.047
    1UNL     C6   10   0.117   0.190  -0.033
    1UNL     C7   11   0.052   0.097  -0.138
    1UNL     O5   12  -0.083   0.072  -0.104
    1UNL     C8   13  -0.130  -0.065  -0.113
    1UNL     O6   14  -0.272  -0.073  -0.111
    1UNL     C9   15  -0.339   0.002  -0.016
    1UNL    C10   16  -0.321  -0.050   0.124
    1UNL    C11   17  -0.410  -0.126   0.182
    1UNL    C12   18  -0.392  -0.157   0.334
    1UNL    C13   19  -0.533  -0.180   0.125
    1UNL    C14   20  -0.646  -0.090   0.140
    1UNL     O7   21  -0.662  -0.048   0.256
    1UNL    C15   22  -0.720  -0.047   0.025
    1UNL    C16   23  -0.854  -0.022   0.032
    1UNL    C17   24  -0.917   0.049  -0.084
    1UNL    C18   25  -0.929  -0.036   0.158
    1UNL    C19   26  -0.086  -0.115  -0.257
    1UNL     O8   27  -0.135  -0.024  -0.355
    1UNL    C20   28   0.065  -0.136  -0.250
    1UNL     O9   29   0.096  -0.276  -0.210
    1UNL    C21   30   0.135  -0.029  -0.158
    1UNL    O10   31   0.261   0.002  -0.219
    1UNL    C22   32   0.410   0.215   0.144
    1UNL    O11   33   0.423   0.131   0.261
    1UNL    C23   34   0.544   0.262   0.090
    1UNL    O12   35   0.653   0.199   0.157
    1UNL    C24   36   0.552   0.235  -0.060
    1UNL    O13   37   0.669   0.302  -0.112
    1UNL     H1   38   0.615  -0.334   0.206
    1UNL     H2   39   0.493  -0.342   0.075
    1UNL     H3   40   0.652  -0.377   0.041
    1UNL     H4   41   0.680   0.041   0.076
    1UNL     H5   42   0.759   0.061  -0.075
    1UNL     H6   43   0.531   0.069  -0.196
    1UNL     H7   44   0.250   0.068   0.096
    1UNL     H8   45   0.084   0.166   0.069
    1UNL     H9   46   0.073   0.290  -0.044
    1UNL    H10   47   0.066   0.164  -0.230
    1UNL    H11   48  -0.094  -0.126  -0.031
    1UNL    H12   49  -0.307   0.105  -0.013
    1UNL    H13   50  -0.444   0.006  -0.041
    1UNL    H14   51  -0.234  -0.020   0.183
    1UNL    H15   52  -0.288  -0.140   0.354
    1UNL    H16   53  -0.456  -0.095   0.397
    1UNL    H17   54  -0.419  -0.258   0.343
    1UNL    H18   55  -0.543  -0.284   0.162
    1UNL    H19   56  -0.516  -0.187   0.016
    1UNL    H20   57  -0.671  -0.048  -0.070
    1UNL    H21   58  -0.837   0.060  -0.158
    1UNL    H22   59  -0.942   0.149  -0.056
    1UNL    H23   60  -0.999  -0.003  -0.133
    1UNL    H24   61  -0.861  -0.060   0.241
    1UNL    H25   62  -0.995  -0.116   0.156
    1UNL    H26   63  -0.987   0.052   0.178
    1UNL    H27   64  -0.130  -0.209  -0.282
    1UNL    H28   65  -0.202   0.034  -0.317
    1UNL    H29   66   0.109  -0.111  -0.347
    1UNL    H30   67   0.195  -0.292  -0.232
    1UNL    H31   68   0.155  -0.073  -0.062
    1UNL    H32   69   0.307   0.063  -0.168
    1UNL    H33   70   0.339   0.294   0.170
    1UNL    H34   71   0.472   0.050   0.227
    1UNL    H35   72   0.551   0.367   0.105
    1UNL    H36   73   0.638   0.185   0.252
    1UNL    H37   74   0.457   0.288  -0.096
    1UNL    H38   75   0.693   0.274  -0.203
   0.00000   0.00000   0.00000   0.00000   0.00000   0.00000   0.00000   0.00000   0.00000
Generated with MDTraj, t= 28.0
 75
    1UNL     C1    1   0.588  -0.333   0.089
    1UNL     C2    2   0.601  -0.186   0.080
    1UNL     O1    3   0.598  -0.115   0.180
    1UNL     O2    4   0.620  -0.126  -0.038
    1UNL     C3    5   0.639   0.012  -0.015
    1UNL     C4    6   0.528   0.090  -0.075
    1UNL     O3    7   0.407   0.032  -0.009
    1UNL     C5    8   0.325   0.131   0.050
    1UNL     O4    9   0.255   0.210  -0.051
    1UNL     C6   10   0.114   0.200  -0.046
    1UNL     C7   11   0.051   0.097  -0.149
    1UNL     O5   12  -0.085   0.061  -0.092
    1UNL     C8   13  -0.129  -0.072  -0.125
    1UNL     O6   14  -0.270  -0.083  -0.116
    1UNL     C9   15  -0.315   0.005  -0.014
    1UNL    C10   16  -0.316  -0.047   0.130
    1UNL    C11   17  -0.405  -0.128   0.185
    1UNL    C12   18  -0.384  -0.184   0.328
    1UNL    C13   19  -0.523  -0.173   0.104
    1UNL    C14   20  -0.638  -0.082   0.134
    1UNL     O7   21  -0.656  -0.034   0.246
    1UNL    C15   22  -0.742  -0.057   0.027
    1UNL    C16   23  -0.871  -0.017   0.046
    1UNL    C17   24  -0.955  -0.001  -0.074
    1UNL    C18   25  -0.914   0.022   0.178
    1UNL    C19   26  -0.077  -0.117  -0.261
    1UNL     O8   27  -0.127  -0.035  -0.360
    1UNL    C20   28   0.075  -0.141  -0.263
    1UNL     O9   29   0.123  -0.265  -0.217
    1UNL    C21   30   0.140  -0.028  -0.174
    1UNL    O10   31   0.256   0.005  -0.240
    1UNL    C22   32   0.413   0.217   0.146
    1UNL    O11   33   0.444   0.141   0.262
    1UNL    C23   34   0.542   0.280   0.094
    1UNL    O12   35   0.656   0.232   0.170
    1UNL    C24   36   0.553   0.242  -0.055
    1UNL    O13   37   0.674   0.300  -0.105
    1UNL     H1   38   0.684  -0.380   0.068
    1UNL     H2   39   0.551  -0.353   0.188
    1UNL     H3   40   0.505  -0.365   0.029
    1UNL     H4   41   0.635   0.041   0.091
    1UNL     H5   42   0.738   0.043  -0.048
    1UNL     H6   43   0.519   0.064  -0.183
    1UNL     H7   44   0.243   0.073   0.100
    1UNL     H8   45   0.080   0.171   0.056
    1UNL     H9   46   0.072   0.301  -0.058
    1UNL    H10   47   0.020   0.148  -0.248
    1UNL    H11   48  -0.089  -0.141  -0.050
    1UNL    H12   49  -0.261   0.097  -0.028
    1UNL    H13   50  -0.411   0.054  -0.039
    1UNL    H14   51  -0.235  -0.020   0.194
    1UNL    H15   52  -0.299  -0.130   0.369
    1UNL    H16   53  -0.466  -0.164   0.400
    1UNL    H17   54  -0.354  -0.284   0.322
    1UNL    H18   55  -0.540  -0.277   0.128
    1UNL    H19   56  -0.505  -0.175  -0.010
    1UNL    H20   57  -0.707  -0.065  -0.075
    1UNL    H21   58  -0.891   0.034  -0.155
    1UNL    H22   59  -1.033   0.073  -0.058
    1UNL    H23   60  -1.012  -0.090  -0.100
    1UNL    H24   61  -0.949  -0.066   0.234
    1UNL    H25   62  -0.997   0.093   0.169
    1UNL    H26   63  -0.842   0.077   0.231
    1UNL    H27   64  -0.126  -0.211  -0.286
    1UNL    H28   65  -0.219  -0.023  -0.340
    1UNL    H29   66   0.099  -0.127  -0.370
    1UNL    H30   67   0.224  -0.265  -0.234
    1UNL    H31   68   0.156  -0.081  -0.082
    1UNL    H32   69   0.321   0.055  -0.174
    1UNL    H33   70   0.343   0.294   0.181
    1UNL    H34   71   0.496   0.062   0.246
    1UNL    H35   72   0.541   0.384   0.099
    1UNL    H36   73   0.643   0.211   0.267
    1UNL    H37   74   0.465   0.282  -0.114
    1UNL    H38   75   0.693   0.267  -0.195
   0.00000   0.00000   0.00000   0.00000   0.00000   0.00000   0.00000   0.00000   0.00000
Generated with MDTraj, t= 29.0
 75
    1UNL     C1    1   0.557  -0.321   0.082
    1UNL     C2    2   0.599  -0.176   0.091
    1UNL     O1    3   0.574  -0.116   0.192
    1UNL     O2    4   0.662  -0.121  -0.017
    1UNL     C3    5   0.660   0.017   0.015
    1UNL     C4    6   0.540   0.078  -0.061
    1UNL     O3    7   0.411   0.018  -0.015
    1UNL     C5    8   0.325   0.119   0.049
    1UNL     O4    9   0.264   0.196  -0.056
    1UNL     C6   10   0.121   0.204  -0.046
    1UNL     C7   11   0.059   0.095  -0.140
    1UNL     O5   12  -0.071   0.065  -0.086
    1UNL     C8   13  -0.128  -0.068  -0.112
    1UNL     O6   14  -0.269  -0.059  -0.111
    1UNL     C9   15  -0.316   0.020  -0.009
    1UNL    C10   16  -0.307  -0.037   0.129
    1UNL    C11   17  -0.389  -0.132   0.168
    1UNL    C12   18  -0.380  -0.194   0.297
    1UNL    C13   19  -0.513  -0.169   0.084
    1UNL    C14   20  -0.636  -0.087   0.128
    1UNL     O7   21  -0.636  -0.030   0.232
    1UNL    C15   22  -0.757  -0.088   0.043
    1UNL    C16   23  -0.877  -0.024   0.061
    1UNL    C17   24  -0.981  -0.036  -0.042
    1UNL    C18   25  -0.895   0.076   0.172
    1UNL    C19   26  -0.088  -0.125  -0.256
    1UNL     O8   27  -0.141  -0.045  -0.361
    1UNL    C20   28   0.070  -0.131  -0.275
    1UNL     O9   29   0.122  -0.254  -0.251
    1UNL    C21   30   0.139  -0.029  -0.170
    1UNL    O10   31   0.256   0.002  -0.236
    1UNL    C22   32   0.405   0.209   0.147
    1UNL    O11   33   0.445   0.132   0.261
    1UNL    C23   34   0.533   0.278   0.088
    1UNL    O12   35   0.643   0.255   0.171
    1UNL    C24   36   0.544   0.231  -0.057
    1UNL    O13   37   0.653   0.295  -0.120
    1UNL     H1   38   0.531  -0.337  -0.023
    1UNL     H2   39   0.631  -0.393   0.115
    1UNL     H3   40   0.475  -0.332   0.149
    1UNL     H4   41   0.652   0.043   0.122
    1UNL     H5   42   0.749   0.065  -0.023
    1UNL     H6   43   0.554   0.046  -0.167
    1UNL     H7   44   0.246   0.058   0.100
    1UNL     H8   45   0.096   0.191   0.062
    1UNL     H9   46   0.100   0.309  -0.072
    1UNL    H10   47   0.044   0.148  -0.243
    1UNL    H11   48  -0.094  -0.134  -0.030
    1UNL    H12   49  -0.268   0.117  -0.011
    1UNL    H13   50  -0.416   0.060  -0.040
    1UNL    H14   51  -0.213  -0.015   0.183
    1UNL    H15   52  -0.323  -0.134   0.369
    1UNL    H16   53  -0.475  -0.197   0.352
    1UNL    H17   54  -0.328  -0.287   0.303
    1UNL    H18   55  -0.549  -0.270   0.097
    1UNL    H19   56  -0.487  -0.171  -0.030
    1UNL    H20   57  -0.736  -0.138  -0.050
    1UNL    H21   58  -0.961   0.019  -0.135
    1UNL    H22   59  -1.077  -0.011   0.009
    1UNL    H23   60  -1.015  -0.139  -0.057
    1UNL    H24   61  -0.999   0.101   0.181
    1UNL    H25   62  -0.837   0.165   0.133
    1UNL    H26   63  -0.843   0.050   0.257
    1UNL    H27   64  -0.121  -0.230  -0.265
    1UNL    H28   65  -0.243  -0.043  -0.354
    1UNL    H29   66   0.096  -0.099  -0.378
    1UNL    H30   67   0.217  -0.255  -0.279
    1UNL    H31   68   0.181  -0.081  -0.083
    1UNL    H32   69   0.298   0.078  -0.198
    1UNL    H33   70   0.344   0.280   0.205
    1UNL    H34   71   0.492   0.046   0.246
    1UNL    H35   72   0.517   0.380   0.087
    1UNL    H36   73   0.609   0.237   0.262
    1UNL    H37   74   0.456   0.257  -0.119
    1UNL    H38   75   0.676   0.272  -0.212
   0.00000   0.00000   0.00000   0.00000   0.00000   0.00000   0.00000   0.00000   0.00000
Generated with MDTraj, t= 30.0
 75
    1UNL     C1    1   0.566  -0.318   0.079
    1UNL     C2    2   0.595  -0.170   0.109
    1UNL     O1    3   0.543  -0.110   0.197
    1UNL     O2    4   0.687  -0.120   0.016
    1UNL     C3    5   0.680   0.022   0.026
    1UNL     C4    6   0.558   0.079  -0.063
    1UNL     O3    7   0.440   0.015  -0.008
    1UNL     C5    8   0.345   0.109   0.041
    1UNL     O4    9   0.275   0.177  -0.064
    1UNL     C6   10   0.129   0.174  -0.043
    1UNL     C7   11   0.065   0.092  -0.149
    1UNL     O5   12  -0.078   0.089  -0.106
    1UNL     C8   13  -0.136  -0.040  -0.120
    1UNL     O6   14  -0.275  -0.045  -0.108
    1UNL     C9   15  -0.326   0.033  -0.010
    1UNL    C10   16  -0.312  -0.038   0.124
    1UNL    C11   17  -0.389  -0.140   0.158
    1UNL    C12   18  -0.376  -0.201   0.288
    1UNL    C13   19  -0.511  -0.183   0.086
    1UNL    C14   20  -0.635  -0.099   0.127
    1UNL     O7   21  -0.621  -0.024   0.214
    1UNL    C15   22  -0.761  -0.122   0.062
    1UNL    C16   23  -0.859  -0.028   0.068
    1UNL    C17   24  -0.993  -0.058   0.002
    1UNL    C18   25  -0.862   0.108   0.136
    1UNL    C19   26  -0.104  -0.100  -0.254
    1UNL     O8   27  -0.169  -0.029  -0.358
    1UNL    C20   28   0.049  -0.123  -0.274
    1UNL     O9   29   0.092  -0.255  -0.287
    1UNL    C21   30   0.132  -0.039  -0.176
    1UNL    O10   31   0.263  -0.038  -0.230
    1UNL    C22   32   0.395   0.212   0.141
    1UNL    O11   33   0.426   0.154   0.264
    1UNL    C23   34   0.531   0.282   0.093
    1UNL    O12   35   0.637   0.245   0.171
    1UNL    C24   36   0.547   0.238  -0.055
    1UNL    O13   37   0.660   0.301  -0.112
    1UNL     H1   38   0.460  -0.339   0.070
    1UNL     H2   39   0.606  -0.346  -0.019
    1UNL     H3   40   0.616  -0.383   0.150
    1UNL     H4   41   0.671   0.057   0.128
    1UNL     H5   42   0.767   0.062  -0.023
    1UNL     H6   43   0.571   0.043  -0.167
    1UNL     H7   44   0.265   0.046   0.086
    1UNL     H8   45   0.111   0.128   0.058
    1UNL     H9   46   0.089   0.277  -0.036
    1UNL    H10   47   0.058   0.152  -0.248
    1UNL    H11   48  -0.102  -0.102  -0.034
    1UNL    H12   49  -0.274   0.128  -0.015
    1UNL    H13   50  -0.433   0.070  -0.025
    1UNL    H14   51  -0.227  -0.015   0.182
    1UNL    H15   52  -0.341  -0.134   0.367
    1UNL    H16   53  -0.476  -0.221   0.325
    1UNL    H17   54  -0.314  -0.292   0.295
    1UNL    H18   55  -0.529  -0.287   0.114
    1UNL    H19   56  -0.500  -0.198  -0.028
    1UNL    H20   57  -0.763  -0.216   0.009
    1UNL    H21   58  -1.014   0.011  -0.079
    1UNL    H22   59  -1.069  -0.061   0.086
    1UNL    H23   60  -1.010  -0.162  -0.028
    1UNL    H24   61  -0.932   0.172   0.088
    1UNL    H25   62  -0.762   0.151   0.123
    1UNL    H26   63  -0.869   0.099   0.244
    1UNL    H27   64  -0.149  -0.204  -0.255
    1UNL    H28   65  -0.261  -0.009  -0.331
    1UNL    H29   66   0.057  -0.079  -0.376
    1UNL    H30   67   0.185  -0.254  -0.304
    1UNL    H31   68   0.141  -0.098  -0.080
    1UNL    H32   69   0.332  -0.020  -0.156
    1UNL    H33   70   0.319   0.290   0.155
    1UNL    H34   71   0.469   0.067   0.239
    1UNL    H35   72   0.526   0.385   0.087
    1UNL    H36   73   0.604   0.247   0.263
    1UNL    H37   74   0.466   0.262  -0.124
    1UNL    H38   75   0.680   0.277  -0.206
   0.00000   0.00000   0.00000   0.00000   0.00000   0.00000   0.00000   0.00000   0.00000
Generated with MDTraj, t= 31.0
 75
    1UNL     C1    1   0.599  -0.314   0.115
    1UNL     C2    2   0.612  -0.168   0.133
    1UNL     O1    3   0.564  -0.114   0.225
    1UNL     O2    4   0.686  -0.117   0.028
    1UNL     C3    5   0.697   0.029   0.023
    1UNL     C4    6   0.576   0.086  -0.057
    1UNL     O3    7   0.442   0.034  -0.021
    1UNL     C5    8   0.346   0.120   0.031
    1UNL     O4    9   0.263   0.179  -0.070
    1UNL     C6   10   0.123   0.155  -0.044
    1UNL     C7   11   0.047   0.084  -0.159
    1UNL     O5   12  -0.101   0.101  -0.145
    1UNL     C8   13  -0.172  -0.031  -0.150
    1UNL     O6   14  -0.307  -0.020  -0.114
    1UNL     C9   15  -0.314   0.045   0.011
    1UNL    C10   16  -0.288  -0.049   0.134
    1UNL    C11   17  -0.379  -0.141   0.169
    1UNL    C12   18  -0.356  -0.234   0.290
    1UNL    C13   19  -0.505  -0.166   0.091
    1UNL    C14   20  -0.623  -0.087   0.141
    1UNL     O7   21  -0.617   0.013   0.206
    1UNL    C15   22  -0.757  -0.132   0.087
    1UNL    C16   23  -0.852  -0.038   0.066
    1UNL    C17   24  -0.982  -0.091   0.028
    1UNL    C18   25  -0.839   0.106   0.097
    1UNL    C19   26  -0.141  -0.098  -0.289
    1UNL     O8   27  -0.188  -0.023  -0.397
    1UNL    C20   28   0.014  -0.123  -0.304
    1UNL     O9   29   0.041  -0.265  -0.312
    1UNL    C21   30   0.093  -0.060  -0.188
    1UNL    O10   31   0.234  -0.074  -0.219
    1UNL    C22   32   0.400   0.213   0.148
    1UNL    O11   33   0.443   0.133   0.256
    1UNL    C23   34   0.534   0.286   0.098
    1UNL    O12   35   0.643   0.269   0.188
    1UNL    C24   36   0.574   0.240  -0.044
    1UNL    O13   37   0.702   0.301  -0.069
    1UNL     H1   38   0.573  -0.360   0.210
    1UNL     H2   39   0.523  -0.340   0.041
    1UNL     H3   40   0.693  -0.360   0.083
    1UNL     H4   41   0.700   0.075   0.123
    1UNL     H5   42   0.787   0.049  -0.035
    1UNL     H6   43   0.592   0.058  -0.161
    1UNL     H7   44   0.273   0.056   0.085
    1UNL     H8   45   0.102   0.102   0.052
    1UNL     H9   46   0.074   0.252  -0.024
    1UNL    H10   47   0.067   0.151  -0.250
    1UNL    H11   48  -0.129  -0.094  -0.068
    1UNL    H12   49  -0.247   0.132   0.021
    1UNL    H13   50  -0.415   0.100   0.013
    1UNL    H14   51  -0.201  -0.042   0.201
    1UNL    H15   52  -0.349  -0.173   0.378
    1UNL    H16   53  -0.449  -0.288   0.297
    1UNL    H17   54  -0.267  -0.304   0.277
    1UNL    H18   55  -0.532  -0.273   0.091
    1UNL    H19   56  -0.494  -0.143  -0.019
    1UNL    H20   57  -0.768  -0.239   0.080
    1UNL    H21   58  -1.019  -0.016  -0.043
    1UNL    H22   59  -1.046  -0.112   0.118
    1UNL    H23   60  -0.969  -0.185  -0.027
    1UNL    H24   61  -0.900   0.163   0.033
    1UNL    H25   62  -0.740   0.148   0.100
    1UNL    H26   63  -0.872   0.120   0.206
    1UNL    H27   64  -0.182  -0.204  -0.293
    1UNL    H28   65  -0.256   0.041  -0.374
    1UNL    H29   66   0.049  -0.072  -0.396
    1UNL    H30   67   0.133  -0.278  -0.299
    1UNL    H31   68   0.072  -0.119  -0.094
    1UNL    H32   69   0.290  -0.046  -0.136
    1UNL    H33   70   0.323   0.283   0.183
    1UNL    H34   71   0.478   0.045   0.237
    1UNL    H35   72   0.513   0.388   0.097
    1UNL    H36   73   0.608   0.223   0.270
    1UNL    H37   74   0.502   0.277  -0.114
    1UNL    H38   75   0.730   0.288  -0.164
   0.00000   0.00000   0.00000   0.00000   0.00000   0.00000   0.00000   0.00000   0.00000
Generated with MDTraj, t= 32.0
 75
    1UNL     C1    1   0.643  -0.313   0.143
    1UNL     C2    2   0.632  -0.161   0.151
    1UNL     O1    3   0.581  -0.095   0.239
    1UNL     O2    4   0.695  -0.119   0.035
    1UNL     C3    5   0.699   0.024   0.018
    1UNL     C4    6   0.582   0.080  -0.059
    1UNL     O3    7   0.462   0.011  -0.026
    1UNL     C5    8   0.353   0.089   0.022
    1UNL     O4    9   0.255   0.150  -0.073
    1UNL     C6   10   0.126   0.137  -0.035
    1UNL     C7   11   0.043   0.082  -0.158
    1UNL     O5   12  -0.095   0.098  -0.134
    1UNL     C8   13  -0.177  -0.022  -0.136
    1UNL     O6   14  -0.308   0.013  -0.121
    1UNL     C9   15  -0.333   0.063   0.008
    1UNL    C10   16  -0.293  -0.035   0.119
    1UNL    C11   17  -0.364  -0.143   0.159
    1UNL    C12   18  -0.314  -0.235   0.261
    1UNL    C13   19  -0.495  -0.162   0.083
    1UNL    C14   20  -0.604  -0.078   0.126
    1UNL     O7   21  -0.587   0.034   0.177
    1UNL    C15   22  -0.741  -0.123   0.103
    1UNL    C16   23  -0.842  -0.041   0.074
    1UNL    C17   24  -0.967  -0.118   0.055
    1UNL    C18   25  -0.830   0.103   0.064
    1UNL    C19   26  -0.159  -0.088  -0.274
    1UNL     O8   27  -0.212  -0.004  -0.367
    1UNL    C20   28  -0.006  -0.114  -0.303
    1UNL     O9   29   0.012  -0.259  -0.315
    1UNL    C21   30   0.088  -0.062  -0.194
    1UNL    O10   31   0.223  -0.066  -0.244
    1UNL    C22   32   0.384   0.195   0.135
    1UNL    O11   33   0.394   0.133   0.258
    1UNL    C23   34   0.510   0.279   0.099
    1UNL    O12   35   0.612   0.267   0.200
    1UNL    C24   36   0.565   0.234  -0.044
    1UNL    O13   37   0.692   0.291  -0.068
    1UNL     H1   38   0.746  -0.335   0.173
    1UNL     H2   39   0.577  -0.355   0.219
    1UNL     H3   40   0.627  -0.364   0.045
    1UNL     H4   41   0.693   0.060   0.123
    1UNL     H5   42   0.793   0.055  -0.031
    1UNL     H6   43   0.606   0.067  -0.164
    1UNL     H7   44   0.294   0.014   0.077
    1UNL     H8   45   0.119   0.071   0.055
    1UNL     H9   46   0.082   0.229   0.005
    1UNL    H10   47   0.077   0.149  -0.244
    1UNL    H11   48  -0.146  -0.092  -0.055
    1UNL    H12   49  -0.287   0.162   0.018
    1UNL    H13   50  -0.443   0.090   0.029
    1UNL    H14   51  -0.208  -0.016   0.181
    1UNL    H15   52  -0.331  -0.180   0.353
    1UNL    H16   53  -0.382  -0.319   0.250
    1UNL    H17   54  -0.205  -0.266   0.245
    1UNL    H18   55  -0.531  -0.268   0.091
    1UNL    H19   56  -0.468  -0.145  -0.022
    1UNL    H20   57  -0.753  -0.229   0.121
    1UNL    H21   58  -1.050  -0.046   0.042
    1UNL    H22   59  -0.991  -0.191   0.136
    1UNL    H23   60  -0.960  -0.164  -0.045
    1UNL    H24   61  -0.915   0.136   0.003
    1UNL    H25   62  -0.734   0.129   0.030
    1UNL    H26   63  -0.835   0.135   0.173
    1UNL    H27   64  -0.220  -0.188  -0.277
    1UNL    H28   65  -0.268   0.065  -0.317
    1UNL    H29   66   0.019  -0.066  -0.399
    1UNL    H30   67   0.107  -0.283  -0.310
    1UNL    H31   68   0.076  -0.138  -0.110
    1UNL    H32   69   0.291  -0.046  -0.168
    1UNL    H33   70   0.301   0.268   0.147
    1UNL    H34   71   0.460   0.058   0.246
    1UNL    H35   72   0.494   0.384   0.109
    1UNL    H36   73   0.577   0.264   0.289
    1UNL    H37   74   0.495   0.278  -0.107
    1UNL    H38   75   0.708   0.279  -0.164
   0.00000   0.00000   0.00000   0.00000   0.00000   0.00000   0.00000   0.00000   0.00000
Generated with MDTraj, t= 33.0
 75
    1UNL     C1    1   0.673  -0.296   0.171
    1UNL     C2    2   0.657  -0.147   0.168
    1UNL     O1    3   0.583  -0.093   0.251
    1UNL     O2    4   0.723  -0.100   0.062
    1UNL     C3    5   0.705   0.035   0.031
    1UNL     C4    6   0.575   0.065  -0.047
    1UNL     O3    7   0.460  -0.020  -0.017
    1UNL     C5    8   0.345   0.055   0.025
    1UNL     O4    9   0.277   0.123  -0.087
    1UNL     C6   10   0.142   0.161  -0.071
    1UNL     C7   11   0.041   0.091  -0.171
    1UNL     O5   12  -0.090   0.088  -0.107
    1UNL     C8   13  -0.180  -0.022  -0.131
    1UNL     O6   14  -0.316   0.014  -0.104
    1UNL     C9   15  -0.326   0.086   0.015
    1UNL    C10   16  -0.287  -0.004   0.128
    1UNL    C11   17  -0.346  -0.118   0.154
    1UNL    C12   18  -0.282  -0.201   0.254
    1UNL    C13   19  -0.468  -0.160   0.067
    1UNL    C14   20  -0.592  -0.084   0.102
    1UNL     O7   21  -0.579   0.038   0.128
    1UNL    C15   22  -0.730  -0.139   0.091
    1UNL    C16   23  -0.836  -0.055   0.088
    1UNL    C17   24  -0.969  -0.118   0.093
    1UNL    C18   25  -0.820   0.087   0.048
    1UNL    C19   26  -0.170  -0.074  -0.278
    1UNL     O8   27  -0.225   0.024  -0.361
    1UNL    C20   28  -0.021  -0.106  -0.310
    1UNL     O9   29  -0.003  -0.247  -0.316
    1UNL    C21   30   0.080  -0.050  -0.207
    1UNL    O10   31   0.211  -0.061  -0.256
    1UNL    C22   32   0.372   0.158   0.143
    1UNL    O11   33   0.384   0.095   0.266
    1UNL    C23   34   0.493   0.255   0.101
    1UNL    O12   35   0.601   0.242   0.192
    1UNL    C24   36   0.535   0.214  -0.046
    1UNL    O13   37   0.628   0.305  -0.093
    1UNL     H1   38   0.695  -0.340   0.071
    1UNL     H2   39   0.753  -0.302   0.247
    1UNL     H3   40   0.589  -0.348   0.220
    1UNL     H4   41   0.707   0.085   0.130
    1UNL     H5   42   0.802   0.051  -0.021
    1UNL     H6   43   0.595   0.036  -0.149
    1UNL     H7   44   0.271  -0.017   0.062
    1UNL     H8   45   0.102   0.152   0.034
    1UNL     H9   46   0.135   0.268  -0.083
    1UNL    H10   47   0.028   0.145  -0.269
    1UNL    H11   48  -0.144  -0.102  -0.063
    1UNL    H12   49  -0.252   0.164   0.022
    1UNL    H13   50  -0.427   0.137   0.028
    1UNL    H14   51  -0.209   0.020   0.200
    1UNL    H15   52  -0.324  -0.179   0.354
    1UNL    H16   53  -0.303  -0.307   0.234
    1UNL    H17   54  -0.170  -0.199   0.262
    1UNL    H18   55  -0.490  -0.267   0.098
    1UNL    H19   56  -0.442  -0.160  -0.037
    1UNL    H20   57  -0.736  -0.245   0.118
    1UNL    H21   58  -1.042  -0.053   0.145
    1UNL    H22   59  -0.975  -0.212   0.152
    1UNL    H23   60  -1.015  -0.124  -0.009
    1UNL    H24   61  -0.924   0.111   0.017
    1UNL    H25   62  -0.747   0.091  -0.030
    1UNL    H26   63  -0.784   0.147   0.133
    1UNL    H27   64  -0.243  -0.163  -0.295
    1UNL    H28   65  -0.284   0.086  -0.314
    1UNL    H29   66   0.006  -0.058  -0.405
    1UNL    H30   67   0.098  -0.262  -0.319
    1UNL    H31   68   0.081  -0.114  -0.113
    1UNL    H32   69   0.269   0.000  -0.208
    1UNL    H33   70   0.288   0.229   0.148
    1UNL    H34   71   0.455   0.026   0.263
    1UNL    H35   72   0.463   0.361   0.112
    1UNL    H36   73   0.570   0.259   0.284
    1UNL    H37   74   0.447   0.231  -0.096
    1UNL    H38   75   0.654   0.265  -0.179
   0.00000   0.00000   0.00000   0.00000   0.00000   0.00000   0.00000   0.00000   0.00000
Generated with MDTraj, t= 34.0
 75
    1UNL     C1    1   0.716  -0.298   0.181
    1UNL     C2    2   0.685  -0.153   0.174
    1UNL     O1    3   0.623  -0.092   0.261
    1UNL     O2    4   0.719  -0.097   0.054
    1UNL     C3    5   0.687   0.036   0.036
    1UNL     C4    6   0.559   0.055  -0.045
    1UNL     O3    7   0.454  -0.028   0.015
    1UNL     C5    8   0.329   0.030   0.032
    1UNL     O4    9   0.271   0.084  -0.087
    1UNL     C6   10   0.134   0.128  -0.065
    1UNL     C7   11   0.048   0.089  -0.181
    1UNL     O5   12  -0.095   0.119  -0.139
    1UNL     C8   13  -0.179   0.009  -0.145
    1UNL     O6   14  -0.309   0.031  -0.094
    1UNL     C9   15  -0.296   0.104   0.023
    1UNL    C10   16  -0.272   0.007   0.145
    1UNL    C11   17  -0.339  -0.107   0.159
    1UNL    C12   18  -0.310  -0.176   0.288
    1UNL    C13   19  -0.454  -0.147   0.074
    1UNL    C14   20  -0.581  -0.062   0.100
    1UNL     O7   21  -0.570   0.058   0.116
    1UNL    C15   22  -0.709  -0.135   0.110
    1UNL    C16   23  -0.828  -0.074   0.101
    1UNL    C17   24  -0.948  -0.165   0.096
    1UNL    C18   25  -0.839   0.066   0.050
    1UNL    C19   26  -0.168  -0.048  -0.298
    1UNL     O8   27  -0.189   0.062  -0.385
    1UNL    C20   28  -0.028  -0.110  -0.327
    1UNL     O9   29  -0.025  -0.252  -0.332
    1UNL    C21   30   0.078  -0.057  -0.225
    1UNL    O10   31   0.208  -0.076  -0.272
    1UNL    C22   32   0.345   0.137   0.141
    1UNL    O11   33   0.381   0.095   0.271
    1UNL    C23   34   0.458   0.243   0.092
    1UNL    O12   35   0.556   0.264   0.191
    1UNL    C24   36   0.516   0.205  -0.054
    1UNL    O13   37   0.619   0.294  -0.075
    1UNL     H1   38   0.630  -0.370   0.187
    1UNL     H2   39   0.776  -0.308   0.087
    1UNL     H3   40   0.798  -0.320   0.252
    1UNL     H4   41   0.677   0.079   0.138
    1UNL     H5   42   0.773   0.093  -0.004
    1UNL     H6   43   0.568   0.012  -0.144
    1UNL     H7   44   0.266  -0.049   0.075
    1UNL     H8   45   0.094   0.081   0.027
    1UNL     H9   46   0.131   0.233  -0.044
    1UNL    H10   47   0.056   0.148  -0.274
    1UNL    H11   48  -0.133  -0.064  -0.075
    1UNL    H12   49  -0.237   0.191   0.009
    1UNL    H13   50  -0.397   0.148   0.048
    1UNL    H14   51  -0.207   0.027   0.229
    1UNL    H15   52  -0.391  -0.145   0.359
    1UNL    H16   53  -0.314  -0.287   0.278
    1UNL    H17   54  -0.214  -0.164   0.337
    1UNL    H18   55  -0.479  -0.258   0.087
    1UNL    H19   56  -0.431  -0.133  -0.026
    1UNL    H20   57  -0.691  -0.237   0.133
    1UNL    H21   58  -1.003  -0.146   0.192
    1UNL    H22   59  -0.928  -0.273   0.105
    1UNL    H23   60  -1.015  -0.133   0.012
    1UNL    H24   61  -0.947   0.090   0.064
    1UNL    H25   62  -0.818   0.064  -0.059
    1UNL    H26   63  -0.782   0.144   0.090
    1UNL    H27   64  -0.256  -0.122  -0.316
    1UNL    H28   65  -0.252   0.129  -0.355
    1UNL    H29   66   0.003  -0.076  -0.427
    1UNL    H30   67   0.069  -0.286  -0.355
    1UNL    H31   68   0.082  -0.116  -0.130
    1UNL    H32   69   0.269  -0.069  -0.199
    1UNL    H33   70   0.254   0.197   0.152
    1UNL    H34   71   0.457   0.035   0.262
    1UNL    H35   72   0.408   0.344   0.077
    1UNL    H36   73   0.508   0.253   0.276
    1UNL    H37   74   0.447   0.227  -0.127
    1UNL    H38   75   0.699   0.251  -0.112
   0.00000   0.00000   0.00000   0.00000   0.00000   0.00000   0.00000   0.00000   0.00000
Generated with MDTraj, t= 35.0
 75
    1UNL     C1    1   0.743  -0.280   0.200
    1UNL     C2    2   0.696  -0.145   0.170
    1UNL     O1    3   0.623  -0.098   0.257
    1UNL     O2    4   0.745  -0.082   0.059
    1UNL     C3    5   0.692   0.043   0.046
    1UNL     C4    6   0.562   0.052  -0.030
    1UNL     O3    7   0.462  -0.045   0.027
    1UNL     C5    8   0.330   0.013   0.059
    1UNL     O4    9   0.278   0.060  -0.066
    1UNL     C6   10   0.133   0.089  -0.060
    1UNL     C7   11   0.059   0.078  -0.190
    1UNL     O5   12  -0.078   0.128  -0.168
    1UNL     C8   13  -0.170   0.027  -0.164
    1UNL     O6   14  -0.302   0.057  -0.111
    1UNL     C9   15  -0.294   0.121   0.015
    1UNL    C10   16  -0.259   0.028   0.125
    1UNL    C11   17  -0.333  -0.077   0.156
    1UNL    C12   18  -0.319  -0.130   0.293
    1UNL    C13   19  -0.453  -0.119   0.068
    1UNL    C14   20  -0.585  -0.048   0.112
    1UNL     O7   21  -0.585   0.066   0.138
    1UNL    C15   22  -0.704  -0.134   0.119
    1UNL    C16   23  -0.828  -0.096   0.097
    1UNL    C17   24  -0.927  -0.207   0.105
    1UNL    C18   25  -0.865   0.036   0.061
    1UNL    C19   26  -0.179  -0.036  -0.315
    1UNL     O8   27  -0.205   0.069  -0.403
    1UNL    C20   28  -0.046  -0.107  -0.346
    1UNL     O9   29  -0.070  -0.245  -0.352
    1UNL    C21   30   0.072  -0.069  -0.246
    1UNL    O10   31   0.201  -0.100  -0.290
    1UNL    C22   32   0.354   0.128   0.157
    1UNL    O11   33   0.403   0.073   0.272
    1UNL    C23   34   0.453   0.242   0.107
    1UNL    O12   35   0.544   0.265   0.207
    1UNL    C24   36   0.511   0.201  -0.037
    1UNL    O13   37   0.601   0.295  -0.083
    1UNL     H1   38   0.798  -0.298   0.295
    1UNL     H2   39   0.656  -0.353   0.199
    1UNL     H3   40   0.795  -0.309   0.106
    1UNL     H4   41   0.676   0.094   0.143
    1UNL     H5   42   0.771   0.108   0.004
    1UNL     H6   43   0.573   0.009  -0.128
    1UNL     H7   44   0.277  -0.072   0.106
    1UNL     H8   45   0.102   0.014   0.017
    1UNL     H9   46   0.121   0.182  -0.010
    1UNL    H10   47   0.104   0.142  -0.265
    1UNL    H11   48  -0.123  -0.046  -0.097
    1UNL    H12   49  -0.225   0.200   0.010
    1UNL    H13   50  -0.389   0.179   0.025
    1UNL    H14   51  -0.187   0.056   0.199
    1UNL    H15   52  -0.401  -0.072   0.346
    1UNL    H16   53  -0.338  -0.241   0.291
    1UNL    H17   54  -0.222  -0.114   0.334
    1UNL    H18   55  -0.478  -0.228   0.089
    1UNL    H19   56  -0.447  -0.116  -0.036
    1UNL    H20   57  -0.682  -0.236   0.148
    1UNL    H21   58  -0.940  -0.236   0.213
    1UNL    H22   59  -0.905  -0.306   0.059
    1UNL    H23   60  -1.026  -0.165   0.072
    1UNL    H24   61  -0.968   0.063   0.090
    1UNL    H25   62  -0.839   0.051  -0.048
    1UNL    H26   63  -0.802   0.104   0.110
    1UNL    H27   64  -0.265  -0.114  -0.316
    1UNL    H28   65  -0.224   0.157  -0.355
    1UNL    H29   66  -0.026  -0.085  -0.452
    1UNL    H30   67   0.002  -0.295  -0.394
    1UNL    H31   68   0.075  -0.137  -0.159
    1UNL    H32   69   0.272  -0.052  -0.229
    1UNL    H33   70   0.260   0.178   0.190
    1UNL    H34   71   0.482   0.014   0.250
    1UNL    H35   72   0.392   0.338   0.086
    1UNL    H36   73   0.501   0.239   0.291
    1UNL    H37   74   0.435   0.206  -0.106
    1UNL    H38   75   0.607   0.290  -0.182
   0.00000   0.00000   0.00000   0.00000   0.00000   0.00000   0.00000   0.00000   0.00000
Generated with MDTraj, t= 36.0
 75
    1UNL     C1    1   0.764  -0.279   0.189
    1UNL     C2    2   0.713  -0.135   0.179
    1UNL     O1    3   0.641  -0.086   0.266
    1UNL     O2    4   0.768  -0.059   0.077
    1UNL     C3    5   0.698   0.060   0.064
    1UNL     C4    6   0.579   0.052  -0.021
    1UNL     O3    7   0.485  -0.050   0.033
    1UNL     C5    8   0.349  -0.011   0.054
    1UNL     O4    9   0.274   0.007  -0.066
    1UNL     C6   10   0.139   0.054  -0.040
    1UNL     C7   11   0.058   0.057  -0.170
    1UNL     O5   12  -0.079   0.105  -0.136
    1UNL     C8   13  -0.186   0.014  -0.156
    1UNL     O6   14  -0.311   0.082  -0.134
    1UNL     C9   15  -0.313   0.167  -0.023
    1UNL    C10   16  -0.280   0.094   0.099
    1UNL    C11   17  -0.341  -0.020   0.129
    1UNL    C12   18  -0.286  -0.093   0.248
    1UNL    C13   19  -0.459  -0.075   0.050
    1UNL    C14   20  -0.592  -0.046   0.117
    1UNL     O7   21  -0.615   0.063   0.158
    1UNL    C15   22  -0.693  -0.157   0.125
    1UNL    C16   23  -0.819  -0.127   0.100
    1UNL    C17   24  -0.917  -0.228   0.118
    1UNL    C18   25  -0.863   0.023   0.080
    1UNL    C19   26  -0.190  -0.041  -0.310
    1UNL     O8   27  -0.232   0.063  -0.394
    1UNL    C20   28  -0.049  -0.087  -0.352
    1UNL     O9   29  -0.060  -0.224  -0.390
    1UNL    C21   30   0.062  -0.082  -0.240
    1UNL    O10   31   0.190  -0.111  -0.290
    1UNL    C22   32   0.352   0.112   0.149
    1UNL    O11   33   0.387   0.067   0.274
    1UNL    C23   34   0.449   0.224   0.110
    1UNL    O12   35   0.542   0.235   0.212
    1UNL    C24   36   0.509   0.196  -0.034
    1UNL    O13   37   0.590   0.299  -0.089
    1UNL     H1   38   0.833  -0.311   0.107
    1UNL     H2   39   0.808  -0.308   0.290
    1UNL     H3   40   0.669  -0.337   0.178
    1UNL     H4   41   0.671   0.094   0.164
    1UNL     H5   42   0.764   0.140   0.029
    1UNL     H6   43   0.608   0.015  -0.121
    1UNL     H7   44   0.312  -0.104   0.101
    1UNL     H8   45   0.096  -0.007   0.043
    1UNL     H9   46   0.157   0.151   0.001
    1UNL    H10   47   0.101   0.128  -0.237
    1UNL    H11   48  -0.178  -0.066  -0.080
    1UNL    H12   49  -0.260   0.253  -0.056
    1UNL    H13   50  -0.416   0.207  -0.013
    1UNL    H14   51  -0.192   0.114   0.161
    1UNL    H15   52  -0.313  -0.026   0.335
    1UNL    H16   53  -0.341  -0.189   0.263
    1UNL    H17   54  -0.180  -0.120   0.240
    1UNL    H18   55  -0.462  -0.186   0.028
    1UNL    H19   56  -0.462  -0.031  -0.046
    1UNL    H20   57  -0.657  -0.254   0.153
    1UNL    H21   58  -0.886  -0.306   0.193
    1UNL    H22   59  -0.942  -0.290   0.027
    1UNL    H23   60  -1.005  -0.173   0.156
    1UNL    H24   61  -0.966   0.036   0.106
    1UNL    H25   62  -0.838   0.056  -0.023
    1UNL    H26   63  -0.806   0.082   0.154
    1UNL    H27   64  -0.275  -0.118  -0.324
    1UNL    H28   65  -0.255   0.148  -0.351
    1UNL    H29   66  -0.019  -0.022  -0.436
    1UNL    H30   67   0.026  -0.243  -0.420
    1UNL    H31   68   0.038  -0.155  -0.163
    1UNL    H32   69   0.257  -0.106  -0.225
    1UNL    H33   70   0.246   0.140   0.167
    1UNL    H34   71   0.472   0.013   0.272
    1UNL    H35   72   0.391   0.325   0.100
    1UNL    H36   73   0.495   0.218   0.299
    1UNL    H37   74   0.436   0.188  -0.105
    1UNL    H38   75   0.601   0.277  -0.185
   0.00000   0.00000   0.00000   0.00000   0.00000   0.00000   0.00000   0.00000   0.00000
Generated with MDTraj, t= 37.0
 75
    1UNL     C1    1   0.787  -0.269   0.208
    1UNL     C2    2   0.731  -0.130   0.186
    1UNL     O1    3   0.664  -0.081   0.271
    1UNL     O2    4   0.760  -0.063   0.074
    1UNL     C3    5   0.691   0.062   0.060
    1UNL     C4    6   0.574   0.048  -0.024
    1UNL     O3    7   0.484  -0.060   0.016
    1UNL     C5    8   0.353  -0.023   0.057
    1UNL     O4    9   0.272   0.014  -0.059
    1UNL     C6   10   0.132   0.033  -0.028
    1UNL     C7   11   0.052   0.039  -0.162
    1UNL     O5   12  -0.081   0.097  -0.136
    1UNL     C8   13  -0.197   0.026  -0.180
    1UNL     O6   14  -0.321   0.098  -0.165
    1UNL     C9   15  -0.319   0.189  -0.055
    1UNL    C10   16  -0.282   0.121   0.078
    1UNL    C11   17  -0.339   0.011   0.127
    1UNL    C12   18  -0.283  -0.056   0.250
    1UNL    C13   19  -0.459  -0.051   0.051
    1UNL    C14   20  -0.588  -0.035   0.122
    1UNL     O7   21  -0.615   0.073   0.174
    1UNL    C15   22  -0.679  -0.148   0.122
    1UNL    C16   23  -0.810  -0.132   0.109
    1UNL    C17   24  -0.891  -0.261   0.120
    1UNL    C18   25  -0.881  -0.005   0.112
    1UNL    C19   26  -0.185  -0.029  -0.323
    1UNL     O8   27  -0.245   0.052  -0.411
    1UNL    C20   28  -0.042  -0.068  -0.358
    1UNL     O9   29  -0.044  -0.193  -0.438
    1UNL    C21   30   0.042  -0.099  -0.231
    1UNL    O10   31   0.169  -0.150  -0.270
    1UNL    C22   32   0.358   0.087   0.169
    1UNL    O11   33   0.424   0.040   0.288
    1UNL    C23   34   0.427   0.211   0.108
    1UNL    O12   35   0.518   0.254   0.202
    1UNL    C24   36   0.498   0.187  -0.025
    1UNL    O13   37   0.586   0.292  -0.055
    1UNL     H1   38   0.694  -0.331   0.214
    1UNL     H2   39   0.866  -0.307   0.136
    1UNL     H3   40   0.828  -0.268   0.313
    1UNL     H4   41   0.658   0.095   0.159
    1UNL     H5   42   0.766   0.128   0.021
    1UNL     H6   43   0.608   0.026  -0.128
    1UNL     H7   44   0.312  -0.121   0.089
    1UNL     H8   45   0.093  -0.051   0.035
    1UNL     H9   46   0.120   0.126   0.023
    1UNL    H10   47   0.091   0.113  -0.225
    1UNL    H11   48  -0.196  -0.061  -0.114
    1UNL    H12   49  -0.245   0.263  -0.075
    1UNL    H13   50  -0.420   0.236  -0.055
    1UNL    H14   51  -0.199   0.155   0.134
    1UNL    H15   52  -0.252   0.025   0.320
    1UNL    H16   53  -0.357  -0.108   0.313
    1UNL    H17   54  -0.203  -0.135   0.238
    1UNL    H18   55  -0.437  -0.158   0.031
    1UNL    H19   56  -0.477  -0.006  -0.047
    1UNL    H20   57  -0.629  -0.244   0.133
    1UNL    H21   58  -0.823  -0.351   0.132
    1UNL    H22   59  -0.944  -0.288   0.023
    1UNL    H23   60  -0.964  -0.248   0.203
    1UNL    H24   61  -0.985  -0.020   0.096
    1UNL    H25   62  -0.837   0.071   0.047
    1UNL    H26   63  -0.875   0.023   0.223
    1UNL    H27   64  -0.241  -0.128  -0.330
    1UNL    H28   65  -0.295   0.128  -0.370
    1UNL    H29   66   0.006   0.008  -0.423
    1UNL    H30   67   0.046  -0.234  -0.422
    1UNL    H31   68  -0.013  -0.166  -0.169
    1UNL    H32   69   0.236  -0.119  -0.197
    1UNL    H33   70   0.256   0.095   0.213
    1UNL    H34   71   0.506  -0.006   0.265
    1UNL    H35   72   0.358   0.302   0.088
    1UNL    H36   73   0.483   0.230   0.289
    1UNL    H37   74   0.430   0.190  -0.101
    1UNL    H38   75   0.624   0.274  -0.144
   0.00000   0.00000   0.00000   0.00000   0.00000   0.00000   0.00000   0.00000   0.00000
Generated with MDTraj, t= 38.0
 75
    1UNL     C1    1   0.827  -0.253   0.204
    1UNL     C2    2   0.748  -0.126   0.184
    1UNL     O1    3   0.688  -0.086   0.280
    1UNL     O2    4   0.754  -0.069   0.059
    1UNL     C3    5   0.683   0.054   0.059
    1UNL     C4    6   0.553   0.043  -0.016
    1UNL     O3    7   0.469  -0.062   0.038
    1UNL     C5    8   0.337  -0.028   0.066
    1UNL     O4    9   0.258   0.013  -0.049
    1UNL     C6   10   0.120   0.031  -0.029
    1UNL     C7   11   0.052   0.040  -0.169
    1UNL     O5   12  -0.068   0.113  -0.165
    1UNL     C8   13  -0.189   0.029  -0.192
    1UNL     O6   14  -0.308   0.093  -0.170
    1UNL     C9   15  -0.295   0.190  -0.072
    1UNL    C10   16  -0.275   0.141   0.071
    1UNL    C11   17  -0.340   0.038   0.124
    1UNL    C12   18  -0.319  -0.003   0.265
    1UNL    C13   19  -0.445  -0.036   0.049
    1UNL    C14   20  -0.583  -0.031   0.116
    1UNL     O7   21  -0.617   0.074   0.177
    1UNL    C15   22  -0.668  -0.150   0.112
    1UNL    C16   23  -0.799  -0.151   0.139
    1UNL    C17   24  -0.875  -0.279   0.123
    1UNL    C18   25  -0.873  -0.031   0.163
    1UNL    C19   26  -0.185  -0.032  -0.341
    1UNL     O8   27  -0.225   0.082  -0.422
    1UNL    C20   28  -0.035  -0.075  -0.365
    1UNL     O9   29  -0.032  -0.193  -0.455
    1UNL    C21   30   0.048  -0.101  -0.240
    1UNL    O10   31   0.170  -0.163  -0.280
    1UNL    C22   32   0.333   0.082   0.174
    1UNL    O11   33   0.377   0.041   0.299
    1UNL    C23   34   0.417   0.206   0.127
    1UNL    O12   35   0.533   0.217   0.208
    1UNL    C24   36   0.472   0.181  -0.015
    1UNL    O13   37   0.555   0.282  -0.068
    1UNL     H1   38   0.893  -0.239   0.296
    1UNL     H2   39   0.760  -0.345   0.200
    1UNL     H3   40   0.894  -0.272   0.114
    1UNL     H4   41   0.662   0.067   0.166
    1UNL     H5   42   0.743   0.135   0.020
    1UNL     H6   43   0.577   0.006  -0.118
    1UNL     H7   44   0.284  -0.119   0.101
    1UNL     H8   45   0.081  -0.057   0.029
    1UNL     H9   46   0.109   0.124   0.023
    1UNL    H10   47   0.121   0.100  -0.220
    1UNL    H11   48  -0.186  -0.049  -0.115
    1UNL    H12   49  -0.202   0.238  -0.102
    1UNL    H13   50  -0.385   0.256  -0.062
    1UNL    H14   51  -0.210   0.198   0.139
    1UNL    H15   52  -0.279   0.086   0.317
    1UNL    H16   53  -0.416  -0.015   0.313
    1UNL    H17   54  -0.264  -0.103   0.288
    1UNL    H18   55  -0.409  -0.140   0.050
    1UNL    H19   56  -0.451  -0.011  -0.059
    1UNL    H20   57  -0.609  -0.239   0.095
    1UNL    H21   58  -0.809  -0.355   0.073
    1UNL    H22   59  -0.957  -0.270   0.045
    1UNL    H23   60  -0.924  -0.309   0.221
    1UNL    H24   61  -0.979  -0.049   0.137
    1UNL    H25   62  -0.838   0.060   0.119
    1UNL    H26   63  -0.884  -0.023   0.276
    1UNL    H27   64  -0.255  -0.117  -0.345
    1UNL    H28   65  -0.309   0.122  -0.386
    1UNL    H29   66   0.015   0.009  -0.416
    1UNL    H30   67   0.056  -0.244  -0.449
    1UNL    H31   68  -0.003  -0.177  -0.185
    1UNL    H32   69   0.232  -0.141  -0.205
    1UNL    H33   70   0.226   0.106   0.197
    1UNL    H34   71   0.474   0.014   0.295
    1UNL    H35   72   0.365   0.304   0.143
    1UNL    H36   73   0.506   0.237   0.302
    1UNL    H37   74   0.391   0.172  -0.076
    1UNL    H38   75   0.599   0.251  -0.150
   0.00000   0.00000   0.00000   0.00000   0.00000   0.00000   0.00000   0.00000   0.00000
Generated with MDTraj, t= 39.0
 75
    1UNL     C1    1   0.826  -0.233   0.212
    1UNL     C2    2   0.730  -0.123   0.173
    1UNL     O1    3   0.650  -0.086   0.255
    1UNL     O2    4   0.748  -0.064   0.050
    1UNL     C3    5   0.683   0.057   0.046
    1UNL     C4    6   0.535   0.035  -0.014
    1UNL     O3    7   0.473  -0.073   0.054
    1UNL     C5    8   0.333  -0.047   0.083
    1UNL     O4    9   0.256  -0.022  -0.037
    1UNL     C6   10   0.130   0.033  -0.025
    1UNL     C7   11   0.065   0.046  -0.170
    1UNL     O5   12  -0.060   0.112  -0.173
    1UNL     C8   13  -0.176   0.026  -0.199
    1UNL     O6   14  -0.302   0.082  -0.171
    1UNL     C9   15  -0.294   0.201  -0.094
    1UNL    C10   16  -0.271   0.165   0.054
    1UNL    C11   17  -0.351   0.077   0.118
    1UNL    C12   18  -0.337   0.044   0.263
    1UNL    C13   19  -0.444  -0.021   0.051
    1UNL    C14   20  -0.585  -0.026   0.112
    1UNL     O7   21  -0.622   0.070   0.179
    1UNL    C15   22  -0.667  -0.147   0.084
    1UNL    C16   23  -0.781  -0.172   0.149
    1UNL    C17   24  -0.858  -0.297   0.132
    1UNL    C18   25  -0.852  -0.058   0.220
    1UNL    C19   26  -0.170  -0.020  -0.342
    1UNL     O8   27  -0.193   0.095  -0.424
    1UNL    C20   28  -0.032  -0.078  -0.376
    1UNL     O9   29  -0.042  -0.217  -0.420
    1UNL    C21   30   0.062  -0.086  -0.256
    1UNL    O10   31   0.192  -0.113  -0.309
    1UNL    C22   32   0.321   0.066   0.188
    1UNL    O11   33   0.381   0.018   0.303
    1UNL    C23   34   0.408   0.195   0.131
    1UNL    O12   35   0.518   0.221   0.214
    1UNL    C24   36   0.453   0.165  -0.012
    1UNL    O13   37   0.537   0.261  -0.063
    1UNL     H1   38   0.906  -0.258   0.133
    1UNL     H2   39   0.883  -0.204   0.305
    1UNL     H3   40   0.772  -0.325   0.252
    1UNL     H4   41   0.673   0.098   0.148
    1UNL     H5   42   0.739   0.125  -0.018
    1UNL     H6   43   0.553  -0.011  -0.113
    1UNL     H7   44   0.291  -0.142   0.121
    1UNL     H8   45   0.067  -0.033   0.039
    1UNL     H9   46   0.133   0.132   0.014
    1UNL    H10   47   0.124   0.115  -0.225
    1UNL    H11   48  -0.162  -0.065  -0.142
    1UNL    H12   49  -0.200   0.258  -0.117
    1UNL    H13   50  -0.393   0.252  -0.103
    1UNL    H14   51  -0.201   0.216   0.116
    1UNL    H15   52  -0.255   0.108   0.300
    1UNL    H16   53  -0.431   0.078   0.308
    1UNL    H17   54  -0.328  -0.068   0.286
    1UNL    H18   55  -0.402  -0.119   0.038
    1UNL    H19   56  -0.458   0.020  -0.054
    1UNL    H20   57  -0.621  -0.222   0.022
    1UNL    H21   58  -0.839  -0.354   0.036
    1UNL    H22   59  -0.969  -0.280   0.122
    1UNL    H23   60  -0.853  -0.358   0.228
    1UNL    H24   61  -0.962  -0.081   0.211
    1UNL    H25   62  -0.829   0.037   0.175
    1UNL    H26   63  -0.833  -0.057   0.329
    1UNL    H27   64  -0.244  -0.095  -0.367
    1UNL    H28   65  -0.275   0.141  -0.404
    1UNL    H29   66   0.010  -0.011  -0.452
    1UNL    H30   67   0.044  -0.257  -0.417
    1UNL    H31   68   0.037  -0.175  -0.201
    1UNL    H32   69   0.250  -0.060  -0.248
    1UNL    H33   70   0.221   0.108   0.211
    1UNL    H34   71   0.471  -0.027   0.284
    1UNL    H35   72   0.350   0.287   0.143
    1UNL    H36   73   0.486   0.207   0.306
    1UNL    H37   74   0.370   0.159  -0.072
    1UNL    H38   75   0.582   0.235  -0.146
   0.00000   0.00000   0.00000   0.00000   0.00000   0.00000   0.00000   0.00000   0.00000
Generated with MDTraj, t= 40.0
 75
    1UNL     C1    1   0.797  -0.254   0.202
    1UNL     C2    2   0.725  -0.126   0.187
    1UNL     O1    3   0.651  -0.087   0.275
    1UNL     O2    4   0.738  -0.059   0.071
    1UNL     C3    5   0.665   0.057   0.070
    1UNL     C4    6   0.538   0.034  -0.017
    1UNL     O3    7   0.473  -0.081   0.035
    1UNL     C5    8   0.332  -0.058   0.065
    1UNL     O4    9   0.259  -0.025  -0.049
    1UNL     C6   10   0.127   0.017  -0.026
    1UNL     C7   11   0.068   0.049  -0.161
    1UNL     O5   12  -0.066   0.112  -0.157
    1UNL     C8   13  -0.175   0.024  -0.196
    1UNL     O6   14  -0.299   0.092  -0.185
    1UNL     C9   15  -0.304   0.207  -0.106
    1UNL    C10   16  -0.286   0.184   0.037
    1UNL    C11   17  -0.362   0.103   0.110
    1UNL    C12   18  -0.342   0.071   0.252
    1UNL    C13   19  -0.457   0.007   0.049
    1UNL    C14   20  -0.586  -0.011   0.121
    1UNL     O7   21  -0.626   0.077   0.188
    1UNL    C15   22  -0.658  -0.136   0.093
    1UNL    C16   23  -0.760  -0.183   0.164
    1UNL    C17   24  -0.835  -0.304   0.116
    1UNL    C18   25  -0.819  -0.100   0.267
    1UNL    C19   26  -0.149  -0.017  -0.338
    1UNL     O8   27  -0.170   0.095  -0.422
    1UNL    C20   28  -0.012  -0.087  -0.365
    1UNL     O9   29  -0.029  -0.223  -0.405
    1UNL    C21   30   0.088  -0.080  -0.243
    1UNL    O10   31   0.218  -0.074  -0.309
    1UNL    C22   32   0.320   0.042   0.172
    1UNL    O11   33   0.378  -0.006   0.292
    1UNL    C23   34   0.384   0.182   0.114
    1UNL    O12   35   0.482   0.232   0.205
    1UNL    C24   36   0.445   0.155  -0.035
    1UNL    O13   37   0.514   0.267  -0.084
    1UNL     H1   38   0.734  -0.331   0.255
    1UNL     H2   39   0.838  -0.304   0.109
    1UNL     H3   40   0.889  -0.230   0.265
    1UNL     H4   41   0.628   0.082   0.173
    1UNL     H5   42   0.723   0.142   0.027
    1UNL     H6   43   0.576  -0.005  -0.111
    1UNL     H7   44   0.297  -0.156   0.103
    1UNL     H8   45   0.060  -0.056   0.025
    1UNL     H9   46   0.120   0.109   0.029
    1UNL    H10   47   0.123   0.127  -0.210
    1UNL    H11   48  -0.189  -0.065  -0.134
    1UNL    H12   49  -0.231   0.279  -0.157
    1UNL    H13   50  -0.409   0.239  -0.108
    1UNL    H14   51  -0.209   0.235   0.094
    1UNL    H15   52  -0.235   0.064   0.280
    1UNL    H16   53  -0.399   0.145   0.314
    1UNL    H17   54  -0.398  -0.021   0.282
    1UNL    H18   55  -0.406  -0.084   0.035
    1UNL    H19   56  -0.488   0.041  -0.057
    1UNL    H20   57  -0.619  -0.205   0.020
    1UNL    H21   58  -0.869  -0.305   0.008
    1UNL    H22   59  -0.932  -0.318   0.170
    1UNL    H23   60  -0.781  -0.398   0.151
    1UNL    H24   61  -0.904  -0.146   0.326
    1UNL    H25   62  -0.857  -0.012   0.208
    1UNL    H26   63  -0.747  -0.064   0.337
    1UNL    H27   64  -0.220  -0.091  -0.366
    1UNL    H28   65  -0.236   0.157  -0.375
    1UNL    H29   66   0.037  -0.032  -0.445
    1UNL    H30   67   0.057  -0.264  -0.401
    1UNL    H31   68   0.085  -0.172  -0.182
    1UNL    H32   69   0.273  -0.119  -0.239
    1UNL    H33   70   0.215   0.065   0.196
    1UNL    H34   71   0.462  -0.047   0.271
    1UNL    H35   72   0.308   0.257   0.111
    1UNL    H36   73   0.467   0.206   0.297
    1UNL    H37   74   0.371   0.133  -0.103
    1UNL    H38   75   0.578   0.248  -0.157
   0.00000   0.00000   0.00000   0.00000   0.00000   0.00000   0.00000   0.00000   0.00000
Generated with MDTraj, t= 41.0
 75
    1UNL     C1    1   0.765  -0.266   0.196
    1UNL     C2    2   0.719  -0.129   0.192
    1UNL     O1    3   0.647  -0.091   0.282
    1UNL     O2    4   0.752  -0.054   0.084
    1UNL     C3    5   0.667   0.058   0.081
    1UNL     C4    6   0.539   0.033   0.003
    1UNL     O3    7   0.470  -0.085   0.054
    1UNL     C5    8   0.324  -0.065   0.078
    1UNL     O4    9   0.261  -0.038  -0.048
    1UNL     C6   10   0.138   0.034  -0.040
    1UNL     C7   11   0.066   0.043  -0.178
    1UNL     O5   12  -0.062   0.103  -0.160
    1UNL     C8   13  -0.170   0.012  -0.204
    1UNL     O6   14  -0.305   0.075  -0.195
    1UNL     C9   15  -0.298   0.197  -0.121
    1UNL    C10   16  -0.284   0.183   0.019
    1UNL    C11   17  -0.368   0.123   0.100
    1UNL    C12   18  -0.346   0.099   0.242
    1UNL    C13   19  -0.465   0.031   0.032
    1UNL    C14   20  -0.589  -0.000   0.120
    1UNL     O7   21  -0.612   0.072   0.212
    1UNL    C15   22  -0.660  -0.127   0.087
    1UNL    C16   23  -0.750  -0.193   0.164
    1UNL    C17   24  -0.817  -0.317   0.129
    1UNL    C18   25  -0.782  -0.136   0.300
    1UNL    C19   26  -0.161  -0.011  -0.353
    1UNL     O8   27  -0.180   0.113  -0.429
    1UNL    C20   28  -0.026  -0.082  -0.388
    1UNL     O9   29  -0.048  -0.211  -0.430
    1UNL    C21   30   0.079  -0.086  -0.264
    1UNL    O10   31   0.214  -0.106  -0.305
    1UNL    C22   32   0.316   0.053   0.179
    1UNL    O11   33   0.377   0.006   0.300
    1UNL    C23   34   0.391   0.181   0.123
    1UNL    O12   35   0.489   0.229   0.207
    1UNL    C24   36   0.453   0.161  -0.023
    1UNL    O13   37   0.520   0.283  -0.066
    1UNL     H1   38   0.871  -0.268   0.232
    1UNL     H2   39   0.702  -0.329   0.267
    1UNL     H3   40   0.758  -0.304   0.089
    1UNL     H4   41   0.632   0.080   0.187
    1UNL     H5   42   0.719   0.148   0.039
    1UNL     H6   43   0.568  -0.001  -0.096
    1UNL     H7   44   0.276  -0.153   0.123
    1UNL     H8   45   0.070  -0.012   0.035
    1UNL     H9   46   0.154   0.131   0.002
    1UNL    H10   47   0.127   0.123  -0.220
    1UNL    H11   48  -0.174  -0.081  -0.146
    1UNL    H12   49  -0.205   0.250  -0.160
    1UNL    H13   50  -0.387   0.250  -0.156
    1UNL    H14   51  -0.214   0.244   0.071
    1UNL    H15   52  -0.259   0.033   0.262
    1UNL    H16   53  -0.342   0.196   0.303
    1UNL    H17   54  -0.435   0.061   0.293
    1UNL    H18   55  -0.418  -0.059   0.003
    1UNL    H19   56  -0.509   0.080  -0.062
    1UNL    H20   57  -0.625  -0.175  -0.002
    1UNL    H21   58  -0.908  -0.297   0.066
    1UNL    H22   59  -0.849  -0.368   0.224
    1UNL    H23   60  -0.737  -0.378   0.076
    1UNL    H24   61  -0.790  -0.206   0.384
    1UNL    H25   62  -0.886  -0.086   0.297
    1UNL    H26   63  -0.714  -0.061   0.337
    1UNL    H27   64  -0.237  -0.077  -0.381
    1UNL    H28   65  -0.249   0.163  -0.380
    1UNL    H29   66   0.002  -0.033  -0.482
    1UNL    H30   67   0.037  -0.259  -0.448
    1UNL    H31   68   0.054  -0.186  -0.218
    1UNL    H32   69   0.277  -0.063  -0.241
    1UNL    H33   70   0.211   0.059   0.207
    1UNL    H34   71   0.470  -0.033   0.287
    1UNL    H35   72   0.319   0.256   0.115
    1UNL    H36   73   0.479   0.216   0.306
    1UNL    H37   74   0.381   0.140  -0.094
    1UNL    H38   75   0.563   0.262  -0.153
   0.00000   0.00000   0.00000   0.00000   0.00000   0.00000   0.00000   0.00000   0.00000
Generated with MDTraj, t= 42.0
 75
    1UNL     C1    1   0.769  -0.281   0.223
    1UNL     C2    2   0.706  -0.145   0.192
    1UNL     O1    3   0.624  -0.093   0.268
    1UNL     O2    4   0.745  -0.071   0.081
    1UNL     C3    5   0.672   0.048   0.079
    1UNL     C4    6   0.545   0.032  -0.007
    1UNL     O3    7   0.461  -0.068   0.053
    1UNL     C5    8   0.322  -0.033   0.070
    1UNL     O4    9   0.260  -0.001  -0.050
    1UNL     C6   10   0.119  -0.008  -0.041
    1UNL     C7   11   0.058   0.018  -0.185
    1UNL     O5   12  -0.071   0.085  -0.173
    1UNL     C8   13  -0.182   0.015  -0.228
    1UNL     O6   14  -0.308   0.084  -0.203
    1UNL     C9   15  -0.295   0.208  -0.130
    1UNL    C10   16  -0.287   0.199   0.017
    1UNL    C11   17  -0.371   0.134   0.097
    1UNL    C12   18  -0.335   0.114   0.243
    1UNL    C13   19  -0.485   0.060   0.034
    1UNL    C14   20  -0.589   0.004   0.133
    1UNL     O7   21  -0.615   0.072   0.233
    1UNL    C15   22  -0.643  -0.128   0.100
    1UNL    C16   23  -0.731  -0.199   0.178
    1UNL    C17   24  -0.804  -0.332   0.137
    1UNL    C18   25  -0.752  -0.172   0.324
    1UNL    C19   26  -0.154  -0.011  -0.374
    1UNL     O8   27  -0.172   0.114  -0.446
    1UNL    C20   28  -0.014  -0.084  -0.406
    1UNL     O9   29  -0.028  -0.195  -0.487
    1UNL    C21   30   0.054  -0.106  -0.267
    1UNL    O10   31   0.177  -0.158  -0.290
    1UNL    C22   32   0.311   0.080   0.175
    1UNL    O11   33   0.349   0.018   0.298
    1UNL    C23   34   0.407   0.200   0.136
    1UNL    O12   35   0.500   0.224   0.234
    1UNL    C24   36   0.471   0.178  -0.008
    1UNL    O13   37   0.554   0.295  -0.031
    1UNL     H1   38   0.740  -0.336   0.130
    1UNL     H2   39   0.882  -0.277   0.239
    1UNL     H3   40   0.720  -0.331   0.312
    1UNL     H4   41   0.646   0.074   0.185
    1UNL     H5   42   0.737   0.126   0.037
    1UNL     H6   43   0.564   0.008  -0.111
    1UNL     H7   44   0.271  -0.123   0.107
    1UNL     H8   45   0.080  -0.105  -0.005
    1UNL     H9   46   0.082   0.058   0.035
    1UNL    H10   47   0.120   0.102  -0.229
    1UNL    H11   48  -0.200  -0.081  -0.178
    1UNL    H12   49  -0.217   0.263  -0.189
    1UNL    H13   50  -0.389   0.255  -0.148
    1UNL    H14   51  -0.201   0.240   0.067
    1UNL    H15   52  -0.298   0.008   0.257
    1UNL    H16   53  -0.262   0.197   0.271
    1UNL    H17   54  -0.420   0.142   0.303
    1UNL    H18   55  -0.451  -0.028  -0.016
    1UNL    H19   56  -0.542   0.127  -0.033
    1UNL    H20   57  -0.627  -0.173   0.002
    1UNL    H21   58  -0.913  -0.315   0.111
    1UNL    H22   59  -0.800  -0.408   0.219
    1UNL    H23   60  -0.759  -0.359   0.036
    1UNL    H24   61  -0.695  -0.241   0.385
    1UNL    H25   62  -0.860  -0.175   0.359
    1UNL    H26   63  -0.703  -0.073   0.344
    1UNL    H27   64  -0.224  -0.081  -0.409
    1UNL    H28   65  -0.231   0.172  -0.399
    1UNL    H29   66   0.055  -0.014  -0.455
    1UNL    H30   67   0.063  -0.243  -0.492
    1UNL    H31   68   0.001  -0.194  -0.218
    1UNL    H32   69   0.237  -0.162  -0.210
    1UNL    H33   70   0.205   0.109   0.175
    1UNL    H34   71   0.447  -0.004   0.291
    1UNL    H35   72   0.351   0.286   0.125
    1UNL    H36   73   0.468   0.214   0.325
    1UNL    H37   74   0.397   0.180  -0.080
    1UNL    H38   75   0.571   0.305  -0.127
   0.00000   0.00000   0.00000   0.00000   0.00000   0.00000   0.00000   0.00000   0.00000
Generated with MDTraj, t= 43.0
 75
    1UNL     C1    1   0.755  -0.282   0.235
    1UNL     C2    2   0.690  -0.147   0.208
    1UNL     O1    3   0.611  -0.109   0.292
    1UNL     O2    4   0.724  -0.082   0.099
    1UNL     C3    5   0.663   0.045   0.097
    1UNL     C4    6   0.556   0.044  -0.006
    1UNL     O3    7   0.469  -0.066   0.026
    1UNL     C5    8   0.335  -0.028   0.049
    1UNL     O4    9   0.253   0.012  -0.061
    1UNL     C6   10   0.116   0.005  -0.039
    1UNL     C7   11   0.041   0.020  -0.175
    1UNL     O5   12  -0.096   0.070  -0.154
    1UNL     C8   13  -0.200   0.005  -0.236
    1UNL     O6   14  -0.324   0.082  -0.231
    1UNL     C9   15  -0.318   0.202  -0.155
    1UNL    C10   16  -0.283   0.171  -0.012
    1UNL    C11   17  -0.368   0.123   0.080
    1UNL    C12   18  -0.331   0.117   0.232
    1UNL    C13   19  -0.515   0.092   0.035
    1UNL    C14   20  -0.584   0.011   0.134
    1UNL     O7   21  -0.584   0.063   0.246
    1UNL    C15   22  -0.645  -0.117   0.101
    1UNL    C16   23  -0.705  -0.206   0.183
    1UNL    C17   24  -0.758  -0.338   0.144
    1UNL    C18   25  -0.708  -0.175   0.329
    1UNL    C19   26  -0.169  -0.011  -0.385
    1UNL     O8   27  -0.177   0.119  -0.456
    1UNL    C20   28  -0.021  -0.071  -0.408
    1UNL     O9   29  -0.016  -0.183  -0.489
    1UNL    C21   30   0.032  -0.104  -0.265
    1UNL    O10   31   0.161  -0.165  -0.280
    1UNL    C22   32   0.324   0.080   0.168
    1UNL    O11   33   0.349   0.019   0.296
    1UNL    C23   34   0.421   0.206   0.143
    1UNL    O12   35   0.519   0.215   0.247
    1UNL    C24   36   0.483   0.186   0.005
    1UNL    O13   37   0.570   0.294  -0.026
    1UNL     H1   38   0.711  -0.313   0.335
    1UNL     H2   39   0.716  -0.357   0.161
    1UNL     H3   40   0.866  -0.287   0.217
    1UNL     H4   41   0.628   0.070   0.198
    1UNL     H5   42   0.743   0.117   0.082
    1UNL     H6   43   0.603   0.030  -0.105
    1UNL     H7   44   0.292  -0.122   0.086
    1UNL     H8   45   0.079  -0.088   0.011
    1UNL     H9   46   0.082   0.081   0.028
    1UNL    H10   47   0.088   0.109  -0.232
    1UNL    H11   48  -0.219  -0.091  -0.187
    1UNL    H12   49  -0.232   0.262  -0.190
    1UNL    H13   50  -0.410   0.252  -0.166
    1UNL    H14   51  -0.180   0.179   0.018
    1UNL    H15   52  -0.337   0.010   0.267
    1UNL    H16   53  -0.228   0.162   0.245
    1UNL    H17   54  -0.390   0.188   0.290
    1UNL    H18   55  -0.515   0.032  -0.057
    1UNL    H19   56  -0.577   0.178   0.028
    1UNL    H20   57  -0.656  -0.140  -0.002
    1UNL    H21   58  -0.867  -0.337   0.113
    1UNL    H22   59  -0.747  -0.417   0.224
    1UNL    H23   60  -0.716  -0.364   0.042
    1UNL    H24   61  -0.605  -0.166   0.367
    1UNL    H25   62  -0.756  -0.249   0.394
    1UNL    H26   63  -0.748  -0.067   0.345
    1UNL    H27   64  -0.241  -0.072  -0.429
    1UNL    H28   65  -0.258   0.169  -0.423
    1UNL    H29   66   0.035   0.011  -0.457
    1UNL    H30   67   0.073  -0.229  -0.489
    1UNL    H31   68  -0.037  -0.179  -0.215
    1UNL    H32   69   0.220  -0.128  -0.207
    1UNL    H33   70   0.226   0.129   0.172
    1UNL    H34   71   0.439  -0.017   0.298
    1UNL    H35   72   0.368   0.295   0.140
    1UNL    H36   73   0.473   0.181   0.330
    1UNL    H37   74   0.407   0.179  -0.064
    1UNL    H38   75   0.578   0.311  -0.122
   0.00000   0.00000   0.00000   0.00000   0.00000   0.00000   0.00000   0.00000   0.00000
Generated with MDTraj, t= 44.0
 75
    1UNL     C1    1   0.727  -0.293   0.230
    1UNL     C2    2   0.681  -0.156   0.222
    1UNL     O1    3   0.599  -0.110   0.297
    1UNL     O2    4   0.731  -0.090   0.113
    1UNL     C3    5   0.669   0.035   0.103
    1UNL     C4    6   0.556   0.037   0.009
    1UNL     O3    7   0.463  -0.075   0.028
    1UNL     C5    8   0.329  -0.035   0.046
    1UNL     O4    9   0.259   0.015  -0.067
    1UNL     C6   10   0.120   0.036  -0.050
    1UNL     C7   11   0.029   0.044  -0.172
    1UNL     O5   12  -0.109   0.077  -0.144
    1UNL     C8   13  -0.206   0.001  -0.226
    1UNL     O6   14  -0.337   0.053  -0.225
    1UNL     C9   15  -0.343   0.185  -0.179
    1UNL    C10   16  -0.304   0.199  -0.033
    1UNL    C11   17  -0.381   0.140   0.060
    1UNL    C12   18  -0.315   0.109   0.187
    1UNL    C13   19  -0.531   0.113   0.038
    1UNL    C14   20  -0.584   0.025   0.149
    1UNL     O7   21  -0.588   0.079   0.257
    1UNL    C15   22  -0.619  -0.116   0.116
    1UNL    C16   23  -0.661  -0.219   0.190
    1UNL    C17   24  -0.716  -0.337   0.132
    1UNL    C18   25  -0.677  -0.204   0.335
    1UNL    C19   26  -0.168  -0.008  -0.376
    1UNL     O8   27  -0.162   0.119  -0.438
    1UNL    C20   28  -0.026  -0.077  -0.399
    1UNL     O9   29  -0.032  -0.203  -0.471
    1UNL    C21   30   0.043  -0.086  -0.259
    1UNL    O10   31   0.188  -0.106  -0.300
    1UNL    C22   32   0.318   0.071   0.163
    1UNL    O11   33   0.346   0.014   0.287
    1UNL    C23   34   0.406   0.198   0.134
    1UNL    O12   35   0.502   0.218   0.239
    1UNL    C24   36   0.480   0.173   0.003
    1UNL    O13   37   0.573   0.278  -0.032
    1UNL     H1   38   0.837  -0.307   0.208
    1UNL     H2   39   0.733  -0.320   0.340
    1UNL     H3   40   0.654  -0.365   0.184
    1UNL     H4   41   0.631   0.062   0.203
    1UNL     H5   42   0.741   0.113   0.090
    1UNL     H6   43   0.609   0.019  -0.087
    1UNL     H7   44   0.279  -0.126   0.079
    1UNL     H8   45   0.086  -0.044   0.018
    1UNL     H9   46   0.104   0.125   0.009
    1UNL    H10   47   0.075   0.121  -0.245
    1UNL    H11   48  -0.207  -0.099  -0.179
    1UNL    H12   49  -0.271   0.244  -0.239
    1UNL    H13   50  -0.440   0.222  -0.183
    1UNL    H14   51  -0.202   0.220  -0.007
    1UNL    H15   52  -0.349   0.013   0.233
    1UNL    H16   53  -0.206   0.095   0.173
    1UNL    H17   54  -0.311   0.190   0.264
    1UNL    H18   55  -0.546   0.070  -0.061
    1UNL    H19   56  -0.572   0.206   0.046
    1UNL    H20   57  -0.639  -0.127   0.010
    1UNL    H21   58  -0.820  -0.324   0.088
    1UNL    H22   59  -0.729  -0.428   0.199
    1UNL    H23   60  -0.663  -0.361   0.037
    1UNL    H24   61  -0.606  -0.123   0.377
    1UNL    H25   62  -0.653  -0.290   0.396
    1UNL    H26   63  -0.774  -0.155   0.366
    1UNL    H27   64  -0.239  -0.074  -0.423
    1UNL    H28   65  -0.256   0.148  -0.450
    1UNL    H29   66   0.042  -0.011  -0.459
    1UNL    H30   67   0.057  -0.236  -0.479
    1UNL    H31   68   0.007  -0.176  -0.202
    1UNL    H32   69   0.249  -0.069  -0.227
    1UNL    H33   70   0.225   0.125   0.175
    1UNL    H34   71   0.435  -0.030   0.281
    1UNL    H35   72   0.347   0.284   0.127
    1UNL    H36   73   0.449   0.215   0.319
    1UNL    H37   74   0.408   0.158  -0.068
    1UNL    H38   75   0.653   0.283   0.024
   0.00000   0.00000   0.00000   0.00000   0.00000   0.00000   0.00000   0.00000   0.00000
Generated with MDTraj, t= 45.0
 75
    1UNL     C1    1   0.711  -0.319   0.235
    1UNL     C2    2   0.664  -0.175   0.216
    1UNL     O1    3   0.587  -0.121   0.290
    1UNL     O2    4   0.707  -0.112   0.103
    1UNL     C3    5   0.660   0.020   0.099
    1UNL     C4    6   0.538   0.030   0.010
    1UNL     O3    7   0.432  -0.063   0.037
    1UNL     C5    8   0.298  -0.022   0.052
    1UNL     O4    9   0.249   0.022  -0.070
    1UNL     C6   10   0.112   0.046  -0.061
    1UNL     C7   11   0.039   0.055  -0.190
    1UNL     O5   12  -0.097   0.071  -0.157
    1UNL     C8   13  -0.192   0.001  -0.240
    1UNL     O6   14  -0.326   0.037  -0.216
    1UNL     C9   15  -0.326   0.167  -0.169
    1UNL    C10   16  -0.289   0.178  -0.022
    1UNL    C11   17  -0.376   0.155   0.078
    1UNL    C12   18  -0.329   0.185   0.214
    1UNL    C13   19  -0.517   0.117   0.042
    1UNL    C14   20  -0.575   0.020   0.146
    1UNL     O7   21  -0.588   0.059   0.257
    1UNL    C15   22  -0.620  -0.115   0.103
    1UNL    C16   23  -0.637  -0.218   0.187
    1UNL    C17   24  -0.667  -0.365   0.145
    1UNL    C18   25  -0.642  -0.203   0.334
    1UNL    C19   26  -0.151  -0.002  -0.388
    1UNL     O8   27  -0.143   0.127  -0.444
    1UNL    C20   28  -0.021  -0.085  -0.402
    1UNL     O9   29  -0.045  -0.221  -0.424
    1UNL    C21   30   0.065  -0.069  -0.280
    1UNL    O10   31   0.208  -0.063  -0.316
    1UNL    C22   32   0.300   0.083   0.168
    1UNL    O11   33   0.340   0.028   0.285
    1UNL    C23   34   0.391   0.201   0.131
    1UNL    O12   35   0.480   0.225   0.237
    1UNL    C24   36   0.469   0.163   0.001
    1UNL    O13   37   0.569   0.261  -0.029
    1UNL     H1   38   0.645  -0.408   0.215
    1UNL     H2   39   0.797  -0.342   0.164
    1UNL     H3   40   0.747  -0.329   0.338
    1UNL     H4   41   0.633   0.062   0.196
    1UNL     H5   42   0.740   0.081   0.066
    1UNL     H6   43   0.577   0.005  -0.091
    1UNL     H7   44   0.232  -0.106   0.074
    1UNL     H8   45   0.069  -0.037  -0.000
    1UNL     H9   46   0.094   0.133  -0.002
    1UNL    H10   47   0.071   0.140  -0.260
    1UNL    H11   48  -0.183  -0.104  -0.207
    1UNL    H12   49  -0.253   0.230  -0.224
    1UNL    H13   50  -0.423   0.207  -0.179
    1UNL    H14   51  -0.188   0.211   0.001
    1UNL    H15   52  -0.391   0.140   0.294
    1UNL    H16   53  -0.231   0.139   0.229
    1UNL    H17   54  -0.310   0.296   0.235
    1UNL    H18   55  -0.512   0.069  -0.055
    1UNL    H19   56  -0.571   0.206   0.038
    1UNL    H20   57  -0.636  -0.139  -0.001
    1UNL    H21   58  -0.745  -0.375   0.063
    1UNL    H22   59  -0.707  -0.428   0.232
    1UNL    H23   60  -0.575  -0.410   0.101
    1UNL    H24   61  -0.679  -0.099   0.367
    1UNL    H25   62  -0.545  -0.230   0.381
    1UNL    H26   63  -0.726  -0.261   0.377
    1UNL    H27   64  -0.222  -0.057  -0.451
    1UNL    H28   65  -0.233   0.160  -0.452
    1UNL    H29   66   0.034  -0.041  -0.489
    1UNL    H30   67   0.041  -0.257  -0.412
    1UNL    H31   68   0.038  -0.157  -0.218
    1UNL    H32   69   0.249  -0.043  -0.236
    1UNL    H33   70   0.200   0.122   0.182
    1UNL    H34   71   0.417  -0.032   0.270
    1UNL    H35   72   0.333   0.287   0.118
    1UNL    H36   73   0.432   0.216   0.326
    1UNL    H37   74   0.394   0.160  -0.069
    1UNL    H38   75   0.575   0.342   0.030
   0.00000   0.00000   0.00000   0.00000   0.00000   0.00000   0.00000   0.00000   0.00000
Generated with MDTraj, t= 46.0
 75
    1UNL     C1    1   0.677  -0.322   0.227
    1UNL     C2    2   0.639  -0.182   0.208
    1UNL     O1    3   0.560  -0.136   0.286
    1UNL     O2    4   0.694  -0.114   0.099
    1UNL     C3    5   0.645   0.014   0.095
    1UNL     C4    6   0.522   0.027   0.006
    1UNL     O3    7   0.432  -0.074   0.047
    1UNL     C5    8   0.298  -0.029   0.056
    1UNL     O4    9   0.247   0.009  -0.070
    1UNL     C6   10   0.107   0.050  -0.068
    1UNL     C7   11   0.049   0.066  -0.202
    1UNL     O5   12  -0.089   0.101  -0.179
    1UNL     C8   13  -0.181   0.013  -0.235
    1UNL     O6   14  -0.316   0.052  -0.215
    1UNL     C9   15  -0.343   0.186  -0.171
    1UNL    C10   16  -0.319   0.210  -0.027
    1UNL    C11   17  -0.404   0.184   0.074
    1UNL    C12   18  -0.371   0.217   0.216
    1UNL    C13   19  -0.529   0.116   0.049
    1UNL    C14   20  -0.561   0.013   0.155
    1UNL     O7   21  -0.593   0.050   0.265
    1UNL    C15   22  -0.569  -0.132   0.116
    1UNL    C16   23  -0.592  -0.236   0.195
    1UNL    C17   24  -0.632  -0.374   0.143
    1UNL    C18   25  -0.623  -0.214   0.342
    1UNL    C19   26  -0.149  -0.013  -0.390
    1UNL     O8   27  -0.132   0.118  -0.444
    1UNL    C20   28  -0.010  -0.098  -0.399
    1UNL     O9   29  -0.038  -0.231  -0.423
    1UNL    C21   30   0.084  -0.071  -0.279
    1UNL    O10   31   0.215  -0.073  -0.327
    1UNL    C22   32   0.300   0.088   0.168
    1UNL    O11   33   0.342   0.041   0.297
    1UNL    C23   34   0.397   0.205   0.134
    1UNL    O12   35   0.491   0.213   0.233
    1UNL    C24   36   0.467   0.169   0.001
    1UNL    O13   37   0.570   0.263  -0.017
    1UNL     H1   38   0.741  -0.337   0.317
    1UNL     H2   39   0.583  -0.382   0.237
    1UNL     H3   40   0.739  -0.350   0.141
    1UNL     H4   41   0.627   0.045   0.199
    1UNL     H5   42   0.722   0.075   0.051
    1UNL     H6   43   0.552   0.006  -0.097
    1UNL     H7   44   0.228  -0.107   0.091
    1UNL     H8   45   0.041  -0.025  -0.015
    1UNL     H9   46   0.103   0.141  -0.011
    1UNL    H10   47   0.104   0.146  -0.261
    1UNL    H11   48  -0.174  -0.084  -0.183
    1UNL    H12   49  -0.270   0.248  -0.231
    1UNL    H13   50  -0.439   0.217  -0.204
    1UNL    H14   51  -0.224   0.251  -0.004
    1UNL    H15   52  -0.471   0.220   0.264
    1UNL    H16   53  -0.313   0.135   0.254
    1UNL    H17   54  -0.319   0.319   0.225
    1UNL    H18   55  -0.517   0.062  -0.042
    1UNL    H19   56  -0.614   0.185   0.048
    1UNL    H20   57  -0.556  -0.162   0.013
    1UNL    H21   58  -0.674  -0.365   0.038
    1UNL    H22   59  -0.720  -0.403   0.209
    1UNL    H23   60  -0.548  -0.447   0.161
    1UNL    H24   61  -0.732  -0.199   0.361
    1UNL    H25   62  -0.546  -0.142   0.391
    1UNL    H26   63  -0.606  -0.313   0.385
    1UNL    H27   64  -0.236  -0.061  -0.442
    1UNL    H28   65  -0.215   0.163  -0.436
    1UNL    H29   66   0.044  -0.063  -0.490
    1UNL    H30   67   0.043  -0.285  -0.407
    1UNL    H31   68   0.069  -0.150  -0.205
    1UNL    H32   69   0.284  -0.064  -0.248
    1UNL    H33   70   0.196   0.113   0.184
    1UNL    H34   71   0.416  -0.020   0.288
    1UNL    H35   72   0.353   0.303   0.125
    1UNL    H36   73   0.451   0.205   0.320
    1UNL    H37   74   0.388   0.180  -0.064
    1UNL    H38   75   0.540   0.357  -0.011
   0.00000   0.00000   0.00000   0.00000   0.00000   0.00000   0.00000   0.00000   0.00000
Generated with MDTraj, t= 47.0
 75
    1UNL     C1    1   0.642  -0.336   0.210
    1UNL     C2    2   0.639  -0.185   0.214
    1UNL     O1    3   0.565  -0.134   0.297
    1UNL     O2    4   0.715  -0.119   0.124
    1UNL     C3    5   0.659   0.010   0.106
    1UNL     C4    6   0.536   0.013   0.007
    1UNL     O3    7   0.433  -0.087   0.038
    1UNL     C5    8   0.302  -0.020   0.057
    1UNL     O4    9   0.252   0.038  -0.063
    1UNL     C6   10   0.115   0.084  -0.056
    1UNL     C7   11   0.046   0.078  -0.193
    1UNL     O5   12  -0.092   0.131  -0.192
    1UNL     C8   13  -0.189   0.033  -0.228
    1UNL     O6   14  -0.331   0.056  -0.217
    1UNL     C9   15  -0.357   0.196  -0.185
    1UNL    C10   16  -0.336   0.234  -0.043
    1UNL    C11   17  -0.407   0.188   0.057
    1UNL    C12   18  -0.380   0.223   0.196
    1UNL    C13   19  -0.517   0.098   0.024
    1UNL    C14   20  -0.554   0.001   0.140
    1UNL     O7   21  -0.566   0.047   0.253
    1UNL    C15   22  -0.570  -0.140   0.109
    1UNL    C16   23  -0.582  -0.239   0.196
    1UNL    C17   24  -0.547  -0.382   0.149
    1UNL    C18   25  -0.617  -0.219   0.338
    1UNL    C19   26  -0.170  -0.012  -0.375
    1UNL     O8   27  -0.182   0.094  -0.457
    1UNL    C20   28  -0.023  -0.079  -0.393
    1UNL     O9   29  -0.040  -0.210  -0.433
    1UNL    C21   30   0.061  -0.068  -0.263
    1UNL    O10   31   0.192  -0.110  -0.271
    1UNL    C22   32   0.309   0.081   0.166
    1UNL    O11   33   0.322   0.030   0.294
    1UNL    C23   34   0.412   0.195   0.137
    1UNL    O12   35   0.498   0.205   0.247
    1UNL    C24   36   0.478   0.161  -0.000
    1UNL    O13   37   0.568   0.264  -0.036
    1UNL     H1   38   0.671  -0.362   0.106
    1UNL     H2   39   0.706  -0.389   0.282
    1UNL     H3   40   0.539  -0.368   0.234
    1UNL     H4   41   0.617   0.042   0.205
    1UNL     H5   42   0.745   0.071   0.071
    1UNL     H6   43   0.571  -0.011  -0.093
    1UNL     H7   44   0.238  -0.106   0.087
    1UNL     H8   45   0.062   0.013   0.013
    1UNL     H9   46   0.104   0.185  -0.020
    1UNL    H10   47   0.106   0.149  -0.255
    1UNL    H11   48  -0.171  -0.046  -0.153
    1UNL    H12   49  -0.300   0.257  -0.262
    1UNL    H13   50  -0.457   0.212  -0.222
    1UNL    H14   51  -0.257   0.303  -0.014
    1UNL    H15   52  -0.472   0.211   0.256
    1UNL    H16   53  -0.306   0.151   0.235
    1UNL    H17   54  -0.348   0.330   0.205
    1UNL    H18   55  -0.490   0.039  -0.057
    1UNL    H19   56  -0.599   0.170  -0.001
    1UNL    H20   57  -0.548  -0.169   0.007
    1UNL    H21   58  -0.543  -0.399   0.036
    1UNL    H22   59  -0.629  -0.452   0.181
    1UNL    H23   60  -0.461  -0.424   0.211
    1UNL    H24   61  -0.688  -0.290   0.382
    1UNL    H25   62  -0.644  -0.111   0.367
    1UNL    H26   63  -0.520  -0.229   0.393
    1UNL    H27   64  -0.244  -0.096  -0.400
    1UNL    H28   65  -0.272   0.123  -0.463
    1UNL    H29   66   0.036  -0.032  -0.473
    1UNL    H30   67   0.034  -0.274  -0.401
    1UNL    H31   68   0.020  -0.138  -0.192
    1UNL    H32   69   0.251  -0.072  -0.205
    1UNL    H33   70   0.209   0.123   0.173
    1UNL    H34   71   0.410  -0.020   0.303
    1UNL    H35   72   0.369   0.295   0.128
    1UNL    H36   73   0.447   0.183   0.333
    1UNL    H37   74   0.406   0.158  -0.073
    1UNL    H38   75   0.659   0.267  -0.001
   0.00000   0.00000   0.00000   0.00000   0.00000   0.00000   0.00000   0.00000   0.00000
Generated with MDTraj, t= 48.0
 75
    1UNL     C1    1   0.648  -0.356   0.227
    1UNL     C2    2   0.620  -0.209   0.217
    1UNL     O1    3   0.565  -0.145   0.307
    1UNL     O2    4   0.664  -0.150   0.102
    1UNL     C3    5   0.643  -0.012   0.091
    1UNL     C4    6   0.531   0.025  -0.009
    1UNL     O3    7   0.421  -0.067   0.023
    1UNL     C5    8   0.292  -0.003   0.057
    1UNL     O4    9   0.240   0.062  -0.059
    1UNL     C6   10   0.101   0.073  -0.046
    1UNL     C7   11   0.031   0.064  -0.180
    1UNL     O5   12  -0.113   0.097  -0.163
    1UNL     C8   13  -0.220   0.019  -0.220
    1UNL     O6   14  -0.345   0.092  -0.230
    1UNL     C9   15  -0.326   0.231  -0.188
    1UNL    C10   16  -0.323   0.257  -0.043
    1UNL    C11   17  -0.398   0.198   0.048
    1UNL    C12   18  -0.383   0.239   0.185
    1UNL    C13   19  -0.493   0.090   0.005
    1UNL    C14   20  -0.523  -0.007   0.118
    1UNL     O7   21  -0.595   0.027   0.212
    1UNL    C15   22  -0.484  -0.149   0.108
    1UNL    C16   23  -0.528  -0.243   0.191
    1UNL    C17   24  -0.518  -0.386   0.157
    1UNL    C18   25  -0.594  -0.206   0.324
    1UNL    C19   26  -0.189  -0.032  -0.363
    1UNL     O8   27  -0.228   0.056  -0.453
    1UNL    C20   28  -0.036  -0.075  -0.383
    1UNL     O9   29  -0.027  -0.195  -0.454
    1UNL    C21   30   0.038  -0.075  -0.245
    1UNL    O10   31   0.169  -0.120  -0.255
    1UNL    C22   32   0.304   0.100   0.171
    1UNL    O11   33   0.326   0.039   0.291
    1UNL    C23   34   0.426   0.206   0.140
    1UNL    O12   35   0.515   0.222   0.257
    1UNL    C24   36   0.499   0.181   0.005
    1UNL    O13   37   0.608   0.270  -0.000
    1UNL     H1   38   0.546  -0.397   0.246
    1UNL     H2   39   0.669  -0.400   0.131
    1UNL     H3   40   0.728  -0.374   0.302
    1UNL     H4   41   0.612   0.014   0.197
    1UNL     H5   42   0.734   0.042   0.057
    1UNL     H6   43   0.557   0.001  -0.112
    1UNL     H7   44   0.234  -0.093   0.086
    1UNL     H8   45   0.044   0.004   0.026
    1UNL     H9   46   0.095   0.177  -0.019
    1UNL    H10   47   0.071   0.137  -0.252
    1UNL    H11   48  -0.242  -0.056  -0.143
    1UNL    H12   49  -0.238   0.274  -0.247
    1UNL    H13   50  -0.410   0.284  -0.235
    1UNL    H14   51  -0.255   0.331  -0.010
    1UNL    H15   52  -0.460   0.195   0.250
    1UNL    H16   53  -0.288   0.200   0.233
    1UNL    H17   54  -0.394   0.346   0.206
    1UNL    H18   55  -0.456   0.037  -0.079
    1UNL    H19   56  -0.593   0.136  -0.020
    1UNL    H20   57  -0.424  -0.172   0.022
    1UNL    H21   58  -0.535  -0.413   0.048
    1UNL    H22   59  -0.585  -0.464   0.203
    1UNL    H23   60  -0.420  -0.426   0.203
    1UNL    H24   61  -0.574  -0.286   0.396
    1UNL    H25   62  -0.703  -0.189   0.327
    1UNL    H26   63  -0.552  -0.112   0.376
    1UNL    H27   64  -0.257  -0.124  -0.386
    1UNL    H28   65  -0.327   0.074  -0.446
    1UNL    H29   66   0.002   0.007  -0.444
    1UNL    H30   67   0.062  -0.234  -0.445
    1UNL    H31   68  -0.017  -0.132  -0.173
    1UNL    H32   69   0.235  -0.102  -0.185
    1UNL    H33   70   0.208   0.152   0.179
    1UNL    H34   71   0.406  -0.017   0.301
    1UNL    H35   72   0.373   0.303   0.119
    1UNL    H36   73   0.465   0.200   0.336
    1UNL    H37   74   0.433   0.197  -0.071
    1UNL    H38   75   0.630   0.276   0.096
   0.00000   0.00000   0.00000   0.00000   0.00000   0.00000   0.00000   0.00000   0.00000
Generated with MDTraj, t= 49.0
 75
    1UNL     C1    1   0.636  -0.350   0.229
    1UNL     C2    2   0.605  -0.204   0.205
    1UNL     O1    3   0.529  -0.155   0.286
    1UNL     O2    4   0.664  -0.157   0.095
    1UNL     C3    5   0.647  -0.020   0.084
    1UNL     C4    6   0.523   0.021  -0.005
    1UNL     O3    7   0.414  -0.064   0.033
    1UNL     C5    8   0.290   0.006   0.068
    1UNL     O4    9   0.211   0.057  -0.042
    1UNL     C6   10   0.067   0.061  -0.028
    1UNL     C7   11   0.010   0.063  -0.175
    1UNL     O5   12  -0.124   0.118  -0.189
    1UNL     C8   13  -0.231   0.032  -0.215
    1UNL     O6   14  -0.352   0.103  -0.234
    1UNL     C9   15  -0.341   0.238  -0.204
    1UNL    C10   16  -0.324   0.266  -0.058
    1UNL    C11   17  -0.394   0.201   0.037
    1UNL    C12   18  -0.363   0.245   0.181
    1UNL    C13   19  -0.492   0.092   0.004
    1UNL    C14   20  -0.528  -0.012   0.106
    1UNL     O7   21  -0.597   0.025   0.197
    1UNL    C15   22  -0.483  -0.150   0.094
    1UNL    C16   23  -0.509  -0.244   0.184
    1UNL    C17   24  -0.424  -0.367   0.173
    1UNL    C18   25  -0.582  -0.227   0.308
    1UNL    C19   26  -0.202  -0.040  -0.356
    1UNL     O8   27  -0.247   0.045  -0.461
    1UNL    C20   28  -0.048  -0.080  -0.376
    1UNL     O9   29  -0.026  -0.204  -0.435
    1UNL    C21   30   0.022  -0.083  -0.239
    1UNL    O10   31   0.167  -0.106  -0.268
    1UNL    C22   32   0.313   0.108   0.186
    1UNL    O11   33   0.340   0.041   0.305
    1UNL    C23   34   0.434   0.210   0.151
    1UNL    O12   35   0.531   0.223   0.258
    1UNL    C24   36   0.509   0.182   0.018
    1UNL    O13   37   0.647   0.248   0.021
    1UNL     H1   38   0.709  -0.365   0.309
    1UNL     H2   39   0.549  -0.394   0.278
    1UNL     H3   40   0.668  -0.396   0.133
    1UNL     H4   41   0.623   0.030   0.182
    1UNL     H5   42   0.741   0.020   0.040
    1UNL     H6   43   0.548  -0.007  -0.106
    1UNL     H7   44   0.237  -0.078   0.119
    1UNL     H8   45   0.042  -0.042   0.010
    1UNL     H9   46   0.035   0.143   0.033
    1UNL    H10   47   0.065   0.130  -0.238
    1UNL    H11   48  -0.234  -0.038  -0.130
    1UNL    H12   49  -0.248   0.274  -0.255
    1UNL    H13   50  -0.424   0.297  -0.246
    1UNL    H14   51  -0.247   0.340  -0.034
    1UNL    H15   52  -0.411   0.163   0.237
    1UNL    H16   53  -0.254   0.247   0.213
    1UNL    H17   54  -0.419   0.333   0.210
    1UNL    H18   55  -0.443   0.036  -0.083
    1UNL    H19   56  -0.589   0.131  -0.036
    1UNL    H20   57  -0.426  -0.186   0.009
    1UNL    H21   58  -0.440  -0.430   0.081
    1UNL    H22   59  -0.420  -0.439   0.258
    1UNL    H23   60  -0.320  -0.319   0.184
    1UNL    H24   61  -0.499  -0.206   0.384
    1UNL    H25   62  -0.630  -0.319   0.335
    1UNL    H26   63  -0.655  -0.139   0.310
    1UNL    H27   64  -0.252  -0.146  -0.365
    1UNL    H28   65  -0.341   0.067  -0.449
    1UNL    H29   66  -0.001  -0.003  -0.436
    1UNL    H30   67   0.068  -0.216  -0.437
    1UNL    H31   68  -0.011  -0.156  -0.169
    1UNL    H32   69   0.234  -0.064  -0.204
    1UNL    H33   70   0.222   0.169   0.211
    1UNL    H34   71   0.406  -0.028   0.284
    1UNL    H35   72   0.392   0.314   0.127
    1UNL    H36   73   0.489   0.190   0.345
    1UNL    H37   74   0.477   0.235  -0.064
    1UNL    H38   75   0.659   0.271   0.116
   0.00000   0.00000   0.00000   0.00000   0.00000   0.00000   0.00000   0.00000   0.00000
Generated with MDTraj, t= 50.0
 75
    1UNL     C1    1   0.597  -0.378   0.194
    1UNL     C2    2   0.599  -0.232   0.213
    1UNL     O1    3   0.538  -0.178   0.301
    1UNL     O2    4   0.669  -0.160   0.114
    1UNL     C3    5   0.646  -0.020   0.101
    1UNL     C4    6   0.513   0.012   0.020
    1UNL     O3    7   0.400  -0.060   0.071
    1UNL     C5    8   0.283   0.020   0.075
    1UNL     O4    9   0.235   0.071  -0.051
    1UNL     C6   10   0.089   0.105  -0.055
    1UNL     C7   11   0.022   0.084  -0.191
    1UNL     O5   12  -0.109   0.138  -0.204
    1UNL     C8   13  -0.214   0.043  -0.227
    1UNL     O6   14  -0.353   0.087  -0.238
    1UNL     C9   15  -0.370   0.223  -0.209
    1UNL    C10   16  -0.341   0.244  -0.058
    1UNL    C11   17  -0.418   0.192   0.042
    1UNL    C12   18  -0.372   0.213   0.184
    1UNL    C13   19  -0.529   0.097   0.010
    1UNL    C14   20  -0.533  -0.001   0.126
    1UNL     O7   21  -0.609   0.013   0.214
    1UNL    C15   22  -0.438  -0.107   0.120
    1UNL    C16   23  -0.450  -0.220   0.191
    1UNL    C17   24  -0.362  -0.333   0.154
    1UNL    C18   25  -0.560  -0.239   0.287
    1UNL    C19   26  -0.186  -0.034  -0.359
    1UNL     O8   27  -0.231   0.046  -0.476
    1UNL    C20   28  -0.038  -0.083  -0.368
    1UNL     O9   29  -0.030  -0.218  -0.409
    1UNL    C21   30   0.037  -0.063  -0.243
    1UNL    O10   31   0.175  -0.110  -0.261
    1UNL    C22   32   0.301   0.129   0.197
    1UNL    O11   33   0.315   0.049   0.310
    1UNL    C23   34   0.431   0.207   0.150
    1UNL    O12   35   0.538   0.188   0.250
    1UNL    C24   36   0.478   0.166   0.012
    1UNL    O13   37   0.590   0.248  -0.031
    1UNL     H1   38   0.624  -0.411   0.095
    1UNL     H2   39   0.679  -0.421   0.254
    1UNL     H3   40   0.497  -0.418   0.209
    1UNL     H4   41   0.646   0.023   0.203
    1UNL     H5   42   0.727   0.032   0.049
    1UNL     H6   43   0.522  -0.037  -0.078
    1UNL     H7   44   0.206  -0.051   0.109
    1UNL     H8   45   0.035   0.050   0.025
    1UNL     H9   46   0.082   0.211  -0.040
    1UNL    H10   47   0.082   0.138  -0.260
    1UNL    H11   48  -0.217  -0.023  -0.138
    1UNL    H12   49  -0.310   0.294  -0.268
    1UNL    H13   50  -0.475   0.249  -0.228
    1UNL    H14   51  -0.245   0.288  -0.041
    1UNL    H15   52  -0.417   0.133   0.246
    1UNL    H16   53  -0.260   0.198   0.189
    1UNL    H17   54  -0.404   0.309   0.221
    1UNL    H18   55  -0.521   0.044  -0.094
    1UNL    H19   56  -0.619   0.163   0.004
    1UNL    H20   57  -0.361  -0.101   0.047
    1UNL    H21   58  -0.411  -0.407   0.085
    1UNL    H22   59  -0.341  -0.386   0.251
    1UNL    H23   60  -0.271  -0.277   0.116
    1UNL    H24   61  -0.584  -0.135   0.332
    1UNL    H25   62  -0.525  -0.297   0.373
    1UNL    H26   63  -0.655  -0.278   0.247
    1UNL    H27   64  -0.252  -0.130  -0.347
    1UNL    H28   65  -0.327   0.063  -0.453
    1UNL    H29   66   0.001  -0.022  -0.449
    1UNL    H30   67   0.065  -0.244  -0.411
    1UNL    H31   68  -0.006  -0.131  -0.170
    1UNL    H32   69   0.225  -0.084  -0.183
    1UNL    H33   70   0.213   0.197   0.211
    1UNL    H34   71   0.375  -0.032   0.292
    1UNL    H35   72   0.395   0.317   0.155
    1UNL    H36   73   0.493   0.171   0.332
    1UNL    H37   74   0.402   0.183  -0.054
    1UNL    H38   75   0.641   0.260   0.051
   0.00000   0.00000   0.00000   0.00000   0.00000   0.00000   0.00000   0.00000   0.00000
Generated with MDTraj, t= 51.0
 75
    1UNL     C1    1   0.565  -0.376   0.204
    1UNL     C2    2   0.559  -0.225   0.206
    1UNL     O1    3   0.494  -0.171   0.289
    1UNL     O2    4   0.630  -0.173   0.102
    1UNL     C3    5   0.604  -0.030   0.084
    1UNL     C4    6   0.483   0.009  -0.008
    1UNL     O3    7   0.368  -0.068   0.027
    1UNL     C5    8   0.252   0.009   0.061
    1UNL     O4    9   0.223   0.093  -0.048
    1UNL     C6   10   0.087   0.126  -0.050
    1UNL     C7   11   0.042   0.093  -0.190
    1UNL     O5   12  -0.095   0.133  -0.201
    1UNL     C8   13  -0.194   0.032  -0.224
    1UNL     O6   14  -0.333   0.071  -0.213
    1UNL     C9   15  -0.346   0.209  -0.177
    1UNL    C10   16  -0.316   0.244  -0.034
    1UNL    C11   17  -0.400   0.206   0.063
    1UNL    C12   18  -0.377   0.262   0.197
    1UNL    C13   19  -0.526   0.122   0.035
    1UNL    C14   20  -0.534  -0.000   0.121
    1UNL     O7   21  -0.615  -0.016   0.209
    1UNL    C15   22  -0.429  -0.107   0.105
    1UNL    C16   23  -0.418  -0.221   0.181
    1UNL    C17   24  -0.297  -0.302   0.160
    1UNL    C18   25  -0.526  -0.269   0.278
    1UNL    C19   26  -0.161  -0.038  -0.354
    1UNL     O8   27  -0.180   0.047  -0.468
    1UNL    C20   28  -0.011  -0.091  -0.352
    1UNL     O9   29  -0.014  -0.229  -0.379
    1UNL    C21   30   0.063  -0.056  -0.226
    1UNL    O10   31   0.201  -0.095  -0.248
    1UNL    C22   32   0.278   0.106   0.181
    1UNL    O11   33   0.304   0.039   0.294
    1UNL    C23   34   0.391   0.203   0.130
    1UNL    O12   35   0.505   0.213   0.225
    1UNL    C24   36   0.457   0.163  -0.007
    1UNL    O13   37   0.582   0.223  -0.023
    1UNL     H1   38   0.475  -0.427   0.232
    1UNL     H2   39   0.592  -0.409   0.103
    1UNL     H3   40   0.632  -0.416   0.277
    1UNL     H4   41   0.591   0.012   0.185
    1UNL     H5   42   0.700   0.007   0.052
    1UNL     H6   43   0.503  -0.035  -0.108
    1UNL     H7   44   0.169  -0.063   0.074
    1UNL     H8   45   0.029   0.059   0.018
    1UNL     H9   46   0.077   0.231  -0.026
    1UNL    H10   47   0.099   0.154  -0.253
    1UNL    H11   48  -0.187  -0.041  -0.142
    1UNL    H12   49  -0.289   0.267  -0.247
    1UNL    H13   50  -0.449   0.239  -0.204
    1UNL    H14   51  -0.233   0.307  -0.003
    1UNL    H15   52  -0.469   0.267   0.260
    1UNL    H16   53  -0.312   0.199   0.259
    1UNL    H17   54  -0.338   0.365   0.200
    1UNL    H18   55  -0.525   0.115  -0.079
    1UNL    H19   56  -0.610   0.191   0.062
    1UNL    H20   57  -0.350  -0.084   0.034
    1UNL    H21   58  -0.311  -0.385   0.085
    1UNL    H22   59  -0.293  -0.360   0.258
    1UNL    H23   60  -0.213  -0.232   0.134
    1UNL    H24   61  -0.612  -0.197   0.281
    1UNL    H25   62  -0.486  -0.264   0.386
    1UNL    H26   63  -0.571  -0.366   0.261
    1UNL    H27   64  -0.220  -0.138  -0.365
    1UNL    H28   65  -0.277   0.074  -0.472
    1UNL    H29   66   0.043  -0.045  -0.437
    1UNL    H30   67   0.083  -0.259  -0.369
    1UNL    H31   68   0.015  -0.114  -0.145
    1UNL    H32   69   0.251  -0.096  -0.157
    1UNL    H33   70   0.187   0.171   0.198
    1UNL    H34   71   0.370  -0.034   0.279
    1UNL    H35   72   0.359   0.312   0.134
    1UNL    H36   73   0.485   0.191   0.322
    1UNL    H37   74   0.403   0.193  -0.088
    1UNL    H38   75   0.616   0.262   0.061
   0.00000   0.00000   0.00000   0.00000   0.00000   0.00000   0.00000   0.00000   0.00000
Generated with MDTraj, t= 52.0
 75
    1UNL     C1    1   0.540  -0.389   0.216
    1UNL     C2    2   0.531  -0.244   0.192
    1UNL     O1    3   0.463  -0.184   0.270
    1UNL     O2    4   0.598  -0.198   0.078
    1UNL     C3    5   0.600  -0.055   0.074
    1UNL     C4    6   0.479   0.009   0.002
    1UNL     O3    7   0.358  -0.060   0.036
    1UNL     C5    8   0.244   0.031   0.055
    1UNL     O4    9   0.221   0.109  -0.059
    1UNL     C6   10   0.087   0.147  -0.075
    1UNL     C7   11   0.032   0.100  -0.211
    1UNL     O5   12  -0.112   0.140  -0.218
    1UNL     C8   13  -0.202   0.025  -0.215
    1UNL     O6   14  -0.336   0.061  -0.196
    1UNL     C9   15  -0.350   0.200  -0.177
    1UNL    C10   16  -0.321   0.242  -0.037
    1UNL    C11   17  -0.401   0.210   0.065
    1UNL    C12   18  -0.377   0.246   0.205
    1UNL    C13   19  -0.527   0.115   0.044
    1UNL    C14   20  -0.513  -0.003   0.123
    1UNL     O7   21  -0.605  -0.029   0.196
    1UNL    C15   22  -0.398  -0.083   0.106
    1UNL    C16   23  -0.376  -0.197   0.175
    1UNL    C17   24  -0.259  -0.274   0.133
    1UNL    C18   25  -0.478  -0.268   0.263
    1UNL    C19   26  -0.176  -0.058  -0.344
    1UNL     O8   27  -0.186   0.028  -0.453
    1UNL    C20   28  -0.018  -0.105  -0.351
    1UNL     O9   29  -0.009  -0.244  -0.345
    1UNL    C21   30   0.061  -0.054  -0.230
    1UNL    O10   31   0.201  -0.080  -0.264
    1UNL    C22   32   0.282   0.127   0.177
    1UNL    O11   33   0.295   0.056   0.299
    1UNL    C23   34   0.405   0.215   0.147
    1UNL    O12   35   0.496   0.215   0.255
    1UNL    C24   36   0.472   0.165   0.013
    1UNL    O13   37   0.597   0.223  -0.003
    1UNL     H1   38   0.607  -0.405   0.298
    1UNL     H2   39   0.438  -0.418   0.238
    1UNL     H3   40   0.576  -0.444   0.132
    1UNL     H4   41   0.607  -0.036   0.182
    1UNL     H5   42   0.695  -0.022   0.038
    1UNL     H6   43   0.492  -0.009  -0.106
    1UNL     H7   44   0.159  -0.034   0.083
    1UNL     H8   45   0.025   0.096   0.001
    1UNL     H9   46   0.084   0.255  -0.075
    1UNL    H10   47   0.087   0.153  -0.283
    1UNL    H11   48  -0.182  -0.029  -0.121
    1UNL    H12   49  -0.282   0.241  -0.247
    1UNL    H13   50  -0.448   0.225  -0.223
    1UNL    H14   51  -0.231   0.298  -0.015
    1UNL    H15   52  -0.477   0.270   0.249
    1UNL    H16   53  -0.339   0.161   0.259
    1UNL    H17   54  -0.311   0.336   0.217
    1UNL    H18   55  -0.539   0.084  -0.063
    1UNL    H19   56  -0.621   0.181   0.066
    1UNL    H20   57  -0.326  -0.048   0.034
    1UNL    H21   58  -0.251  -0.306   0.025
    1UNL    H22   59  -0.263  -0.381   0.175
    1UNL    H23   60  -0.162  -0.220   0.144
    1UNL    H24   61  -0.534  -0.339   0.203
    1UNL    H25   62  -0.550  -0.188   0.306
    1UNL    H26   63  -0.429  -0.327   0.344
    1UNL    H27   64  -0.254  -0.140  -0.363
    1UNL    H28   65  -0.132   0.108  -0.437
    1UNL    H29   66   0.036  -0.074  -0.443
    1UNL    H30   67   0.084  -0.258  -0.321
    1UNL    H31   68   0.022  -0.111  -0.140
    1UNL    H32   69   0.258  -0.081  -0.175
    1UNL    H33   70   0.189   0.189   0.196
    1UNL    H34   71   0.359  -0.019   0.284
    1UNL    H35   72   0.369   0.320   0.144
    1UNL    H36   73   0.453   0.203   0.339
    1UNL    H37   74   0.416   0.203  -0.063
    1UNL    H38   75   0.620   0.275   0.077
   0.00000   0.00000   0.00000   0.00000   0.00000   0.00000   0.00000   0.00000   0.00000
Generated with MDTraj, t= 53.0
 75
    1UNL     C1    1   0.491  -0.400   0.171
    1UNL     C2    2   0.513  -0.251   0.195
    1UNL     O1    3   0.462  -0.188   0.285
    1UNL     O2    4   0.592  -0.187   0.099
    1UNL     C3    5   0.581  -0.045   0.110
    1UNL     C4    6   0.486   0.011   0.010
    1UNL     O3    7   0.356  -0.041   0.034
    1UNL     C5    8   0.254   0.063   0.049
    1UNL     O4    9   0.223   0.132  -0.075
    1UNL     C6   10   0.089   0.168  -0.094
    1UNL     C7   11   0.028   0.113  -0.224
    1UNL     O5   12  -0.121   0.144  -0.231
    1UNL     C8   13  -0.212   0.035  -0.220
    1UNL     O6   14  -0.349   0.065  -0.206
    1UNL     C9   15  -0.381   0.202  -0.198
    1UNL    C10   16  -0.342   0.247  -0.056
    1UNL    C11   17  -0.412   0.208   0.052
    1UNL    C12   18  -0.365   0.245   0.187
    1UNL    C13   19  -0.524   0.118   0.046
    1UNL    C14   20  -0.509  -0.015   0.118
    1UNL     O7   21  -0.576  -0.053   0.213
    1UNL    C15   22  -0.393  -0.095   0.079
    1UNL    C16   23  -0.342  -0.201   0.147
    1UNL    C17   24  -0.215  -0.251   0.112
    1UNL    C18   25  -0.418  -0.265   0.254
    1UNL    C19   26  -0.186  -0.064  -0.331
    1UNL     O8   27  -0.225  -0.009  -0.447
    1UNL    C20   28  -0.042  -0.111  -0.325
    1UNL     O9   29  -0.035  -0.251  -0.317
    1UNL    C21   30   0.050  -0.042  -0.225
    1UNL    O10   31   0.188  -0.078  -0.251
    1UNL    C22   32   0.299   0.145   0.175
    1UNL    O11   33   0.285   0.071   0.302
    1UNL    C23   34   0.441   0.203   0.168
    1UNL    O12   35   0.510   0.163   0.278
    1UNL    C24   36   0.500   0.162   0.028
    1UNL    O13   37   0.632   0.211   0.019
    1UNL     H1   38   0.531  -0.420   0.073
    1UNL     H2   39   0.537  -0.462   0.245
    1UNL     H3   40   0.387  -0.419   0.172
    1UNL     H4   41   0.549  -0.021   0.212
    1UNL     H5   42   0.683  -0.013   0.102
    1UNL     H6   43   0.507  -0.013  -0.095
    1UNL     H7   44   0.171   0.001   0.084
    1UNL     H8   45   0.020   0.130  -0.015
    1UNL     H9   46   0.093   0.277  -0.114
    1UNL    H10   47   0.082   0.155  -0.303
    1UNL    H11   48  -0.190  -0.019  -0.125
    1UNL    H12   49  -0.322   0.250  -0.274
    1UNL    H13   50  -0.487   0.222  -0.229
    1UNL    H14   51  -0.250   0.302  -0.045
    1UNL    H15   52  -0.450   0.230   0.255
    1UNL    H16   53  -0.284   0.177   0.210
    1UNL    H17   54  -0.329   0.351   0.192
    1UNL    H18   55  -0.557   0.107  -0.058
    1UNL    H19   56  -0.623   0.157   0.095
    1UNL    H20   57  -0.347  -0.053  -0.008
    1UNL    H21   58  -0.197  -0.258   0.001
    1UNL    H22   59  -0.201  -0.364   0.133
    1UNL    H23   60  -0.131  -0.186   0.140
    1UNL    H24   61  -0.363  -0.348   0.298
    1UNL    H25   62  -0.514  -0.304   0.215
    1UNL    H26   63  -0.446  -0.193   0.340
    1UNL    H27   64  -0.253  -0.154  -0.313
    1UNL    H28   65  -0.319   0.003  -0.445
    1UNL    H29   66   0.001  -0.100  -0.428
    1UNL    H30   67   0.053  -0.284  -0.301
    1UNL    H31   68   0.030  -0.085  -0.122
    1UNL    H32   69   0.248  -0.031  -0.199
    1UNL    H33   70   0.228   0.231   0.169
    1UNL    H34   71   0.345  -0.011   0.309
    1UNL    H35   72   0.435   0.310   0.170
    1UNL    H36   73   0.460   0.179   0.366
    1UNL    H37   74   0.456   0.206  -0.054
    1UNL    H38   75   0.674   0.225   0.106
   0.00000   0.00000   0.00000   0.00000   0.00000   0.00000   0.00000   0.00000   0.00000
Generated with MDTraj, t= 54.0
 75
    1UNL     C1    1   0.430  -0.388   0.184
    1UNL     C2    2   0.461  -0.245   0.177
    1UNL     O1    3   0.402  -0.175   0.257
    1UNL     O2    4   0.556  -0.200   0.094
    1UNL     C3    5   0.571  -0.061   0.109
    1UNL     C4    6   0.508   0.018  -0.000
    1UNL     O3    7   0.367  -0.028  -0.017
    1UNL     C5    8   0.262   0.059   0.033
    1UNL     O4    9   0.224   0.152  -0.065
    1UNL     C6   10   0.083   0.172  -0.075
    1UNL     C7   11   0.026   0.103  -0.193
    1UNL     O5   12  -0.113   0.143  -0.226
    1UNL     C8   13  -0.214   0.047  -0.201
    1UNL     O6   14  -0.350   0.088  -0.218
    1UNL     C9   15  -0.359   0.225  -0.200
    1UNL    C10   16  -0.342   0.262  -0.051
    1UNL    C11   17  -0.411   0.205   0.049
    1UNL    C12   18  -0.392   0.253   0.186
    1UNL    C13   19  -0.521   0.107   0.030
    1UNL    C14   20  -0.486  -0.021   0.117
    1UNL     O7   21  -0.550  -0.056   0.212
    1UNL    C15   22  -0.380  -0.109   0.065
    1UNL    C16   23  -0.310  -0.208   0.132
    1UNL    C17   24  -0.201  -0.269   0.053
    1UNL    C18   25  -0.330  -0.247   0.273
    1UNL    C19   26  -0.185  -0.083  -0.298
    1UNL     O8   27  -0.232  -0.054  -0.429
    1UNL    C20   28  -0.036  -0.114  -0.305
    1UNL     O9   29  -0.023  -0.250  -0.306
    1UNL    C21   30   0.043  -0.052  -0.195
    1UNL    O10   31   0.181  -0.083  -0.212
    1UNL    C22   32   0.293   0.140   0.158
    1UNL    O11   33   0.276   0.053   0.274
    1UNL    C23   34   0.432   0.205   0.164
    1UNL    O12   35   0.499   0.161   0.274
    1UNL    C24   36   0.519   0.168   0.037
    1UNL    O13   37   0.647   0.229   0.043
    1UNL     H1   38   0.323  -0.403   0.190
    1UNL     H2   39   0.451  -0.428   0.088
    1UNL     H3   40   0.485  -0.437   0.261
    1UNL     H4   41   0.534  -0.035   0.210
    1UNL     H5   42   0.676  -0.032   0.104
    1UNL     H6   43   0.547   0.003  -0.101
    1UNL     H7   44   0.187  -0.016   0.062
    1UNL     H8   45   0.029   0.121   0.006
    1UNL     H9   46   0.056   0.278  -0.094
    1UNL    H10   47   0.091   0.142  -0.268
    1UNL    H11   48  -0.204   0.019  -0.094
    1UNL    H12   49  -0.284   0.270  -0.261
    1UNL    H13   50  -0.457   0.259  -0.244
    1UNL    H14   51  -0.272   0.343  -0.034
    1UNL    H15   52  -0.419   0.184   0.265
    1UNL    H16   53  -0.290   0.289   0.203
    1UNL    H17   54  -0.451   0.345   0.204
    1UNL    H18   55  -0.550   0.071  -0.071
    1UNL    H19   56  -0.623   0.150   0.062
    1UNL    H20   57  -0.346  -0.073  -0.032
    1UNL    H21   58  -0.223  -0.274  -0.056
    1UNL    H22   59  -0.169  -0.371   0.092
    1UNL    H23   60  -0.110  -0.208   0.055
    1UNL    H24   61  -0.238  -0.249   0.342
    1UNL    H25   62  -0.373  -0.346   0.270
    1UNL    H26   63  -0.414  -0.182   0.314
    1UNL    H27   64  -0.240  -0.173  -0.262
    1UNL    H28   65  -0.295   0.023  -0.421
    1UNL    H29   66   0.006  -0.071  -0.400
    1UNL    H30   67   0.073  -0.282  -0.304
    1UNL    H31   68   0.016  -0.096  -0.094
    1UNL    H32   69   0.241  -0.045  -0.144
    1UNL    H33   70   0.218   0.220   0.157
    1UNL    H34   71   0.322  -0.028   0.253
    1UNL    H35   72   0.422   0.310   0.165
    1UNL    H36   73   0.446   0.143   0.351
    1UNL    H37   74   0.473   0.214  -0.043
    1UNL    H38   75   0.697   0.214   0.126
   0.00000   0.00000   0.00000   0.00000   0.00000   0.00000   0.00000   0.00000   0.00000
Generated with MDTraj, t= 55.0
 75
    1UNL     C1    1   0.393  -0.399   0.142
    1UNL     C2    2   0.431  -0.253   0.159
    1UNL     O1    3   0.370  -0.186   0.246
    1UNL     O2    4   0.532  -0.204   0.085
    1UNL     C3    5   0.556  -0.066   0.115
    1UNL     C4    6   0.487   0.026   0.014
    1UNL     O3    7   0.345  -0.015   0.021
    1UNL     C5    8   0.248   0.090   0.036
    1UNL     O4    9   0.226   0.178  -0.074
    1UNL     C6   10   0.083   0.195  -0.105
    1UNL     C7   11   0.038   0.103  -0.223
    1UNL     O5   12  -0.102   0.133  -0.253
    1UNL     C8   13  -0.190   0.048  -0.196
    1UNL     O6   14  -0.322   0.098  -0.190
    1UNL     C9   15  -0.333   0.234  -0.167
    1UNL    C10   16  -0.340   0.273  -0.025
    1UNL    C11   17  -0.421   0.208   0.055
    1UNL    C12   18  -0.422   0.242   0.196
    1UNL    C13   19  -0.498   0.086   0.016
    1UNL    C14   20  -0.459  -0.030   0.090
    1UNL     O7   21  -0.478  -0.032   0.210
    1UNL    C15   22  -0.374  -0.139   0.032
    1UNL    C16   23  -0.294  -0.222   0.108
    1UNL    C17   24  -0.209  -0.325   0.038
    1UNL    C18   25  -0.259  -0.176   0.248
    1UNL    C19   26  -0.192  -0.090  -0.274
    1UNL     O8   27  -0.268  -0.084  -0.395
    1UNL    C20   28  -0.044  -0.132  -0.293
    1UNL     O9   29  -0.037  -0.271  -0.281
    1UNL    C21   30   0.055  -0.056  -0.204
    1UNL    O10   31   0.194  -0.093  -0.224
    1UNL    C22   32   0.282   0.174   0.165
    1UNL    O11   33   0.263   0.083   0.277
    1UNL    C23   34   0.431   0.216   0.174
    1UNL    O12   35   0.499   0.155   0.283
    1UNL    C24   36   0.511   0.174   0.049
    1UNL    O13   37   0.649   0.208   0.060
    1UNL     H1   38   0.425  -0.471   0.215
    1UNL     H2   39   0.288  -0.410   0.155
    1UNL     H3   40   0.429  -0.434   0.049
    1UNL     H4   41   0.512  -0.035   0.213
    1UNL     H5   42   0.664  -0.046   0.117
    1UNL     H6   43   0.523  -0.001  -0.084
    1UNL     H7   44   0.161   0.026   0.055
    1UNL     H8   45   0.020   0.163  -0.023
    1UNL     H9   46   0.068   0.300  -0.142
    1UNL    H10   47   0.099   0.136  -0.306
    1UNL    H11   48  -0.166   0.038  -0.088
    1UNL    H12   49  -0.246   0.271  -0.219
    1UNL    H13   50  -0.419   0.271  -0.233
    1UNL    H14   51  -0.294   0.361   0.014
    1UNL    H15   52  -0.441   0.156   0.258
    1UNL    H16   53  -0.325   0.286   0.232
    1UNL    H17   54  -0.497   0.313   0.224
    1UNL    H18   55  -0.496   0.070  -0.095
    1UNL    H19   56  -0.606   0.104   0.038
    1UNL    H20   57  -0.390  -0.154  -0.073
    1UNL    H21   58  -0.275  -0.374  -0.039
    1UNL    H22   59  -0.157  -0.380   0.120
    1UNL    H23   60  -0.130  -0.273  -0.021
    1UNL    H24   61  -0.196  -0.078   0.257
    1UNL    H25   62  -0.194  -0.254   0.288
    1UNL    H26   63  -0.354  -0.168   0.303
    1UNL    H27   64  -0.246  -0.174  -0.227
    1UNL    H28   65  -0.300   0.008  -0.412
    1UNL    H29   66  -0.019  -0.106  -0.398
    1UNL    H30   67   0.057  -0.298  -0.292
    1UNL    H31   68   0.018  -0.085  -0.100
    1UNL    H32   69   0.252  -0.047  -0.155
    1UNL    H33   70   0.213   0.257   0.169
    1UNL    H34   71   0.292  -0.012   0.258
    1UNL    H35   72   0.431   0.321   0.186
    1UNL    H36   73   0.439   0.150   0.363
    1UNL    H37   74   0.473   0.233  -0.029
    1UNL    H38   75   0.696   0.185   0.143
   0.00000   0.00000   0.00000   0.00000   0.00000   0.00000   0.00000   0.00000   0.00000
Generated with MDTraj, t= 56.0
 75
    1UNL     C1    1   0.353  -0.379   0.102
    1UNL     C2    2   0.402  -0.249   0.152
    1UNL     O1    3   0.337  -0.187   0.238
    1UNL     O2    4   0.516  -0.200   0.091
    1UNL     C3    5   0.544  -0.066   0.122
    1UNL     C4    6   0.464   0.015   0.017
    1UNL     O3    7   0.325  -0.020   0.017
    1UNL     C5    8   0.231   0.088   0.037
    1UNL     O4    9   0.226   0.173  -0.079
    1UNL     C6   10   0.093   0.204  -0.118
    1UNL     C7   11   0.056   0.106  -0.235
    1UNL     O5   12  -0.082   0.136  -0.275
    1UNL     C8   13  -0.185   0.070  -0.207
    1UNL     O6   14  -0.315   0.122  -0.214
    1UNL     C9   15  -0.322   0.254  -0.161
    1UNL    C10   16  -0.340   0.279  -0.010
    1UNL    C11   17  -0.426   0.212   0.068
    1UNL    C12   18  -0.455   0.268   0.202
    1UNL    C13   19  -0.482   0.070   0.034
    1UNL    C14   20  -0.426  -0.042   0.110
    1UNL     O7   21  -0.435  -0.037   0.231
    1UNL    C15   22  -0.375  -0.162   0.043
    1UNL    C16   23  -0.264  -0.224   0.086
    1UNL    C17   24  -0.228  -0.356   0.024
    1UNL    C18   25  -0.160  -0.164   0.171
    1UNL    C19   26  -0.180  -0.080  -0.256
    1UNL     O8   27  -0.262  -0.108  -0.363
    1UNL    C20   28  -0.031  -0.134  -0.266
    1UNL     O9   29  -0.010  -0.275  -0.224
    1UNL    C21   30   0.067  -0.044  -0.194
    1UNL    O10   31   0.202  -0.100  -0.219
    1UNL    C22   32   0.268   0.167   0.172
    1UNL    O11   33   0.234   0.088   0.283
    1UNL    C23   34   0.414   0.218   0.167
    1UNL    O12   35   0.485   0.157   0.278
    1UNL    C24   36   0.488   0.166   0.035
    1UNL    O13   37   0.628   0.185   0.055
    1UNL     H1   38   0.377  -0.415   0.005
    1UNL     H2   39   0.379  -0.451   0.175
    1UNL     H3   40   0.248  -0.368   0.092
    1UNL     H4   41   0.506  -0.037   0.223
    1UNL     H5   42   0.654  -0.050   0.109
    1UNL     H6   43   0.511  -0.019  -0.074
    1UNL     H7   44   0.133   0.042   0.060
    1UNL     H8   45   0.028   0.200  -0.031
    1UNL     H9   46   0.109   0.303  -0.168
    1UNL    H10   47   0.124   0.132  -0.317
    1UNL    H11   48  -0.170   0.086  -0.097
    1UNL    H12   49  -0.240   0.310  -0.204
    1UNL    H13   50  -0.416   0.293  -0.215
    1UNL    H14   51  -0.294   0.367   0.036
    1UNL    H15   52  -0.538   0.208   0.241
    1UNL    H16   53  -0.360   0.262   0.261
    1UNL    H17   54  -0.479   0.371   0.186
    1UNL    H18   55  -0.467   0.054  -0.076
    1UNL    H19   56  -0.587   0.079   0.047
    1UNL    H20   57  -0.444  -0.197  -0.031
    1UNL    H21   58  -0.320  -0.416   0.006
    1UNL    H22   59  -0.151  -0.395   0.091
    1UNL    H23   60  -0.182  -0.351  -0.081
    1UNL    H24   61  -0.194  -0.056   0.187
    1UNL    H25   62  -0.061  -0.154   0.117
    1UNL    H26   63  -0.160  -0.202   0.273
    1UNL    H27   64  -0.218  -0.143  -0.174
    1UNL    H28   65  -0.271  -0.030  -0.419
    1UNL    H29   66   0.016  -0.127  -0.366
    1UNL    H30   67   0.085  -0.287  -0.236
    1UNL    H31   68   0.040  -0.063  -0.087
    1UNL    H32   69   0.250  -0.075  -0.139
    1UNL    H33   70   0.209   0.256   0.184
    1UNL    H34   71   0.270  -0.006   0.267
    1UNL    H35   72   0.428   0.324   0.176
    1UNL    H36   73   0.427   0.163   0.355
    1UNL    H37   74   0.455   0.227  -0.044
    1UNL    H38   75   0.658   0.179   0.148
   0.00000   0.00000   0.00000   0.00000   0.00000   0.00000   0.00000   0.00000   0.00000
Generated with MDTraj, t= 57.0
 75
    1UNL     C1    1   0.305  -0.381   0.110
    1UNL     C2    2   0.373  -0.255   0.154
    1UNL     O1    3   0.315  -0.185   0.234
    1UNL     O2    4   0.484  -0.220   0.087
    1UNL     C3    5   0.523  -0.086   0.121
    1UNL     C4    6   0.457   0.020   0.027
    1UNL     O3    7   0.321  -0.013   0.018
    1UNL     C5    8   0.229   0.098   0.037
    1UNL     O4    9   0.239   0.190  -0.079
    1UNL     C6   10   0.111   0.211  -0.139
    1UNL     C7   11   0.049   0.101  -0.228
    1UNL     O5   12  -0.089   0.139  -0.255
    1UNL     C8   13  -0.187   0.070  -0.180
    1UNL     O6   14  -0.319   0.116  -0.206
    1UNL     C9   15  -0.328   0.254  -0.185
    1UNL    C10   16  -0.355   0.285  -0.036
    1UNL    C11   17  -0.409   0.201   0.052
    1UNL    C12   18  -0.427   0.244   0.196
    1UNL    C13   19  -0.445   0.055   0.017
    1UNL    C14   20  -0.388  -0.043   0.118
    1UNL     O7   21  -0.353  -0.007   0.228
    1UNL    C15   22  -0.369  -0.188   0.074
    1UNL    C16   23  -0.246  -0.235   0.067
    1UNL    C17   24  -0.231  -0.359   0.001
    1UNL    C18   25  -0.127  -0.154   0.111
    1UNL    C19   26  -0.182  -0.081  -0.234
    1UNL     O8   27  -0.263  -0.094  -0.351
    1UNL    C20   28  -0.035  -0.139  -0.255
    1UNL     O9   29  -0.009  -0.269  -0.191
    1UNL    C21   30   0.060  -0.049  -0.192
    1UNL    O10   31   0.196  -0.098  -0.232
    1UNL    C22   32   0.255   0.162   0.177
    1UNL    O11   33   0.223   0.080   0.281
    1UNL    C23   34   0.405   0.214   0.179
    1UNL    O12   35   0.488   0.170   0.293
    1UNL    C24   36   0.479   0.172   0.045
    1UNL    O13   37   0.616   0.210   0.046
    1UNL     H1   38   0.199  -0.376   0.098
    1UNL     H2   39   0.361  -0.423   0.031
    1UNL     H3   40   0.305  -0.449   0.191
    1UNL     H4   41   0.483  -0.065   0.223
    1UNL     H5   42   0.632  -0.066   0.113
    1UNL     H6   43   0.497   0.000  -0.072
    1UNL     H7   44   0.125   0.059   0.040
    1UNL     H8   45   0.048   0.228  -0.054
    1UNL     H9   46   0.132   0.302  -0.199
    1UNL    H10   47   0.097   0.114  -0.328
    1UNL    H11   48  -0.180   0.094  -0.072
    1UNL    H12   49  -0.230   0.296  -0.200
    1UNL    H13   50  -0.405   0.302  -0.255
    1UNL    H14   51  -0.337   0.385  -0.008
    1UNL    H15   52  -0.516   0.191   0.231
    1UNL    H16   53  -0.338   0.218   0.254
    1UNL    H17   54  -0.440   0.351   0.203
    1UNL    H18   55  -0.422   0.030  -0.086
    1UNL    H19   56  -0.549   0.043   0.022
    1UNL    H20   57  -0.463  -0.239   0.056
    1UNL    H21   58  -0.316  -0.425   0.027
    1UNL    H22   59  -0.139  -0.407   0.031
    1UNL    H23   60  -0.239  -0.376  -0.112
    1UNL    H24   61  -0.154  -0.121   0.213
    1UNL    H25   62  -0.119  -0.063   0.040
    1UNL    H26   63  -0.031  -0.207   0.127
    1UNL    H27   64  -0.236  -0.143  -0.157
    1UNL    H28   65  -0.294  -0.003  -0.376
    1UNL    H29   66  -0.026  -0.145  -0.363
    1UNL    H30   67   0.091  -0.284  -0.186
    1UNL    H31   68   0.041  -0.065  -0.082
    1UNL    H32   69   0.245  -0.044  -0.174
    1UNL    H33   70   0.191   0.247   0.186
    1UNL    H34   71   0.264  -0.005   0.265
    1UNL    H35   72   0.406   0.323   0.183
    1UNL    H36   73   0.419   0.156   0.362
    1UNL    H37   74   0.421   0.226  -0.027
    1UNL    H38   75   0.647   0.202   0.141
   0.00000   0.00000   0.00000   0.00000   0.00000   0.00000   0.00000   0.00000   0.00000
Generated with MDTraj, t= 58.0
 75
    1UNL     C1    1   0.303  -0.375   0.128
    1UNL     C2    2   0.362  -0.247   0.168
    1UNL     O1    3   0.304  -0.175   0.245
    1UNL     O2    4   0.477  -0.216   0.099
    1UNL     C3    5   0.512  -0.086   0.127
    1UNL     C4    6   0.446   0.018   0.020
    1UNL     O3    7   0.305   0.001   0.015
    1UNL     C5    8   0.226   0.118   0.043
    1UNL     O4    9   0.200   0.201  -0.066
    1UNL     C6   10   0.062   0.208  -0.116
    1UNL     C7   11   0.033   0.123  -0.240
    1UNL     O5   12  -0.105   0.140  -0.290
    1UNL     C8   13  -0.199   0.070  -0.208
    1UNL     O6   14  -0.327   0.107  -0.220
    1UNL     C9   15  -0.354   0.237  -0.180
    1UNL    C10   16  -0.345   0.271  -0.032
    1UNL    C11   17  -0.396   0.201   0.067
    1UNL    C12   18  -0.395   0.265   0.197
    1UNL    C13   19  -0.443   0.062   0.051
    1UNL    C14   20  -0.342  -0.030   0.100
    1UNL     O7   21  -0.267   0.005   0.185
    1UNL    C15   22  -0.325  -0.168   0.046
    1UNL    C16   23  -0.220  -0.249   0.066
    1UNL    C17   24  -0.241  -0.394   0.029
    1UNL    C18   25  -0.093  -0.210   0.129
    1UNL    C19   26  -0.195  -0.082  -0.256
    1UNL     O8   27  -0.265  -0.111  -0.379
    1UNL    C20   28  -0.043  -0.133  -0.261
    1UNL     O9   29  -0.030  -0.266  -0.206
    1UNL    C21   30   0.048  -0.031  -0.197
    1UNL    O10   31   0.191  -0.067  -0.214
    1UNL    C22   32   0.258   0.190   0.170
    1UNL    O11   33   0.205   0.113   0.277
    1UNL    C23   34   0.419   0.206   0.176
    1UNL    O12   35   0.483   0.141   0.291
    1UNL    C24   36   0.496   0.162   0.052
    1UNL    O13   37   0.637   0.155   0.082
    1UNL     H1   38   0.310  -0.440   0.210
    1UNL     H2   39   0.211  -0.361   0.077
    1UNL     H3   40   0.369  -0.416   0.056
    1UNL     H4   41   0.474  -0.058   0.227
    1UNL     H5   42   0.620  -0.084   0.127
    1UNL     H6   43   0.475  -0.011  -0.083
    1UNL     H7   44   0.125   0.079   0.073
    1UNL     H8   45   0.002   0.172  -0.036
    1UNL     H9   46   0.045   0.315  -0.132
    1UNL    H10   47   0.102   0.153  -0.325
    1UNL    H11   48  -0.177   0.074  -0.101
    1UNL    H12   49  -0.292   0.300  -0.241
    1UNL    H13   50  -0.463   0.254  -0.205
    1UNL    H14   51  -0.318   0.375  -0.010
    1UNL    H15   52  -0.478   0.223   0.255
    1UNL    H16   53  -0.310   0.253   0.259
    1UNL    H17   54  -0.419   0.372   0.205
    1UNL    H18   55  -0.454   0.040  -0.052
    1UNL    H19   56  -0.535   0.042   0.100
    1UNL    H20   57  -0.416  -0.197  -0.002
    1UNL    H21   58  -0.315  -0.426   0.104
    1UNL    H22   59  -0.154  -0.462   0.036
    1UNL    H23   60  -0.301  -0.420  -0.060
    1UNL    H24   61  -0.056  -0.301   0.181
    1UNL    H25   62  -0.104  -0.126   0.199
    1UNL    H26   63  -0.007  -0.191   0.055
    1UNL    H27   64  -0.238  -0.147  -0.174
    1UNL    H28   65  -0.281  -0.025  -0.429
    1UNL    H29   66  -0.011  -0.139  -0.364
    1UNL    H30   67   0.068  -0.276  -0.190
    1UNL    H31   68   0.031  -0.035  -0.085
    1UNL    H32   69   0.239  -0.031  -0.129
    1UNL    H33   70   0.206   0.285   0.172
    1UNL    H34   71   0.235   0.017   0.277
    1UNL    H35   72   0.455   0.312   0.182
    1UNL    H36   73   0.405   0.129   0.348
    1UNL    H37   74   0.477   0.223  -0.035
    1UNL    H38   75   0.653   0.145   0.179
   0.00000   0.00000   0.00000   0.00000   0.00000   0.00000   0.00000   0.00000   0.00000
Generated with MDTraj, t= 59.0
 75
    1UNL     C1    1   0.278  -0.383   0.176
    1UNL     C2    2   0.326  -0.238   0.177
    1UNL     O1    3   0.271  -0.160   0.247
    1UNL     O2    4   0.436  -0.206   0.096
    1UNL     C3    5   0.494  -0.085   0.124
    1UNL     C4    6   0.444   0.016   0.017
    1UNL     O3    7   0.305  -0.005   0.017
    1UNL     C5    8   0.221   0.110   0.044
    1UNL     O4    9   0.202   0.199  -0.065
    1UNL     C6   10   0.063   0.205  -0.092
    1UNL     C7   11   0.012   0.118  -0.205
    1UNL     O5   12  -0.124   0.148  -0.240
    1UNL     C8   13  -0.222   0.054  -0.198
    1UNL     O6   14  -0.358   0.085  -0.213
    1UNL     C9   15  -0.376   0.228  -0.191
    1UNL    C10   16  -0.350   0.278  -0.056
    1UNL    C11   17  -0.363   0.212   0.057
    1UNL    C12   18  -0.326   0.276   0.181
    1UNL    C13   19  -0.400   0.065   0.057
    1UNL    C14   20  -0.276  -0.029   0.085
    1UNL     O7   21  -0.162   0.010   0.104
    1UNL    C15   22  -0.302  -0.175   0.060
    1UNL    C16   23  -0.216  -0.272   0.092
    1UNL    C17   24  -0.230  -0.409   0.014
    1UNL    C18   25  -0.101  -0.257   0.185
    1UNL    C19   26  -0.195  -0.079  -0.272
    1UNL     O8   27  -0.251  -0.084  -0.403
    1UNL    C20   28  -0.050  -0.128  -0.285
    1UNL     O9   29  -0.038  -0.264  -0.267
    1UNL    C21   30   0.031  -0.037  -0.190
    1UNL    O10   31   0.170  -0.056  -0.212
    1UNL    C22   32   0.258   0.182   0.176
    1UNL    O11   33   0.205   0.109   0.287
    1UNL    C23   34   0.415   0.213   0.181
    1UNL    O12   35   0.486   0.155   0.295
    1UNL    C24   36   0.488   0.169   0.053
    1UNL    O13   37   0.628   0.176   0.083
    1UNL     H1   38   0.352  -0.437   0.125
    1UNL     H2   39   0.266  -0.419   0.274
    1UNL     H3   40   0.185  -0.389   0.126
    1UNL     H4   41   0.471  -0.053   0.226
    1UNL     H5   42   0.599  -0.099   0.114
    1UNL     H6   43   0.491  -0.007  -0.082
    1UNL     H7   44   0.127   0.053   0.062
    1UNL     H8   45  -0.001   0.189  -0.006
    1UNL     H9   46   0.048   0.311  -0.120
    1UNL    H10   47   0.078   0.139  -0.298
    1UNL    H11   48  -0.207   0.041  -0.091
    1UNL    H12   49  -0.309   0.276  -0.258
    1UNL    H13   50  -0.477   0.246  -0.234
    1UNL    H14   51  -0.338   0.383  -0.049
    1UNL    H15   52  -0.406   0.258   0.251
    1UNL    H16   53  -0.237   0.240   0.223
    1UNL    H17   54  -0.322   0.386   0.174
    1UNL    H18   55  -0.446   0.030  -0.029
    1UNL    H19   56  -0.465   0.057   0.140
    1UNL    H20   57  -0.382  -0.189  -0.012
    1UNL    H21   58  -0.299  -0.461   0.083
    1UNL    H22   59  -0.135  -0.466   0.009
    1UNL    H23   60  -0.276  -0.400  -0.085
    1UNL    H24   61  -0.075  -0.357   0.228
    1UNL    H25   62  -0.131  -0.188   0.261
    1UNL    H26   63  -0.004  -0.220   0.134
    1UNL    H27   64  -0.253  -0.156  -0.212
    1UNL    H28   65  -0.319  -0.014  -0.408
    1UNL    H29   66  -0.025  -0.114  -0.391
    1UNL    H30   67   0.054  -0.275  -0.252
    1UNL    H31   68   0.007  -0.079  -0.087
    1UNL    H32   69   0.213   0.016  -0.169
    1UNL    H33   70   0.202   0.278   0.177
    1UNL    H34   71   0.233   0.013   0.270
    1UNL    H35   72   0.431   0.325   0.185
    1UNL    H36   73   0.408   0.125   0.350
    1UNL    H37   74   0.467   0.238  -0.029
    1UNL    H38   75   0.643   0.142   0.173
   0.00000   0.00000   0.00000   0.00000   0.00000   0.00000   0.00000   0.00000   0.00000
Generated with MDTraj, t= 60.0
 75
    1UNL     C1    1   0.262  -0.378   0.173
    1UNL     C2    2   0.330  -0.245   0.206
    1UNL     O1    3   0.268  -0.172   0.277
    1UNL     O2    4   0.453  -0.220   0.150
    1UNL     C3    5   0.480  -0.079   0.159
    1UNL     C4    6   0.423   0.000   0.046
    1UNL     O3    7   0.277  -0.013   0.030
    1UNL     C5    8   0.194   0.107   0.062
    1UNL     O4    9   0.168   0.193  -0.055
    1UNL     C6   10   0.032   0.198  -0.098
    1UNL     C7   11  -0.002   0.130  -0.229
    1UNL     O5   12  -0.139   0.159  -0.274
    1UNL     C8   13  -0.229   0.061  -0.226
    1UNL     O6   14  -0.368   0.084  -0.222
    1UNL     C9   15  -0.406   0.207  -0.156
    1UNL    C10   16  -0.332   0.265  -0.043
    1UNL    C11   17  -0.312   0.205   0.073
    1UNL    C12   18  -0.217   0.263   0.176
    1UNL    C13   19  -0.347   0.065   0.092
    1UNL    C14   20  -0.233  -0.030   0.066
    1UNL     O7   21  -0.116   0.002   0.076
    1UNL    C15   22  -0.269  -0.170   0.037
    1UNL    C16   23  -0.201  -0.271   0.089
    1UNL    C17   24  -0.230  -0.414   0.057
    1UNL    C18   25  -0.090  -0.234   0.185
    1UNL    C19   26  -0.202  -0.075  -0.305
    1UNL     O8   27  -0.264  -0.065  -0.435
    1UNL    C20   28  -0.051  -0.117  -0.322
    1UNL     O9   29  -0.028  -0.252  -0.301
    1UNL    C21   30   0.023  -0.028  -0.216
    1UNL    O10   31   0.161  -0.057  -0.224
    1UNL    C22   32   0.249   0.185   0.192
    1UNL    O11   33   0.200   0.112   0.299
    1UNL    C23   34   0.401   0.219   0.183
    1UNL    O12   35   0.476   0.160   0.293
    1UNL    C24   36   0.459   0.158   0.053
    1UNL    O13   37   0.599   0.180   0.046
    1UNL     H1   38   0.187  -0.356   0.103
    1UNL     H2   39   0.330  -0.434   0.116
    1UNL     H3   40   0.220  -0.424   0.259
    1UNL     H4   41   0.433  -0.035   0.248
    1UNL     H5   42   0.585  -0.063   0.174
    1UNL     H6   43   0.470  -0.043  -0.046
    1UNL     H7   44   0.102   0.055   0.094
    1UNL     H8   45  -0.033   0.160  -0.019
    1UNL     H9   46  -0.009   0.302  -0.104
    1UNL    H10   47   0.074   0.187  -0.296
    1UNL    H11   48  -0.205   0.057  -0.118
    1UNL    H12   49  -0.415   0.269  -0.242
    1UNL    H13   50  -0.509   0.188  -0.122
    1UNL    H14   51  -0.292   0.365  -0.059
    1UNL    H15   52  -0.281   0.286   0.259
    1UNL    H16   53  -0.150   0.187   0.206
    1UNL    H17   54  -0.176   0.356   0.135
    1UNL    H18   55  -0.434   0.049   0.036
    1UNL    H19   56  -0.357   0.044   0.195
    1UNL    H20   57  -0.354  -0.179  -0.029
    1UNL    H21   58  -0.320  -0.434   0.118
    1UNL    H22   59  -0.148  -0.478   0.101
    1UNL    H23   60  -0.239  -0.429  -0.049
    1UNL    H24   61  -0.065  -0.326   0.248
    1UNL    H25   62  -0.142  -0.163   0.249
    1UNL    H26   63   0.002  -0.183   0.146
    1UNL    H27   64  -0.254  -0.155  -0.246
    1UNL    H28   65  -0.345  -0.008  -0.426
    1UNL    H29   66  -0.018  -0.095  -0.425
    1UNL    H30   67   0.074  -0.256  -0.295
    1UNL    H31   68  -0.014  -0.064  -0.116
    1UNL    H32   69   0.209  -0.021  -0.143
    1UNL    H33   70   0.190   0.282   0.204
    1UNL    H34   71   0.227   0.020   0.294
    1UNL    H35   72   0.415   0.333   0.183
    1UNL    H36   73   0.432   0.168   0.379
    1UNL    H37   74   0.405   0.209  -0.029
    1UNL    H38   75   0.631   0.162   0.139
   0.00000   0.00000   0.00000   0.00000   0.00000   0.00000   0.00000   0.00000   0.00000
Generated with MDTraj, t= 61.0
 75
    1UNL     C1    1   0.286  -0.394   0.196
    1UNL     C2    2   0.323  -0.252   0.223
    1UNL     O1    3   0.256  -0.177   0.289
    1UNL     O2    4   0.442  -0.211   0.161
    1UNL     C3    5   0.460  -0.068   0.161
    1UNL     C4    6   0.390  -0.002   0.048
    1UNL     O3    7   0.245  -0.032   0.057
    1UNL     C5    8   0.164   0.085   0.060
    1UNL     O4    9   0.163   0.152  -0.065
    1UNL     C6   10   0.037   0.204  -0.102
    1UNL     C7   11  -0.003   0.142  -0.238
    1UNL     O5   12  -0.146   0.166  -0.258
    1UNL     C8   13  -0.225   0.058  -0.222
    1UNL     O6   14  -0.360   0.093  -0.201
    1UNL     C9   15  -0.368   0.231  -0.172
    1UNL    C10   16  -0.277   0.271  -0.054
    1UNL    C11   17  -0.246   0.204   0.057
    1UNL    C12   18  -0.164   0.269   0.160
    1UNL    C13   19  -0.304   0.069   0.095
    1UNL    C14   20  -0.211  -0.048   0.077
    1UNL     O7   21  -0.093  -0.022   0.080
    1UNL    C15   22  -0.253  -0.184   0.075
    1UNL    C16   23  -0.181  -0.288   0.121
    1UNL    C17   24  -0.219  -0.431   0.093
    1UNL    C18   25  -0.049  -0.272   0.184
    1UNL    C19   26  -0.215  -0.061  -0.323
    1UNL     O8   27  -0.279  -0.029  -0.444
    1UNL    C20   28  -0.061  -0.095  -0.336
    1UNL     O9   29  -0.017  -0.228  -0.340
    1UNL    C21   30   0.017  -0.018  -0.228
    1UNL    O10   31   0.153  -0.058  -0.251
    1UNL    C22   32   0.206   0.176   0.184
    1UNL    O11   33   0.195   0.112   0.309
    1UNL    C23   34   0.353   0.224   0.162
    1UNL    O12   35   0.434   0.206   0.275
    1UNL    C24   36   0.417   0.153   0.047
    1UNL    O13   37   0.559   0.170   0.047
    1UNL     H1   38   0.239  -0.439   0.279
    1UNL     H2   39   0.209  -0.386   0.123
    1UNL     H3   40   0.371  -0.453   0.175
    1UNL     H4   41   0.415  -0.032   0.256
    1UNL     H5   42   0.565  -0.042   0.171
    1UNL     H6   43   0.424  -0.052  -0.045
    1UNL     H7   44   0.065   0.043   0.078
    1UNL     H8   45  -0.047   0.186  -0.038
    1UNL     H9   46   0.045   0.316  -0.102
    1UNL    H10   47   0.055   0.200  -0.321
    1UNL    H11   48  -0.179   0.033  -0.124
    1UNL    H12   49  -0.328   0.285  -0.256
    1UNL    H13   50  -0.474   0.252  -0.153
    1UNL    H14   51  -0.238   0.369  -0.068
    1UNL    H15   52  -0.238   0.312   0.224
    1UNL    H16   53  -0.108   0.199   0.220
    1UNL    H17   54  -0.110   0.355   0.122
    1UNL    H18   55  -0.385   0.043   0.032
    1UNL    H19   56  -0.332   0.080   0.195
    1UNL    H20   57  -0.354  -0.197   0.040
    1UNL    H21   58  -0.322  -0.457   0.123
    1UNL    H22   59  -0.168  -0.506   0.159
    1UNL    H23   60  -0.197  -0.472  -0.003
    1UNL    H24   61  -0.002  -0.368   0.219
    1UNL    H25   62  -0.073  -0.210   0.274
    1UNL    H26   63   0.024  -0.204   0.136
    1UNL    H27   64  -0.268  -0.144  -0.276
    1UNL    H28   65  -0.254   0.065  -0.470
    1UNL    H29   66  -0.021  -0.060  -0.435
    1UNL    H30   67   0.084  -0.227  -0.327
    1UNL    H31   68  -0.018  -0.059  -0.132
    1UNL    H32   69   0.203  -0.031  -0.177
    1UNL    H33   70   0.130   0.261   0.188
    1UNL    H34   71   0.209   0.015   0.293
    1UNL    H35   72   0.361   0.334   0.141
    1UNL    H36   73   0.396   0.225   0.362
    1UNL    H37   74   0.382   0.192  -0.052
    1UNL    H38   75   0.592   0.197   0.134
   0.00000   0.00000   0.00000   0.00000   0.00000   0.00000   0.00000   0.00000   0.00000
Generated with MDTraj, t= 62.0
 75
    1UNL     C1    1   0.339  -0.406   0.268
    1UNL     C2    2   0.336  -0.255   0.238
    1UNL     O1    3   0.242  -0.193   0.281
    1UNL     O2    4   0.442  -0.208   0.172
    1UNL     C3    5   0.451  -0.065   0.173
    1UNL     C4    6   0.398   0.002   0.044
    1UNL     O3    7   0.263  -0.036   0.015
    1UNL     C5    8   0.169   0.070   0.027
    1UNL     O4    9   0.188   0.148  -0.086
    1UNL     C6   10   0.073   0.210  -0.131
    1UNL     C7   11   0.008   0.136  -0.242
    1UNL     O5   12  -0.125   0.181  -0.267
    1UNL     C8   13  -0.213   0.080  -0.228
    1UNL     O6   14  -0.347   0.115  -0.211
    1UNL     C9   15  -0.365   0.241  -0.151
    1UNL    C10   16  -0.278   0.266  -0.027
    1UNL    C11   17  -0.266   0.188   0.083
    1UNL    C12   18  -0.172   0.221   0.202
    1UNL    C13   19  -0.334   0.058   0.097
    1UNL    C14   20  -0.220  -0.041   0.106
    1UNL     O7   21  -0.103  -0.008   0.090
    1UNL    C15   22  -0.263  -0.186   0.106
    1UNL    C16   23  -0.185  -0.289   0.149
    1UNL    C17   24  -0.245  -0.425   0.138
    1UNL    C18   25  -0.037  -0.273   0.165
    1UNL    C19   26  -0.204  -0.045  -0.331
    1UNL     O8   27  -0.260  -0.005  -0.454
    1UNL    C20   28  -0.057  -0.084  -0.356
    1UNL     O9   29  -0.044  -0.225  -0.359
    1UNL    C21   30   0.025  -0.024  -0.243
    1UNL    O10   31   0.159  -0.070  -0.276
    1UNL    C22   32   0.190   0.159   0.151
    1UNL    O11   33   0.175   0.093   0.271
    1UNL    C23   34   0.335   0.224   0.154
    1UNL    O12   35   0.383   0.222   0.283
    1UNL    C24   36   0.420   0.151   0.047
    1UNL    O13   37   0.557   0.192   0.054
    1UNL     H1   38   0.434  -0.446   0.295
    1UNL     H2   39   0.270  -0.429   0.344
    1UNL     H3   40   0.325  -0.469   0.186
    1UNL     H4   41   0.420  -0.028   0.275
    1UNL     H5   42   0.560  -0.048   0.180
    1UNL     H6   43   0.452  -0.032  -0.045
    1UNL     H7   44   0.075   0.010   0.036
    1UNL     H8   45   0.007   0.228  -0.047
    1UNL     H9   46   0.105   0.310  -0.171
    1UNL    H10   47   0.050   0.176  -0.342
    1UNL    H11   48  -0.175   0.055  -0.126
    1UNL    H12   49  -0.344   0.311  -0.233
    1UNL    H13   50  -0.468   0.246  -0.112
    1UNL    H14   51  -0.212   0.352  -0.038
    1UNL    H15   52  -0.229   0.267   0.280
    1UNL    H16   53  -0.129   0.137   0.258
    1UNL    H17   54  -0.096   0.293   0.192
    1UNL    H18   55  -0.388   0.045   0.003
    1UNL    H19   56  -0.391   0.051   0.184
    1UNL    H20   57  -0.368  -0.205   0.094
    1UNL    H21   58  -0.354  -0.421   0.140
    1UNL    H22   59  -0.233  -0.480   0.231
    1UNL    H23   60  -0.210  -0.496   0.063
    1UNL    H24   61   0.001  -0.345   0.236
    1UNL    H25   62   0.002  -0.168   0.193
    1UNL    H26   63   0.024  -0.285   0.073
    1UNL    H27   64  -0.263  -0.124  -0.288
    1UNL    H28   65  -0.348   0.039  -0.436
    1UNL    H29   66  -0.028  -0.043  -0.457
    1UNL    H30   67   0.048  -0.248  -0.376
    1UNL    H31   68  -0.014  -0.069  -0.152
    1UNL    H32   69   0.209  -0.054  -0.195
    1UNL    H33   70   0.101   0.231   0.139
    1UNL    H34   71   0.198  -0.007   0.268
    1UNL    H35   72   0.320   0.331   0.140
    1UNL    H36   73   0.310   0.202   0.352
    1UNL    H37   74   0.389   0.185  -0.055
    1UNL    H38   75   0.581   0.204   0.149
   0.00000   0.00000   0.00000   0.00000   0.00000   0.00000   0.00000   0.00000   0.00000
Generated with MDTraj, t= 63.0
 75
    1UNL     C1    1   0.373  -0.394   0.288
    1UNL     C2    2   0.365  -0.253   0.256
    1UNL     O1    3   0.261  -0.190   0.268
    1UNL     O2    4   0.487  -0.196   0.222
    1UNL     C3    5   0.462  -0.059   0.196
    1UNL     C4    6   0.435   0.001   0.055
    1UNL     O3    7   0.305  -0.041   0.008
    1UNL     C5    8   0.206   0.061  -0.006
    1UNL     O4    9   0.204   0.143  -0.127
    1UNL     C6   10   0.079   0.210  -0.153
    1UNL     C7   11   0.007   0.150  -0.271
    1UNL     O5   12  -0.127   0.189  -0.283
    1UNL     C8   13  -0.211   0.087  -0.229
    1UNL     O6   14  -0.339   0.118  -0.186
    1UNL     C9   15  -0.344   0.258  -0.143
    1UNL    C10   16  -0.286   0.274  -0.008
    1UNL    C11   17  -0.293   0.194   0.096
    1UNL    C12   18  -0.231   0.240   0.222
    1UNL    C13   19  -0.351   0.058   0.085
    1UNL    C14   20  -0.244  -0.055   0.086
    1UNL     O7   21  -0.140  -0.037   0.032
    1UNL    C15   22  -0.281  -0.193   0.130
    1UNL    C16   23  -0.194  -0.295   0.160
    1UNL    C17   24  -0.236  -0.433   0.203
    1UNL    C18   25  -0.052  -0.280   0.134
    1UNL    C19   26  -0.222  -0.035  -0.326
    1UNL     O8   27  -0.277   0.013  -0.446
    1UNL    C20   28  -0.081  -0.081  -0.352
    1UNL     O9   29  -0.075  -0.223  -0.353
    1UNL    C21   30   0.024  -0.014  -0.257
    1UNL    O10   31   0.154  -0.064  -0.303
    1UNL    C22   32   0.200   0.149   0.122
    1UNL    O11   33   0.140   0.083   0.225
    1UNL    C23   34   0.339   0.208   0.164
    1UNL    O12   35   0.349   0.178   0.295
    1UNL    C24   36   0.446   0.149   0.067
    1UNL    O13   37   0.580   0.196   0.090
    1UNL     H1   38   0.382  -0.453   0.202
    1UNL     H2   39   0.450  -0.403   0.362
    1UNL     H3   40   0.283  -0.430   0.328
    1UNL     H4   41   0.392  -0.025   0.278
    1UNL     H5   42   0.564  -0.026   0.231
    1UNL     H6   43   0.500  -0.037  -0.023
    1UNL     H7   44   0.114   0.000   0.001
    1UNL     H8   45   0.024   0.196  -0.061
    1UNL     H9   46   0.110   0.317  -0.161
    1UNL    H10   47   0.061   0.182  -0.365
    1UNL    H11   48  -0.153   0.057  -0.139
    1UNL    H12   49  -0.294   0.322  -0.220
    1UNL    H13   50  -0.453   0.278  -0.151
    1UNL    H14   51  -0.239   0.370   0.007
    1UNL    H15   52  -0.253   0.175   0.305
    1UNL    H16   53  -0.121   0.244   0.214
    1UNL    H17   54  -0.272   0.335   0.238
    1UNL    H18   55  -0.408   0.043  -0.007
    1UNL    H19   56  -0.411   0.050   0.171
    1UNL    H20   57  -0.383  -0.215   0.153
    1UNL    H21   58  -0.341  -0.444   0.174
    1UNL    H22   59  -0.233  -0.431   0.309
    1UNL    H23   60  -0.169  -0.513   0.167
    1UNL    H24   61  -0.007  -0.306   0.230
    1UNL    H25   62  -0.025  -0.180   0.083
    1UNL    H26   63  -0.018  -0.353   0.060
    1UNL    H27   64  -0.274  -0.119  -0.286
    1UNL    H28   65  -0.245   0.102  -0.467
    1UNL    H29   66  -0.049  -0.044  -0.452
    1UNL    H30   67   0.016  -0.247  -0.364
    1UNL    H31   68   0.018  -0.051  -0.156
    1UNL    H32   69   0.223  -0.029  -0.235
    1UNL    H33   70   0.138   0.236   0.083
    1UNL    H34   71   0.184  -0.003   0.226
    1UNL    H35   72   0.346   0.316   0.166
    1UNL    H36   73   0.265   0.171   0.342
    1UNL    H37   74   0.420   0.187  -0.035
    1UNL    H38   75   0.586   0.207   0.188
   0.00000   0.00000   0.00000   0.00000   0.00000   0.00000   0.00000   0.00000   0.00000
Generated with MDTraj, t= 64.0
 75
    1UNL     C1    1   0.363  -0.387   0.266
    1UNL     C2    2   0.361  -0.236   0.243
    1UNL     O1    3   0.263  -0.175   0.281
    1UNL     O2    4   0.478  -0.190   0.195
    1UNL     C3    5   0.495  -0.047   0.200
    1UNL     C4    6   0.460   0.019   0.066
    1UNL     O3    7   0.332  -0.043   0.019
    1UNL     C5    8   0.220   0.038  -0.000
    1UNL     O4    9   0.216   0.099  -0.126
    1UNL     C6   10   0.101   0.174  -0.151
    1UNL     C7   11   0.028   0.134  -0.279
    1UNL     O5   12  -0.105   0.191  -0.282
    1UNL     C8   13  -0.220   0.101  -0.240
    1UNL     O6   14  -0.345   0.159  -0.212
    1UNL     C9   15  -0.335   0.279  -0.131
    1UNL    C10   16  -0.283   0.269   0.009
    1UNL    C11   17  -0.299   0.169   0.093
    1UNL    C12   18  -0.245   0.187   0.232
    1UNL    C13   19  -0.359   0.045   0.046
    1UNL    C14   20  -0.253  -0.068   0.053
    1UNL     O7   21  -0.148  -0.058  -0.004
    1UNL    C15   22  -0.276  -0.170   0.150
    1UNL    C16   23  -0.192  -0.273   0.178
    1UNL    C17   24  -0.232  -0.396   0.266
    1UNL    C18   25  -0.063  -0.286   0.113
    1UNL    C19   26  -0.234  -0.025  -0.328
    1UNL     O8   27  -0.305   0.010  -0.444
    1UNL    C20   28  -0.101  -0.080  -0.367
    1UNL     O9   29  -0.105  -0.221  -0.353
    1UNL    C21   30   0.014  -0.028  -0.281
    1UNL    O10   31   0.141  -0.069  -0.335
    1UNL    C22   32   0.206   0.137   0.129
    1UNL    O11   33   0.147   0.073   0.236
    1UNL    C23   34   0.338   0.209   0.171
    1UNL    O12   35   0.362   0.177   0.308
    1UNL    C24   36   0.457   0.167   0.081
    1UNL    O13   37   0.569   0.233   0.149
    1UNL     H1   38   0.269  -0.427   0.286
    1UNL     H2   39   0.420  -0.431   0.189
    1UNL     H3   40   0.421  -0.406   0.354
    1UNL     H4   41   0.422  -0.005   0.275
    1UNL     H5   42   0.594  -0.014   0.236
    1UNL     H6   43   0.535  -0.011  -0.007
    1UNL     H7   44   0.138  -0.035   0.012
    1UNL     H8   45   0.044   0.168  -0.060
    1UNL     H9   46   0.144   0.275  -0.167
    1UNL    H10   47   0.073   0.165  -0.375
    1UNL    H11   48  -0.188   0.066  -0.140
    1UNL    H12   49  -0.265   0.336  -0.199
    1UNL    H13   50  -0.433   0.331  -0.138
    1UNL    H14   51  -0.235   0.359   0.043
    1UNL    H15   52  -0.172   0.109   0.247
    1UNL    H16   53  -0.198   0.284   0.244
    1UNL    H17   54  -0.333   0.179   0.291
    1UNL    H18   55  -0.393   0.058  -0.057
    1UNL    H19   56  -0.448   0.021   0.103
    1UNL    H20   57  -0.374  -0.175   0.196
    1UNL    H21   58  -0.293  -0.465   0.213
    1UNL    H22   59  -0.272  -0.358   0.355
    1UNL    H23   60  -0.135  -0.442   0.291
    1UNL    H24   61   0.011  -0.307   0.194
    1UNL    H25   62  -0.040  -0.199   0.054
    1UNL    H26   63  -0.057  -0.364   0.036
    1UNL    H27   64  -0.293  -0.099  -0.280
    1UNL    H28   65  -0.396   0.042  -0.429
    1UNL    H29   66  -0.089  -0.052  -0.473
    1UNL    H30   67  -0.012  -0.261  -0.359
    1UNL    H31   68   0.008  -0.077  -0.185
    1UNL    H32   69   0.202  -0.029  -0.276
    1UNL    H33   70   0.137   0.216   0.091
    1UNL    H34   71   0.190  -0.012   0.255
    1UNL    H35   72   0.325   0.317   0.177
    1UNL    H36   73   0.275   0.181   0.359
    1UNL    H37   74   0.457   0.215  -0.021
    1UNL    H38   75   0.546   0.234   0.243
   0.00000   0.00000   0.00000   0.00000   0.00000   0.00000   0.00000   0.00000   0.00000
Generated with MDTraj, t= 65.0
 75
    1UNL     C1    1   0.341  -0.378   0.195
    1UNL     C2    2   0.380  -0.240   0.247
    1UNL     O1    3   0.302  -0.174   0.317
    1UNL     O2    4   0.502  -0.193   0.204
    1UNL     C3    5   0.506  -0.053   0.205
    1UNL     C4    6   0.452   0.014   0.071
    1UNL     O3    7   0.322  -0.050   0.032
    1UNL     C5    8   0.211   0.040   0.005
    1UNL     O4    9   0.205   0.129  -0.108
    1UNL     C6   10   0.066   0.163  -0.135
    1UNL     C7   11   0.018   0.112  -0.266
    1UNL     O5   12  -0.100   0.184  -0.309
    1UNL     C8   13  -0.212   0.114  -0.248
    1UNL     O6   14  -0.321   0.201  -0.225
    1UNL     C9   15  -0.295   0.303  -0.137
    1UNL    C10   16  -0.269   0.270   0.008
    1UNL    C11   17  -0.283   0.154   0.071
    1UNL    C12   18  -0.229   0.153   0.218
    1UNL    C13   19  -0.345   0.023   0.019
    1UNL    C14   20  -0.247  -0.087   0.041
    1UNL     O7   21  -0.146  -0.094  -0.031
    1UNL    C15   22  -0.279  -0.179   0.152
    1UNL    C16   23  -0.190  -0.272   0.197
    1UNL    C17   24  -0.212  -0.347   0.325
    1UNL    C18   25  -0.064  -0.295   0.117
    1UNL    C19   26  -0.242  -0.017  -0.328
    1UNL     O8   27  -0.332   0.031  -0.426
    1UNL    C20   28  -0.104  -0.073  -0.378
    1UNL     O9   29  -0.102  -0.215  -0.402
    1UNL    C21   30   0.002  -0.043  -0.270
    1UNL    O10   31   0.126  -0.101  -0.300
    1UNL    C22   32   0.191   0.135   0.136
    1UNL    O11   33   0.136   0.060   0.240
    1UNL    C23   34   0.318   0.221   0.166
    1UNL    O12   35   0.346   0.211   0.307
    1UNL    C24   36   0.444   0.168   0.088
    1UNL    O13   37   0.561   0.224   0.148
    1UNL     H1   38   0.353  -0.439   0.280
    1UNL     H2   39   0.242  -0.374   0.165
    1UNL     H3   40   0.402  -0.407   0.112
    1UNL     H4   41   0.436  -0.019   0.284
    1UNL     H5   42   0.608  -0.020   0.226
    1UNL     H6   43   0.521  -0.018  -0.009
    1UNL     H7   44   0.127  -0.028   0.005
    1UNL     H8   45  -0.003   0.121  -0.062
    1UNL     H9   46   0.066   0.273  -0.130
    1UNL    H10   47   0.090   0.153  -0.334
    1UNL    H11   48  -0.183   0.081  -0.146
    1UNL    H12   49  -0.210   0.366  -0.177
    1UNL    H13   50  -0.390   0.361  -0.144
    1UNL    H14   51  -0.217   0.351   0.058
    1UNL    H15   52  -0.129   0.196   0.224
    1UNL    H16   53  -0.293   0.203   0.287
    1UNL    H17   54  -0.223   0.053   0.258
    1UNL    H18   55  -0.379   0.024  -0.086
    1UNL    H19   56  -0.439   0.001   0.078
    1UNL    H20   57  -0.376  -0.167   0.196
    1UNL    H21   58  -0.217  -0.452   0.309
    1UNL    H22   59  -0.288  -0.313   0.393
    1UNL    H23   60  -0.126  -0.333   0.391
    1UNL    H24   61  -0.004  -0.377   0.163
    1UNL    H25   62  -0.004  -0.209   0.110
    1UNL    H26   63  -0.069  -0.318   0.007
    1UNL    H27   64  -0.291  -0.088  -0.269
    1UNL    H28   65  -0.366   0.123  -0.398
    1UNL    H29   66  -0.065  -0.021  -0.466
    1UNL    H30   67  -0.010  -0.255  -0.382
    1UNL    H31   68  -0.026  -0.091  -0.177
    1UNL    H32   69   0.191  -0.052  -0.237
    1UNL    H33   70   0.104   0.201   0.111
    1UNL    H34   71   0.202  -0.015   0.258
    1UNL    H35   72   0.290   0.326   0.145
    1UNL    H36   73   0.260   0.195   0.348
    1UNL    H37   74   0.444   0.217  -0.014
    1UNL    H38   75   0.533   0.266   0.233
   0.00000   0.00000   0.00000   0.00000   0.00000   0.00000   0.00000   0.00000   0.00000
Generated with MDTraj, t= 66.0
 75
    1UNL     C1    1   0.352  -0.378   0.178
    1UNL     C2    2   0.379  -0.240   0.228
    1UNL     O1    3   0.294  -0.188   0.297
    1UNL     O2    4   0.497  -0.183   0.184
    1UNL     C3    5   0.501  -0.046   0.194
    1UNL     C4    6   0.427   0.014   0.074
    1UNL     O3    7   0.298  -0.056   0.063
    1UNL     C5    8   0.186   0.033   0.035
    1UNL     O4    9   0.209   0.085  -0.094
    1UNL     C6   10   0.103   0.169  -0.138
    1UNL     C7   11   0.031   0.119  -0.268
    1UNL     O5   12  -0.096   0.190  -0.284
    1UNL     C8   13  -0.203   0.104  -0.249
    1UNL     O6   14  -0.327   0.180  -0.220
    1UNL     C9   15  -0.314   0.293  -0.140
    1UNL    C10   16  -0.237   0.260  -0.012
    1UNL    C11   17  -0.257   0.164   0.080
    1UNL    C12   18  -0.196   0.169   0.213
    1UNL    C13   19  -0.339   0.036   0.049
    1UNL    C14   20  -0.258  -0.090   0.041
    1UNL     O7   21  -0.205  -0.114  -0.068
    1UNL    C15   22  -0.255  -0.161   0.172
    1UNL    C16   23  -0.173  -0.258   0.208
    1UNL    C17   24  -0.208  -0.319   0.338
    1UNL    C18   25  -0.047  -0.285   0.136
    1UNL    C19   26  -0.236  -0.015  -0.346
    1UNL     O8   27  -0.320   0.035  -0.449
    1UNL    C20   28  -0.095  -0.071  -0.388
    1UNL     O9   29  -0.087  -0.213  -0.415
    1UNL    C21   30   0.016  -0.035  -0.279
    1UNL    O10   31   0.143  -0.094  -0.304
    1UNL    C22   32   0.161   0.131   0.159
    1UNL    O11   33   0.135   0.053   0.270
    1UNL    C23   34   0.296   0.212   0.182
    1UNL    O12   35   0.359   0.196   0.315
    1UNL    C24   36   0.408   0.169   0.083
    1UNL    O13   37   0.524   0.240   0.108
    1UNL     H1   38   0.441  -0.420   0.138
    1UNL     H2   39   0.335  -0.426   0.270
    1UNL     H3   40   0.266  -0.384   0.115
    1UNL     H4   41   0.448  -0.023   0.288
    1UNL     H5   42   0.603  -0.012   0.192
    1UNL     H6   43   0.483  -0.017  -0.018
    1UNL     H7   44   0.101  -0.032   0.020
    1UNL     H8   45   0.026   0.167  -0.062
    1UNL     H9   46   0.127   0.275  -0.159
    1UNL    H10   47   0.093   0.166  -0.339
    1UNL    H11   48  -0.172   0.058  -0.154
    1UNL    H12   49  -0.262   0.371  -0.200
    1UNL    H13   50  -0.412   0.330  -0.111
    1UNL    H14   51  -0.172   0.341   0.015
    1UNL    H15   52  -0.173   0.270   0.235
    1UNL    H16   53  -0.250   0.129   0.295
    1UNL    H17   54  -0.099   0.118   0.223
    1UNL    H18   55  -0.389   0.062  -0.049
    1UNL    H19   56  -0.424   0.030   0.127
    1UNL    H20   57  -0.345  -0.153   0.234
    1UNL    H21   58  -0.159  -0.411   0.359
    1UNL    H22   59  -0.315  -0.331   0.360
    1UNL    H23   60  -0.187  -0.256   0.421
    1UNL    H24   61  -0.044  -0.393   0.116
    1UNL    H25   62   0.035  -0.252   0.198
    1UNL    H26   63  -0.037  -0.222   0.045
    1UNL    H27   64  -0.290  -0.094  -0.301
    1UNL    H28   65  -0.375   0.107  -0.415
    1UNL    H29   66  -0.073  -0.019  -0.480
    1UNL    H30   67  -0.006  -0.253  -0.390
    1UNL    H31   68  -0.021  -0.092  -0.193
    1UNL    H32   69   0.202  -0.056  -0.243
    1UNL    H33   70   0.078   0.197   0.141
    1UNL    H34   71   0.189  -0.027   0.268
    1UNL    H35   72   0.286   0.324   0.170
    1UNL    H36   73   0.287   0.182   0.383
    1UNL    H37   74   0.382   0.205  -0.023
    1UNL    H38   75   0.515   0.288   0.193
   0.00000   0.00000   0.00000   0.00000   0.00000   0.00000   0.00000   0.00000   0.00000
Generated with MDTraj, t= 67.0
 75
    1UNL     C1    1   0.393  -0.403   0.219
    1UNL     C2    2   0.383  -0.252   0.236
    1UNL     O1    3   0.291  -0.199   0.291
    1UNL     O2    4   0.487  -0.183   0.186
    1UNL     C3    5   0.467  -0.043   0.190
    1UNL     C4    6   0.410   0.006   0.058
    1UNL     O3    7   0.291  -0.067   0.029
    1UNL     C5    8   0.180   0.033   0.024
    1UNL     O4    9   0.188   0.107  -0.090
    1UNL     C6   10   0.064   0.173  -0.119
    1UNL     C7   11   0.018   0.138  -0.264
    1UNL     O5   12  -0.116   0.192  -0.280
    1UNL     C8   13  -0.210   0.090  -0.255
    1UNL     O6   14  -0.339   0.149  -0.207
    1UNL     C9   15  -0.317   0.270  -0.141
    1UNL    C10   16  -0.242   0.259  -0.008
    1UNL    C11   17  -0.260   0.164   0.083
    1UNL    C12   18  -0.164   0.160   0.205
    1UNL    C13   19  -0.366   0.057   0.072
    1UNL    C14   20  -0.287  -0.063   0.075
    1UNL     O7   21  -0.233  -0.098  -0.024
    1UNL    C15   22  -0.270  -0.146   0.195
    1UNL    C16   23  -0.168  -0.228   0.221
    1UNL    C17   24  -0.161  -0.309   0.347
    1UNL    C18   25  -0.059  -0.241   0.126
    1UNL    C19   26  -0.209  -0.022  -0.367
    1UNL     O8   27  -0.268   0.028  -0.485
    1UNL    C20   28  -0.063  -0.068  -0.395
    1UNL     O9   29  -0.051  -0.211  -0.400
    1UNL    C21   30   0.037  -0.012  -0.283
    1UNL    O10   31   0.173  -0.037  -0.317
    1UNL    C22   32   0.161   0.118   0.148
    1UNL    O11   33   0.111   0.050   0.257
    1UNL    C23   34   0.296   0.188   0.181
    1UNL    O12   35   0.354   0.150   0.310
    1UNL    C24   36   0.400   0.163   0.068
    1UNL    O13   37   0.526   0.215   0.083
    1UNL     H1   38   0.358  -0.448   0.128
    1UNL     H2   39   0.500  -0.413   0.219
    1UNL     H3   40   0.352  -0.460   0.295
    1UNL     H4   41   0.393  -0.032   0.270
    1UNL     H5   42   0.560   0.003   0.216
    1UNL     H6   43   0.478  -0.023  -0.027
    1UNL     H7   44   0.096  -0.033   0.012
    1UNL     H8   45  -0.023   0.149  -0.061
    1UNL     H9   46   0.084   0.280  -0.117
    1UNL    H10   47   0.088   0.178  -0.331
    1UNL    H11   48  -0.180   0.038  -0.162
    1UNL    H12   49  -0.268   0.334  -0.216
    1UNL    H13   50  -0.415   0.311  -0.122
    1UNL    H14   51  -0.172   0.340   0.014
    1UNL    H15   52  -0.099   0.243   0.184
    1UNL    H16   53  -0.216   0.173   0.297
    1UNL    H17   54  -0.105   0.067   0.215
    1UNL    H18   55  -0.420   0.073  -0.028
    1UNL    H19   56  -0.446   0.066   0.155
    1UNL    H20   57  -0.337  -0.129   0.276
    1UNL    H21   58  -0.060  -0.311   0.381
    1UNL    H22   59  -0.203  -0.408   0.324
    1UNL    H23   60  -0.233  -0.274   0.413
    1UNL    H24   61  -0.066  -0.341   0.085
    1UNL    H25   62   0.033  -0.230   0.186
    1UNL    H26   63  -0.058  -0.167   0.049
    1UNL    H27   64  -0.265  -0.107  -0.334
    1UNL    H28   65  -0.335   0.092  -0.459
    1UNL    H29   66  -0.031  -0.019  -0.485
    1UNL    H30   67   0.048  -0.233  -0.394
    1UNL    H31   68   0.023  -0.075  -0.193
    1UNL    H32   69   0.231  -0.024  -0.231
    1UNL    H33   70   0.085   0.193   0.135
    1UNL    H34   71   0.159  -0.035   0.261
    1UNL    H35   72   0.269   0.298   0.191
    1UNL    H36   73   0.282   0.125   0.369
    1UNL    H37   74   0.355   0.201  -0.029
    1UNL    H38   75   0.528   0.252   0.173
   0.00000   0.00000   0.00000   0.00000   0.00000   0.00000   0.00000   0.00000   0.00000
Generated with MDTraj, t= 68.0
 75
    1UNL     C1    1   0.393  -0.426   0.288
    1UNL     C2    2   0.382  -0.290   0.235
    1UNL     O1    3   0.290  -0.228   0.278
    1UNL     O2    4   0.487  -0.226   0.163
    1UNL     C3    5   0.467  -0.086   0.176
    1UNL     C4    6   0.413  -0.006   0.055
    1UNL     O3    7   0.290  -0.056   0.009
    1UNL     C5    8   0.186   0.054   0.003
    1UNL     O4    9   0.201   0.145  -0.103
    1UNL     C6   10   0.076   0.207  -0.126
    1UNL     C7   11   0.016   0.160  -0.265
    1UNL     O5   12  -0.126   0.192  -0.272
    1UNL     C8   13  -0.210   0.082  -0.246
    1UNL     O6   14  -0.348   0.112  -0.214
    1UNL     C9   15  -0.371   0.233  -0.154
    1UNL    C10   16  -0.285   0.261  -0.037
    1UNL    C11   17  -0.287   0.186   0.069
    1UNL    C12   18  -0.216   0.239   0.185
    1UNL    C13   19  -0.362   0.059   0.083
    1UNL    C14   20  -0.286  -0.077   0.076
    1UNL     O7   21  -0.238  -0.124  -0.022
    1UNL    C15   22  -0.269  -0.152   0.204
    1UNL    C16   23  -0.159  -0.226   0.230
    1UNL    C17   24  -0.131  -0.282   0.371
    1UNL    C18   25  -0.054  -0.248   0.135
    1UNL    C19   26  -0.203  -0.022  -0.360
    1UNL     O8   27  -0.275   0.034  -0.469
    1UNL    C20   28  -0.055  -0.050  -0.401
    1UNL     O9   29  -0.035  -0.189  -0.407
    1UNL    C21   30   0.041   0.008  -0.289
    1UNL    O10   31   0.174  -0.026  -0.321
    1UNL    C22   32   0.177   0.116   0.148
    1UNL    O11   33   0.146   0.020   0.246
    1UNL    C23   34   0.307   0.199   0.177
    1UNL    O12   35   0.342   0.185   0.312
    1UNL    C24   36   0.420   0.156   0.081
    1UNL    O13   37   0.543   0.195   0.128
    1UNL     H1   38   0.330  -0.452   0.370
    1UNL     H2   39   0.386  -0.497   0.208
    1UNL     H3   40   0.487  -0.443   0.333
    1UNL     H4   41   0.411  -0.073   0.269
    1UNL     H5   42   0.567  -0.056   0.198
    1UNL     H6   43   0.483  -0.031  -0.029
    1UNL     H7   44   0.097  -0.003  -0.017
    1UNL     H8   45   0.010   0.168  -0.051
    1UNL     H9   46   0.078   0.317  -0.127
    1UNL    H10   47   0.063   0.200  -0.351
    1UNL    H11   48  -0.179   0.031  -0.154
    1UNL    H12   49  -0.348   0.305  -0.232
    1UNL    H13   50  -0.477   0.240  -0.142
    1UNL    H14   51  -0.240   0.358  -0.040
    1UNL    H15   52  -0.207   0.345   0.165
    1UNL    H16   53  -0.279   0.217   0.271
    1UNL    H17   54  -0.122   0.185   0.194
    1UNL    H18   55  -0.443   0.047   0.001
    1UNL    H19   56  -0.428   0.071   0.176
    1UNL    H20   57  -0.344  -0.143   0.279
    1UNL    H21   58  -0.079  -0.211   0.431
    1UNL    H22   59  -0.070  -0.369   0.355
    1UNL    H23   60  -0.223  -0.318   0.407
    1UNL    H24   61  -0.034  -0.352   0.125
    1UNL    H25   62   0.039  -0.192   0.165
    1UNL    H26   63  -0.074  -0.214   0.036
    1UNL    H27   64  -0.245  -0.119  -0.334
    1UNL    H28   65  -0.330   0.112  -0.437
    1UNL    H29   66  -0.043  -0.009  -0.501
    1UNL    H30   67   0.065  -0.203  -0.426
    1UNL    H31   68   0.022  -0.055  -0.199
    1UNL    H32   69   0.215   0.019  -0.251
    1UNL    H33   70   0.094   0.182   0.164
    1UNL    H34   71   0.208  -0.059   0.238
    1UNL    H35   72   0.292   0.309   0.157
    1UNL    H36   73   0.282   0.116   0.353
    1UNL    H37   74   0.417   0.212  -0.020
    1UNL    H38   75   0.528   0.234   0.219
   0.00000   0.00000   0.00000   0.00000   0.00000   0.00000   0.00000   0.00000   0.00000
Generated with MDTraj, t= 69.0
 75
    1UNL     C1    1   0.377  -0.437   0.250
    1UNL     C2    2   0.364  -0.289   0.224
    1UNL     O1    3   0.279  -0.226   0.279
    1UNL     O2    4   0.470  -0.227   0.162
    1UNL     C3    5   0.461  -0.091   0.179
    1UNL     C4    6   0.426  -0.012   0.054
    1UNL     O3    7   0.296  -0.049   0.014
    1UNL     C5    8   0.193   0.049   0.004
    1UNL     O4    9   0.200   0.137  -0.101
    1UNL     C6   10   0.072   0.195  -0.122
    1UNL     C7   11   0.008   0.155  -0.254
    1UNL     O5   12  -0.134   0.192  -0.252
    1UNL     C8   13  -0.225   0.074  -0.236
    1UNL     O6   14  -0.367   0.097  -0.225
    1UNL     C9   15  -0.394   0.227  -0.176
    1UNL    C10   16  -0.331   0.254  -0.041
    1UNL    C11   17  -0.341   0.174   0.064
    1UNL    C12   18  -0.260   0.213   0.182
    1UNL    C13   19  -0.374   0.033   0.052
    1UNL    C14   20  -0.250  -0.049   0.077
    1UNL     O7   21  -0.183  -0.088  -0.014
    1UNL    C15   22  -0.223  -0.093   0.216
    1UNL    C16   23  -0.126  -0.180   0.244
    1UNL    C17   24  -0.125  -0.247   0.379
    1UNL    C18   25  -0.056  -0.264   0.135
    1UNL    C19   26  -0.207  -0.032  -0.357
    1UNL     O8   27  -0.282   0.002  -0.474
    1UNL    C20   28  -0.056  -0.035  -0.398
    1UNL     O9   29  -0.011  -0.160  -0.440
    1UNL    C21   30   0.035   0.009  -0.282
    1UNL    O10   31   0.164  -0.019  -0.317
    1UNL    C22   32   0.193   0.127   0.142
    1UNL    O11   33   0.153   0.046   0.243
    1UNL    C23   34   0.328   0.193   0.179
    1UNL    O12   35   0.358   0.163   0.316
    1UNL    C24   36   0.446   0.142   0.089
    1UNL    O13   37   0.562   0.162   0.167
    1UNL     H1   38   0.461  -0.464   0.311
    1UNL     H2   39   0.281  -0.474   0.276
    1UNL     H3   40   0.398  -0.495   0.160
    1UNL     H4   41   0.380  -0.070   0.253
    1UNL     H5   42   0.549  -0.052   0.230
    1UNL     H6   43   0.489  -0.044  -0.032
    1UNL     H7   44   0.106  -0.012  -0.011
    1UNL     H8   45   0.006   0.151  -0.047
    1UNL     H9   46   0.083   0.302  -0.101
    1UNL    H10   47   0.054   0.215  -0.331
    1UNL    H11   48  -0.204   0.025  -0.142
    1UNL    H12   49  -0.368   0.296  -0.258
    1UNL    H13   50  -0.499   0.238  -0.170
    1UNL    H14   51  -0.272   0.346  -0.042
    1UNL    H15   52  -0.254   0.319   0.200
    1UNL    H16   53  -0.299   0.171   0.276
    1UNL    H17   54  -0.160   0.175   0.180
    1UNL    H18   55  -0.433   0.013  -0.046
    1UNL    H19   56  -0.449  -0.000   0.131
    1UNL    H20   57  -0.287  -0.052   0.294
    1UNL    H21   58  -0.176  -0.196   0.457
    1UNL    H22   59  -0.028  -0.264   0.417
    1UNL    H23   60  -0.170  -0.344   0.367
    1UNL    H24   61   0.040  -0.303   0.163
    1UNL    H25   62  -0.058  -0.219   0.036
    1UNL    H26   63  -0.111  -0.357   0.122
    1UNL    H27   64  -0.234  -0.133  -0.317
    1UNL    H28   65  -0.351   0.065  -0.452
    1UNL    H29   66  -0.055   0.031  -0.485
    1UNL    H30   67   0.084  -0.151  -0.444
    1UNL    H31   68   0.015  -0.049  -0.188
    1UNL    H32   69   0.224   0.011  -0.236
    1UNL    H33   70   0.115   0.196   0.127
    1UNL    H34   71   0.205  -0.034   0.254
    1UNL    H35   72   0.325   0.301   0.161
    1UNL    H36   73   0.278   0.182   0.369
    1UNL    H37   74   0.466   0.209  -0.004
    1UNL    H38   75   0.536   0.158   0.260
   0.00000   0.00000   0.00000   0.00000   0.00000   0.00000   0.00000   0.00000   0.00000
Generated with MDTraj, t= 70.0
 75
    1UNL     C1    1   0.299  -0.422   0.171
    1UNL     C2    2   0.329  -0.278   0.204
    1UNL     O1    3   0.254  -0.214   0.274
    1UNL     O2    4   0.452  -0.229   0.171
    1UNL     C3    5   0.461  -0.093   0.195
    1UNL     C4    6   0.427  -0.011   0.067
    1UNL     O3    7   0.294  -0.046   0.014
    1UNL     C5    8   0.190   0.051   0.030
    1UNL     O4    9   0.179   0.144  -0.070
    1UNL     C6   10   0.040   0.169  -0.099
    1UNL     C7   11  -0.003   0.151  -0.248
    1UNL     O5   12  -0.143   0.189  -0.286
    1UNL     C8   13  -0.225   0.081  -0.257
    1UNL     O6   14  -0.360   0.108  -0.238
    1UNL     C9   15  -0.384   0.238  -0.191
    1UNL    C10   16  -0.353   0.256  -0.048
    1UNL    C11   17  -0.327   0.171   0.049
    1UNL    C12   18  -0.313   0.231   0.180
    1UNL    C13   19  -0.337   0.017   0.029
    1UNL    C14   20  -0.218  -0.061   0.070
    1UNL     O7   21  -0.124  -0.079  -0.007
    1UNL    C15   22  -0.190  -0.104   0.211
    1UNL    C16   23  -0.102  -0.192   0.259
    1UNL    C17   24  -0.080  -0.189   0.407
    1UNL    C18   25  -0.016  -0.287   0.180
    1UNL    C19   26  -0.209  -0.029  -0.366
    1UNL     O8   27  -0.290  -0.019  -0.477
    1UNL    C20   28  -0.057  -0.034  -0.404
    1UNL     O9   29  -0.019  -0.160  -0.460
    1UNL    C21   30   0.032   0.008  -0.289
    1UNL    O10   31   0.164  -0.023  -0.322
    1UNL    C22   32   0.200   0.124   0.176
    1UNL    O11   33   0.145   0.037   0.273
    1UNL    C23   34   0.341   0.175   0.213
    1UNL    O12   35   0.388   0.116   0.331
    1UNL    C24   36   0.438   0.143   0.097
    1UNL    O13   37   0.567   0.196   0.121
    1UNL     H1   38   0.345  -0.444   0.077
    1UNL     H2   39   0.322  -0.484   0.253
    1UNL     H3   40   0.191  -0.432   0.160
    1UNL     H4   41   0.382  -0.066   0.269
    1UNL     H5   42   0.552  -0.056   0.250
    1UNL     H6   43   0.483  -0.042  -0.022
    1UNL     H7   44   0.103  -0.015   0.030
    1UNL     H8   45  -0.013   0.104  -0.030
    1UNL     H9   46   0.019   0.270  -0.062
    1UNL    H10   47   0.051   0.227  -0.306
    1UNL    H11   48  -0.187   0.038  -0.164
    1UNL    H12   49  -0.326   0.316  -0.247
    1UNL    H13   50  -0.486   0.255  -0.217
    1UNL    H14   51  -0.341   0.359  -0.025
    1UNL    H15   52  -0.334   0.338   0.193
    1UNL    H16   53  -0.382   0.175   0.246
    1UNL    H17   54  -0.219   0.216   0.229
    1UNL    H18   55  -0.358  -0.003  -0.079
    1UNL    H19   56  -0.428  -0.015   0.088
    1UNL    H20   57  -0.251  -0.057   0.284
    1UNL    H21   58  -0.168  -0.170   0.464
    1UNL    H22   59  -0.023  -0.108   0.437
    1UNL    H23   60  -0.041  -0.276   0.459
    1UNL    H24   61   0.068  -0.244   0.128
    1UNL    H25   62  -0.080  -0.346   0.120
    1UNL    H26   63   0.036  -0.349   0.255
    1UNL    H27   64  -0.234  -0.125  -0.311
    1UNL    H28   65  -0.364   0.048  -0.475
    1UNL    H29   66  -0.049   0.030  -0.494
    1UNL    H30   67   0.079  -0.159  -0.451
    1UNL    H31   68   0.010  -0.060  -0.204
    1UNL    H32   69   0.222  -0.017  -0.250
    1UNL    H33   70   0.128   0.200   0.176
    1UNL    H34   71   0.194  -0.050   0.271
    1UNL    H35   72   0.343   0.282   0.231
    1UNL    H36   73   0.326   0.141   0.402
    1UNL    H37   74   0.394   0.200   0.004
    1UNL    H38   75   0.590   0.174   0.215
   0.00000   0.00000   0.00000   0.00000   0.00000   0.00000   0.00000   0.00000   0.00000
Generated with MDTraj, t= 71.0
 75
    1UNL     C1    1   0.275  -0.413   0.102
    1UNL     C2    2   0.328  -0.283   0.163
    1UNL     O1    3   0.257  -0.231   0.248
    1UNL     O2    4   0.455  -0.241   0.125
    1UNL     C3    5   0.467  -0.107   0.162
    1UNL     C4    6   0.396  -0.017   0.060
    1UNL     O3    7   0.263  -0.056   0.054
    1UNL     C5    8   0.163   0.047   0.056
    1UNL     O4    9   0.160   0.136  -0.056
    1UNL     C6   10   0.031   0.178  -0.092
    1UNL     C7   11   0.007   0.142  -0.240
    1UNL     O5   12  -0.124   0.181  -0.282
    1UNL     C8   13  -0.214   0.070  -0.253
    1UNL     O6   14  -0.356   0.091  -0.236
    1UNL     C9   15  -0.380   0.221  -0.190
    1UNL    C10   16  -0.331   0.243  -0.048
    1UNL    C11   17  -0.333   0.159   0.054
    1UNL    C12   18  -0.307   0.218   0.193
    1UNL    C13   19  -0.344   0.007   0.047
    1UNL    C14   20  -0.204  -0.041   0.084
    1UNL     O7   21  -0.126  -0.073  -0.005
    1UNL    C15   22  -0.159  -0.052   0.221
    1UNL    C16   23  -0.086  -0.151   0.265
    1UNL    C17   24  -0.056  -0.154   0.410
    1UNL    C18   25  -0.038  -0.259   0.182
    1UNL    C19   26  -0.193  -0.034  -0.380
    1UNL     O8   27  -0.259  -0.004  -0.498
    1UNL    C20   28  -0.035  -0.043  -0.404
    1UNL     O9   29  -0.004  -0.177  -0.447
    1UNL    C21   30   0.043  -0.006  -0.275
    1UNL    O10   31   0.179  -0.022  -0.294
    1UNL    C22   32   0.180   0.129   0.192
    1UNL    O11   33   0.142   0.041   0.293
    1UNL    C23   34   0.320   0.188   0.212
    1UNL    O12   35   0.382   0.143   0.331
    1UNL    C24   36   0.407   0.137   0.095
    1UNL    O13   37   0.541   0.178   0.122
    1UNL     H1   38   0.208  -0.384   0.023
    1UNL     H2   39   0.361  -0.462   0.066
    1UNL     H3   40   0.227  -0.468   0.180
    1UNL     H4   41   0.417  -0.089   0.260
    1UNL     H5   42   0.575  -0.083   0.185
    1UNL     H6   43   0.438  -0.037  -0.038
    1UNL     H7   44   0.078  -0.022   0.056
    1UNL     H8   45  -0.038   0.118  -0.035
    1UNL     H9   46   0.015   0.281  -0.053
    1UNL    H10   47   0.077   0.204  -0.302
    1UNL    H11   48  -0.183   0.028  -0.157
    1UNL    H12   49  -0.331   0.290  -0.266
    1UNL    H13   50  -0.483   0.250  -0.185
    1UNL    H14   51  -0.290   0.343  -0.026
    1UNL    H15   52  -0.357   0.315   0.199
    1UNL    H16   53  -0.351   0.137   0.254
    1UNL    H17   54  -0.201   0.227   0.214
    1UNL    H18   55  -0.378  -0.017  -0.054
    1UNL    H19   56  -0.417  -0.029   0.126
    1UNL    H20   57  -0.207   0.012   0.294
    1UNL    H21   58  -0.118  -0.225   0.460
    1UNL    H22   59  -0.087  -0.060   0.443
    1UNL    H23   60   0.045  -0.184   0.434
    1UNL    H24   61   0.012  -0.221   0.095
    1UNL    H25   62  -0.122  -0.316   0.154
    1UNL    H26   63   0.042  -0.314   0.233
    1UNL    H27   64  -0.239  -0.132  -0.341
    1UNL    H28   65  -0.345   0.043  -0.499
    1UNL    H29   66  -0.007   0.025  -0.489
    1UNL    H30   67   0.100  -0.178  -0.452
    1UNL    H31   68   0.013  -0.081  -0.199
    1UNL    H32   69   0.235   0.009  -0.213
    1UNL    H33   70   0.112   0.209   0.189
    1UNL    H34   71   0.185  -0.050   0.280
    1UNL    H35   72   0.330   0.293   0.228
    1UNL    H36   73   0.313   0.146   0.406
    1UNL    H37   74   0.381   0.197  -0.004
    1UNL    H38   75   0.557   0.187   0.220
   0.00000   0.00000   0.00000   0.00000   0.00000   0.00000   0.00000   0.00000   0.00000
Generated with MDTraj, t= 72.0
 75
    1UNL     C1    1   0.309  -0.435   0.076
    1UNL     C2    2   0.333  -0.303   0.140
    1UNL     O1    3   0.274  -0.269   0.242
    1UNL     O2    4   0.436  -0.236   0.087
    1UNL     C3    5   0.447  -0.102   0.131
    1UNL     C4    6   0.373  -0.004   0.038
    1UNL     O3    7   0.240  -0.048   0.022
    1UNL     C5    8   0.144   0.059   0.043
    1UNL     O4    9   0.166   0.161  -0.050
    1UNL     C6   10   0.047   0.211  -0.104
    1UNL     C7   11   0.010   0.145  -0.236
    1UNL     O5   12  -0.129   0.174  -0.258
    1UNL     C8   13  -0.208   0.054  -0.247
    1UNL     O6   14  -0.348   0.063  -0.232
    1UNL     C9   15  -0.393   0.196  -0.199
    1UNL    C10   16  -0.341   0.256  -0.068
    1UNL    C11   17  -0.345   0.190   0.047
    1UNL    C12   18  -0.303   0.268   0.166
    1UNL    C13   19  -0.351   0.036   0.077
    1UNL    C14   20  -0.223  -0.042   0.097
    1UNL     O7   21  -0.174  -0.105   0.006
    1UNL    C15   22  -0.156  -0.044   0.229
    1UNL    C16   23  -0.085  -0.151   0.272
    1UNL    C17   24  -0.038  -0.151   0.416
    1UNL    C18   25  -0.048  -0.267   0.176
    1UNL    C19   26  -0.170  -0.036  -0.376
    1UNL     O8   27  -0.215   0.027  -0.491
    1UNL    C20   28  -0.012  -0.058  -0.371
    1UNL     O9   29   0.029  -0.190  -0.395
    1UNL    C21   30   0.053  -0.004  -0.241
    1UNL    O10   31   0.192  -0.019  -0.246
    1UNL    C22   32   0.168   0.110   0.190
    1UNL    O11   33   0.161   0.004   0.288
    1UNL    C23   34   0.298   0.189   0.198
    1UNL    O12   35   0.366   0.176   0.320
    1UNL    C24   36   0.400   0.144   0.086
    1UNL    O13   37   0.531   0.152   0.135
    1UNL     H1   38   0.214  -0.473   0.105
    1UNL     H2   39   0.307  -0.415  -0.030
    1UNL     H3   40   0.389  -0.497   0.108
    1UNL     H4   41   0.416  -0.097   0.238
    1UNL     H5   42   0.556  -0.081   0.138
    1UNL     H6   43   0.419  -0.020  -0.060
    1UNL     H7   44   0.041   0.020   0.038
    1UNL     H8   45  -0.030   0.207  -0.028
    1UNL     H9   46   0.055   0.319  -0.126
    1UNL    H10   47   0.054   0.199  -0.328
    1UNL    H11   48  -0.173   0.010  -0.153
    1UNL    H12   49  -0.354   0.269  -0.279
    1UNL    H13   50  -0.502   0.195  -0.199
    1UNL    H14   51  -0.324   0.361  -0.064
    1UNL    H15   52  -0.342   0.372   0.157
    1UNL    H16   53  -0.337   0.206   0.250
    1UNL    H17   54  -0.193   0.275   0.169
    1UNL    H18   55  -0.403  -0.015  -0.002
    1UNL    H19   56  -0.412   0.023   0.169
    1UNL    H20   57  -0.194   0.032   0.294
    1UNL    H21   58  -0.051  -0.251   0.447
    1UNL    H22   59  -0.101  -0.083   0.469
    1UNL    H23   60   0.068  -0.141   0.417
    1UNL    H24   61   0.009  -0.225   0.093
    1UNL    H25   62  -0.134  -0.309   0.129
    1UNL    H26   63   0.022  -0.342   0.207
    1UNL    H27   64  -0.230  -0.135  -0.370
    1UNL    H28   65  -0.303   0.067  -0.484
    1UNL    H29   66   0.024   0.001  -0.460
    1UNL    H30   67   0.120  -0.198  -0.372
    1UNL    H31   68   0.013  -0.046  -0.149
    1UNL    H32   69   0.225  -0.012  -0.156
    1UNL    H33   70   0.088   0.176   0.215
    1UNL    H34   71   0.196  -0.082   0.252
    1UNL    H35   72   0.269   0.294   0.198
    1UNL    H36   73   0.326   0.106   0.369
    1UNL    H37   74   0.377   0.215  -0.006
    1UNL    H38   75   0.530   0.222   0.204
   0.00000   0.00000   0.00000   0.00000   0.00000   0.00000   0.00000   0.00000   0.00000
Generated with MDTraj, t= 73.0
 75
    1UNL     C1    1   0.336  -0.462   0.081
    1UNL     C2    2   0.336  -0.312   0.108
    1UNL     O1    3   0.246  -0.267   0.181
    1UNL     O2    4   0.447  -0.244   0.066
    1UNL     C3    5   0.461  -0.109   0.115
    1UNL     C4    6   0.391   0.002   0.040
    1UNL     O3    7   0.253  -0.028   0.016
    1UNL     C5    8   0.156   0.072   0.051
    1UNL     O4    9   0.165   0.181  -0.042
    1UNL     C6   10   0.034   0.217  -0.098
    1UNL     C7   11  -0.004   0.151  -0.233
    1UNL     O5   12  -0.145   0.166  -0.259
    1UNL     C8   13  -0.223   0.050  -0.247
    1UNL     O6   14  -0.360   0.055  -0.232
    1UNL     C9   15  -0.405   0.190  -0.199
    1UNL    C10   16  -0.341   0.253  -0.081
    1UNL    C11   17  -0.315   0.193   0.034
    1UNL    C12   18  -0.244   0.272   0.138
    1UNL    C13   19  -0.361   0.051   0.057
    1UNL    C14   20  -0.254  -0.045   0.092
    1UNL     O7   21  -0.189  -0.093   0.006
    1UNL    C15   22  -0.219  -0.075   0.233
    1UNL    C16   23  -0.120  -0.158   0.273
    1UNL    C17   24  -0.073  -0.140   0.414
    1UNL    C18   25  -0.038  -0.246   0.178
    1UNL    C19   26  -0.166  -0.049  -0.363
    1UNL     O8   27  -0.211   0.007  -0.481
    1UNL    C20   28  -0.011  -0.073  -0.354
    1UNL     O9   29   0.023  -0.208  -0.331
    1UNL    C21   30   0.057   0.006  -0.237
    1UNL    O10   31   0.199   0.017  -0.250
    1UNL    C22   32   0.175   0.109   0.199
    1UNL    O11   33   0.173  -0.007   0.284
    1UNL    C23   34   0.313   0.180   0.213
    1UNL    O12   35   0.375   0.172   0.343
    1UNL    C24   36   0.414   0.144   0.098
    1UNL    O13   37   0.545   0.174   0.140
    1UNL     H1   38   0.358  -0.517   0.170
    1UNL     H2   39   0.238  -0.501   0.055
    1UNL     H3   40   0.414  -0.494   0.016
    1UNL     H4   41   0.436  -0.116   0.222
    1UNL     H5   42   0.568  -0.089   0.114
    1UNL     H6   43   0.444  -0.005  -0.059
    1UNL     H7   44   0.053   0.032   0.041
    1UNL     H8   45  -0.051   0.191  -0.034
    1UNL     H9   46   0.034   0.328  -0.103
    1UNL    H10   47   0.041   0.201  -0.329
    1UNL    H11   48  -0.191   0.008  -0.151
    1UNL    H12   49  -0.399   0.248  -0.298
    1UNL    H13   50  -0.510   0.175  -0.176
    1UNL    H14   51  -0.314   0.358  -0.087
    1UNL    H15   52  -0.267   0.380   0.131
    1UNL    H16   53  -0.262   0.240   0.239
    1UNL    H17   54  -0.132   0.279   0.141
    1UNL    H18   55  -0.414   0.008  -0.027
    1UNL    H19   56  -0.432   0.048   0.137
    1UNL    H20   57  -0.264  -0.008   0.304
    1UNL    H21   58  -0.070  -0.231   0.467
    1UNL    H22   59  -0.136  -0.073   0.472
    1UNL    H23   60   0.029  -0.116   0.421
    1UNL    H24   61   0.007  -0.179   0.103
    1UNL    H25   62  -0.104  -0.312   0.124
    1UNL    H26   63   0.050  -0.291   0.215
    1UNL    H27   64  -0.220  -0.149  -0.353
    1UNL    H28   65  -0.307   0.032  -0.476
    1UNL    H29   66   0.030  -0.052  -0.457
    1UNL    H30   67   0.112  -0.214  -0.292
    1UNL    H31   68   0.040  -0.049  -0.145
    1UNL    H32   69   0.224   0.074  -0.169
    1UNL    H33   70   0.101   0.179   0.233
    1UNL    H34   71   0.212  -0.085   0.237
    1UNL    H35   72   0.298   0.290   0.199
    1UNL    H36   73   0.306   0.146   0.412
    1UNL    H37   74   0.393   0.216   0.006
    1UNL    H38   75   0.551   0.146   0.235
   0.00000   0.00000   0.00000   0.00000   0.00000   0.00000   0.00000   0.00000   0.00000
Generated with MDTraj, t= 74.0
 75
    1UNL     C1    1   0.346  -0.416   0.035
    1UNL     C2    2   0.350  -0.289   0.108
    1UNL     O1    3   0.252  -0.247   0.170
    1UNL     O2    4   0.471  -0.226   0.101
    1UNL     C3    5   0.458  -0.092   0.137
    1UNL     C4    6   0.407   0.010   0.034
    1UNL     O3    7   0.261  -0.018   0.009
    1UNL     C5    8   0.166   0.086   0.055
    1UNL     O4    9   0.141   0.203  -0.025
    1UNL     C6   10   0.013   0.200  -0.092
    1UNL     C7   11   0.003   0.152  -0.238
    1UNL     O5   12  -0.132   0.159  -0.285
    1UNL     C8   13  -0.224   0.051  -0.252
    1UNL     O6   14  -0.360   0.084  -0.256
    1UNL     C9   15  -0.394   0.219  -0.205
    1UNL    C10   16  -0.323   0.250  -0.081
    1UNL    C11   17  -0.316   0.185   0.035
    1UNL    C12   18  -0.254   0.243   0.156
    1UNL    C13   19  -0.367   0.046   0.050
    1UNL    C14   20  -0.253  -0.046   0.094
    1UNL     O7   21  -0.182  -0.097   0.012
    1UNL    C15   22  -0.232  -0.062   0.238
    1UNL    C16   23  -0.135  -0.141   0.284
    1UNL    C17   24  -0.127  -0.177   0.427
    1UNL    C18   25  -0.048  -0.219   0.200
    1UNL    C19   26  -0.178  -0.073  -0.352
    1UNL     O8   27  -0.241  -0.036  -0.474
    1UNL    C20   28  -0.022  -0.084  -0.359
    1UNL     O9   29   0.006  -0.223  -0.325
    1UNL    C21   30   0.057   0.007  -0.247
    1UNL    O10   31   0.199   0.006  -0.266
    1UNL    C22   32   0.193   0.125   0.199
    1UNL    O11   33   0.144   0.016   0.277
    1UNL    C23   34   0.344   0.162   0.229
    1UNL    O12   35   0.402   0.086   0.336
    1UNL    C24   36   0.427   0.153   0.102
    1UNL    O13   37   0.565   0.167   0.128
    1UNL     H1   38   0.438  -0.470   0.022
    1UNL     H2   39   0.284  -0.485   0.090
    1UNL     H3   40   0.318  -0.411  -0.069
    1UNL     H4   41   0.393  -0.087   0.224
    1UNL     H5   42   0.559  -0.072   0.167
    1UNL     H6   43   0.469   0.007  -0.061
    1UNL     H7   44   0.071   0.031   0.068
    1UNL     H8   45  -0.053   0.147  -0.026
    1UNL     H9   46  -0.037   0.301  -0.090
    1UNL    H10   47   0.068   0.219  -0.308
    1UNL    H11   48  -0.199   0.022  -0.149
    1UNL    H12   49  -0.350   0.285  -0.287
    1UNL    H13   50  -0.502   0.229  -0.210
    1UNL    H14   51  -0.282   0.348  -0.079
    1UNL    H15   52  -0.224   0.347   0.133
    1UNL    H16   53  -0.322   0.241   0.241
    1UNL    H17   54  -0.158   0.199   0.196
    1UNL    H18   55  -0.397   0.009  -0.047
    1UNL    H19   56  -0.457   0.026   0.101
    1UNL    H20   57  -0.294  -0.005   0.305
    1UNL    H21   58  -0.128  -0.279   0.454
    1UNL    H22   59  -0.210  -0.130   0.479
    1UNL    H23   60  -0.039  -0.143   0.471
    1UNL    H24   61  -0.013  -0.167   0.112
    1UNL    H25   62  -0.107  -0.306   0.171
    1UNL    H26   63   0.042  -0.242   0.251
    1UNL    H27   64  -0.217  -0.175  -0.322
    1UNL    H28   65  -0.196   0.043  -0.518
    1UNL    H29   66   0.019  -0.064  -0.462
    1UNL    H30   67   0.103  -0.218  -0.293
    1UNL    H31   68   0.044  -0.041  -0.149
    1UNL    H32   69   0.239   0.057  -0.194
    1UNL    H33   70   0.134   0.214   0.223
    1UNL    H34   71   0.195  -0.063   0.252
    1UNL    H35   72   0.341   0.270   0.263
    1UNL    H36   73   0.335   0.073   0.404
    1UNL    H37   74   0.406   0.240   0.026
    1UNL    H38   75   0.578   0.146   0.223
   0.00000   0.00000   0.00000   0.00000   0.00000   0.00000   0.00000   0.00000   0.00000
Generated with MDTraj, t= 75.0
 75
    1UNL     C1    1   0.282  -0.388   0.020
    1UNL     C2    2   0.326  -0.268   0.094
    1UNL     O1    3   0.265  -0.246   0.195
    1UNL     O2    4   0.442  -0.203   0.048
    1UNL     C3    5   0.483  -0.083   0.119
    1UNL     C4    6   0.432   0.030   0.040
    1UNL     O3    7   0.296  -0.010  -0.001
    1UNL     C5    8   0.191   0.074   0.045
    1UNL     O4    9   0.178   0.188  -0.039
    1UNL     C6   10   0.048   0.188  -0.092
    1UNL     C7   11   0.026   0.126  -0.229
    1UNL     O5   12  -0.113   0.159  -0.272
    1UNL     C8   13  -0.209   0.060  -0.246
    1UNL     O6   14  -0.339   0.098  -0.247
    1UNL     C9   15  -0.368   0.234  -0.208
    1UNL    C10   16  -0.321   0.268  -0.072
    1UNL    C11   17  -0.326   0.192   0.039
    1UNL    C12   18  -0.301   0.262   0.174
    1UNL    C13   19  -0.356   0.048   0.043
    1UNL    C14   20  -0.245  -0.051   0.081
    1UNL     O7   21  -0.151  -0.078   0.009
    1UNL    C15   22  -0.255  -0.102   0.218
    1UNL    C16   23  -0.157  -0.167   0.286
    1UNL    C17   24  -0.168  -0.183   0.436
    1UNL    C18   25  -0.055  -0.244   0.215
    1UNL    C19   26  -0.182  -0.070  -0.333
    1UNL     O8   27  -0.258  -0.064  -0.457
    1UNL    C20   28  -0.030  -0.080  -0.353
    1UNL     O9   29   0.003  -0.217  -0.371
    1UNL    C21   30   0.054  -0.026  -0.227
    1UNL    O10   31   0.189  -0.070  -0.235
    1UNL    C22   32   0.195   0.111   0.193
    1UNL    O11   33   0.144  -0.001   0.271
    1UNL    C23   34   0.342   0.171   0.229
    1UNL    O12   35   0.398   0.094   0.336
    1UNL    C24   36   0.428   0.176   0.106
    1UNL    O13   37   0.553   0.235   0.138
    1UNL     H1   38   0.319  -0.390  -0.082
    1UNL     H2   39   0.322  -0.470   0.075
    1UNL     H3   40   0.177  -0.396  -0.001
    1UNL     H4   41   0.433  -0.091   0.214
    1UNL     H5   42   0.590  -0.078   0.120
    1UNL     H6   43   0.492   0.042  -0.055
    1UNL     H7   44   0.103   0.005   0.045
    1UNL     H8   45  -0.024   0.149  -0.020
    1UNL     H9   46   0.025   0.298  -0.083
    1UNL    H10   47   0.099   0.178  -0.303
    1UNL    H11   48  -0.181   0.034  -0.143
    1UNL    H12   49  -0.327   0.303  -0.285
    1UNL    H13   50  -0.476   0.241  -0.208
    1UNL    H14   51  -0.276   0.366  -0.058
    1UNL    H15   52  -0.212   0.323   0.147
    1UNL    H16   53  -0.391   0.322   0.195
    1UNL    H17   54  -0.281   0.189   0.254
    1UNL    H18   55  -0.401   0.011  -0.047
    1UNL    H19   56  -0.440   0.034   0.103
    1UNL    H20   57  -0.335  -0.059   0.274
    1UNL    H21   58  -0.159  -0.280   0.476
    1UNL    H22   59  -0.262  -0.140   0.462
    1UNL    H23   60  -0.088  -0.124   0.471
    1UNL    H24   61   0.017  -0.193   0.156
    1UNL    H25   62  -0.111  -0.319   0.159
    1UNL    H26   63   0.007  -0.291   0.290
    1UNL    H27   64  -0.215  -0.161  -0.278
    1UNL    H28   65  -0.329   0.001  -0.434
    1UNL    H29   66  -0.011  -0.029  -0.450
    1UNL    H30   67   0.092  -0.240  -0.325
    1UNL    H31   68   0.002  -0.060  -0.136
    1UNL    H32   69   0.229  -0.061  -0.140
    1UNL    H33   70   0.123   0.196   0.198
    1UNL    H34   71   0.197  -0.081   0.251
    1UNL    H35   72   0.323   0.279   0.264
    1UNL    H36   73   0.348   0.097   0.421
    1UNL    H37   74   0.388   0.249   0.026
    1UNL    H38   75   0.574   0.197   0.227
   0.00000   0.00000   0.00000   0.00000   0.00000   0.00000   0.00000   0.00000   0.00000
Generated with MDTraj, t= 76.0
 75
    1UNL     C1    1   0.278  -0.332   0.002
    1UNL     C2    2   0.358  -0.248   0.103
    1UNL     O1    3   0.321  -0.227   0.213
    1UNL     O2    4   0.479  -0.204   0.054
    1UNL     C3    5   0.504  -0.077   0.109
    1UNL     C4    6   0.419   0.032   0.035
    1UNL     O3    7   0.282  -0.013   0.028
    1UNL     C5    8   0.173   0.081   0.048
    1UNL     O4    9   0.165   0.182  -0.051
    1UNL     C6   10   0.036   0.192  -0.111
    1UNL     C7   11   0.028   0.110  -0.243
    1UNL     O5   12  -0.106   0.149  -0.300
    1UNL     C8   13  -0.206   0.063  -0.249
    1UNL     O6   14  -0.338   0.113  -0.244
    1UNL     C9   15  -0.331   0.250  -0.206
    1UNL    C10   16  -0.325   0.276  -0.062
    1UNL    C11   17  -0.332   0.191   0.041
    1UNL    C12   18  -0.290   0.241   0.181
    1UNL    C13   19  -0.364   0.040   0.031
    1UNL    C14   20  -0.250  -0.035   0.095
    1UNL     O7   21  -0.148  -0.046   0.028
    1UNL    C15   22  -0.260  -0.083   0.231
    1UNL    C16   23  -0.171  -0.170   0.287
    1UNL    C17   24  -0.206  -0.239   0.420
    1UNL    C18   25  -0.064  -0.234   0.203
    1UNL    C19   26  -0.190  -0.077  -0.315
    1UNL     O8   27  -0.272  -0.083  -0.432
    1UNL    C20   28  -0.044  -0.096  -0.353
    1UNL     O9   29  -0.020  -0.229  -0.379
    1UNL    C21   30   0.052  -0.046  -0.247
    1UNL    O10   31   0.194  -0.072  -0.260
    1UNL    C22   32   0.181   0.120   0.194
    1UNL    O11   33   0.149   0.010   0.275
    1UNL    C23   34   0.332   0.171   0.230
    1UNL    O12   35   0.384   0.115   0.345
    1UNL    C24   36   0.430   0.169   0.110
    1UNL    O13   37   0.570   0.172   0.155
    1UNL     H1   38   0.237  -0.262  -0.071
    1UNL     H2   39   0.352  -0.397  -0.040
    1UNL     H3   40   0.190  -0.383   0.039
    1UNL     H4   41   0.469  -0.082   0.214
    1UNL     H5   42   0.610  -0.061   0.091
    1UNL     H6   43   0.452   0.042  -0.071
    1UNL     H7   44   0.084   0.016   0.045
    1UNL     H8   45  -0.033   0.178  -0.028
    1UNL     H9   46   0.021   0.300  -0.130
    1UNL    H10   47   0.100   0.153  -0.323
    1UNL    H11   48  -0.168   0.055  -0.144
    1UNL    H12   49  -0.238   0.286  -0.253
    1UNL    H13   50  -0.416   0.305  -0.243
    1UNL    H14   51  -0.290   0.372  -0.031
    1UNL    H15   52  -0.191   0.194   0.196
    1UNL    H16   53  -0.276   0.353   0.182
    1UNL    H17   54  -0.362   0.211   0.258
    1UNL    H18   55  -0.370   0.011  -0.071
    1UNL    H19   56  -0.458   0.023   0.072
    1UNL    H20   57  -0.343  -0.040   0.286
    1UNL    H21   58  -0.151  -0.329   0.434
    1UNL    H22   59  -0.309  -0.257   0.427
    1UNL    H23   60  -0.170  -0.171   0.495
    1UNL    H24   61  -0.003  -0.159   0.157
    1UNL    H25   62  -0.116  -0.290   0.130
    1UNL    H26   63   0.010  -0.295   0.259
    1UNL    H27   64  -0.224  -0.157  -0.248
    1UNL    H28   65  -0.286   0.011  -0.452
    1UNL    H29   66  -0.016  -0.047  -0.446
    1UNL    H30   67   0.072  -0.242  -0.367
    1UNL    H31   68   0.012  -0.088  -0.152
    1UNL    H32   69   0.234  -0.038  -0.183
    1UNL    H33   70   0.108   0.205   0.212
    1UNL    H34   71   0.198  -0.065   0.235
    1UNL    H35   72   0.314   0.279   0.264
    1UNL    H36   73   0.320   0.048   0.388
    1UNL    H37   74   0.417   0.259   0.041
    1UNL    H38   75   0.563   0.177   0.252
   0.00000   0.00000   0.00000   0.00000   0.00000   0.00000   0.00000   0.00000   0.00000
Generated with MDTraj, t= 77.0
 75
    1UNL     C1    1   0.306  -0.379   0.028
    1UNL     C2    2   0.362  -0.258   0.096
    1UNL     O1    3   0.309  -0.227   0.199
    1UNL     O2    4   0.479  -0.204   0.043
    1UNL     C3    5   0.502  -0.088   0.115
    1UNL     C4    6   0.428   0.030   0.046
    1UNL     O3    7   0.300  -0.020   0.004
    1UNL     C5    8   0.184   0.059   0.036
    1UNL     O4    9   0.175   0.169  -0.063
    1UNL     C6   10   0.039   0.204  -0.117
    1UNL     C7   11   0.021   0.139  -0.247
    1UNL     O5   12  -0.115   0.158  -0.304
    1UNL     C8   13  -0.210   0.063  -0.243
    1UNL     O6   14  -0.349   0.111  -0.239
    1UNL     C9   15  -0.358   0.251  -0.195
    1UNL    C10   16  -0.294   0.280  -0.068
    1UNL    C11   17  -0.301   0.204   0.041
    1UNL    C12   18  -0.290   0.281   0.167
    1UNL    C13   19  -0.357   0.059   0.042
    1UNL    C14   20  -0.249  -0.034   0.089
    1UNL     O7   21  -0.139  -0.030   0.037
    1UNL    C15   22  -0.281  -0.124   0.201
    1UNL    C16   23  -0.190  -0.206   0.263
    1UNL    C17   24  -0.229  -0.272   0.385
    1UNL    C18   25  -0.047  -0.220   0.215
    1UNL    C19   26  -0.190  -0.077  -0.305
    1UNL     O8   27  -0.267  -0.085  -0.431
    1UNL    C20   28  -0.037  -0.099  -0.328
    1UNL     O9   29  -0.022  -0.241  -0.315
    1UNL    C21   30   0.045  -0.017  -0.232
    1UNL    O10   31   0.180  -0.067  -0.256
    1UNL    C22   32   0.179   0.108   0.184
    1UNL    O11   33   0.154   0.007   0.276
    1UNL    C23   34   0.323   0.181   0.224
    1UNL    O12   35   0.380   0.117   0.331
    1UNL    C24   36   0.426   0.174   0.108
    1UNL    O13   37   0.559   0.213   0.155
    1UNL     H1   38   0.200  -0.366   0.048
    1UNL     H2   39   0.343  -0.375  -0.074
    1UNL     H3   40   0.333  -0.473   0.076
    1UNL     H4   41   0.464  -0.108   0.219
    1UNL     H5   42   0.611  -0.072   0.112
    1UNL     H6   43   0.482   0.033  -0.050
    1UNL     H7   44   0.103  -0.015   0.030
    1UNL     H8   45  -0.034   0.170  -0.045
    1UNL     H9   46   0.034   0.315  -0.112
    1UNL    H10   47   0.102   0.171  -0.321
    1UNL    H11   48  -0.174   0.060  -0.137
    1UNL    H12   49  -0.309   0.316  -0.265
    1UNL    H13   50  -0.466   0.273  -0.189
    1UNL    H14   51  -0.255   0.381  -0.052
    1UNL    H15   52  -0.301   0.220   0.257
    1UNL    H16   53  -0.186   0.322   0.188
    1UNL    H17   54  -0.360   0.366   0.180
    1UNL    H18   55  -0.388   0.034  -0.054
    1UNL    H19   56  -0.438   0.061   0.110
    1UNL    H20   57  -0.379  -0.113   0.242
    1UNL    H21   58  -0.144  -0.323   0.426
    1UNL    H22   59  -0.302  -0.344   0.373
    1UNL    H23   60  -0.256  -0.207   0.466
    1UNL    H24   61  -0.018  -0.116   0.210
    1UNL    H25   62  -0.047  -0.270   0.122
    1UNL    H26   63   0.026  -0.270   0.281
    1UNL    H27   64  -0.239  -0.159  -0.260
    1UNL    H28   65  -0.256  -0.002  -0.482
    1UNL    H29   66  -0.009  -0.069  -0.428
    1UNL    H30   67   0.071  -0.247  -0.285
    1UNL    H31   68   0.013  -0.051  -0.131
    1UNL    H32   69   0.229  -0.063  -0.164
    1UNL    H33   70   0.093   0.182   0.197
    1UNL    H34   71   0.216  -0.066   0.262
    1UNL    H35   72   0.300   0.286   0.262
    1UNL    H36   73   0.315   0.092   0.397
    1UNL    H37   74   0.393   0.242   0.026
    1UNL    H38   75   0.553   0.199   0.253
   0.00000   0.00000   0.00000   0.00000   0.00000   0.00000   0.00000   0.00000   0.00000
Generated with MDTraj, t= 78.0
 75
    1UNL     C1    1   0.393  -0.427   0.062
    1UNL     C2    2   0.379  -0.284   0.112
    1UNL     O1    3   0.290  -0.249   0.185
    1UNL     O2    4   0.479  -0.202   0.082
    1UNL     C3    5   0.467  -0.074   0.143
    1UNL     C4    6   0.426   0.027   0.036
    1UNL     O3    7   0.291  -0.005  -0.011
    1UNL     C5    8   0.184   0.080   0.029
    1UNL     O4    9   0.170   0.202  -0.048
    1UNL     C6   10   0.043   0.216  -0.119
    1UNL     C7   11   0.014   0.121  -0.230
    1UNL     O5   12  -0.124   0.154  -0.268
    1UNL     C8   13  -0.221   0.055  -0.226
    1UNL     O6   14  -0.357   0.100  -0.223
    1UNL     C9   15  -0.370   0.244  -0.206
    1UNL    C10   16  -0.317   0.289  -0.073
    1UNL    C11   17  -0.302   0.216   0.041
    1UNL    C12   18  -0.221   0.268   0.149
    1UNL    C13   19  -0.360   0.080   0.059
    1UNL    C14   20  -0.255  -0.017   0.099
    1UNL     O7   21  -0.143  -0.002   0.062
    1UNL    C15   22  -0.289  -0.124   0.192
    1UNL    C16   23  -0.200  -0.216   0.237
    1UNL    C17   24  -0.253  -0.331   0.314
    1UNL    C18   25  -0.057  -0.193   0.215
    1UNL    C19   26  -0.201  -0.066  -0.310
    1UNL     O8   27  -0.236  -0.053  -0.442
    1UNL    C20   28  -0.048  -0.112  -0.318
    1UNL     O9   29  -0.028  -0.251  -0.287
    1UNL    C21   30   0.039  -0.034  -0.224
    1UNL    O10   31   0.176  -0.072  -0.254
    1UNL    C22   32   0.185   0.127   0.180
    1UNL    O11   33   0.156   0.025   0.270
    1UNL    C23   34   0.334   0.180   0.209
    1UNL    O12   35   0.385   0.093   0.307
    1UNL    C24   36   0.427   0.175   0.084
    1UNL    O13   37   0.558   0.224   0.119
    1UNL     H1   38   0.331  -0.486   0.126
    1UNL     H2   39   0.364  -0.430  -0.043
    1UNL     H3   40   0.492  -0.474   0.059
    1UNL     H4   41   0.385  -0.083   0.218
    1UNL     H5   42   0.561  -0.053   0.201
    1UNL     H6   43   0.498   0.008  -0.042
    1UNL     H7   44   0.095   0.019   0.016
    1UNL     H8   45  -0.030   0.212  -0.038
    1UNL     H9   46   0.027   0.317  -0.165
    1UNL    H10   47   0.083   0.154  -0.313
    1UNL    H11   48  -0.193   0.026  -0.123
    1UNL    H12   49  -0.325   0.286  -0.294
    1UNL    H13   50  -0.478   0.270  -0.202
    1UNL    H14   51  -0.270   0.386  -0.082
    1UNL    H15   52  -0.274   0.298   0.241
    1UNL    H16   53  -0.154   0.182   0.181
    1UNL    H17   54  -0.157   0.357   0.127
    1UNL    H18   55  -0.395   0.044  -0.035
    1UNL    H19   56  -0.439   0.074   0.131
    1UNL    H20   57  -0.396  -0.138   0.207
    1UNL    H21   58  -0.178  -0.374   0.375
    1UNL    H22   59  -0.290  -0.402   0.245
    1UNL    H23   60  -0.330  -0.311   0.385
    1UNL    H24   61  -0.045  -0.083   0.214
    1UNL    H25   62  -0.009  -0.253   0.141
    1UNL    H26   63   0.001  -0.217   0.305
    1UNL    H27   64  -0.254  -0.144  -0.267
    1UNL    H28   65  -0.242   0.048  -0.449
    1UNL    H29   66  -0.011  -0.100  -0.418
    1UNL    H30   67   0.073  -0.263  -0.292
    1UNL    H31   68   0.014  -0.073  -0.122
    1UNL    H32   69   0.222  -0.041  -0.178
    1UNL    H33   70   0.109   0.215   0.187
    1UNL    H34   71   0.211  -0.053   0.239
    1UNL    H35   72   0.337   0.282   0.254
    1UNL    H36   73   0.321   0.085   0.384
    1UNL    H37   74   0.384   0.238   0.003
    1UNL    H38   75   0.580   0.187   0.208
   0.00000   0.00000   0.00000   0.00000   0.00000   0.00000   0.00000   0.00000   0.00000
Generated with MDTraj, t= 79.0
 75
    1UNL     C1    1   0.422  -0.429   0.107
    1UNL     C2    2   0.401  -0.284   0.124
    1UNL     O1    3   0.301  -0.236   0.180
    1UNL     O2    4   0.510  -0.206   0.088
    1UNL     C3    5   0.489  -0.076   0.139
    1UNL     C4    6   0.415   0.011   0.040
    1UNL     O3    7   0.270  -0.024   0.033
    1UNL     C5    8   0.174   0.073   0.053
    1UNL     O4    9   0.162   0.172  -0.055
    1UNL     C6   10   0.033   0.195  -0.112
    1UNL     C7   11  -0.005   0.124  -0.250
    1UNL     O5   12  -0.146   0.166  -0.281
    1UNL     C8   13  -0.237   0.054  -0.251
    1UNL     O6   14  -0.367   0.098  -0.242
    1UNL     C9   15  -0.378   0.228  -0.191
    1UNL    C10   16  -0.291   0.275  -0.080
    1UNL    C11   17  -0.287   0.226   0.045
    1UNL    C12   18  -0.212   0.305   0.155
    1UNL    C13   19  -0.345   0.098   0.092
    1UNL    C14   20  -0.236  -0.012   0.121
    1UNL     O7   21  -0.119   0.010   0.102
    1UNL    C15   22  -0.292  -0.140   0.158
    1UNL    C16   23  -0.211  -0.235   0.207
    1UNL    C17   24  -0.273  -0.370   0.246
    1UNL    C18   25  -0.070  -0.208   0.235
    1UNL    C19   26  -0.220  -0.068  -0.345
    1UNL     O8   27  -0.250  -0.038  -0.485
    1UNL    C20   28  -0.061  -0.118  -0.332
    1UNL     O9   29  -0.060  -0.248  -0.281
    1UNL    C21   30   0.019  -0.029  -0.235
    1UNL    O10   31   0.160  -0.065  -0.246
    1UNL    C22   32   0.197   0.140   0.193
    1UNL    O11   33   0.190   0.035   0.291
    1UNL    C23   34   0.340   0.203   0.197
    1UNL    O12   35   0.395   0.151   0.312
    1UNL    C24   36   0.437   0.167   0.078
    1UNL    O13   37   0.570   0.202   0.124
    1UNL     H1   38   0.451  -0.473   0.200
    1UNL     H2   39   0.335  -0.482   0.068
    1UNL     H3   40   0.494  -0.457   0.028
    1UNL     H4   41   0.424  -0.080   0.230
    1UNL     H5   42   0.586  -0.036   0.176
    1UNL     H6   43   0.461  -0.007  -0.054
    1UNL     H7   44   0.083   0.012   0.060
    1UNL     H8   45  -0.052   0.172  -0.048
    1UNL     H9   46   0.030   0.303  -0.132
    1UNL    H10   47   0.064   0.162  -0.327
    1UNL    H11   48  -0.208   0.030  -0.146
    1UNL    H12   49  -0.353   0.292  -0.276
    1UNL    H13   50  -0.491   0.238  -0.182
    1UNL    H14   51  -0.250   0.375  -0.097
    1UNL    H15   52  -0.238   0.414   0.161
    1UNL    H16   53  -0.221   0.244   0.248
    1UNL    H17   54  -0.105   0.318   0.123
    1UNL    H18   55  -0.418   0.052   0.027
    1UNL    H19   56  -0.396   0.114   0.185
    1UNL    H20   57  -0.398  -0.153   0.144
    1UNL    H21   58  -0.214  -0.420   0.316
    1UNL    H22   59  -0.286  -0.420   0.150
    1UNL    H23   60  -0.369  -0.360   0.289
    1UNL    H24   61  -0.066  -0.107   0.284
    1UNL    H25   62   0.002  -0.231   0.156
    1UNL    H26   63  -0.035  -0.276   0.309
    1UNL    H27   64  -0.292  -0.140  -0.318
    1UNL    H28   65  -0.287   0.053  -0.485
    1UNL    H29   66  -0.020  -0.112  -0.432
    1UNL    H30   67   0.026  -0.289  -0.270
    1UNL    H31   68  -0.014  -0.044  -0.130
    1UNL    H32   69   0.202  -0.031  -0.156
    1UNL    H33   70   0.111   0.217   0.215
    1UNL    H34   71   0.222  -0.045   0.246
    1UNL    H35   72   0.336   0.311   0.209
    1UNL    H36   73   0.326   0.154   0.382
    1UNL    H37   74   0.414   0.230  -0.008
    1UNL    H38   75   0.578   0.177   0.217
   0.00000   0.00000   0.00000   0.00000   0.00000   0.00000   0.00000   0.00000   0.00000
Generated with MDTraj, t= 80.0
 75
    1UNL     C1    1   0.388  -0.413   0.126
    1UNL     C2    2   0.402  -0.273   0.162
    1UNL     O1    3   0.334  -0.228   0.256
    1UNL     O2    4   0.499  -0.206   0.094
    1UNL     C3    5   0.498  -0.073   0.134
    1UNL     C4    6   0.427   0.008   0.033
    1UNL     O3    7   0.292  -0.048   0.024
    1UNL     C5    8   0.179   0.037   0.046
    1UNL     O4    9   0.176   0.142  -0.058
    1UNL     C6   10   0.052   0.182  -0.085
    1UNL     C7   11   0.002   0.112  -0.222
    1UNL     O5   12  -0.138   0.156  -0.243
    1UNL     C8   13  -0.235   0.053  -0.216
    1UNL     O6   14  -0.373   0.097  -0.203
    1UNL     C9   15  -0.390   0.240  -0.199
    1UNL    C10   16  -0.313   0.296  -0.082
    1UNL    C11   17  -0.286   0.235   0.037
    1UNL    C12   18  -0.213   0.304   0.145
    1UNL    C13   19  -0.334   0.102   0.072
    1UNL    C14   20  -0.229  -0.004   0.096
    1UNL     O7   21  -0.110   0.025   0.106
    1UNL    C15   22  -0.278  -0.142   0.103
    1UNL    C16   23  -0.212  -0.242   0.166
    1UNL    C17   24  -0.271  -0.375   0.176
    1UNL    C18   25  -0.083  -0.226   0.237
    1UNL    C19   26  -0.216  -0.054  -0.322
    1UNL     O8   27  -0.253   0.012  -0.443
    1UNL    C20   28  -0.070  -0.120  -0.328
    1UNL     O9   29  -0.075  -0.257  -0.322
    1UNL    C21   30   0.013  -0.044  -0.221
    1UNL    O10   31   0.146  -0.093  -0.219
    1UNL    C22   32   0.200   0.108   0.181
    1UNL    O11   33   0.212   0.020   0.290
    1UNL    C23   34   0.321   0.206   0.170
    1UNL    O12   35   0.371   0.213   0.296
    1UNL    C24   36   0.431   0.165   0.059
    1UNL    O13   37   0.558   0.227   0.084
    1UNL     H1   38   0.475  -0.467   0.161
    1UNL     H2   39   0.303  -0.466   0.172
    1UNL     H3   40   0.373  -0.427   0.019
    1UNL     H4   41   0.462  -0.056   0.238
    1UNL     H5   42   0.602  -0.039   0.140
    1UNL     H6   43   0.474  -0.007  -0.063
    1UNL     H7   44   0.090  -0.026   0.049
    1UNL     H8   45  -0.010   0.149  -0.003
    1UNL     H9   46   0.035   0.289  -0.105
    1UNL    H10   47   0.062   0.146  -0.306
    1UNL    H11   48  -0.205   0.013  -0.117
    1UNL    H12   49  -0.379   0.270  -0.303
    1UNL    H13   50  -0.501   0.265  -0.186
    1UNL    H14   51  -0.288   0.400  -0.082
    1UNL    H15   52  -0.203   0.413   0.119
    1UNL    H16   53  -0.250   0.274   0.246
    1UNL    H17   54  -0.105   0.277   0.133
    1UNL    H18   55  -0.404   0.074  -0.009
    1UNL    H19   56  -0.393   0.116   0.161
    1UNL    H20   57  -0.376  -0.156   0.063
    1UNL    H21   58  -0.221  -0.433   0.248
    1UNL    H22   59  -0.278  -0.420   0.077
    1UNL    H23   60  -0.369  -0.369   0.212
    1UNL    H24   61  -0.109  -0.214   0.345
    1UNL    H25   62  -0.020  -0.147   0.194
    1UNL    H26   63  -0.026  -0.312   0.214
    1UNL    H27   64  -0.275  -0.140  -0.300
    1UNL    H28   65  -0.241   0.108  -0.434
    1UNL    H29   66  -0.021  -0.099  -0.423
    1UNL    H30   67   0.012  -0.290  -0.337
    1UNL    H31   68  -0.028  -0.074  -0.124
    1UNL    H32   69   0.203  -0.069  -0.146
    1UNL    H33   70   0.100   0.165   0.205
    1UNL    H34   71   0.256  -0.066   0.275
    1UNL    H35   72   0.291   0.306   0.150
    1UNL    H36   73   0.359   0.121   0.333
    1UNL    H37   74   0.400   0.205  -0.035
    1UNL    H38   75   0.554   0.296   0.155
   0.00000   0.00000   0.00000   0.00000   0.00000   0.00000   0.00000   0.00000   0.00000
Generated with MDTraj, t= 81.0
 75
    1UNL     C1    1   0.370  -0.389   0.145
    1UNL     C2    2   0.419  -0.256   0.197
    1UNL     O1    3   0.371  -0.203   0.298
    1UNL     O2    4   0.522  -0.200   0.131
    1UNL     C3    5   0.531  -0.062   0.145
    1UNL     C4    6   0.438  -0.002   0.044
    1UNL     O3    7   0.303  -0.067   0.053
    1UNL     C5    8   0.190   0.020   0.052
    1UNL     O4    9   0.182   0.107  -0.067
    1UNL     C6   10   0.053   0.162  -0.096
    1UNL     C7   11  -0.010   0.094  -0.224
    1UNL     O5   12  -0.141   0.148  -0.234
    1UNL     C8   13  -0.242   0.049  -0.219
    1UNL     O6   14  -0.376   0.102  -0.198
    1UNL     C9   15  -0.383   0.239  -0.176
    1UNL    C10   16  -0.304   0.298  -0.064
    1UNL    C11   17  -0.296   0.252   0.065
    1UNL    C12   18  -0.223   0.310   0.179
    1UNL    C13   19  -0.355   0.111   0.099
    1UNL    C14   20  -0.250   0.010   0.101
    1UNL     O7   21  -0.133   0.043   0.114
    1UNL    C15   22  -0.283  -0.134   0.087
    1UNL    C16   23  -0.212  -0.239   0.135
    1UNL    C17   24  -0.245  -0.376   0.088
    1UNL    C18   25  -0.091  -0.214   0.222
    1UNL    C19   26  -0.230  -0.057  -0.336
    1UNL     O8   27  -0.264   0.006  -0.461
    1UNL    C20   28  -0.085  -0.119  -0.352
    1UNL     O9   29  -0.091  -0.255  -0.345
    1UNL    C21   30   0.000  -0.053  -0.233
    1UNL    O10   31   0.141  -0.098  -0.235
    1UNL    C22   32   0.205   0.106   0.172
    1UNL    O11   33   0.214   0.033   0.289
    1UNL    C23   34   0.329   0.199   0.163
    1UNL    O12   35   0.379   0.216   0.292
    1UNL    C24   36   0.432   0.152   0.047
    1UNL    O13   37   0.557   0.211   0.055
    1UNL     H1   38   0.459  -0.439   0.099
    1UNL     H2   39   0.344  -0.463   0.222
    1UNL     H3   40   0.290  -0.373   0.074
    1UNL     H4   41   0.509  -0.032   0.248
    1UNL     H5   42   0.634  -0.031   0.133
    1UNL     H6   43   0.467  -0.034  -0.058
    1UNL     H7   44   0.096  -0.037   0.054
    1UNL     H8   45  -0.021   0.154  -0.019
    1UNL     H9   46   0.072   0.267  -0.124
    1UNL    H10   47   0.057   0.121  -0.303
    1UNL    H11   48  -0.225  -0.004  -0.123
    1UNL    H12   49  -0.368   0.300  -0.266
    1UNL    H13   50  -0.497   0.252  -0.164
    1UNL    H14   51  -0.269   0.397  -0.087
    1UNL    H15   52  -0.158   0.401   0.159
    1UNL    H16   53  -0.286   0.325   0.268
    1UNL    H17   54  -0.148   0.237   0.214
    1UNL    H18   55  -0.434   0.085   0.025
    1UNL    H19   56  -0.407   0.117   0.195
    1UNL    H20   57  -0.369  -0.155   0.024
    1UNL    H21   58  -0.171  -0.439   0.131
    1UNL    H22   59  -0.256  -0.387  -0.018
    1UNL    H23   60  -0.333  -0.419   0.130
    1UNL    H24   61  -0.049  -0.307   0.261
    1UNL    H25   62  -0.110  -0.142   0.303
    1UNL    H26   63  -0.027  -0.155   0.158
    1UNL    H27   64  -0.305  -0.134  -0.317
    1UNL    H28   65  -0.292   0.097  -0.443
    1UNL    H29   66  -0.054  -0.085  -0.453
    1UNL    H30   67   0.003  -0.290  -0.337
    1UNL    H31   68  -0.039  -0.093  -0.140
    1UNL    H32   69   0.198  -0.069  -0.168
    1UNL    H33   70   0.105   0.167   0.178
    1UNL    H34   71   0.270  -0.052   0.288
    1UNL    H35   72   0.307   0.301   0.138
    1UNL    H36   73   0.321   0.161   0.351
    1UNL    H37   74   0.388   0.174  -0.045
    1UNL    H38   75   0.588   0.217   0.149
   0.00000   0.00000   0.00000   0.00000   0.00000   0.00000   0.00000   0.00000   0.00000
Generated with MDTraj, t= 82.0
 75
    1UNL     C1    1   0.415  -0.387   0.221
    1UNL     C2    2   0.426  -0.241   0.233
    1UNL     O1    3   0.355  -0.179   0.313
    1UNL     O2    4   0.527  -0.197   0.149
    1UNL     C3    5   0.539  -0.061   0.144
    1UNL     C4    6   0.448   0.005   0.043
    1UNL     O3    7   0.318  -0.062   0.051
    1UNL     C5    8   0.203   0.021   0.056
    1UNL     O4    9   0.184   0.075  -0.077
    1UNL     C6   10   0.048   0.136  -0.096
    1UNL     C7   11  -0.009   0.097  -0.237
    1UNL     O5   12  -0.146   0.158  -0.253
    1UNL     C8   13  -0.240   0.055  -0.222
    1UNL     O6   14  -0.371   0.106  -0.193
    1UNL     C9   15  -0.373   0.244  -0.170
    1UNL    C10   16  -0.308   0.305  -0.046
    1UNL    C11   17  -0.316   0.246   0.077
    1UNL    C12   18  -0.243   0.328   0.181
    1UNL    C13   19  -0.373   0.110   0.108
    1UNL    C14   20  -0.259   0.012   0.110
    1UNL     O7   21  -0.157   0.047   0.165
    1UNL    C15   22  -0.272  -0.126   0.055
    1UNL    C16   23  -0.200  -0.235   0.088
    1UNL    C17   24  -0.224  -0.369   0.022
    1UNL    C18   25  -0.098  -0.240   0.193
    1UNL    C19   26  -0.248  -0.051  -0.331
    1UNL     O8   27  -0.304  -0.001  -0.448
    1UNL    C20   28  -0.099  -0.116  -0.352
    1UNL     O9   29  -0.110  -0.255  -0.343
    1UNL    C21   30  -0.004  -0.060  -0.244
    1UNL    O10   31   0.133  -0.117  -0.277
    1UNL    C22   32   0.214   0.124   0.167
    1UNL    O11   33   0.191   0.064   0.299
    1UNL    C23   34   0.355   0.195   0.171
    1UNL    O12   35   0.422   0.150   0.287
    1UNL    C24   36   0.439   0.157   0.045
    1UNL    O13   37   0.565   0.213   0.039
    1UNL     H1   38   0.466  -0.414   0.124
    1UNL     H2   39   0.479  -0.437   0.294
    1UNL     H3   40   0.307  -0.405   0.226
    1UNL     H4   41   0.507  -0.025   0.242
    1UNL     H5   42   0.641  -0.029   0.139
    1UNL     H6   43   0.493  -0.018  -0.057
    1UNL     H7   44   0.117  -0.047   0.070
    1UNL     H8   45  -0.022   0.091  -0.027
    1UNL     H9   46   0.041   0.247  -0.095
    1UNL    H10   47   0.051   0.140  -0.310
    1UNL    H11   48  -0.212   0.002  -0.129
    1UNL    H12   49  -0.338   0.293  -0.259
    1UNL    H13   50  -0.482   0.279  -0.165
    1UNL    H14   51  -0.280   0.409  -0.060
    1UNL    H15   52  -0.147   0.383   0.153
    1UNL    H16   53  -0.311   0.393   0.237
    1UNL    H17   54  -0.212   0.258   0.259
    1UNL    H18   55  -0.447   0.089   0.028
    1UNL    H19   56  -0.433   0.112   0.202
    1UNL    H20   57  -0.344  -0.131  -0.023
    1UNL    H21   58  -0.133  -0.423   0.043
    1UNL    H22   59  -0.250  -0.359  -0.080
    1UNL    H23   60  -0.302  -0.427   0.065
    1UNL    H24   61  -0.007  -0.287   0.161
    1UNL    H25   62  -0.128  -0.297   0.281
    1UNL    H26   63  -0.080  -0.141   0.237
    1UNL    H27   64  -0.308  -0.137  -0.295
    1UNL    H28   65  -0.374   0.066  -0.428
    1UNL    H29   66  -0.063  -0.094  -0.457
    1UNL    H30   67  -0.019  -0.294  -0.325
    1UNL    H31   68  -0.028  -0.093  -0.143
    1UNL    H32   69   0.205  -0.073  -0.214
    1UNL    H33   70   0.129   0.202   0.155
    1UNL    H34   71   0.238  -0.023   0.294
    1UNL    H35   72   0.359   0.303   0.182
    1UNL    H36   73   0.352   0.140   0.351
    1UNL    H37   74   0.384   0.191  -0.037
    1UNL    H38   75   0.597   0.228   0.129
   0.00000   0.00000   0.00000   0.00000   0.00000   0.00000   0.00000   0.00000   0.00000
Generated with MDTraj, t= 83.0
 75
    1UNL     C1    1   0.452  -0.386   0.323
    1UNL     C2    2   0.442  -0.243   0.268
    1UNL     O1    3   0.353  -0.172   0.310
    1UNL     O2    4   0.534  -0.209   0.173
    1UNL     C3    5   0.540  -0.074   0.146
    1UNL     C4    6   0.456  -0.011   0.031
    1UNL     O3    7   0.317  -0.060   0.019
    1UNL     C5    8   0.204   0.023   0.040
    1UNL     O4    9   0.182   0.109  -0.080
    1UNL     C6   10   0.047   0.149  -0.087
    1UNL     C7   11  -0.007   0.094  -0.226
    1UNL     O5   12  -0.142   0.150  -0.247
    1UNL     C8   13  -0.250   0.064  -0.204
    1UNL     O6   14  -0.386   0.129  -0.200
    1UNL     C9   15  -0.364   0.269  -0.182
    1UNL    C10   16  -0.302   0.300  -0.048
    1UNL    C11   17  -0.317   0.243   0.072
    1UNL    C12   18  -0.248   0.320   0.180
    1UNL    C13   19  -0.371   0.107   0.079
    1UNL    C14   20  -0.271  -0.004   0.118
    1UNL     O7   21  -0.187   0.027   0.196
    1UNL    C15   22  -0.278  -0.134   0.045
    1UNL    C16   23  -0.193  -0.236   0.055
    1UNL    C17   24  -0.205  -0.352  -0.037
    1UNL    C18   25  -0.085  -0.243   0.155
    1UNL    C19   26  -0.260  -0.055  -0.294
    1UNL     O8   27  -0.327  -0.020  -0.410
    1UNL    C20   28  -0.114  -0.102  -0.340
    1UNL     O9   29  -0.109  -0.242  -0.354
    1UNL    C21   30  -0.012  -0.059  -0.244
    1UNL    O10   31   0.114  -0.110  -0.285
    1UNL    C22   32   0.222   0.115   0.162
    1UNL    O11   33   0.197   0.052   0.284
    1UNL    C23   34   0.356   0.188   0.160
    1UNL    O12   35   0.437   0.168   0.275
    1UNL    C24   36   0.441   0.147   0.036
    1UNL    O13   37   0.567   0.199   0.039
    1UNL     H1   38   0.455  -0.458   0.239
    1UNL     H2   39   0.546  -0.406   0.376
    1UNL     H3   40   0.360  -0.394   0.384
    1UNL     H4   41   0.510  -0.017   0.235
    1UNL     H5   42   0.645  -0.056   0.134
    1UNL     H6   43   0.516  -0.041  -0.058
    1UNL     H7   44   0.119  -0.047   0.049
    1UNL     H8   45  -0.015   0.110  -0.004
    1UNL     H9   46   0.042   0.259  -0.100
    1UNL    H10   47   0.047   0.136  -0.304
    1UNL    H11   48  -0.232   0.043  -0.098
    1UNL    H12   49  -0.317   0.317  -0.268
    1UNL    H13   50  -0.468   0.314  -0.188
    1UNL    H14   51  -0.248   0.393  -0.056
    1UNL    H15   52  -0.148   0.357   0.145
    1UNL    H16   53  -0.310   0.404   0.217
    1UNL    H17   54  -0.232   0.249   0.262
    1UNL    H18   55  -0.431   0.085  -0.013
    1UNL    H19   56  -0.450   0.115   0.160
    1UNL    H20   57  -0.363  -0.148  -0.022
    1UNL    H21   58  -0.132  -0.429  -0.014
    1UNL    H22   59  -0.209  -0.314  -0.135
    1UNL    H23   60  -0.304  -0.396  -0.035
    1UNL    H24   61  -0.015  -0.164   0.138
    1UNL    H25   62  -0.029  -0.332   0.134
    1UNL    H26   63  -0.120  -0.256   0.261
    1UNL    H27   64  -0.315  -0.135  -0.236
    1UNL    H28   65  -0.397   0.046  -0.387
    1UNL    H29   66  -0.092  -0.061  -0.442
    1UNL    H30   67  -0.018  -0.272  -0.361
    1UNL    H31   68  -0.037  -0.107  -0.149
    1UNL    H32   69   0.171  -0.094  -0.213
    1UNL    H33   70   0.140   0.196   0.158
    1UNL    H34   71   0.247  -0.029   0.299
    1UNL    H35   72   0.335   0.297   0.158
    1UNL    H36   73   0.371   0.170   0.353
    1UNL    H37   74   0.388   0.190  -0.041
    1UNL    H38   75   0.578   0.241   0.127
   0.00000   0.00000   0.00000   0.00000   0.00000   0.00000   0.00000   0.00000   0.00000
Generated with MDTraj, t= 84.0
 75
    1UNL     C1    1   0.498  -0.398   0.335
    1UNL     C2    2   0.462  -0.257   0.298
    1UNL     O1    3   0.385  -0.187   0.357
    1UNL     O2    4   0.524  -0.212   0.180
    1UNL     C3    5   0.520  -0.072   0.156
    1UNL     C4    6   0.437  -0.028   0.041
    1UNL     O3    7   0.302  -0.072   0.036
    1UNL     C5    8   0.204   0.028   0.034
    1UNL     O4    9   0.183   0.097  -0.100
    1UNL     C6   10   0.053   0.161  -0.116
    1UNL     C7   11  -0.010   0.108  -0.248
    1UNL     O5   12  -0.146   0.163  -0.258
    1UNL     C8   13  -0.244   0.078  -0.206
    1UNL     O6   14  -0.371   0.143  -0.216
    1UNL     C9   15  -0.376   0.276  -0.153
    1UNL    C10   16  -0.301   0.303  -0.033
    1UNL    C11   17  -0.307   0.232   0.079
    1UNL    C12   18  -0.220   0.269   0.194
    1UNL    C13   19  -0.385   0.102   0.082
    1UNL    C14   20  -0.291  -0.009   0.118
    1UNL     O7   21  -0.224   0.004   0.218
    1UNL    C15   22  -0.287  -0.127   0.032
    1UNL    C16   23  -0.197  -0.225   0.029
    1UNL    C17   24  -0.220  -0.340  -0.066
    1UNL    C18   25  -0.079  -0.220   0.124
    1UNL    C19   26  -0.258  -0.056  -0.291
    1UNL     O8   27  -0.339  -0.046  -0.405
    1UNL    C20   28  -0.109  -0.094  -0.335
    1UNL     O9   29  -0.099  -0.236  -0.346
    1UNL    C21   30  -0.011  -0.045  -0.235
    1UNL    O10   31   0.110  -0.122  -0.253
    1UNL    C22   32   0.218   0.136   0.145
    1UNL    O11   33   0.197   0.074   0.274
    1UNL    C23   34   0.357   0.206   0.131
    1UNL    O12   35   0.427   0.212   0.254
    1UNL    C24   36   0.444   0.133   0.027
    1UNL    O13   37   0.582   0.167   0.042
    1UNL     H1   38   0.485  -0.463   0.248
    1UNL     H2   39   0.605  -0.411   0.360
    1UNL     H3   40   0.428  -0.435   0.414
    1UNL     H4   41   0.469  -0.029   0.244
    1UNL     H5   42   0.623  -0.040   0.141
    1UNL     H6   43   0.483  -0.078  -0.046
    1UNL     H7   44   0.113  -0.028   0.058
    1UNL     H8   45  -0.010   0.137  -0.028
    1UNL     H9   46   0.080   0.268  -0.130
    1UNL    H10   47   0.052   0.138  -0.326
    1UNL    H11   48  -0.230   0.068  -0.097
    1UNL    H12   49  -0.337   0.337  -0.232
    1UNL    H13   50  -0.483   0.304  -0.148
    1UNL    H14   51  -0.244   0.397  -0.036
    1UNL    H15   52  -0.126   0.321   0.168
    1UNL    H16   53  -0.273   0.328   0.271
    1UNL    H17   54  -0.196   0.176   0.245
    1UNL    H18   55  -0.443   0.091  -0.014
    1UNL    H19   56  -0.460   0.101   0.170
    1UNL    H20   57  -0.366  -0.137  -0.038
    1UNL    H21   58  -0.214  -0.436  -0.018
    1UNL    H22   59  -0.166  -0.335  -0.157
    1UNL    H23   60  -0.317  -0.339  -0.116
    1UNL    H24   61  -0.105  -0.178   0.222
    1UNL    H25   62  -0.020  -0.143   0.084
    1UNL    H26   63  -0.018  -0.313   0.122
    1UNL    H27   64  -0.303  -0.142  -0.231
    1UNL    H28   65  -0.420   0.007  -0.386
    1UNL    H29   66  -0.085  -0.043  -0.433
    1UNL    H30   67  -0.002  -0.254  -0.370
    1UNL    H31   68  -0.040  -0.075  -0.134
    1UNL    H32   69   0.176  -0.094  -0.177
    1UNL    H33   70   0.139   0.217   0.139
    1UNL    H34   71   0.256  -0.004   0.292
    1UNL    H35   72   0.353   0.312   0.089
    1UNL    H36   73   0.359   0.218   0.321
    1UNL    H37   74   0.414   0.158  -0.069
    1UNL    H38   75   0.587   0.239   0.110
   0.00000   0.00000   0.00000   0.00000   0.00000   0.00000   0.00000   0.00000   0.00000
Generated with MDTraj, t= 85.0
 75
    1UNL     C1    1   0.481  -0.395   0.311
    1UNL     C2    2   0.466  -0.249   0.298
    1UNL     O1    3   0.424  -0.192   0.390
    1UNL     O2    4   0.499  -0.197   0.177
    1UNL     C3    5   0.502  -0.057   0.165
    1UNL     C4    6   0.417  -0.023   0.046
    1UNL     O3    7   0.278  -0.056   0.064
    1UNL     C5    8   0.189   0.053   0.045
    1UNL     O4    9   0.193   0.087  -0.099
    1UNL     C6   10   0.079   0.168  -0.141
    1UNL     C7   11   0.003   0.108  -0.264
    1UNL     O5   12  -0.139   0.157  -0.247
    1UNL     C8   13  -0.238   0.070  -0.200
    1UNL     O6   14  -0.367   0.124  -0.188
    1UNL     C9   15  -0.340   0.263  -0.160
    1UNL    C10   16  -0.275   0.297  -0.024
    1UNL    C11   17  -0.277   0.217   0.083
    1UNL    C12   18  -0.207   0.265   0.203
    1UNL    C13   19  -0.371   0.100   0.091
    1UNL    C14   20  -0.308  -0.031   0.124
    1UNL     O7   21  -0.260  -0.044   0.235
    1UNL    C15   22  -0.320  -0.142   0.033
    1UNL    C16   23  -0.234  -0.242   0.021
    1UNL    C17   24  -0.253  -0.347  -0.082
    1UNL    C18   25  -0.111  -0.247   0.112
    1UNL    C19   26  -0.248  -0.046  -0.302
    1UNL     O8   27  -0.315  -0.008  -0.415
    1UNL    C20   28  -0.113  -0.106  -0.340
    1UNL     O9   29  -0.115  -0.251  -0.320
    1UNL    C21   30  -0.001  -0.046  -0.250
    1UNL    O10   31   0.125  -0.114  -0.266
    1UNL    C22   32   0.217   0.171   0.141
    1UNL    O11   33   0.199   0.120   0.274
    1UNL    C23   34   0.370   0.215   0.132
    1UNL    O12   35   0.446   0.212   0.245
    1UNL    C24   36   0.443   0.133   0.022
    1UNL    O13   37   0.582   0.173   0.010
    1UNL     H1   38   0.475  -0.444   0.215
    1UNL     H2   39   0.581  -0.422   0.349
    1UNL     H3   40   0.398  -0.443   0.370
    1UNL     H4   41   0.457  -0.015   0.260
    1UNL     H5   42   0.606  -0.024   0.138
    1UNL     H6   43   0.444  -0.085  -0.040
    1UNL     H7   44   0.088   0.014   0.068
    1UNL     H8   45   0.009   0.161  -0.055
    1UNL     H9   46   0.099   0.274  -0.167
    1UNL    H10   47   0.046   0.139  -0.354
    1UNL    H11   48  -0.223   0.024  -0.102
    1UNL    H12   49  -0.279   0.299  -0.241
    1UNL    H13   50  -0.436   0.316  -0.169
    1UNL    H14   51  -0.219   0.388  -0.019
    1UNL    H15   52  -0.111   0.316   0.185
    1UNL    H16   53  -0.263   0.346   0.256
    1UNL    H17   54  -0.197   0.183   0.277
    1UNL    H18   55  -0.415   0.082  -0.011
    1UNL    H19   56  -0.457   0.128   0.162
    1UNL    H20   57  -0.400  -0.129  -0.038
    1UNL    H21   58  -0.266  -0.444  -0.042
    1UNL    H22   59  -0.168  -0.341  -0.147
    1UNL    H23   60  -0.330  -0.322  -0.152
    1UNL    H24   61  -0.071  -0.349   0.127
    1UNL    H25   62  -0.135  -0.223   0.217
    1UNL    H26   63  -0.035  -0.179   0.085
    1UNL    H27   64  -0.310  -0.133  -0.266
    1UNL    H28   65  -0.399   0.039  -0.395
    1UNL    H29   66  -0.099  -0.084  -0.449
    1UNL    H30   67  -0.025  -0.281  -0.351
    1UNL    H31   68  -0.028  -0.073  -0.146
    1UNL    H32   69   0.181  -0.091  -0.191
    1UNL    H33   70   0.150   0.257   0.124
    1UNL    H34   71   0.250   0.036   0.288
    1UNL    H35   72   0.377   0.323   0.096
    1UNL    H36   73   0.377   0.220   0.320
    1UNL    H37   74   0.399   0.150  -0.072
    1UNL    H38   75   0.605   0.217   0.094
   0.00000   0.00000   0.00000   0.00000   0.00000   0.00000   0.00000   0.00000   0.00000
Generated with MDTraj, t= 86.0
 75
    1UNL     C1    1   0.430  -0.387   0.327
    1UNL     C2    2   0.463  -0.239   0.296
    1UNL     O1    3   0.440  -0.154   0.375
    1UNL     O2    4   0.514  -0.212   0.163
    1UNL     C3    5   0.514  -0.072   0.142
    1UNL     C4    6   0.418  -0.021   0.034
    1UNL     O3    7   0.287  -0.045   0.078
    1UNL     C5    8   0.186   0.060   0.050
    1UNL     O4    9   0.184   0.099  -0.091
    1UNL     C6   10   0.053   0.160  -0.118
    1UNL     C7   11   0.006   0.103  -0.253
    1UNL     O5   12  -0.128   0.159  -0.275
    1UNL     C8   13  -0.228   0.078  -0.215
    1UNL     O6   14  -0.352   0.140  -0.197
    1UNL     C9   15  -0.329   0.263  -0.136
    1UNL    C10   16  -0.252   0.269  -0.004
    1UNL    C11   17  -0.273   0.197   0.107
    1UNL    C12   18  -0.181   0.207   0.223
    1UNL    C13   19  -0.381   0.102   0.116
    1UNL    C14   20  -0.331  -0.041   0.142
    1UNL     O7   21  -0.258  -0.068   0.239
    1UNL    C15   22  -0.348  -0.137   0.031
    1UNL    C16   23  -0.275  -0.246   0.029
    1UNL    C17   24  -0.304  -0.356  -0.066
    1UNL    C18   25  -0.158  -0.261   0.113
    1UNL    C19   26  -0.227  -0.051  -0.316
    1UNL     O8   27  -0.271  -0.006  -0.441
    1UNL    C20   28  -0.096  -0.118  -0.342
    1UNL     O9   29  -0.121  -0.254  -0.314
    1UNL    C21   30   0.015  -0.052  -0.257
    1UNL    O10   31   0.145  -0.098  -0.275
    1UNL    C22   32   0.218   0.183   0.134
    1UNL    O11   33   0.190   0.163   0.270
    1UNL    C23   34   0.375   0.225   0.125
    1UNL    O12   35   0.444   0.218   0.244
    1UNL    C24   36   0.445   0.136   0.011
    1UNL    O13   37   0.584   0.177  -0.007
    1UNL     H1   38   0.443  -0.449   0.237
    1UNL     H2   39   0.502  -0.427   0.402
    1UNL     H3   40   0.323  -0.396   0.359
    1UNL     H4   41   0.481  -0.021   0.238
    1UNL     H5   42   0.618  -0.051   0.106
    1UNL     H6   43   0.425  -0.078  -0.058
    1UNL     H7   44   0.083   0.024   0.074
    1UNL     H8   45  -0.029   0.137  -0.046
    1UNL     H9   46   0.068   0.266  -0.130
    1UNL    H10   47   0.062   0.145  -0.332
    1UNL    H11   48  -0.208   0.039  -0.113
    1UNL    H12   49  -0.260   0.315  -0.204
    1UNL    H13   50  -0.423   0.319  -0.132
    1UNL    H14   51  -0.164   0.335  -0.004
    1UNL    H15   52  -0.081   0.178   0.192
    1UNL    H16   53  -0.158   0.310   0.256
    1UNL    H17   54  -0.219   0.146   0.309
    1UNL    H18   55  -0.453   0.107   0.028
    1UNL    H19   56  -0.428   0.133   0.216
    1UNL    H20   57  -0.430  -0.128  -0.040
    1UNL    H21   58  -0.313  -0.447  -0.014
    1UNL    H22   59  -0.219  -0.359  -0.135
    1UNL    H23   60  -0.385  -0.327  -0.126
    1UNL    H24   61  -0.089  -0.178   0.094
    1UNL    H25   62  -0.088  -0.345   0.082
    1UNL    H26   63  -0.188  -0.263   0.213
    1UNL    H27   64  -0.297  -0.135  -0.285
    1UNL    H28   65  -0.209   0.057  -0.479
    1UNL    H29   66  -0.067  -0.116  -0.449
    1UNL    H30   67  -0.037  -0.298  -0.321
    1UNL    H31   68  -0.008  -0.084  -0.153
    1UNL    H32   69   0.200  -0.049  -0.207
    1UNL    H33   70   0.156   0.263   0.093
    1UNL    H34   71   0.222   0.076   0.297
    1UNL    H35   72   0.381   0.335   0.105
    1UNL    H36   73   0.379   0.221   0.315
    1UNL    H37   74   0.402   0.159  -0.082
    1UNL    H38   75   0.608   0.216   0.081
   0.00000   0.00000   0.00000   0.00000   0.00000   0.00000   0.00000   0.00000   0.00000
Generated with MDTraj, t= 87.0
 75
    1UNL     C1    1   0.395  -0.335   0.326
    1UNL     C2    2   0.440  -0.199   0.280
    1UNL     O1    3   0.417  -0.104   0.345
    1UNL     O2    4   0.502  -0.197   0.162
    1UNL     C3    5   0.533  -0.067   0.120
    1UNL     C4    6   0.421  -0.011   0.033
    1UNL     O3    7   0.292  -0.041   0.092
    1UNL     C5    8   0.192   0.063   0.061
    1UNL     O4    9   0.193   0.074  -0.083
    1UNL     C6   10   0.086   0.161  -0.128
    1UNL     C7   11   0.013   0.107  -0.257
    1UNL     O5   12  -0.123   0.163  -0.245
    1UNL     C8   13  -0.226   0.067  -0.210
    1UNL     O6   14  -0.345   0.132  -0.193
    1UNL     C9   15  -0.329   0.261  -0.132
    1UNL    C10   16  -0.228   0.264  -0.019
    1UNL    C11   17  -0.248   0.183   0.089
    1UNL    C12   18  -0.167   0.185   0.213
    1UNL    C13   19  -0.368   0.088   0.112
    1UNL    C14   20  -0.330  -0.052   0.151
    1UNL     O7   21  -0.291  -0.079   0.261
    1UNL    C15   22  -0.370  -0.156   0.054
    1UNL    C16   23  -0.308  -0.267   0.020
    1UNL    C17   24  -0.352  -0.350  -0.091
    1UNL    C18   25  -0.181  -0.305   0.094
    1UNL    C19   26  -0.230  -0.043  -0.317
    1UNL     O8   27  -0.273   0.013  -0.441
    1UNL    C20   28  -0.093  -0.112  -0.336
    1UNL     O9   29  -0.112  -0.251  -0.308
    1UNL    C21   30   0.017  -0.053  -0.247
    1UNL    O10   31   0.143  -0.110  -0.267
    1UNL    C22   32   0.234   0.190   0.141
    1UNL    O11   33   0.223   0.154   0.283
    1UNL    C23   34   0.385   0.226   0.113
    1UNL    O12   35   0.453   0.209   0.233
    1UNL    C24   36   0.450   0.138   0.001
    1UNL    O13   37   0.588   0.170   0.011
    1UNL     H1   38   0.433  -0.412   0.254
    1UNL     H2   39   0.439  -0.351   0.427
    1UNL     H3   40   0.285  -0.332   0.323
    1UNL     H4   41   0.526  -0.004   0.212
    1UNL     H5   42   0.632  -0.061   0.069
    1UNL     H6   43   0.428  -0.066  -0.060
    1UNL     H7   44   0.088   0.045   0.097
    1UNL     H8   45   0.014   0.169  -0.046
    1UNL     H9   46   0.121   0.261  -0.143
    1UNL    H10   47   0.062   0.146  -0.344
    1UNL    H11   48  -0.194   0.032  -0.109
    1UNL    H12   49  -0.303   0.326  -0.218
    1UNL    H13   50  -0.430   0.287  -0.098
    1UNL    H14   51  -0.137   0.316  -0.036
    1UNL    H15   52  -0.092   0.109   0.206
    1UNL    H16   53  -0.107   0.277   0.217
    1UNL    H17   54  -0.234   0.168   0.302
    1UNL    H18   55  -0.415   0.083   0.008
    1UNL    H19   56  -0.440   0.121   0.195
    1UNL    H20   57  -0.447  -0.124  -0.012
    1UNL    H21   58  -0.330  -0.451  -0.074
    1UNL    H22   59  -0.298  -0.324  -0.183
    1UNL    H23   60  -0.454  -0.334  -0.116
    1UNL    H24   61  -0.206  -0.334   0.192
    1UNL    H25   62  -0.122  -0.209   0.110
    1UNL    H26   63  -0.132  -0.386   0.042
    1UNL    H27   64  -0.310  -0.123  -0.298
    1UNL    H28   65  -0.217   0.094  -0.453
    1UNL    H29   66  -0.066  -0.117  -0.441
    1UNL    H30   67  -0.025  -0.294  -0.292
    1UNL    H31   68  -0.012  -0.075  -0.141
    1UNL    H32   69   0.203  -0.076  -0.193
    1UNL    H33   70   0.174   0.278   0.129
    1UNL    H34   71   0.263   0.066   0.299
    1UNL    H35   72   0.400   0.333   0.101
    1UNL    H36   73   0.397   0.231   0.312
    1UNL    H37   74   0.419   0.166  -0.098
    1UNL    H38   75   0.597   0.194   0.105
   0.00000   0.00000   0.00000   0.00000   0.00000   0.00000   0.00000   0.00000   0.00000
Generated with MDTraj, t= 88.0
 75
    1UNL     C1    1   0.353  -0.308   0.338
    1UNL     C2    2   0.419  -0.180   0.294
    1UNL     O1    3   0.379  -0.075   0.341
    1UNL     O2    4   0.513  -0.190   0.195
    1UNL     C3    5   0.551  -0.064   0.155
    1UNL     C4    6   0.468  -0.007   0.033
    1UNL     O3    7   0.332  -0.053   0.041
    1UNL     C5    8   0.222   0.046   0.046
    1UNL     O4    9   0.207   0.095  -0.091
    1UNL     C6   10   0.080   0.159  -0.114
    1UNL     C7   11   0.011   0.100  -0.238
    1UNL     O5   12  -0.121   0.163  -0.231
    1UNL     C8   13  -0.228   0.074  -0.204
    1UNL     O6   14  -0.347   0.136  -0.163
    1UNL     C9   15  -0.338   0.267  -0.107
    1UNL    C10   16  -0.240   0.262   0.005
    1UNL    C11   17  -0.258   0.178   0.105
    1UNL    C12   18  -0.159   0.147   0.215
    1UNL    C13   19  -0.384   0.093   0.119
    1UNL    C14   20  -0.345  -0.055   0.122
    1UNL     O7   21  -0.277  -0.088   0.214
    1UNL    C15   22  -0.386  -0.145   0.016
    1UNL    C16   23  -0.328  -0.266   0.002
    1UNL    C17   24  -0.371  -0.370  -0.100
    1UNL    C18   25  -0.210  -0.311   0.086
    1UNL    C19   26  -0.237  -0.037  -0.312
    1UNL     O8   27  -0.274   0.018  -0.439
    1UNL    C20   28  -0.097  -0.113  -0.330
    1UNL     O9   29  -0.106  -0.254  -0.297
    1UNL    C21   30   0.006  -0.058  -0.231
    1UNL    O10   31   0.128  -0.126  -0.245
    1UNL    C22   32   0.253   0.166   0.134
    1UNL    O11   33   0.232   0.146   0.272
    1UNL    C23   34   0.393   0.222   0.106
    1UNL    O12   35   0.480   0.225   0.226
    1UNL    C24   36   0.468   0.143  -0.006
    1UNL    O13   37   0.599   0.186  -0.029
    1UNL     H1   38   0.396  -0.398   0.287
    1UNL     H2   39   0.359  -0.321   0.449
    1UNL     H3   40   0.250  -0.299   0.298
    1UNL     H4   41   0.523   0.001   0.236
    1UNL     H5   42   0.656  -0.064   0.135
    1UNL     H6   43   0.513  -0.073  -0.043
    1UNL     H7   44   0.126  -0.001   0.076
    1UNL     H8   45   0.014   0.144  -0.026
    1UNL     H9   46   0.099   0.262  -0.129
    1UNL    H10   47   0.068   0.126  -0.329
    1UNL    H11   48  -0.182   0.028  -0.114
    1UNL    H12   49  -0.302   0.321  -0.199
    1UNL    H13   50  -0.441   0.297  -0.089
    1UNL    H14   51  -0.143   0.308  -0.015
    1UNL    H15   52  -0.112   0.051   0.196
    1UNL    H16   53  -0.074   0.215   0.208
    1UNL    H17   54  -0.205   0.140   0.315
    1UNL    H18   55  -0.457   0.116   0.034
    1UNL    H19   56  -0.424   0.122   0.222
    1UNL    H20   57  -0.458  -0.104  -0.054
    1UNL    H21   58  -0.327  -0.466  -0.080
    1UNL    H22   59  -0.340  -0.347  -0.198
    1UNL    H23   60  -0.478  -0.379  -0.109
    1UNL    H24   61  -0.170  -0.407   0.062
    1UNL    H25   62  -0.244  -0.326   0.186
    1UNL    H26   63  -0.126  -0.238   0.075
    1UNL    H27   64  -0.325  -0.104  -0.283
    1UNL    H28   65  -0.242   0.112  -0.437
    1UNL    H29   66  -0.052  -0.106  -0.427
    1UNL    H30   67  -0.010  -0.285  -0.283
    1UNL    H31   68  -0.023  -0.081  -0.126
    1UNL    H32   69   0.193  -0.102  -0.181
    1UNL    H33   70   0.183   0.238   0.099
    1UNL    H34   71   0.279   0.064   0.296
    1UNL    H35   72   0.382   0.324   0.082
    1UNL    H36   73   0.429   0.220   0.312
    1UNL    H37   74   0.413   0.152  -0.098
    1UNL    H38   75   0.630   0.204   0.065
   0.00000   0.00000   0.00000   0.00000   0.00000   0.00000   0.00000   0.00000   0.00000
Generated with MDTraj, t= 89.0
 75
    1UNL     C1    1   0.361  -0.308   0.331
    1UNL     C2    2   0.414  -0.170   0.311
    1UNL     O1    3   0.365  -0.071   0.369
    1UNL     O2    4   0.511  -0.164   0.220
    1UNL     C3    5   0.540  -0.038   0.186
    1UNL     C4    6   0.490  -0.006   0.043
    1UNL     O3    7   0.357  -0.049   0.017
    1UNL     C5    8   0.254   0.052   0.020
    1UNL     O4    9   0.220   0.102  -0.113
    1UNL     C6   10   0.086   0.159  -0.120
    1UNL     C7   11  -0.001   0.090  -0.223
    1UNL     O5   12  -0.129   0.166  -0.232
    1UNL     C8   13  -0.243   0.082  -0.197
    1UNL     O6   14  -0.361   0.161  -0.173
    1UNL     C9   15  -0.328   0.288  -0.107
    1UNL    C10   16  -0.250   0.266   0.021
    1UNL    C11   17  -0.272   0.174   0.112
    1UNL    C12   18  -0.187   0.188   0.233
    1UNL    C13   19  -0.381   0.077   0.117
    1UNL    C14   20  -0.343  -0.072   0.127
    1UNL     O7   21  -0.269  -0.113   0.215
    1UNL    C15   22  -0.381  -0.159   0.006
    1UNL    C16   23  -0.334  -0.283  -0.025
    1UNL    C17   24  -0.389  -0.352  -0.148
    1UNL    C18   25  -0.225  -0.364   0.039
    1UNL    C19   26  -0.257  -0.043  -0.297
    1UNL     O8   27  -0.290   0.012  -0.427
    1UNL    C20   28  -0.123  -0.127  -0.305
    1UNL     O9   29  -0.139  -0.269  -0.286
    1UNL    C21   30  -0.014  -0.071  -0.211
    1UNL    O10   31   0.108  -0.143  -0.244
    1UNL    C22   32   0.281   0.181   0.117
    1UNL    O11   33   0.244   0.151   0.256
    1UNL    C23   34   0.425   0.226   0.095
    1UNL    O12   35   0.501   0.237   0.216
    1UNL    C24   36   0.505   0.142  -0.000
    1UNL    O13   37   0.648   0.165  -0.008
    1UNL     H1   38   0.421  -0.392   0.285
    1UNL     H2   39   0.341  -0.335   0.437
    1UNL     H3   40   0.265  -0.315   0.272
    1UNL     H4   41   0.498   0.033   0.257
    1UNL     H5   42   0.646  -0.035   0.179
    1UNL     H6   43   0.551  -0.078  -0.020
    1UNL     H7   44   0.168   0.001   0.067
    1UNL     H8   45   0.033   0.154  -0.022
    1UNL     H9   46   0.080   0.260  -0.153
    1UNL    H10   47   0.044   0.101  -0.325
    1UNL    H11   48  -0.207   0.028  -0.106
    1UNL    H12   49  -0.281   0.357  -0.184
    1UNL    H13   50  -0.425   0.328  -0.079
    1UNL    H14   51  -0.169   0.335   0.034
    1UNL    H15   52  -0.101   0.120   0.225
    1UNL    H16   53  -0.139   0.285   0.235
    1UNL    H17   54  -0.236   0.160   0.326
    1UNL    H18   55  -0.453   0.093   0.030
    1UNL    H19   56  -0.433   0.093   0.218
    1UNL    H20   57  -0.449  -0.111  -0.059
    1UNL    H21   58  -0.401  -0.458  -0.128
    1UNL    H22   59  -0.323  -0.353  -0.227
    1UNL    H23   60  -0.480  -0.302  -0.177
    1UNL    H24   61  -0.122  -0.355   0.001
    1UNL    H25   62  -0.242  -0.465   0.028
    1UNL    H26   63  -0.210  -0.329   0.142
    1UNL    H27   64  -0.347  -0.111  -0.273
    1UNL    H28   65  -0.350   0.082  -0.400
    1UNL    H29   66  -0.082  -0.119  -0.405
    1UNL    H30   67  -0.053  -0.313  -0.293
    1UNL    H31   68  -0.043  -0.096  -0.108
    1UNL    H32   69   0.193  -0.103  -0.197
    1UNL    H33   70   0.218   0.259   0.085
    1UNL    H34   71   0.290   0.069   0.291
    1UNL    H35   72   0.422   0.323   0.053
    1UNL    H36   73   0.444   0.271   0.284
    1UNL    H37   74   0.467   0.155  -0.103
    1UNL    H38   75   0.680   0.194   0.081
   0.00000   0.00000   0.00000   0.00000   0.00000   0.00000   0.00000   0.00000   0.00000
Generated with MDTraj, t= 90.0
 75
    1UNL     C1    1   0.376  -0.307   0.364
    1UNL     C2    2   0.411  -0.181   0.300
    1UNL     O1    3   0.347  -0.077   0.324
    1UNL     O2    4   0.515  -0.183   0.216
    1UNL     C3    5   0.569  -0.055   0.186
    1UNL     C4    6   0.498  -0.016   0.059
    1UNL     O3    7   0.359  -0.035   0.067
    1UNL     C5    8   0.265   0.069   0.027
    1UNL     O4    9   0.219   0.071  -0.107
    1UNL     C6   10   0.101   0.153  -0.138
    1UNL     C7   11   0.003   0.086  -0.240
    1UNL     O5   12  -0.122   0.160  -0.232
    1UNL     C8   13  -0.233   0.083  -0.188
    1UNL     O6   14  -0.360   0.146  -0.157
    1UNL     C9   15  -0.335   0.270  -0.090
    1UNL    C10   16  -0.258   0.248   0.033
    1UNL    C11   17  -0.291   0.169   0.131
    1UNL    C12   18  -0.199   0.161   0.248
    1UNL    C13   19  -0.407   0.064   0.121
    1UNL    C14   20  -0.347  -0.066   0.084
    1UNL     O7   21  -0.246  -0.101   0.141
    1UNL    C15   22  -0.404  -0.160  -0.014
    1UNL    C16   23  -0.350  -0.275  -0.052
    1UNL    C17   24  -0.423  -0.363  -0.148
    1UNL    C18   25  -0.238  -0.336   0.026
    1UNL    C19   26  -0.259  -0.038  -0.276
    1UNL     O8   27  -0.321   0.008  -0.394
    1UNL    C20   28  -0.133  -0.124  -0.299
    1UNL     O9   29  -0.142  -0.262  -0.277
    1UNL    C21   30  -0.018  -0.068  -0.214
    1UNL    O10   31   0.110  -0.138  -0.226
    1UNL    C22   32   0.295   0.208   0.090
    1UNL    O11   33   0.259   0.190   0.230
    1UNL    C23   34   0.442   0.241   0.071
    1UNL    O12   35   0.500   0.279   0.196
    1UNL    C24   36   0.533   0.130   0.009
    1UNL    O13   37   0.673   0.159   0.042
    1UNL     H1   38   0.448  -0.387   0.339
    1UNL     H2   39   0.365  -0.305   0.476
    1UNL     H3   40   0.283  -0.350   0.314
    1UNL     H4   41   0.540   0.015   0.264
    1UNL     H5   42   0.674  -0.057   0.163
    1UNL     H6   43   0.525  -0.080  -0.029
    1UNL     H7   44   0.181   0.032   0.089
    1UNL     H8   45   0.044   0.164  -0.041
    1UNL     H9   46   0.134   0.250  -0.170
    1UNL    H10   47   0.053   0.097  -0.342
    1UNL    H11   48  -0.193   0.031  -0.099
    1UNL    H12   49  -0.276   0.337  -0.158
    1UNL    H13   50  -0.428   0.318  -0.063
    1UNL    H14   51  -0.165   0.306   0.035
    1UNL    H15   52  -0.092   0.151   0.225
    1UNL    H16   53  -0.215   0.233   0.326
    1UNL    H17   54  -0.224   0.064   0.286
    1UNL    H18   55  -0.474   0.078   0.031
    1UNL    H19   56  -0.465   0.055   0.220
    1UNL    H20   57  -0.489  -0.123  -0.071
    1UNL    H21   58  -0.480  -0.436  -0.092
    1UNL    H22   59  -0.368  -0.431  -0.207
    1UNL    H23   60  -0.487  -0.300  -0.206
    1UNL    H24   61  -0.160  -0.263   0.055
    1UNL    H25   62  -0.196  -0.410  -0.036
    1UNL    H26   63  -0.279  -0.366   0.122
    1UNL    H27   64  -0.344  -0.105  -0.238
    1UNL    H28   65  -0.332   0.103  -0.374
    1UNL    H29   66  -0.107  -0.104  -0.403
    1UNL    H30   67  -0.052  -0.293  -0.271
    1UNL    H31   68  -0.042  -0.073  -0.107
    1UNL    H32   69   0.180  -0.099  -0.180
    1UNL    H33   70   0.235   0.279   0.042
    1UNL    H34   71   0.297   0.107   0.264
    1UNL    H35   72   0.449   0.324   0.004
    1UNL    H36   73   0.420   0.284   0.259
    1UNL    H37   74   0.525   0.136  -0.103
    1UNL    H38   75   0.680   0.199   0.131
   0.00000   0.00000   0.00000   0.00000   0.00000   0.00000   0.00000   0.00000   0.00000
Generated with MDTraj, t= 91.0
 75
    1UNL     C1    1   0.369  -0.294   0.366
    1UNL     C2    2   0.414  -0.163   0.321
    1UNL     O1    3   0.349  -0.061   0.350
    1UNL     O2    4   0.525  -0.165   0.236
    1UNL     C3    5   0.552  -0.033   0.191
    1UNL     C4    6   0.490  -0.015   0.052
    1UNL     O3    7   0.355  -0.047   0.055
    1UNL     C5    8   0.252   0.061   0.022
    1UNL     O4    9   0.229   0.102  -0.111
    1UNL     C6   10   0.097   0.153  -0.117
    1UNL     C7   11   0.015   0.092  -0.227
    1UNL     O5   12  -0.117   0.154  -0.232
    1UNL     C8   13  -0.222   0.074  -0.169
    1UNL     O6   14  -0.341   0.144  -0.143
    1UNL     C9   15  -0.318   0.267  -0.078
    1UNL    C10   16  -0.268   0.259   0.059
    1UNL    C11   17  -0.305   0.163   0.136
    1UNL    C12   18  -0.236   0.154   0.274
    1UNL    C13   19  -0.409   0.057   0.100
    1UNL    C14   20  -0.335  -0.071   0.058
    1UNL     O7   21  -0.213  -0.079   0.060
    1UNL    C15   22  -0.422  -0.177   0.012
    1UNL    C16   23  -0.386  -0.289  -0.051
    1UNL    C17   24  -0.498  -0.361  -0.112
    1UNL    C18   25  -0.253  -0.348  -0.030
    1UNL    C19   26  -0.249  -0.053  -0.262
    1UNL     O8   27  -0.306  -0.002  -0.386
    1UNL    C20   28  -0.108  -0.118  -0.301
    1UNL     O9   29  -0.131  -0.257  -0.283
    1UNL    C21   30   0.003  -0.059  -0.206
    1UNL    O10   31   0.126  -0.124  -0.232
    1UNL    C22   32   0.293   0.185   0.100
    1UNL    O11   33   0.277   0.178   0.238
    1UNL    C23   34   0.437   0.231   0.066
    1UNL    O12   35   0.511   0.267   0.176
    1UNL    C24   36   0.529   0.123  -0.007
    1UNL    O13   37   0.672   0.150   0.008
    1UNL     H1   38   0.440  -0.368   0.324
    1UNL     H2   39   0.360  -0.308   0.479
    1UNL     H3   40   0.275  -0.322   0.310
    1UNL     H4   41   0.509   0.039   0.261
    1UNL     H5   42   0.660  -0.018   0.191
    1UNL     H6   43   0.525  -0.093  -0.022
    1UNL     H7   44   0.161   0.022   0.070
    1UNL     H8   45   0.043   0.140  -0.016
    1UNL     H9   46   0.109   0.261  -0.133
    1UNL    H10   47   0.060   0.109  -0.331
    1UNL    H11   48  -0.181   0.047  -0.071
    1UNL    H12   49  -0.259   0.332  -0.148
    1UNL    H13   50  -0.416   0.309  -0.068
    1UNL    H14   51  -0.195   0.331   0.090
    1UNL    H15   52  -0.150   0.222   0.294
    1UNL    H16   53  -0.309   0.146   0.353
    1UNL    H17   54  -0.180   0.063   0.279
    1UNL    H18   55  -0.463   0.103   0.012
    1UNL    H19   56  -0.480   0.033   0.185
    1UNL    H20   57  -0.527  -0.152   0.016
    1UNL    H21   58  -0.550  -0.410  -0.033
    1UNL    H22   59  -0.474  -0.450  -0.169
    1UNL    H23   60  -0.560  -0.293  -0.163
    1UNL    H24   61  -0.183  -0.269  -0.014
    1UNL    H25   62  -0.219  -0.401  -0.121
    1UNL    H26   63  -0.248  -0.398   0.063
    1UNL    H27   64  -0.317  -0.139  -0.229
    1UNL    H28   65  -0.351   0.082  -0.353
    1UNL    H29   66  -0.082  -0.096  -0.406
    1UNL    H30   67  -0.042  -0.304  -0.287
    1UNL    H31   68  -0.029  -0.074  -0.103
    1UNL    H32   69   0.209  -0.080  -0.186
    1UNL    H33   70   0.229   0.261   0.068
    1UNL    H34   71   0.310   0.093   0.273
    1UNL    H35   72   0.442   0.318  -0.001
    1UNL    H36   73   0.448   0.280   0.248
    1UNL    H37   74   0.495   0.123  -0.117
    1UNL    H38   75   0.680   0.232   0.064
   0.00000   0.00000   0.00000   0.00000   0.00000   0.00000   0.00000   0.00000   0.00000
Generated with MDTraj, t= 92.0
 75
    1UNL     C1    1   0.367  -0.295   0.373
    1UNL     C2    2   0.419  -0.160   0.336
    1UNL     O1    3   0.371  -0.063   0.388
    1UNL     O2    4   0.506  -0.156   0.232
    1UNL     C3    5   0.540  -0.024   0.196
    1UNL     C4    6   0.487  -0.012   0.047
    1UNL     O3    7   0.352  -0.044   0.060
    1UNL     C5    8   0.259   0.064   0.041
    1UNL     O4    9   0.242   0.094  -0.096
    1UNL     C6   10   0.114   0.157  -0.114
    1UNL     C7   11   0.026   0.099  -0.226
    1UNL     O5   12  -0.105   0.165  -0.234
    1UNL     C8   13  -0.211   0.087  -0.189
    1UNL     O6   14  -0.328   0.161  -0.167
    1UNL     C9   15  -0.310   0.281  -0.078
    1UNL    C10   16  -0.257   0.242   0.059
    1UNL    C11   17  -0.292   0.150   0.145
    1UNL    C12   18  -0.254   0.169   0.288
    1UNL    C13   19  -0.393   0.046   0.096
    1UNL    C14   20  -0.343  -0.089   0.053
    1UNL     O7   21  -0.228  -0.120   0.045
    1UNL    C15   22  -0.445  -0.186   0.017
    1UNL    C16   23  -0.427  -0.303  -0.047
    1UNL    C17   24  -0.542  -0.394  -0.051
    1UNL    C18   25  -0.290  -0.347  -0.088
    1UNL    C19   26  -0.232  -0.037  -0.266
    1UNL     O8   27  -0.302  -0.024  -0.389
    1UNL    C20   28  -0.095  -0.106  -0.299
    1UNL     O9   29  -0.105  -0.240  -0.282
    1UNL    C21   30   0.019  -0.055  -0.212
    1UNL    O10   31   0.139  -0.116  -0.248
    1UNL    C22   32   0.304   0.192   0.114
    1UNL    O11   33   0.279   0.199   0.257
    1UNL    C23   34   0.449   0.230   0.073
    1UNL    O12   35   0.526   0.235   0.188
    1UNL    C24   36   0.506   0.121  -0.025
    1UNL    O13   37   0.631   0.168  -0.067
    1UNL     H1   38   0.427  -0.371   0.317
    1UNL     H2   39   0.369  -0.308   0.486
    1UNL     H3   40   0.265  -0.304   0.327
    1UNL     H4   41   0.501   0.040   0.280
    1UNL     H5   42   0.650  -0.008   0.210
    1UNL     H6   43   0.534  -0.097  -0.005
    1UNL     H7   44   0.170   0.023   0.091
    1UNL     H8   45   0.054   0.141  -0.016
    1UNL     H9   46   0.134   0.265  -0.117
    1UNL    H10   47   0.060   0.121  -0.335
    1UNL    H11   48  -0.179   0.075  -0.084
    1UNL    H12   49  -0.239   0.350  -0.128
    1UNL    H13   50  -0.403   0.330  -0.077
    1UNL    H14   51  -0.202   0.326   0.101
    1UNL    H15   52  -0.278   0.270   0.326
    1UNL    H16   53  -0.281   0.089   0.357
    1UNL    H17   54  -0.149   0.191   0.283
    1UNL    H18   55  -0.451   0.091   0.012
    1UNL    H19   56  -0.459   0.028   0.186
    1UNL    H20   57  -0.539  -0.163   0.064
    1UNL    H21   58  -0.584  -0.407   0.044
    1UNL    H22   59  -0.505  -0.495  -0.072
    1UNL    H23   60  -0.612  -0.356  -0.119
    1UNL    H24   61  -0.218  -0.275  -0.064
    1UNL    H25   62  -0.279  -0.363  -0.199
    1UNL    H26   63  -0.253  -0.427  -0.031
    1UNL    H27   64  -0.291  -0.109  -0.200
    1UNL    H28   65  -0.376   0.032  -0.367
    1UNL    H29   66  -0.071  -0.094  -0.408
    1UNL    H30   67  -0.013  -0.275  -0.290
    1UNL    H31   68  -0.011  -0.084  -0.112
    1UNL    H32   69   0.204  -0.085  -0.188
    1UNL    H33   70   0.240   0.266   0.073
    1UNL    H34   71   0.294   0.110   0.298
    1UNL    H35   72   0.465   0.331   0.024
    1UNL    H36   73   0.471   0.291   0.252
    1UNL    H37   74   0.433   0.119  -0.114
    1UNL    H38   75   0.684   0.195   0.010
   0.00000   0.00000   0.00000   0.00000   0.00000   0.00000   0.00000   0.00000   0.00000
Generated with MDTraj, t= 93.0
 75
    1UNL     C1    1   0.390  -0.258   0.391
    1UNL     C2    2   0.452  -0.142   0.315
    1UNL     O1    3   0.410  -0.033   0.333
    1UNL     O2    4   0.538  -0.176   0.218
    1UNL     C3    5   0.560  -0.054   0.153
    1UNL     C4    6   0.453  -0.026   0.048
    1UNL     O3    7   0.319  -0.030   0.102
    1UNL     C5    8   0.236   0.080   0.067
    1UNL     O4    9   0.227   0.102  -0.075
    1UNL     C6   10   0.105   0.166  -0.117
    1UNL     C7   11   0.034   0.110  -0.235
    1UNL     O5   12  -0.099   0.165  -0.247
    1UNL     C8   13  -0.209   0.085  -0.184
    1UNL     O6   14  -0.328   0.154  -0.164
    1UNL     C9   15  -0.303   0.275  -0.091
    1UNL    C10   16  -0.261   0.239   0.049
    1UNL    C11   17  -0.310   0.145   0.128
    1UNL    C12   18  -0.219   0.084   0.235
    1UNL    C13   19  -0.417   0.056   0.077
    1UNL    C14   20  -0.365  -0.081   0.049
    1UNL     O7   21  -0.250  -0.109   0.031
    1UNL    C15   22  -0.464  -0.184   0.054
    1UNL    C16   23  -0.441  -0.302  -0.007
    1UNL    C17   24  -0.560  -0.400  -0.010
    1UNL    C18   25  -0.316  -0.340  -0.088
    1UNL    C19   26  -0.233  -0.040  -0.273
    1UNL     O8   27  -0.294   0.007  -0.395
    1UNL    C20   28  -0.086  -0.106  -0.313
    1UNL     O9   29  -0.071  -0.245  -0.307
    1UNL    C21   30   0.030  -0.049  -0.221
    1UNL    O10   31   0.150  -0.119  -0.244
    1UNL    C22   32   0.296   0.208   0.135
    1UNL    O11   33   0.291   0.204   0.277
    1UNL    C23   34   0.441   0.223   0.085
    1UNL    O12   35   0.527   0.239   0.199
    1UNL    C24   36   0.489   0.111  -0.010
    1UNL    O13   37   0.627   0.131  -0.020
    1UNL     H1   38   0.418  -0.355   0.339
    1UNL     H2   39   0.417  -0.249   0.500
    1UNL     H3   40   0.280  -0.251   0.373
    1UNL     H4   41   0.566   0.032   0.226
    1UNL     H5   42   0.668  -0.061   0.119
    1UNL     H6   43   0.456  -0.100  -0.033
    1UNL     H7   44   0.140   0.046   0.110
    1UNL     H8   45   0.037   0.167  -0.023
    1UNL     H9   46   0.129   0.273  -0.131
    1UNL    H10   47   0.099   0.138  -0.326
    1UNL    H11   48  -0.173   0.075  -0.082
    1UNL    H12   49  -0.219   0.319  -0.150
    1UNL    H13   50  -0.384   0.342  -0.092
    1UNL    H14   51  -0.173   0.291   0.082
    1UNL    H15   52  -0.280   0.029   0.305
    1UNL    H16   53  -0.149   0.013   0.190
    1UNL    H17   54  -0.183   0.160   0.301
    1UNL    H18   55  -0.454   0.096  -0.021
    1UNL    H19   56  -0.506   0.050   0.143
    1UNL    H20   57  -0.557  -0.171   0.108
    1UNL    H21   58  -0.611  -0.421   0.078
    1UNL    H22   59  -0.519  -0.497  -0.036
    1UNL    H23   60  -0.628  -0.369  -0.085
    1UNL    H24   61  -0.231  -0.294  -0.045
    1UNL    H25   62  -0.326  -0.317  -0.197
    1UNL    H26   63  -0.302  -0.442  -0.072
    1UNL    H27   64  -0.301  -0.118  -0.226
    1UNL    H28   65  -0.335   0.095  -0.374
    1UNL    H29   66  -0.065  -0.082  -0.422
    1UNL    H30   67   0.021  -0.267  -0.304
    1UNL    H31   68  -0.003  -0.063  -0.118
    1UNL    H32   69   0.224  -0.065  -0.198
    1UNL    H33   70   0.231   0.286   0.100
    1UNL    H34   71   0.328   0.118   0.304
    1UNL    H35   72   0.454   0.323   0.029
    1UNL    H36   73   0.476   0.289   0.267
    1UNL    H37   74   0.436   0.125  -0.112
    1UNL    H38   75   0.666   0.178   0.056
   0.00000   0.00000   0.00000   0.00000   0.00000   0.00000   0.00000   0.00000   0.00000
Generated with MDTraj, t= 94.0
 75
    1UNL     C1    1   0.419  -0.267   0.428
    1UNL     C2    2   0.472  -0.155   0.344
    1UNL     O1    3   0.483  -0.044   0.386
    1UNL     O2    4   0.491  -0.186   0.208
    1UNL     C3    5   0.552  -0.073   0.151
    1UNL     C4    6   0.466  -0.014   0.051
    1UNL     O3    7   0.323  -0.031   0.102
    1UNL     C5    8   0.244   0.078   0.074
    1UNL     O4    9   0.216   0.100  -0.068
    1UNL     C6   10   0.091   0.159  -0.092
    1UNL     C7   11   0.030   0.121  -0.224
    1UNL     O5   12  -0.102   0.179  -0.255
    1UNL     C8   13  -0.213   0.103  -0.212
    1UNL     O6   14  -0.333   0.169  -0.191
    1UNL     C9   15  -0.305   0.275  -0.101
    1UNL    C10   16  -0.245   0.230   0.022
    1UNL    C11   17  -0.278   0.134   0.102
    1UNL    C12   18  -0.209   0.118   0.235
    1UNL    C13   19  -0.400   0.043   0.092
    1UNL    C14   20  -0.370  -0.100   0.036
    1UNL     O7   21  -0.263  -0.129  -0.011
    1UNL    C15   22  -0.481  -0.198   0.042
    1UNL    C16   23  -0.467  -0.329   0.009
    1UNL    C17   24  -0.581  -0.418   0.028
    1UNL    C18   25  -0.347  -0.384  -0.070
    1UNL    C19   26  -0.224  -0.020  -0.306
    1UNL     O8   27  -0.284   0.015  -0.424
    1UNL    C20   28  -0.086  -0.094  -0.322
    1UNL     O9   29  -0.095  -0.231  -0.304
    1UNL    C21   30   0.018  -0.038  -0.219
    1UNL    O10   31   0.141  -0.100  -0.241
    1UNL    C22   32   0.300   0.210   0.143
    1UNL    O11   33   0.296   0.199   0.277
    1UNL    C23   34   0.442   0.239   0.095
    1UNL    O12   35   0.538   0.242   0.201
    1UNL    C24   36   0.495   0.131  -0.001
    1UNL    O13   37   0.623   0.149  -0.052
    1UNL     H1   38   0.428  -0.374   0.386
    1UNL     H2   39   0.465  -0.248   0.529
    1UNL     H3   40   0.309  -0.253   0.445
    1UNL     H4   41   0.582   0.001   0.228
    1UNL     H5   42   0.653  -0.101   0.109
    1UNL     H6   43   0.469  -0.069  -0.044
    1UNL     H7   44   0.153   0.056   0.134
    1UNL     H8   45   0.019   0.137  -0.006
    1UNL     H9   46   0.107   0.266  -0.087
    1UNL    H10   47   0.105   0.140  -0.308
    1UNL    H11   48  -0.184   0.068  -0.112
    1UNL    H12   49  -0.236   0.349  -0.149
    1UNL    H13   50  -0.400   0.317  -0.084
    1UNL    H14   51  -0.159   0.286   0.054
    1UNL    H15   52  -0.182   0.015   0.243
    1UNL    H16   53  -0.126   0.181   0.260
    1UNL    H17   54  -0.284   0.123   0.312
    1UNL    H18   55  -0.480   0.090   0.031
    1UNL    H19   56  -0.453   0.033   0.188
    1UNL    H20   57  -0.575  -0.167   0.083
    1UNL    H21   58  -0.605  -0.431   0.130
    1UNL    H22   59  -0.558  -0.516  -0.001
    1UNL    H23   60  -0.667  -0.378  -0.024
    1UNL    H24   61  -0.257  -0.324  -0.068
    1UNL    H25   62  -0.378  -0.410  -0.169
    1UNL    H26   63  -0.318  -0.475  -0.025
    1UNL    H27   64  -0.297  -0.095  -0.260
    1UNL    H28   65  -0.337   0.098  -0.398
    1UNL    H29   66  -0.043  -0.080  -0.426
    1UNL    H30   67  -0.007  -0.274  -0.312
    1UNL    H31   68  -0.022  -0.072  -0.122
    1UNL    H32   69   0.204  -0.087  -0.165
    1UNL    H33   70   0.231   0.290   0.119
    1UNL    H34   71   0.356   0.124   0.306
    1UNL    H35   72   0.450   0.341   0.041
    1UNL    H36   73   0.511   0.297   0.276
    1UNL    H37   74   0.433   0.145  -0.098
    1UNL    H38   75   0.683   0.185   0.019
   0.00000   0.00000   0.00000   0.00000   0.00000   0.00000   0.00000   0.00000   0.00000
Generated with MDTraj, t= 95.0
 75
    1UNL     C1    1   0.453  -0.266   0.418
    1UNL     C2    2   0.492  -0.137   0.352
    1UNL     O1    3   0.474  -0.029   0.399
    1UNL     O2    4   0.534  -0.159   0.228
    1UNL     C3    5   0.554  -0.039   0.160
    1UNL     C4    6   0.461  -0.024   0.050
    1UNL     O3    7   0.316  -0.037   0.091
    1UNL     C5    8   0.237   0.080   0.083
    1UNL     O4    9   0.204   0.111  -0.051
    1UNL     C6   10   0.072   0.159  -0.074
    1UNL     C7   11   0.015   0.113  -0.206
    1UNL     O5   12  -0.112   0.178  -0.230
    1UNL     C8   13  -0.223   0.093  -0.207
    1UNL     O6   14  -0.351   0.156  -0.194
    1UNL     C9   15  -0.337   0.276  -0.107
    1UNL    C10   16  -0.258   0.246   0.015
    1UNL    C11   17  -0.283   0.137   0.083
    1UNL    C12   18  -0.222   0.096   0.206
    1UNL    C13   19  -0.399   0.048   0.053
    1UNL    C14   20  -0.360  -0.095   0.027
    1UNL     O7   21  -0.253  -0.119  -0.024
    1UNL    C15   22  -0.456  -0.196   0.051
    1UNL    C16   23  -0.455  -0.326   0.023
    1UNL    C17   24  -0.587  -0.392   0.054
    1UNL    C18   25  -0.358  -0.388  -0.058
    1UNL    C19   26  -0.224  -0.017  -0.322
    1UNL     O8   27  -0.252   0.031  -0.451
    1UNL    C20   28  -0.091  -0.090  -0.328
    1UNL     O9   29  -0.111  -0.221  -0.347
    1UNL    C21   30   0.005  -0.049  -0.214
    1UNL    O10   31   0.142  -0.091  -0.224
    1UNL    C22   32   0.308   0.197   0.162
    1UNL    O11   33   0.318   0.163   0.294
    1UNL    C23   34   0.451   0.225   0.095
    1UNL    O12   35   0.551   0.231   0.189
    1UNL    C24   36   0.486   0.110  -0.003
    1UNL    O13   37   0.615   0.117  -0.052
    1UNL     H1   38   0.449  -0.357   0.351
    1UNL     H2   39   0.519  -0.283   0.507
    1UNL     H3   40   0.351  -0.270   0.466
    1UNL     H4   41   0.560   0.049   0.226
    1UNL     H5   42   0.659  -0.042   0.125
    1UNL     H6   43   0.483  -0.100  -0.029
    1UNL     H7   44   0.146   0.047   0.138
    1UNL     H8   45   0.001   0.125   0.007
    1UNL     H9   46   0.068   0.266  -0.071
    1UNL    H10   47   0.083   0.139  -0.291
    1UNL    H11   48  -0.199   0.035  -0.117
    1UNL    H12   49  -0.294   0.358  -0.172
    1UNL    H13   50  -0.429   0.308  -0.066
    1UNL    H14   51  -0.176   0.306   0.052
    1UNL    H15   52  -0.130   0.051   0.182
    1UNL    H16   53  -0.211   0.179   0.273
    1UNL    H17   54  -0.275   0.014   0.254
    1UNL    H18   55  -0.469   0.081  -0.022
    1UNL    H19   56  -0.461   0.057   0.143
    1UNL    H20   57  -0.548  -0.159   0.097
    1UNL    H21   58  -0.593  -0.410   0.160
    1UNL    H22   59  -0.595  -0.487   0.015
    1UNL    H23   60  -0.669  -0.327   0.026
    1UNL    H24   61  -0.281  -0.318  -0.094
    1UNL    H25   62  -0.409  -0.433  -0.134
    1UNL    H26   63  -0.302  -0.465  -0.007
    1UNL    H27   64  -0.302  -0.100  -0.300
    1UNL    H28   65  -0.330   0.086  -0.440
    1UNL    H29   66  -0.035  -0.047  -0.415
    1UNL    H30   67  -0.024  -0.272  -0.358
    1UNL    H31   68  -0.043  -0.088  -0.121
    1UNL    H32   69   0.200  -0.045  -0.156
    1UNL    H33   70   0.238   0.283   0.161
    1UNL    H34   71   0.379   0.088   0.309
    1UNL    H35   72   0.451   0.321   0.034
    1UNL    H36   73   0.522   0.289   0.267
    1UNL    H37   74   0.422   0.120  -0.098
    1UNL    H38   75   0.665   0.172   0.011
   0.00000   0.00000   0.00000   0.00000   0.00000   0.00000   0.00000   0.00000   0.00000
Generated with MDTraj, t= 96.0
 75
    1UNL     C1    1   0.483  -0.269   0.442
    1UNL     C2    2   0.498  -0.156   0.350
    1UNL     O1    3   0.445  -0.046   0.373
    1UNL     O2    4   0.561  -0.184   0.229
    1UNL     C3    5   0.582  -0.062   0.155
    1UNL     C4    6   0.467  -0.029   0.059
    1UNL     O3    7   0.341  -0.036   0.136
    1UNL     C5    8   0.244   0.061   0.096
    1UNL     O4    9   0.200   0.057  -0.037
    1UNL     C6   10   0.077   0.133  -0.055
    1UNL     C7   11   0.024   0.105  -0.189
    1UNL     O5   12  -0.097   0.181  -0.219
    1UNL     C8   13  -0.216   0.111  -0.216
    1UNL     O6   14  -0.343   0.178  -0.215
    1UNL     C9   15  -0.337   0.285  -0.130
    1UNL    C10   16  -0.273   0.256   0.001
    1UNL    C11   17  -0.307   0.147   0.070
    1UNL    C12   18  -0.242   0.124   0.201
    1UNL    C13   19  -0.430   0.054   0.048
    1UNL    C14   20  -0.391  -0.096   0.046
    1UNL     O7   21  -0.273  -0.121   0.031
    1UNL    C15   22  -0.485  -0.208   0.068
    1UNL    C16   23  -0.457  -0.336   0.033
    1UNL    C17   24  -0.553  -0.443   0.067
    1UNL    C18   25  -0.349  -0.362  -0.067
    1UNL    C19   26  -0.217   0.001  -0.329
    1UNL     O8   27  -0.244   0.068  -0.451
    1UNL    C20   28  -0.074  -0.071  -0.344
    1UNL     O9   29  -0.088  -0.208  -0.377
    1UNL    C21   30   0.005  -0.047  -0.217
    1UNL    O10   31   0.129  -0.124  -0.209
    1UNL    C22   32   0.295   0.197   0.142
    1UNL    O11   33   0.309   0.207   0.276
    1UNL    C23   34   0.442   0.229   0.079
    1UNL    O12   35   0.537   0.235   0.172
    1UNL    C24   36   0.480   0.108  -0.011
    1UNL    O13   37   0.603   0.142  -0.070
    1UNL     H1   38   0.477  -0.367   0.389
    1UNL     H2   39   0.570  -0.263   0.514
    1UNL     H3   40   0.393  -0.269   0.511
    1UNL     H4   41   0.601   0.012   0.233
    1UNL     H5   42   0.677  -0.074   0.107
    1UNL     H6   43   0.466  -0.116  -0.012
    1UNL     H7   44   0.159   0.023   0.158
    1UNL     H8   45  -0.004   0.106   0.018
    1UNL     H9   46   0.092   0.236  -0.037
    1UNL    H10   47   0.099   0.142  -0.261
    1UNL    H11   48  -0.210   0.049  -0.127
    1UNL    H12   49  -0.270   0.362  -0.182
    1UNL    H13   50  -0.440   0.319  -0.125
    1UNL    H14   51  -0.190   0.313   0.035
    1UNL    H15   52  -0.144   0.163   0.193
    1UNL    H16   53  -0.297   0.178   0.278
    1UNL    H17   54  -0.234   0.022   0.232
    1UNL    H18   55  -0.468   0.085  -0.046
    1UNL    H19   56  -0.512   0.073   0.116
    1UNL    H20   57  -0.574  -0.195   0.124
    1UNL    H21   58  -0.552  -0.465   0.173
    1UNL    H22   59  -0.520  -0.536   0.027
    1UNL    H23   60  -0.651  -0.418   0.039
    1UNL    H24   61  -0.330  -0.278  -0.133
    1UNL    H25   62  -0.384  -0.445  -0.117
    1UNL    H26   63  -0.253  -0.390  -0.025
    1UNL    H27   64  -0.295  -0.080  -0.312
    1UNL    H28   65  -0.310   0.141  -0.436
    1UNL    H29   66  -0.023  -0.009  -0.420
    1UNL    H30   67  -0.015  -0.264  -0.350
    1UNL    H31   68  -0.068  -0.078  -0.138
    1UNL    H32   69   0.178  -0.113  -0.119
    1UNL    H33   70   0.221   0.275   0.114
    1UNL    H34   71   0.354   0.124   0.301
    1UNL    H35   72   0.437   0.329   0.029
    1UNL    H36   73   0.506   0.302   0.234
    1UNL    H37   74   0.407   0.098  -0.097
    1UNL    H38   75   0.652   0.191   0.001
   0.00000   0.00000   0.00000   0.00000   0.00000   0.00000   0.00000   0.00000   0.00000
Generated with MDTraj, t= 97.0
 75
    1UNL     C1    1   0.493  -0.276   0.423
    1UNL     C2    2   0.521  -0.144   0.355
    1UNL     O1    3   0.463  -0.042   0.402
    1UNL     O2    4   0.592  -0.158   0.243
    1UNL     C3    5   0.582  -0.032   0.169
    1UNL     C4    6   0.466  -0.036   0.072
    1UNL     O3    7   0.339  -0.063   0.141
    1UNL     C5    8   0.244   0.041   0.110
    1UNL     O4    9   0.200   0.049  -0.027
    1UNL     C6   10   0.067   0.096  -0.049
    1UNL     C7   11   0.020   0.089  -0.197
    1UNL     O5   12  -0.103   0.172  -0.219
    1UNL     C8   13  -0.223   0.096  -0.223
    1UNL     O6   14  -0.348   0.171  -0.211
    1UNL     C9   15  -0.334   0.280  -0.125
    1UNL    C10   16  -0.300   0.252   0.019
    1UNL    C11   17  -0.361   0.159   0.095
    1UNL    C12   18  -0.332   0.142   0.241
    1UNL    C13   19  -0.441   0.054   0.021
    1UNL    C14   20  -0.373  -0.079   0.041
    1UNL     O7   21  -0.255  -0.089   0.028
    1UNL    C15   22  -0.457  -0.193   0.081
    1UNL    C16   23  -0.434  -0.318   0.038
    1UNL    C17   24  -0.543  -0.417   0.065
    1UNL    C18   25  -0.329  -0.348  -0.070
    1UNL    C19   26  -0.210   0.007  -0.353
    1UNL     O8   27  -0.227   0.097  -0.462
    1UNL    C20   28  -0.075  -0.077  -0.366
    1UNL     O9   29  -0.098  -0.220  -0.386
    1UNL    C21   30  -0.000  -0.060  -0.235
    1UNL    O10   31   0.128  -0.133  -0.244
    1UNL    C22   32   0.302   0.179   0.159
    1UNL    O11   33   0.330   0.193   0.291
    1UNL    C23   34   0.435   0.217   0.070
    1UNL    O12   35   0.540   0.246   0.149
    1UNL    C24   36   0.465   0.093  -0.019
    1UNL    O13   37   0.593   0.128  -0.077
    1UNL     H1   38   0.508  -0.355   0.348
    1UNL     H2   39   0.566  -0.281   0.509
    1UNL     H3   40   0.392  -0.292   0.472
    1UNL     H4   41   0.573   0.048   0.241
    1UNL     H5   42   0.673  -0.020   0.115
    1UNL     H6   43   0.476  -0.131   0.011
    1UNL     H7   44   0.157   0.015   0.174
    1UNL     H8   45   0.001   0.037   0.018
    1UNL     H9   46   0.059   0.194  -0.010
    1UNL    H10   47   0.096   0.127  -0.265
    1UNL    H11   48  -0.224   0.039  -0.128
    1UNL    H12   49  -0.250   0.336  -0.176
    1UNL    H13   50  -0.431   0.330  -0.123
    1UNL    H14   51  -0.216   0.307   0.064
    1UNL    H15   52  -0.321   0.241   0.281
    1UNL    H16   53  -0.409   0.086   0.289
    1UNL    H17   54  -0.243   0.088   0.265
    1UNL    H18   55  -0.448   0.072  -0.084
    1UNL    H19   56  -0.542   0.051   0.056
    1UNL    H20   57  -0.538  -0.185   0.154
    1UNL    H21   58  -0.570  -0.430   0.166
    1UNL    H22   59  -0.503  -0.514   0.035
    1UNL    H23   60  -0.627  -0.387   0.012
    1UNL    H24   61  -0.357  -0.308  -0.163
    1UNL    H25   62  -0.311  -0.454  -0.073
    1UNL    H26   63  -0.235  -0.300  -0.049
    1UNL    H27   64  -0.292  -0.069  -0.341
    1UNL    H28   65  -0.263   0.179  -0.424
    1UNL    H29   66  -0.009  -0.035  -0.442
    1UNL    H30   67  -0.025  -0.269  -0.348
    1UNL    H31   68  -0.064  -0.111  -0.161
    1UNL    H32   69   0.196  -0.093  -0.192
    1UNL    H33   70   0.230   0.266   0.144
    1UNL    H34   71   0.370   0.110   0.331
    1UNL    H35   72   0.426   0.308   0.012
    1UNL    H36   73   0.512   0.314   0.218
    1UNL    H37   74   0.393   0.077  -0.103
    1UNL    H38   75   0.621   0.210  -0.028
   0.00000   0.00000   0.00000   0.00000   0.00000   0.00000   0.00000   0.00000   0.00000
Generated with MDTraj, t= 98.0
 75
    1UNL     C1    1   0.514  -0.272   0.433
    1UNL     C2    2   0.533  -0.144   0.366
    1UNL     O1    3   0.492  -0.034   0.408
    1UNL     O2    4   0.581  -0.157   0.243
    1UNL     C3    5   0.582  -0.033   0.173
    1UNL     C4    6   0.480  -0.050   0.061
    1UNL     O3    7   0.349  -0.080   0.123
    1UNL     C5    8   0.246   0.017   0.111
    1UNL     O4    9   0.187   0.006  -0.017
    1UNL     C6   10   0.065   0.069  -0.033
    1UNL     C7   11   0.026   0.080  -0.180
    1UNL     O5   12  -0.094   0.169  -0.193
    1UNL     C8   13  -0.218   0.093  -0.208
    1UNL     O6   14  -0.332   0.186  -0.216
    1UNL     C9   15  -0.338   0.305  -0.127
    1UNL    C10   16  -0.325   0.278   0.021
    1UNL    C11   17  -0.382   0.178   0.091
    1UNL    C12   18  -0.386   0.200   0.239
    1UNL    C13   19  -0.439   0.061   0.013
    1UNL    C14   20  -0.376  -0.075   0.034
    1UNL     O7   21  -0.259  -0.088   0.022
    1UNL    C15   22  -0.454  -0.193   0.063
    1UNL    C16   23  -0.422  -0.317   0.021
    1UNL    C17   24  -0.504  -0.436   0.060
    1UNL    C18   25  -0.309  -0.352  -0.070
    1UNL    C19   26  -0.214   0.011  -0.336
    1UNL     O8   27  -0.230   0.091  -0.453
    1UNL    C20   28  -0.088  -0.073  -0.353
    1UNL     O9   29  -0.113  -0.206  -0.389
    1UNL    C21   30   0.010  -0.065  -0.233
    1UNL    O10   31   0.147  -0.117  -0.256
    1UNL    C22   32   0.292   0.162   0.154
    1UNL    O11   33   0.321   0.183   0.288
    1UNL    C23   34   0.421   0.201   0.065
    1UNL    O12   35   0.515   0.280   0.137
    1UNL    C24   36   0.468   0.080  -0.024
    1UNL    O13   37   0.596   0.117  -0.082
    1UNL     H1   38   0.566  -0.351   0.376
    1UNL     H2   39   0.559  -0.253   0.535
    1UNL     H3   40   0.406  -0.293   0.454
    1UNL     H4   41   0.549   0.048   0.237
    1UNL     H5   42   0.679  -0.017   0.129
    1UNL     H6   43   0.500  -0.140  -0.001
    1UNL     H7   44   0.167  -0.021   0.179
    1UNL     H8   45  -0.008   0.013   0.029
    1UNL     H9   46   0.078   0.164   0.011
    1UNL    H10   47   0.101   0.127  -0.239
    1UNL    H11   48  -0.228   0.041  -0.113
    1UNL    H12   49  -0.257   0.372  -0.168
    1UNL    H13   50  -0.440   0.341  -0.146
    1UNL    H14   51  -0.285   0.354   0.082
    1UNL    H15   52  -0.458   0.280   0.257
    1UNL    H16   53  -0.406   0.110   0.291
    1UNL    H17   54  -0.297   0.239   0.285
    1UNL    H18   55  -0.446   0.078  -0.092
    1UNL    H19   56  -0.537   0.048   0.047
    1UNL    H20   57  -0.539  -0.186   0.128
    1UNL    H21   58  -0.529  -0.439   0.161
    1UNL    H22   59  -0.441  -0.526   0.045
    1UNL    H23   60  -0.595  -0.434   0.007
    1UNL    H24   61  -0.338  -0.394  -0.161
    1UNL    H25   62  -0.227  -0.410  -0.022
    1UNL    H26   63  -0.263  -0.264  -0.102
    1UNL    H27   64  -0.293  -0.066  -0.337
    1UNL    H28   65  -0.285   0.167  -0.429
    1UNL    H29   66  -0.046  -0.035  -0.446
    1UNL    H30   67  -0.028  -0.258  -0.371
    1UNL    H31   68  -0.042  -0.119  -0.155
    1UNL    H32   69   0.192  -0.118  -0.161
    1UNL    H33   70   0.206   0.236   0.130
    1UNL    H34   71   0.378   0.105   0.317
    1UNL    H35   72   0.387   0.275  -0.004
    1UNL    H36   73   0.502   0.268   0.235
    1UNL    H37   74   0.404   0.072  -0.111
    1UNL    H38   75   0.595   0.214  -0.075
   0.00000   0.00000   0.00000   0.00000   0.00000   0.00000   0.00000   0.00000   0.00000
Generated with MDTraj, t= 99.0
 75
    1UNL     C1    1   0.553  -0.246   0.465
    1UNL     C2    2   0.557  -0.137   0.360
    1UNL     O1    3   0.498  -0.031   0.377
    1UNL     O2    4   0.616  -0.172   0.241
    1UNL     C3    5   0.604  -0.058   0.159
    1UNL     C4    6   0.470  -0.046   0.077
    1UNL     O3    7   0.345  -0.088   0.144
    1UNL     C5    8   0.238   0.005   0.121
    1UNL     O4    9   0.174  -0.013  -0.008
    1UNL     C6   10   0.079   0.092  -0.048
    1UNL     C7   11   0.019   0.086  -0.180
    1UNL     O5   12  -0.096   0.172  -0.205
    1UNL     C8   13  -0.218   0.105  -0.211
    1UNL     O6   14  -0.328   0.187  -0.209
    1UNL     C9   15  -0.309   0.300  -0.125
    1UNL    C10   16  -0.335   0.281   0.017
    1UNL    C11   17  -0.405   0.184   0.074
    1UNL    C12   18  -0.386   0.160   0.220
    1UNL    C13   19  -0.463   0.066  -0.006
    1UNL    C14   20  -0.386  -0.062   0.027
    1UNL     O7   21  -0.266  -0.049   0.037
    1UNL    C15   22  -0.453  -0.189   0.057
    1UNL    C16   23  -0.407  -0.308   0.016
    1UNL    C17   24  -0.476  -0.434   0.041
    1UNL    C18   25  -0.274  -0.318  -0.058
    1UNL    C19   26  -0.219   0.006  -0.332
    1UNL     O8   27  -0.258   0.083  -0.446
    1UNL    C20   28  -0.080  -0.065  -0.362
    1UNL     O9   29  -0.114  -0.196  -0.394
    1UNL    C21   30  -0.000  -0.060  -0.228
    1UNL    O10   31   0.120  -0.132  -0.230
    1UNL    C22   32   0.274   0.157   0.150
    1UNL    O11   33   0.312   0.169   0.287
    1UNL    C23   34   0.405   0.199   0.063
    1UNL    O12   35   0.502   0.261   0.149
    1UNL    C24   36   0.457   0.079  -0.016
    1UNL    O13   37   0.585   0.107  -0.083
    1UNL     H1   38   0.642  -0.315   0.455
    1UNL     H2   39   0.562  -0.194   0.564
    1UNL     H3   40   0.453  -0.294   0.471
    1UNL     H4   41   0.609   0.034   0.219
    1UNL     H5   42   0.687  -0.055   0.087
    1UNL     H6   43   0.474  -0.133   0.011
    1UNL     H7   44   0.164  -0.028   0.195
    1UNL     H8   45  -0.006   0.073   0.020
    1UNL     H9   46   0.122   0.187  -0.029
    1UNL    H10   47   0.095   0.129  -0.240
    1UNL    H11   48  -0.227   0.043  -0.123
    1UNL    H12   49  -0.204   0.331  -0.141
    1UNL    H13   50  -0.385   0.366  -0.169
    1UNL    H14   51  -0.295   0.349   0.095
    1UNL    H15   52  -0.486   0.166   0.263
    1UNL    H16   53  -0.363   0.057   0.223
    1UNL    H17   54  -0.317   0.215   0.284
    1UNL    H18   55  -0.450   0.086  -0.110
    1UNL    H19   56  -0.565   0.046   0.003
    1UNL    H20   57  -0.549  -0.185   0.105
    1UNL    H21   58  -0.495  -0.439   0.144
    1UNL    H22   59  -0.418  -0.523   0.020
    1UNL    H23   60  -0.573  -0.430  -0.002
    1UNL    H24   61  -0.248  -0.418  -0.083
    1UNL    H25   62  -0.190  -0.268  -0.006
    1UNL    H26   63  -0.287  -0.271  -0.150
    1UNL    H27   64  -0.291  -0.072  -0.314
    1UNL    H28   65  -0.334   0.142  -0.417
    1UNL    H29   66  -0.021  -0.017  -0.438
    1UNL    H30   67  -0.025  -0.235  -0.413
    1UNL    H31   68  -0.059  -0.107  -0.151
    1UNL    H32   69   0.160  -0.121  -0.148
    1UNL    H33   70   0.175   0.218   0.138
    1UNL    H34   71   0.382   0.102   0.306
    1UNL    H35   72   0.375   0.276  -0.005
    1UNL    H36   73   0.468   0.272   0.239
    1UNL    H37   74   0.398   0.063  -0.103
    1UNL    H38   75   0.620   0.181  -0.028
   0.00000   0.00000   0.00000   0.00000   0.00000   0.00000   0.00000   0.00000   0.00000
