[ moleculetype ]
; name        nrexcl
res           1

[ atoms ]
;    nr  type  resnr resid  atom  cgnr     charge       mass
      1 N4a       1 res   C1        1      0.000     72.000
      2 SN4a      1 res   C2        2      0.000     54.000
      3 TN3r      1 res   C3        3      0.000     36.000
      4 SN4a      1 res   C4        4      0.000     54.000
      5 SN3r      1 res   C5        5      0.000     54.000
      6 SC2       1 res   C6        6      0.000     54.000
      7 SN4a      1 res   C7        7      0.000     54.000
      8 SC2       1 res   C8        8      0.000     54.000
      9 SP4       1 res   C9        9      0.000     54.000
     10 TN6       1 res   C10      10      0.000     36.000
     11 SP4       1 res   C11      11      0.000     54.000
     12 TN6       1 res   C12      12      0.000     36.000

[ constraints ]
;  ai    aj   funct      b0(nm)
    2     3     1      0.31255
    2    12     1      0.28559
    7     8     1      0.26954
    5     6     1      0.30426
    9    10     1      0.29818
    4    10     1      0.25781
    2    11     1      0.27208

[ bonds ]
;  ai    aj   funct      b0(nm)          k(kJ/mol/nm^2)
    1     2     1      0.33342           6334.9
    4     9     1      0.24934          13939.9
   11    12     1      0.30180           7891.6
    4     5     1      0.30919          16820.0
    3     4     1      0.25926           7918.7
    6     7     1      0.28761           3267.2

[ angles ]
;  ai    aj    ak  funct     th0(deg)        k(kJ/mol/rad^2)
    1     2     3     1    153.67334           176.29
    1     2    11     1     91.98967           482.90
    1     2    12     1    100.92764           388.10
    2     3     4     1    130.40849            43.34
    2    11    12     1     59.43475           721.18
    2    12    11     1     55.02144          1862.48
    3     2    11     1     80.95318           249.21
    3     2    12     1     97.70777           167.55
    3     4     5     1    108.02889           144.01
    3     4     9     1    135.18992           324.63
    3     4    10     1     64.62771           408.29
    4     5     6     1    104.38240            43.57
    4     9    10     1     55.37097          1035.76
    4    10     9     1     52.66754          1013.12
    5     4     9     1    112.80176           543.03
    5     4    10     1    154.60088            83.01
    5     6     7     1     93.70898            34.32
    6     7     8     1    149.67130            41.46
    9     4    10     1     71.96159          1522.22
   11     2    12     1     65.54314           362.87

[ dihedrals ]
;  ai    aj    ak    al  funct   phi0(deg)        k(kJ/mol)   mult
    1     2     3     4     1     73.19799       30.100      1
    1     2    11    12     1    -78.10769       10.708      1
    1     2    12    11     1     90.17471        9.250      1
    2     3     4     5     1    -16.12157       27.761      1
    2     3     4     9     1    177.10497       23.779      1
    2     3     4    10     1   -170.74293       25.164      1
    3     2    11    12     1     77.91241       13.608      1
    3     2    12    11     1   -106.26350       10.697      1
    3     4     5     6     1    105.07330       24.860      1
    3     4     9    10     1   -176.91887       19.858      1
    3     4    10     9     1      4.99760       17.124      1
    4     3     2    11     1     -4.27704       28.876      1
    4     3     2    12     1    -69.74347       28.114      1
    4     5     6     7     1     95.79289       26.352      1
    5     4     9    10     1     24.00013       16.972      1
    5     4    10     9     1    -77.24512       15.447      1
    5     6     7     8     1    -40.19569       19.617      1
    6     5     4     9     1    -85.02854       28.161      1
    6     5     4    10     1    175.53018       25.678      1
