[ moleculetype ]
; name        nrexcl
res           1

[ atoms ]
;    nr  type resnr resid  atom  cgnr     charge       mass
      1 SC4       1 res   C1        1      0.000     54.000
      2 TC3       1 res   C2        2      0.000     36.000
      3 TC5       1 res   C3        3      0.000     36.000
      4 SP2       1 res   C4        4      0.000     54.000
      5 TC3       1 res   C5        5      0.000     36.000
      6 SC4       1 res   C6        6      0.000     54.000
      7 TC3       1 res   C7        7      0.000     36.000
      8 SC4       1 res   C8        8      0.000     54.000
      9 SC4       1 res   C9        9      0.000     54.000
     10 TC3       1 res   C10      10      0.000     36.000
     11 TN6       1 res   C11      11      0.000     36.000
     12 TC4       1 res   C12      12      0.000     36.000
     13 TP1       1 res   C13      13      0.000     36.000
     14 SN6a      1 res   C14      14      0.000     54.000
     15 TN6       1 res   C15      15      0.000     36.000

[ bonds ]
;  ai    aj   funct      b0(nm)        k
    1     2     1      0.29506    20000
    1    15     1      0.28167    20000
    2     3     1      0.25764    20000
    3     4     1      0.33495    20000
    3     5     1      0.26625    20000
    3     6     1      0.31266    20000
    3    15     1      0.25031    20000
    5     6     1      0.30122    20000
    6     7     1      0.39173    20000
    6     8     1      0.30700    20000
    7     8     1      0.37510    20000
    8     9     1      0.25303    20000
    8    14     1      0.29402    20000
    9    10     1      0.31421    20000
    9    12     1      0.28419    20000
    9    14     1      0.37138    20000
   10    11     1      0.25302    20000
   11    12     1      0.26369    20000
   12    13     1      0.29366    20000
