1TPCN05952
15
    1res  C1    1    0.725   0.095   0.094
    1res  C2    2    0.473   0.118   0.153
    1res  C3    3    0.493  -0.096   0.069
    1res  C4    4    0.289  -0.048   0.014
    1res  C5    5    0.040  -0.065  -0.269
    1res  C6    6    0.046  -0.301  -0.101
    1res  C7    7   -0.031  -0.103   0.092
    1res  C8    8   -0.232   0.037  -0.117
    1res  C9    9   -0.402  -0.149  -0.119
    1res  C10   10   -0.417   0.211  -0.044
    1res  C11   11   -0.686   0.033   0.078
    1res  C12   12   -0.550  -0.065   0.246
    1res  C13   13   -0.324   0.050   0.213
    1res  C14   14   -0.012   0.174  -0.082
    1res  C15   15    0.429  -0.142  -0.216
  10.00000  10.00000  10.00000
