1TPCN00865
11
    1res  C1    1   -0.164   0.191  -0.268
    1res  C2    2   -0.157  -0.087  -0.157
    1res  C3    3    0.028  -0.011   0.044
    1res  C4    4    0.254   0.026   0.020
    1res  C5    5    0.358   0.137  -0.259
    1res  C6    6    0.521   0.083  -0.018
    1res  C7    7    0.526   0.028   0.192
    1res  C8    8    0.316  -0.065   0.248
    1res  C9    9   -0.242   0.033   0.078
    1res  C10   10   -0.131  -0.087   0.320
    1res  C11   11   -0.409  -0.178   0.181
  10.00000  10.00000  10.00000
