[ moleculetype ]
; name        nrexcl
res           1

[ atoms ]
;    nr  type  resnr resid  atom  cgnr     charge       mass
      1 TC4       1 res   C1        1      0.000     36.000
      2 SN6       1 res   C2        2      0.000     54.000
      3 SN5a      1 res   C3        3      0.000     54.000
      4 SC5       1 res   C4        4      0.000     54.000
      5 N4a       1 res   C5        5      0.000     72.000
      6 TC5       1 res   C6        6      0.000     36.000
      7 TC5       1 res   C7        7      0.000     36.000
      8 TC5       1 res   C8        8      0.000     36.000
      9 TN6       1 res   C9        9      0.000     36.000
     10 SN4a      1 res   C10      10      0.000     54.000
     11 TP1       1 res   C11      11      0.000     36.000
     12 SP4       1 res   C12      12      0.000     54.000
     13 TN6       1 res   C13      13      0.000     36.000

[ constraints ]
;  ai    aj   funct      b0(nm)
    1     2     1      0.36447
   10    11     1      0.24275
    4     9     1      0.23041
    2     3     1      0.28525
   10    13     1      0.26027
    6     8     1      0.29778
    3     4     1      0.31835
    7     8     1      0.28795
    1     3     1      0.35737
    5     6     1      0.31512
    9    10     1      0.31801
    6     7     1      0.25558
   12    13     1      0.27140
   10    12     1      0.28454
    1     9     1      0.26010
    2     4     1      0.28087

[ bonds ]
;  ai    aj   funct      b0(nm)          k(kJ/mol/nm^2)
    4     5     1      0.28116           6228.0

[ angles ]
;  ai    aj    ak  funct     th0(deg)        k(kJ/mol/rad^2)
    1     2     3     1     65.41527          4553.71
    1     2     4     1     73.96018          2875.41
    1     3     2     1     68.04560          3246.02
    1     3     4     1     71.05992          2679.19
    1     9     4     1    106.72201          1417.83
    1     9    10     1    129.19935           129.86
    2     1     3     1     46.53907          5769.10
    2     1     9     1     75.48058          2606.96
    2     3     4     1     55.12547          3070.72
    2     4     3     1     56.43120          4054.42
    2     4     5     1    130.29650           217.00
    2     4     9     1     99.36032          1957.37
    3     1     9     1     58.61471          3328.57
    3     2     4     1     68.44330          2935.90
    3     4     5     1     77.98636           331.63
    3     4     9     1     67.62436          3114.54
    4     5     6     1    104.54577            43.89
    4     9    10     1    111.40407           453.76
    5     4     9     1     77.54065           611.59
    5     6     7     1    159.43563           236.22
    5     6     8     1     99.63623           385.49
    6     7     8     1     66.13414          8011.87
    6     8     7     1     51.70522         16983.10
    7     6     8     1     62.16063         10790.27
    9    10    11     1    134.70356           335.64
    9    10    12     1    109.79108          1501.08
    9    10    13     1     56.09758          1036.25
   10    12    13     1     55.74181          1805.56
   10    13    12     1     64.72411          1398.43
   11    10    12     1     80.52908          1068.50
   11    10    13     1    135.20113           396.57
   12    10    13     1     59.53407          1874.27

[ dihedrals ]
;  ai    aj    ak    al  funct   phi0(deg)        k(kJ/mol)   mult
    1     2     3     4     1    -98.05015        4.760      1
    1     2     4     3     1    110.01958        4.698      1
    1     2     4     5     1     84.94691       11.519      1
    1     2     4     9     1    165.04638        5.575      1
    1     3     2     4     1     98.05015        4.760      1
    1     3     4     2     1   -104.00036        4.726      1
    1     3     4     5     1     53.14411       10.030      1
    1     3     4     9     1    137.93018        4.779      1
    1     9     4     2     1   -159.03825        7.116      1
    1     9     4     3     1   -111.08173        5.560      1
    1     9     4     5     1    -31.80990       13.627      1
    1     9    10    11     1    -25.21478       24.736      1
    1     9    10    12     1   -120.06784       23.468      1
    1     9    10    13     1   -147.85041       21.932      1
    2     1     3     4     1    120.99322        4.024      1
    2     1     9     4     1    164.00699        6.307      1
    2     1     9    10     1     22.22759       15.035      1
    2     3     1     9     1    -79.97761        6.282      1
    2     3     4     5     1    -22.86328       11.459      1
    2     3     4     9     1     60.08668        6.284      1
    2     4     5     6     1    104.33366       22.204      1
    2     4     9    10     1    -14.92480       17.133      1
    3     1     2     4     1   -106.99844        4.022      1
    3     1     9     4     1    116.98217        5.496      1
    3     1     9    10     1    -26.18442       15.001      1
    3     2     1     9     1    120.91254        5.517      1
    3     2     4     5     1    152.12345       10.774      1
    3     2     4     9     1   -125.90725        6.255      1
    3     4     5     6     1     84.30654       20.750      1
    3     4     9    10     1     31.39483       17.103      1
    4     2     1     9     1   -167.00234        5.541      1
    4     3     1     9     1   -139.92663        4.724      1
    4     5     6     7     1     96.14106       27.735      1
    4     5     6     8     1     98.07761       30.013      1
    4     9    10    11     1   -167.80898       19.411      1
    4     9    10    12     1     96.39114       19.414      1
    4     9    10    13     1     71.81050       17.619      1
    5     4     9    10     1    109.78831       19.537      1
    5     6     7     8     1   -177.91546       29.064      1
    5     6     8     7     1      2.56167       17.079      1
    6     5     4     9     1     13.43401       20.895      1
    9    10    12    13     1    156.78925       12.875      1
    9    10    13    12     1    -26.97740       12.916      1
   11    10    12    13     1     20.96725       10.101      1
   11    10    13    12     1   -150.87696       12.944      1
