150-99-7
6
    1res  C1    1   -0.122  -0.181  -0.049
    1res  C2    2   -0.235  -0.012   0.018
    1res  C3    3   -0.130   0.169   0.068
    1res  C4    4    0.059   0.149  -0.029
    1res  C5    5    0.077  -0.069  -0.013
    1res  C6    6    0.289  -0.085  -0.009
  10.00000  10.00000  10.00000
