1TPCN04295
28
    1res  C1    1    0.666   0.210   0.149
    1res  C2    2    0.442  -0.009   0.223
    1res  C3    3    0.298   0.013   0.078
    1res  C4    4    0.213   0.174  -0.100
    1res  C5    5    0.066  -0.034  -0.218
    1res  C6    6   -0.157   0.245  -0.085
    1res  C7    7   -0.248  -0.054  -0.292
    1res  C8    8   -0.386   0.092  -0.161
    1res  C9    9   -0.517   0.306  -0.150
    1res  C10   10   -0.586  -0.034  -0.263
    1res  C11   11   -0.707   0.096  -0.014
    1res  C12   12   -0.745   0.008   0.252
    1res  C13   13   -0.963   0.037   0.362
    1res  C14   14   -0.734  -0.133   0.476
    1res  C15   15   -0.727  -0.299   0.311
    1res  C16   16   -0.578  -0.220   0.134
    1res  C17   17   -0.810   0.109  -0.360
    1res  C18   18   -0.824  -0.184  -0.324
    1res  C19   19   -0.141   0.025   0.094
    1res  C20   20    0.191  -0.204   0.027
    1res  C21   21    0.520  -0.222   0.221
    1res  C22   22    0.730  -0.118   0.291
    1res  C23   23    0.910   0.023   0.113
    1res  C24   24    1.083   0.037  -0.080
    1res  C25   25    1.174   0.223  -0.180
    1res  C26   26    1.245   0.151   0.091
    1res  C27   27    1.213  -0.029   0.213
    1res  C28   28    1.022  -0.173   0.130
  10.00000  10.00000  10.00000
