1TPCN05811
23
    1res  C1    1   -0.724  -0.301  -0.216
    1res  C2    2   -1.000  -0.325  -0.101
    1res  C3    3   -0.860  -0.023  -0.170
    1res  C4    4   -0.788  -0.099   0.113
    1res  C5    5   -0.653   0.169   0.053
    1res  C6    6   -0.465   0.061  -0.162
    1res  C7    7   -0.321  -0.199   0.016
    1res  C8    8   -0.323   0.078   0.116
    1res  C9    9   -0.056   0.055   0.126
    1res  C10   10    0.126  -0.027  -0.033
    1res  C11   11    0.398   0.065   0.061
    1res  C12   12    0.482   0.262   0.142
    1res  C13   13    0.566   0.386   0.352
    1res  C14   14    0.710   0.335   0.089
    1res  C15   15    0.687   0.202  -0.111
    1res  C16   16    0.588   0.009  -0.014
    1res  C17   17    0.724  -0.206  -0.093
    1res  C18   18    0.992  -0.194  -0.288
    1res  C19   19    0.888  -0.422  -0.088
    1res  C20   20    0.796  -0.429   0.108
    1res  C21   21    0.685  -0.256   0.172
    1res  C22   22    0.146   0.317   0.053
    1res  C23   23   -0.218   0.302   0.036
  10.00000  10.00000  10.00000
