[ moleculetype ]
; name        nrexcl
res           1

[ atoms ]
;    nr  type resnr resid  atom  cgnr     charge       mass
      1 SC4       1 res   C1        1      0.000     54.000
      2 N4a       1 res   C2        2      0.000     72.000
      3 TC5       1 res   C3        3      0.000     36.000
      4 TC5       1 res   C4        4      0.000     36.000
      5 TC5       1 res   C5        5      0.000     36.000
      6 TC3       1 res   C6        6      0.000     36.000
      7 SC4       1 res   C7        7      0.000     54.000
      8 TC3       1 res   C8        8      0.000     36.000
      9 TC4       1 res   C9        9      0.000     36.000
     10 TC5       1 res   C10      10      0.000     36.000
     11 TC3       1 res   C11      11      0.000     36.000
     12 SC4       1 res   C12      12      0.000     54.000
     13 SC3       1 res   C13      13      0.000     54.000
     14 SN4a      1 res   C14      14      0.000     54.000
     15 TC5       1 res   C15      15      0.000     36.000
     16 TC5       1 res   C16      16      0.000     36.000
     17 TC5       1 res   C17      17      0.000     36.000
     18 SC4       1 res   C18      18      0.000     54.000
     19 TC3       1 res   C19      19      0.000     36.000
     20 TC4       1 res   C20      20      0.000     36.000

[ bonds ]
;  ai    aj   funct      b0(nm)        k
    1     2     1      0.30602    20000
    1     6     1      0.29404    20000
    1     7     1      0.31411    20000
    2     3     1      0.32509    20000
    3     4     1      0.25821    20000
    3     5     1      0.30222    20000
    4     5     1      0.29088    20000
    6     7     1      0.27897    20000
    7     8     1      0.27264    20000
    7    20     1      0.38750    20000
    8     9     1      0.32315    20000
    9    10     1      0.31770    20000
    9    20     1      0.27884    20000
   10    11     1      0.25621    20000
   10    12     1      0.28169    20000
   10    19     1      0.24072    20000
   11    12     1      0.38090    20000
   12    13     1      0.28724    20000
   12    18     1      0.32776    20000
   13    14     1      0.30958    20000
   13    18     1      0.35312    20000
   14    15     1      0.25159    20000
   15    16     1      0.25819    20000
   15    17     1      0.30227    20000
   16    17     1      0.29108    20000
   19    20     1      0.30849    20000
