Generated with MDTraj, t= 0.0
 52
    1UNL     C1    1  -0.411  -0.046   0.219
    1UNL     C2    2  -0.417  -0.005   0.071
    1UNL     C3    3  -0.463  -0.122  -0.016
    1UNL     C4    4  -0.282   0.055   0.024
    1UNL     C5    5  -0.293   0.126  -0.113
    1UNL     C6    6  -0.161   0.194  -0.152
    1UNL     C7    7  -0.042   0.095  -0.154
    1UNL     C8    8  -0.046  -0.001  -0.272
    1UNL     C9    9  -0.032   0.017  -0.019
    1UNL     O1   10   0.070  -0.082  -0.028
    1UNL    C10   11   0.139  -0.095   0.095
    1UNL     O2   12   0.197   0.028   0.138
    1UNL    C11   13   0.293   0.074   0.044
    1UNL    C12   14   0.337   0.217   0.075
    1UNL     O3   15   0.441   0.259  -0.012
    1UNL    C13   16   0.413  -0.024   0.036
    1UNL     O4   17   0.483  -0.033   0.159
    1UNL    C14   18   0.362  -0.165  -0.007
    1UNL     O5   19   0.320  -0.169  -0.142
    1UNL    C15   20   0.245  -0.208   0.085
    1UNL     O6   21   0.186  -0.324   0.031
    1UNL    C16   22  -0.167  -0.047   0.020
    1UNL     H1   23  -0.509  -0.079   0.254
    1UNL     H2   24  -0.342  -0.128   0.234
    1UNL     H3   25  -0.379   0.037   0.282
    1UNL     H4   26  -0.492   0.076   0.062
    1UNL     H5   27  -0.471  -0.094  -0.121
    1UNL     H6   28  -0.394  -0.205  -0.009
    1UNL     H7   29  -0.561  -0.158   0.016
    1UNL     H8   30  -0.253   0.133   0.097
    1UNL     H9   31  -0.320   0.052  -0.189
    1UNL    H10   32  -0.376   0.197  -0.112
    1UNL    H11   33  -0.141   0.276  -0.082
    1UNL    H12   34  -0.171   0.242  -0.251
    1UNL    H13   35   0.051   0.154  -0.163
    1UNL    H14   36   0.039  -0.069  -0.270
    1UNL    H15   37  -0.136  -0.062  -0.270
    1UNL    H16   38  -0.045   0.053  -0.368
    1UNL    H17   39  -0.002   0.088   0.060
    1UNL    H18   40   0.064  -0.123   0.170
    1UNL    H19   41   0.243   0.073  -0.054
    1UNL    H20   42   0.252   0.285   0.067
    1UNL    H21   43   0.373   0.222   0.179
    1UNL    H22   44   0.468   0.352   0.009
    1UNL    H23   45   0.485   0.013  -0.039
    1UNL    H24   46   0.511   0.056   0.188
    1UNL    H25   47   0.444  -0.238   0.004
    1UNL    H26   48   0.392  -0.135  -0.201
    1UNL    H27   49   0.283  -0.233   0.185
    1UNL    H28   50   0.164  -0.303  -0.062
    1UNL    H29   51  -0.157  -0.099   0.116
    1UNL    H30   52  -0.189  -0.126  -0.053
   0.00000   0.00000   0.00000   0.00000   0.00000   0.00000   0.00000   0.00000   0.00000
Generated with MDTraj, t= 1.0
 52
    1UNL     C1    1  -0.388   0.017   0.236
    1UNL     C2    2  -0.408   0.030   0.089
    1UNL     C3    3  -0.471  -0.093   0.017
    1UNL     C4    4  -0.268   0.065   0.022
    1UNL     C5    5  -0.278   0.132  -0.117
    1UNL     C6    6  -0.149   0.177  -0.166
    1UNL     C7    7  -0.036   0.068  -0.174
    1UNL     C8    8  -0.061  -0.032  -0.284
    1UNL     C9    9  -0.021  -0.004  -0.036
    1UNL     O1   10   0.066  -0.116  -0.040
    1UNL    C10   11   0.144  -0.124   0.075
    1UNL     O2   12   0.178   0.008   0.125
    1UNL    C11   13   0.274   0.072   0.045
    1UNL    C12   14   0.304   0.214   0.098
    1UNL     O3   15   0.394   0.276   0.014
    1UNL    C13   16   0.407  -0.016   0.053
    1UNL     O4   17   0.461  -0.026   0.189
    1UNL    C14   18   0.376  -0.151  -0.010
    1UNL     O5   19   0.336  -0.138  -0.144
    1UNL    C15   20   0.267  -0.226   0.068
    1UNL     O6   21   0.227  -0.348   0.000
    1UNL    C16   22  -0.167  -0.048   0.009
    1UNL     H1   23  -0.490   0.020   0.284
    1UNL     H2   24  -0.353  -0.082   0.254
    1UNL     H3   25  -0.330   0.093   0.295
    1UNL     H4   26  -0.467   0.122   0.072
    1UNL     H5   27  -0.455  -0.095  -0.085
    1UNL     H6   28  -0.436  -0.184   0.055
    1UNL     H7   29  -0.588  -0.103   0.036
    1UNL     H8   30  -0.225   0.151   0.080
    1UNL     H9   31  -0.322   0.057  -0.192
    1UNL    H10   32  -0.351   0.211  -0.112
    1UNL    H11   33  -0.112   0.258  -0.106
    1UNL    H12   34  -0.164   0.227  -0.263
    1UNL    H13   35   0.058   0.127  -0.189
    1UNL    H14   36  -0.124   0.010  -0.354
    1UNL    H15   37   0.021  -0.077  -0.340
    1UNL    H16   38  -0.122  -0.117  -0.242
    1UNL    H17   39  -0.000   0.079   0.027
    1UNL    H18   40   0.083  -0.149   0.162
    1UNL    H19   41   0.233   0.070  -0.057
    1UNL    H20   42   0.214   0.275   0.106
    1UNL    H21   43   0.351   0.203   0.196
    1UNL    H22   44   0.447   0.352   0.037
    1UNL    H23   45   0.483   0.043  -0.004
    1UNL    H24   46   0.404   0.022   0.247
    1UNL    H25   47   0.468  -0.212   0.001
    1UNL    H26   48   0.406  -0.105  -0.204
    1UNL    H27   49   0.298  -0.241   0.173
    1UNL    H28   50   0.243  -0.330  -0.100
    1UNL    H29   51  -0.169  -0.099   0.114
    1UNL    H30   52  -0.216  -0.113  -0.059
   0.00000   0.00000   0.00000   0.00000   0.00000   0.00000   0.00000   0.00000   0.00000
Generated with MDTraj, t= 2.0
 52
    1UNL     C1    1  -0.354   0.053   0.248
    1UNL     C2    2  -0.377   0.055   0.098
    1UNL     C3    3  -0.467  -0.054   0.047
    1UNL     C4    4  -0.244   0.076   0.018
    1UNL     C5    5  -0.272   0.134  -0.127
    1UNL     C6    6  -0.139   0.161  -0.197
    1UNL     C7    7  -0.040   0.038  -0.202
    1UNL     C8    8  -0.076  -0.081  -0.291
    1UNL     C9    9  -0.016  -0.013  -0.051
    1UNL     O1   10   0.071  -0.121  -0.049
    1UNL    C10   11   0.133  -0.139   0.077
    1UNL     O2   12   0.173  -0.020   0.148
    1UNL    C11   13   0.257   0.060   0.072
    1UNL    C12   14   0.259   0.207   0.119
    1UNL     O3   15   0.340   0.283   0.032
    1UNL    C13   16   0.395  -0.011   0.068
    1UNL     O4   17   0.449  -0.032   0.195
    1UNL    C14   18   0.381  -0.146  -0.013
    1UNL     O5   19   0.374  -0.120  -0.151
    1UNL    C15   20   0.264  -0.225   0.053
    1UNL     O6   21   0.228  -0.324  -0.043
    1UNL    C16   22  -0.151  -0.048   0.012
    1UNL     H1   23  -0.442   0.020   0.310
    1UNL     H2   24  -0.272  -0.011   0.270
    1UNL     H3   25  -0.345   0.158   0.290
    1UNL     H4   26  -0.430   0.151   0.080
    1UNL     H5   27  -0.512  -0.041  -0.047
    1UNL     H6   28  -0.414  -0.144   0.051
    1UNL     H7   29  -0.543  -0.068   0.135
    1UNL     H8   30  -0.178   0.153   0.066
    1UNL     H9   31  -0.341   0.052  -0.178
    1UNL    H10   32  -0.337   0.218  -0.120
    1UNL    H11   33  -0.094   0.245  -0.155
    1UNL    H12   34  -0.151   0.195  -0.300
    1UNL    H13   35   0.069   0.062  -0.220
    1UNL    H14   36  -0.122  -0.151  -0.229
    1UNL    H15   37  -0.153  -0.051  -0.360
    1UNL    H16   38   0.013  -0.132  -0.340
    1UNL    H17   39   0.026   0.070   0.002
    1UNL    H18   40   0.066  -0.200   0.139
    1UNL    H19   41   0.217   0.045  -0.028
    1UNL    H20   42   0.157   0.248   0.125
    1UNL    H21   43   0.293   0.214   0.222
    1UNL    H22   44   0.343   0.374   0.082
    1UNL    H23   45   0.471   0.054   0.015
    1UNL    H24   46   0.437   0.043   0.253
    1UNL    H25   47   0.477  -0.199   0.002
    1UNL    H26   48   0.456  -0.077  -0.185
    1UNL    H27   49   0.298  -0.291   0.136
    1UNL    H28   50   0.212  -0.275  -0.124
    1UNL    H29   51  -0.124  -0.092   0.119
    1UNL    H30   52  -0.199  -0.124  -0.046
   0.00000   0.00000   0.00000   0.00000   0.00000   0.00000   0.00000   0.00000   0.00000
Generated with MDTraj, t= 3.0
 52
    1UNL     C1    1  -0.307   0.080   0.253
    1UNL     C2    2  -0.351   0.076   0.109
    1UNL     C3    3  -0.449  -0.040   0.078
    1UNL     C4    4  -0.232   0.089   0.014
    1UNL     C5    5  -0.273   0.112  -0.136
    1UNL     C6    6  -0.153   0.147  -0.230
    1UNL     C7    7  -0.057   0.027  -0.232
    1UNL     C8    8  -0.107  -0.103  -0.299
    1UNL     C9    9  -0.012  -0.004  -0.077
    1UNL     O1   10   0.078  -0.121  -0.075
    1UNL    C10   11   0.135  -0.152   0.053
    1UNL     O2   12   0.156  -0.037   0.133
    1UNL    C11   13   0.249   0.055   0.073
    1UNL    C12   14   0.247   0.191   0.141
    1UNL     O3   15   0.302   0.306   0.068
    1UNL    C13   16   0.395  -0.007   0.088
    1UNL     O4   17   0.426  -0.044   0.218
    1UNL    C14   18   0.388  -0.140  -0.009
    1UNL     O5   19   0.373  -0.103  -0.144
    1UNL    C15   20   0.268  -0.225   0.042
    1UNL     O6   21   0.249  -0.335  -0.036
    1UNL    C16   22  -0.134  -0.031   0.019
    1UNL     H1   23  -0.369   0.136   0.327
    1UNL     H2   24  -0.284  -0.024   0.279
    1UNL     H3   25  -0.216   0.147   0.259
    1UNL     H4   26  -0.400   0.176   0.095
    1UNL     H5   27  -0.492  -0.035  -0.019
    1UNL     H6   28  -0.391  -0.132   0.079
    1UNL     H7   29  -0.514  -0.049   0.156
    1UNL     H8   30  -0.163   0.168   0.051
    1UNL     H9   31  -0.331   0.019  -0.177
    1UNL    H10   32  -0.347   0.189  -0.124
    1UNL    H11   33  -0.109   0.235  -0.195
    1UNL    H12   34  -0.186   0.170  -0.328
    1UNL    H13   35   0.041   0.052  -0.284
    1UNL    H14   36  -0.046  -0.182  -0.255
    1UNL    H15   37  -0.209  -0.127  -0.276
    1UNL    H16   38  -0.084  -0.109  -0.406
    1UNL    H17   39   0.043   0.081  -0.042
    1UNL    H18   40   0.059  -0.212   0.105
    1UNL    H19   41   0.228   0.064  -0.032
    1UNL    H20   42   0.143   0.218   0.166
    1UNL    H21   43   0.297   0.186   0.235
    1UNL    H22   44   0.292   0.390   0.121
    1UNL    H23   45   0.465   0.073   0.048
    1UNL    H24   46   0.446  -0.140   0.232
    1UNL    H25   47   0.485  -0.193   0.000
    1UNL    H26   48   0.429  -0.025  -0.174
    1UNL    H27   49   0.292  -0.256   0.147
    1UNL    H28   50   0.222  -0.297  -0.124
    1UNL    H29   51  -0.078  -0.039   0.121
    1UNL    H30   52  -0.168  -0.131  -0.011
   0.00000   0.00000   0.00000   0.00000   0.00000   0.00000   0.00000   0.00000   0.00000
Generated with MDTraj, t= 4.0
 52
    1UNL     C1    1  -0.244   0.104   0.250
    1UNL     C2    2  -0.318   0.090   0.119
    1UNL     C3    3  -0.418  -0.038   0.115
    1UNL     C4    4  -0.221   0.094  -0.001
    1UNL     C5    5  -0.286   0.106  -0.145
    1UNL     C6    6  -0.177   0.117  -0.253
    1UNL     C7    7  -0.069  -0.001  -0.252
    1UNL     C8    8  -0.132  -0.127  -0.309
    1UNL     C9    9  -0.012  -0.013  -0.110
    1UNL     O1   10   0.087  -0.119  -0.097
    1UNL    C10   11   0.126  -0.144   0.042
    1UNL     O2   12   0.134  -0.027   0.128
    1UNL    C11   13   0.245   0.061   0.090
    1UNL    C12   14   0.250   0.189   0.178
    1UNL     O3   15   0.307   0.299   0.111
    1UNL    C13   16   0.382  -0.013   0.105
    1UNL     O4   17   0.405  -0.037   0.238
    1UNL    C14   18   0.377  -0.135   0.007
    1UNL     O5   19   0.376  -0.101  -0.129
    1UNL    C15   20   0.259  -0.221   0.034
    1UNL     O6   21   0.252  -0.324  -0.065
    1UNL    C16   22  -0.130  -0.033  -0.007
    1UNL     H1   23  -0.307   0.102   0.341
    1UNL     H2   24  -0.162   0.024   0.253
    1UNL     H3   25  -0.203   0.207   0.264
    1UNL     H4   26  -0.371   0.187   0.101
    1UNL     H5   27  -0.440  -0.072   0.017
    1UNL     H6   28  -0.367  -0.122   0.160
    1UNL     H7   29  -0.501  -0.027   0.171
    1UNL     H8   30  -0.154   0.181   0.008
    1UNL     H9   31  -0.361   0.020  -0.151
    1UNL    H10   32  -0.346   0.197  -0.160
    1UNL    H11   33  -0.130   0.211  -0.251
    1UNL    H12   34  -0.240   0.122  -0.335
    1UNL    H13   35   0.004   0.035  -0.330
    1UNL    H14   36  -0.082  -0.166  -0.401
    1UNL    H15   37  -0.137  -0.213  -0.241
    1UNL    H16   38  -0.223  -0.105  -0.350
    1UNL    H17   39   0.028   0.087  -0.091
    1UNL    H18   40   0.037  -0.202   0.077
    1UNL    H19   41   0.230   0.090  -0.011
    1UNL    H20   42   0.148   0.222   0.207
    1UNL    H21   43   0.310   0.173   0.264
    1UNL    H22   44   0.312   0.386   0.148
    1UNL    H23   45   0.452   0.063   0.061
    1UNL    H24   46   0.503  -0.067   0.246
    1UNL    H25   47   0.467  -0.198   0.025
    1UNL    H26   48   0.409  -0.010  -0.148
    1UNL    H27   49   0.269  -0.273   0.132
    1UNL    H28   50   0.240  -0.273  -0.155
    1UNL    H29   51  -0.083  -0.056   0.090
    1UNL    H30   52  -0.195  -0.118  -0.046
   0.00000   0.00000   0.00000   0.00000   0.00000   0.00000   0.00000   0.00000   0.00000
Generated with MDTraj, t= 5.0
 52
    1UNL     C1    1  -0.230   0.146   0.237
    1UNL     C2    2  -0.311   0.103   0.119
    1UNL     C3    3  -0.384  -0.027   0.148
    1UNL     C4    4  -0.219   0.097  -0.014
    1UNL     C5    5  -0.299   0.086  -0.145
    1UNL     C6    6  -0.202   0.092  -0.265
    1UNL     C7    7  -0.083  -0.014  -0.253
    1UNL     C8    8  -0.127  -0.150  -0.282
    1UNL     C9    9  -0.008  -0.006  -0.119
    1UNL     O1   10   0.100  -0.103  -0.112
    1UNL    C10   11   0.133  -0.139   0.022
    1UNL     O2   12   0.126  -0.029   0.110
    1UNL    C11   13   0.228   0.067   0.082
    1UNL    C12   14   0.209   0.191   0.174
    1UNL     O3   15   0.330   0.264   0.173
    1UNL    C13   16   0.365  -0.006   0.106
    1UNL     O4   17   0.379  -0.043   0.239
    1UNL    C14   18   0.386  -0.130   0.008
    1UNL     O5   19   0.392  -0.088  -0.127
    1UNL    C15   20   0.262  -0.223   0.023
    1UNL     O6   21   0.259  -0.325  -0.086
    1UNL    C16   22  -0.114  -0.022  -0.005
    1UNL     H1   23  -0.294   0.169   0.325
    1UNL     H2   24  -0.148   0.072   0.264
    1UNL     H3   25  -0.189   0.248   0.225
    1UNL     H4   26  -0.383   0.182   0.086
    1UNL     H5   27  -0.452  -0.056   0.075
    1UNL     H6   28  -0.315  -0.103   0.161
    1UNL     H7   29  -0.434  -0.014   0.251
    1UNL     H8   30  -0.173   0.197  -0.026
    1UNL     H9   31  -0.346  -0.012  -0.157
    1UNL    H10   32  -0.382   0.164  -0.139
    1UNL    H11   33  -0.164   0.190  -0.263
    1UNL    H12   34  -0.256   0.073  -0.350
    1UNL    H13   35  -0.011   0.006  -0.337
    1UNL    H14   36  -0.188  -0.152  -0.377
    1UNL    H15   37  -0.047  -0.226  -0.275
    1UNL    H16   38  -0.207  -0.170  -0.221
    1UNL    H17   39   0.032   0.097  -0.103
    1UNL    H18   40   0.039  -0.199   0.040
    1UNL    H19   41   0.221   0.075  -0.023
    1UNL    H20   42   0.122   0.253   0.138
    1UNL    H21   43   0.183   0.164   0.273
    1UNL    H22   44   0.309   0.349   0.224
    1UNL    H23   45   0.444   0.068   0.093
    1UNL    H24   46   0.401  -0.141   0.243
    1UNL    H25   47   0.476  -0.177   0.052
    1UNL    H26   48   0.484  -0.067  -0.149
    1UNL    H27   49   0.253  -0.283   0.114
    1UNL    H28   50   0.267  -0.273  -0.167
    1UNL    H29   51  -0.079  -0.012   0.093
    1UNL    H30   52  -0.164  -0.128  -0.017
   0.00000   0.00000   0.00000   0.00000   0.00000   0.00000   0.00000   0.00000   0.00000
Generated with MDTraj, t= 6.0
 52
    1UNL     C1    1  -0.240   0.193   0.214
    1UNL     C2    2  -0.317   0.120   0.108
    1UNL     C3    3  -0.360  -0.010   0.163
    1UNL     C4    4  -0.225   0.097  -0.025
    1UNL     C5    5  -0.312   0.060  -0.141
    1UNL     C6    6  -0.226   0.067  -0.277
    1UNL     C7    7  -0.106  -0.027  -0.261
    1UNL     C8    8  -0.138  -0.177  -0.280
    1UNL     C9    9  -0.019  -0.003  -0.128
    1UNL     O1   10   0.096  -0.094  -0.122
    1UNL    C10   11   0.132  -0.142   0.008
    1UNL     O2   12   0.128  -0.039   0.114
    1UNL    C11   13   0.233   0.062   0.104
    1UNL    C12   14   0.221   0.175   0.204
    1UNL     O3   15   0.331   0.263   0.182
    1UNL    C13   16   0.375  -0.015   0.125
    1UNL     O4   17   0.380  -0.089   0.248
    1UNL    C14   18   0.390  -0.122   0.006
    1UNL     O5   19   0.419  -0.063  -0.117
    1UNL    C15   20   0.269  -0.220   0.005
    1UNL     O6   21   0.269  -0.302  -0.111
    1UNL    C16   22  -0.106  -0.005   0.001
    1UNL     H1   23  -0.315   0.239   0.286
    1UNL     H2   24  -0.172   0.123   0.267
    1UNL     H3   25  -0.189   0.287   0.182
    1UNL     H4   26  -0.404   0.180   0.071
    1UNL     H5   27  -0.428  -0.061   0.101
    1UNL     H6   28  -0.280  -0.070   0.191
    1UNL     H7   29  -0.414   0.020   0.263
    1UNL     H8   30  -0.180   0.193  -0.053
    1UNL     H9   31  -0.364  -0.031  -0.117
    1UNL    H10   32  -0.393   0.145  -0.156
    1UNL    H11   33  -0.198   0.165  -0.300
    1UNL    H12   34  -0.287   0.020  -0.345
    1UNL    H13   35  -0.029  -0.014  -0.338
    1UNL    H14   36  -0.213  -0.203  -0.358
    1UNL    H15   37  -0.044  -0.233  -0.286
    1UNL    H16   38  -0.196  -0.206  -0.193
    1UNL    H17   39   0.036   0.096  -0.126
    1UNL    H18   40   0.053  -0.221   0.021
    1UNL    H19   41   0.235   0.098   0.006
    1UNL    H20   42   0.129   0.240   0.187
    1UNL    H21   43   0.214   0.141   0.303
    1UNL    H22   44   0.352   0.316   0.268
    1UNL    H23   45   0.455   0.057   0.126
    1UNL    H24   46   0.350  -0.044   0.326
    1UNL    H25   47   0.480  -0.181   0.024
    1UNL    H26   48   0.352  -0.007  -0.163
    1UNL    H27   49   0.275  -0.283   0.094
    1UNL    H28   50   0.262  -0.232  -0.186
    1UNL    H29   51  -0.060   0.020   0.092
    1UNL    H30   52  -0.155  -0.107   0.019
   0.00000   0.00000   0.00000   0.00000   0.00000   0.00000   0.00000   0.00000   0.00000
Generated with MDTraj, t= 7.0
 52
    1UNL     C1    1  -0.240   0.229   0.189
    1UNL     C2    2  -0.313   0.126   0.098
    1UNL     C3    3  -0.352  -0.002   0.173
    1UNL     C4    4  -0.232   0.101  -0.031
    1UNL     C5    5  -0.311   0.046  -0.148
    1UNL     C6    6  -0.223   0.032  -0.283
    1UNL     C7    7  -0.095  -0.047  -0.252
    1UNL     C8    8  -0.127  -0.197  -0.242
    1UNL     C9    9  -0.015   0.009  -0.124
    1UNL     O1   10   0.107  -0.060  -0.119
    1UNL    C10   11   0.126  -0.128  -0.001
    1UNL     O2   12   0.133  -0.049   0.124
    1UNL    C11   13   0.239   0.040   0.121
    1UNL    C12   14   0.232   0.157   0.219
    1UNL     O3   15   0.322   0.272   0.203
    1UNL    C13   16   0.375  -0.037   0.128
    1UNL     O4   17   0.388  -0.112   0.243
    1UNL    C14   18   0.389  -0.123  -0.005
    1UNL     O5   19   0.397  -0.040  -0.123
    1UNL    C15   20   0.260  -0.215  -0.009
    1UNL     O6   21   0.257  -0.279  -0.131
    1UNL    C16   22  -0.112   0.000  -0.004
    1UNL     H1   23  -0.295   0.246   0.288
    1UNL     H2   24  -0.138   0.191   0.200
    1UNL     H3   25  -0.241   0.333   0.146
    1UNL     H4   26  -0.405   0.178   0.061
    1UNL     H5   27  -0.389  -0.073   0.097
    1UNL     H6   28  -0.279  -0.049   0.237
    1UNL     H7   29  -0.440   0.022   0.235
    1UNL     H8   30  -0.184   0.198  -0.047
    1UNL     H9   31  -0.362  -0.044  -0.121
    1UNL    H10   32  -0.402   0.123  -0.160
    1UNL    H11   33  -0.194   0.124  -0.318
    1UNL    H12   34  -0.276  -0.023  -0.354
    1UNL    H13   35  -0.038  -0.033  -0.343
    1UNL    H14   36  -0.162  -0.247  -0.333
    1UNL    H15   37  -0.043  -0.250  -0.202
    1UNL    H16   38  -0.217  -0.210  -0.175
    1UNL    H17   39   0.001   0.117  -0.156
    1UNL    H18   40   0.054  -0.210   0.009
    1UNL    H19   41   0.238   0.087   0.028
    1UNL    H20   42   0.124   0.192   0.227
    1UNL    H21   43   0.261   0.123   0.313
    1UNL    H22   44   0.323   0.344   0.265
    1UNL    H23   45   0.446   0.042   0.133
    1UNL    H24   46   0.328  -0.093   0.315
    1UNL    H25   47   0.479  -0.184  -0.016
    1UNL    H26   48   0.308  -0.025  -0.168
    1UNL    H27   49   0.264  -0.290   0.070
    1UNL    H28   50   0.237  -0.213  -0.196
    1UNL    H29   51  -0.060   0.023   0.089
    1UNL    H30   52  -0.148  -0.102   0.012
   0.00000   0.00000   0.00000   0.00000   0.00000   0.00000   0.00000   0.00000   0.00000
Generated with MDTraj, t= 8.0
 52
    1UNL     C1    1  -0.254   0.250   0.181
    1UNL     C2    2  -0.319   0.140   0.089
    1UNL     C3    3  -0.354   0.007   0.165
    1UNL     C4    4  -0.238   0.114  -0.036
    1UNL     C5    5  -0.305   0.017  -0.140
    1UNL     C6    6  -0.230  -0.001  -0.269
    1UNL     C7    7  -0.088  -0.059  -0.243
    1UNL     C8    8  -0.095  -0.201  -0.199
    1UNL     C9    9  -0.010   0.020  -0.136
    1UNL     O1   10   0.114  -0.044  -0.112
    1UNL    C10   11   0.125  -0.133  -0.005
    1UNL     O2   12   0.124  -0.057   0.122
    1UNL    C11   13   0.230   0.040   0.116
    1UNL    C12   14   0.227   0.130   0.241
    1UNL     O3   15   0.320   0.238   0.235
    1UNL    C13   16   0.368  -0.028   0.106
    1UNL     O4   17   0.395  -0.099   0.234
    1UNL    C14   18   0.374  -0.116  -0.017
    1UNL     O5   19   0.383  -0.049  -0.137
    1UNL    C15   20   0.257  -0.216  -0.021
    1UNL     O6   21   0.258  -0.275  -0.151
    1UNL    C16   22  -0.093   0.055  -0.005
    1UNL     H1   23  -0.327   0.280   0.261
    1UNL     H2   24  -0.158   0.213   0.218
    1UNL     H3   25  -0.243   0.347   0.123
    1UNL     H4   26  -0.416   0.174   0.049
    1UNL     H5   27  -0.411  -0.062   0.094
    1UNL     H6   28  -0.266  -0.052   0.211
    1UNL     H7   29  -0.416   0.023   0.245
    1UNL     H8   30  -0.215   0.207  -0.085
    1UNL     H9   31  -0.332  -0.076  -0.091
    1UNL    H10   32  -0.414   0.049  -0.171
    1UNL    H11   33  -0.215   0.089  -0.314
    1UNL    H12   34  -0.281  -0.065  -0.333
    1UNL    H13   35  -0.026  -0.056  -0.332
    1UNL    H14   36  -0.139  -0.254  -0.281
    1UNL    H15   37  -0.006  -0.254  -0.170
    1UNL    H16   38  -0.181  -0.211  -0.121
    1UNL    H17   39   0.035   0.111  -0.185
    1UNL    H18   40   0.042  -0.201   0.001
    1UNL    H19   41   0.219   0.096   0.029
    1UNL    H20   42   0.125   0.179   0.243
    1UNL    H21   43   0.228   0.069   0.325
    1UNL    H22   44   0.310   0.289   0.318
    1UNL    H23   45   0.438   0.052   0.105
    1UNL    H24   46   0.315  -0.111   0.290
    1UNL    H25   47   0.465  -0.176   0.003
    1UNL    H26   48   0.471  -0.012  -0.144
    1UNL    H27   49   0.270  -0.286   0.061
    1UNL    H28   50   0.258  -0.192  -0.213
    1UNL    H29   51  -0.023   0.116   0.060
    1UNL    H30   52  -0.096  -0.032   0.050
   0.00000   0.00000   0.00000   0.00000   0.00000   0.00000   0.00000   0.00000   0.00000
Generated with MDTraj, t= 9.0
 52
    1UNL     C1    1  -0.246   0.258   0.157
    1UNL     C2    2  -0.320   0.151   0.081
    1UNL     C3    3  -0.341   0.034   0.182
    1UNL     C4    4  -0.240   0.104  -0.048
    1UNL     C5    5  -0.319   0.007  -0.138
    1UNL     C6    6  -0.249  -0.021  -0.265
    1UNL     C7    7  -0.107  -0.079  -0.243
    1UNL     C8    8  -0.107  -0.228  -0.208
    1UNL     C9    9  -0.027   0.012  -0.144
    1UNL     O1   10   0.105  -0.022  -0.117
    1UNL    C10   11   0.131  -0.106  -0.013
    1UNL     O2   12   0.133  -0.045   0.118
    1UNL    C11   13   0.240   0.048   0.130
    1UNL    C12   14   0.227   0.118   0.267
    1UNL     O3   15   0.318   0.223   0.263
    1UNL    C13   16   0.375  -0.026   0.111
    1UNL     O4   17   0.402  -0.104   0.228
    1UNL    C14   18   0.382  -0.117  -0.008
    1UNL     O5   19   0.419  -0.054  -0.127
    1UNL    C15   20   0.253  -0.199  -0.028
    1UNL     O6   21   0.255  -0.257  -0.165
    1UNL    C16   22  -0.107   0.040  -0.014
    1UNL     H1   23  -0.323   0.314   0.214
    1UNL     H2   24  -0.165   0.221   0.225
    1UNL     H3   25  -0.208   0.339   0.090
    1UNL     H4   26  -0.419   0.176   0.043
    1UNL     H5   27  -0.409  -0.047   0.141
    1UNL     H6   28  -0.240  -0.015   0.210
    1UNL     H7   29  -0.380   0.061   0.275
    1UNL     H8   30  -0.217   0.187  -0.112
    1UNL     H9   31  -0.352  -0.088  -0.092
    1UNL    H10   32  -0.423   0.047  -0.156
    1UNL    H11   33  -0.239   0.070  -0.314
    1UNL    H12   34  -0.292  -0.086  -0.334
    1UNL    H13   35  -0.056  -0.071  -0.338
    1UNL    H14   36  -0.145  -0.278  -0.294
    1UNL    H15   37  -0.011  -0.274  -0.186
    1UNL    H16   38  -0.182  -0.252  -0.125
    1UNL    H17   39  -0.007   0.108  -0.190
    1UNL    H18   40   0.038  -0.160  -0.016
    1UNL    H19   41   0.230   0.102   0.042
    1UNL    H20   42   0.120   0.155   0.267
    1UNL    H21   43   0.237   0.057   0.349
    1UNL    H22   44   0.361   0.221   0.357
    1UNL    H23   45   0.454   0.046   0.091
    1UNL    H24   46   0.314  -0.139   0.265
    1UNL    H25   47   0.464  -0.190   0.010
    1UNL    H26   48   0.488   0.013  -0.114
    1UNL    H27   49   0.245  -0.284   0.040
    1UNL    H28   50   0.289  -0.191  -0.222
    1UNL    H29   51  -0.049   0.106   0.058
    1UNL    H30   52  -0.112  -0.048   0.039
   0.00000   0.00000   0.00000   0.00000   0.00000   0.00000   0.00000   0.00000   0.00000
Generated with MDTraj, t= 10.0
 52
    1UNL     C1    1  -0.248   0.276   0.136
    1UNL     C2    2  -0.319   0.156   0.078
    1UNL     C3    3  -0.334   0.051   0.185
    1UNL     C4    4  -0.240   0.096  -0.045
    1UNL     C5    5  -0.328   0.002  -0.128
    1UNL     C6    6  -0.254  -0.022  -0.267
    1UNL     C7    7  -0.121  -0.086  -0.244
    1UNL     C8    8  -0.122  -0.239  -0.215
    1UNL     C9    9  -0.032  -0.001  -0.148
    1UNL     O1   10   0.103  -0.036  -0.123
    1UNL    C10   11   0.135  -0.116  -0.012
    1UNL     O2   12   0.140  -0.046   0.118
    1UNL    C11   13   0.254   0.043   0.127
    1UNL    C12   14   0.222   0.137   0.242
    1UNL     O3   15   0.332   0.214   0.278
    1UNL    C13   16   0.383  -0.040   0.126
    1UNL     O4   17   0.384  -0.137   0.231
    1UNL    C14   18   0.391  -0.110  -0.008
    1UNL     O5   19   0.406  -0.012  -0.107
    1UNL    C15   20   0.266  -0.197  -0.032
    1UNL     O6   21   0.263  -0.237  -0.167
    1UNL    C16   22  -0.108   0.028  -0.015
    1UNL     H1   23  -0.297   0.307   0.230
    1UNL     H2   24  -0.136   0.260   0.153
    1UNL     H3   25  -0.268   0.364   0.072
    1UNL     H4   26  -0.422   0.184   0.053
    1UNL     H5   27  -0.381  -0.045   0.158
    1UNL     H6   28  -0.232   0.032   0.228
    1UNL     H7   29  -0.394   0.092   0.278
    1UNL     H8   30  -0.212   0.180  -0.103
    1UNL     H9   31  -0.332  -0.094  -0.069
    1UNL    H10   32  -0.435   0.018  -0.128
    1UNL    H11   33  -0.232   0.063  -0.324
    1UNL    H12   34  -0.306  -0.087  -0.328
    1UNL    H13   35  -0.077  -0.077  -0.344
    1UNL    H14   36  -0.177  -0.296  -0.288
    1UNL    H15   37  -0.014  -0.264  -0.234
    1UNL    H16   38  -0.149  -0.270  -0.116
    1UNL    H17   39  -0.031   0.096  -0.191
    1UNL    H18   40   0.045  -0.176  -0.012
    1UNL    H19   41   0.262   0.109   0.046
    1UNL    H20   42   0.139   0.213   0.228
    1UNL    H21   43   0.198   0.084   0.325
    1UNL    H22   44   0.421   0.168   0.274
    1UNL    H23   45   0.467   0.029   0.143
    1UNL    H24   46   0.297  -0.154   0.280
    1UNL    H25   47   0.484  -0.171  -0.002
    1UNL    H26   48   0.470   0.056  -0.068
    1UNL    H27   49   0.266  -0.287   0.031
    1UNL    H28   50   0.289  -0.152  -0.218
    1UNL    H29   51  -0.047   0.089   0.058
    1UNL    H30   52  -0.135  -0.057   0.047
   0.00000   0.00000   0.00000   0.00000   0.00000   0.00000   0.00000   0.00000   0.00000
Generated with MDTraj, t= 11.0
 52
    1UNL     C1    1  -0.253   0.290   0.142
    1UNL     C2    2  -0.311   0.157   0.088
    1UNL     C3    3  -0.324   0.043   0.193
    1UNL     C4    4  -0.237   0.103  -0.039
    1UNL     C5    5  -0.317   0.003  -0.123
    1UNL     C6    6  -0.241  -0.032  -0.265
    1UNL     C7    7  -0.096  -0.086  -0.237
    1UNL     C8    8  -0.096  -0.232  -0.175
    1UNL     C9    9  -0.023   0.008  -0.146
    1UNL     O1   10   0.112  -0.040  -0.126
    1UNL    C10   11   0.127  -0.126  -0.016
    1UNL     O2   12   0.115  -0.055   0.106
    1UNL    C11   13   0.228   0.043   0.112
    1UNL    C12   14   0.219   0.113   0.243
    1UNL     O3   15   0.338   0.200   0.263
    1UNL    C13   16   0.364  -0.031   0.122
    1UNL     O4   17   0.346  -0.132   0.229
    1UNL    C14   18   0.387  -0.102  -0.012
    1UNL     O5   19   0.407  -0.006  -0.118
    1UNL    C15   20   0.265  -0.199  -0.038
    1UNL     O6   21   0.276  -0.235  -0.169
    1UNL    C16   22  -0.099   0.041  -0.016
    1UNL     H1   23  -0.306   0.344   0.223
    1UNL     H2   24  -0.143   0.273   0.161
    1UNL     H3   25  -0.258   0.357   0.053
    1UNL     H4   26  -0.415   0.179   0.064
    1UNL     H5   27  -0.351  -0.058   0.154
    1UNL     H6   28  -0.225   0.031   0.240
    1UNL     H7   29  -0.401   0.067   0.281
    1UNL     H8   30  -0.206   0.188  -0.093
    1UNL     H9   31  -0.339  -0.093  -0.064
    1UNL    H10   32  -0.416   0.037  -0.135
    1UNL    H11   33  -0.240   0.061  -0.318
    1UNL    H12   34  -0.288  -0.103  -0.322
    1UNL    H13   35  -0.041  -0.088  -0.331
    1UNL    H14   36  -0.177  -0.291  -0.218
    1UNL    H15   37  -0.000  -0.287  -0.203
    1UNL    H16   38  -0.111  -0.240  -0.072
    1UNL    H17   39   0.002   0.105  -0.191
    1UNL    H18   40   0.052  -0.203  -0.019
    1UNL    H19   41   0.224   0.107   0.026
    1UNL    H20   42   0.121   0.165   0.251
    1UNL    H21   43   0.221   0.049   0.321
    1UNL    H22   44   0.325   0.277   0.315
    1UNL    H23   45   0.447   0.043   0.138
    1UNL    H24   46   0.256  -0.154   0.255
    1UNL    H25   47   0.485  -0.154  -0.014
    1UNL    H26   48   0.444   0.083  -0.087
    1UNL    H27   49   0.283  -0.291   0.022
    1UNL    H28   50   0.273  -0.154  -0.217
    1UNL    H29   51  -0.041   0.106   0.050
    1UNL    H30   52  -0.112  -0.054   0.049
   0.00000   0.00000   0.00000   0.00000   0.00000   0.00000   0.00000   0.00000   0.00000
Generated with MDTraj, t= 12.0
 52
    1UNL     C1    1  -0.238   0.280   0.148
    1UNL     C2    2  -0.300   0.154   0.087
    1UNL     C3    3  -0.298   0.035   0.195
    1UNL     C4    4  -0.242   0.112  -0.042
    1UNL     C5    5  -0.326   0.014  -0.134
    1UNL     C6    6  -0.255  -0.027  -0.260
    1UNL     C7    7  -0.109  -0.085  -0.248
    1UNL     C8    8  -0.116  -0.229  -0.189
    1UNL     C9    9  -0.029   0.013  -0.155
    1UNL     O1   10   0.106  -0.044  -0.138
    1UNL    C10   11   0.128  -0.120  -0.015
    1UNL     O2   12   0.128  -0.055   0.107
    1UNL    C11   13   0.245   0.036   0.126
    1UNL    C12   14   0.211   0.114   0.254
    1UNL     O3   15   0.278   0.244   0.264
    1UNL    C13   16   0.377  -0.043   0.127
    1UNL     O4   17   0.387  -0.130   0.240
    1UNL    C14   18   0.394  -0.118  -0.006
    1UNL     O5   19   0.413  -0.025  -0.115
    1UNL    C15   20   0.262  -0.201  -0.041
    1UNL     O6   21   0.269  -0.240  -0.171
    1UNL    C16   22  -0.101   0.050  -0.021
    1UNL     H1   23  -0.308   0.330   0.219
    1UNL     H2   24  -0.142   0.250   0.198
    1UNL     H3   25  -0.207   0.352   0.072
    1UNL     H4   26  -0.407   0.167   0.067
    1UNL     H5   27  -0.351  -0.061   0.155
    1UNL     H6   28  -0.194  -0.003   0.220
    1UNL     H7   29  -0.348   0.060   0.286
    1UNL     H8   30  -0.224   0.197  -0.099
    1UNL     H9   31  -0.338  -0.090  -0.083
    1UNL    H10   32  -0.426   0.034  -0.158
    1UNL    H11   33  -0.251   0.065  -0.316
    1UNL    H12   34  -0.322  -0.090  -0.311
    1UNL    H13   35  -0.071  -0.084  -0.352
    1UNL    H14   36  -0.202  -0.287  -0.227
    1UNL    H15   37  -0.024  -0.291  -0.202
    1UNL    H16   38  -0.137  -0.225  -0.085
    1UNL    H17   39   0.003   0.111  -0.201
    1UNL    H18   40   0.051  -0.195  -0.006
    1UNL    H19   41   0.240   0.093   0.033
    1UNL    H20   42   0.101   0.128   0.263
    1UNL    H21   43   0.230   0.053   0.332
    1UNL    H22   44   0.332   0.234   0.345
    1UNL    H23   45   0.455   0.040   0.134
    1UNL    H24   46   0.296  -0.161   0.265
    1UNL    H25   47   0.486  -0.179   0.012
    1UNL    H26   48   0.486   0.037  -0.092
    1UNL    H27   49   0.263  -0.297   0.016
    1UNL    H28   50   0.284  -0.151  -0.223
    1UNL    H29   51  -0.037   0.110   0.043
    1UNL    H30   52  -0.116  -0.051   0.039
   0.00000   0.00000   0.00000   0.00000   0.00000   0.00000   0.00000   0.00000   0.00000
Generated with MDTraj, t= 13.0
 52
    1UNL     C1    1  -0.226   0.269   0.166
    1UNL     C2    2  -0.297   0.158   0.092
    1UNL     C3    3  -0.311   0.049   0.198
    1UNL     C4    4  -0.224   0.107  -0.031
    1UNL     C5    5  -0.313   0.017  -0.125
    1UNL     C6    6  -0.247  -0.003  -0.265
    1UNL     C7    7  -0.104  -0.080  -0.243
    1UNL     C8    8  -0.125  -0.230  -0.222
    1UNL     C9    9  -0.023   0.002  -0.132
    1UNL     O1   10   0.117  -0.035  -0.126
    1UNL    C10   11   0.139  -0.129  -0.021
    1UNL     O2   12   0.125  -0.073   0.106
    1UNL    C11   13   0.222   0.038   0.121
    1UNL    C12   14   0.188   0.122   0.247
    1UNL     O3   15   0.268   0.233   0.242
    1UNL    C13   16   0.365  -0.026   0.122
    1UNL     O4   17   0.382  -0.109   0.235
    1UNL    C14   18   0.386  -0.109  -0.006
    1UNL     O5   19   0.413  -0.035  -0.123
    1UNL    C15   20   0.272  -0.207  -0.039
    1UNL     O6   21   0.289  -0.266  -0.163
    1UNL    C16   22  -0.096   0.035  -0.003
    1UNL     H1   23  -0.251   0.272   0.275
    1UNL     H2   24  -0.118   0.254   0.155
    1UNL     H3   25  -0.241   0.372   0.127
    1UNL     H4   26  -0.399   0.185   0.061
    1UNL     H5   27  -0.370  -0.045   0.163
    1UNL     H6   28  -0.207   0.009   0.230
    1UNL     H7   29  -0.358   0.083   0.283
    1UNL     H8   30  -0.208   0.193  -0.087
    1UNL     H9   31  -0.337  -0.087  -0.085
    1UNL    H10   32  -0.409   0.057  -0.141
    1UNL    H11   33  -0.232   0.098  -0.297
    1UNL    H12   34  -0.320  -0.042  -0.336
    1UNL    H13   35  -0.058  -0.071  -0.343
    1UNL    H14   36  -0.204  -0.269  -0.291
    1UNL    H15   37  -0.041  -0.294  -0.234
    1UNL    H16   38  -0.171  -0.242  -0.123
    1UNL    H17   39  -0.028   0.108  -0.177
    1UNL    H18   40   0.058  -0.200  -0.032
    1UNL    H19   41   0.213   0.105   0.031
    1UNL    H20   42   0.081   0.153   0.254
    1UNL    H21   43   0.208   0.077   0.335
    1UNL    H22   44   0.214   0.318   0.217
    1UNL    H23   45   0.435   0.062   0.126
    1UNL    H24   46   0.294  -0.154   0.252
    1UNL    H25   47   0.471  -0.179   0.012
    1UNL    H26   48   0.489   0.021  -0.111
    1UNL    H27   49   0.264  -0.299   0.023
    1UNL    H28   50   0.291  -0.193  -0.223
    1UNL    H29   51  -0.036   0.092   0.069
    1UNL    H30   52  -0.129  -0.065   0.041
   0.00000   0.00000   0.00000   0.00000   0.00000   0.00000   0.00000   0.00000   0.00000
Generated with MDTraj, t= 14.0
 52
    1UNL     C1    1  -0.218   0.261   0.186
    1UNL     C2    2  -0.291   0.155   0.105
    1UNL     C3    3  -0.322   0.034   0.187
    1UNL     C4    4  -0.213   0.108  -0.031
    1UNL     C5    5  -0.307   0.029  -0.128
    1UNL     C6    6  -0.230   0.012  -0.265
    1UNL     C7    7  -0.102  -0.065  -0.242
    1UNL     C8    8  -0.127  -0.216  -0.238
    1UNL     C9    9  -0.015   0.004  -0.127
    1UNL     O1   10   0.115  -0.071  -0.122
    1UNL    C10   11   0.139  -0.151  -0.006
    1UNL     O2   12   0.123  -0.077   0.114
    1UNL    C11   13   0.212   0.033   0.118
    1UNL    C12   14   0.187   0.135   0.232
    1UNL     O3   15   0.261   0.247   0.214
    1UNL    C13   16   0.355  -0.021   0.123
    1UNL     O4   17   0.371  -0.099   0.240
    1UNL    C14   18   0.386  -0.102  -0.012
    1UNL     O5   19   0.382  -0.021  -0.127
    1UNL    C15   20   0.279  -0.214  -0.030
    1UNL     O6   21   0.287  -0.269  -0.157
    1UNL    C16   22  -0.086   0.024   0.001
    1UNL     H1   23  -0.287   0.316   0.255
    1UNL     H2   24  -0.139   0.219   0.248
    1UNL     H3   25  -0.160   0.330   0.121
    1UNL     H4   26  -0.388   0.206   0.084
    1UNL     H5   27  -0.374  -0.047   0.136
    1UNL     H6   28  -0.222  -0.008   0.221
    1UNL     H7   29  -0.375   0.059   0.279
    1UNL     H8   30  -0.187   0.194  -0.083
    1UNL     H9   31  -0.328  -0.070  -0.085
    1UNL    H10   32  -0.406   0.071  -0.134
    1UNL    H11   33  -0.207   0.108  -0.308
    1UNL    H12   34  -0.299  -0.040  -0.335
    1UNL    H13   35  -0.034  -0.057  -0.331
    1UNL    H14   36  -0.168  -0.275  -0.323
    1UNL    H15   37  -0.031  -0.254  -0.221
    1UNL    H16   38  -0.186  -0.239  -0.144
    1UNL    H17   39   0.015   0.111  -0.157
    1UNL    H18   40   0.062  -0.228   0.000
    1UNL    H19   41   0.208   0.087   0.018
    1UNL    H20   42   0.083   0.174   0.231
    1UNL    H21   43   0.205   0.097   0.325
    1UNL    H22   44   0.351   0.228   0.180
    1UNL    H23   45   0.443   0.049   0.128
    1UNL    H24   46   0.297  -0.163   0.246
    1UNL    H25   47   0.482  -0.154   0.003
    1UNL    H26   48   0.458   0.042  -0.131
    1UNL    H27   49   0.287  -0.298   0.040
    1UNL    H28   50   0.309  -0.194  -0.224
    1UNL    H29   51  -0.023   0.081   0.075
    1UNL    H30   52  -0.110  -0.071   0.042
   0.00000   0.00000   0.00000   0.00000   0.00000   0.00000   0.00000   0.00000   0.00000
Generated with MDTraj, t= 15.0
 52
    1UNL     C1    1  -0.204   0.233   0.190
    1UNL     C2    2  -0.299   0.137   0.105
    1UNL     C3    3  -0.339   0.005   0.177
    1UNL     C4    4  -0.227   0.106  -0.033
    1UNL     C5    5  -0.315   0.049  -0.143
    1UNL     C6    6  -0.234   0.025  -0.276
    1UNL     C7    7  -0.105  -0.056  -0.246
    1UNL     C8    8  -0.131  -0.200  -0.218
    1UNL     C9    9  -0.025   0.006  -0.139
    1UNL     O1   10   0.102  -0.074  -0.129
    1UNL    C10   11   0.129  -0.139  -0.003
    1UNL     O2   12   0.131  -0.053   0.108
    1UNL    C11   13   0.235   0.037   0.117
    1UNL    C12   14   0.219   0.138   0.234
    1UNL     O3   15   0.266   0.276   0.213
    1UNL    C13   16   0.375  -0.031   0.127
    1UNL     O4   17   0.387  -0.103   0.249
    1UNL    C14   18   0.393  -0.112  -0.010
    1UNL     O5   19   0.401  -0.033  -0.126
    1UNL    C15   20   0.267  -0.211  -0.016
    1UNL     O6   21   0.277  -0.280  -0.140
    1UNL    C16   22  -0.108   0.008  -0.013
    1UNL     H1   23  -0.252   0.262   0.285
    1UNL     H2   24  -0.111   0.185   0.219
    1UNL     H3   25  -0.168   0.326   0.136
    1UNL     H4   26  -0.388   0.204   0.098
    1UNL     H5   27  -0.389  -0.065   0.117
    1UNL     H6   28  -0.247  -0.039   0.206
    1UNL     H7   29  -0.397   0.024   0.276
    1UNL     H8   30  -0.194   0.198  -0.069
    1UNL     H9   31  -0.363  -0.034  -0.102
    1UNL    H10   32  -0.401   0.119  -0.150
    1UNL    H11   33  -0.225   0.117  -0.335
    1UNL    H12   34  -0.295  -0.043  -0.343
    1UNL    H13   35  -0.028  -0.065  -0.329
    1UNL    H14   36  -0.167  -0.267  -0.299
    1UNL    H15   37  -0.040  -0.248  -0.192
    1UNL    H16   38  -0.197  -0.206  -0.127
    1UNL    H17   39   0.003   0.107  -0.171
    1UNL    H18   40   0.055  -0.217   0.017
    1UNL    H19   41   0.229   0.103   0.022
    1UNL    H20   42   0.112   0.140   0.264
    1UNL    H21   43   0.272   0.102   0.315
    1UNL    H22   44   0.198   0.341   0.218
    1UNL    H23   45   0.458   0.043   0.137
    1UNL    H24   46   0.318  -0.169   0.245
    1UNL    H25   47   0.489  -0.164  -0.003
    1UNL    H26   48   0.460   0.049  -0.117
    1UNL    H27   49   0.282  -0.293   0.055
    1UNL    H28   50   0.257  -0.218  -0.212
    1UNL    H29   51  -0.045   0.040   0.072
    1UNL    H30   52  -0.142  -0.087   0.003
   0.00000   0.00000   0.00000   0.00000   0.00000   0.00000   0.00000   0.00000   0.00000
Generated with MDTraj, t= 16.0
 52
    1UNL     C1    1  -0.242   0.209   0.211
    1UNL     C2    2  -0.311   0.123   0.102
    1UNL     C3    3  -0.367  -0.000   0.167
    1UNL     C4    4  -0.227   0.106  -0.025
    1UNL     C5    5  -0.304   0.038  -0.143
    1UNL     C6    6  -0.228   0.032  -0.269
    1UNL     C7    7  -0.099  -0.055  -0.244
    1UNL     C8    8  -0.126  -0.201  -0.225
    1UNL     C9    9  -0.017   0.009  -0.136
    1UNL     O1   10   0.116  -0.050  -0.124
    1UNL    C10   11   0.132  -0.128  -0.002
    1UNL     O2   12   0.133  -0.052   0.117
    1UNL    C11   13   0.234   0.050   0.112
    1UNL    C12   14   0.221   0.152   0.224
    1UNL     O3   15   0.285   0.281   0.194
    1UNL    C13   16   0.376  -0.026   0.118
    1UNL     O4   17   0.394  -0.091   0.243
    1UNL    C14   18   0.389  -0.126  -0.004
    1UNL     O5   19   0.419  -0.070  -0.125
    1UNL    C15   20   0.260  -0.212  -0.014
    1UNL     O6   21   0.251  -0.276  -0.141
    1UNL    C16   22  -0.098   0.019  -0.005
    1UNL     H1   23  -0.298   0.207   0.304
    1UNL     H2   24  -0.141   0.171   0.236
    1UNL     H3   25  -0.221   0.314   0.175
    1UNL     H4   26  -0.398   0.186   0.071
    1UNL     H5   27  -0.417  -0.049   0.088
    1UNL     H6   28  -0.292  -0.063   0.199
    1UNL     H7   29  -0.441   0.020   0.256
    1UNL     H8   30  -0.210   0.201  -0.066
    1UNL     H9   31  -0.336  -0.054  -0.115
    1UNL    H10   32  -0.403   0.087  -0.160
    1UNL    H11   33  -0.205   0.136  -0.306
    1UNL    H12   34  -0.298  -0.010  -0.348
    1UNL    H13   35  -0.037  -0.052  -0.338
    1UNL    H14   36  -0.208  -0.239  -0.287
    1UNL    H15   37  -0.048  -0.275  -0.245
    1UNL    H16   38  -0.154  -0.213  -0.118
    1UNL    H17   39  -0.007   0.108  -0.179
    1UNL    H18   40   0.047  -0.198   0.012
    1UNL    H19   41   0.204   0.102   0.010
    1UNL    H20   42   0.115   0.175   0.251
    1UNL    H21   43   0.259   0.103   0.308
    1UNL    H22   44   0.353   0.294   0.265
    1UNL    H23   45   0.455   0.049   0.114
    1UNL    H24   46   0.333  -0.169   0.247
    1UNL    H25   47   0.476  -0.190   0.016
    1UNL    H26   48   0.481   0.009  -0.122
    1UNL    H27   49   0.262  -0.288   0.066
    1UNL    H28   50   0.261  -0.204  -0.211
    1UNL    H29   51  -0.027   0.068   0.058
    1UNL    H30   52  -0.120  -0.076   0.036
   0.00000   0.00000   0.00000   0.00000   0.00000   0.00000   0.00000   0.00000   0.00000
Generated with MDTraj, t= 17.0
 52
    1UNL     C1    1  -0.266   0.198   0.218
    1UNL     C2    2  -0.332   0.116   0.098
    1UNL     C3    3  -0.376  -0.013   0.158
    1UNL     C4    4  -0.237   0.105  -0.022
    1UNL     C5    5  -0.315   0.032  -0.142
    1UNL     C6    6  -0.228   0.031  -0.265
    1UNL     C7    7  -0.094  -0.041  -0.251
    1UNL     C8    8  -0.102  -0.193  -0.251
    1UNL     C9    9  -0.012   0.023  -0.124
    1UNL     O1   10   0.117  -0.045  -0.105
    1UNL    C10   11   0.129  -0.125   0.012
    1UNL     O2   12   0.142  -0.051   0.131
    1UNL    C11   13   0.234   0.052   0.109
    1UNL    C12   14   0.226   0.173   0.202
    1UNL     O3   15   0.344   0.246   0.185
    1UNL    C13   16   0.373  -0.024   0.113
    1UNL     O4   17   0.387  -0.081   0.234
    1UNL    C14   18   0.386  -0.128  -0.000
    1UNL     O5   19   0.407  -0.068  -0.128
    1UNL    C15   20   0.257  -0.212  -0.004
    1UNL     O6   21   0.251  -0.286  -0.130
    1UNL    C16   22  -0.102   0.029   0.000
    1UNL     H1   23  -0.341   0.224   0.292
    1UNL     H2   24  -0.201   0.130   0.279
    1UNL     H3   25  -0.198   0.283   0.195
    1UNL     H4   26  -0.420   0.172   0.062
    1UNL     H5   27  -0.439  -0.064   0.085
    1UNL     H6   28  -0.299  -0.082   0.183
    1UNL     H7   29  -0.438   0.003   0.243
    1UNL     H8   30  -0.224   0.203  -0.057
    1UNL     H9   31  -0.353  -0.064  -0.121
    1UNL    H10   32  -0.409   0.086  -0.166
    1UNL    H11   33  -0.220   0.142  -0.300
    1UNL    H12   34  -0.294  -0.015  -0.346
    1UNL    H13   35  -0.042  -0.025  -0.349
    1UNL    H14   36  -0.143  -0.231  -0.345
    1UNL    H15   37  -0.010  -0.255  -0.230
    1UNL    H16   38  -0.171  -0.215  -0.169
    1UNL    H17   39   0.015   0.122  -0.152
    1UNL    H18   40   0.036  -0.182   0.035
    1UNL    H19   41   0.202   0.084   0.002
    1UNL    H20   42   0.138   0.239   0.191
    1UNL    H21   43   0.232   0.142   0.304
    1UNL    H22   44   0.335   0.320   0.114
    1UNL    H23   45   0.451   0.050   0.108
    1UNL    H24   46   0.310  -0.144   0.255
    1UNL    H25   47   0.472  -0.194   0.023
    1UNL    H26   48   0.475   0.000  -0.125
    1UNL    H27   49   0.245  -0.281   0.080
    1UNL    H28   50   0.257  -0.223  -0.205
    1UNL    H29   51  -0.051   0.077   0.075
    1UNL    H30   52  -0.111  -0.077   0.035
   0.00000   0.00000   0.00000   0.00000   0.00000   0.00000   0.00000   0.00000   0.00000
Generated with MDTraj, t= 18.0
 52
    1UNL     C1    1  -0.262   0.191   0.199
    1UNL     C2    2  -0.338   0.095   0.100
    1UNL     C3    3  -0.376  -0.039   0.164
    1UNL     C4    4  -0.248   0.089  -0.029
    1UNL     C5    5  -0.332   0.038  -0.150
    1UNL     C6    6  -0.232   0.054  -0.284
    1UNL     C7    7  -0.098  -0.024  -0.266
    1UNL     C8    8  -0.116  -0.178  -0.272
    1UNL     C9    9  -0.022   0.010  -0.124
    1UNL     O1   10   0.100  -0.071  -0.106
    1UNL    C10   11   0.132  -0.118   0.025
    1UNL     O2   12   0.157  -0.010   0.120
    1UNL    C11   13   0.276   0.075   0.107
    1UNL    C12   14   0.279   0.178   0.218
    1UNL     O3   15   0.363   0.283   0.195
    1UNL    C13   16   0.396  -0.032   0.120
    1UNL     O4   17   0.379  -0.101   0.239
    1UNL    C14   18   0.386  -0.134   0.000
    1UNL     O5   19   0.381  -0.063  -0.120
    1UNL    C15   20   0.255  -0.212   0.014
    1UNL     O6   21   0.237  -0.292  -0.106
    1UNL    C16   22  -0.124  -0.008  -0.009
    1UNL     H1   23  -0.328   0.208   0.287
    1UNL     H2   24  -0.175   0.140   0.249
    1UNL     H3   25  -0.224   0.286   0.162
    1UNL     H4   26  -0.433   0.147   0.078
    1UNL     H5   27  -0.426  -0.099   0.086
    1UNL     H6   28  -0.290  -0.093   0.200
    1UNL     H7   29  -0.442  -0.026   0.236
    1UNL     H8   30  -0.214   0.187  -0.048
    1UNL     H9   31  -0.372  -0.061  -0.127
    1UNL    H10   32  -0.425   0.097  -0.153
    1UNL    H11   33  -0.210   0.169  -0.297
    1UNL    H12   34  -0.295   0.027  -0.376
    1UNL    H13   35  -0.029  -0.005  -0.349
    1UNL    H14   36  -0.145  -0.208  -0.372
    1UNL    H15   37  -0.027  -0.244  -0.243
    1UNL    H16   38  -0.198  -0.199  -0.205
    1UNL    H17   39   0.026   0.109  -0.116
    1UNL    H18   40   0.042  -0.174   0.061
    1UNL    H19   41   0.266   0.122   0.002
    1UNL    H20   42   0.184   0.234   0.216
    1UNL    H21   43   0.302   0.132   0.314
    1UNL    H22   44   0.361   0.327   0.107
    1UNL    H23   45   0.492   0.017   0.115
    1UNL    H24   46   0.284  -0.122   0.253
    1UNL    H25   47   0.474  -0.201  -0.004
    1UNL    H26   48   0.462  -0.012  -0.132
    1UNL    H27   49   0.263  -0.286   0.095
    1UNL    H28   50   0.237  -0.234  -0.186
    1UNL    H29   51  -0.083   0.002   0.085
    1UNL    H30   52  -0.169  -0.112  -0.007
   0.00000   0.00000   0.00000   0.00000   0.00000   0.00000   0.00000   0.00000   0.00000
Generated with MDTraj, t= 19.0
 52
    1UNL     C1    1  -0.289   0.171   0.217
    1UNL     C2    2  -0.344   0.083   0.104
    1UNL     C3    3  -0.387  -0.053   0.149
    1UNL     C4    4  -0.246   0.085  -0.023
    1UNL     C5    5  -0.321   0.055  -0.151
    1UNL     C6    6  -0.216   0.070  -0.272
    1UNL     C7    7  -0.088  -0.011  -0.260
    1UNL     C8    8  -0.114  -0.162  -0.276
    1UNL     C9    9  -0.015   0.011  -0.121
    1UNL     O1   10   0.098  -0.068  -0.106
    1UNL    C10   11   0.124  -0.116   0.021
    1UNL     O2   12   0.134  -0.017   0.119
    1UNL    C11   13   0.250   0.065   0.102
    1UNL    C12   14   0.274   0.179   0.196
    1UNL     O3   15   0.395   0.260   0.167
    1UNL    C13   16   0.383  -0.017   0.112
    1UNL     O4   17   0.399  -0.061   0.241
    1UNL    C14   18   0.380  -0.136   0.011
    1UNL     O5   19   0.400  -0.085  -0.117
    1UNL    C15   20   0.246  -0.207   0.020
    1UNL     O6   21   0.234  -0.289  -0.092
    1UNL    C16   22  -0.118  -0.015  -0.003
    1UNL     H1   23  -0.343   0.149   0.314
    1UNL     H2   24  -0.182   0.156   0.237
    1UNL     H3   25  -0.302   0.275   0.190
    1UNL     H4   26  -0.436   0.135   0.074
    1UNL     H5   27  -0.410  -0.106   0.062
    1UNL     H6   28  -0.302  -0.101   0.196
    1UNL     H7   29  -0.475  -0.055   0.214
    1UNL     H8   30  -0.206   0.183  -0.031
    1UNL     H9   31  -0.373  -0.045  -0.139
    1UNL    H10   32  -0.403   0.125  -0.159
    1UNL    H11   33  -0.193   0.185  -0.277
    1UNL    H12   34  -0.274   0.045  -0.373
    1UNL    H13   35  -0.032   0.022  -0.348
    1UNL    H14   36  -0.159  -0.195  -0.370
    1UNL    H15   37  -0.015  -0.219  -0.275
    1UNL    H16   38  -0.169  -0.203  -0.193
    1UNL    H17   39   0.025   0.115  -0.123
    1UNL    H18   40   0.035  -0.175   0.050
    1UNL    H19   41   0.233   0.099  -0.006
    1UNL    H20   42   0.184   0.235   0.215
    1UNL    H21   43   0.307   0.125   0.288
    1UNL    H22   44   0.420   0.241   0.078
    1UNL    H23   45   0.467   0.050   0.093
    1UNL    H24   46   0.323  -0.109   0.275
    1UNL    H25   47   0.462  -0.203   0.042
    1UNL    H26   48   0.493  -0.052  -0.132
    1UNL    H27   49   0.256  -0.270   0.111
    1UNL    H28   50   0.215  -0.232  -0.173
    1UNL    H29   51  -0.092  -0.007   0.104
    1UNL    H30   52  -0.159  -0.118  -0.010
   0.00000   0.00000   0.00000   0.00000   0.00000   0.00000   0.00000   0.00000   0.00000
Generated with MDTraj, t= 20.0
 52
    1UNL     C1    1  -0.311   0.134   0.238
    1UNL     C2    2  -0.350   0.074   0.098
    1UNL     C3    3  -0.396  -0.071   0.117
    1UNL     C4    4  -0.247   0.097  -0.011
    1UNL     C5    5  -0.302   0.068  -0.143
    1UNL     C6    6  -0.207   0.096  -0.262
    1UNL     C7    7  -0.078   0.012  -0.240
    1UNL     C8    8  -0.100  -0.137  -0.266
    1UNL     C9    9  -0.007   0.022  -0.109
    1UNL     O1   10   0.097  -0.078  -0.098
    1UNL    C10   11   0.124  -0.126   0.036
    1UNL     O2   12   0.150  -0.017   0.128
    1UNL    C11   13   0.255   0.060   0.076
    1UNL    C12   14   0.247   0.199   0.146
    1UNL     O3   15   0.362   0.286   0.154
    1UNL    C13   16   0.389  -0.024   0.097
    1UNL     O4   17   0.395  -0.067   0.232
    1UNL    C14   18   0.385  -0.150   0.005
    1UNL     O5   19   0.413  -0.123  -0.126
    1UNL    C15   20   0.250  -0.219   0.030
    1UNL     O6   21   0.228  -0.308  -0.072
    1UNL    C16   22  -0.112   0.016   0.013
    1UNL     H1   23  -0.399   0.154   0.302
    1UNL     H2   24  -0.250   0.065   0.296
    1UNL     H3   25  -0.248   0.226   0.225
    1UNL     H4   26  -0.435   0.130   0.057
    1UNL     H5   27  -0.437  -0.115   0.035
    1UNL     H6   28  -0.311  -0.126   0.143
    1UNL     H7   29  -0.472  -0.087   0.203
    1UNL     H8   30  -0.212   0.199  -0.020
    1UNL     H9   31  -0.336  -0.041  -0.152
    1UNL    H10   32  -0.393   0.124  -0.152
    1UNL    H11   33  -0.183   0.211  -0.261
    1UNL    H12   34  -0.268   0.073  -0.363
    1UNL    H13   35  -0.012   0.052  -0.317
    1UNL    H14   36  -0.106  -0.149  -0.377
    1UNL    H15   37  -0.016  -0.204  -0.237
    1UNL    H16   38  -0.192  -0.177  -0.220
    1UNL    H17   39   0.054   0.118  -0.106
    1UNL    H18   40   0.035  -0.179   0.071
    1UNL    H19   41   0.252   0.079  -0.033
    1UNL    H20   42   0.171   0.248   0.085
    1UNL    H21   43   0.211   0.181   0.252
    1UNL    H22   44   0.369   0.341   0.072
    1UNL    H23   45   0.468   0.047   0.066
    1UNL    H24   46   0.306  -0.100   0.264
    1UNL    H25   47   0.459  -0.222   0.042
    1UNL    H26   48   0.509  -0.097  -0.145
    1UNL    H27   49   0.264  -0.281   0.121
    1UNL    H28   50   0.230  -0.254  -0.154
    1UNL    H29   51  -0.064   0.057   0.112
    1UNL    H30   52  -0.135  -0.086   0.043
   0.00000   0.00000   0.00000   0.00000   0.00000   0.00000   0.00000   0.00000   0.00000
Generated with MDTraj, t= 21.0
 52
    1UNL     C1    1  -0.286   0.097   0.240
    1UNL     C2    2  -0.342   0.064   0.106
    1UNL     C3    3  -0.412  -0.072   0.102
    1UNL     C4    4  -0.234   0.083  -0.004
    1UNL     C5    5  -0.287   0.108  -0.146
    1UNL     C6    6  -0.178   0.128  -0.246
    1UNL     C7    7  -0.070   0.016  -0.245
    1UNL     C8    8  -0.120  -0.115  -0.309
    1UNL     C9    9  -0.020  -0.003  -0.105
    1UNL     O1   10   0.080  -0.103  -0.085
    1UNL    C10   11   0.131  -0.130   0.049
    1UNL     O2   12   0.143  -0.010   0.129
    1UNL    C11   13   0.259   0.070   0.089
    1UNL    C12   14   0.277   0.208   0.157
    1UNL     O3   15   0.360   0.285   0.077
    1UNL    C13   16   0.385  -0.014   0.111
    1UNL     O4   17   0.400  -0.052   0.249
    1UNL    C14   18   0.378  -0.139   0.021
    1UNL     O5   19   0.373  -0.100  -0.119
    1UNL    C15   20   0.252  -0.225   0.051
    1UNL     O6   21   0.236  -0.319  -0.054
    1UNL    C16   22  -0.131  -0.034  -0.015
    1UNL     H1   23  -0.354   0.066   0.320
    1UNL     H2   24  -0.197   0.038   0.260
    1UNL     H3   25  -0.252   0.205   0.249
    1UNL     H4   26  -0.419   0.136   0.079
    1UNL     H5   27  -0.458  -0.089   0.007
    1UNL     H6   28  -0.347  -0.149   0.125
    1UNL     H7   29  -0.496  -0.078   0.178
    1UNL     H8   30  -0.169   0.166   0.023
    1UNL     H9   31  -0.349   0.015  -0.179
    1UNL    H10   32  -0.357   0.187  -0.156
    1UNL    H11   33  -0.135   0.237  -0.232
    1UNL    H12   34  -0.227   0.117  -0.354
    1UNL    H13   35   0.014   0.056  -0.302
    1UNL    H14   36  -0.175  -0.076  -0.400
    1UNL    H15   37  -0.040  -0.178  -0.344
    1UNL    H16   38  -0.195  -0.168  -0.243
    1UNL    H17   39   0.022   0.093  -0.057
    1UNL    H18   40   0.051  -0.177   0.106
    1UNL    H19   41   0.257   0.081  -0.019
    1UNL    H20   42   0.183   0.259   0.172
    1UNL    H21   43   0.337   0.191   0.254
    1UNL    H22   44   0.334   0.278  -0.023
    1UNL    H23   45   0.475   0.050   0.087
    1UNL    H24   46   0.323  -0.098   0.287
    1UNL    H25   47   0.464  -0.200   0.052
    1UNL    H26   48   0.456  -0.051  -0.134
    1UNL    H27   49   0.249  -0.285   0.144
    1UNL    H28   50   0.218  -0.264  -0.139
    1UNL    H29   51  -0.085  -0.065   0.091
    1UNL    H30   52  -0.182  -0.124  -0.046
   0.00000   0.00000   0.00000   0.00000   0.00000   0.00000   0.00000   0.00000   0.00000
Generated with MDTraj, t= 22.0
 52
    1UNL     C1    1  -0.298   0.062   0.253
    1UNL     C2    2  -0.352   0.067   0.110
    1UNL     C3    3  -0.454  -0.046   0.080
    1UNL     C4    4  -0.237   0.072   0.007
    1UNL     C5    5  -0.275   0.123  -0.134
    1UNL     C6    6  -0.154   0.143  -0.228
    1UNL     C7    7  -0.045   0.036  -0.224
    1UNL     C8    8  -0.092  -0.090  -0.298
    1UNL     C9    9  -0.013  -0.010  -0.080
    1UNL     O1   10   0.088  -0.117  -0.086
    1UNL    C10   11   0.133  -0.138   0.049
    1UNL     O2   12   0.147  -0.012   0.129
    1UNL    C11   13   0.257   0.074   0.071
    1UNL    C12   14   0.255   0.213   0.129
    1UNL     O3   15   0.342   0.290   0.054
    1UNL    C13   16   0.382  -0.008   0.094
    1UNL     O4   17   0.387  -0.029   0.236
    1UNL    C14   18   0.383  -0.141   0.014
    1UNL     O5   19   0.385  -0.118  -0.133
    1UNL    C15   20   0.257  -0.230   0.055
    1UNL     O6   21   0.247  -0.341  -0.032
    1UNL    C16   22  -0.145  -0.050  -0.006
    1UNL     H1   23  -0.381   0.056   0.322
    1UNL     H2   24  -0.243  -0.032   0.269
    1UNL     H3   25  -0.230   0.149   0.278
    1UNL     H4   26  -0.407   0.161   0.101
    1UNL     H5   27  -0.494  -0.043  -0.025
    1UNL     H6   28  -0.415  -0.143   0.107
    1UNL     H7   29  -0.537  -0.032   0.144
    1UNL     H8   30  -0.165   0.143   0.054
    1UNL     H9   31  -0.349   0.051  -0.186
    1UNL    H10   32  -0.342   0.204  -0.121
    1UNL    H11   33  -0.096   0.241  -0.199
    1UNL    H12   34  -0.193   0.152  -0.336
    1UNL    H13   35   0.048   0.080  -0.261
    1UNL    H14   36  -0.090  -0.078  -0.411
    1UNL    H15   37  -0.030  -0.172  -0.272
    1UNL    H16   38  -0.199  -0.117  -0.272
    1UNL    H17   39   0.015   0.072  -0.007
    1UNL    H18   40   0.053  -0.186   0.103
    1UNL    H19   41   0.245   0.068  -0.034
    1UNL    H20   42   0.152   0.248   0.122
    1UNL    H21   43   0.299   0.212   0.238
    1UNL    H22   44   0.358   0.255  -0.038
    1UNL    H23   45   0.467   0.059   0.061
    1UNL    H24   46   0.305  -0.068   0.266
    1UNL    H25   47   0.473  -0.199   0.042
    1UNL    H26   48   0.458  -0.063  -0.164
    1UNL    H27   49   0.267  -0.278   0.154
    1UNL    H28   50   0.252  -0.311  -0.121
    1UNL    H29   51  -0.120  -0.085   0.100
    1UNL    H30   52  -0.191  -0.140  -0.053
   0.00000   0.00000   0.00000   0.00000   0.00000   0.00000   0.00000   0.00000   0.00000
Generated with MDTraj, t= 23.0
 52
    1UNL     C1    1  -0.338   0.024   0.247
    1UNL     C2    2  -0.360   0.068   0.101
    1UNL     C3    3  -0.468  -0.029   0.041
    1UNL     C4    4  -0.234   0.083   0.015
    1UNL     C5    5  -0.271   0.119  -0.130
    1UNL     C6    6  -0.148   0.161  -0.214
    1UNL     C7    7  -0.045   0.039  -0.207
    1UNL     C8    8  -0.088  -0.067  -0.311
    1UNL     C9    9  -0.020  -0.018  -0.063
    1UNL     O1   10   0.063  -0.132  -0.061
    1UNL    C10   11   0.132  -0.146   0.065
    1UNL     O2   12   0.155  -0.021   0.136
    1UNL    C11   13   0.255   0.059   0.064
    1UNL    C12   14   0.238   0.206   0.098
    1UNL     O3   15   0.336   0.301   0.044
    1UNL    C13   16   0.397  -0.002   0.078
    1UNL     O4   17   0.445  -0.005   0.218
    1UNL    C14   18   0.390  -0.147   0.015
    1UNL     O5   19   0.398  -0.141  -0.127
    1UNL    C15   20   0.262  -0.233   0.057
    1UNL     O6   21   0.236  -0.339  -0.030
    1UNL    C16   22  -0.141  -0.035   0.030
    1UNL     H1   23  -0.419   0.052   0.315
    1UNL     H2   24  -0.324  -0.087   0.253
    1UNL     H3   25  -0.244   0.073   0.274
    1UNL     H4   26  -0.400   0.170   0.105
    1UNL     H5   27  -0.517   0.008  -0.053
    1UNL     H6   28  -0.423  -0.130   0.021
    1UNL     H7   29  -0.540  -0.049   0.108
    1UNL     H8   30  -0.167   0.163   0.055
    1UNL     H9   31  -0.334   0.035  -0.170
    1UNL    H10   32  -0.345   0.196  -0.127
    1UNL    H11   33  -0.100   0.255  -0.162
    1UNL    H12   34  -0.166   0.187  -0.320
    1UNL    H13   35   0.055   0.081  -0.233
    1UNL    H14   36  -0.101  -0.031  -0.417
    1UNL    H15   37  -0.012  -0.144  -0.313
    1UNL    H16   38  -0.184  -0.117  -0.285
    1UNL    H17   39   0.025   0.067  -0.006
    1UNL    H18   40   0.069  -0.207   0.131
    1UNL    H19   41   0.237   0.046  -0.038
    1UNL    H20   42   0.138   0.238   0.069
    1UNL    H21   43   0.246   0.210   0.217
    1UNL    H22   44   0.330   0.318  -0.048
    1UNL    H23   45   0.455   0.077   0.024
    1UNL    H24   46   0.368  -0.032   0.277
    1UNL    H25   47   0.488  -0.188   0.049
    1UNL    H26   48   0.464  -0.075  -0.161
    1UNL    H27   49   0.293  -0.278   0.152
    1UNL    H28   50   0.246  -0.310  -0.129
    1UNL    H29   51  -0.120  -0.075   0.129
    1UNL    H30   52  -0.204  -0.110  -0.030
   0.00000   0.00000   0.00000   0.00000   0.00000   0.00000   0.00000   0.00000   0.00000
Generated with MDTraj, t= 24.0
 52
    1UNL     C1    1  -0.372   0.008   0.234
    1UNL     C2    2  -0.390   0.053   0.092
    1UNL     C3    3  -0.480  -0.048   0.016
    1UNL     C4    4  -0.248   0.067   0.020
    1UNL     C5    5  -0.259   0.141  -0.118
    1UNL     C6    6  -0.132   0.161  -0.206
    1UNL     C7    7  -0.039   0.040  -0.202
    1UNL     C8    8  -0.099  -0.065  -0.297
    1UNL     C9    9  -0.020  -0.014  -0.051
    1UNL     O1   10   0.078  -0.113  -0.045
    1UNL    C10   11   0.138  -0.125   0.081
    1UNL     O2   12   0.172  -0.004   0.151
    1UNL    C11   13   0.267   0.066   0.080
    1UNL    C12   14   0.288   0.215   0.117
    1UNL     O3   15   0.344   0.306   0.012
    1UNL    C13   16   0.401  -0.011   0.069
    1UNL     O4   17   0.451  -0.027   0.204
    1UNL    C14   18   0.377  -0.145  -0.002
    1UNL     O5   19   0.379  -0.145  -0.145
    1UNL    C15   20   0.259  -0.218   0.064
    1UNL     O6   21   0.233  -0.336  -0.011
    1UNL    C16   22  -0.155  -0.057   0.014
    1UNL     H1   23  -0.468  -0.011   0.288
    1UNL     H2   24  -0.309  -0.084   0.245
    1UNL     H3   25  -0.312   0.084   0.279
    1UNL     H4   26  -0.432   0.155   0.084
    1UNL     H5   27  -0.495  -0.023  -0.089
    1UNL     H6   28  -0.430  -0.149   0.013
    1UNL     H7   29  -0.578  -0.067   0.058
    1UNL     H8   30  -0.177   0.130   0.081
    1UNL     H9   31  -0.317   0.076  -0.182
    1UNL    H10   32  -0.327   0.224  -0.113
    1UNL    H11   33  -0.070   0.238  -0.148
    1UNL    H12   34  -0.155   0.192  -0.310
    1UNL    H13   35   0.064   0.075  -0.231
    1UNL    H14   36  -0.095  -0.040  -0.405
    1UNL    H15   37  -0.038  -0.157  -0.278
    1UNL    H16   38  -0.204  -0.083  -0.273
    1UNL    H17   39   0.013   0.072   0.007
    1UNL    H18   40   0.066  -0.176   0.147
    1UNL    H19   41   0.232   0.055  -0.020
    1UNL    H20   42   0.190   0.253   0.153
    1UNL    H21   43   0.370   0.225   0.202
    1UNL    H22   44   0.353   0.257  -0.071
    1UNL    H23   45   0.474   0.048   0.010
    1UNL    H24   46   0.373  -0.044   0.266
    1UNL    H25   47   0.465  -0.212   0.014
    1UNL    H26   48   0.438  -0.073  -0.183
    1UNL    H27   49   0.289  -0.254   0.163
    1UNL    H28   50   0.198  -0.313  -0.094
    1UNL    H29   51  -0.145  -0.103   0.107
    1UNL    H30   52  -0.199  -0.137  -0.058
   0.00000   0.00000   0.00000   0.00000   0.00000   0.00000   0.00000   0.00000   0.00000
Generated with MDTraj, t= 25.0
 52
    1UNL     C1    1  -0.388  -0.001   0.224
    1UNL     C2    2  -0.400   0.023   0.075
    1UNL     C3    3  -0.468  -0.098  -0.007
    1UNL     C4    4  -0.262   0.069   0.017
    1UNL     C5    5  -0.270   0.130  -0.129
    1UNL     C6    6  -0.134   0.177  -0.183
    1UNL     C7    7  -0.029   0.065  -0.174
    1UNL     C8    8  -0.069  -0.052  -0.268
    1UNL     C9    9  -0.019   0.010  -0.028
    1UNL     O1   10   0.067  -0.104  -0.038
    1UNL    C10   11   0.142  -0.125   0.082
    1UNL     O2   12   0.181   0.010   0.132
    1UNL    C11   13   0.275   0.078   0.055
    1UNL    C12   14   0.317   0.223   0.105
    1UNL     O3   15   0.387   0.293   0.009
    1UNL    C13   16   0.401  -0.018   0.054
    1UNL     O4   17   0.444  -0.030   0.191
    1UNL    C14   18   0.369  -0.155  -0.008
    1UNL     O5   19   0.322  -0.145  -0.137
    1UNL    C15   20   0.263  -0.224   0.070
    1UNL     O6   21   0.224  -0.346   0.008
    1UNL    C16   22  -0.152  -0.033   0.023
    1UNL     H1   23  -0.486  -0.043   0.261
    1UNL     H2   24  -0.311  -0.073   0.255
    1UNL     H3   25  -0.364   0.089   0.279
    1UNL     H4   26  -0.466   0.111   0.055
    1UNL     H5   27  -0.481  -0.081  -0.110
    1UNL     H6   28  -0.420  -0.195   0.011
    1UNL     H7   29  -0.577  -0.111   0.037
    1UNL     H8   30  -0.217   0.149   0.085
    1UNL     H9   31  -0.309   0.061  -0.195
    1UNL    H10   32  -0.341   0.210  -0.139
    1UNL    H11   33  -0.109   0.267  -0.125
    1UNL    H12   34  -0.145   0.198  -0.292
    1UNL    H13   35   0.076   0.101  -0.200
    1UNL    H14   36  -0.075  -0.008  -0.367
    1UNL    H15   37   0.014  -0.130  -0.274
    1UNL    H16   38  -0.166  -0.092  -0.246
    1UNL    H17   39   0.022   0.083   0.037
    1UNL    H18   40   0.072  -0.170   0.157
    1UNL    H19   41   0.249   0.078  -0.050
    1UNL    H20   42   0.225   0.286   0.115
    1UNL    H21   43   0.379   0.218   0.206
    1UNL    H22   44   0.318   0.342  -0.049
    1UNL    H23   45   0.483   0.033   0.004
    1UNL    H24   46   0.374  -0.018   0.255
    1UNL    H25   47   0.457  -0.221  -0.004
    1UNL    H26   48   0.396  -0.098  -0.182
    1UNL    H27   49   0.295  -0.249   0.172
    1UNL    H28   50   0.199  -0.319  -0.085
    1UNL    H29   51  -0.139  -0.074   0.119
    1UNL    H30   52  -0.193  -0.113  -0.041
   0.00000   0.00000   0.00000   0.00000   0.00000   0.00000   0.00000   0.00000   0.00000
Generated with MDTraj, t= 26.0
 52
    1UNL     C1    1  -0.428  -0.009   0.216
    1UNL     C2    2  -0.416   0.001   0.063
    1UNL     C3    3  -0.454  -0.130  -0.002
    1UNL     C4    4  -0.279   0.054   0.010
    1UNL     C5    5  -0.291   0.118  -0.133
    1UNL     C6    6  -0.161   0.185  -0.176
    1UNL     C7    7  -0.032   0.094  -0.162
    1UNL     C8    8  -0.029  -0.014  -0.269
    1UNL     C9    9  -0.025   0.012  -0.027
    1UNL     O1   10   0.074  -0.088  -0.026
    1UNL    C10   11   0.140  -0.101   0.100
    1UNL     O2   12   0.196   0.017   0.146
    1UNL    C11   13   0.286   0.068   0.057
    1UNL    C12   14   0.323   0.215   0.087
    1UNL     O3   15   0.426   0.273   0.008
    1UNL    C13   16   0.416  -0.023   0.054
    1UNL     O4   17   0.502  -0.027   0.161
    1UNL    C14   18   0.362  -0.163   0.002
    1UNL     O5   19   0.325  -0.149  -0.144
    1UNL    C15   20   0.238  -0.218   0.087
    1UNL     O6   21   0.174  -0.322   0.013
    1UNL    C16   22  -0.159  -0.045   0.016
    1UNL     H1   23  -0.535  -0.010   0.244
    1UNL     H2   24  -0.380  -0.097   0.258
    1UNL     H3   25  -0.378   0.081   0.262
    1UNL     H4   26  -0.493   0.078   0.033
    1UNL     H5   27  -0.469  -0.125  -0.110
    1UNL     H6   28  -0.390  -0.212   0.025
    1UNL     H7   29  -0.556  -0.155   0.052
    1UNL     H8   30  -0.257   0.133   0.091
    1UNL     H9   31  -0.315   0.045  -0.202
    1UNL    H10   32  -0.374   0.186  -0.134
    1UNL    H11   33  -0.154   0.275  -0.123
    1UNL    H12   34  -0.182   0.196  -0.285
    1UNL    H13   35   0.061   0.158  -0.165
    1UNL    H14   36  -0.034   0.026  -0.368
    1UNL    H15   37   0.072  -0.069  -0.270
    1UNL    H16   38  -0.110  -0.086  -0.262
    1UNL    H17   39   0.001   0.088   0.044
    1UNL    H18   40   0.056  -0.131   0.168
    1UNL    H19   41   0.245   0.065  -0.045
    1UNL    H20   42   0.234   0.280   0.080
    1UNL    H21   43   0.372   0.216   0.193
    1UNL    H22   44   0.398   0.269  -0.090
    1UNL    H23   45   0.473   0.032  -0.019
    1UNL    H24   46   0.452  -0.020   0.247
    1UNL    H25   47   0.434  -0.245   0.013
    1UNL    H26   48   0.403  -0.129  -0.197
    1UNL    H27   49   0.262  -0.249   0.190
    1UNL    H28   50   0.147  -0.279  -0.074
    1UNL    H29   51  -0.155  -0.071   0.120
    1UNL    H30   52  -0.191  -0.132  -0.031
   0.00000   0.00000   0.00000   0.00000   0.00000   0.00000   0.00000   0.00000   0.00000
Generated with MDTraj, t= 27.0
 52
    1UNL     C1    1  -0.439  -0.026   0.201
    1UNL     C2    2  -0.423  -0.014   0.053
    1UNL     C3    3  -0.444  -0.154  -0.002
    1UNL     C4    4  -0.293   0.045   0.003
    1UNL     C5    5  -0.309   0.100  -0.139
    1UNL     C6    6  -0.184   0.187  -0.167
    1UNL     C7    7  -0.047   0.115  -0.144
    1UNL     C8    8  -0.016   0.028  -0.267
    1UNL     C9    9  -0.042   0.030  -0.011
    1UNL     O1   10   0.062  -0.063  -0.022
    1UNL    C10   11   0.141  -0.082   0.108
    1UNL     O2   12   0.207   0.040   0.147
    1UNL    C11   13   0.310   0.084   0.044
    1UNL    C12   14   0.383   0.205   0.092
    1UNL     O3   15   0.452   0.274  -0.013
    1UNL    C13   16   0.418  -0.033   0.033
    1UNL     O4   17   0.466  -0.049   0.163
    1UNL    C14   18   0.360  -0.176  -0.009
    1UNL     O5   19   0.338  -0.189  -0.148
    1UNL    C15   20   0.244  -0.204   0.090
    1UNL     O6   21   0.166  -0.310   0.051
    1UNL    C16   22  -0.171  -0.050   0.012
    1UNL     H1   23  -0.530  -0.080   0.225
    1UNL     H2   24  -0.355  -0.080   0.246
    1UNL     H3   25  -0.442   0.078   0.247
    1UNL     H4   26  -0.503   0.056   0.014
    1UNL     H5   27  -0.445  -0.153  -0.118
    1UNL     H6   28  -0.372  -0.229   0.027
    1UNL     H7   29  -0.540  -0.198   0.031
    1UNL     H8   30  -0.267   0.137   0.067
    1UNL     H9   31  -0.321   0.019  -0.207
    1UNL    H10   32  -0.395   0.159  -0.146
    1UNL    H11   33  -0.198   0.266  -0.105
    1UNL    H12   34  -0.191   0.215  -0.274
    1UNL    H13   35   0.042   0.183  -0.133
    1UNL    H14   36   0.005   0.085  -0.356
    1UNL    H15   37   0.078  -0.029  -0.247
    1UNL    H16   38  -0.097  -0.045  -0.291
    1UNL    H17   39  -0.010   0.099   0.068
    1UNL    H18   40   0.065  -0.127   0.176
    1UNL    H19   41   0.243   0.095  -0.045
    1UNL    H20   42   0.311   0.275   0.137
    1UNL    H21   43   0.461   0.169   0.170
    1UNL    H22   44   0.389   0.292  -0.084
    1UNL    H23   45   0.507  -0.008  -0.022
    1UNL    H24   46   0.388  -0.038   0.227
    1UNL    H25   47   0.445  -0.243   0.005
    1UNL    H26   48   0.406  -0.141  -0.201
    1UNL    H27   49   0.297  -0.220   0.187
    1UNL    H28   50   0.137  -0.299  -0.043
    1UNL    H29   51  -0.173  -0.090   0.112
    1UNL    H30   52  -0.180  -0.130  -0.049
   0.00000   0.00000   0.00000   0.00000   0.00000   0.00000   0.00000   0.00000   0.00000
Generated with MDTraj, t= 28.0
 52
    1UNL     C1    1  -0.433  -0.063   0.199
    1UNL     C2    2  -0.422  -0.040   0.048
    1UNL     C3    3  -0.428  -0.174  -0.031
    1UNL     C4    4  -0.298   0.044   0.014
    1UNL     C5    5  -0.299   0.099  -0.128
    1UNL     C6    6  -0.181   0.204  -0.154
    1UNL     C7    7  -0.048   0.127  -0.151
    1UNL     C8    8  -0.032   0.047  -0.276
    1UNL     C9    9  -0.038   0.035  -0.016
    1UNL     O1   10   0.076  -0.053  -0.018
    1UNL    C10   11   0.137  -0.061   0.113
    1UNL     O2   12   0.215   0.048   0.138
    1UNL    C11   13   0.320   0.071   0.049
    1UNL    C12   14   0.377   0.210   0.064
    1UNL     O3   15   0.471   0.236  -0.045
    1UNL    C13   16   0.427  -0.043   0.050
    1UNL     O4   17   0.485  -0.059   0.174
    1UNL    C14   18   0.346  -0.169   0.012
    1UNL     O5   19   0.303  -0.159  -0.121
    1UNL    C15   20   0.223  -0.196   0.108
    1UNL     O6   21   0.148  -0.297   0.042
    1UNL    C16   22  -0.169  -0.042   0.018
    1UNL     H1   23  -0.516  -0.129   0.222
    1UNL     H2   24  -0.343  -0.113   0.242
    1UNL     H3   25  -0.449   0.029   0.259
    1UNL     H4   26  -0.508   0.023   0.012
    1UNL     H5   27  -0.407  -0.161  -0.146
    1UNL     H6   28  -0.349  -0.247   0.007
    1UNL     H7   29  -0.517  -0.227  -0.017
    1UNL     H8   30  -0.287   0.140   0.077
    1UNL     H9   31  -0.287   0.013  -0.193
    1UNL    H10   32  -0.393   0.134  -0.149
    1UNL    H11   33  -0.186   0.274  -0.080
    1UNL    H12   34  -0.200   0.250  -0.250
    1UNL    H13   35   0.046   0.188  -0.148
    1UNL    H14   36  -0.033   0.116  -0.363
    1UNL    H15   37   0.065  -0.001  -0.272
    1UNL    H16   38  -0.110  -0.034  -0.289
    1UNL    H17   39  -0.014   0.111   0.061
    1UNL    H18   40   0.050  -0.069   0.180
    1UNL    H19   41   0.261   0.064  -0.050
    1UNL    H20   42   0.303   0.289   0.061
    1UNL    H21   43   0.435   0.214   0.162
    1UNL    H22   44   0.461   0.187  -0.125
    1UNL    H23   45   0.504  -0.018  -0.020
    1UNL    H24   46   0.411  -0.047   0.239
    1UNL    H25   47   0.403  -0.261   0.016
    1UNL    H26   48   0.376  -0.163  -0.190
    1UNL    H27   49   0.241  -0.221   0.216
    1UNL    H28   50   0.089  -0.267  -0.037
    1UNL    H29   51  -0.157  -0.096   0.109
    1UNL    H30   52  -0.179  -0.120  -0.052
   0.00000   0.00000   0.00000   0.00000   0.00000   0.00000   0.00000   0.00000   0.00000
Generated with MDTraj, t= 29.0
 52
    1UNL     C1    1  -0.423  -0.116   0.191
    1UNL     C2    2  -0.419  -0.063   0.045
    1UNL     C3    3  -0.424  -0.173  -0.057
    1UNL     C4    4  -0.295   0.038   0.015
    1UNL     C5    5  -0.310   0.129  -0.117
    1UNL     C6    6  -0.183   0.212  -0.147
    1UNL     C7    7  -0.054   0.134  -0.146
    1UNL     C8    8  -0.039   0.034  -0.262
    1UNL     C9    9  -0.038   0.056  -0.005
    1UNL     O1   10   0.073  -0.028  -0.018
    1UNL    C10   11   0.141  -0.045   0.104
    1UNL     O2   12   0.219   0.064   0.129
    1UNL    C11   13   0.326   0.071   0.036
    1UNL    C12   14   0.398   0.205   0.048
    1UNL     O3   15   0.484   0.231  -0.056
    1UNL    C13   16   0.422  -0.054   0.052
    1UNL     O4   17   0.470  -0.055   0.188
    1UNL    C14   18   0.342  -0.177   0.020
    1UNL     O5   19   0.301  -0.192  -0.108
    1UNL    C15   20   0.216  -0.189   0.105
    1UNL     O6   21   0.132  -0.285   0.047
    1UNL    C16   22  -0.156  -0.035   0.021
    1UNL     H1   23  -0.524  -0.151   0.224
    1UNL     H2   24  -0.353  -0.202   0.205
    1UNL     H3   25  -0.391  -0.041   0.262
    1UNL     H4   26  -0.515  -0.004   0.029
    1UNL     H5   27  -0.412  -0.128  -0.159
    1UNL     H6   28  -0.330  -0.241  -0.037
    1UNL     H7   29  -0.510  -0.236  -0.044
    1UNL     H8   30  -0.298   0.114   0.101
    1UNL     H9   31  -0.347   0.071  -0.203
    1UNL    H10   32  -0.389   0.193  -0.103
    1UNL    H11   33  -0.175   0.289  -0.076
    1UNL    H12   34  -0.199   0.259  -0.239
    1UNL    H13   35   0.029   0.205  -0.154
    1UNL    H14   36  -0.032   0.093  -0.358
    1UNL    H15   37   0.045  -0.031  -0.254
    1UNL    H16   38  -0.128  -0.036  -0.269
    1UNL    H17   39  -0.045   0.140   0.072
    1UNL    H18   40   0.065  -0.050   0.182
    1UNL    H19   41   0.272   0.064  -0.067
    1UNL    H20   42   0.327   0.287   0.056
    1UNL    H21   43   0.464   0.206   0.139
    1UNL    H22   44   0.436   0.280  -0.131
    1UNL    H23   45   0.510  -0.040  -0.010
    1UNL    H24   46   0.392  -0.045   0.242
    1UNL    H25   47   0.404  -0.264   0.049
    1UNL    H26   48   0.378  -0.217  -0.165
    1UNL    H27   49   0.235  -0.203   0.214
    1UNL    H28   50   0.125  -0.258  -0.042
    1UNL    H29   51  -0.143  -0.093   0.107
    1UNL    H30   52  -0.147  -0.116  -0.056
   0.00000   0.00000   0.00000   0.00000   0.00000   0.00000   0.00000   0.00000   0.00000
Generated with MDTraj, t= 30.0
 52
    1UNL     C1    1  -0.413  -0.138   0.178
    1UNL     C2    2  -0.424  -0.064   0.040
    1UNL     C3    3  -0.460  -0.162  -0.071
    1UNL     C4    4  -0.302   0.035   0.014
    1UNL     C5    5  -0.315   0.119  -0.116
    1UNL     C6    6  -0.204   0.223  -0.139
    1UNL     C7    7  -0.069   0.149  -0.145
    1UNL     C8    8  -0.057   0.047  -0.263
    1UNL     C9    9  -0.043   0.063  -0.013
    1UNL     O1   10   0.080  -0.021  -0.030
    1UNL    C10   11   0.144  -0.033   0.099
    1UNL     O2   12   0.230   0.069   0.133
    1UNL    C11   13   0.333   0.067   0.039
    1UNL    C12   14   0.416   0.193   0.046
    1UNL     O3   15   0.495   0.227  -0.059
    1UNL    C13   16   0.421  -0.060   0.057
    1UNL     O4   17   0.486  -0.052   0.188
    1UNL    C14   18   0.345  -0.185   0.025
    1UNL     O5   19   0.313  -0.206  -0.109
    1UNL    C15   20   0.216  -0.173   0.114
    1UNL     O6   21   0.142  -0.285   0.087
    1UNL    C16   22  -0.161  -0.035   0.007
    1UNL     H1   23  -0.504  -0.206   0.185
    1UNL     H2   24  -0.322  -0.200   0.172
    1UNL     H3   25  -0.409  -0.079   0.268
    1UNL     H4   26  -0.516  -0.001   0.056
    1UNL     H5   27  -0.501  -0.113  -0.159
    1UNL     H6   28  -0.371  -0.221  -0.106
    1UNL     H7   29  -0.535  -0.240  -0.035
    1UNL     H8   30  -0.296   0.105   0.106
    1UNL     H9   31  -0.324   0.049  -0.200
    1UNL    H10   32  -0.410   0.170  -0.120
    1UNL    H11   33  -0.207   0.286  -0.054
    1UNL    H12   34  -0.223   0.278  -0.222
    1UNL    H13   35   0.014   0.219  -0.151
    1UNL    H14   36  -0.093   0.101  -0.357
    1UNL    H15   37   0.040   0.004  -0.282
    1UNL    H16   38  -0.118  -0.043  -0.250
    1UNL    H17   39  -0.028   0.137   0.071
    1UNL    H18   40   0.061  -0.046   0.167
    1UNL    H19   41   0.288   0.063  -0.070
    1UNL    H20   42   0.343   0.271   0.059
    1UNL    H21   43   0.482   0.193   0.135
    1UNL    H22   44   0.432   0.223  -0.142
    1UNL    H23   45   0.505  -0.060  -0.017
    1UNL    H24   46   0.419  -0.053   0.260
    1UNL    H25   47   0.401  -0.275   0.059
    1UNL    H26   48   0.391  -0.224  -0.164
    1UNL    H27   49   0.246  -0.187   0.220
    1UNL    H28   50   0.149  -0.292  -0.016
    1UNL    H29   51  -0.141  -0.097   0.089
    1UNL    H30   52  -0.154  -0.118  -0.074
   0.00000   0.00000   0.00000   0.00000   0.00000   0.00000   0.00000   0.00000   0.00000
Generated with MDTraj, t= 31.0
 52
    1UNL     C1    1  -0.403  -0.149   0.170
    1UNL     C2    2  -0.421  -0.059   0.047
    1UNL     C3    3  -0.459  -0.152  -0.063
    1UNL     C4    4  -0.299   0.025   0.014
    1UNL     C5    5  -0.312   0.112  -0.109
    1UNL     C6    6  -0.189   0.212  -0.127
    1UNL     C7    7  -0.054   0.136  -0.138
    1UNL     C8    8  -0.036   0.062  -0.272
    1UNL     C9    9  -0.051   0.043  -0.015
    1UNL     O1   10   0.071  -0.037  -0.015
    1UNL    C10   11   0.132  -0.040   0.110
    1UNL     O2   12   0.224   0.067   0.122
    1UNL    C11   13   0.329   0.075   0.030
    1UNL    C12   14   0.409   0.203   0.040
    1UNL     O3   15   0.516   0.208  -0.062
    1UNL    C13   16   0.424  -0.043   0.051
    1UNL     O4   17   0.491  -0.040   0.174
    1UNL    C14   18   0.340  -0.171   0.034
    1UNL     O5   19   0.297  -0.190  -0.098
    1UNL    C15   20   0.208  -0.174   0.124
    1UNL     O6   21   0.120  -0.264   0.072
    1UNL    C16   22  -0.166  -0.060  -0.005
    1UNL     H1   23  -0.498  -0.205   0.187
    1UNL     H2   24  -0.325  -0.221   0.149
    1UNL     H3   25  -0.377  -0.103   0.269
    1UNL     H4   26  -0.504   0.012   0.074
    1UNL     H5   27  -0.487  -0.096  -0.153
    1UNL     H6   28  -0.381  -0.215  -0.093
    1UNL     H7   29  -0.552  -0.222  -0.038
    1UNL     H8   30  -0.280   0.098   0.102
    1UNL     H9   31  -0.321   0.054  -0.200
    1UNL    H10   32  -0.410   0.171  -0.107
    1UNL    H11   33  -0.191   0.277  -0.043
    1UNL    H12   34  -0.199   0.268  -0.212
    1UNL    H13   35   0.029   0.203  -0.120
    1UNL    H14   36  -0.020   0.139  -0.354
    1UNL    H15   37   0.050  -0.010  -0.270
    1UNL    H16   38  -0.120  -0.002  -0.295
    1UNL    H17   39  -0.042   0.114   0.071
    1UNL    H18   40   0.062  -0.022   0.193
    1UNL    H19   41   0.297   0.068  -0.083
    1UNL    H20   42   0.352   0.294   0.050
    1UNL    H21   43   0.455   0.189   0.138
    1UNL    H22   44   0.507   0.148  -0.140
    1UNL    H23   45   0.504  -0.051  -0.028
    1UNL    H24   46   0.430  -0.033   0.255
    1UNL    H25   47   0.406  -0.257   0.061
    1UNL    H26   48   0.373  -0.192  -0.159
    1UNL    H27   49   0.230  -0.204   0.226
    1UNL    H28   50   0.098  -0.220  -0.008
    1UNL    H29   51  -0.146  -0.138   0.063
    1UNL    H30   52  -0.172  -0.113  -0.106
   0.00000   0.00000   0.00000   0.00000   0.00000   0.00000   0.00000   0.00000   0.00000
Generated with MDTraj, t= 32.0
 52
    1UNL     C1    1  -0.415  -0.140   0.175
    1UNL     C2    2  -0.418  -0.060   0.042
    1UNL     C3    3  -0.438  -0.155  -0.072
    1UNL     C4    4  -0.300   0.041   0.012
    1UNL     C5    5  -0.318   0.114  -0.116
    1UNL     C6    6  -0.200   0.217  -0.136
    1UNL     C7    7  -0.064   0.144  -0.134
    1UNL     C8    8  -0.043   0.078  -0.271
    1UNL     C9    9  -0.045   0.043  -0.013
    1UNL     O1   10   0.074  -0.039  -0.009
    1UNL    C10   11   0.146  -0.044   0.114
    1UNL     O2   12   0.228   0.075   0.134
    1UNL    C11   13   0.329   0.073   0.018
    1UNL    C12   14   0.403   0.206   0.039
    1UNL     O3   15   0.508   0.211  -0.059
    1UNL    C13   16   0.423  -0.056   0.042
    1UNL     O4   17   0.460  -0.040   0.178
    1UNL    C14   18   0.345  -0.187   0.022
    1UNL     O5   19   0.309  -0.202  -0.118
    1UNL    C15   20   0.228  -0.183   0.124
    1UNL     O6   21   0.140  -0.290   0.101
    1UNL    C16   22  -0.171  -0.045   0.004
    1UNL     H1   23  -0.511  -0.173   0.212
    1UNL     H2   24  -0.351  -0.228   0.181
    1UNL     H3   25  -0.375  -0.076   0.261
    1UNL     H4   26  -0.508   0.005   0.044
    1UNL     H5   27  -0.435  -0.096  -0.167
    1UNL     H6   28  -0.361  -0.227  -0.073
    1UNL     H7   29  -0.539  -0.207  -0.064
    1UNL     H8   30  -0.293   0.127   0.091
    1UNL     H9   31  -0.315   0.044  -0.198
    1UNL    H10   32  -0.422   0.169  -0.133
    1UNL    H11   33  -0.200   0.287  -0.057
    1UNL    H12   34  -0.212   0.271  -0.226
    1UNL    H13   35   0.006   0.225  -0.114
    1UNL    H14   36  -0.035   0.157  -0.347
    1UNL    H15   37   0.048   0.009  -0.270
    1UNL    H16   38  -0.125   0.012  -0.296
    1UNL    H17   39  -0.044   0.105   0.075
    1UNL    H18   40   0.080  -0.038   0.200
    1UNL    H19   41   0.267   0.077  -0.080
    1UNL    H20   42   0.327   0.281   0.031
    1UNL    H21   43   0.443   0.216   0.140
    1UNL    H22   44   0.475   0.199  -0.146
    1UNL    H23   45   0.516  -0.054  -0.025
    1UNL    H24   46   0.384  -0.013   0.233
    1UNL    H25   47   0.412  -0.273   0.042
    1UNL    H26   48   0.365  -0.136  -0.168
    1UNL    H27   49   0.267  -0.218   0.221
    1UNL    H28   50   0.104  -0.275   0.009
    1UNL    H29   51  -0.173  -0.097   0.098
    1UNL    H30   52  -0.188  -0.121  -0.076
   0.00000   0.00000   0.00000   0.00000   0.00000   0.00000   0.00000   0.00000   0.00000
Generated with MDTraj, t= 33.0
 52
    1UNL     C1    1  -0.452  -0.107   0.181
    1UNL     C2    2  -0.433  -0.051   0.032
    1UNL     C3    3  -0.429  -0.166  -0.068
    1UNL     C4    4  -0.301   0.035   0.009
    1UNL     C5    5  -0.311   0.121  -0.113
    1UNL     C6    6  -0.179   0.209  -0.128
    1UNL     C7    7  -0.049   0.132  -0.133
    1UNL     C8    8  -0.042   0.056  -0.262
    1UNL     C9    9  -0.044   0.041  -0.007
    1UNL     O1   10   0.074  -0.042  -0.004
    1UNL    C10   11   0.140  -0.049   0.113
    1UNL     O2   12   0.224   0.061   0.140
    1UNL    C11   13   0.327   0.068   0.030
    1UNL    C12   14   0.397   0.206   0.039
    1UNL     O3   15   0.476   0.228  -0.070
    1UNL    C13   16   0.429  -0.043   0.048
    1UNL     O4   17   0.497  -0.045   0.170
    1UNL    C14   18   0.355  -0.176   0.033
    1UNL     O5   19   0.317  -0.199  -0.106
    1UNL    C15   20   0.220  -0.186   0.116
    1UNL     O6   21   0.130  -0.286   0.065
    1UNL    C16   22  -0.169  -0.047   0.002
    1UNL     H1   23  -0.547  -0.159   0.188
    1UNL     H2   24  -0.370  -0.177   0.211
    1UNL     H3   25  -0.452  -0.029   0.262
    1UNL     H4   26  -0.522   0.012   0.016
    1UNL     H5   27  -0.413  -0.121  -0.170
    1UNL     H6   28  -0.348  -0.237  -0.045
    1UNL     H7   29  -0.518  -0.216  -0.063
    1UNL     H8   30  -0.290   0.110   0.097
    1UNL     H9   31  -0.335   0.070  -0.210
    1UNL    H10   32  -0.402   0.197  -0.104
    1UNL    H11   33  -0.174   0.282  -0.055
    1UNL    H12   34  -0.177   0.260  -0.224
    1UNL    H13   35   0.029   0.209  -0.127
    1UNL    H14   36  -0.069   0.124  -0.340
    1UNL    H15   37   0.061   0.008  -0.283
    1UNL    H16   38  -0.113  -0.028  -0.266
    1UNL    H17   39  -0.034   0.109   0.076
    1UNL    H18   40   0.072  -0.044   0.201
    1UNL    H19   41   0.263   0.049  -0.062
    1UNL    H20   42   0.336   0.294   0.052
    1UNL    H21   43   0.457   0.207   0.129
    1UNL    H22   44   0.422   0.232  -0.151
    1UNL    H23   45   0.501  -0.026  -0.041
    1UNL    H24   46   0.428  -0.044   0.234
    1UNL    H25   47   0.432  -0.250   0.061
    1UNL    H26   48   0.397  -0.177  -0.162
    1UNL    H27   49   0.240  -0.237   0.211
    1UNL    H28   50   0.126  -0.273  -0.035
    1UNL    H29   51  -0.164  -0.108   0.094
    1UNL    H30   52  -0.172  -0.112  -0.086
   0.00000   0.00000   0.00000   0.00000   0.00000   0.00000   0.00000   0.00000   0.00000
Generated with MDTraj, t= 34.0
 52
    1UNL     C1    1  -0.457  -0.075   0.173
    1UNL     C2    2  -0.425  -0.040   0.026
    1UNL     C3    3  -0.434  -0.173  -0.055
    1UNL     C4    4  -0.293   0.047   0.017
    1UNL     C5    5  -0.288   0.124  -0.120
    1UNL     C6    6  -0.170   0.222  -0.133
    1UNL     C7    7  -0.042   0.131  -0.132
    1UNL     C8    8  -0.029   0.028  -0.242
    1UNL     C9    9  -0.039   0.045  -0.005
    1UNL     O1   10   0.069  -0.053  -0.015
    1UNL    C10   11   0.137  -0.067   0.104
    1UNL     O2   12   0.212   0.049   0.143
    1UNL    C11   13   0.314   0.068   0.037
    1UNL    C12   14   0.378   0.210   0.048
    1UNL     O3   15   0.447   0.251  -0.069
    1UNL    C13   16   0.415  -0.043   0.047
    1UNL     O4   17   0.493  -0.042   0.168
    1UNL    C14   18   0.350  -0.179   0.022
    1UNL     O5   19   0.322  -0.188  -0.118
    1UNL    C15   20   0.223  -0.198   0.106
    1UNL     O6   21   0.157  -0.308   0.065
    1UNL    C16   22  -0.167  -0.040   0.021
    1UNL     H1   23  -0.547  -0.141   0.172
    1UNL     H2   24  -0.367  -0.131   0.214
    1UNL     H3   25  -0.476   0.009   0.240
    1UNL     H4   26  -0.510   0.025   0.002
    1UNL     H5   27  -0.438  -0.147  -0.160
    1UNL     H6   28  -0.348  -0.246  -0.044
    1UNL     H7   29  -0.518  -0.227  -0.033
    1UNL     H8   30  -0.287   0.120   0.107
    1UNL     H9   31  -0.283   0.045  -0.207
    1UNL    H10   32  -0.387   0.178  -0.149
    1UNL    H11   33  -0.167   0.283  -0.052
    1UNL    H12   34  -0.170   0.282  -0.226
    1UNL    H13   35   0.050   0.192  -0.129
    1UNL    H14   36  -0.033   0.079  -0.337
    1UNL    H15   37   0.064  -0.037  -0.233
    1UNL    H16   38  -0.111  -0.049  -0.246
    1UNL    H17   39  -0.004   0.108   0.074
    1UNL    H18   40   0.066  -0.065   0.190
    1UNL    H19   41   0.260   0.048  -0.058
    1UNL    H20   42   0.310   0.289   0.075
    1UNL    H21   43   0.451   0.224   0.127
    1UNL    H22   44   0.383   0.264  -0.150
    1UNL    H23   45   0.493  -0.033  -0.037
    1UNL    H24   46   0.428  -0.050   0.245
    1UNL    H25   47   0.420  -0.259   0.046
    1UNL    H26   48   0.400  -0.211  -0.171
    1UNL    H27   49   0.256  -0.224   0.208
    1UNL    H28   50   0.140  -0.292  -0.030
    1UNL    H29   51  -0.143  -0.090   0.120
    1UNL    H30   52  -0.171  -0.112  -0.059
   0.00000   0.00000   0.00000   0.00000   0.00000   0.00000   0.00000   0.00000   0.00000
Generated with MDTraj, t= 35.0
 52
    1UNL     C1    1  -0.447  -0.055   0.187
    1UNL     C2    2  -0.421  -0.018   0.038
    1UNL     C3    3  -0.453  -0.141  -0.043
    1UNL     C4    4  -0.282   0.044   0.009
    1UNL     C5    5  -0.279   0.122  -0.128
    1UNL     C6    6  -0.158   0.201  -0.154
    1UNL     C7    7  -0.027   0.111  -0.137
    1UNL     C8    8  -0.006   0.014  -0.261
    1UNL     C9    9  -0.023   0.037   0.001
    1UNL     O1   10   0.076  -0.066  -0.011
    1UNL    C10   11   0.140  -0.090   0.110
    1UNL     O2   12   0.202   0.031   0.149
    1UNL    C11   13   0.295   0.074   0.043
    1UNL    C12   14   0.351   0.217   0.060
    1UNL     O3   15   0.432   0.270  -0.055
    1UNL    C13   16   0.406  -0.030   0.037
    1UNL     O4   17   0.474  -0.036   0.170
    1UNL    C14   18   0.347  -0.170   0.002
    1UNL     O5   19   0.297  -0.178  -0.126
    1UNL    C15   20   0.237  -0.205   0.105
    1UNL     O6   21   0.191  -0.327   0.062
    1UNL    C16   22  -0.161  -0.048   0.024
    1UNL     H1   23  -0.551  -0.097   0.209
    1UNL     H2   24  -0.373  -0.128   0.228
    1UNL     H3   25  -0.437   0.031   0.250
    1UNL     H4   26  -0.495   0.059   0.013
    1UNL     H5   27  -0.412  -0.132  -0.135
    1UNL     H6   28  -0.412  -0.231   0.009
    1UNL     H7   29  -0.562  -0.157  -0.046
    1UNL     H8   30  -0.272   0.130   0.088
    1UNL     H9   31  -0.294   0.046  -0.218
    1UNL    H10   32  -0.372   0.190  -0.139
    1UNL    H11   33  -0.151   0.272  -0.080
    1UNL    H12   34  -0.154   0.255  -0.250
    1UNL    H13   35   0.058   0.181  -0.139
    1UNL    H14   36   0.023   0.063  -0.356
    1UNL    H15   37   0.061  -0.069  -0.228
    1UNL    H16   38  -0.100  -0.042  -0.288
    1UNL    H17   39  -0.017   0.109   0.085
    1UNL    H18   40   0.060  -0.106   0.185
    1UNL    H19   41   0.247   0.076  -0.055
    1UNL    H20   42   0.273   0.287   0.087
    1UNL    H21   43   0.412   0.229   0.149
    1UNL    H22   44   0.365   0.272  -0.131
    1UNL    H23   45   0.492  -0.001  -0.029
    1UNL    H24   46   0.404  -0.031   0.241
    1UNL    H25   47   0.424  -0.247   0.012
    1UNL    H26   48   0.367  -0.168  -0.193
    1UNL    H27   49   0.277  -0.240   0.203
    1UNL    H28   50   0.161  -0.319  -0.036
    1UNL    H29   51  -0.158  -0.096   0.127
    1UNL    H30   52  -0.154  -0.124  -0.049
   0.00000   0.00000   0.00000   0.00000   0.00000   0.00000   0.00000   0.00000   0.00000
Generated with MDTraj, t= 36.0
 52
    1UNL     C1    1  -0.411  -0.032   0.202
    1UNL     C2    2  -0.425   0.010   0.053
    1UNL     C3    3  -0.476  -0.107  -0.039
    1UNL     C4    4  -0.288   0.059   0.006
    1UNL     C5    5  -0.281   0.117  -0.140
    1UNL     C6    6  -0.141   0.183  -0.169
    1UNL     C7    7  -0.018   0.080  -0.143
    1UNL     C8    8  -0.008  -0.009  -0.274
    1UNL     C9    9  -0.034   0.005  -0.008
    1UNL     O1   10   0.058  -0.107   0.003
    1UNL    C10   11   0.142  -0.102   0.122
    1UNL     O2   12   0.198   0.030   0.152
    1UNL    C11   13   0.288   0.075   0.053
    1UNL    C12   14   0.324   0.224   0.071
    1UNL     O3   15   0.410   0.279  -0.026
    1UNL    C13   16   0.407  -0.019   0.047
    1UNL     O4   17   0.491  -0.017   0.160
    1UNL    C14   18   0.362  -0.160   0.001
    1UNL     O5   19   0.322  -0.161  -0.132
    1UNL    C15   20   0.247  -0.216   0.098
    1UNL     O6   21   0.193  -0.330   0.038
    1UNL    C16   22  -0.181  -0.050   0.011
    1UNL     H1   23  -0.509  -0.043   0.259
    1UNL     H2   24  -0.358  -0.127   0.213
    1UNL     H3   25  -0.353   0.040   0.262
    1UNL     H4   26  -0.498   0.092   0.047
    1UNL     H5   27  -0.474  -0.076  -0.138
    1UNL     H6   28  -0.409  -0.184  -0.026
    1UNL     H7   29  -0.578  -0.144  -0.009
    1UNL     H8   30  -0.247   0.151   0.065
    1UNL     H9   31  -0.303   0.030  -0.212
    1UNL    H10   32  -0.364   0.196  -0.155
    1UNL    H11   33  -0.121   0.275  -0.122
    1UNL    H12   34  -0.136   0.206  -0.274
    1UNL    H13   35   0.079   0.134  -0.147
    1UNL    H14   36  -0.044   0.044  -0.367
    1UNL    H15   37   0.090  -0.059  -0.281
    1UNL    H16   38  -0.075  -0.097  -0.261
    1UNL    H17   39  -0.025   0.070   0.084
    1UNL    H18   40   0.066  -0.113   0.203
    1UNL    H19   41   0.251   0.072  -0.049
    1UNL    H20   42   0.243   0.294   0.095
    1UNL    H21   43   0.381   0.231   0.165
    1UNL    H22   44   0.365   0.273  -0.108
    1UNL    H23   45   0.477   0.018  -0.031
    1UNL    H24   46   0.427  -0.025   0.230
    1UNL    H25   47   0.454  -0.221   0.003
    1UNL    H26   48   0.399  -0.141  -0.192
    1UNL    H27   49   0.288  -0.259   0.192
    1UNL    H28   50   0.173  -0.307  -0.051
    1UNL    H29   51  -0.185  -0.119   0.103
    1UNL    H30   52  -0.195  -0.108  -0.076
   0.00000   0.00000   0.00000   0.00000   0.00000   0.00000   0.00000   0.00000   0.00000
Generated with MDTraj, t= 37.0
 52
    1UNL     C1    1  -0.428  -0.006   0.210
    1UNL     C2    2  -0.411   0.029   0.064
    1UNL     C3    3  -0.491  -0.063  -0.030
    1UNL     C4    4  -0.269   0.059   0.018
    1UNL     C5    5  -0.280   0.111  -0.129
    1UNL     C6    6  -0.143   0.167  -0.176
    1UNL     C7    7  -0.031   0.058  -0.173
    1UNL     C8    8  -0.045  -0.036  -0.288
    1UNL     C9    9  -0.027  -0.003  -0.029
    1UNL     O1   10   0.074  -0.107  -0.021
    1UNL    C10   11   0.150  -0.110   0.097
    1UNL     O2   12   0.193   0.015   0.154
    1UNL    C11   13   0.279   0.079   0.053
    1UNL    C12   14   0.314   0.223   0.090
    1UNL     O3   15   0.384   0.291  -0.002
    1UNL    C13   16   0.412  -0.005   0.043
    1UNL     O4   17   0.462  -0.015   0.176
    1UNL    C14   18   0.382  -0.154   0.000
    1UNL     O5   19   0.357  -0.164  -0.138
    1UNL    C15   20   0.264  -0.217   0.085
    1UNL     O6   21   0.218  -0.350   0.047
    1UNL    C16   22  -0.167  -0.054   0.021
    1UNL     H1   23  -0.537  -0.011   0.235
    1UNL     H2   24  -0.378  -0.100   0.232
    1UNL     H3   25  -0.386   0.076   0.279
    1UNL     H4   26  -0.464   0.127   0.062
    1UNL     H5   27  -0.529  -0.012  -0.117
    1UNL     H6   28  -0.436  -0.143  -0.059
    1UNL     H7   29  -0.582  -0.107   0.017
    1UNL     H8   30  -0.216   0.141   0.081
    1UNL     H9   31  -0.296   0.021  -0.189
    1UNL    H10   32  -0.371   0.182  -0.133
    1UNL    H11   33  -0.111   0.250  -0.111
    1UNL    H12   34  -0.152   0.203  -0.275
    1UNL    H13   35   0.065   0.106  -0.206
    1UNL    H14   36  -0.024   0.013  -0.391
    1UNL    H15   37   0.008  -0.129  -0.272
    1UNL    H16   38  -0.148  -0.071  -0.304
    1UNL    H17   39   0.003   0.077   0.048
    1UNL    H18   40   0.074  -0.141   0.171
    1UNL    H19   41   0.223   0.076  -0.039
    1UNL    H20   42   0.220   0.277   0.113
    1UNL    H21   43   0.369   0.230   0.185
    1UNL    H22   44   0.339   0.300  -0.087
    1UNL    H23   45   0.499   0.025  -0.014
    1UNL    H24   46   0.385  -0.018   0.242
    1UNL    H25   47   0.475  -0.214   0.010
    1UNL    H26   48   0.419  -0.111  -0.196
    1UNL    H27   49   0.301  -0.237   0.188
    1UNL    H28   50   0.192  -0.338  -0.050
    1UNL    H29   51  -0.155  -0.086   0.129
    1UNL    H30   52  -0.189  -0.138  -0.042
   0.00000   0.00000   0.00000   0.00000   0.00000   0.00000   0.00000   0.00000   0.00000
Generated with MDTraj, t= 38.0
 52
    1UNL     C1    1  -0.371  -0.004   0.215
    1UNL     C2    2  -0.393   0.039   0.071
    1UNL     C3    3  -0.470  -0.067  -0.001
    1UNL     C4    4  -0.255   0.072   0.006
    1UNL     C5    5  -0.262   0.144  -0.132
    1UNL     C6    6  -0.124   0.170  -0.191
    1UNL     C7    7  -0.035   0.042  -0.191
    1UNL     C8    8  -0.080  -0.074  -0.280
    1UNL     C9    9  -0.025  -0.013  -0.051
    1UNL     O1   10   0.068  -0.120  -0.034
    1UNL    C10   11   0.125  -0.123   0.090
    1UNL     O2   12   0.173   0.003   0.142
    1UNL    C11   13   0.276   0.069   0.061
    1UNL    C12   14   0.292   0.218   0.093
    1UNL     O3   15   0.368   0.291   0.004
    1UNL    C13   16   0.408  -0.009   0.069
    1UNL     O4   17   0.455   0.003   0.202
    1UNL    C14   18   0.373  -0.146   0.017
    1UNL     O5   19   0.359  -0.143  -0.124
    1UNL    C15   20   0.255  -0.220   0.085
    1UNL     O6   21   0.221  -0.338   0.006
    1UNL    C16   22  -0.161  -0.050   0.009
    1UNL     H1   23  -0.459  -0.022   0.278
    1UNL     H2   24  -0.307  -0.095   0.216
    1UNL     H3   25  -0.312   0.078   0.269
    1UNL     H4   26  -0.458   0.130   0.079
    1UNL     H5   27  -0.462  -0.061  -0.110
    1UNL     H6   28  -0.437  -0.166   0.036
    1UNL     H7   29  -0.573  -0.059   0.018
    1UNL     H8   30  -0.202   0.139   0.083
    1UNL     H9   31  -0.328   0.088  -0.193
    1UNL    H10   32  -0.300   0.250  -0.112
    1UNL    H11   33  -0.068   0.249  -0.133
    1UNL    H12   34  -0.147   0.205  -0.287
    1UNL    H13   35   0.062   0.076  -0.236
    1UNL    H14   36  -0.113  -0.048  -0.388
    1UNL    H15   37  -0.006  -0.154  -0.277
    1UNL    H16   38  -0.169  -0.126  -0.242
    1UNL    H17   39   0.014   0.073   0.013
    1UNL    H18   40   0.054  -0.164   0.162
    1UNL    H19   41   0.225   0.071  -0.033
    1UNL    H20   42   0.189   0.266   0.093
    1UNL    H21   43   0.323   0.225   0.198
    1UNL    H22   44   0.335   0.284  -0.093
    1UNL    H23   45   0.484   0.046   0.019
    1UNL    H24   46   0.380  -0.023   0.265
    1UNL    H25   47   0.465  -0.208   0.026
    1UNL    H26   48   0.417  -0.074  -0.162
    1UNL    H27   49   0.285  -0.257   0.184
    1UNL    H28   50   0.195  -0.293  -0.076
    1UNL    H29   51  -0.139  -0.080   0.114
    1UNL    H30   52  -0.203  -0.139  -0.043
   0.00000   0.00000   0.00000   0.00000   0.00000   0.00000   0.00000   0.00000   0.00000
Generated with MDTraj, t= 39.0
 52
    1UNL     C1    1  -0.346   0.032   0.238
    1UNL     C2    2  -0.371   0.048   0.089
    1UNL     C3    3  -0.463  -0.069   0.026
    1UNL     C4    4  -0.242   0.077   0.017
    1UNL     C5    5  -0.266   0.126  -0.131
    1UNL     C6    6  -0.138   0.158  -0.212
    1UNL     C7    7  -0.041   0.039  -0.208
    1UNL     C8    8  -0.083  -0.084  -0.294
    1UNL     C9    9  -0.010  -0.002  -0.065
    1UNL     O1   10   0.087  -0.108  -0.065
    1UNL    C10   11   0.128  -0.131   0.062
    1UNL     O2   12   0.152  -0.005   0.124
    1UNL    C11   13   0.260   0.068   0.067
    1UNL    C12   14   0.269   0.218   0.100
    1UNL     O3   15   0.354   0.299   0.014
    1UNL    C13   16   0.391  -0.013   0.093
    1UNL     O4   17   0.415  -0.020   0.228
    1UNL    C14   18   0.382  -0.148   0.017
    1UNL     O5   19   0.372  -0.139  -0.125
    1UNL    C15   20   0.262  -0.222   0.078
    1UNL     O6   21   0.229  -0.338   0.005
    1UNL    C16   22  -0.141  -0.040   0.009
    1UNL     H1   23  -0.437   0.025   0.300
    1UNL     H2   24  -0.288  -0.065   0.258
    1UNL     H3   25  -0.287   0.115   0.282
    1UNL     H4   26  -0.435   0.140   0.078
    1UNL     H5   27  -0.508  -0.047  -0.070
    1UNL     H6   28  -0.406  -0.170   0.029
    1UNL     H7   29  -0.542  -0.079   0.089
    1UNL     H8   30  -0.197   0.166   0.071
    1UNL     H9   31  -0.314   0.051  -0.184
    1UNL    H10   32  -0.331   0.216  -0.124
    1UNL    H11   33  -0.098   0.242  -0.150
    1UNL    H12   34  -0.157   0.186  -0.310
    1UNL    H13   35   0.059   0.069  -0.249
    1UNL    H14   36  -0.044  -0.066  -0.399
    1UNL    H15   37  -0.049  -0.176  -0.241
    1UNL    H16   38  -0.192  -0.089  -0.306
    1UNL    H17   39   0.040   0.084  -0.012
    1UNL    H18   40   0.043  -0.172   0.118
    1UNL    H19   41   0.236   0.056  -0.035
    1UNL    H20   42   0.166   0.261   0.112
    1UNL    H21   43   0.309   0.218   0.204
    1UNL    H22   44   0.341   0.271  -0.084
    1UNL    H23   45   0.471   0.040   0.051
    1UNL    H24   46   0.329  -0.032   0.268
    1UNL    H25   47   0.475  -0.209   0.020
    1UNL    H26   48   0.442  -0.080  -0.154
    1UNL    H27   49   0.284  -0.243   0.184
    1UNL    H28   50   0.233  -0.302  -0.091
    1UNL    H29   51  -0.125  -0.072   0.111
    1UNL    H30   52  -0.190  -0.130  -0.045
   0.00000   0.00000   0.00000   0.00000   0.00000   0.00000   0.00000   0.00000   0.00000
Generated with MDTraj, t= 40.0
 52
    1UNL     C1    1  -0.312   0.071   0.239
    1UNL     C2    2  -0.364   0.069   0.102
    1UNL     C3    3  -0.449  -0.059   0.064
    1UNL     C4    4  -0.245   0.075   0.003
    1UNL     C5    5  -0.294   0.102  -0.147
    1UNL     C6    6  -0.167   0.134  -0.231
    1UNL     C7    7  -0.051   0.033  -0.234
    1UNL     C8    8  -0.085  -0.084  -0.326
    1UNL     C9    9  -0.018  -0.011  -0.080
    1UNL     O1   10   0.085  -0.111  -0.071
    1UNL    C10   11   0.132  -0.122   0.061
    1UNL     O2   12   0.152  -0.002   0.140
    1UNL    C11   13   0.254   0.075   0.076
    1UNL    C12   14   0.270   0.212   0.131
    1UNL     O3   15   0.348   0.287   0.037
    1UNL    C13   16   0.393  -0.007   0.101
    1UNL     O4   17   0.410  -0.039   0.239
    1UNL    C14   18   0.385  -0.145   0.022
    1UNL     O5   19   0.395  -0.146  -0.114
    1UNL    C15   20   0.257  -0.218   0.070
    1UNL     O6   21   0.243  -0.320  -0.027
    1UNL    C16   22  -0.144  -0.045   0.003
    1UNL     H1   23  -0.401   0.078   0.309
    1UNL     H2   24  -0.257  -0.025   0.265
    1UNL     H3   25  -0.250   0.159   0.253
    1UNL     H4   26  -0.431   0.159   0.084
    1UNL     H5   27  -0.512  -0.048  -0.024
    1UNL     H6   28  -0.383  -0.150   0.057
    1UNL     H7   29  -0.521  -0.084   0.142
    1UNL     H8   30  -0.194   0.172   0.019
    1UNL     H9   31  -0.338   0.012  -0.181
    1UNL    H10   32  -0.361   0.181  -0.164
    1UNL    H11   33  -0.130   0.231  -0.191
    1UNL    H12   34  -0.204   0.149  -0.328
    1UNL    H13   35   0.043   0.081  -0.269
    1UNL    H14   36  -0.157  -0.047  -0.400
    1UNL    H15   37   0.009  -0.133  -0.364
    1UNL    H16   38  -0.140  -0.165  -0.271
    1UNL    H17   39   0.036   0.072  -0.028
    1UNL    H18   40   0.043  -0.169   0.108
    1UNL    H19   41   0.230   0.076  -0.025
    1UNL    H20   42   0.169   0.263   0.139
    1UNL    H21   43   0.318   0.212   0.231
    1UNL    H22   44   0.331   0.268  -0.056
    1UNL    H23   45   0.484   0.046   0.086
    1UNL    H24   46   0.320  -0.051   0.281
    1UNL    H25   47   0.465  -0.212   0.057
    1UNL    H26   48   0.479  -0.098  -0.133
    1UNL    H27   49   0.273  -0.266   0.167
    1UNL    H28   50   0.223  -0.275  -0.115
    1UNL    H29   51  -0.120  -0.070   0.104
    1UNL    H30   52  -0.198  -0.139  -0.039
   0.00000   0.00000   0.00000   0.00000   0.00000   0.00000   0.00000   0.00000   0.00000
Generated with MDTraj, t= 41.0
 52
    1UNL     C1    1  -0.298   0.099   0.234
    1UNL     C2    2  -0.352   0.070   0.093
    1UNL     C3    3  -0.423  -0.066   0.094
    1UNL     C4    4  -0.242   0.084  -0.012
    1UNL     C5    5  -0.301   0.087  -0.158
    1UNL     C6    6  -0.185   0.122  -0.254
    1UNL     C7    7  -0.065   0.014  -0.239
    1UNL     C8    8  -0.084  -0.124  -0.294
    1UNL     C9    9  -0.017   0.002  -0.083
    1UNL     O1   10   0.087  -0.094  -0.082
    1UNL    C10   11   0.131  -0.121   0.048
    1UNL     O2   12   0.150  -0.007   0.127
    1UNL    C11   13   0.260   0.069   0.075
    1UNL    C12   14   0.258   0.208   0.140
    1UNL     O3   15   0.360   0.283   0.092
    1UNL    C13   16   0.384  -0.013   0.109
    1UNL     O4   17   0.400  -0.040   0.241
    1UNL    C14   18   0.389  -0.143   0.026
    1UNL     O5   19   0.390  -0.129  -0.113
    1UNL    C15   20   0.251  -0.221   0.054
    1UNL     O6   21   0.236  -0.313  -0.055
    1UNL    C16   22  -0.135  -0.020   0.007
    1UNL     H1   23  -0.383   0.103   0.312
    1UNL     H2   24  -0.223   0.025   0.271
    1UNL     H3   25  -0.257   0.200   0.228
    1UNL     H4   26  -0.430   0.151   0.079
    1UNL     H5   27  -0.443  -0.124   0.004
    1UNL     H6   28  -0.371  -0.128   0.164
    1UNL     H7   29  -0.529  -0.058   0.145
    1UNL     H8   30  -0.203   0.184   0.003
    1UNL     H9   31  -0.350  -0.004  -0.188
    1UNL    H10   32  -0.376   0.154  -0.146
    1UNL    H11   33  -0.156   0.227  -0.238
    1UNL    H12   34  -0.230   0.116  -0.355
    1UNL    H13   35   0.018   0.065  -0.291
    1UNL    H14   36  -0.043  -0.131  -0.393
    1UNL    H15   37  -0.040  -0.205  -0.226
    1UNL    H16   38  -0.189  -0.156  -0.315
    1UNL    H17   39   0.034   0.097  -0.064
    1UNL    H18   40   0.038  -0.164   0.091
    1UNL    H19   41   0.257   0.070  -0.030
    1UNL    H20   42   0.167   0.275   0.124
    1UNL    H21   43   0.277   0.196   0.248
    1UNL    H22   44   0.361   0.272  -0.002
    1UNL    H23   45   0.471   0.047   0.086
    1UNL    H24   46   0.308  -0.065   0.278
    1UNL    H25   47   0.472  -0.207   0.054
    1UNL    H26   48   0.474  -0.090  -0.150
    1UNL    H27   49   0.264  -0.281   0.145
    1UNL    H28   50   0.236  -0.259  -0.136
    1UNL    H29   51  -0.108  -0.022   0.112
    1UNL    H30   52  -0.178  -0.123  -0.012
   0.00000   0.00000   0.00000   0.00000   0.00000   0.00000   0.00000   0.00000   0.00000
Generated with MDTraj, t= 42.0
 52
    1UNL     C1    1  -0.306   0.139   0.220
    1UNL     C2    2  -0.352   0.073   0.096
    1UNL     C3    3  -0.401  -0.073   0.118
    1UNL     C4    4  -0.243   0.086  -0.015
    1UNL     C5    5  -0.298   0.082  -0.159
    1UNL     C6    6  -0.187   0.099  -0.262
    1UNL     C7    7  -0.073  -0.010  -0.252
    1UNL     C8    8  -0.115  -0.153  -0.275
    1UNL     C9    9  -0.006   0.008  -0.110
    1UNL     O1   10   0.097  -0.092  -0.103
    1UNL    C10   11   0.131  -0.123   0.031
    1UNL     O2   12   0.140  -0.005   0.110
    1UNL    C11   13   0.267   0.067   0.081
    1UNL    C12   14   0.263   0.195   0.172
    1UNL     O3   15   0.375   0.276   0.133
    1UNL    C13   16   0.391  -0.022   0.114
    1UNL     O4   17   0.392  -0.053   0.250
    1UNL    C14   18   0.379  -0.134   0.009
    1UNL     O5   19   0.376  -0.084  -0.118
    1UNL    C15   20   0.249  -0.213   0.045
    1UNL     O6   21   0.234  -0.316  -0.047
    1UNL    C16   22  -0.121  -0.011  -0.000
    1UNL     H1   23  -0.381   0.141   0.305
    1UNL     H2   24  -0.217   0.091   0.263
    1UNL     H3   25  -0.280   0.247   0.194
    1UNL     H4   26  -0.444   0.132   0.065
    1UNL     H5   27  -0.449  -0.119   0.029
    1UNL     H6   28  -0.322  -0.129   0.154
    1UNL     H7   29  -0.486  -0.078   0.199
    1UNL     H8   30  -0.202   0.185  -0.002
    1UNL     H9   31  -0.342  -0.016  -0.155
    1UNL    H10   32  -0.377   0.144  -0.181
    1UNL    H11   33  -0.147   0.199  -0.259
    1UNL    H12   34  -0.241   0.094  -0.363
    1UNL    H13   35   0.000   0.022  -0.327
    1UNL    H14   36  -0.212  -0.159  -0.321
    1UNL    H15   37  -0.037  -0.209  -0.337
    1UNL    H16   38  -0.114  -0.213  -0.179
    1UNL    H17   39   0.046   0.102  -0.115
    1UNL    H18   40   0.040  -0.172   0.072
    1UNL    H19   41   0.272   0.087  -0.023
    1UNL    H20   42   0.163   0.246   0.162
    1UNL    H21   43   0.281   0.172   0.277
    1UNL    H22   44   0.347   0.324   0.052
    1UNL    H23   45   0.484   0.034   0.100
    1UNL    H24   46   0.311  -0.099   0.266
    1UNL    H25   47   0.469  -0.195   0.016
    1UNL    H26   48   0.460  -0.031  -0.129
    1UNL    H27   49   0.270  -0.247   0.148
    1UNL    H28   50   0.220  -0.270  -0.137
    1UNL    H29   51  -0.066   0.005   0.094
    1UNL    H30   52  -0.153  -0.111   0.006
   0.00000   0.00000   0.00000   0.00000   0.00000   0.00000   0.00000   0.00000   0.00000
Generated with MDTraj, t= 43.0
 52
    1UNL     C1    1  -0.287   0.169   0.214
    1UNL     C2    2  -0.342   0.095   0.096
    1UNL     C3    3  -0.386  -0.055   0.127
    1UNL     C4    4  -0.244   0.097  -0.025
    1UNL     C5    5  -0.308   0.059  -0.162
    1UNL     C6    6  -0.208   0.066  -0.273
    1UNL     C7    7  -0.085  -0.030  -0.253
    1UNL     C8    8  -0.119  -0.176  -0.289
    1UNL     C9    9  -0.019   0.005  -0.118
    1UNL     O1   10   0.092  -0.083  -0.088
    1UNL    C10   11   0.126  -0.120   0.041
    1UNL     O2   12   0.143  -0.016   0.135
    1UNL    C11   13   0.257   0.065   0.091
    1UNL    C12   14   0.256   0.184   0.194
    1UNL     O3   15   0.371   0.276   0.168
    1UNL    C13   16   0.388  -0.008   0.110
    1UNL     O4   17   0.398  -0.066   0.240
    1UNL    C14   18   0.390  -0.125   0.007
    1UNL     O5   19   0.406  -0.089  -0.128
    1UNL    C15   20   0.254  -0.209   0.032
    1UNL     O6   21   0.229  -0.296  -0.076
    1UNL    C16   22  -0.124  -0.003  -0.004
    1UNL     H1   23  -0.349   0.172   0.305
    1UNL     H2   24  -0.197   0.115   0.248
    1UNL     H3   25  -0.255   0.277   0.183
    1UNL     H4   26  -0.439   0.144   0.068
    1UNL     H5   27  -0.453  -0.099   0.047
    1UNL     H6   28  -0.299  -0.118   0.146
    1UNL     H7   29  -0.450  -0.056   0.217
    1UNL     H8   30  -0.204   0.196  -0.037
    1UNL     H9   31  -0.359  -0.034  -0.169
    1UNL    H10   32  -0.387   0.129  -0.167
    1UNL    H11   33  -0.178   0.169  -0.285
    1UNL    H12   34  -0.254   0.037  -0.378
    1UNL    H13   35  -0.003  -0.005  -0.322
    1UNL    H14   36  -0.185  -0.172  -0.374
    1UNL    H15   37  -0.029  -0.237  -0.321
    1UNL    H16   38  -0.158  -0.224  -0.195
    1UNL    H17   39   0.033   0.098  -0.124
    1UNL    H18   40   0.038  -0.181   0.073
    1UNL    H19   41   0.244   0.096  -0.011
    1UNL    H20   42   0.161   0.241   0.174
    1UNL    H21   43   0.250   0.144   0.295
    1UNL    H22   44   0.356   0.331   0.082
    1UNL    H23   45   0.471   0.065   0.097
    1UNL    H24   46   0.313  -0.098   0.279
    1UNL    H25   47   0.468  -0.200   0.027
    1UNL    H26   48   0.490  -0.043  -0.143
    1UNL    H27   49   0.263  -0.278   0.119
    1UNL    H28   50   0.216  -0.246  -0.154
    1UNL    H29   51  -0.069   0.013   0.092
    1UNL    H30   52  -0.154  -0.101  -0.004
   0.00000   0.00000   0.00000   0.00000   0.00000   0.00000   0.00000   0.00000   0.00000
Generated with MDTraj, t= 44.0
 52
    1UNL     C1    1  -0.260   0.183   0.209
    1UNL     C2    2  -0.337   0.112   0.093
    1UNL     C3    3  -0.399  -0.018   0.142
    1UNL     C4    4  -0.240   0.089  -0.024
    1UNL     C5    5  -0.312   0.033  -0.151
    1UNL     C6    6  -0.226   0.051  -0.276
    1UNL     C7    7  -0.093  -0.031  -0.254
    1UNL     C8    8  -0.106  -0.183  -0.274
    1UNL     C9    9  -0.019   0.007  -0.117
    1UNL     O1   10   0.113  -0.050  -0.105
    1UNL    C10   11   0.132  -0.119   0.014
    1UNL     O2   12   0.139  -0.028   0.135
    1UNL    C11   13   0.250   0.057   0.103
    1UNL    C12   14   0.237   0.181   0.195
    1UNL     O3   15   0.344   0.271   0.176
    1UNL    C13   16   0.377  -0.017   0.116
    1UNL     O4   17   0.394  -0.064   0.241
    1UNL    C14   18   0.386  -0.135   0.009
    1UNL     O5   19   0.400  -0.087  -0.122
    1UNL    C15   20   0.260  -0.216   0.011
    1UNL     O6   21   0.257  -0.301  -0.095
    1UNL    C16   22  -0.116  -0.002   0.008
    1UNL     H1   23  -0.333   0.217   0.284
    1UNL     H2   24  -0.193   0.109   0.265
    1UNL     H3   25  -0.198   0.270   0.169
    1UNL     H4   26  -0.419   0.176   0.054
    1UNL     H5   27  -0.437  -0.096   0.068
    1UNL     H6   28  -0.331  -0.074   0.220
    1UNL     H7   29  -0.484   0.010   0.196
    1UNL     H8   30  -0.201   0.185  -0.046
    1UNL     H9   31  -0.336  -0.066  -0.130
    1UNL    H10   32  -0.408   0.077  -0.177
    1UNL    H11   33  -0.191   0.156  -0.293
    1UNL    H12   34  -0.284   0.024  -0.374
    1UNL    H13   35  -0.023  -0.001  -0.334
    1UNL    H14   36  -0.074  -0.218  -0.374
    1UNL    H15   37  -0.037  -0.234  -0.203
    1UNL    H16   38  -0.203  -0.220  -0.237
    1UNL    H17   39  -0.013   0.114  -0.126
    1UNL    H18   40   0.044  -0.185   0.023
    1UNL    H19   41   0.240   0.084  -0.004
    1UNL    H20   42   0.134   0.225   0.189
    1UNL    H21   43   0.255   0.143   0.294
    1UNL    H22   44   0.377   0.273   0.080
    1UNL    H23   45   0.466   0.050   0.096
    1UNL    H24   46   0.304  -0.100   0.275
    1UNL    H25   47   0.476  -0.198   0.035
    1UNL    H26   48   0.476  -0.026  -0.117
    1UNL    H27   49   0.251  -0.276   0.103
    1UNL    H28   50   0.265  -0.248  -0.181
    1UNL    H29   51  -0.065   0.042   0.097
    1UNL    H30   52  -0.151  -0.098   0.027
   0.00000   0.00000   0.00000   0.00000   0.00000   0.00000   0.00000   0.00000   0.00000
Generated with MDTraj, t= 45.0
 52
    1UNL     C1    1  -0.239   0.191   0.202
    1UNL     C2    2  -0.316   0.121   0.099
    1UNL     C3    3  -0.377  -0.008   0.151
    1UNL     C4    4  -0.231   0.105  -0.030
    1UNL     C5    5  -0.312   0.043  -0.146
    1UNL     C6    6  -0.221   0.035  -0.273
    1UNL     C7    7  -0.088  -0.044  -0.251
    1UNL     C8    8  -0.101  -0.200  -0.250
    1UNL     C9    9  -0.015   0.008  -0.122
    1UNL     O1   10   0.097  -0.080  -0.113
    1UNL    C10   11   0.127  -0.129   0.008
    1UNL     O2   12   0.134  -0.029   0.118
    1UNL    C11   13   0.248   0.061   0.102
    1UNL    C12   14   0.239   0.173   0.212
    1UNL     O3   15   0.310   0.284   0.174
    1UNL    C13   16   0.374  -0.020   0.128
    1UNL     O4   17   0.377  -0.083   0.258
    1UNL    C14   18   0.379  -0.129   0.011
    1UNL     O5   19   0.389  -0.062  -0.117
    1UNL    C15   20   0.257  -0.221   0.001
    1UNL     O6   21   0.267  -0.290  -0.120
    1UNL    C16   22  -0.108   0.010  -0.000
    1UNL     H1   23  -0.311   0.216   0.285
    1UNL     H2   24  -0.151   0.130   0.247
    1UNL     H3   25  -0.198   0.284   0.160
    1UNL     H4   26  -0.399   0.187   0.071
    1UNL     H5   27  -0.455  -0.045   0.077
    1UNL     H6   28  -0.302  -0.097   0.156
    1UNL     H7   29  -0.430  -0.002   0.243
    1UNL     H8   30  -0.193   0.202  -0.053
    1UNL     H9   31  -0.348  -0.052  -0.133
    1UNL    H10   32  -0.396   0.109  -0.164
    1UNL    H11   33  -0.192   0.145  -0.303
    1UNL    H12   34  -0.268  -0.014  -0.367
    1UNL    H13   35  -0.019  -0.021  -0.334
    1UNL    H14   36  -0.188  -0.239  -0.311
    1UNL    H15   37  -0.025  -0.264  -0.298
    1UNL    H16   38  -0.103  -0.240  -0.149
    1UNL    H17   39   0.026   0.110  -0.125
    1UNL    H18   40   0.050  -0.206   0.026
    1UNL    H19   41   0.243   0.107  -0.001
    1UNL    H20   42   0.134   0.204   0.223
    1UNL    H21   43   0.280   0.138   0.304
    1UNL    H22   44   0.292   0.305   0.082
    1UNL    H23   45   0.464   0.048   0.114
    1UNL    H24   46   0.291  -0.126   0.266
    1UNL    H25   47   0.472  -0.190   0.025
    1UNL    H26   48   0.457   0.010  -0.115
    1UNL    H27   49   0.253  -0.300   0.080
    1UNL    H28   50   0.312  -0.232  -0.186
    1UNL    H29   51  -0.052   0.042   0.088
    1UNL    H30   52  -0.152  -0.088   0.018
   0.00000   0.00000   0.00000   0.00000   0.00000   0.00000   0.00000   0.00000   0.00000
Generated with MDTraj, t= 46.0
 52
    1UNL     C1    1  -0.215   0.208   0.201
    1UNL     C2    2  -0.307   0.128   0.101
    1UNL     C3    3  -0.352  -0.008   0.161
    1UNL     C4    4  -0.227   0.105  -0.027
    1UNL     C5    5  -0.304   0.060  -0.147
    1UNL     C6    6  -0.212   0.036  -0.275
    1UNL     C7    7  -0.094  -0.059  -0.256
    1UNL     C8    8  -0.139  -0.204  -0.238
    1UNL     C9    9  -0.020  -0.002  -0.128
    1UNL     O1   10   0.104  -0.074  -0.116
    1UNL    C10   11   0.126  -0.138   0.002
    1UNL     O2   12   0.121  -0.046   0.111
    1UNL    C11   13   0.229   0.048   0.110
    1UNL    C12   14   0.202   0.169   0.208
    1UNL     O3   15   0.290   0.279   0.176
    1UNL    C13   16   0.364  -0.020   0.122
    1UNL     O4   17   0.375  -0.095   0.253
    1UNL    C14   18   0.388  -0.113   0.002
    1UNL     O5   19   0.429  -0.036  -0.116
    1UNL    C15   20   0.262  -0.214   0.003
    1UNL     O6   21   0.274  -0.296  -0.111
    1UNL    C16   22  -0.111   0.008   0.001
    1UNL     H1   23  -0.272   0.222   0.301
    1UNL     H2   24  -0.116   0.161   0.228
    1UNL     H3   25  -0.187   0.308   0.167
    1UNL     H4   26  -0.397   0.182   0.072
    1UNL     H5   27  -0.417  -0.068   0.089
    1UNL     H6   28  -0.263  -0.067   0.173
    1UNL     H7   29  -0.406   0.004   0.258
    1UNL     H8   30  -0.172   0.193  -0.046
    1UNL     H9   31  -0.347  -0.032  -0.125
    1UNL    H10   32  -0.382   0.128  -0.181
    1UNL    H11   33  -0.166   0.135  -0.327
    1UNL    H12   34  -0.280  -0.012  -0.355
    1UNL    H13   35  -0.025  -0.054  -0.342
    1UNL    H14   36  -0.108  -0.265  -0.329
    1UNL    H15   37  -0.094  -0.256  -0.156
    1UNL    H16   38  -0.246  -0.202  -0.210
    1UNL    H17   39   0.024   0.101  -0.147
    1UNL    H18   40   0.049  -0.215   0.012
    1UNL    H19   41   0.215   0.093   0.005
    1UNL    H20   42   0.101   0.210   0.193
    1UNL    H21   43   0.214   0.143   0.309
    1UNL    H22   44   0.298   0.279   0.082
    1UNL    H23   45   0.444   0.061   0.126
    1UNL    H24   46   0.292  -0.144   0.271
    1UNL    H25   47   0.477  -0.173   0.034
    1UNL    H26   48   0.507   0.025  -0.105
    1UNL    H27   49   0.264  -0.284   0.090
    1UNL    H28   50   0.316  -0.250  -0.185
    1UNL    H29   51  -0.061   0.037   0.088
    1UNL    H30   52  -0.149  -0.097   0.018
   0.00000   0.00000   0.00000   0.00000   0.00000   0.00000   0.00000   0.00000   0.00000
Generated with MDTraj, t= 47.0
 52
    1UNL     C1    1  -0.228   0.227   0.201
    1UNL     C2    2  -0.295   0.132   0.100
    1UNL     C3    3  -0.350   0.009   0.169
    1UNL     C4    4  -0.210   0.103  -0.026
    1UNL     C5    5  -0.299   0.046  -0.138
    1UNL     C6    6  -0.214   0.041  -0.269
    1UNL     C7    7  -0.102  -0.058  -0.246
    1UNL     C8    8  -0.147  -0.208  -0.252
    1UNL     C9    9  -0.016  -0.009  -0.126
    1UNL     O1   10   0.101  -0.089  -0.127
    1UNL    C10   11   0.135  -0.155  -0.001
    1UNL     O2   12   0.122  -0.057   0.110
    1UNL    C11   13   0.219   0.044   0.105
    1UNL    C12   14   0.183   0.162   0.198
    1UNL     O3   15   0.283   0.267   0.197
    1UNL    C13   16   0.360  -0.013   0.119
    1UNL     O4   17   0.370  -0.068   0.251
    1UNL    C14   18   0.387  -0.112   0.008
    1UNL     O5   19   0.422  -0.044  -0.107
    1UNL    C15   20   0.276  -0.220  -0.006
    1UNL     O6   21   0.290  -0.290  -0.124
    1UNL    C16   22  -0.093   0.012   0.004
    1UNL     H1   23  -0.301   0.272   0.279
    1UNL     H2   24  -0.142   0.178   0.250
    1UNL     H3   25  -0.181   0.312   0.145
    1UNL     H4   26  -0.382   0.185   0.061
    1UNL     H5   27  -0.373  -0.065   0.092
    1UNL     H6   28  -0.280  -0.037   0.229
    1UNL     H7   29  -0.452   0.036   0.225
    1UNL     H8   30  -0.162   0.191  -0.060
    1UNL     H9   31  -0.324  -0.056  -0.119
    1UNL    H10   32  -0.387   0.107  -0.146
    1UNL    H11   33  -0.173   0.149  -0.292
    1UNL    H12   34  -0.269   0.013  -0.369
    1UNL    H13   35  -0.041  -0.047  -0.339
    1UNL    H14   36  -0.240  -0.200  -0.316
    1UNL    H15   37  -0.089  -0.276  -0.311
    1UNL    H16   38  -0.165  -0.241  -0.149
    1UNL    H17   39   0.023   0.093  -0.163
    1UNL    H18   40   0.056  -0.227   0.021
    1UNL    H19   41   0.211   0.082  -0.005
    1UNL    H20   42   0.083   0.206   0.194
    1UNL    H21   43   0.199   0.132   0.297
    1UNL    H22   44   0.302   0.298   0.104
    1UNL    H23   45   0.435   0.069   0.099
    1UNL    H24   46   0.279  -0.109   0.272
    1UNL    H25   47   0.478  -0.168   0.039
    1UNL    H26   48   0.490   0.027  -0.093
    1UNL    H27   49   0.273  -0.292   0.079
    1UNL    H28   50   0.282  -0.229  -0.204
    1UNL    H29   51  -0.031   0.058   0.074
    1UNL    H30   52  -0.133  -0.081   0.056
   0.00000   0.00000   0.00000   0.00000   0.00000   0.00000   0.00000   0.00000   0.00000
Generated with MDTraj, t= 48.0
 52
    1UNL     C1    1  -0.215   0.222   0.187
    1UNL     C2    2  -0.310   0.135   0.101
    1UNL     C3    3  -0.346   0.009   0.173
    1UNL     C4    4  -0.224   0.106  -0.030
    1UNL     C5    5  -0.311   0.059  -0.153
    1UNL     C6    6  -0.226   0.027  -0.276
    1UNL     C7    7  -0.100  -0.050  -0.250
    1UNL     C8    8  -0.117  -0.205  -0.245
    1UNL     C9    9  -0.020  -0.005  -0.127
    1UNL     O1   10   0.109  -0.073  -0.117
    1UNL    C10   11   0.137  -0.143   0.005
    1UNL     O2   12   0.135  -0.054   0.119
    1UNL    C11   13   0.229   0.048   0.109
    1UNL    C12   14   0.210   0.150   0.213
    1UNL     O3   15   0.277   0.275   0.198
    1UNL    C13   16   0.366  -0.013   0.122
    1UNL     O4   17   0.377  -0.077   0.253
    1UNL    C14   18   0.385  -0.119   0.013
    1UNL     O5   19   0.385  -0.052  -0.115
    1UNL    C15   20   0.268  -0.222  -0.005
    1UNL     O6   21   0.294  -0.291  -0.131
    1UNL    C16   22  -0.111   0.002  -0.005
    1UNL     H1   23  -0.266   0.269   0.277
    1UNL     H2   24  -0.132   0.154   0.215
    1UNL     H3   25  -0.159   0.305   0.127
    1UNL     H4   26  -0.398   0.194   0.078
    1UNL     H5   27  -0.421  -0.047   0.123
    1UNL     H6   28  -0.266  -0.062   0.185
    1UNL     H7   29  -0.393   0.038   0.274
    1UNL     H8   30  -0.173   0.193  -0.065
    1UNL     H9   31  -0.370  -0.028  -0.123
    1UNL    H10   32  -0.382   0.134  -0.180
    1UNL    H11   33  -0.201   0.114  -0.342
    1UNL    H12   34  -0.292  -0.037  -0.353
    1UNL    H13   35  -0.033  -0.019  -0.336
    1UNL    H14   36  -0.111  -0.247  -0.347
    1UNL    H15   37  -0.042  -0.261  -0.191
    1UNL    H16   38  -0.211  -0.234  -0.198
    1UNL    H17   39   0.015   0.101  -0.153
    1UNL    H18   40   0.056  -0.216   0.018
    1UNL    H19   41   0.207   0.096   0.004
    1UNL    H20   42   0.103   0.178   0.211
    1UNL    H21   43   0.230   0.113   0.308
    1UNL    H22   44   0.266   0.315   0.102
    1UNL    H23   45   0.441   0.067   0.106
    1UNL    H24   46   0.291  -0.114   0.277
    1UNL    H25   47   0.480  -0.170   0.036
    1UNL    H26   48   0.443   0.025  -0.107
    1UNL    H27   49   0.262  -0.306   0.066
    1UNL    H28   50   0.314  -0.229  -0.201
    1UNL    H29   51  -0.062   0.014   0.094
    1UNL    H30   52  -0.155  -0.102   0.010
   0.00000   0.00000   0.00000   0.00000   0.00000   0.00000   0.00000   0.00000   0.00000
Generated with MDTraj, t= 49.0
 52
    1UNL     C1    1  -0.230   0.216   0.186
    1UNL     C2    2  -0.315   0.130   0.088
    1UNL     C3    3  -0.373   0.001   0.159
    1UNL     C4    4  -0.231   0.103  -0.037
    1UNL     C5    5  -0.308   0.027  -0.145
    1UNL     C6    6  -0.222   0.019  -0.272
    1UNL     C7    7  -0.091  -0.052  -0.252
    1UNL     C8    8  -0.118  -0.202  -0.241
    1UNL     C9    9  -0.006   0.011  -0.134
    1UNL     O1   10   0.120  -0.064  -0.107
    1UNL    C10   11   0.133  -0.134   0.016
    1UNL     O2   12   0.132  -0.046   0.132
    1UNL    C11   13   0.234   0.049   0.119
    1UNL    C12   14   0.223   0.159   0.222
    1UNL     O3   15   0.289   0.276   0.199
    1UNL    C13   16   0.375  -0.022   0.115
    1UNL     O4   17   0.385  -0.095   0.239
    1UNL    C14   18   0.382  -0.124  -0.000
    1UNL     O5   19   0.395  -0.044  -0.126
    1UNL    C15   20   0.258  -0.217   0.000
    1UNL     O6   21   0.258  -0.290  -0.119
    1UNL    C16   22  -0.098   0.027  -0.010
    1UNL     H1   23  -0.290   0.245   0.275
    1UNL     H2   24  -0.144   0.154   0.225
    1UNL     H3   25  -0.177   0.315   0.151
    1UNL     H4   26  -0.397   0.194   0.059
    1UNL     H5   27  -0.441  -0.055   0.099
    1UNL     H6   28  -0.291  -0.074   0.184
    1UNL     H7   29  -0.427   0.031   0.243
    1UNL     H8   30  -0.216   0.197  -0.086
    1UNL     H9   31  -0.325  -0.073  -0.100
    1UNL    H10   32  -0.403   0.069  -0.162
    1UNL    H11   33  -0.205   0.125  -0.299
    1UNL    H12   34  -0.267  -0.020  -0.374
    1UNL    H13   35  -0.020  -0.028  -0.337
    1UNL    H14   36  -0.190  -0.240  -0.312
    1UNL    H15   37  -0.029  -0.262  -0.263
    1UNL    H16   38  -0.147  -0.232  -0.141
    1UNL    H17   39   0.027   0.115  -0.158
    1UNL    H18   40   0.054  -0.211   0.023
    1UNL    H19   41   0.203   0.094   0.017
    1UNL    H20   42   0.114   0.176   0.239
    1UNL    H21   43   0.262   0.121   0.311
    1UNL    H22   44   0.277   0.301   0.103
    1UNL    H23   45   0.459   0.046   0.098
    1UNL    H24   46   0.298  -0.124   0.268
    1UNL    H25   47   0.470  -0.186   0.012
    1UNL    H26   48   0.467   0.023  -0.123
    1UNL    H27   49   0.276  -0.283   0.086
    1UNL    H28   50   0.245  -0.221  -0.192
    1UNL    H29   51  -0.033   0.076   0.072
    1UNL    H30   52  -0.113  -0.072   0.042
   0.00000   0.00000   0.00000   0.00000   0.00000   0.00000   0.00000   0.00000   0.00000
Generated with MDTraj, t= 50.0
 52
    1UNL     C1    1  -0.276   0.211   0.201
    1UNL     C2    2  -0.327   0.123   0.090
    1UNL     C3    3  -0.388  -0.003   0.148
    1UNL     C4    4  -0.231   0.103  -0.034
    1UNL     C5    5  -0.314   0.037  -0.149
    1UNL     C6    6  -0.225   0.010  -0.273
    1UNL     C7    7  -0.087  -0.062  -0.248
    1UNL     C8    8  -0.108  -0.214  -0.217
    1UNL     C9    9  -0.012   0.012  -0.132
    1UNL     O1   10   0.121  -0.034  -0.114
    1UNL    C10   11   0.126  -0.124  -0.001
    1UNL     O2   12   0.126  -0.042   0.118
    1UNL    C11   13   0.234   0.047   0.117
    1UNL    C12   14   0.233   0.164   0.217
    1UNL     O3   15   0.331   0.259   0.199
    1UNL    C13   16   0.375  -0.024   0.116
    1UNL     O4   17   0.395  -0.094   0.238
    1UNL    C14   18   0.392  -0.122   0.005
    1UNL     O5   19   0.421  -0.056  -0.122
    1UNL    C15   20   0.259  -0.212   0.000
    1UNL     O6   21   0.242  -0.284  -0.119
    1UNL    C16   22  -0.098   0.031  -0.007
    1UNL     H1   23  -0.352   0.219   0.283
    1UNL     H2   24  -0.175   0.181   0.248
    1UNL     H3   25  -0.259   0.318   0.167
    1UNL     H4   26  -0.411   0.184   0.055
    1UNL     H5   27  -0.407  -0.068   0.065
    1UNL     H6   28  -0.304  -0.054   0.205
    1UNL     H7   29  -0.472   0.012   0.201
    1UNL     H8   30  -0.219   0.203  -0.073
    1UNL     H9   31  -0.366  -0.054  -0.112
    1UNL    H10   32  -0.389   0.106  -0.175
    1UNL    H11   33  -0.210   0.100  -0.334
    1UNL    H12   34  -0.287  -0.049  -0.345
    1UNL    H13   35  -0.015  -0.043  -0.334
    1UNL    H14   36  -0.177  -0.253  -0.287
    1UNL    H15   37  -0.015  -0.276  -0.227
    1UNL    H16   38  -0.144  -0.216  -0.115
    1UNL    H17   39  -0.004   0.115  -0.166
    1UNL    H18   40   0.040  -0.192   0.006
    1UNL    H19   41   0.219   0.106   0.020
    1UNL    H20   42   0.130   0.210   0.228
    1UNL    H21   43   0.253   0.118   0.309
    1UNL    H22   44   0.338   0.300   0.114
    1UNL    H23   45   0.444   0.058   0.106
    1UNL    H24   46   0.308  -0.129   0.273
    1UNL    H25   47   0.468  -0.195   0.031
    1UNL    H26   48   0.508  -0.005  -0.121
    1UNL    H27   49   0.256  -0.280   0.086
    1UNL    H28   50   0.273  -0.220  -0.186
    1UNL    H29   51  -0.034   0.078   0.080
    1UNL    H30   52  -0.120  -0.070   0.032
   0.00000   0.00000   0.00000   0.00000   0.00000   0.00000   0.00000   0.00000   0.00000
Generated with MDTraj, t= 51.0
 52
    1UNL     C1    1  -0.272   0.212   0.173
    1UNL     C2    2  -0.341   0.106   0.079
    1UNL     C3    3  -0.372  -0.019   0.157
    1UNL     C4    4  -0.248   0.089  -0.041
    1UNL     C5    5  -0.322   0.034  -0.161
    1UNL     C6    6  -0.236   0.013  -0.285
    1UNL     C7    7  -0.100  -0.057  -0.256
    1UNL     C8    8  -0.124  -0.199  -0.211
    1UNL     C9    9  -0.024   0.016  -0.130
    1UNL     O1   10   0.105  -0.048  -0.113
    1UNL    C10   11   0.128  -0.115   0.013
    1UNL     O2   12   0.151  -0.027   0.129
    1UNL    C11   13   0.256   0.063   0.118
    1UNL    C12   14   0.254   0.170   0.220
    1UNL     O3   15   0.370   0.258   0.210
    1UNL    C13   16   0.387  -0.026   0.127
    1UNL     O4   17   0.382  -0.099   0.257
    1UNL    C14   18   0.386  -0.127   0.008
    1UNL     O5   19   0.414  -0.068  -0.117
    1UNL    C15   20   0.253  -0.206  -0.003
    1UNL     O6   21   0.252  -0.258  -0.137
    1UNL    C16   22  -0.118   0.016  -0.009
    1UNL     H1   23  -0.353   0.251   0.245
    1UNL     H2   24  -0.184   0.171   0.234
    1UNL     H3   25  -0.231   0.299   0.119
    1UNL     H4   26  -0.433   0.159   0.048
    1UNL     H5   27  -0.438  -0.085   0.104
    1UNL     H6   28  -0.280  -0.076   0.165
    1UNL     H7   29  -0.418   0.000   0.252
    1UNL     H8   30  -0.223   0.190  -0.072
    1UNL     H9   31  -0.355  -0.066  -0.124
    1UNL    H10   32  -0.406   0.094  -0.178
    1UNL    H11   33  -0.216   0.111  -0.333
    1UNL    H12   34  -0.294  -0.036  -0.356
    1UNL    H13   35  -0.034  -0.053  -0.348
    1UNL    H14   36  -0.132  -0.265  -0.294
    1UNL    H15   37  -0.035  -0.235  -0.153
    1UNL    H16   38  -0.210  -0.199  -0.146
    1UNL    H17   39  -0.007   0.118  -0.157
    1UNL    H18   40   0.044  -0.177   0.048
    1UNL    H19   41   0.246   0.107   0.017
    1UNL    H20   42   0.154   0.226   0.199
    1UNL    H21   43   0.244   0.132   0.318
    1UNL    H22   44   0.365   0.318   0.135
    1UNL    H23   45   0.477   0.035   0.120
    1UNL    H24   46   0.286  -0.124   0.272
    1UNL    H25   47   0.459  -0.209   0.020
    1UNL    H26   48   0.495  -0.017  -0.097
    1UNL    H27   49   0.241  -0.291   0.066
    1UNL    H28   50   0.226  -0.187  -0.199
    1UNL    H29   51  -0.066   0.070   0.080
    1UNL    H30   52  -0.135  -0.091   0.019
   0.00000   0.00000   0.00000   0.00000   0.00000   0.00000   0.00000   0.00000   0.00000
Generated with MDTraj, t= 52.0
 52
    1UNL     C1    1  -0.289   0.223   0.177
    1UNL     C2    2  -0.335   0.108   0.087
    1UNL     C3    3  -0.375  -0.021   0.161
    1UNL     C4    4  -0.241   0.098  -0.038
    1UNL     C5    5  -0.317   0.010  -0.147
    1UNL     C6    6  -0.248   0.005  -0.282
    1UNL     C7    7  -0.103  -0.057  -0.254
    1UNL     C8    8  -0.103  -0.208  -0.234
    1UNL     C9    9  -0.028   0.024  -0.139
    1UNL     O1   10   0.106  -0.034  -0.118
    1UNL    C10   11   0.138  -0.099   0.009
    1UNL     O2   12   0.145  -0.013   0.124
    1UNL    C11   13   0.261   0.059   0.123
    1UNL    C12   14   0.265   0.173   0.220
    1UNL     O3   15   0.381   0.251   0.208
    1UNL    C13   16   0.384  -0.037   0.134
    1UNL     O4   17   0.358  -0.114   0.253
    1UNL    C14   18   0.389  -0.128   0.001
    1UNL     O5   19   0.403  -0.054  -0.118
    1UNL    C15   20   0.254  -0.199  -0.002
    1UNL     O6   21   0.250  -0.282  -0.119
    1UNL    C16   22  -0.107   0.029  -0.012
    1UNL     H1   23  -0.365   0.230   0.266
    1UNL     H2   24  -0.189   0.194   0.221
    1UNL     H3   25  -0.276   0.322   0.129
    1UNL     H4   26  -0.431   0.148   0.045
    1UNL     H5   27  -0.416  -0.091   0.094
    1UNL     H6   28  -0.301  -0.070   0.208
    1UNL     H7   29  -0.463   0.002   0.230
    1UNL     H8   30  -0.218   0.193  -0.088
    1UNL     H9   31  -0.331  -0.093  -0.110
    1UNL    H10   32  -0.412   0.053  -0.164
    1UNL    H11   33  -0.247   0.102  -0.331
    1UNL    H12   34  -0.297  -0.058  -0.346
    1UNL    H13   35  -0.043  -0.032  -0.344
    1UNL    H14   36  -0.141  -0.261  -0.319
    1UNL    H15   37  -0.001  -0.247  -0.235
    1UNL    H16   38  -0.144  -0.246  -0.141
    1UNL    H17   39  -0.003   0.123  -0.176
    1UNL    H18   40   0.055  -0.166   0.039
    1UNL    H19   41   0.263   0.094   0.021
    1UNL    H20   42   0.173   0.246   0.222
    1UNL    H21   43   0.270   0.134   0.319
    1UNL    H22   44   0.372   0.315   0.128
    1UNL    H23   45   0.478   0.014   0.153
    1UNL    H24   46   0.265  -0.137   0.260
    1UNL    H25   47   0.470  -0.203   0.005
    1UNL    H26   48   0.483   0.001  -0.123
    1UNL    H27   49   0.254  -0.262   0.089
    1UNL    H28   50   0.243  -0.223  -0.201
    1UNL    H29   51  -0.044   0.077   0.068
    1UNL    H30   52  -0.130  -0.080   0.009
   0.00000   0.00000   0.00000   0.00000   0.00000   0.00000   0.00000   0.00000   0.00000
Generated with MDTraj, t= 53.0
 52
    1UNL     C1    1  -0.278   0.224   0.180
    1UNL     C2    2  -0.338   0.114   0.091
    1UNL     C3    3  -0.355  -0.014   0.166
    1UNL     C4    4  -0.243   0.092  -0.033
    1UNL     C5    5  -0.317   0.007  -0.148
    1UNL     C6    6  -0.232  -0.005  -0.278
    1UNL     C7    7  -0.081  -0.058  -0.255
    1UNL     C8    8  -0.083  -0.208  -0.232
    1UNL     C9    9  -0.017   0.021  -0.141
    1UNL     O1   10   0.119  -0.014  -0.107
    1UNL    C10   11   0.120  -0.107   0.009
    1UNL     O2   12   0.133  -0.035   0.131
    1UNL    C11   13   0.243   0.055   0.117
    1UNL    C12   14   0.248   0.170   0.216
    1UNL     O3   15   0.362   0.243   0.204
    1UNL    C13   16   0.371  -0.029   0.131
    1UNL     O4   17   0.370  -0.099   0.250
    1UNL    C14   18   0.378  -0.123   0.004
    1UNL     O5   19   0.415  -0.071  -0.126
    1UNL    C15   20   0.241  -0.195  -0.005
    1UNL     O6   21   0.222  -0.265  -0.132
    1UNL    C16   22  -0.101   0.026  -0.005
    1UNL     H1   23  -0.326   0.245   0.282
    1UNL     H2   24  -0.172   0.196   0.200
    1UNL     H3   25  -0.267   0.326   0.130
    1UNL     H4   26  -0.439   0.148   0.052
    1UNL     H5   27  -0.375  -0.092   0.101
    1UNL     H6   28  -0.272  -0.039   0.223
    1UNL     H7   29  -0.447   0.002   0.232
    1UNL     H8   30  -0.224   0.193  -0.072
    1UNL     H9   31  -0.343  -0.094  -0.114
    1UNL    H10   32  -0.408   0.059  -0.176
    1UNL    H11   33  -0.223   0.092  -0.313
    1UNL    H12   34  -0.279  -0.063  -0.350
    1UNL    H13   35  -0.028  -0.035  -0.347
    1UNL    H14   36  -0.133  -0.262  -0.314
    1UNL    H15   37   0.017  -0.243  -0.241
    1UNL    H16   38  -0.116  -0.237  -0.133
    1UNL    H17   39  -0.016   0.121  -0.190
    1UNL    H18   40   0.035  -0.178   0.009
    1UNL    H19   41   0.237   0.098   0.021
    1UNL    H20   42   0.163   0.251   0.202
    1UNL    H21   43   0.244   0.144   0.320
    1UNL    H22   44   0.379   0.264   0.104
    1UNL    H23   45   0.450   0.047   0.147
    1UNL    H24   46   0.275  -0.132   0.264
    1UNL    H25   47   0.457  -0.197   0.030
    1UNL    H26   48   0.504  -0.028  -0.136
    1UNL    H27   49   0.250  -0.267   0.080
    1UNL    H28   50   0.281  -0.223  -0.194
    1UNL    H29   51  -0.044   0.096   0.056
    1UNL    H30   52  -0.111  -0.075   0.047
   0.00000   0.00000   0.00000   0.00000   0.00000   0.00000   0.00000   0.00000   0.00000
Generated with MDTraj, t= 54.0
 52
    1UNL     C1    1  -0.278   0.232   0.173
    1UNL     C2    2  -0.329   0.114   0.084
    1UNL     C3    3  -0.353  -0.011   0.176
    1UNL     C4    4  -0.244   0.104  -0.049
    1UNL     C5    5  -0.323   0.019  -0.147
    1UNL     C6    6  -0.238   0.016  -0.275
    1UNL     C7    7  -0.096  -0.056  -0.250
    1UNL     C8    8  -0.111  -0.209  -0.217
    1UNL     C9    9  -0.016   0.017  -0.140
    1UNL     O1   10   0.111  -0.051  -0.119
    1UNL    C10   11   0.136  -0.121   0.006
    1UNL     O2   12   0.142  -0.039   0.116
    1UNL    C11   13   0.255   0.055   0.120
    1UNL    C12   14   0.246   0.155   0.239
    1UNL     O3   15   0.323   0.278   0.210
    1UNL    C13   16   0.389  -0.033   0.130
    1UNL     O4   17   0.385  -0.097   0.252
    1UNL    C14   18   0.387  -0.140   0.003
    1UNL     O5   19   0.413  -0.065  -0.119
    1UNL    C15   20   0.255  -0.210  -0.006
    1UNL     O6   21   0.247  -0.271  -0.139
    1UNL    C16   22  -0.110   0.040  -0.019
    1UNL     H1   23  -0.350   0.273   0.248
    1UNL     H2   24  -0.186   0.203   0.229
    1UNL     H3   25  -0.248   0.322   0.106
    1UNL     H4   26  -0.433   0.142   0.047
    1UNL     H5   27  -0.399  -0.090   0.125
    1UNL     H6   28  -0.251  -0.049   0.205
    1UNL     H7   29  -0.410   0.010   0.267
    1UNL     H8   30  -0.238   0.209  -0.088
    1UNL     H9   31  -0.341  -0.079  -0.106
    1UNL    H10   32  -0.422   0.065  -0.174
    1UNL    H11   33  -0.219   0.111  -0.303
    1UNL    H12   34  -0.289  -0.041  -0.347
    1UNL    H13   35  -0.043  -0.048  -0.342
    1UNL    H14   36  -0.161  -0.259  -0.304
    1UNL    H15   37  -0.014  -0.247  -0.217
    1UNL    H16   38  -0.152  -0.224  -0.118
    1UNL    H17   39   0.011   0.119  -0.180
    1UNL    H18   40   0.043  -0.179   0.022
    1UNL    H19   41   0.247   0.106   0.030
    1UNL    H20   42   0.131   0.180   0.251
    1UNL    H21   43   0.274   0.108   0.332
    1UNL    H22   44   0.287   0.311   0.126
    1UNL    H23   45   0.483   0.029   0.130
    1UNL    H24   46   0.291  -0.130   0.263
    1UNL    H25   47   0.467  -0.217   0.008
    1UNL    H26   48   0.498  -0.015  -0.101
    1UNL    H27   49   0.233  -0.293   0.066
    1UNL    H28   50   0.243  -0.191  -0.203
    1UNL    H29   51  -0.050   0.091   0.053
    1UNL    H30   52  -0.136  -0.058   0.029
   0.00000   0.00000   0.00000   0.00000   0.00000   0.00000   0.00000   0.00000   0.00000
Generated with MDTraj, t= 55.0
 52
    1UNL     C1    1  -0.255   0.241   0.178
    1UNL     C2    2  -0.326   0.137   0.092
    1UNL     C3    3  -0.355   0.013   0.172
    1UNL     C4    4  -0.235   0.104  -0.031
    1UNL     C5    5  -0.318   0.053  -0.155
    1UNL     C6    6  -0.225   0.015  -0.277
    1UNL     C7    7  -0.096  -0.072  -0.247
    1UNL     C8    8  -0.113  -0.215  -0.205
    1UNL     C9    9  -0.020   0.004  -0.132
    1UNL     O1   10   0.114  -0.054  -0.120
    1UNL    C10   11   0.135  -0.136   0.004
    1UNL     O2   12   0.131  -0.046   0.118
    1UNL    C11   13   0.237   0.045   0.115
    1UNL    C12   14   0.221   0.149   0.230
    1UNL     O3   15   0.297   0.266   0.202
    1UNL    C13   16   0.368  -0.031   0.126
    1UNL     O4   17   0.385  -0.103   0.240
    1UNL    C14   18   0.392  -0.122  -0.001
    1UNL     O5   19   0.404  -0.040  -0.117
    1UNL    C15   20   0.275  -0.210  -0.014
    1UNL     O6   21   0.281  -0.286  -0.141
    1UNL    C16   22  -0.114   0.017  -0.001
    1UNL     H1   23  -0.322   0.256   0.264
    1UNL     H2   24  -0.155   0.201   0.217
    1UNL     H3   25  -0.239   0.341   0.122
    1UNL     H4   26  -0.425   0.179   0.055
    1UNL     H5   27  -0.394  -0.062   0.101
    1UNL     H6   28  -0.252  -0.032   0.199
    1UNL     H7   29  -0.415   0.011   0.256
    1UNL     H8   30  -0.194   0.205  -0.062
    1UNL     H9   31  -0.370  -0.036  -0.128
    1UNL    H10   32  -0.401   0.128  -0.184
    1UNL    H11   33  -0.189   0.098  -0.325
    1UNL    H12   34  -0.279  -0.049  -0.341
    1UNL    H13   35  -0.031  -0.074  -0.332
    1UNL    H14   36  -0.129  -0.277  -0.296
    1UNL    H15   37  -0.020  -0.252  -0.172
    1UNL    H16   38  -0.185  -0.229  -0.127
    1UNL    H17   39   0.007   0.110  -0.160
    1UNL    H18   40   0.050  -0.207   0.016
    1UNL    H19   41   0.235   0.094   0.022
    1UNL    H20   42   0.111   0.183   0.253
    1UNL    H21   43   0.253   0.100   0.321
    1UNL    H22   44   0.283   0.307   0.118
    1UNL    H23   45   0.455   0.041   0.134
    1UNL    H24   46   0.302  -0.142   0.268
    1UNL    H25   47   0.487  -0.179  -0.001
    1UNL    H26   48   0.480   0.022  -0.104
    1UNL    H27   49   0.274  -0.287   0.065
    1UNL    H28   50   0.260  -0.218  -0.208
    1UNL    H29   51  -0.072   0.057   0.088
    1UNL    H30   52  -0.135  -0.086   0.031
   0.00000   0.00000   0.00000   0.00000   0.00000   0.00000   0.00000   0.00000   0.00000
Generated with MDTraj, t= 56.0
 52
    1UNL     C1    1  -0.211   0.239   0.187
    1UNL     C2    2  -0.296   0.149   0.092
    1UNL     C3    3  -0.359   0.033   0.160
    1UNL     C4    4  -0.216   0.102  -0.031
    1UNL     C5    5  -0.301   0.023  -0.137
    1UNL     C6    6  -0.223   0.020  -0.269
    1UNL     C7    7  -0.093  -0.075  -0.242
    1UNL     C8    8  -0.131  -0.227  -0.232
    1UNL     C9    9  -0.012  -0.008  -0.125
    1UNL     O1   10   0.111  -0.072  -0.118
    1UNL    C10   11   0.132  -0.145   0.001
    1UNL     O2   12   0.121  -0.071   0.122
    1UNL    C11   13   0.208   0.040   0.111
    1UNL    C12   14   0.192   0.152   0.219
    1UNL     O3   15   0.287   0.256   0.213
    1UNL    C13   16   0.353  -0.011   0.125
    1UNL     O4   17   0.385  -0.089   0.238
    1UNL    C14   18   0.378  -0.102   0.001
    1UNL     O5   19   0.398  -0.026  -0.121
    1UNL    C15   20   0.271  -0.209  -0.014
    1UNL     O6   21   0.281  -0.272  -0.140
    1UNL    C16   22  -0.092   0.020  -0.003
    1UNL     H1   23  -0.273   0.270   0.276
    1UNL     H2   24  -0.122   0.181   0.231
    1UNL     H3   25  -0.170   0.332   0.138
    1UNL     H4   26  -0.384   0.209   0.053
    1UNL     H5   27  -0.410  -0.040   0.087
    1UNL     H6   28  -0.276  -0.025   0.213
    1UNL     H7   29  -0.426   0.053   0.234
    1UNL     H8   30  -0.179   0.195  -0.087
    1UNL     H9   31  -0.322  -0.076  -0.099
    1UNL    H10   32  -0.404   0.075  -0.149
    1UNL    H11   33  -0.184   0.115  -0.292
    1UNL    H12   34  -0.275  -0.016  -0.351
    1UNL    H13   35  -0.036  -0.061  -0.331
    1UNL    H14   36  -0.199  -0.256  -0.311
    1UNL    H15   37  -0.052  -0.298  -0.253
    1UNL    H16   38  -0.172  -0.257  -0.138
    1UNL    H17   39   0.023   0.090  -0.165
    1UNL    H18   40   0.056  -0.227   0.001
    1UNL    H19   41   0.195   0.086   0.014
    1UNL    H20   42   0.083   0.192   0.215
    1UNL    H21   43   0.208   0.112   0.318
    1UNL    H22   44   0.320   0.271   0.120
    1UNL    H23   45   0.421   0.077   0.143
    1UNL    H24   46   0.300  -0.133   0.264
    1UNL    H25   47   0.476  -0.149   0.022
    1UNL    H26   48   0.471   0.037  -0.125
    1UNL    H27   49   0.288  -0.282   0.066
    1UNL    H28   50   0.301  -0.191  -0.199
    1UNL    H29   51  -0.032   0.055   0.077
    1UNL    H30   52  -0.127  -0.069   0.042
   0.00000   0.00000   0.00000   0.00000   0.00000   0.00000   0.00000   0.00000   0.00000
Generated with MDTraj, t= 57.0
 52
    1UNL     C1    1  -0.188   0.223   0.185
    1UNL     C2    2  -0.293   0.153   0.094
    1UNL     C3    3  -0.357   0.030   0.163
    1UNL     C4    4  -0.224   0.118  -0.035
    1UNL     C5    5  -0.308   0.037  -0.140
    1UNL     C6    6  -0.242   0.002  -0.269
    1UNL     C7    7  -0.109  -0.071  -0.250
    1UNL     C8    8  -0.135  -0.227  -0.230
    1UNL     C9    9  -0.024  -0.007  -0.135
    1UNL     O1   10   0.105  -0.067  -0.134
    1UNL    C10   11   0.133  -0.131  -0.010
    1UNL     O2   12   0.126  -0.048   0.106
    1UNL    C11   13   0.228   0.051   0.110
    1UNL    C12   14   0.201   0.143   0.237
    1UNL     O3   15   0.253   0.274   0.235
    1UNL    C13   16   0.370  -0.018   0.118
    1UNL     O4   17   0.379  -0.090   0.246
    1UNL    C14   18   0.390  -0.115  -0.002
    1UNL     O5   19   0.412  -0.040  -0.122
    1UNL    C15   20   0.274  -0.208  -0.010
    1UNL     O6   21   0.301  -0.289  -0.121
    1UNL    C16   22  -0.104   0.015  -0.010
    1UNL     H1   23  -0.226   0.281   0.279
    1UNL     H2   24  -0.134   0.138   0.239
    1UNL     H3   25  -0.102   0.279   0.140
    1UNL     H4   26  -0.380   0.222   0.073
    1UNL     H5   27  -0.446  -0.013   0.106
    1UNL     H6   28  -0.282  -0.049   0.180
    1UNL     H7   29  -0.395   0.063   0.262
    1UNL     H8   30  -0.182   0.215  -0.080
    1UNL     H9   31  -0.323  -0.061  -0.085
    1UNL    H10   32  -0.412   0.084  -0.156
    1UNL    H11   33  -0.218   0.096  -0.319
    1UNL    H12   34  -0.301  -0.054  -0.331
    1UNL    H13   35  -0.059  -0.051  -0.344
    1UNL    H14   36  -0.183  -0.277  -0.311
    1UNL    H15   37  -0.037  -0.276  -0.228
    1UNL    H16   38  -0.183  -0.243  -0.136
    1UNL    H17   39   0.008   0.090  -0.173
    1UNL    H18   40   0.057  -0.214  -0.004
    1UNL    H19   41   0.225   0.103   0.014
    1UNL    H20   42   0.088   0.163   0.239
    1UNL    H21   43   0.224   0.087   0.325
    1UNL    H22   44   0.241   0.299   0.134
    1UNL    H23   45   0.452   0.056   0.125
    1UNL    H24   46   0.304  -0.158   0.245
    1UNL    H25   47   0.483  -0.173   0.006
    1UNL    H26   48   0.480   0.030  -0.108
    1UNL    H27   49   0.277  -0.282   0.071
    1UNL    H28   50   0.318  -0.225  -0.192
    1UNL    H29   51  -0.040   0.045   0.068
    1UNL    H30   52  -0.135  -0.075   0.029
   0.00000   0.00000   0.00000   0.00000   0.00000   0.00000   0.00000   0.00000   0.00000
Generated with MDTraj, t= 58.0
 52
    1UNL     C1    1  -0.215   0.226   0.183
    1UNL     C2    2  -0.302   0.147   0.092
    1UNL     C3    3  -0.354   0.020   0.165
    1UNL     C4    4  -0.229   0.103  -0.035
    1UNL     C5    5  -0.310   0.037  -0.149
    1UNL     C6    6  -0.229   0.002  -0.279
    1UNL     C7    7  -0.098  -0.071  -0.243
    1UNL     C8    8  -0.120  -0.218  -0.202
    1UNL     C9    9  -0.022   0.001  -0.132
    1UNL     O1   10   0.106  -0.053  -0.116
    1UNL    C10   11   0.122  -0.142  -0.005
    1UNL     O2   12   0.125  -0.055   0.109
    1UNL    C11   13   0.228   0.037   0.114
    1UNL    C12   14   0.206   0.136   0.230
    1UNL     O3   15   0.273   0.261   0.202
    1UNL    C13   16   0.365  -0.021   0.125
    1UNL     O4   17   0.389  -0.075   0.256
    1UNL    C14   18   0.386  -0.119   0.009
    1UNL     O5   19   0.405  -0.046  -0.114
    1UNL    C15   20   0.268  -0.218  -0.022
    1UNL     O6   21   0.284  -0.268  -0.152
    1UNL    C16   22  -0.097   0.033  -0.005
    1UNL     H1   23  -0.269   0.263   0.281
    1UNL     H2   24  -0.152   0.148   0.232
    1UNL     H3   25  -0.145   0.299   0.134
    1UNL     H4   26  -0.392   0.207   0.064
    1UNL     H5   27  -0.426  -0.032   0.099
    1UNL     H6   28  -0.275  -0.050   0.191
    1UNL     H7   29  -0.412   0.047   0.268
    1UNL     H8   30  -0.194   0.206  -0.078
    1UNL     H9   31  -0.361  -0.059  -0.104
    1UNL    H10   32  -0.389   0.113  -0.179
    1UNL    H11   33  -0.197   0.097  -0.320
    1UNL    H12   34  -0.279  -0.048  -0.354
    1UNL    H13   35  -0.025  -0.067  -0.325
    1UNL    H14   36  -0.154  -0.271  -0.285
    1UNL    H15   37  -0.022  -0.264  -0.183
    1UNL    H16   38  -0.186  -0.219  -0.115
    1UNL    H17   39   0.015   0.095  -0.171
    1UNL    H18   40   0.030  -0.205  -0.001
    1UNL    H19   41   0.228   0.088   0.014
    1UNL    H20   42   0.098   0.155   0.251
    1UNL    H21   43   0.251   0.107   0.322
    1UNL    H22   44   0.247   0.314   0.123
    1UNL    H23   45   0.440   0.059   0.125
    1UNL    H24   46   0.334  -0.158   0.263
    1UNL    H25   47   0.479  -0.175   0.023
    1UNL    H26   48   0.476   0.022  -0.092
    1UNL    H27   49   0.261  -0.307   0.041
    1UNL    H28   50   0.315  -0.194  -0.206
    1UNL    H29   51  -0.034   0.096   0.054
    1UNL    H30   52  -0.109  -0.053   0.050
   0.00000   0.00000   0.00000   0.00000   0.00000   0.00000   0.00000   0.00000   0.00000
Generated with MDTraj, t= 59.0
 52
    1UNL     C1    1  -0.272   0.249   0.186
    1UNL     C2    2  -0.323   0.136   0.089
    1UNL     C3    3  -0.361   0.014   0.167
    1UNL     C4    4  -0.231   0.103  -0.037
    1UNL     C5    5  -0.305   0.023  -0.144
    1UNL     C6    6  -0.218   0.006  -0.268
    1UNL     C7    7  -0.092  -0.071  -0.238
    1UNL     C8    8  -0.115  -0.221  -0.219
    1UNL     C9    9  -0.010   0.011  -0.124
    1UNL     O1   10   0.110  -0.056  -0.116
    1UNL    C10   11   0.137  -0.135   0.002
    1UNL     O2   12   0.132  -0.052   0.119
    1UNL    C11   13   0.236   0.047   0.111
    1UNL    C12   14   0.217   0.154   0.219
    1UNL     O3   15   0.304   0.266   0.205
    1UNL    C13   16   0.377  -0.027   0.121
    1UNL     O4   17   0.372  -0.114   0.237
    1UNL    C14   18   0.388  -0.117   0.000
    1UNL     O5   19   0.410  -0.039  -0.117
    1UNL    C15   20   0.270  -0.215  -0.017
    1UNL     O6   21   0.266  -0.275  -0.140
    1UNL    C16   22  -0.096   0.045   0.003
    1UNL     H1   23  -0.333   0.249   0.283
    1UNL     H2   24  -0.168   0.233   0.219
    1UNL     H3   25  -0.275   0.343   0.120
    1UNL     H4   26  -0.420   0.171   0.046
    1UNL     H5   27  -0.391  -0.076   0.109
    1UNL     H6   28  -0.273  -0.018   0.228
    1UNL     H7   29  -0.441   0.030   0.247
    1UNL     H8   30  -0.208   0.205  -0.087
    1UNL     H9   31  -0.310  -0.088  -0.103
    1UNL    H10   32  -0.411   0.061  -0.165
    1UNL    H11   33  -0.195   0.101  -0.314
    1UNL    H12   34  -0.265  -0.048  -0.342
    1UNL    H13   35  -0.026  -0.062  -0.327
    1UNL    H14   36  -0.158  -0.261  -0.305
    1UNL    H15   37  -0.023  -0.280  -0.214
    1UNL    H16   38  -0.177  -0.246  -0.132
    1UNL    H17   39   0.017   0.108  -0.164
    1UNL    H18   40   0.050  -0.205   0.002
    1UNL    H19   41   0.228   0.090   0.005
    1UNL    H20   42   0.112   0.192   0.224
    1UNL    H21   43   0.237   0.106   0.314
    1UNL    H22   44   0.298   0.294   0.116
    1UNL    H23   45   0.458   0.043   0.135
    1UNL    H24   46   0.286  -0.155   0.235
    1UNL    H25   47   0.477  -0.182  -0.002
    1UNL    H26   48   0.481   0.029  -0.101
    1UNL    H27   49   0.271  -0.291   0.061
    1UNL    H28   50   0.268  -0.196  -0.204
    1UNL    H29   51  -0.046   0.106   0.073
    1UNL    H30   52  -0.125  -0.051   0.041
   0.00000   0.00000   0.00000   0.00000   0.00000   0.00000   0.00000   0.00000   0.00000
Generated with MDTraj, t= 60.0
 52
    1UNL     C1    1  -0.271   0.243   0.159
    1UNL     C2    2  -0.341   0.124   0.091
    1UNL     C3    3  -0.333   0.001   0.187
    1UNL     C4    4  -0.253   0.090  -0.040
    1UNL     C5    5  -0.326   0.017  -0.153
    1UNL     C6    6  -0.239  -0.001  -0.282
    1UNL     C7    7  -0.095  -0.060  -0.259
    1UNL     C8    8  -0.105  -0.212  -0.241
    1UNL     C9    9  -0.021   0.009  -0.134
    1UNL     O1   10   0.116  -0.033  -0.116
    1UNL    C10   11   0.134  -0.105   0.006
    1UNL     O2   12   0.131  -0.029   0.127
    1UNL    C11   13   0.247   0.051   0.122
    1UNL    C12   14   0.252   0.158   0.232
    1UNL     O3   15   0.348   0.259   0.214
    1UNL    C13   16   0.374  -0.036   0.125
    1UNL     O4   17   0.384  -0.117   0.241
    1UNL    C14   18   0.387  -0.125   0.007
    1UNL     O5   19   0.413  -0.038  -0.110
    1UNL    C15   20   0.251  -0.203  -0.005
    1UNL     O6   21   0.247  -0.274  -0.124
    1UNL    C16   22  -0.124   0.013  -0.010
    1UNL     H1   23  -0.328   0.281   0.248
    1UNL     H2   24  -0.171   0.214   0.202
    1UNL     H3   25  -0.247   0.315   0.072
    1UNL     H4   26  -0.445   0.143   0.061
    1UNL     H5   27  -0.365  -0.096   0.140
    1UNL     H6   28  -0.218  -0.011   0.204
    1UNL     H7   29  -0.378   0.008   0.280
    1UNL     H8   30  -0.221   0.191  -0.086
    1UNL     H9   31  -0.347  -0.088  -0.115
    1UNL    H10   32  -0.432   0.062  -0.179
    1UNL    H11   33  -0.229   0.085  -0.344
    1UNL    H12   34  -0.292  -0.062  -0.351
    1UNL    H13   35  -0.028  -0.034  -0.344
    1UNL    H14   36  -0.158  -0.254  -0.324
    1UNL    H15   37  -0.018  -0.273  -0.255
    1UNL    H16   38  -0.153  -0.250  -0.149
    1UNL    H17   39  -0.009   0.117  -0.161
    1UNL    H18   40   0.046  -0.173   0.001
    1UNL    H19   41   0.244   0.099   0.016
    1UNL    H20   42   0.153   0.212   0.228
    1UNL    H21   43   0.261   0.112   0.329
    1UNL    H22   44   0.352   0.280   0.116
    1UNL    H23   45   0.458   0.032   0.137
    1UNL    H24   46   0.294  -0.161   0.259
    1UNL    H25   47   0.476  -0.189   0.016
    1UNL    H26   48   0.489   0.019  -0.093
    1UNL    H27   49   0.251  -0.275   0.079
    1UNL    H28   50   0.249  -0.209  -0.192
    1UNL    H29   51  -0.083   0.060   0.075
    1UNL    H30   52  -0.153  -0.091   0.005
   0.00000   0.00000   0.00000   0.00000   0.00000   0.00000   0.00000   0.00000   0.00000
Generated with MDTraj, t= 61.0
 52
    1UNL     C1    1  -0.290   0.231   0.166
    1UNL     C2    2  -0.324   0.116   0.079
    1UNL     C3    3  -0.344  -0.011   0.171
    1UNL     C4    4  -0.251   0.088  -0.046
    1UNL     C5    5  -0.334  -0.005  -0.142
    1UNL     C6    6  -0.241  -0.012  -0.266
    1UNL     C7    7  -0.094  -0.051  -0.250
    1UNL     C8    8  -0.083  -0.206  -0.223
    1UNL     C9    9  -0.019   0.028  -0.139
    1UNL     O1   10   0.112  -0.036  -0.112
    1UNL    C10   11   0.126  -0.111   0.007
    1UNL     O2   12   0.135  -0.013   0.112
    1UNL    C11   13   0.255   0.065   0.108
    1UNL    C12   14   0.256   0.163   0.230
    1UNL     O3   15   0.375   0.238   0.235
    1UNL    C13   16   0.377  -0.027   0.123
    1UNL     O4   17   0.372  -0.086   0.251
    1UNL    C14   18   0.375  -0.133   0.012
    1UNL     O5   19   0.400  -0.078  -0.118
    1UNL    C15   20   0.242  -0.210  -0.010
    1UNL     O6   21   0.240  -0.260  -0.142
    1UNL    C16   22  -0.109   0.039  -0.014
    1UNL     H1   23  -0.363   0.234   0.247
    1UNL     H2   24  -0.189   0.230   0.223
    1UNL     H3   25  -0.283   0.329   0.105
    1UNL     H4   26  -0.425   0.143   0.043
    1UNL     H5   27  -0.394  -0.097   0.118
    1UNL     H6   28  -0.241  -0.044   0.211
    1UNL     H7   29  -0.404   0.011   0.252
    1UNL     H8   30  -0.236   0.194  -0.093
    1UNL     H9   31  -0.350  -0.106  -0.102
    1UNL    H10   32  -0.441   0.041  -0.168
    1UNL    H11   33  -0.250   0.080  -0.316
    1UNL    H12   34  -0.276  -0.076  -0.345
    1UNL    H13   35  -0.035  -0.028  -0.342
    1UNL    H14   36  -0.128  -0.249  -0.313
    1UNL    H15   37   0.016  -0.243  -0.238
    1UNL    H16   38  -0.124  -0.235  -0.127
    1UNL    H17   39   0.008   0.133  -0.172
    1UNL    H18   40   0.035  -0.172   0.021
    1UNL    H19   41   0.267   0.118   0.006
    1UNL    H20   42   0.162   0.223   0.237
    1UNL    H21   43   0.270   0.102   0.320
    1UNL    H22   44   0.403   0.291   0.151
    1UNL    H23   45   0.469   0.031   0.122
    1UNL    H24   46   0.280  -0.126   0.266
    1UNL    H25   47   0.461  -0.203   0.027
    1UNL    H26   48   0.471  -0.013  -0.110
    1UNL    H27   49   0.240  -0.296   0.059
    1UNL    H28   50   0.256  -0.179  -0.202
    1UNL    H29   51  -0.053   0.099   0.053
    1UNL    H30   52  -0.123  -0.065   0.024
   0.00000   0.00000   0.00000   0.00000   0.00000   0.00000   0.00000   0.00000   0.00000
Generated with MDTraj, t= 62.0
 52
    1UNL     C1    1  -0.289   0.222   0.174
    1UNL     C2    2  -0.349   0.118   0.082
    1UNL     C3    3  -0.369  -0.014   0.155
    1UNL     C4    4  -0.253   0.100  -0.039
    1UNL     C5    5  -0.313  -0.000  -0.142
    1UNL     C6    6  -0.240  -0.019  -0.276
    1UNL     C7    7  -0.092  -0.060  -0.248
    1UNL     C8    8  -0.094  -0.213  -0.199
    1UNL     C9    9  -0.024   0.027  -0.139
    1UNL     O1   10   0.117  -0.012  -0.116
    1UNL    C10   11   0.129  -0.095  -0.004
    1UNL     O2   12   0.141  -0.022   0.123
    1UNL    C11   13   0.259   0.057   0.120
    1UNL    C12   14   0.250   0.171   0.227
    1UNL     O3   15   0.373   0.245   0.220
    1UNL    C13   16   0.384  -0.039   0.123
    1UNL     O4   17   0.366  -0.117   0.246
    1UNL    C14   18   0.388  -0.133  -0.002
    1UNL     O5   19   0.415  -0.059  -0.122
    1UNL    C15   20   0.249  -0.203  -0.012
    1UNL     O6   21   0.240  -0.276  -0.129
    1UNL    C16   22  -0.107   0.051  -0.009
    1UNL     H1   23  -0.335   0.228   0.275
    1UNL     H2   24  -0.178   0.201   0.200
    1UNL     H3   25  -0.282   0.324   0.124
    1UNL     H4   26  -0.449   0.157   0.055
    1UNL     H5   27  -0.414  -0.099   0.102
    1UNL     H6   28  -0.280  -0.042   0.206
    1UNL     H7   29  -0.444   0.004   0.235
    1UNL     H8   30  -0.238   0.209  -0.079
    1UNL     H9   31  -0.326  -0.096  -0.091
    1UNL    H10   32  -0.420   0.035  -0.171
    1UNL    H11   33  -0.244   0.069  -0.331
    1UNL    H12   34  -0.293  -0.084  -0.346
    1UNL    H13   35  -0.034  -0.047  -0.342
    1UNL    H14   36  -0.105  -0.275  -0.290
    1UNL    H15   37   0.002  -0.238  -0.164
    1UNL    H16   38  -0.169  -0.219  -0.122
    1UNL    H17   39  -0.024   0.130  -0.189
    1UNL    H18   40   0.037  -0.153   0.007
    1UNL    H19   41   0.262   0.101   0.014
    1UNL    H20   42   0.171   0.242   0.189
    1UNL    H21   43   0.225   0.123   0.321
    1UNL    H22   44   0.392   0.263   0.124
    1UNL    H23   45   0.477   0.021   0.134
    1UNL    H24   46   0.274  -0.143   0.253
    1UNL    H25   47   0.467  -0.212  -0.001
    1UNL    H26   48   0.494  -0.000  -0.104
    1UNL    H27   49   0.240  -0.278   0.070
    1UNL    H28   50   0.249  -0.208  -0.201
    1UNL    H29   51  -0.055   0.124   0.047
    1UNL    H30   52  -0.118  -0.044   0.052
   0.00000   0.00000   0.00000   0.00000   0.00000   0.00000   0.00000   0.00000   0.00000
Generated with MDTraj, t= 63.0
 52
    1UNL     C1    1  -0.271   0.230   0.176
    1UNL     C2    2  -0.334   0.122   0.081
    1UNL     C3    3  -0.381  -0.002   0.159
    1UNL     C4    4  -0.238   0.094  -0.045
    1UNL     C5    5  -0.310   0.017  -0.157
    1UNL     C6    6  -0.230  -0.008  -0.283
    1UNL     C7    7  -0.099  -0.080  -0.244
    1UNL     C8    8  -0.124  -0.229  -0.218
    1UNL     C9    9  -0.029   0.008  -0.133
    1UNL     O1   10   0.109  -0.026  -0.105
    1UNL    C10   11   0.127  -0.104   0.007
    1UNL     O2   12   0.143  -0.034   0.136
    1UNL    C11   13   0.258   0.049   0.131
    1UNL    C12   14   0.265   0.166   0.236
    1UNL     O3   15   0.362   0.262   0.196
    1UNL    C13   16   0.385  -0.036   0.136
    1UNL     O4   17   0.375  -0.127   0.249
    1UNL    C14   18   0.386  -0.114   0.001
    1UNL     O5   19   0.414  -0.043  -0.125
    1UNL    C15   20   0.251  -0.193  -0.012
    1UNL     O6   21   0.234  -0.247  -0.141
    1UNL    C16   22  -0.106   0.020  -0.009
    1UNL     H1   23  -0.348   0.275   0.248
    1UNL     H2   24  -0.197   0.180   0.245
    1UNL     H3   25  -0.214   0.304   0.113
    1UNL     H4   26  -0.426   0.170   0.043
    1UNL     H5   27  -0.426  -0.078   0.100
    1UNL     H6   28  -0.307  -0.043   0.215
    1UNL     H7   29  -0.469   0.023   0.232
    1UNL     H8   30  -0.205   0.191  -0.100
    1UNL     H9   31  -0.335  -0.084  -0.123
    1UNL    H10   32  -0.408   0.064  -0.175
    1UNL    H11   33  -0.210   0.079  -0.334
    1UNL    H12   34  -0.290  -0.058  -0.359
    1UNL    H13   35  -0.031  -0.071  -0.330
    1UNL    H14   36  -0.139  -0.285  -0.313
    1UNL    H15   37  -0.040  -0.274  -0.172
    1UNL    H16   38  -0.203  -0.236  -0.148
    1UNL    H17   39  -0.023   0.112  -0.175
    1UNL    H18   40   0.041  -0.168   0.020
    1UNL    H19   41   0.252   0.091   0.027
    1UNL    H20   42   0.161   0.208   0.250
    1UNL    H21   43   0.311   0.125   0.326
    1UNL    H22   44   0.343   0.294   0.109
    1UNL    H23   45   0.470   0.035   0.160
    1UNL    H24   46   0.285  -0.172   0.249
    1UNL    H25   47   0.468  -0.188   0.007
    1UNL    H26   48   0.489   0.020  -0.105
    1UNL    H27   49   0.248  -0.279   0.059
    1UNL    H28   50   0.270  -0.177  -0.202
    1UNL    H29   51  -0.053   0.068   0.071
    1UNL    H30   52  -0.136  -0.080   0.032
   0.00000   0.00000   0.00000   0.00000   0.00000   0.00000   0.00000   0.00000   0.00000
Generated with MDTraj, t= 64.0
 52
    1UNL     C1    1  -0.274   0.239   0.173
    1UNL     C2    2  -0.337   0.136   0.080
    1UNL     C3    3  -0.391   0.012   0.161
    1UNL     C4    4  -0.246   0.091  -0.035
    1UNL     C5    5  -0.325   0.030  -0.152
    1UNL     C6    6  -0.232   0.005  -0.275
    1UNL     C7    7  -0.097  -0.070  -0.240
    1UNL     C8    8  -0.098  -0.206  -0.212
    1UNL     C9    9  -0.021   0.012  -0.129
    1UNL     O1   10   0.106  -0.062  -0.105
    1UNL    C10   11   0.134  -0.132   0.012
    1UNL     O2   12   0.143  -0.044   0.136
    1UNL    C11   13   0.250   0.047   0.114
    1UNL    C12   14   0.241   0.158   0.224
    1UNL     O3   15   0.336   0.257   0.212
    1UNL    C13   16   0.381  -0.030   0.121
    1UNL     O4   17   0.385  -0.099   0.247
    1UNL    C14   18   0.395  -0.120  -0.004
    1UNL     O5   19   0.401  -0.050  -0.126
    1UNL    C15   20   0.270  -0.209  -0.014
    1UNL     O6   21   0.267  -0.264  -0.146
    1UNL    C16   22  -0.105   0.027  -0.005
    1UNL     H1   23  -0.343   0.260   0.266
    1UNL     H2   24  -0.186   0.192   0.223
    1UNL     H3   25  -0.233   0.328   0.117
    1UNL     H4   26  -0.426   0.186   0.033
    1UNL     H5   27  -0.460  -0.031   0.099
    1UNL     H6   28  -0.311  -0.057   0.180
    1UNL     H7   29  -0.450   0.038   0.255
    1UNL     H8   30  -0.211   0.187  -0.089
    1UNL     H9   31  -0.364  -0.067  -0.119
    1UNL    H10   32  -0.408   0.084  -0.183
    1UNL    H11   33  -0.221   0.092  -0.332
    1UNL    H12   34  -0.285  -0.053  -0.351
    1UNL    H13   35  -0.031  -0.058  -0.327
    1UNL    H14   36  -0.159  -0.266  -0.282
    1UNL    H15   37  -0.004  -0.259  -0.215
    1UNL    H16   38  -0.131  -0.226  -0.116
    1UNL    H17   39   0.006   0.113  -0.160
    1UNL    H18   40   0.058  -0.205   0.032
    1UNL    H19   41   0.244   0.083   0.011
    1UNL    H20   42   0.141   0.213   0.216
    1UNL    H21   43   0.258   0.109   0.320
    1UNL    H22   44   0.326   0.309   0.132
    1UNL    H23   45   0.466   0.044   0.126
    1UNL    H24   46   0.301  -0.150   0.259
    1UNL    H25   47   0.487  -0.181  -0.002
    1UNL    H26   48   0.467   0.023  -0.119
    1UNL    H27   49   0.287  -0.291   0.058
    1UNL    H28   50   0.258  -0.186  -0.206
    1UNL    H29   51  -0.057   0.074   0.084
    1UNL    H30   52  -0.117  -0.077   0.029
   0.00000   0.00000   0.00000   0.00000   0.00000   0.00000   0.00000   0.00000   0.00000
Generated with MDTraj, t= 65.0
 52
    1UNL     C1    1  -0.244   0.234   0.178
    1UNL     C2    2  -0.319   0.132   0.091
    1UNL     C3    3  -0.365   0.014   0.176
    1UNL     C4    4  -0.234   0.105  -0.039
    1UNL     C5    5  -0.309   0.023  -0.137
    1UNL     C6    6  -0.233   0.008  -0.271
    1UNL     C7    7  -0.093  -0.060  -0.253
    1UNL     C8    8  -0.096  -0.207  -0.224
    1UNL     C9    9  -0.014   0.008  -0.135
    1UNL     O1   10   0.122  -0.050  -0.119
    1UNL    C10   11   0.138  -0.126  -0.007
    1UNL     O2   12   0.130  -0.053   0.119
    1UNL    C11   13   0.227   0.049   0.114
    1UNL    C12   14   0.204   0.149   0.228
    1UNL     O3   15   0.307   0.252   0.225
    1UNL    C13   16   0.369  -0.016   0.113
    1UNL     O4   17   0.398  -0.077   0.235
    1UNL    C14   18   0.385  -0.122  -0.006
    1UNL     O5   19   0.396  -0.049  -0.122
    1UNL    C15   20   0.256  -0.212  -0.005
    1UNL     O6   21   0.264  -0.300  -0.118
    1UNL    C16   22  -0.103   0.024  -0.013
    1UNL     H1   23  -0.291   0.272   0.278
    1UNL     H2   24  -0.141   0.209   0.209
    1UNL     H3   25  -0.219   0.320   0.108
    1UNL     H4   26  -0.413   0.184   0.057
    1UNL     H5   27  -0.423  -0.050   0.116
    1UNL     H6   28  -0.276  -0.040   0.219
    1UNL     H7   29  -0.432   0.043   0.249
    1UNL     H8   30  -0.202   0.209  -0.074
    1UNL     H9   31  -0.330  -0.081  -0.106
    1UNL    H10   32  -0.400   0.069  -0.151
    1UNL    H11   33  -0.223   0.097  -0.327
    1UNL    H12   34  -0.301  -0.048  -0.332
    1UNL    H13   35  -0.036  -0.037  -0.342
    1UNL    H14   36  -0.144  -0.265  -0.302
    1UNL    H15   37  -0.000  -0.257  -0.214
    1UNL    H16   38  -0.144  -0.222  -0.131
    1UNL    H17   39   0.004   0.112  -0.158
    1UNL    H18   40   0.052  -0.190  -0.010
    1UNL    H19   41   0.219   0.095   0.018
    1UNL    H20   42   0.103   0.197   0.207
    1UNL    H21   43   0.206   0.097   0.325
    1UNL    H22   44   0.298   0.303   0.137
    1UNL    H23   45   0.446   0.065   0.099
    1UNL    H24   46   0.322  -0.127   0.259
    1UNL    H25   47   0.475  -0.184   0.007
    1UNL    H26   48   0.470   0.013  -0.118
    1UNL    H27   49   0.258  -0.274   0.085
    1UNL    H28   50   0.265  -0.244  -0.196
    1UNL    H29   51  -0.037   0.074   0.067
    1UNL    H30   52  -0.134  -0.071   0.031
   0.00000   0.00000   0.00000   0.00000   0.00000   0.00000   0.00000   0.00000   0.00000
Generated with MDTraj, t= 66.0
 52
    1UNL     C1    1  -0.217   0.242   0.181
    1UNL     C2    2  -0.287   0.132   0.093
    1UNL     C3    3  -0.317   0.006   0.177
    1UNL     C4    4  -0.221   0.102  -0.041
    1UNL     C5    5  -0.319   0.026  -0.136
    1UNL     C6    6  -0.231   0.009  -0.266
    1UNL     C7    7  -0.097  -0.068  -0.261
    1UNL     C8    8  -0.123  -0.226  -0.253
    1UNL     C9    9  -0.012   0.001  -0.146
    1UNL     O1   10   0.117  -0.062  -0.121
    1UNL    C10   11   0.124  -0.136   0.001
    1UNL     O2   12   0.123  -0.053   0.124
    1UNL    C11   13   0.218   0.055   0.116
    1UNL    C12   14   0.208   0.148   0.241
    1UNL     O3   15   0.283   0.271   0.223
    1UNL    C13   16   0.358  -0.008   0.117
    1UNL     O4   17   0.385  -0.078   0.235
    1UNL    C14   18   0.378  -0.110   0.002
    1UNL     O5   19   0.405  -0.053  -0.117
    1UNL    C15   20   0.253  -0.211   0.001
    1UNL     O6   21   0.250  -0.281  -0.128
    1UNL    C16   22  -0.085   0.016  -0.018
    1UNL     H1   23  -0.291   0.277   0.259
    1UNL     H2   24  -0.129   0.206   0.240
    1UNL     H3   25  -0.176   0.329   0.118
    1UNL     H4   26  -0.382   0.188   0.064
    1UNL     H5   27  -0.360  -0.080   0.128
    1UNL     H6   28  -0.229  -0.032   0.232
    1UNL     H7   29  -0.390   0.029   0.241
    1UNL     H8   30  -0.184   0.200  -0.084
    1UNL     H9   31  -0.346  -0.067  -0.088
    1UNL    H10   32  -0.404   0.078  -0.163
    1UNL    H11   33  -0.217   0.112  -0.300
    1UNL    H12   34  -0.284  -0.033  -0.347
    1UNL    H13   35  -0.041  -0.051  -0.352
    1UNL    H14   36  -0.146  -0.260  -0.351
    1UNL    H15   37  -0.032  -0.276  -0.222
    1UNL    H16   38  -0.204  -0.235  -0.180
    1UNL    H17   39   0.003   0.099  -0.189
    1UNL    H18   40   0.043  -0.207   0.004
    1UNL    H19   41   0.204   0.112   0.028
    1UNL    H20   42   0.102   0.170   0.272
    1UNL    H21   43   0.261   0.099   0.325
    1UNL    H22   44   0.237   0.329   0.152
    1UNL    H23   45   0.434   0.075   0.119
    1UNL    H24   46   0.297  -0.110   0.268
    1UNL    H25   47   0.465  -0.170   0.035
    1UNL    H26   48   0.490  -0.005  -0.115
    1UNL    H27   49   0.262  -0.284   0.081
    1UNL    H28   50   0.258  -0.212  -0.201
    1UNL    H29   51  -0.022   0.073   0.061
    1UNL    H30   52  -0.117  -0.079   0.023
   0.00000   0.00000   0.00000   0.00000   0.00000   0.00000   0.00000   0.00000   0.00000
Generated with MDTraj, t= 67.0
 52
    1UNL     C1    1  -0.241   0.253   0.169
    1UNL     C2    2  -0.312   0.143   0.099
    1UNL     C3    3  -0.322   0.012   0.182
    1UNL     C4    4  -0.233   0.107  -0.028
    1UNL     C5    5  -0.319   0.037  -0.134
    1UNL     C6    6  -0.243   0.017  -0.274
    1UNL     C7    7  -0.104  -0.057  -0.253
    1UNL     C8    8  -0.122  -0.211  -0.210
    1UNL     C9    9  -0.016   0.010  -0.139
    1UNL     O1   10   0.118  -0.064  -0.121
    1UNL    C10   11   0.141  -0.145  -0.008
    1UNL     O2   12   0.123  -0.064   0.110
    1UNL    C11   13   0.226   0.037   0.108
    1UNL    C12   14   0.193   0.152   0.209
    1UNL     O3   15   0.276   0.266   0.198
    1UNL    C13   16   0.363  -0.031   0.130
    1UNL     O4   17   0.374  -0.102   0.252
    1UNL    C14   18   0.396  -0.119   0.003
    1UNL     O5   19   0.407  -0.033  -0.110
    1UNL    C15   20   0.280  -0.222  -0.006
    1UNL     O6   21   0.304  -0.284  -0.133
    1UNL    C16   22  -0.098   0.022  -0.007
    1UNL     H1   23  -0.302   0.264   0.262
    1UNL     H2   24  -0.137   0.228   0.207
    1UNL     H3   25  -0.232   0.348   0.102
    1UNL     H4   26  -0.415   0.182   0.067
    1UNL     H5   27  -0.386  -0.061   0.137
    1UNL     H6   28  -0.226  -0.029   0.194
    1UNL     H7   29  -0.369   0.035   0.283
    1UNL     H8   30  -0.206   0.202  -0.082
    1UNL     H9   31  -0.361  -0.056  -0.107
    1UNL    H10   32  -0.401   0.103  -0.149
    1UNL    H11   33  -0.216   0.116  -0.317
    1UNL    H12   34  -0.306  -0.026  -0.348
    1UNL    H13   35  -0.039  -0.052  -0.338
    1UNL    H14   36  -0.176  -0.249  -0.290
    1UNL    H15   37  -0.026  -0.262  -0.206
    1UNL    H16   38  -0.181  -0.215  -0.116
    1UNL    H17   39   0.011   0.107  -0.184
    1UNL    H18   40   0.059  -0.215   0.001
    1UNL    H19   41   0.222   0.076   0.009
    1UNL    H20   42   0.090   0.193   0.202
    1UNL    H21   43   0.204   0.114   0.313
    1UNL    H22   44   0.273   0.296   0.105
    1UNL    H23   45   0.443   0.043   0.135
    1UNL    H24   46   0.283  -0.132   0.287
    1UNL    H25   47   0.493  -0.174   0.000
    1UNL    H26   48   0.485   0.029  -0.107
    1UNL    H27   49   0.275  -0.292   0.077
    1UNL    H28   50   0.305  -0.216  -0.200
    1UNL    H29   51  -0.041   0.070   0.078
    1UNL    H30   52  -0.122  -0.080   0.024
   0.00000   0.00000   0.00000   0.00000   0.00000   0.00000   0.00000   0.00000   0.00000
Generated with MDTraj, t= 68.0
 52
    1UNL     C1    1  -0.253   0.255   0.176
    1UNL     C2    2  -0.308   0.139   0.095
    1UNL     C3    3  -0.341   0.020   0.186
    1UNL     C4    4  -0.224   0.105  -0.035
    1UNL     C5    5  -0.301   0.036  -0.145
    1UNL     C6    6  -0.223   0.006  -0.268
    1UNL     C7    7  -0.101  -0.076  -0.242
    1UNL     C8    8  -0.124  -0.221  -0.199
    1UNL     C9    9  -0.015   0.003  -0.128
    1UNL     O1   10   0.110  -0.071  -0.124
    1UNL    C10   11   0.136  -0.140  -0.009
    1UNL     O2   12   0.131  -0.062   0.109
    1UNL    C11   13   0.234   0.043   0.110
    1UNL    C12   14   0.207   0.155   0.215
    1UNL     O3   15   0.289   0.264   0.194
    1UNL    C13   16   0.364  -0.027   0.135
    1UNL     O4   17   0.356  -0.105   0.254
    1UNL    C14   18   0.386  -0.117   0.007
    1UNL     O5   19   0.419  -0.040  -0.106
    1UNL    C15   20   0.272  -0.215  -0.023
    1UNL     O6   21   0.285  -0.251  -0.165
    1UNL    C16   22  -0.099   0.021   0.003
    1UNL     H1   23  -0.322   0.279   0.260
    1UNL     H2   24  -0.147   0.251   0.221
    1UNL     H3   25  -0.255   0.338   0.097
    1UNL     H4   26  -0.406   0.176   0.052
    1UNL     H5   27  -0.385  -0.060   0.130
    1UNL     H6   28  -0.254  -0.009   0.231
    1UNL     H7   29  -0.422   0.055   0.264
    1UNL     H8   30  -0.198   0.201  -0.086
    1UNL     H9   31  -0.328  -0.053  -0.101
    1UNL    H10   32  -0.393   0.085  -0.174
    1UNL    H11   33  -0.194   0.104  -0.315
    1UNL    H12   34  -0.280  -0.046  -0.343
    1UNL    H13   35  -0.046  -0.079  -0.335
    1UNL    H14   36  -0.198  -0.262  -0.259
    1UNL    H15   37  -0.042  -0.289  -0.219
    1UNL    H16   38  -0.159  -0.245  -0.096
    1UNL    H17   39   0.003   0.105  -0.173
    1UNL    H18   40   0.055  -0.215   0.002
    1UNL    H19   41   0.217   0.092   0.014
    1UNL    H20   42   0.105   0.192   0.210
    1UNL    H21   43   0.220   0.128   0.325
    1UNL    H22   44   0.273   0.301   0.109
    1UNL    H23   45   0.443   0.045   0.147
    1UNL    H24   46   0.268  -0.143   0.263
    1UNL    H25   47   0.475  -0.178   0.028
    1UNL    H26   48   0.504   0.009  -0.084
    1UNL    H27   49   0.270  -0.303   0.040
    1UNL    H28   50   0.282  -0.163  -0.217
    1UNL    H29   51  -0.050   0.047   0.094
    1UNL    H30   52  -0.145  -0.079   0.026
   0.00000   0.00000   0.00000   0.00000   0.00000   0.00000   0.00000   0.00000   0.00000
Generated with MDTraj, t= 69.0
 52
    1UNL     C1    1  -0.228   0.236   0.177
    1UNL     C2    2  -0.314   0.147   0.087
    1UNL     C3    3  -0.340   0.019   0.172
    1UNL     C4    4  -0.238   0.102  -0.046
    1UNL     C5    5  -0.319   0.014  -0.142
    1UNL     C6    6  -0.242  -0.018  -0.279
    1UNL     C7    7  -0.105  -0.082  -0.254
    1UNL     C8    8  -0.118  -0.225  -0.209
    1UNL     C9    9  -0.034   0.005  -0.147
    1UNL     O1   10   0.103  -0.031  -0.128
    1UNL    C10   11   0.128  -0.107  -0.010
    1UNL     O2   12   0.122  -0.042   0.120
    1UNL    C11   13   0.237   0.041   0.134
    1UNL    C12   14   0.225   0.147   0.237
    1UNL     O3   15   0.310   0.256   0.214
    1UNL    C13   16   0.368  -0.030   0.138
    1UNL     O4   17   0.378  -0.113   0.248
    1UNL    C14   18   0.388  -0.110   0.002
    1UNL     O5   19   0.427  -0.039  -0.111
    1UNL    C15   20   0.261  -0.194  -0.023
    1UNL     O6   21   0.270  -0.278  -0.137
    1UNL    C16   22  -0.100   0.038  -0.014
    1UNL     H1   23  -0.279   0.285   0.265
    1UNL     H2   24  -0.141   0.178   0.225
    1UNL     H3   25  -0.176   0.312   0.112
    1UNL     H4   26  -0.405   0.208   0.061
    1UNL     H5   27  -0.387  -0.063   0.116
    1UNL     H6   28  -0.253  -0.024   0.221
    1UNL     H7   29  -0.417   0.038   0.251
    1UNL     H8   30  -0.218   0.195  -0.100
    1UNL     H9   31  -0.349  -0.072  -0.094
    1UNL    H10   32  -0.414   0.065  -0.156
    1UNL    H11   33  -0.216   0.069  -0.344
    1UNL    H12   34  -0.307  -0.084  -0.340
    1UNL    H13   35  -0.042  -0.078  -0.342
    1UNL    H14   36  -0.180  -0.273  -0.283
    1UNL    H15   37  -0.036  -0.294  -0.209
    1UNL    H16   38  -0.177  -0.251  -0.119
    1UNL    H17   39  -0.028   0.105  -0.201
    1UNL    H18   40   0.048  -0.184  -0.007
    1UNL    H19   41   0.228   0.104   0.040
    1UNL    H20   42   0.124   0.184   0.245
    1UNL    H21   43   0.244   0.100   0.341
    1UNL    H22   44   0.288   0.294   0.127
    1UNL    H23   45   0.443   0.047   0.136
    1UNL    H24   46   0.301  -0.174   0.247
    1UNL    H25   47   0.474  -0.176   0.021
    1UNL    H26   48   0.512   0.006  -0.091
    1UNL    H27   49   0.259  -0.267   0.060
    1UNL    H28   50   0.289  -0.226  -0.216
    1UNL    H29   51  -0.034   0.104   0.033
    1UNL    H30   52  -0.098  -0.047   0.062
   0.00000   0.00000   0.00000   0.00000   0.00000   0.00000   0.00000   0.00000   0.00000
Generated with MDTraj, t= 70.0
 52
    1UNL     C1    1  -0.238   0.243   0.172
    1UNL     C2    2  -0.310   0.140   0.081
    1UNL     C3    3  -0.362   0.017   0.164
    1UNL     C4    4  -0.238   0.103  -0.050
    1UNL     C5    5  -0.308  -0.004  -0.137
    1UNL     C6    6  -0.236  -0.023  -0.272
    1UNL     C7    7  -0.100  -0.075  -0.241
    1UNL     C8    8  -0.093  -0.228  -0.209
    1UNL     C9    9  -0.021   0.011  -0.138
    1UNL     O1   10   0.110  -0.050  -0.117
    1UNL    C10   11   0.129  -0.119   0.004
    1UNL     O2   12   0.130  -0.029   0.115
    1UNL    C11   13   0.243   0.060   0.115
    1UNL    C12   14   0.225   0.160   0.225
    1UNL     O3   15   0.334   0.243   0.269
    1UNL    C13   16   0.373  -0.022   0.123
    1UNL     O4   17   0.363  -0.099   0.243
    1UNL    C14   18   0.384  -0.114  -0.011
    1UNL     O5   19   0.394  -0.052  -0.136
    1UNL    C15   20   0.256  -0.210  -0.017
    1UNL     O6   21   0.251  -0.267  -0.143
    1UNL    C16   22  -0.098   0.048  -0.014
    1UNL     H1   23  -0.309   0.282   0.254
    1UNL     H2   24  -0.153   0.194   0.228
    1UNL     H3   25  -0.189   0.326   0.115
    1UNL     H4   26  -0.399   0.198   0.046
    1UNL     H5   27  -0.451  -0.037   0.123
    1UNL     H6   28  -0.286  -0.065   0.200
    1UNL     H7   29  -0.411   0.060   0.247
    1UNL     H8   30  -0.222   0.190  -0.113
    1UNL     H9   31  -0.300  -0.089  -0.074
    1UNL    H10   32  -0.415   0.004  -0.141
    1UNL    H11   33  -0.238   0.068  -0.335
    1UNL    H12   34  -0.279  -0.109  -0.338
    1UNL    H13   35  -0.041  -0.069  -0.335
    1UNL    H14   36  -0.128  -0.282  -0.299
    1UNL    H15   37   0.010  -0.257  -0.195
    1UNL    H16   38  -0.159  -0.258  -0.129
    1UNL    H17   39   0.011   0.105  -0.189
    1UNL    H18   40   0.044  -0.189   0.018
    1UNL    H19   41   0.239   0.124   0.020
    1UNL    H20   42   0.135   0.214   0.205
    1UNL    H21   43   0.192   0.105   0.323
    1UNL    H22   44   0.379   0.283   0.185
    1UNL    H23   45   0.466   0.030   0.125
    1UNL    H24   46   0.270  -0.139   0.256
    1UNL    H25   47   0.468  -0.182   0.005
    1UNL    H26   48   0.460   0.017  -0.140
    1UNL    H27   49   0.267  -0.291   0.058
    1UNL    H28   50   0.240  -0.187  -0.204
    1UNL    H29   51  -0.038   0.113   0.044
    1UNL    H30   52  -0.099  -0.044   0.050
   0.00000   0.00000   0.00000   0.00000   0.00000   0.00000   0.00000   0.00000   0.00000
Generated with MDTraj, t= 71.0
 52
    1UNL     C1    1  -0.261   0.251   0.156
    1UNL     C2    2  -0.338   0.143   0.081
    1UNL     C3    3  -0.355   0.024   0.168
    1UNL     C4    4  -0.252   0.094  -0.043
    1UNL     C5    5  -0.320   0.007  -0.148
    1UNL     C6    6  -0.237  -0.023  -0.270
    1UNL     C7    7  -0.093  -0.070  -0.244
    1UNL     C8    8  -0.095  -0.224  -0.199
    1UNL     C9    9  -0.023   0.015  -0.140
    1UNL     O1   10   0.113  -0.034  -0.123
    1UNL    C10   11   0.127  -0.115  -0.007
    1UNL     O2   12   0.131  -0.038   0.111
    1UNL    C11   13   0.244   0.049   0.118
    1UNL    C12   14   0.241   0.146   0.237
    1UNL     O3   15   0.357   0.226   0.241
    1UNL    C13   16   0.380  -0.030   0.123
    1UNL     O4   17   0.384  -0.090   0.255
    1UNL    C14   18   0.385  -0.115  -0.002
    1UNL     O5   19   0.395  -0.034  -0.120
    1UNL    C15   20   0.251  -0.212  -0.012
    1UNL     O6   21   0.259  -0.269  -0.138
    1UNL    C16   22  -0.115   0.023  -0.015
    1UNL     H1   23  -0.313   0.276   0.258
    1UNL     H2   24  -0.154   0.221   0.175
    1UNL     H3   25  -0.251   0.341   0.090
    1UNL     H4   26  -0.438   0.176   0.048
    1UNL     H5   27  -0.414  -0.059   0.113
    1UNL     H6   28  -0.248  -0.014   0.196
    1UNL     H7   29  -0.409   0.053   0.251
    1UNL     H8   30  -0.228   0.183  -0.099
    1UNL     H9   31  -0.356  -0.084  -0.102
    1UNL    H10   32  -0.412   0.057  -0.173
    1UNL    H11   33  -0.228   0.063  -0.340
    1UNL    H12   34  -0.297  -0.103  -0.336
    1UNL    H13   35  -0.041  -0.064  -0.343
    1UNL    H14   36  -0.134  -0.285  -0.284
    1UNL    H15   37   0.005  -0.248  -0.171
    1UNL    H16   38  -0.165  -0.227  -0.120
    1UNL    H17   39  -0.008   0.115  -0.179
    1UNL    H18   40   0.035  -0.177  -0.003
    1UNL    H19   41   0.242   0.119   0.028
    1UNL    H20   42   0.154   0.208   0.252
    1UNL    H21   43   0.238   0.082   0.336
    1UNL    H22   44   0.369   0.279   0.155
    1UNL    H23   45   0.471   0.030   0.119
    1UNL    H24   46   0.301  -0.134   0.275
    1UNL    H25   47   0.467  -0.187   0.012
    1UNL    H26   48   0.459   0.039  -0.108
    1UNL    H27   49   0.247  -0.294   0.064
    1UNL    H28   50   0.286  -0.199  -0.202
    1UNL    H29   51  -0.057   0.071   0.062
    1UNL    H30   52  -0.128  -0.074   0.029
   0.00000   0.00000   0.00000   0.00000   0.00000   0.00000   0.00000   0.00000   0.00000
Generated with MDTraj, t= 72.0
 52
    1UNL     C1    1  -0.295   0.262   0.147
    1UNL     C2    2  -0.332   0.134   0.071
    1UNL     C3    3  -0.344   0.019   0.175
    1UNL     C4    4  -0.245   0.096  -0.051
    1UNL     C5    5  -0.325   0.008  -0.149
    1UNL     C6    6  -0.237  -0.006  -0.275
    1UNL     C7    7  -0.098  -0.079  -0.241
    1UNL     C8    8  -0.121  -0.226  -0.206
    1UNL     C9    9  -0.026   0.008  -0.139
    1UNL     O1   10   0.110  -0.033  -0.113
    1UNL    C10   11   0.136  -0.111   0.009
    1UNL     O2   12   0.149  -0.035   0.129
    1UNL    C11   13   0.261   0.053   0.128
    1UNL    C12   14   0.250   0.149   0.249
    1UNL     O3   15   0.321   0.265   0.227
    1UNL    C13   16   0.388  -0.040   0.123
    1UNL     O4   17   0.391  -0.131   0.231
    1UNL    C14   18   0.396  -0.124   0.000
    1UNL     O5   19   0.427  -0.050  -0.114
    1UNL    C15   20   0.261  -0.209  -0.016
    1UNL     O6   21   0.237  -0.257  -0.144
    1UNL    C16   22  -0.112   0.032  -0.016
    1UNL     H1   23  -0.378   0.272   0.225
    1UNL     H2   24  -0.196   0.261   0.201
    1UNL     H3   25  -0.295   0.357   0.083
    1UNL     H4   26  -0.433   0.147   0.032
    1UNL     H5   27  -0.351  -0.084   0.123
    1UNL     H6   28  -0.247   0.020   0.228
    1UNL     H7   29  -0.429   0.025   0.245
    1UNL     H8   30  -0.226   0.188  -0.104
    1UNL     H9   31  -0.338  -0.091  -0.103
    1UNL    H10   32  -0.425   0.045  -0.166
    1UNL    H11   33  -0.216   0.099  -0.310
    1UNL    H12   34  -0.298  -0.057  -0.364
    1UNL    H13   35  -0.044  -0.076  -0.341
    1UNL    H14   36  -0.191  -0.277  -0.278
    1UNL    H15   37  -0.028  -0.281  -0.197
    1UNL    H16   38  -0.174  -0.227  -0.115
    1UNL    H17   39  -0.018   0.108  -0.179
    1UNL    H18   40   0.045  -0.174   0.024
    1UNL    H19   41   0.250   0.110   0.031
    1UNL    H20   42   0.147   0.171   0.273
    1UNL    H21   43   0.289   0.106   0.354
    1UNL    H22   44   0.307   0.292   0.136
    1UNL    H23   45   0.481   0.022   0.118
    1UNL    H24   46   0.298  -0.134   0.256
    1UNL    H25   47   0.482  -0.191   0.022
    1UNL    H26   48   0.511   0.003  -0.094
    1UNL    H27   49   0.258  -0.296   0.054
    1UNL    H28   50   0.224  -0.184  -0.209
    1UNL    H29   51  -0.062   0.080   0.070
    1UNL    H30   52  -0.130  -0.060   0.031
   0.00000   0.00000   0.00000   0.00000   0.00000   0.00000   0.00000   0.00000   0.00000
Generated with MDTraj, t= 73.0
 52
    1UNL     C1    1  -0.300   0.261   0.156
    1UNL     C2    2  -0.336   0.133   0.081
    1UNL     C3    3  -0.343   0.015   0.177
    1UNL     C4    4  -0.244   0.107  -0.044
    1UNL     C5    5  -0.316   0.008  -0.144
    1UNL     C6    6  -0.225  -0.013  -0.273
    1UNL     C7    7  -0.083  -0.074  -0.243
    1UNL     C8    8  -0.089  -0.217  -0.197
    1UNL     C9    9  -0.013   0.020  -0.135
    1UNL     O1   10   0.122  -0.029  -0.102
    1UNL    C10   11   0.133  -0.114   0.008
    1UNL     O2   12   0.135  -0.053   0.137
    1UNL    C11   13   0.242   0.042   0.127
    1UNL    C12   14   0.236   0.145   0.230
    1UNL     O3   15   0.318   0.257   0.194
    1UNL    C13   16   0.371  -0.038   0.123
    1UNL     O4   17   0.381  -0.125   0.235
    1UNL    C14   18   0.382  -0.127  -0.003
    1UNL     O5   19   0.414  -0.052  -0.117
    1UNL    C15   20   0.254  -0.207  -0.024
    1UNL     O6   21   0.249  -0.257  -0.149
    1UNL    C16   22  -0.102   0.050  -0.009
    1UNL     H1   23  -0.382   0.282   0.230
    1UNL     H2   24  -0.202   0.254   0.214
    1UNL     H3   25  -0.290   0.357   0.091
    1UNL     H4   26  -0.436   0.147   0.039
    1UNL     H5   27  -0.366  -0.082   0.125
    1UNL     H6   28  -0.247  -0.007   0.218
    1UNL     H7   29  -0.422   0.013   0.269
    1UNL     H8   30  -0.231   0.204  -0.089
    1UNL     H9   31  -0.326  -0.092  -0.094
    1UNL    H10   32  -0.412   0.044  -0.176
    1UNL    H11   33  -0.206   0.096  -0.310
    1UNL    H12   34  -0.286  -0.074  -0.350
    1UNL    H13   35  -0.020  -0.066  -0.337
    1UNL    H14   36  -0.151  -0.299  -0.241
    1UNL    H15   37   0.008  -0.263  -0.188
    1UNL    H16   38  -0.127  -0.216  -0.097
    1UNL    H17   39   0.012   0.121  -0.167
    1UNL    H18   40   0.042  -0.176   0.014
    1UNL    H19   41   0.215   0.090   0.031
    1UNL    H20   42   0.135   0.180   0.250
    1UNL    H21   43   0.264   0.098   0.335
    1UNL    H22   44   0.305   0.281   0.104
    1UNL    H23   45   0.458   0.033   0.135
    1UNL    H24   46   0.298  -0.174   0.266
    1UNL    H25   47   0.462  -0.203   0.011
    1UNL    H26   48   0.487   0.013  -0.094
    1UNL    H27   49   0.252  -0.297   0.043
    1UNL    H28   50   0.257  -0.188  -0.219
    1UNL    H29   51  -0.049   0.114   0.064
    1UNL    H30   52  -0.114  -0.034   0.048
   0.00000   0.00000   0.00000   0.00000   0.00000   0.00000   0.00000   0.00000   0.00000
Generated with MDTraj, t= 74.0
 52
    1UNL     C1    1  -0.258   0.254   0.164
    1UNL     C2    2  -0.325   0.130   0.090
    1UNL     C3    3  -0.345   0.017   0.185
    1UNL     C4    4  -0.244   0.100  -0.035
    1UNL     C5    5  -0.319   0.002  -0.138
    1UNL     C6    6  -0.234  -0.011  -0.270
    1UNL     C7    7  -0.085  -0.067  -0.251
    1UNL     C8    8  -0.079  -0.217  -0.222
    1UNL     C9    9  -0.016   0.019  -0.143
    1UNL     O1   10   0.117  -0.036  -0.119
    1UNL    C10   11   0.123  -0.115  -0.007
    1UNL     O2   12   0.126  -0.046   0.118
    1UNL    C11   13   0.242   0.048   0.116
    1UNL    C12   14   0.235   0.153   0.223
    1UNL     O3   15   0.333   0.254   0.217
    1UNL    C13   16   0.370  -0.033   0.134
    1UNL     O4   17   0.365  -0.101   0.253
    1UNL    C14   18   0.380  -0.125   0.006
    1UNL     O5   19   0.393  -0.052  -0.117
    1UNL    C15   20   0.251  -0.209  -0.018
    1UNL     O6   21   0.262  -0.270  -0.140
    1UNL    C16   22  -0.105   0.032  -0.015
    1UNL     H1   23  -0.311   0.288   0.257
    1UNL     H2   24  -0.148   0.228   0.181
    1UNL     H3   25  -0.251   0.345   0.093
    1UNL     H4   26  -0.425   0.157   0.054
    1UNL     H5   27  -0.410  -0.062   0.140
    1UNL     H6   28  -0.252  -0.033   0.212
    1UNL     H7   29  -0.394   0.053   0.286
    1UNL     H8   30  -0.225   0.195  -0.082
    1UNL     H9   31  -0.342  -0.102  -0.099
    1UNL    H10   32  -0.409   0.054  -0.162
    1UNL    H11   33  -0.227   0.102  -0.309
    1UNL    H12   34  -0.294  -0.073  -0.348
    1UNL    H13   35  -0.031  -0.050  -0.348
    1UNL    H14   36  -0.129  -0.287  -0.290
    1UNL    H15   37   0.025  -0.247  -0.218
    1UNL    H16   38  -0.132  -0.238  -0.128
    1UNL    H17   39  -0.007   0.124  -0.181
    1UNL    H18   40   0.039  -0.189   0.003
    1UNL    H19   41   0.240   0.099   0.020
    1UNL    H20   42   0.136   0.197   0.228
    1UNL    H21   43   0.241   0.102   0.331
    1UNL    H22   44   0.329   0.307   0.133
    1UNL    H23   45   0.455   0.043   0.133
    1UNL    H24   46   0.283  -0.151   0.260
    1UNL    H25   47   0.469  -0.190   0.007
    1UNL    H26   48   0.439   0.033  -0.111
    1UNL    H27   49   0.252  -0.288   0.060
    1UNL    H28   50   0.327  -0.225  -0.201
    1UNL    H29   51  -0.050   0.073   0.070
    1UNL    H30   52  -0.128  -0.066   0.018
   0.00000   0.00000   0.00000   0.00000   0.00000   0.00000   0.00000   0.00000   0.00000
Generated with MDTraj, t= 75.0
 52
    1UNL     C1    1  -0.222   0.236   0.169
    1UNL     C2    2  -0.303   0.131   0.090
    1UNL     C3    3  -0.337   0.009   0.179
    1UNL     C4    4  -0.232   0.099  -0.043
    1UNL     C5    5  -0.324   0.009  -0.139
    1UNL     C6    6  -0.259   0.001  -0.272
    1UNL     C7    7  -0.116  -0.071  -0.260
    1UNL     C8    8  -0.114  -0.223  -0.250
    1UNL     C9    9  -0.029   0.004  -0.151
    1UNL     O1   10   0.101  -0.058  -0.124
    1UNL    C10   11   0.126  -0.122  -0.000
    1UNL     O2   12   0.128  -0.031   0.111
    1UNL    C11   13   0.244   0.064   0.111
    1UNL    C12   14   0.219   0.173   0.226
    1UNL     O3   15   0.329   0.253   0.253
    1UNL    C13   16   0.378  -0.020   0.134
    1UNL     O4   17   0.360  -0.095   0.250
    1UNL    C14   18   0.394  -0.117   0.006
    1UNL     O5   19   0.418  -0.049  -0.116
    1UNL    C15   20   0.260  -0.206  -0.005
    1UNL     O6   21   0.265  -0.276  -0.126
    1UNL    C16   22  -0.107   0.020  -0.019
    1UNL     H1   23  -0.276   0.283   0.258
    1UNL     H2   24  -0.131   0.177   0.205
    1UNL     H3   25  -0.175   0.320   0.107
    1UNL     H4   26  -0.403   0.166   0.059
    1UNL     H5   27  -0.388  -0.062   0.107
    1UNL     H6   28  -0.246  -0.041   0.228
    1UNL     H7   29  -0.407   0.036   0.250
    1UNL     H8   30  -0.200   0.185  -0.099
    1UNL     H9   31  -0.324  -0.092  -0.090
    1UNL    H10   32  -0.425   0.042  -0.149
    1UNL    H11   33  -0.243   0.111  -0.318
    1UNL    H12   34  -0.327  -0.054  -0.346
    1UNL    H13   35  -0.065  -0.058  -0.358
    1UNL    H14   36  -0.151  -0.267  -0.340
    1UNL    H15   37  -0.007  -0.247  -0.236
    1UNL    H16   38  -0.183  -0.249  -0.165
    1UNL    H17   39  -0.015   0.108  -0.195
    1UNL    H18   40   0.043  -0.193   0.029
    1UNL    H19   41   0.259   0.104   0.014
    1UNL    H20   42   0.134   0.231   0.198
    1UNL    H21   43   0.189   0.121   0.328
    1UNL    H22   44   0.356   0.305   0.168
    1UNL    H23   45   0.470   0.045   0.154
    1UNL    H24   46   0.265  -0.119   0.254
    1UNL    H25   47   0.485  -0.177   0.031
    1UNL    H26   48   0.501  -0.003  -0.102
    1UNL    H27   49   0.266  -0.283   0.073
    1UNL    H28   50   0.274  -0.214  -0.205
    1UNL    H29   51  -0.035   0.072   0.043
    1UNL    H30   52  -0.136  -0.073   0.031
   0.00000   0.00000   0.00000   0.00000   0.00000   0.00000   0.00000   0.00000   0.00000
Generated with MDTraj, t= 76.0
 52
    1UNL     C1    1  -0.225   0.228   0.186
    1UNL     C2    2  -0.309   0.133   0.094
    1UNL     C3    3  -0.346   0.005   0.166
    1UNL     C4    4  -0.225   0.101  -0.035
    1UNL     C5    5  -0.316   0.038  -0.146
    1UNL     C6    6  -0.235   0.015  -0.275
    1UNL     C7    7  -0.110  -0.079  -0.251
    1UNL     C8    8  -0.135  -0.219  -0.212
    1UNL     C9    9  -0.022  -0.007  -0.149
    1UNL     O1   10   0.109  -0.061  -0.134
    1UNL    C10   11   0.131  -0.124  -0.009
    1UNL     O2   12   0.125  -0.048   0.115
    1UNL    C11   13   0.224   0.055   0.107
    1UNL    C12   14   0.204   0.165   0.217
    1UNL     O3   15   0.324   0.236   0.219
    1UNL    C13   16   0.361  -0.017   0.130
    1UNL     O4   17   0.357  -0.085   0.252
    1UNL    C14   18   0.395  -0.104   0.006
    1UNL     O5   19   0.425  -0.032  -0.106
    1UNL    C15   20   0.267  -0.201  -0.009
    1UNL     O6   21   0.279  -0.282  -0.127
    1UNL    C16   22  -0.099   0.017  -0.011
    1UNL     H1   23  -0.283   0.270   0.277
    1UNL     H2   24  -0.138   0.168   0.229
    1UNL     H3   25  -0.175   0.317   0.137
    1UNL     H4   26  -0.405   0.182   0.064
    1UNL     H5   27  -0.391  -0.066   0.093
    1UNL     H6   28  -0.247  -0.048   0.199
    1UNL     H7   29  -0.406   0.017   0.247
    1UNL     H8   30  -0.183   0.194  -0.070
    1UNL     H9   31  -0.357  -0.063  -0.117
    1UNL    H10   32  -0.399   0.105  -0.149
    1UNL    H11   33  -0.200   0.111  -0.327
    1UNL    H12   34  -0.296  -0.051  -0.346
    1UNL    H13   35  -0.048  -0.083  -0.342
    1UNL    H14   36  -0.179  -0.269  -0.294
    1UNL    H15   37  -0.034  -0.262  -0.191
    1UNL    H16   38  -0.208  -0.225  -0.125
    1UNL    H17   39  -0.007   0.096  -0.196
    1UNL    H18   40   0.047  -0.196   0.013
    1UNL    H19   41   0.231   0.090   0.005
    1UNL    H20   42   0.122   0.232   0.200
    1UNL    H21   43   0.189   0.108   0.318
    1UNL    H22   44   0.324   0.302   0.143
    1UNL    H23   45   0.443   0.060   0.142
    1UNL    H24   46   0.266  -0.129   0.265
    1UNL    H25   47   0.472  -0.181   0.025
    1UNL    H26   48   0.518   0.005  -0.110
    1UNL    H27   49   0.265  -0.278   0.069
    1UNL    H28   50   0.263  -0.224  -0.202
    1UNL    H29   51  -0.032   0.082   0.043
    1UNL    H30   52  -0.108  -0.081   0.044
   0.00000   0.00000   0.00000   0.00000   0.00000   0.00000   0.00000   0.00000   0.00000
Generated with MDTraj, t= 77.0
 52
    1UNL     C1    1  -0.247   0.229   0.194
    1UNL     C2    2  -0.307   0.126   0.091
    1UNL     C3    3  -0.368   0.006   0.157
    1UNL     C4    4  -0.217   0.118  -0.039
    1UNL     C5    5  -0.303   0.048  -0.148
    1UNL     C6    6  -0.216   0.019  -0.271
    1UNL     C7    7  -0.095  -0.072  -0.233
    1UNL     C8    8  -0.130  -0.211  -0.186
    1UNL     C9    9  -0.002   0.004  -0.139
    1UNL     O1   10   0.118  -0.066  -0.126
    1UNL    C10   11   0.141  -0.135  -0.008
    1UNL     O2   12   0.138  -0.056   0.113
    1UNL    C11   13   0.238   0.046   0.109
    1UNL    C12   14   0.209   0.152   0.219
    1UNL     O3   15   0.267   0.279   0.190
    1UNL    C13   16   0.371  -0.033   0.134
    1UNL     O4   17   0.379  -0.103   0.260
    1UNL    C14   18   0.391  -0.118   0.000
    1UNL     O5   19   0.393  -0.044  -0.113
    1UNL    C15   20   0.271  -0.217  -0.017
    1UNL     O6   21   0.269  -0.274  -0.146
    1UNL    C16   22  -0.094   0.031  -0.010
    1UNL     H1   23  -0.322   0.253   0.278
    1UNL     H2   24  -0.147   0.197   0.239
    1UNL     H3   25  -0.232   0.328   0.142
    1UNL     H4   26  -0.396   0.184   0.052
    1UNL     H5   27  -0.426  -0.053   0.089
    1UNL     H6   28  -0.288  -0.064   0.185
    1UNL     H7   29  -0.424   0.021   0.249
    1UNL     H8   30  -0.187   0.217  -0.066
    1UNL     H9   31  -0.354  -0.034  -0.094
    1UNL    H10   32  -0.383   0.113  -0.180
    1UNL    H11   33  -0.179   0.105  -0.327
    1UNL    H12   34  -0.273  -0.052  -0.342
    1UNL    H13   35  -0.031  -0.077  -0.322
    1UNL    H14   36  -0.197  -0.268  -0.249
    1UNL    H15   37  -0.038  -0.275  -0.187
    1UNL    H16   38  -0.179  -0.222  -0.087
    1UNL    H17   39   0.023   0.102  -0.185
    1UNL    H18   40   0.056  -0.206   0.013
    1UNL    H19   41   0.239   0.092   0.009
    1UNL    H20   42   0.103   0.160   0.237
    1UNL    H21   43   0.263   0.123   0.316
    1UNL    H22   44   0.230   0.317   0.111
    1UNL    H23   45   0.450   0.044   0.152
    1UNL    H24   46   0.295  -0.142   0.281
    1UNL    H25   47   0.487  -0.173   0.014
    1UNL    H26   48   0.476   0.015  -0.114
    1UNL    H27   49   0.272  -0.293   0.060
    1UNL    H28   50   0.272  -0.188  -0.202
    1UNL    H29   51  -0.030   0.080   0.062
    1UNL    H30   52  -0.134  -0.069   0.028
   0.00000   0.00000   0.00000   0.00000   0.00000   0.00000   0.00000   0.00000   0.00000
Generated with MDTraj, t= 78.0
 52
    1UNL     C1    1  -0.230   0.228   0.177
    1UNL     C2    2  -0.322   0.145   0.090
    1UNL     C3    3  -0.365   0.018   0.161
    1UNL     C4    4  -0.238   0.110  -0.034
    1UNL     C5    5  -0.316   0.040  -0.151
    1UNL     C6    6  -0.225   0.013  -0.275
    1UNL     C7    7  -0.085  -0.057  -0.248
    1UNL     C8    8  -0.107  -0.205  -0.217
    1UNL     C9    9  -0.007   0.010  -0.127
    1UNL     O1   10   0.121  -0.040  -0.095
    1UNL    C10   11   0.138  -0.129   0.007
    1UNL     O2   12   0.137  -0.061   0.132
    1UNL    C11   13   0.240   0.039   0.126
    1UNL    C12   14   0.217   0.146   0.235
    1UNL     O3   15   0.218   0.279   0.176
    1UNL    C13   16   0.380  -0.036   0.125
    1UNL     O4   17   0.401  -0.109   0.241
    1UNL    C14   18   0.395  -0.128  -0.007
    1UNL     O5   19   0.410  -0.066  -0.136
    1UNL    C15   20   0.270  -0.214  -0.009
    1UNL     O6   21   0.271  -0.281  -0.130
    1UNL    C16   22  -0.101   0.029  -0.000
    1UNL     H1   23  -0.290   0.261   0.268
    1UNL     H2   24  -0.142   0.168   0.217
    1UNL     H3   25  -0.187   0.323   0.128
    1UNL     H4   26  -0.411   0.207   0.059
    1UNL     H5   27  -0.414  -0.045   0.093
    1UNL     H6   28  -0.281  -0.032   0.183
    1UNL     H7   29  -0.422   0.033   0.259
    1UNL     H8   30  -0.210   0.206  -0.075
    1UNL     H9   31  -0.365  -0.050  -0.120
    1UNL    H10   32  -0.399   0.108  -0.176
    1UNL    H11   33  -0.203   0.105  -0.322
    1UNL    H12   34  -0.271  -0.062  -0.351
    1UNL    H13   35  -0.026  -0.039  -0.339
    1UNL    H14   36  -0.168  -0.259  -0.292
    1UNL    H15   37  -0.011  -0.262  -0.213
    1UNL    H16   38  -0.163  -0.210  -0.125
    1UNL    H17   39   0.014   0.112  -0.158
    1UNL    H18   40   0.058  -0.205  -0.005
    1UNL    H19   41   0.226   0.086   0.024
    1UNL    H20   42   0.120   0.131   0.279
    1UNL    H21   43   0.295   0.148   0.318
    1UNL    H22   44   0.161   0.282   0.099
    1UNL    H23   45   0.457   0.040   0.115
    1UNL    H24   46   0.318  -0.149   0.270
    1UNL    H25   47   0.490  -0.185  -0.004
    1UNL    H26   48   0.457   0.021  -0.129
    1UNL    H27   49   0.280  -0.299   0.059
    1UNL    H28   50   0.272  -0.213  -0.197
    1UNL    H29   51  -0.043   0.094   0.067
    1UNL    H30   52  -0.123  -0.074   0.044
   0.00000   0.00000   0.00000   0.00000   0.00000   0.00000   0.00000   0.00000   0.00000
Generated with MDTraj, t= 79.0
 52
    1UNL     C1    1  -0.238   0.244   0.179
    1UNL     C2    2  -0.304   0.141   0.090
    1UNL     C3    3  -0.360   0.022   0.176
    1UNL     C4    4  -0.220   0.104  -0.035
    1UNL     C5    5  -0.303   0.020  -0.134
    1UNL     C6    6  -0.226   0.014  -0.270
    1UNL     C7    7  -0.086  -0.056  -0.249
    1UNL     C8    8  -0.095  -0.212  -0.265
    1UNL     C9    9  -0.004   0.014  -0.129
    1UNL     O1   10   0.118  -0.058  -0.109
    1UNL    C10   11   0.127  -0.130   0.007
    1UNL     O2   12   0.131  -0.045   0.122
    1UNL    C11   13   0.245   0.047   0.120
    1UNL    C12   14   0.249   0.151   0.237
    1UNL     O3   15   0.186   0.270   0.197
    1UNL    C13   16   0.379  -0.028   0.119
    1UNL     O4   17   0.396  -0.096   0.238
    1UNL    C14   18   0.388  -0.134   0.001
    1UNL     O5   19   0.406  -0.078  -0.128
    1UNL    C15   20   0.262  -0.217  -0.004
    1UNL     O6   21   0.252  -0.277  -0.127
    1UNL    C16   22  -0.089   0.032   0.001
    1UNL     H1   23  -0.318   0.272   0.253
    1UNL     H2   24  -0.156   0.197   0.242
    1UNL     H3   25  -0.192   0.341   0.132
    1UNL     H4   26  -0.396   0.188   0.042
    1UNL     H5   27  -0.406  -0.052   0.121
    1UNL     H6   28  -0.286  -0.019   0.237
    1UNL     H7   29  -0.433   0.072   0.247
    1UNL     H8   30  -0.190   0.189  -0.092
    1UNL     H9   31  -0.307  -0.077  -0.093
    1UNL    H10   32  -0.404   0.057  -0.158
    1UNL    H11   33  -0.203   0.111  -0.301
    1UNL    H12   34  -0.290  -0.040  -0.348
    1UNL    H13   35  -0.031  -0.017  -0.335
    1UNL    H14   36  -0.148  -0.224  -0.365
    1UNL    H15   37   0.005  -0.258  -0.277
    1UNL    H16   38  -0.160  -0.243  -0.187
    1UNL    H17   39   0.035   0.111  -0.151
    1UNL    H18   40   0.040  -0.195   0.004
    1UNL    H19   41   0.236   0.097   0.018
    1UNL    H20   42   0.203   0.125   0.331
    1UNL    H21   43   0.358   0.179   0.259
    1UNL    H22   44   0.095   0.244   0.164
    1UNL    H23   45   0.464   0.037   0.110
    1UNL    H24   46   0.315  -0.144   0.275
    1UNL    H25   47   0.477  -0.191   0.030
    1UNL    H26   48   0.470  -0.007  -0.121
    1UNL    H27   49   0.266  -0.292   0.076
    1UNL    H28   50   0.262  -0.202  -0.197
    1UNL    H29   51  -0.032   0.085   0.080
    1UNL    H30   52  -0.126  -0.071   0.031
   0.00000   0.00000   0.00000   0.00000   0.00000   0.00000   0.00000   0.00000   0.00000
Generated with MDTraj, t= 80.0
 52
    1UNL     C1    1  -0.243   0.245   0.174
    1UNL     C2    2  -0.313   0.133   0.097
    1UNL     C3    3  -0.330   0.005   0.179
    1UNL     C4    4  -0.232   0.105  -0.035
    1UNL     C5    5  -0.304   0.040  -0.150
    1UNL     C6    6  -0.223   0.018  -0.283
    1UNL     C7    7  -0.084  -0.048  -0.256
    1UNL     C8    8  -0.096  -0.199  -0.224
    1UNL     C9    9  -0.008   0.018  -0.134
    1UNL     O1   10   0.117  -0.043  -0.120
    1UNL    C10   11   0.125  -0.103   0.003
    1UNL     O2   12   0.145  -0.015   0.114
    1UNL    C11   13   0.270   0.052   0.095
    1UNL    C12   14   0.272   0.162   0.197
    1UNL     O3   15   0.140   0.214   0.211
    1UNL    C13   16   0.396  -0.045   0.123
    1UNL     O4   17   0.394  -0.108   0.248
    1UNL    C14   18   0.384  -0.139   0.007
    1UNL     O5   19   0.410  -0.067  -0.113
    1UNL    C15   20   0.249  -0.208   0.003
    1UNL     O6   21   0.248  -0.293  -0.105
    1UNL    C16   22  -0.098   0.023  -0.007
    1UNL     H1   23  -0.293   0.289   0.266
    1UNL     H2   24  -0.141   0.205   0.205
    1UNL     H3   25  -0.220   0.329   0.099
    1UNL     H4   26  -0.415   0.176   0.075
    1UNL     H5   27  -0.381  -0.070   0.130
    1UNL     H6   28  -0.233  -0.038   0.217
    1UNL     H7   29  -0.383   0.033   0.267
    1UNL     H8   30  -0.199   0.199  -0.072
    1UNL     H9   31  -0.341  -0.055  -0.125
    1UNL    H10   32  -0.389   0.110  -0.172
    1UNL    H11   33  -0.219   0.111  -0.329
    1UNL    H12   34  -0.278  -0.057  -0.345
    1UNL    H13   35  -0.037  -0.025  -0.353
    1UNL    H14   36  -0.132  -0.251  -0.320
    1UNL    H15   37   0.002  -0.241  -0.199
    1UNL    H16   38  -0.174  -0.209  -0.151
    1UNL    H17   39   0.014   0.121  -0.155
    1UNL    H18   40   0.032  -0.155   0.011
    1UNL    H19   41   0.269   0.101  -0.008
    1UNL    H20   42   0.301   0.118   0.291
    1UNL    H21   43   0.333   0.256   0.175
    1UNL    H22   44   0.080   0.131   0.221
    1UNL    H23   45   0.479   0.021   0.112
    1UNL    H24   46   0.304  -0.152   0.259
    1UNL    H25   47   0.453  -0.223   0.017
    1UNL    H26   48   0.491  -0.014  -0.111
    1UNL    H27   49   0.234  -0.271   0.094
    1UNL    H28   50   0.268  -0.245  -0.186
    1UNL    H29   51  -0.047   0.060   0.088
    1UNL    H30   52  -0.135  -0.081   0.010
   0.00000   0.00000   0.00000   0.00000   0.00000   0.00000   0.00000   0.00000   0.00000
Generated with MDTraj, t= 81.0
 52
    1UNL     C1    1  -0.270   0.247   0.173
    1UNL     C2    2  -0.307   0.134   0.083
    1UNL     C3    3  -0.328  -0.005   0.156
    1UNL     C4    4  -0.221   0.119  -0.042
    1UNL     C5    5  -0.296   0.046  -0.148
    1UNL     C6    6  -0.212   0.026  -0.279
    1UNL     C7    7  -0.088  -0.053  -0.242
    1UNL     C8    8  -0.121  -0.198  -0.208
    1UNL     C9    9  -0.004   0.014  -0.131
    1UNL     O1   10   0.104  -0.072  -0.112
    1UNL    C10   11   0.128  -0.122   0.017
    1UNL     O2   12   0.140  -0.019   0.116
    1UNL    C11   13   0.252   0.062   0.090
    1UNL    C12   14   0.266   0.170   0.199
    1UNL     O3   15   0.143   0.208   0.258
    1UNL    C13   16   0.385  -0.020   0.101
    1UNL     O4   17   0.396  -0.084   0.228
    1UNL    C14   18   0.396  -0.144   0.006
    1UNL     O5   19   0.431  -0.096  -0.121
    1UNL    C15   20   0.258  -0.218   0.002
    1UNL     O6   21   0.247  -0.279  -0.123
    1UNL    C16   22  -0.087   0.043  -0.006
    1UNL     H1   23  -0.334   0.267   0.268
    1UNL     H2   24  -0.163   0.236   0.210
    1UNL     H3   25  -0.276   0.340   0.107
    1UNL     H4   26  -0.407   0.171   0.051
    1UNL     H5   27  -0.376  -0.081   0.096
    1UNL     H6   28  -0.235  -0.056   0.197
    1UNL     H7   29  -0.387   0.011   0.234
    1UNL     H8   30  -0.189   0.213  -0.079
    1UNL     H9   31  -0.317  -0.045  -0.100
    1UNL    H10   32  -0.394   0.090  -0.179
    1UNL    H11   33  -0.169   0.119  -0.310
    1UNL    H12   34  -0.277  -0.020  -0.348
    1UNL    H13   35  -0.026  -0.040  -0.332
    1UNL    H14   36  -0.192  -0.247  -0.280
    1UNL    H15   37  -0.034  -0.264  -0.213
    1UNL    H16   38  -0.171  -0.216  -0.111
    1UNL    H17   39   0.044   0.106  -0.168
    1UNL    H18   40   0.041  -0.179   0.038
    1UNL    H19   41   0.238   0.101  -0.013
    1UNL    H20   42   0.319   0.127   0.282
    1UNL    H21   43   0.326   0.257   0.156
    1UNL    H22   44   0.102   0.129   0.289
    1UNL    H23   45   0.474   0.037   0.089
    1UNL    H24   46   0.321  -0.141   0.243
    1UNL    H25   47   0.471  -0.210   0.054
    1UNL    H26   48   0.527  -0.067  -0.123
    1UNL    H27   49   0.245  -0.296   0.081
    1UNL    H28   50   0.252  -0.214  -0.200
    1UNL    H29   51  -0.029   0.109   0.066
    1UNL    H30   52  -0.105  -0.056   0.045
   0.00000   0.00000   0.00000   0.00000   0.00000   0.00000   0.00000   0.00000   0.00000
Generated with MDTraj, t= 82.0
 52
    1UNL     C1    1  -0.244   0.246   0.176
    1UNL     C2    2  -0.312   0.153   0.078
    1UNL     C3    3  -0.350   0.014   0.150
    1UNL     C4    4  -0.224   0.115  -0.040
    1UNL     C5    5  -0.302   0.055  -0.153
    1UNL     C6    6  -0.213   0.024  -0.278
    1UNL     C7    7  -0.087  -0.059  -0.242
    1UNL     C8    8  -0.127  -0.203  -0.215
    1UNL     C9    9  -0.011   0.012  -0.130
    1UNL     O1   10   0.124  -0.031  -0.107
    1UNL    C10   11   0.137  -0.118   0.007
    1UNL     O2   12   0.152  -0.036   0.121
    1UNL    C11   13   0.260   0.055   0.114
    1UNL    C12   14   0.244   0.163   0.221
    1UNL     O3   15   0.105   0.181   0.230
    1UNL    C13   16   0.398  -0.020   0.100
    1UNL     O4   17   0.449  -0.074   0.224
    1UNL    C14   18   0.387  -0.135  -0.006
    1UNL     O5   19   0.409  -0.091  -0.133
    1UNL    C15   20   0.254  -0.216   0.008
    1UNL     O6   21   0.257  -0.307  -0.098
    1UNL    C16   22  -0.094   0.036  -0.001
    1UNL     H1   23  -0.316   0.266   0.266
    1UNL     H2   24  -0.148   0.209   0.223
    1UNL     H3   25  -0.226   0.349   0.133
    1UNL     H4   26  -0.402   0.208   0.045
    1UNL     H5   27  -0.386  -0.069   0.088
    1UNL     H6   28  -0.264  -0.022   0.207
    1UNL     H7   29  -0.420   0.038   0.231
    1UNL     H8   30  -0.189   0.204  -0.084
    1UNL     H9   31  -0.351  -0.034  -0.120
    1UNL    H10   32  -0.386   0.127  -0.169
    1UNL    H11   33  -0.190   0.115  -0.328
    1UNL    H12   34  -0.259  -0.041  -0.340
    1UNL    H13   35  -0.023  -0.062  -0.331
    1UNL    H14   36  -0.177  -0.247  -0.301
    1UNL    H15   37  -0.043  -0.273  -0.196
    1UNL    H16   38  -0.199  -0.219  -0.128
    1UNL    H17   39   0.010   0.115  -0.170
    1UNL    H18   40   0.051  -0.180   0.006
    1UNL    H19   41   0.238   0.099   0.017
    1UNL    H20   42   0.277   0.123   0.314
    1UNL    H21   43   0.288   0.265   0.195
    1UNL    H22   44   0.058   0.090   0.243
    1UNL    H23   45   0.475   0.048   0.062
    1UNL    H24   46   0.396  -0.152   0.244
    1UNL    H25   47   0.471  -0.204   0.015
    1UNL    H26   48   0.497  -0.041  -0.143
    1UNL    H27   49   0.249  -0.276   0.102
    1UNL    H28   50   0.288  -0.271  -0.181
    1UNL    H29   51  -0.023   0.087   0.073
    1UNL    H30   52  -0.120  -0.065   0.038
   0.00000   0.00000   0.00000   0.00000   0.00000   0.00000   0.00000   0.00000   0.00000
Generated with MDTraj, t= 83.0
 52
    1UNL     C1    1  -0.217   0.243   0.172
    1UNL     C2    2  -0.302   0.166   0.080
    1UNL     C3    3  -0.370   0.050   0.154
    1UNL     C4    4  -0.206   0.118  -0.041
    1UNL     C5    5  -0.287   0.041  -0.150
    1UNL     C6    6  -0.211   0.017  -0.274
    1UNL     C7    7  -0.079  -0.060  -0.245
    1UNL     C8    8  -0.109  -0.215  -0.233
    1UNL     C9    9  -0.000   0.001  -0.124
    1UNL     O1   10   0.121  -0.076  -0.099
    1UNL    C10   11   0.137  -0.150   0.022
    1UNL     O2   12   0.147  -0.056   0.132
    1UNL    C11   13   0.237   0.049   0.108
    1UNL    C12   14   0.248   0.156   0.221
    1UNL     O3   15   0.126   0.207   0.263
    1UNL    C13   16   0.372  -0.012   0.094
    1UNL     O4   17   0.410  -0.053   0.226
    1UNL    C14   18   0.376  -0.118  -0.015
    1UNL     O5   19   0.372  -0.063  -0.142
    1UNL    C15   20   0.267  -0.232  -0.002
    1UNL     O6   21   0.274  -0.301  -0.126
    1UNL    C16   22  -0.088   0.029   0.000
    1UNL     H1   23  -0.285   0.313   0.233
    1UNL     H2   24  -0.149   0.189   0.247
    1UNL     H3   25  -0.158   0.313   0.104
    1UNL     H4   26  -0.378   0.234   0.039
    1UNL     H5   27  -0.426  -0.018   0.087
    1UNL     H6   28  -0.302  -0.004   0.209
    1UNL     H7   29  -0.444   0.096   0.237
    1UNL     H8   30  -0.171   0.200  -0.098
    1UNL     H9   31  -0.322  -0.050  -0.103
    1UNL    H10   32  -0.383   0.089  -0.174
    1UNL    H11   33  -0.176   0.106  -0.320
    1UNL    H12   34  -0.273  -0.027  -0.341
    1UNL    H13   35  -0.010  -0.055  -0.331
    1UNL    H14   36  -0.144  -0.248  -0.329
    1UNL    H15   37  -0.020  -0.276  -0.209
    1UNL    H16   38  -0.188  -0.231  -0.151
    1UNL    H17   39   0.033   0.105  -0.158
    1UNL    H18   40   0.061  -0.224   0.036
    1UNL    H19   41   0.200   0.100   0.022
    1UNL    H20   42   0.291   0.116   0.309
    1UNL    H21   43   0.304   0.250   0.185
    1UNL    H22   44   0.067   0.137   0.295
    1UNL    H23   45   0.438   0.073   0.070
    1UNL    H24   46   0.359  -0.137   0.246
    1UNL    H25   47   0.476  -0.167  -0.005
    1UNL    H26   48   0.435   0.012  -0.155
    1UNL    H27   49   0.284  -0.297   0.086
    1UNL    H28   50   0.292  -0.233  -0.198
    1UNL    H29   51  -0.030   0.095   0.071
    1UNL    H30   52  -0.115  -0.068   0.048
   0.00000   0.00000   0.00000   0.00000   0.00000   0.00000   0.00000   0.00000   0.00000
Generated with MDTraj, t= 84.0
 52
    1UNL     C1    1  -0.194   0.247   0.167
    1UNL     C2    2  -0.293   0.165   0.081
    1UNL     C3    3  -0.369   0.062   0.171
    1UNL     C4    4  -0.214   0.117  -0.038
    1UNL     C5    5  -0.302   0.052  -0.157
    1UNL     C6    6  -0.223   0.010  -0.279
    1UNL     C7    7  -0.092  -0.071  -0.248
    1UNL     C8    8  -0.121  -0.220  -0.228
    1UNL     C9    9  -0.015  -0.005  -0.133
    1UNL     O1   10   0.107  -0.081  -0.113
    1UNL    C10   11   0.150  -0.127   0.016
    1UNL     O2   12   0.161  -0.034   0.124
    1UNL    C11   13   0.260   0.062   0.108
    1UNL    C12   14   0.233   0.160   0.228
    1UNL     O3   15   0.094   0.162   0.246
    1UNL    C13   16   0.397  -0.011   0.105
    1UNL     O4   17   0.408  -0.083   0.226
    1UNL    C14   18   0.402  -0.110  -0.013
    1UNL     O5   19   0.396  -0.036  -0.134
    1UNL    C15   20   0.277  -0.212   0.004
    1UNL     O6   21   0.264  -0.309  -0.103
    1UNL    C16   22  -0.097   0.021  -0.008
    1UNL     H1   23  -0.247   0.302   0.250
    1UNL     H2   24  -0.108   0.189   0.213
    1UNL     H3   25  -0.149   0.326   0.093
    1UNL     H4   26  -0.362   0.240   0.043
    1UNL     H5   27  -0.462   0.023   0.120
    1UNL     H6   28  -0.317  -0.022   0.211
    1UNL     H7   29  -0.408   0.122   0.263
    1UNL     H8   30  -0.177   0.202  -0.086
    1UNL     H9   31  -0.367  -0.032  -0.125
    1UNL    H10   32  -0.382   0.124  -0.179
    1UNL    H11   33  -0.200   0.094  -0.333
    1UNL    H12   34  -0.278  -0.051  -0.344
    1UNL    H13   35  -0.028  -0.078  -0.339
    1UNL    H14   36  -0.163  -0.265  -0.317
    1UNL    H15   37  -0.025  -0.272  -0.206
    1UNL    H16   38  -0.187  -0.232  -0.136
    1UNL    H17   39   0.008   0.099  -0.174
    1UNL    H18   40   0.074  -0.196   0.053
    1UNL    H19   41   0.246   0.112   0.014
    1UNL    H20   42   0.273   0.117   0.316
    1UNL    H21   43   0.276   0.262   0.197
    1UNL    H22   44   0.064   0.071   0.254
    1UNL    H23   45   0.485   0.060   0.096
    1UNL    H24   46   0.321  -0.132   0.245
    1UNL    H25   47   0.490  -0.179  -0.012
    1UNL    H26   48   0.477   0.014  -0.148
    1UNL    H27   49   0.282  -0.261   0.102
    1UNL    H28   50   0.226  -0.260  -0.180
    1UNL    H29   51  -0.028   0.048   0.075
    1UNL    H30   52  -0.150  -0.077   0.007
   0.00000   0.00000   0.00000   0.00000   0.00000   0.00000   0.00000   0.00000   0.00000
Generated with MDTraj, t= 85.0
 52
    1UNL     C1    1  -0.211   0.268   0.166
    1UNL     C2    2  -0.290   0.164   0.080
    1UNL     C3    3  -0.341   0.040   0.173
    1UNL     C4    4  -0.205   0.117  -0.040
    1UNL     C5    5  -0.298   0.052  -0.145
    1UNL     C6    6  -0.225   0.012  -0.277
    1UNL     C7    7  -0.101  -0.079  -0.246
    1UNL     C8    8  -0.142  -0.215  -0.195
    1UNL     C9    9  -0.010  -0.007  -0.144
    1UNL     O1   10   0.124  -0.076  -0.132
    1UNL    C10   11   0.140  -0.143  -0.010
    1UNL     O2   12   0.139  -0.060   0.115
    1UNL    C11   13   0.232   0.047   0.108
    1UNL    C12   14   0.220   0.164   0.214
    1UNL     O3   15   0.095   0.193   0.274
    1UNL    C13   16   0.377  -0.011   0.111
    1UNL     O4   17   0.401  -0.066   0.240
    1UNL    C14   18   0.397  -0.120   0.001
    1UNL     O5   19   0.441  -0.063  -0.120
    1UNL    C15   20   0.269  -0.218  -0.014
    1UNL     O6   21   0.277  -0.287  -0.140
    1UNL    C16   22  -0.079   0.038  -0.006
    1UNL     H1   23  -0.264   0.304   0.258
    1UNL     H2   24  -0.109   0.230   0.198
    1UNL     H3   25  -0.188   0.366   0.104
    1UNL     H4   26  -0.376   0.219   0.043
    1UNL     H5   27  -0.411  -0.024   0.110
    1UNL     H6   28  -0.261  -0.033   0.221
    1UNL     H7   29  -0.403   0.073   0.255
    1UNL     H8   30  -0.167   0.202  -0.084
    1UNL     H9   31  -0.356  -0.032  -0.096
    1UNL    H10   32  -0.379   0.119  -0.174
    1UNL    H11   33  -0.189   0.096  -0.320
    1UNL    H12   34  -0.299  -0.032  -0.341
    1UNL    H13   35  -0.029  -0.104  -0.330
    1UNL    H14   36  -0.227  -0.268  -0.240
    1UNL    H15   37  -0.057  -0.291  -0.198
    1UNL    H16   38  -0.163  -0.207  -0.088
    1UNL    H17   39   0.019   0.089  -0.193
    1UNL    H18   40   0.058  -0.217  -0.003
    1UNL    H19   41   0.215   0.089   0.009
    1UNL    H20   42   0.294   0.131   0.281
    1UNL    H21   43   0.246   0.261   0.157
    1UNL    H22   44   0.062   0.111   0.326
    1UNL    H23   45   0.449   0.074   0.092
    1UNL    H24   46   0.329  -0.126   0.265
    1UNL    H25   47   0.474  -0.191   0.036
    1UNL    H26   48   0.528  -0.026  -0.098
    1UNL    H27   49   0.270  -0.294   0.065
    1UNL    H28   50   0.291  -0.221  -0.210
    1UNL    H29   51  -0.008   0.108   0.036
    1UNL    H30   52  -0.087  -0.051   0.063
   0.00000   0.00000   0.00000   0.00000   0.00000   0.00000   0.00000   0.00000   0.00000
Generated with MDTraj, t= 86.0
 52
    1UNL     C1    1  -0.224   0.275   0.153
    1UNL     C2    2  -0.285   0.154   0.086
    1UNL     C3    3  -0.293   0.036   0.183
    1UNL     C4    4  -0.208   0.130  -0.052
    1UNL     C5    5  -0.304   0.046  -0.136
    1UNL     C6    6  -0.229  -0.006  -0.261
    1UNL     C7    7  -0.094  -0.078  -0.227
    1UNL     C8    8  -0.121  -0.216  -0.175
    1UNL     C9    9  -0.004   0.022  -0.147
    1UNL     O1   10   0.129  -0.040  -0.127
    1UNL    C10   11   0.143  -0.122  -0.013
    1UNL     O2   12   0.142  -0.049   0.114
    1UNL    C11   13   0.249   0.046   0.109
    1UNL    C12   14   0.204   0.151   0.216
    1UNL     O3   15   0.061   0.156   0.229
    1UNL    C13   16   0.387  -0.027   0.124
    1UNL     O4   17   0.394  -0.082   0.251
    1UNL    C14   18   0.401  -0.132   0.004
    1UNL     O5   19   0.425  -0.070  -0.125
    1UNL    C15   20   0.266  -0.216  -0.018
    1UNL     O6   21   0.262  -0.283  -0.141
    1UNL    C16   22  -0.075   0.060  -0.023
    1UNL     H1   23  -0.287   0.333   0.228
    1UNL     H2   24  -0.122   0.264   0.200
    1UNL     H3   25  -0.207   0.349   0.065
    1UNL     H4   26  -0.391   0.178   0.068
    1UNL     H5   27  -0.315  -0.062   0.125
    1UNL     H6   28  -0.195   0.022   0.248
    1UNL     H7   29  -0.376   0.051   0.248
    1UNL     H8   30  -0.184   0.219  -0.098
    1UNL     H9   31  -0.346  -0.050  -0.088
    1UNL    H10   32  -0.393   0.104  -0.158
    1UNL    H11   33  -0.222   0.077  -0.322
    1UNL    H12   34  -0.295  -0.076  -0.310
    1UNL    H13   35  -0.045  -0.099  -0.327
    1UNL    H14   36  -0.189  -0.289  -0.227
    1UNL    H15   37  -0.024  -0.274  -0.161
    1UNL    H16   38  -0.161  -0.209  -0.077
    1UNL    H17   39   0.010   0.108  -0.211
    1UNL    H18   40   0.051  -0.183  -0.007
    1UNL    H19   41   0.243   0.087   0.004
    1UNL    H20   42   0.232   0.120   0.313
    1UNL    H21   43   0.251   0.251   0.181
    1UNL    H22   44   0.037   0.071   0.259
    1UNL    H23   45   0.462   0.057   0.118
    1UNL    H24   46   0.306  -0.104   0.283
    1UNL    H25   47   0.486  -0.199   0.023
    1UNL    H26   48   0.510  -0.016  -0.117
    1UNL    H27   49   0.263  -0.286   0.064
    1UNL    H28   50   0.297  -0.218  -0.209
    1UNL    H29   51  -0.004   0.118   0.036
    1UNL    H30   52  -0.092  -0.033   0.035
   0.00000   0.00000   0.00000   0.00000   0.00000   0.00000   0.00000   0.00000   0.00000
Generated with MDTraj, t= 87.0
 52
    1UNL     C1    1  -0.223   0.299   0.119
    1UNL     C2    2  -0.294   0.163   0.082
    1UNL     C3    3  -0.280   0.059   0.189
    1UNL     C4    4  -0.214   0.116  -0.039
    1UNL     C5    5  -0.306   0.020  -0.121
    1UNL     C6    6  -0.243  -0.013  -0.262
    1UNL     C7    7  -0.099  -0.080  -0.239
    1UNL     C8    8  -0.103  -0.227  -0.210
    1UNL     C9    9  -0.008   0.009  -0.150
    1UNL     O1   10   0.125  -0.054  -0.125
    1UNL    C10   11   0.145  -0.130  -0.008
    1UNL     O2   12   0.130  -0.047   0.112
    1UNL    C11   13   0.239   0.046   0.121
    1UNL    C12   14   0.226   0.130   0.247
    1UNL     O3   15   0.102   0.194   0.259
    1UNL    C13   16   0.374  -0.030   0.129
    1UNL     O4   17   0.363  -0.113   0.247
    1UNL    C14   18   0.394  -0.118  -0.005
    1UNL     O5   19   0.405  -0.046  -0.133
    1UNL    C15   20   0.277  -0.213  -0.020
    1UNL     O6   21   0.286  -0.277  -0.143
    1UNL    C16   22  -0.074   0.054  -0.025
    1UNL     H1   23  -0.271   0.331   0.219
    1UNL     H2   24  -0.113   0.293   0.143
    1UNL     H3   25  -0.240   0.384   0.046
    1UNL     H4   26  -0.404   0.174   0.068
    1UNL     H5   27  -0.326  -0.044   0.160
    1UNL     H6   28  -0.177   0.044   0.217
    1UNL     H7   29  -0.337   0.085   0.282
    1UNL     H8   30  -0.199   0.197  -0.101
    1UNL     H9   31  -0.325  -0.078  -0.065
    1UNL    H10   32  -0.407   0.055  -0.141
    1UNL    H11   33  -0.239   0.076  -0.324
    1UNL    H12   34  -0.315  -0.075  -0.306
    1UNL    H13   35  -0.056  -0.076  -0.343
    1UNL    H14   36  -0.155  -0.287  -0.292
    1UNL    H15   37   0.001  -0.267  -0.201
    1UNL    H16   38  -0.157  -0.236  -0.119
    1UNL    H17   39   0.016   0.091  -0.214
    1UNL    H18   40   0.063  -0.202  -0.003
    1UNL    H19   41   0.231   0.099   0.020
    1UNL    H20   42   0.245   0.073   0.335
    1UNL    H21   43   0.290   0.227   0.243
    1UNL    H22   44   0.034   0.119   0.246
    1UNL    H23   45   0.452   0.046   0.148
    1UNL    H24   46   0.267  -0.127   0.268
    1UNL    H25   47   0.490  -0.171  -0.003
    1UNL    H26   48   0.466   0.033  -0.128
    1UNL    H27   49   0.289  -0.289   0.057
    1UNL    H28   50   0.277  -0.211  -0.212
    1UNL    H29   51  -0.012   0.129   0.023
    1UNL    H30   52  -0.076  -0.023   0.051
   0.00000   0.00000   0.00000   0.00000   0.00000   0.00000   0.00000   0.00000   0.00000
Generated with MDTraj, t= 88.0
 52
    1UNL     C1    1  -0.202   0.304   0.099
    1UNL     C2    2  -0.285   0.172   0.075
    1UNL     C3    3  -0.300   0.086   0.206
    1UNL     C4    4  -0.227   0.106  -0.049
    1UNL     C5    5  -0.315   0.003  -0.135
    1UNL     C6    6  -0.240  -0.031  -0.261
    1UNL     C7    7  -0.098  -0.087  -0.239
    1UNL     C8    8  -0.084  -0.242  -0.220
    1UNL     C9    9  -0.019   0.006  -0.143
    1UNL     O1   10   0.117  -0.035  -0.126
    1UNL    C10   11   0.135  -0.119  -0.014
    1UNL     O2   12   0.133  -0.060   0.117
    1UNL    C11   13   0.247   0.028   0.137
    1UNL    C12   14   0.241   0.131   0.250
    1UNL     O3   15   0.113   0.200   0.254
    1UNL    C13   16   0.379  -0.045   0.137
    1UNL     O4   17   0.398  -0.137   0.245
    1UNL    C14   18   0.389  -0.112  -0.003
    1UNL     O5   19   0.409  -0.014  -0.108
    1UNL    C15   20   0.266  -0.200  -0.027
    1UNL     O6   21   0.256  -0.256  -0.156
    1UNL    C16   22  -0.092   0.034  -0.014
    1UNL     H1   23  -0.246   0.352   0.195
    1UNL     H2   24  -0.093   0.284   0.118
    1UNL     H3   25  -0.206   0.380   0.016
    1UNL     H4   26  -0.391   0.206   0.056
    1UNL     H5   27  -0.377   0.008   0.187
    1UNL     H6   28  -0.214   0.033   0.231
    1UNL     H7   29  -0.339   0.131   0.309
    1UNL     H8   30  -0.209   0.180  -0.120
    1UNL     H9   31  -0.343  -0.095  -0.084
    1UNL    H10   32  -0.417   0.040  -0.157
    1UNL    H11   33  -0.242   0.064  -0.324
    1UNL    H12   34  -0.295  -0.102  -0.314
    1UNL    H13   35  -0.051  -0.067  -0.337
    1UNL    H14   36  -0.116  -0.299  -0.312
    1UNL    H15   37   0.021  -0.269  -0.199
    1UNL    H16   38  -0.153  -0.261  -0.136
    1UNL    H17   39   0.003   0.099  -0.194
    1UNL    H18   40   0.049  -0.188  -0.013
    1UNL    H19   41   0.245   0.081   0.035
    1UNL    H20   42   0.250   0.096   0.352
    1UNL    H21   43   0.316   0.217   0.231
    1UNL    H22   44   0.043   0.133   0.223
    1UNL    H23   45   0.457   0.029   0.163
    1UNL    H24   46   0.307  -0.169   0.274
    1UNL    H25   47   0.481  -0.171  -0.006
    1UNL    H26   48   0.489   0.038  -0.090
    1UNL    H27   49   0.266  -0.290   0.036
    1UNL    H28   50   0.247  -0.179  -0.221
    1UNL    H29   51  -0.041   0.091   0.064
    1UNL    H30   52  -0.113  -0.052   0.049
   0.00000   0.00000   0.00000   0.00000   0.00000   0.00000   0.00000   0.00000   0.00000
Generated with MDTraj, t= 89.0
 52
    1UNL     C1    1  -0.247   0.311   0.117
    1UNL     C2    2  -0.313   0.182   0.063
    1UNL     C3    3  -0.348   0.089   0.175
    1UNL     C4    4  -0.225   0.123  -0.049
    1UNL     C5    5  -0.302   0.016  -0.121
    1UNL     C6    6  -0.228  -0.043  -0.251
    1UNL     C7    7  -0.089  -0.100  -0.226
    1UNL     C8    8  -0.088  -0.237  -0.165
    1UNL     C9    9  -0.013   0.006  -0.141
    1UNL     O1   10   0.119  -0.039  -0.126
    1UNL    C10   11   0.144  -0.117  -0.012
    1UNL     O2   12   0.138  -0.051   0.114
    1UNL    C11   13   0.250   0.037   0.120
    1UNL    C12   14   0.242   0.124   0.246
    1UNL     O3   15   0.107   0.169   0.272
    1UNL    C13   16   0.385  -0.047   0.123
    1UNL     O4   17   0.391  -0.138   0.236
    1UNL    C14   18   0.402  -0.123  -0.013
    1UNL     O5   19   0.437  -0.033  -0.121
    1UNL    C15   20   0.276  -0.202  -0.036
    1UNL     O6   21   0.264  -0.252  -0.167
    1UNL    C16   22  -0.087   0.061  -0.014
    1UNL     H1   23  -0.313   0.389   0.171
    1UNL     H2   24  -0.157   0.286   0.182
    1UNL     H3   25  -0.199   0.366   0.031
    1UNL     H4   26  -0.413   0.217   0.023
    1UNL     H5   27  -0.371  -0.007   0.141
    1UNL     H6   28  -0.263   0.086   0.242
    1UNL     H7   29  -0.441   0.120   0.237
    1UNL     H8   30  -0.213   0.203  -0.114
    1UNL     H9   31  -0.341  -0.059  -0.048
    1UNL    H10   32  -0.401   0.059  -0.154
    1UNL    H11   33  -0.216   0.056  -0.311
    1UNL    H12   34  -0.292  -0.102  -0.310
    1UNL    H13   35  -0.033  -0.096  -0.318
    1UNL    H14   36  -0.146  -0.306  -0.232
    1UNL    H15   37   0.009  -0.286  -0.158
    1UNL    H16   38  -0.146  -0.228  -0.067
    1UNL    H17   39   0.011   0.096  -0.204
    1UNL    H18   40   0.058  -0.184   0.013
    1UNL    H19   41   0.256   0.096   0.024
    1UNL    H20   42   0.275   0.063   0.333
    1UNL    H21   43   0.308   0.216   0.235
    1UNL    H22   44   0.049   0.111   0.222
    1UNL    H23   45   0.471   0.017   0.138
    1UNL    H24   46   0.306  -0.182   0.231
    1UNL    H25   47   0.487  -0.192  -0.008
    1UNL    H26   48   0.520   0.013  -0.104
    1UNL    H27   49   0.268  -0.292   0.029
    1UNL    H28   50   0.277  -0.170  -0.217
    1UNL    H29   51  -0.021   0.137   0.034
    1UNL    H30   52  -0.095   0.000   0.075
   0.00000   0.00000   0.00000   0.00000   0.00000   0.00000   0.00000   0.00000   0.00000
Generated with MDTraj, t= 90.0
 52
    1UNL     C1    1  -0.236   0.296   0.110
    1UNL     C2    2  -0.307   0.175   0.051
    1UNL     C3    3  -0.342   0.064   0.157
    1UNL     C4    4  -0.234   0.122  -0.068
    1UNL     C5    5  -0.320   0.022  -0.143
    1UNL     C6    6  -0.231  -0.023  -0.266
    1UNL     C7    7  -0.104  -0.090  -0.216
    1UNL     C8    8  -0.122  -0.220  -0.137
    1UNL     C9    9  -0.011   0.011  -0.137
    1UNL     O1   10   0.120  -0.035  -0.112
    1UNL    C10   11   0.144  -0.118   0.002
    1UNL     O2   12   0.153  -0.045   0.120
    1UNL    C11   13   0.262   0.046   0.119
    1UNL    C12   14   0.249   0.128   0.251
    1UNL     O3   15   0.112   0.140   0.285
    1UNL    C13   16   0.391  -0.036   0.118
    1UNL     O4   17   0.403  -0.122   0.232
    1UNL    C14   18   0.402  -0.124  -0.012
    1UNL     O5   19   0.430  -0.048  -0.130
    1UNL    C15   20   0.277  -0.206  -0.027
    1UNL     O6   21   0.276  -0.256  -0.163
    1UNL    C16   22  -0.099   0.069  -0.017
    1UNL     H1   23  -0.288   0.343   0.198
    1UNL     H2   24  -0.135   0.262   0.151
    1UNL     H3   25  -0.206   0.382   0.039
    1UNL     H4   26  -0.409   0.213   0.019
    1UNL     H5   27  -0.411  -0.006   0.118
    1UNL     H6   28  -0.248   0.015   0.197
    1UNL     H7   29  -0.390   0.109   0.237
    1UNL     H8   30  -0.221   0.203  -0.134
    1UNL     H9   31  -0.353  -0.065  -0.082
    1UNL    H10   32  -0.422   0.061  -0.170
    1UNL    H11   33  -0.212   0.066  -0.338
    1UNL    H12   34  -0.290  -0.095  -0.318
    1UNL    H13   35  -0.054  -0.103  -0.311
    1UNL    H14   36  -0.187  -0.295  -0.185
    1UNL    H15   37  -0.027  -0.272  -0.134
    1UNL    H16   38  -0.159  -0.200  -0.029
    1UNL    H17   39   0.004   0.096  -0.212
    1UNL    H18   40   0.063  -0.187   0.027
    1UNL    H19   41   0.256   0.117   0.035
    1UNL    H20   42   0.301   0.067   0.330
    1UNL    H21   43   0.291   0.233   0.247
    1UNL    H22   44   0.058   0.067   0.240
    1UNL    H23   45   0.477   0.027   0.138
    1UNL    H24   46   0.318  -0.170   0.238
    1UNL    H25   47   0.489  -0.189   0.002
    1UNL    H26   48   0.497   0.022  -0.116
    1UNL    H27   49   0.280  -0.303   0.027
    1UNL    H28   50   0.275  -0.165  -0.211
    1UNL    H29   51  -0.048   0.135   0.055
    1UNL    H30   52  -0.113  -0.013   0.050
   0.00000   0.00000   0.00000   0.00000   0.00000   0.00000   0.00000   0.00000   0.00000
Generated with MDTraj, t= 91.0
 52
    1UNL     C1    1  -0.219   0.291   0.135
    1UNL     C2    2  -0.297   0.183   0.063
    1UNL     C3    3  -0.330   0.063   0.149
    1UNL     C4    4  -0.212   0.122  -0.055
    1UNL     C5    5  -0.301   0.042  -0.151
    1UNL     C6    6  -0.226  -0.023  -0.274
    1UNL     C7    7  -0.095  -0.100  -0.231
    1UNL     C8    8  -0.132  -0.239  -0.173
    1UNL     C9    9  -0.007  -0.002  -0.138
    1UNL     O1   10   0.125  -0.045  -0.119
    1UNL    C10   11   0.139  -0.121   0.001
    1UNL     O2   12   0.141  -0.047   0.120
    1UNL    C11   13   0.249   0.051   0.130
    1UNL    C12   14   0.245   0.124   0.266
    1UNL     O3   15   0.117   0.170   0.283
    1UNL    C13   16   0.385  -0.021   0.114
    1UNL     O4   17   0.423  -0.098   0.223
    1UNL    C14   18   0.382  -0.121  -0.010
    1UNL     O5   19   0.390  -0.038  -0.125
    1UNL    C15   20   0.264  -0.212  -0.020
    1UNL     O6   21   0.266  -0.265  -0.155
    1UNL    C16   22  -0.091   0.033  -0.009
    1UNL     H1   23  -0.270   0.320   0.230
    1UNL     H2   24  -0.115   0.248   0.151
    1UNL     H3   25  -0.200   0.385   0.070
    1UNL     H4   26  -0.393   0.225   0.023
    1UNL     H5   27  -0.382  -0.011   0.094
    1UNL     H6   28  -0.236   0.019   0.194
    1UNL     H7   29  -0.386   0.084   0.229
    1UNL     H8   30  -0.166   0.191  -0.118
    1UNL     H9   31  -0.348  -0.039  -0.094
    1UNL    H10   32  -0.400   0.089  -0.182
    1UNL    H11   33  -0.197   0.067  -0.338
    1UNL    H12   34  -0.291  -0.087  -0.340
    1UNL    H13   35  -0.038  -0.113  -0.323
    1UNL    H14   36  -0.192  -0.280  -0.256
    1UNL    H15   37  -0.051  -0.314  -0.163
    1UNL    H16   38  -0.194  -0.230  -0.080
    1UNL    H17   39   0.001   0.093  -0.197
    1UNL    H18   40   0.052  -0.186   0.017
    1UNL    H19   41   0.234   0.122   0.051
    1UNL    H20   42   0.261   0.056   0.355
    1UNL    H21   43   0.320   0.207   0.270
    1UNL    H22   44   0.053   0.096   0.274
    1UNL    H23   45   0.471   0.045   0.106
    1UNL    H24   46   0.351  -0.167   0.236
    1UNL    H25   47   0.477  -0.178  -0.017
    1UNL    H26   48   0.453   0.040  -0.115
    1UNL    H27   49   0.272  -0.301   0.046
    1UNL    H28   50   0.272  -0.182  -0.200
    1UNL    H29   51  -0.019   0.081   0.060
    1UNL    H30   52  -0.116  -0.050   0.052
   0.00000   0.00000   0.00000   0.00000   0.00000   0.00000   0.00000   0.00000   0.00000
Generated with MDTraj, t= 92.0
 52
    1UNL     C1    1  -0.212   0.289   0.151
    1UNL     C2    2  -0.288   0.172   0.079
    1UNL     C3    3  -0.334   0.068   0.176
    1UNL     C4    4  -0.214   0.119  -0.047
    1UNL     C5    5  -0.297   0.025  -0.139
    1UNL     C6    6  -0.225  -0.000  -0.265
    1UNL     C7    7  -0.089  -0.069  -0.247
    1UNL     C8    8  -0.113  -0.219  -0.218
    1UNL     C9    9  -0.006   0.005  -0.137
    1UNL     O1   10   0.118  -0.053  -0.110
    1UNL    C10   11   0.133  -0.138   0.007
    1UNL     O2   12   0.144  -0.062   0.122
    1UNL    C11   13   0.241   0.045   0.112
    1UNL    C12   14   0.226   0.141   0.228
    1UNL     O3   15   0.089   0.174   0.262
    1UNL    C13   16   0.384  -0.021   0.106
    1UNL     O4   17   0.412  -0.094   0.218
    1UNL    C14   18   0.389  -0.117  -0.012
    1UNL     O5   19   0.394  -0.036  -0.129
    1UNL    C15   20   0.270  -0.216  -0.009
    1UNL     O6   21   0.280  -0.307  -0.119
    1UNL    C16   22  -0.083   0.043  -0.009
    1UNL     H1   23  -0.290   0.360   0.194
    1UNL     H2   24  -0.135   0.255   0.227
    1UNL     H3   25  -0.156   0.349   0.071
    1UNL     H4   26  -0.380   0.220   0.038
    1UNL     H5   27  -0.398  -0.008   0.141
    1UNL     H6   28  -0.252   0.030   0.227
    1UNL     H7   29  -0.387   0.120   0.257
    1UNL     H8   30  -0.179   0.198  -0.105
    1UNL     H9   31  -0.330  -0.068  -0.088
    1UNL    H10   32  -0.403   0.066  -0.154
    1UNL    H11   33  -0.206   0.097  -0.322
    1UNL    H12   34  -0.289  -0.074  -0.331
    1UNL    H13   35  -0.022  -0.061  -0.337
    1UNL    H14   36  -0.168  -0.252  -0.308
    1UNL    H15   37  -0.019  -0.284  -0.224
    1UNL    H16   38  -0.164  -0.240  -0.126
    1UNL    H17   39   0.022   0.101  -0.183
    1UNL    H18   40   0.033  -0.185   0.016
    1UNL    H19   41   0.217   0.089   0.019
    1UNL    H20   42   0.283   0.098   0.317
    1UNL    H21   43   0.270   0.241   0.213
    1UNL    H22   44   0.037   0.098   0.287
    1UNL    H23   45   0.465   0.052   0.097
    1UNL    H24   46   0.338  -0.161   0.227
    1UNL    H25   47   0.487  -0.170  -0.016
    1UNL    H26   48   0.463   0.035  -0.115
    1UNL    H27   49   0.282  -0.276   0.085
    1UNL    H28   50   0.300  -0.245  -0.199
    1UNL    H29   51  -0.025   0.088   0.073
    1UNL    H30   52  -0.111  -0.047   0.040
   0.00000   0.00000   0.00000   0.00000   0.00000   0.00000   0.00000   0.00000   0.00000
Generated with MDTraj, t= 93.0
 52
    1UNL     C1    1  -0.202   0.277   0.166
    1UNL     C2    2  -0.282   0.171   0.098
    1UNL     C3    3  -0.317   0.056   0.202
    1UNL     C4    4  -0.217   0.120  -0.038
    1UNL     C5    5  -0.290   0.031  -0.135
    1UNL     C6    6  -0.229   0.006  -0.273
    1UNL     C7    7  -0.088  -0.056  -0.254
    1UNL     C8    8  -0.101  -0.205  -0.218
    1UNL     C9    9  -0.003   0.009  -0.137
    1UNL     O1   10   0.116  -0.072  -0.118
    1UNL    C10   11   0.136  -0.138   0.007
    1UNL     O2   12   0.138  -0.054   0.115
    1UNL    C11   13   0.230   0.055   0.097
    1UNL    C12   14   0.211   0.158   0.204
    1UNL     O3   15   0.075   0.158   0.239
    1UNL    C13   16   0.372  -0.020   0.103
    1UNL     O4   17   0.388  -0.063   0.233
    1UNL    C14   18   0.394  -0.130   0.004
    1UNL     O5   19   0.434  -0.077  -0.121
    1UNL    C15   20   0.269  -0.221  -0.005
    1UNL     O6   21   0.264  -0.288  -0.135
    1UNL    C16   22  -0.084   0.040  -0.011
    1UNL     H1   23  -0.257   0.293   0.267
    1UNL     H2   24  -0.093   0.258   0.184
    1UNL     H3   25  -0.205   0.379   0.118
    1UNL     H4   26  -0.375   0.219   0.063
    1UNL     H5   27  -0.380  -0.015   0.156
    1UNL     H6   28  -0.233   0.019   0.241
    1UNL     H7   29  -0.376   0.095   0.291
    1UNL     H8   30  -0.184   0.208  -0.083
    1UNL     H9   31  -0.320  -0.060  -0.085
    1UNL    H10   32  -0.395   0.076  -0.155
    1UNL    H11   33  -0.216   0.105  -0.326
    1UNL    H12   34  -0.286  -0.079  -0.337
    1UNL    H13   35  -0.022  -0.050  -0.347
    1UNL    H14   36  -0.143  -0.261  -0.304
    1UNL    H15   37   0.005  -0.249  -0.223
    1UNL    H16   38  -0.141  -0.231  -0.124
    1UNL    H17   39   0.026   0.104  -0.177
    1UNL    H18   40   0.047  -0.207   0.008
    1UNL    H19   41   0.212   0.101   0.002
    1UNL    H20   42   0.268   0.143   0.302
    1UNL    H21   43   0.249   0.256   0.170
    1UNL    H22   44   0.045   0.062   0.244
    1UNL    H23   45   0.450   0.057   0.093
    1UNL    H24   46   0.318  -0.129   0.245
    1UNL    H25   47   0.480  -0.194   0.034
    1UNL    H26   48   0.520  -0.035  -0.106
    1UNL    H27   49   0.281  -0.308   0.063
    1UNL    H28   50   0.273  -0.217  -0.197
    1UNL    H29   51  -0.021   0.107   0.043
    1UNL    H30   52  -0.101  -0.038   0.059
   0.00000   0.00000   0.00000   0.00000   0.00000   0.00000   0.00000   0.00000   0.00000
Generated with MDTraj, t= 94.0
 52
    1UNL     C1    1  -0.221   0.271   0.174
    1UNL     C2    2  -0.287   0.156   0.095
    1UNL     C3    3  -0.285   0.036   0.196
    1UNL     C4    4  -0.215   0.118  -0.042
    1UNL     C5    5  -0.314   0.047  -0.144
    1UNL     C6    6  -0.235   0.009  -0.278
    1UNL     C7    7  -0.097  -0.068  -0.252
    1UNL     C8    8  -0.133  -0.208  -0.200
    1UNL     C9    9  -0.001   0.007  -0.153
    1UNL     O1   10   0.118  -0.064  -0.137
    1UNL    C10   11   0.132  -0.125  -0.014
    1UNL     O2   12   0.137  -0.042   0.104
    1UNL    C11   13   0.239   0.056   0.103
    1UNL    C12   14   0.224   0.160   0.208
    1UNL     O3   15   0.092   0.173   0.246
    1UNL    C13   16   0.376  -0.023   0.122
    1UNL     O4   17   0.390  -0.067   0.258
    1UNL    C14   18   0.387  -0.130   0.012
    1UNL     O5   19   0.439  -0.081  -0.112
    1UNL    C15   20   0.259  -0.219  -0.014
    1UNL     O6   21   0.273  -0.289  -0.135
    1UNL    C16   22  -0.072   0.038  -0.023
    1UNL     H1   23  -0.288   0.295   0.268
    1UNL     H2   24  -0.117   0.250   0.208
    1UNL     H3   25  -0.216   0.367   0.117
    1UNL     H4   26  -0.386   0.179   0.056
    1UNL     H5   27  -0.328  -0.049   0.154
    1UNL     H6   28  -0.181   0.027   0.235
    1UNL     H7   29  -0.345   0.062   0.285
    1UNL     H8   30  -0.190   0.211  -0.083
    1UNL     H9   31  -0.362  -0.041  -0.107
    1UNL    H10   32  -0.404   0.113  -0.178
    1UNL    H11   33  -0.203   0.098  -0.339
    1UNL    H12   34  -0.306  -0.069  -0.333
    1UNL    H13   35  -0.029  -0.082  -0.343
    1UNL    H14   36  -0.190  -0.268  -0.274
    1UNL    H15   37  -0.038  -0.270  -0.199
    1UNL    H16   38  -0.175  -0.207  -0.101
    1UNL    H17   39   0.020   0.101  -0.202
    1UNL    H18   40   0.045  -0.195   0.008
    1UNL    H19   41   0.241   0.099   0.003
    1UNL    H20   42   0.290   0.117   0.291
    1UNL    H21   43   0.267   0.258   0.183
    1UNL    H22   44   0.055   0.086   0.251
    1UNL    H23   45   0.467   0.043   0.117
    1UNL    H24   46   0.323  -0.132   0.276
    1UNL    H25   47   0.466  -0.200   0.046
    1UNL    H26   48   0.523  -0.037  -0.097
    1UNL    H27   49   0.256  -0.284   0.073
    1UNL    H28   50   0.297  -0.209  -0.195
    1UNL    H29   51  -0.005   0.089   0.041
    1UNL    H30   52  -0.094  -0.057   0.021
   0.00000   0.00000   0.00000   0.00000   0.00000   0.00000   0.00000   0.00000   0.00000
Generated with MDTraj, t= 95.0
 52
    1UNL     C1    1  -0.234   0.272   0.164
    1UNL     C2    2  -0.293   0.152   0.082
    1UNL     C3    3  -0.298   0.036   0.176
    1UNL     C4    4  -0.211   0.124  -0.055
    1UNL     C5    5  -0.295   0.038  -0.140
    1UNL     C6    6  -0.236   0.001  -0.275
    1UNL     C7    7  -0.099  -0.079  -0.246
    1UNL     C8    8  -0.136  -0.213  -0.182
    1UNL     C9    9  -0.002   0.013  -0.149
    1UNL     O1   10   0.128  -0.050  -0.125
    1UNL    C10   11   0.138  -0.124  -0.004
    1UNL     O2   12   0.139  -0.044   0.120
    1UNL    C11   13   0.250   0.048   0.118
    1UNL    C12   14   0.237   0.160   0.228
    1UNL     O3   15   0.105   0.202   0.241
    1UNL    C13   16   0.381  -0.038   0.119
    1UNL     O4   17   0.378  -0.113   0.242
    1UNL    C14   18   0.399  -0.120  -0.004
    1UNL     O5   19   0.409  -0.054  -0.129
    1UNL    C15   20   0.273  -0.214  -0.012
    1UNL     O6   21   0.270  -0.294  -0.130
    1UNL    C16   22  -0.082   0.049  -0.024
    1UNL     H1   23  -0.303   0.302   0.250
    1UNL     H2   24  -0.133   0.243   0.206
    1UNL     H3   25  -0.215   0.356   0.090
    1UNL     H4   26  -0.389   0.176   0.039
    1UNL     H5   27  -0.337  -0.055   0.129
    1UNL     H6   28  -0.199   0.023   0.240
    1UNL     H7   29  -0.368   0.058   0.251
    1UNL     H8   30  -0.189   0.216  -0.101
    1UNL     H9   31  -0.317  -0.057  -0.092
    1UNL    H10   32  -0.396   0.089  -0.159
    1UNL    H11   33  -0.211   0.102  -0.321
    1UNL    H12   34  -0.305  -0.070  -0.335
    1UNL    H13   35  -0.045  -0.105  -0.343
    1UNL    H14   36  -0.205  -0.275  -0.241
    1UNL    H15   37  -0.046  -0.276  -0.178
    1UNL    H16   38  -0.173  -0.199  -0.077
    1UNL    H17   39   0.021   0.107  -0.202
    1UNL    H18   40   0.054  -0.199   0.010
    1UNL    H19   41   0.238   0.101   0.019
    1UNL    H20   42   0.278   0.124   0.329
    1UNL    H21   43   0.301   0.242   0.196
    1UNL    H22   44   0.044   0.122   0.258
    1UNL    H23   45   0.468   0.030   0.135
    1UNL    H24   46   0.285  -0.137   0.267
    1UNL    H25   47   0.487  -0.186  -0.008
    1UNL    H26   48   0.487   0.007  -0.131
    1UNL    H27   49   0.275  -0.283   0.073
    1UNL    H28   50   0.307  -0.235  -0.197
    1UNL    H29   51  -0.024   0.111   0.038
    1UNL    H30   52  -0.107  -0.044   0.026
   0.00000   0.00000   0.00000   0.00000   0.00000   0.00000   0.00000   0.00000   0.00000
Generated with MDTraj, t= 96.0
 52
    1UNL     C1    1  -0.229   0.286   0.147
    1UNL     C2    2  -0.295   0.174   0.073
    1UNL     C3    3  -0.341   0.063   0.160
    1UNL     C4    4  -0.215   0.109  -0.044
    1UNL     C5    5  -0.300   0.013  -0.133
    1UNL     C6    6  -0.228  -0.018  -0.269
    1UNL     C7    7  -0.085  -0.084  -0.242
    1UNL     C8    8  -0.094  -0.223  -0.194
    1UNL     C9    9  -0.010   0.003  -0.137
    1UNL     O1   10   0.122  -0.040  -0.102
    1UNL    C10   11   0.140  -0.125   0.007
    1UNL     O2   12   0.149  -0.061   0.133
    1UNL    C11   13   0.257   0.040   0.127
    1UNL    C12   14   0.237   0.145   0.243
    1UNL     O3   15   0.120   0.217   0.236
    1UNL    C13   16   0.393  -0.041   0.117
    1UNL     O4   17   0.392  -0.121   0.235
    1UNL    C14   18   0.392  -0.124  -0.013
    1UNL     O5   19   0.396  -0.046  -0.136
    1UNL    C15   20   0.263  -0.213  -0.020
    1UNL     O6   21   0.248  -0.258  -0.152
    1UNL    C16   22  -0.084   0.041  -0.010
    1UNL     H1   23  -0.283   0.305   0.244
    1UNL     H2   24  -0.125   0.252   0.177
    1UNL     H3   25  -0.216   0.386   0.089
    1UNL     H4   26  -0.377   0.223   0.020
    1UNL     H5   27  -0.403  -0.002   0.086
    1UNL     H6   28  -0.260   0.005   0.216
    1UNL     H7   29  -0.407   0.089   0.236
    1UNL     H8   30  -0.179   0.192  -0.101
    1UNL     H9   31  -0.323  -0.077  -0.076
    1UNL    H10   32  -0.401   0.063  -0.152
    1UNL    H11   33  -0.206   0.074  -0.334
    1UNL    H12   34  -0.300  -0.085  -0.320
    1UNL    H13   35  -0.027  -0.084  -0.339
    1UNL    H14   36  -0.140  -0.297  -0.260
    1UNL    H15   37   0.004  -0.263  -0.177
    1UNL    H16   38  -0.151  -0.223  -0.093
    1UNL    H17   39   0.019   0.097  -0.193
    1UNL    H18   40   0.049  -0.193   0.021
    1UNL    H19   41   0.235   0.096   0.030
    1UNL    H20   42   0.241   0.086   0.342
    1UNL    H21   43   0.321   0.212   0.245
    1UNL    H22   44   0.043   0.159   0.250
    1UNL    H23   45   0.481   0.029   0.126
    1UNL    H24   46   0.293  -0.142   0.254
    1UNL    H25   47   0.482  -0.186  -0.022
    1UNL    H26   48   0.480   0.009  -0.122
    1UNL    H27   49   0.261  -0.300   0.046
    1UNL    H28   50   0.225  -0.179  -0.209
    1UNL    H29   51  -0.022   0.095   0.058
    1UNL    H30   52  -0.116  -0.052   0.035
   0.00000   0.00000   0.00000   0.00000   0.00000   0.00000   0.00000   0.00000   0.00000
Generated with MDTraj, t= 97.0
 52
    1UNL     C1    1  -0.248   0.304   0.125
    1UNL     C2    2  -0.320   0.177   0.062
    1UNL     C3    3  -0.379   0.081   0.170
    1UNL     C4    4  -0.244   0.108  -0.055
    1UNL     C5    5  -0.325   0.004  -0.140
    1UNL     C6    6  -0.244  -0.034  -0.264
    1UNL     C7    7  -0.095  -0.076  -0.234
    1UNL     C8    8  -0.078  -0.218  -0.189
    1UNL     C9    9  -0.021   0.018  -0.142
    1UNL     O1   10   0.115  -0.024  -0.122
    1UNL    C10   11   0.143  -0.111  -0.007
    1UNL     O2   12   0.163  -0.050   0.122
    1UNL    C11   13   0.276   0.039   0.124
    1UNL    C12   14   0.267   0.127   0.246
    1UNL     O3   15   0.138   0.172   0.275
    1UNL    C13   16   0.405  -0.037   0.122
    1UNL     O4   17   0.419  -0.114   0.241
    1UNL    C14   18   0.402  -0.131  -0.003
    1UNL     O5   19   0.423  -0.062  -0.124
    1UNL    C15   20   0.262  -0.206  -0.026
    1UNL     O6   21   0.250  -0.264  -0.149
    1UNL    C16   22  -0.106   0.039  -0.014
    1UNL     H1   23  -0.321   0.378   0.166
    1UNL     H2   24  -0.185   0.289   0.219
    1UNL     H3   25  -0.172   0.362   0.059
    1UNL     H4   26  -0.405   0.222   0.009
    1UNL     H5   27  -0.457   0.011   0.120
    1UNL     H6   28  -0.297   0.030   0.221
    1UNL     H7   29  -0.424   0.138   0.258
    1UNL     H8   30  -0.213   0.188  -0.120
    1UNL     H9   31  -0.324  -0.089  -0.080
    1UNL    H10   32  -0.434   0.037  -0.146
    1UNL    H11   33  -0.246   0.064  -0.328
    1UNL    H12   34  -0.289  -0.103  -0.332
    1UNL    H13   35  -0.052  -0.067  -0.337
    1UNL    H14   36  -0.111  -0.291  -0.265
    1UNL    H15   37   0.025  -0.239  -0.167
    1UNL    H16   38  -0.145  -0.233  -0.098
    1UNL    H17   39  -0.002   0.119  -0.192
    1UNL    H18   40   0.046  -0.167   0.014
    1UNL    H19   41   0.266   0.090   0.023
    1UNL    H20   42   0.313   0.068   0.336
    1UNL    H21   43   0.328   0.212   0.233
    1UNL    H22   44   0.081   0.095   0.274
    1UNL    H23   45   0.494   0.028   0.108
    1UNL    H24   46   0.329  -0.145   0.266
    1UNL    H25   47   0.489  -0.198  -0.000
    1UNL    H26   48   0.512  -0.019  -0.128
    1UNL    H27   49   0.267  -0.286   0.048
    1UNL    H28   50   0.291  -0.207  -0.220
    1UNL    H29   51  -0.054   0.107   0.053
    1UNL    H30   52  -0.122  -0.055   0.036
   0.00000   0.00000   0.00000   0.00000   0.00000   0.00000   0.00000   0.00000   0.00000
Generated with MDTraj, t= 98.0
 52
    1UNL     C1    1  -0.267   0.304   0.117
    1UNL     C2    2  -0.332   0.177   0.056
    1UNL     C3    3  -0.353   0.069   0.163
    1UNL     C4    4  -0.233   0.122  -0.059
    1UNL     C5    5  -0.303   0.003  -0.140
    1UNL     C6    6  -0.224  -0.033  -0.268
    1UNL     C7    7  -0.086  -0.090  -0.235
    1UNL     C8    8  -0.092  -0.235  -0.167
    1UNL     C9    9  -0.012   0.009  -0.151
    1UNL     O1   10   0.121  -0.020  -0.112
    1UNL    C10   11   0.138  -0.103   0.005
    1UNL     O2   12   0.147  -0.039   0.139
    1UNL    C11   13   0.263   0.043   0.128
    1UNL    C12   14   0.279   0.129   0.255
    1UNL     O3   15   0.153   0.167   0.310
    1UNL    C13   16   0.390  -0.041   0.107
    1UNL     O4   17   0.417  -0.116   0.232
    1UNL    C14   18   0.388  -0.135  -0.020
    1UNL     O5   19   0.426  -0.058  -0.137
    1UNL    C15   20   0.249  -0.203  -0.031
    1UNL     O6   21   0.237  -0.258  -0.155
    1UNL    C16   22  -0.096   0.054  -0.028
    1UNL     H1   23  -0.320   0.333   0.212
    1UNL     H2   24  -0.158   0.294   0.152
    1UNL     H3   25  -0.260   0.388   0.039
    1UNL     H4   26  -0.428   0.206   0.011
    1UNL     H5   27  -0.396  -0.025   0.116
    1UNL     H6   28  -0.257   0.059   0.210
    1UNL     H7   29  -0.418   0.102   0.261
    1UNL     H8   30  -0.216   0.196  -0.136
    1UNL     H9   31  -0.329  -0.079  -0.070
    1UNL    H10   32  -0.398   0.043  -0.181
    1UNL    H11   33  -0.221   0.056  -0.345
    1UNL    H12   34  -0.279  -0.099  -0.325
    1UNL    H13   35  -0.035  -0.093  -0.333
    1UNL    H14   36  -0.129  -0.315  -0.235
    1UNL    H15   37   0.007  -0.265  -0.128
    1UNL    H16   38  -0.165  -0.229  -0.087
    1UNL    H17   39   0.008   0.105  -0.204
    1UNL    H18   40   0.038  -0.156   0.007
    1UNL    H19   41   0.239   0.117   0.047
    1UNL    H20   42   0.328   0.074   0.345
    1UNL    H21   43   0.339   0.214   0.239
    1UNL    H22   44   0.100   0.080   0.310
    1UNL    H23   45   0.473   0.031   0.110
    1UNL    H24   46   0.337  -0.161   0.257
    1UNL    H25   47   0.463  -0.215  -0.007
    1UNL    H26   48   0.516  -0.026  -0.129
    1UNL    H27   49   0.261  -0.296   0.029
    1UNL    H28   50   0.226  -0.190  -0.222
    1UNL    H29   51  -0.032   0.122   0.031
    1UNL    H30   52  -0.119  -0.031   0.031
   0.00000   0.00000   0.00000   0.00000   0.00000   0.00000   0.00000   0.00000   0.00000
Generated with MDTraj, t= 99.0
 52
    1UNL     C1    1  -0.271   0.296   0.115
    1UNL     C2    2  -0.310   0.163   0.052
    1UNL     C3    3  -0.322   0.059   0.164
    1UNL     C4    4  -0.231   0.121  -0.066
    1UNL     C5    5  -0.308   0.010  -0.157
    1UNL     C6    6  -0.211  -0.030  -0.275
    1UNL     C7    7  -0.085  -0.095  -0.227
    1UNL     C8    8  -0.106  -0.224  -0.160
    1UNL     C9    9  -0.007   0.011  -0.143
    1UNL     O1   10   0.126  -0.019  -0.093
    1UNL    C10   11   0.134  -0.111   0.014
    1UNL     O2   12   0.157  -0.043   0.136
    1UNL    C11   13   0.273   0.040   0.135
    1UNL    C12   14   0.273   0.128   0.266
    1UNL     O3   15   0.143   0.185   0.273
    1UNL    C13   16   0.396  -0.042   0.116
    1UNL     O4   17   0.420  -0.145   0.217
    1UNL    C14   18   0.384  -0.118  -0.022
    1UNL     O5   19   0.387  -0.035  -0.143
    1UNL    C15   20   0.255  -0.202  -0.020
    1UNL     O6   21   0.224  -0.264  -0.139
    1UNL    C16   22  -0.099   0.058  -0.024
    1UNL     H1   23  -0.336   0.304   0.211
    1UNL     H2   24  -0.163   0.301   0.150
    1UNL     H3   25  -0.283   0.380   0.040
    1UNL     H4   26  -0.412   0.190   0.015
    1UNL     H5   27  -0.328  -0.048   0.124
    1UNL     H6   28  -0.253   0.073   0.250
    1UNL     H7   29  -0.416   0.078   0.223
    1UNL     H8   30  -0.215   0.207  -0.130
    1UNL     H9   31  -0.320  -0.081  -0.095
    1UNL    H10   32  -0.409   0.046  -0.180
    1UNL    H11   33  -0.180   0.074  -0.322
    1UNL    H12   34  -0.251  -0.073  -0.360
    1UNL    H13   35  -0.028  -0.107  -0.320
    1UNL    H14   36  -0.151  -0.299  -0.230
    1UNL    H15   37  -0.012  -0.267  -0.114
    1UNL    H16   38  -0.183  -0.217  -0.088
    1UNL    H17   39   0.012   0.103  -0.198
    1UNL    H18   40   0.035  -0.166   0.027
    1UNL    H19   41   0.264   0.105   0.047
    1UNL    H20   42   0.299   0.061   0.356
    1UNL    H21   43   0.335   0.211   0.269
    1UNL    H22   44   0.084   0.108   0.258
    1UNL    H23   45   0.483   0.024   0.113
    1UNL    H24   46   0.332  -0.181   0.229
    1UNL    H25   47   0.469  -0.189  -0.029
    1UNL    H26   48   0.466   0.020  -0.142
    1UNL    H27   49   0.257  -0.286   0.055
    1UNL    H28   50   0.241  -0.195  -0.211
    1UNL    H29   51  -0.044   0.129   0.038
    1UNL    H30   52  -0.107  -0.030   0.037
   0.00000   0.00000   0.00000   0.00000   0.00000   0.00000   0.00000   0.00000   0.00000
