1TPCN00371
9
    1res  C1    1   -0.394   0.050   0.206
    1res  C2    2   -0.159  -0.029   0.074
    1res  C3    3   -0.329  -0.184  -0.075
    1res  C4    4   -0.134  -0.106  -0.265
    1res  C5    5    0.010  -0.090  -0.055
    1res  C6    6    0.234   0.135   0.001
    1res  C7    7    0.301   0.171   0.228
    1res  C8    8    0.476   0.029  -0.068
    1res  C9    9    0.249  -0.025  -0.206
  10.00000  10.00000  10.00000
