[ moleculetype ]
; name        nrexcl
res           1

[ atoms ]
;    nr  type  resnr resid  atom  cgnr     charge       mass
      1 SC2       1 res   C1        1      0.000     54.000
      2 TC3       1 res   C2        2      0.000     36.000
      3 TC3       1 res   C3        3      0.000     36.000
      4 TC4       1 res   C4        4      0.000     36.000
      5 TN6       1 res   C5        5      0.000     36.000
      6 SN4a      1 res   C6        6      0.000     54.000
      7 TP1       1 res   C7        7      0.000     36.000
      8 SP4       1 res   C8        8      0.000     54.000
      9 TN6       1 res   C9        9      0.000     36.000

[ constraints ]
;  ai    aj   funct      b0(nm)
    1     2     1      0.25017
    2     3     1      0.27690
    4     5     1      0.26377
    6     9     1      0.26163
    2     5     1      0.22613
    6     8     1      0.25436
    3     4     1      0.28240
    8     9     1      0.26632

[ bonds ]
;  ai    aj   funct      b0(nm)          k(kJ/mol/nm^2)
    5     6     1      0.22840           4479.4
    6     7     1      0.31073           9484.2

[ angles ]
;  ai    aj    ak  funct     th0(deg)        k(kJ/mol/rad^2)
    1     2     3     1    102.07530           971.58
    1     2     5     1    170.20476           465.18
    2     3     4     1     76.52829           993.75
    2     5     4     1     89.62498           997.22
    2     5     6     1     99.36979            17.05
    3     2     5     1     85.93987          1538.47
    3     4     5     1     78.23328          1586.16
    4     5     6     1    116.61778            38.74
    5     6     7     1    112.99739           152.76
    5     6     8     1    127.86002           217.59
    5     6     9     1     93.66273           244.93
    6     8     9     1     60.30277          1525.53
    6     9     8     1     57.58196          2002.56
    7     6     8     1     78.98972           285.26
    7     6     9     1    140.47746           404.52
    8     6     9     1     62.11509          2189.67

[ dihedrals ]
;  ai    aj    ak    al  funct   phi0(deg)        k(kJ/mol)   mult
    1     2     3     4     1     36.96826       11.464      1
    1     2     5     4     1    -42.85371       27.917      1
    1     2     5     6     1   -159.77585       28.442      1
    2     3     4     5     1    145.98972        6.318      1
    2     5     4     3     1   -138.94138        8.540      1
    2     5     6     7     1     88.64285       24.530      1
    2     5     6     8     1    -14.72001       20.740      1
    2     5     6     9     1    -69.62805       22.644      1
    3     2     5     4     1    138.02614        7.813      1
    3     2     5     6     1      4.13922       22.633      1
    3     4     5     6     1     -8.41080       17.643      1
    4     3     2     5     1   -140.00329        7.825      1
    4     5     6     7     1    -25.45040       17.701      1
    4     5     6     8     1   -124.09382       17.157      1
    4     5     6     9     1    167.64459       14.541      1
    5     6     8     9     1    111.01719       14.262      1
    5     6     9     8     1    -47.50378       12.150      1
    7     6     8     9     1     -3.23171       11.494      1
    7     6     9     8     1    171.35591       18.920      1
