157722-16-4
6
    1res  C1    1   -0.181   0.094   0.028
    1res  C2    2   -0.154  -0.121  -0.035
    1res  C3    3    0.030  -0.159   0.093
    1res  C4    4    0.194  -0.076  -0.036
    1res  C5    5    0.186   0.152  -0.043
    1res  C6    6   -0.020   0.240  -0.033
  10.00000  10.00000  10.00000
