[ moleculetype ]
; name        nrexcl
res           1

[ atoms ]
;    nr  type resnr resid  atom  cgnr     charge       mass
      1 SC3       1 res   C1        1      0.000     54.000
      2 SC3       1 res   C2        2      0.000     54.000
      3 TC3       1 res   C3        3      0.000     36.000
      4 SC4       1 res   C4        4      0.000     54.000
      5 TC4       1 res   C5        5      0.000     36.000
      6 SN4a      1 res   C6        6      0.000     54.000
      7 SN4a      1 res   C7        7      0.000     54.000
      8 TP1       1 res   C8        8      0.000     36.000
      9 TN6       1 res   C9        9      0.000     36.000
     10 TN6       1 res   C10      10      0.000     36.000
     11 TN6       1 res   C11      11      0.000     36.000
     12 SC3       1 res   C12      12      0.000     54.000
     13 TC3       1 res   C13      13      0.000     36.000
     14 TN6       1 res   C14      14      0.000     36.000
     15 TN4a      1 res   C15      15      0.000     36.000
     16 TN6       1 res   C16      16      0.000     36.000
     17 TN6       1 res   C17      17      0.000     36.000
     18 SN4a      1 res   C18      18      0.000     54.000
     19 TP1       1 res   C19      19      0.000     36.000
     20 TN6       1 res   C20      20      0.000     36.000
     21 TN6       1 res   C21      21      0.000     36.000
     22 TN6       1 res   C22      22      0.000     36.000
     23 TN6       1 res   C23      23      0.000     36.000
     24 SN4a      1 res   C24      24      0.000     54.000
     25 TP1       1 res   C25      25      0.000     36.000
     26 TN6       1 res   C26      26      0.000     36.000
     27 TN6       1 res   C27      27      0.000     36.000
     28 TN6       1 res   C28      28      0.000     36.000

[ bonds ]
;  ai    aj   funct      b0(nm)        k
    1     2     1      0.30657    20000
    2     3     1      0.30360    20000
    2     4     1      0.38754    20000
    2    13     1      0.25041    20000
    2    14     1      0.36402    20000
    3     4     1      0.36608    20000
    4     5     1      0.27925    20000
    4    12     1      0.29888    20000
    5     6     1      0.27558    20000
    5    12     1      0.32171    20000
    6     7     1      0.28691    20000
    7     8     1      0.23791    20000
    7     9     1      0.28725    20000
    7    11     1      0.30694    20000
    9    10     1      0.21616    20000
   10    11     1      0.21305    20000
   14    15     1      0.26459    20000
   14    23     1      0.20769    20000
   15    16     1      0.25143    20000
   16    17     1      0.22520    20000
   17    18     1      0.31790    20000
   17    23     1      0.21301    20000
   18    19     1      0.24993    20000
   18    20     1      0.23339    20000
   18    22     1      0.30651    20000
   20    21     1      0.24587    20000
   21    22     1      0.25679    20000
   23    24     1      0.29605    20000
   24    25     1      0.29452    20000
   24    26     1      0.28961    20000
   24    28     1      0.30195    20000
   26    27     1      0.24412    20000
   27    28     1      0.23394    20000
