1TPCN02208
28
    1res  C1    1    0.098  -0.007   0.292
    1res  C2    2    0.081   0.010  -0.014
    1res  C3    3    0.379   0.070  -0.023
    1res  C4    4    0.315  -0.263  -0.159
    1res  C5    5    0.584  -0.287  -0.231
    1res  C6    6    0.705  -0.054  -0.148
    1res  C7    7    0.847   0.183  -0.069
    1res  C8    8    0.937   0.325  -0.237
    1res  C9    9    1.032   0.350   0.072
    1res  C10   10    1.122   0.154   0.080
    1res  C11   11    1.016  -0.031   0.072
    1res  C12   12    0.491  -0.322   0.075
    1res  C13   13   -0.027  -0.207   0.048
    1res  C14   14   -0.228   0.032   0.176
    1res  C15   15   -0.340   0.095   0.408
    1res  C16   16   -0.563  -0.004   0.349
    1res  C17   17   -0.552   0.144   0.179
    1res  C18   18   -0.753   0.214  -0.057
    1res  C19   19   -0.646   0.289  -0.271
    1res  C20   20   -0.846   0.428  -0.058
    1res  C21   21   -1.006   0.305   0.081
    1res  C22   22   -0.802   0.290   0.236
    1res  C23   23   -0.401   0.051   0.062
    1res  C24   24   -0.593  -0.110  -0.096
    1res  C25   25   -0.619  -0.338   0.089
    1res  C26   26   -0.636  -0.359  -0.237
    1res  C27   27   -0.503  -0.177  -0.331
    1res  C28   28   -0.312  -0.139  -0.201
  10.00000  10.00000  10.00000
