Generated with MDTraj, t= 0.0
 51
    1UNL     C1    1  -0.401   0.381  -0.155
    1UNL     O1    2  -0.347   0.264  -0.104
    1UNL     C2    3  -0.447   0.175  -0.076
    1UNL     O2    4  -0.565   0.200  -0.095
    1UNL     C3    5  -0.408   0.046  -0.021
    1UNL     C4    6  -0.504  -0.042   0.015
    1UNL     O3    7  -0.488  -0.165   0.072
    1UNL     C5    8  -0.354  -0.193   0.120
    1UNL     C6    9  -0.341  -0.341   0.152
    1UNL     C7   10  -0.248  -0.143   0.019
    1UNL     C8   11  -0.103  -0.176   0.058
    1UNL     N1   12  -0.001  -0.103  -0.022
    1UNL     C9   13   0.140  -0.138  -0.001
    1UNL    C10   14   0.209  -0.036   0.088
    1UNL    C11   15   0.358  -0.049   0.083
    1UNL     O4   16   0.412  -0.126   0.160
    1UNL    C12   17   0.434   0.028  -0.017
    1UNL    C13   18   0.370   0.091  -0.123
    1UNL    C14   19   0.441   0.162  -0.217
    1UNL    C15   20   0.578   0.172  -0.208
    1UNL    C16   21   0.645   0.111  -0.105
    1UNL    C17   22   0.575   0.039  -0.007
    1UNL     N2   23   0.644  -0.020   0.096
    1UNL    C18   24  -0.029   0.009  -0.098
    1UNL     O5   25   0.060   0.074  -0.148
    1UNL    C19   26  -0.171   0.053  -0.117
    1UNL    C20   27  -0.263   0.010  -0.002
    1UNL     H1   28  -0.456   0.357  -0.247
    1UNL     H2   29  -0.321   0.452  -0.177
    1UNL     H3   30  -0.469   0.424  -0.081
    1UNL     H4   31  -0.607  -0.015  -0.003
    1UNL     H5   32  -0.344  -0.134   0.212
    1UNL     H6   33  -0.420  -0.373   0.220
    1UNL     H7   34  -0.245  -0.365   0.198
    1UNL     H8   35  -0.351  -0.400   0.061
    1UNL     H9   36  -0.270  -0.191  -0.077
    1UNL    H10   37  -0.087  -0.153   0.163
    1UNL    H11   38  -0.084  -0.283   0.047
    1UNL    H12   39   0.187  -0.140  -0.100
    1UNL    H13   40   0.148  -0.239   0.040
    1UNL    H14   41   0.176  -0.048   0.192
    1UNL    H15   42   0.179   0.065   0.060
    1UNL    H16   43   0.263   0.084  -0.133
    1UNL    H17   44   0.389   0.210  -0.299
    1UNL    H18   45   0.633   0.228  -0.282
    1UNL    H19   46   0.752   0.119  -0.097
    1UNL    H20   47   0.596  -0.084   0.159
    1UNL    H21   48   0.744  -0.030   0.098
    1UNL    H22   49  -0.209   0.012  -0.211
    1UNL    H23   50  -0.173   0.162  -0.129
    1UNL    H24   51  -0.228   0.059   0.090
   0.00000   0.00000   0.00000   0.00000   0.00000   0.00000   0.00000   0.00000   0.00000
Generated with MDTraj, t= 1.0
 51
    1UNL     C1    1  -0.413   0.380  -0.152
    1UNL     O1    2  -0.357   0.262  -0.121
    1UNL     C2    3  -0.450   0.174  -0.075
    1UNL     O2    4  -0.567   0.202  -0.065
    1UNL     C3    5  -0.411   0.038  -0.033
    1UNL     C4    6  -0.503  -0.051   0.006
    1UNL     O3    7  -0.483  -0.172   0.058
    1UNL     C5    8  -0.353  -0.194   0.116
    1UNL     C6    9  -0.331  -0.334   0.157
    1UNL     C7   10  -0.241  -0.147   0.007
    1UNL     C8   11  -0.097  -0.186   0.037
    1UNL     N1   12   0.000  -0.084  -0.010
    1UNL     C9   13   0.141  -0.117   0.002
    1UNL    C10   14   0.215  -0.031   0.103
    1UNL    C11   15   0.363  -0.043   0.100
    1UNL     O4   16   0.413  -0.131   0.167
    1UNL    C12   17   0.430   0.037  -0.009
    1UNL    C13   18   0.364   0.083  -0.127
    1UNL    C14   19   0.434   0.147  -0.222
    1UNL    C15   20   0.575   0.150  -0.221
    1UNL    C16   21   0.645   0.100  -0.114
    1UNL    C17   22   0.576   0.036  -0.005
    1UNL     N2   23   0.644  -0.029   0.100
    1UNL    C18   24  -0.028   0.026  -0.091
    1UNL     O5   25   0.059   0.103  -0.133
    1UNL    C19   26  -0.174   0.054  -0.124
    1UNL    C20   27  -0.257   0.008  -0.007
    1UNL     H1   28  -0.521   0.378  -0.159
    1UNL     H2   29  -0.377   0.410  -0.244
    1UNL     H3   30  -0.377   0.460  -0.084
    1UNL     H4   31  -0.604  -0.009  -0.006
    1UNL     H5   32  -0.354  -0.122   0.200
    1UNL     H6   33  -0.384  -0.361   0.239
    1UNL     H7   34  -0.221  -0.363   0.182
    1UNL     H8   35  -0.361  -0.398   0.078
    1UNL     H9   36  -0.261  -0.185  -0.094
    1UNL    H10   37  -0.090  -0.192   0.147
    1UNL    H11   38  -0.075  -0.289   0.000
    1UNL    H12   39   0.189  -0.121  -0.100
    1UNL    H13   40   0.144  -0.216   0.044
    1UNL    H14   41   0.185  -0.058   0.208
    1UNL    H15   42   0.173   0.067   0.102
    1UNL    H16   43   0.258   0.088  -0.141
    1UNL    H17   44   0.376   0.184  -0.305
    1UNL    H18   45   0.636   0.196  -0.297
    1UNL    H19   46   0.752   0.113  -0.111
    1UNL    H20   47   0.603  -0.090   0.165
    1UNL    H21   48   0.739  -0.068   0.096
    1UNL    H22   49  -0.193   0.005  -0.218
    1UNL    H23   50  -0.195   0.162  -0.148
    1UNL    H24   51  -0.222   0.061   0.083
   0.00000   0.00000   0.00000   0.00000   0.00000   0.00000   0.00000   0.00000   0.00000
Generated with MDTraj, t= 2.0
 51
    1UNL     C1    1  -0.418   0.380  -0.158
    1UNL     O1    2  -0.365   0.254  -0.126
    1UNL     C2    3  -0.464   0.172  -0.069
    1UNL     O2    4  -0.581   0.205  -0.059
    1UNL     C3    5  -0.424   0.043  -0.024
    1UNL     C4    6  -0.515  -0.048   0.009
    1UNL     O3    7  -0.489  -0.170   0.061
    1UNL     C5    8  -0.354  -0.202   0.106
    1UNL     C6    9  -0.325  -0.344   0.123
    1UNL     C7   10  -0.248  -0.138   0.009
    1UNL     C8   11  -0.104  -0.167   0.054
    1UNL     N1   12   0.005  -0.101  -0.020
    1UNL     C9   13   0.148  -0.137   0.000
    1UNL    C10   14   0.217  -0.035   0.090
    1UNL    C11   15   0.367  -0.034   0.099
    1UNL     O4   16   0.414  -0.090   0.194
    1UNL    C12   17   0.443   0.018  -0.013
    1UNL    C13   18   0.375   0.088  -0.118
    1UNL    C14   19   0.446   0.159  -0.218
    1UNL    C15   20   0.583   0.148  -0.214
    1UNL    C16   21   0.658   0.077  -0.126
    1UNL    C17   22   0.587   0.010  -0.024
    1UNL     N2   23   0.653  -0.021   0.091
    1UNL    C18   24  -0.024   0.022  -0.083
    1UNL     O5   25   0.061   0.097  -0.123
    1UNL    C19   26  -0.170   0.065  -0.113
    1UNL    C20   27  -0.273   0.013  -0.006
    1UNL     H1   28  -0.511   0.363  -0.209
    1UNL     H2   29  -0.361   0.439  -0.212
    1UNL     H3   30  -0.440   0.444  -0.071
    1UNL     H4   31  -0.622  -0.024  -0.001
    1UNL     H5   32  -0.350  -0.151   0.206
    1UNL     H6   33  -0.412  -0.379   0.169
    1UNL     H7   34  -0.240  -0.369   0.196
    1UNL     H8   35  -0.311  -0.392   0.030
    1UNL     H9   36  -0.263  -0.191  -0.086
    1UNL    H10   37  -0.101  -0.148   0.163
    1UNL    H11   38  -0.088  -0.277   0.051
    1UNL    H12   39   0.201  -0.128  -0.101
    1UNL    H13   40   0.164  -0.237   0.032
    1UNL    H14   41   0.155  -0.022   0.184
    1UNL    H15   42   0.197   0.063   0.056
    1UNL    H16   43   0.266   0.089  -0.136
    1UNL    H17   44   0.399   0.218  -0.296
    1UNL    H18   45   0.623   0.190  -0.306
    1UNL    H19   46   0.768   0.072  -0.120
    1UNL    H20   47   0.609  -0.065   0.169
    1UNL    H21   48   0.752  -0.035   0.078
    1UNL    H22   49  -0.208   0.041  -0.211
    1UNL    H23   50  -0.166   0.180  -0.129
    1UNL    H24   51  -0.255   0.053   0.095
   0.00000   0.00000   0.00000   0.00000   0.00000   0.00000   0.00000   0.00000   0.00000
Generated with MDTraj, t= 3.0
 51
    1UNL     C1    1  -0.425   0.375  -0.166
    1UNL     O1    2  -0.364   0.269  -0.098
    1UNL     C2    3  -0.452   0.172  -0.064
    1UNL     O2    4  -0.571   0.188  -0.086
    1UNL     C3    5  -0.405   0.046  -0.008
    1UNL     C4    6  -0.503  -0.045   0.013
    1UNL     O3    7  -0.491  -0.172   0.059
    1UNL     C5    8  -0.357  -0.213   0.095
    1UNL     C6    9  -0.343  -0.364   0.100
    1UNL     C7   10  -0.235  -0.146   0.015
    1UNL     C8   11  -0.092  -0.162   0.071
    1UNL     N1   12   0.011  -0.093  -0.012
    1UNL     C9   13   0.145  -0.105   0.010
    1UNL    C10   14   0.208   0.000   0.092
    1UNL    C11   15   0.353  -0.022   0.102
    1UNL     O4   16   0.406  -0.090   0.191
    1UNL    C12   17   0.438   0.036  -0.012
    1UNL    C13   18   0.381   0.097  -0.125
    1UNL    C14   19   0.450   0.142  -0.236
    1UNL    C15   20   0.587   0.137  -0.221
    1UNL    C16   21   0.653   0.086  -0.117
    1UNL    C17   22   0.578   0.023  -0.016
    1UNL     N2   23   0.639  -0.062   0.079
    1UNL    C18   24  -0.024   0.025  -0.085
    1UNL     O5   25   0.058   0.095  -0.142
    1UNL    C19   26  -0.173   0.063  -0.095
    1UNL    C20   27  -0.264   0.006   0.015
    1UNL     H1   28  -0.415   0.346  -0.267
    1UNL     H2   29  -0.382   0.465  -0.149
    1UNL     H3   30  -0.534   0.390  -0.148
    1UNL     H4   31  -0.606  -0.032  -0.012
    1UNL     H5   32  -0.338  -0.163   0.196
    1UNL     H6   33  -0.430  -0.394   0.162
    1UNL     H7   34  -0.258  -0.399   0.147
    1UNL     H8   35  -0.358  -0.393  -0.001
    1UNL     H9   36  -0.236  -0.181  -0.088
    1UNL    H10   37  -0.083  -0.136   0.180
    1UNL    H11   38  -0.066  -0.269   0.074
    1UNL    H12   39   0.193  -0.100  -0.097
    1UNL    H13   40   0.167  -0.199   0.049
    1UNL    H14   41   0.171   0.021   0.198
    1UNL    H15   42   0.182   0.093   0.053
    1UNL    H16   43   0.276   0.112  -0.134
    1UNL    H17   44   0.398   0.164  -0.327
    1UNL    H18   45   0.648   0.144  -0.310
    1UNL    H19   46   0.756   0.059  -0.118
    1UNL    H20   47   0.588  -0.111   0.152
    1UNL    H21   48   0.725  -0.110   0.061
    1UNL    H22   49  -0.208   0.040  -0.194
    1UNL    H23   50  -0.203   0.175  -0.102
    1UNL    H24   51  -0.242   0.051   0.114
   0.00000   0.00000   0.00000   0.00000   0.00000   0.00000   0.00000   0.00000   0.00000
Generated with MDTraj, t= 4.0
 51
    1UNL     C1    1  -0.409   0.379  -0.136
    1UNL     O1    2  -0.364   0.270  -0.072
    1UNL     C2    3  -0.459   0.172  -0.077
    1UNL     O2    4  -0.569   0.183  -0.130
    1UNL     C3    5  -0.418   0.039  -0.021
    1UNL     C4    6  -0.512  -0.056   0.016
    1UNL     O3    7  -0.484  -0.178   0.069
    1UNL     C5    8  -0.350  -0.209   0.100
    1UNL     C6    9  -0.321  -0.360   0.108
    1UNL     C7   10  -0.249  -0.144   0.004
    1UNL     C8   11  -0.102  -0.171   0.040
    1UNL     N1   12   0.002  -0.072   0.007
    1UNL     C9   13   0.140  -0.107   0.027
    1UNL    C10   14   0.215  -0.002   0.106
    1UNL    C11   15   0.366  -0.016   0.098
    1UNL     O4   16   0.414  -0.071   0.195
    1UNL    C12   17   0.433   0.016  -0.028
    1UNL    C13   18   0.374   0.102  -0.124
    1UNL    C14   19   0.457   0.151  -0.219
    1UNL    C15   20   0.591   0.129  -0.235
    1UNL    C16   21   0.658   0.053  -0.137
    1UNL    C17   22   0.581   0.001  -0.026
    1UNL     N2   23   0.645  -0.048   0.088
    1UNL    C18   24  -0.035   0.032  -0.078
    1UNL     O5   25   0.047   0.095  -0.137
    1UNL    C19   26  -0.177   0.075  -0.103
    1UNL    C20   27  -0.272   0.006   0.002
    1UNL     H1   28  -0.444   0.342  -0.230
    1UNL     H2   29  -0.331   0.450  -0.151
    1UNL     H3   30  -0.497   0.428  -0.086
    1UNL     H4   31  -0.616  -0.040  -0.000
    1UNL     H5   32  -0.328  -0.158   0.201
    1UNL     H6   33  -0.382  -0.409   0.187
    1UNL     H7   34  -0.226  -0.376   0.140
    1UNL     H8   35  -0.338  -0.404   0.013
    1UNL     H9   36  -0.275  -0.190  -0.093
    1UNL    H10   37  -0.101  -0.194   0.150
    1UNL    H11   38  -0.075  -0.271  -0.000
    1UNL    H12   39   0.189  -0.126  -0.078
    1UNL    H13   40   0.136  -0.196   0.080
    1UNL    H14   41   0.182  -0.007   0.214
    1UNL    H15   42   0.191   0.097   0.080
    1UNL    H16   43   0.266   0.125  -0.132
    1UNL    H17   44   0.412   0.227  -0.286
    1UNL    H18   45   0.646   0.167  -0.321
    1UNL    H19   46   0.762   0.019  -0.155
    1UNL    H20   47   0.582  -0.075   0.163
    1UNL    H21   48   0.739  -0.051   0.129
    1UNL    H22   49  -0.224   0.064  -0.200
    1UNL    H23   50  -0.180   0.191  -0.104
    1UNL    H24   51  -0.235   0.039   0.100
   0.00000   0.00000   0.00000   0.00000   0.00000   0.00000   0.00000   0.00000   0.00000
Generated with MDTraj, t= 5.0
 51
    1UNL     C1    1  -0.439   0.385  -0.106
    1UNL     O1    2  -0.366   0.272  -0.077
    1UNL     C2    3  -0.452   0.167  -0.088
    1UNL     O2    4  -0.566   0.179  -0.128
    1UNL     C3    5  -0.409   0.035  -0.036
    1UNL     C4    6  -0.504  -0.058  -0.010
    1UNL     O3    7  -0.488  -0.180   0.043
    1UNL     C5    8  -0.354  -0.198   0.102
    1UNL     C6    9  -0.338  -0.346   0.131
    1UNL     C7   10  -0.243  -0.147   0.010
    1UNL     C8   11  -0.091  -0.172   0.049
    1UNL     N1   12   0.008  -0.088  -0.017
    1UNL     C9   13   0.147  -0.114   0.015
    1UNL    C10   14   0.213  -0.007   0.098
    1UNL    C11   15   0.367  -0.012   0.110
    1UNL     O4   16   0.420  -0.074   0.200
    1UNL    C12   17   0.440   0.046  -0.007
    1UNL    C13   18   0.374   0.094  -0.127
    1UNL    C14   19   0.447   0.121  -0.242
    1UNL    C15   20   0.583   0.107  -0.245
    1UNL    C16   21   0.650   0.063  -0.134
    1UNL    C17   22   0.582   0.023  -0.019
    1UNL     N2   23   0.647  -0.057   0.077
    1UNL    C18   24  -0.029   0.034  -0.071
    1UNL     O5   25   0.052   0.121  -0.090
    1UNL    C19   26  -0.172   0.066  -0.104
    1UNL    C20   27  -0.271   0.007  -0.001
    1UNL     H1   28  -0.498   0.369  -0.194
    1UNL     H2   29  -0.370   0.474  -0.121
    1UNL     H3   30  -0.504   0.405  -0.018
    1UNL     H4   31  -0.606  -0.022  -0.025
    1UNL     H5   32  -0.356  -0.125   0.193
    1UNL     H6   33  -0.418  -0.392   0.186
    1UNL     H7   34  -0.251  -0.377   0.198
    1UNL     H8   35  -0.331  -0.402   0.044
    1UNL     H9   36  -0.263  -0.205  -0.084
    1UNL    H10   37  -0.087  -0.160   0.160
    1UNL    H11   38  -0.078  -0.281   0.030
    1UNL    H12   39   0.200  -0.126  -0.088
    1UNL    H13   40   0.150  -0.205   0.068
    1UNL    H14   41   0.168  -0.016   0.200
    1UNL    H15   42   0.191   0.089   0.055
    1UNL    H16   43   0.276   0.132  -0.119
    1UNL    H17   44   0.407   0.178  -0.322
    1UNL    H18   45   0.636   0.150  -0.327
    1UNL    H19   46   0.755   0.058  -0.146
    1UNL    H20   47   0.594  -0.071   0.164
    1UNL    H21   48   0.748  -0.086   0.067
    1UNL    H22   49  -0.193   0.038  -0.207
    1UNL    H23   50  -0.200   0.176  -0.119
    1UNL    H24   51  -0.233   0.053   0.090
   0.00000   0.00000   0.00000   0.00000   0.00000   0.00000   0.00000   0.00000   0.00000
Generated with MDTraj, t= 6.0
 51
    1UNL     C1    1  -0.433   0.382  -0.114
    1UNL     O1    2  -0.365   0.264  -0.076
    1UNL     C2    3  -0.462   0.163  -0.077
    1UNL     O2    4  -0.581   0.184  -0.103
    1UNL     C3    5  -0.408   0.030  -0.044
    1UNL     C4    6  -0.496  -0.069  -0.037
    1UNL     O3    7  -0.475  -0.192   0.013
    1UNL     C5    8  -0.350  -0.197   0.090
    1UNL     C6    9  -0.324  -0.341   0.130
    1UNL     C7   10  -0.234  -0.130   0.018
    1UNL     C8   11  -0.093  -0.149   0.076
    1UNL     N1   12   0.004  -0.076  -0.004
    1UNL     C9   13   0.146  -0.116   0.018
    1UNL    C10   14   0.212  -0.018   0.112
    1UNL    C11   15   0.361  -0.028   0.111
    1UNL     O4   16   0.427  -0.066   0.206
    1UNL    C12   17   0.439   0.020  -0.017
    1UNL    C13   18   0.370   0.076  -0.124
    1UNL    C14   19   0.429   0.115  -0.240
    1UNL    C15   20   0.567   0.115  -0.235
    1UNL    C16   21   0.642   0.047  -0.143
    1UNL    C17   22   0.575   0.007  -0.031
    1UNL     N2   23   0.652  -0.035   0.080
    1UNL    C18   24  -0.023   0.042  -0.068
    1UNL     O5   25   0.059   0.119  -0.116
    1UNL    C19   26  -0.168   0.087  -0.094
    1UNL    C20   27  -0.270   0.019  -0.001
    1UNL     H1   28  -0.442   0.393  -0.222
    1UNL     H2   29  -0.373   0.477  -0.077
    1UNL     H3   30  -0.530   0.377  -0.062
    1UNL     H4   31  -0.595  -0.059  -0.085
    1UNL     H5   32  -0.376  -0.124   0.179
    1UNL     H6   33  -0.403  -0.389   0.174
    1UNL     H7   34  -0.242  -0.353   0.211
    1UNL     H8   35  -0.298  -0.402   0.046
    1UNL     H9   36  -0.232  -0.173  -0.084
    1UNL    H10   37  -0.101  -0.111   0.181
    1UNL    H11   38  -0.074  -0.259   0.078
    1UNL    H12   39   0.190  -0.102  -0.089
    1UNL    H13   40   0.153  -0.216   0.050
    1UNL    H14   41   0.180  -0.039   0.218
    1UNL    H15   42   0.185   0.080   0.066
    1UNL    H16   43   0.261   0.076  -0.108
    1UNL    H17   44   0.377   0.184  -0.309
    1UNL    H18   45   0.622   0.162  -0.318
    1UNL    H19   46   0.751   0.035  -0.162
    1UNL    H20   47   0.616  -0.071   0.170
    1UNL    H21   48   0.749  -0.008   0.089
    1UNL    H22   49  -0.209   0.079  -0.197
    1UNL    H23   50  -0.171   0.200  -0.093
    1UNL    H24   51  -0.261   0.077   0.090
   0.00000   0.00000   0.00000   0.00000   0.00000   0.00000   0.00000   0.00000   0.00000
Generated with MDTraj, t= 7.0
 51
    1UNL     C1    1  -0.442   0.380  -0.128
    1UNL     O1    2  -0.376   0.278  -0.068
    1UNL     C2    3  -0.466   0.172  -0.071
    1UNL     O2    4  -0.583   0.184  -0.105
    1UNL     C3    5  -0.416   0.040  -0.033
    1UNL     C4    6  -0.499  -0.065  -0.043
    1UNL     O3    7  -0.464  -0.190   0.000
    1UNL     C5    8  -0.348  -0.204   0.081
    1UNL     C6    9  -0.317  -0.352   0.105
    1UNL     C7   10  -0.230  -0.130   0.020
    1UNL     C8   11  -0.101  -0.143   0.091
    1UNL     N1   12   0.002  -0.060   0.027
    1UNL     C9   13   0.146  -0.106   0.041
    1UNL    C10   14   0.219  -0.005   0.130
    1UNL    C11   15   0.369  -0.025   0.103
    1UNL     O4   16   0.429  -0.082   0.190
    1UNL    C12   17   0.437   0.030  -0.015
    1UNL    C13   18   0.365   0.081  -0.121
    1UNL    C14   19   0.430   0.118  -0.234
    1UNL    C15   20   0.563   0.104  -0.250
    1UNL    C16   21   0.647   0.053  -0.143
    1UNL    C17   22   0.585   0.019  -0.019
    1UNL     N2   23   0.659  -0.044   0.077
    1UNL    C18   24  -0.027   0.033  -0.069
    1UNL     O5   25   0.058   0.085  -0.139
    1UNL    C19   26  -0.168   0.082  -0.088
    1UNL    C20   27  -0.275   0.023   0.006
    1UNL     H1   28  -0.486   0.356  -0.226
    1UNL     H2   29  -0.345   0.453  -0.154
    1UNL     H3   30  -0.510   0.424  -0.052
    1UNL     H4   31  -0.604  -0.064  -0.070
    1UNL     H5   32  -0.367  -0.152   0.185
    1UNL     H6   33  -0.395  -0.405   0.151
    1UNL     H7   34  -0.230  -0.357   0.174
    1UNL     H8   35  -0.292  -0.394   0.005
    1UNL     H9   36  -0.215  -0.182  -0.078
    1UNL    H10   37  -0.116  -0.117   0.199
    1UNL    H11   38  -0.067  -0.250   0.088
    1UNL    H12   39   0.192  -0.109  -0.062
    1UNL    H13   40   0.148  -0.206   0.082
    1UNL    H14   41   0.185  -0.037   0.231
    1UNL    H15   42   0.191   0.099   0.095
    1UNL    H16   43   0.259   0.099  -0.106
    1UNL    H17   44   0.377   0.156  -0.316
    1UNL    H18   45   0.594   0.134  -0.348
    1UNL    H19   46   0.740   0.009  -0.169
    1UNL    H20   47   0.622  -0.055   0.171
    1UNL    H21   48   0.756  -0.059   0.082
    1UNL    H22   49  -0.197   0.066  -0.196
    1UNL    H23   50  -0.179   0.194  -0.094
    1UNL    H24   51  -0.274   0.069   0.104
   0.00000   0.00000   0.00000   0.00000   0.00000   0.00000   0.00000   0.00000   0.00000
Generated with MDTraj, t= 8.0
 51
    1UNL     C1    1  -0.443   0.389  -0.108
    1UNL     O1    2  -0.371   0.269  -0.094
    1UNL     C2    3  -0.464   0.168  -0.093
    1UNL     O2    4  -0.582   0.187  -0.124
    1UNL     C3    5  -0.411   0.035  -0.044
    1UNL     C4    6  -0.501  -0.065  -0.025
    1UNL     O3    7  -0.488  -0.187   0.023
    1UNL     C5    8  -0.357  -0.212   0.083
    1UNL     C6    9  -0.334  -0.367   0.077
    1UNL     C7   10  -0.229  -0.137   0.026
    1UNL     C8   11  -0.111  -0.145   0.108
    1UNL     N1   12  -0.005  -0.061   0.046
    1UNL     C9   13   0.138  -0.104   0.066
    1UNL    C10   14   0.224   0.023   0.109
    1UNL    C11   15   0.370  -0.014   0.103
    1UNL     O4   16   0.428  -0.088   0.181
    1UNL    C12   17   0.443   0.027  -0.023
    1UNL    C13   18   0.372   0.084  -0.131
    1UNL    C14   19   0.443   0.121  -0.244
    1UNL    C15   20   0.584   0.112  -0.249
    1UNL    C16   21   0.649   0.064  -0.145
    1UNL    C17   22   0.586   0.010  -0.027
    1UNL     N2   23   0.666  -0.052   0.069
    1UNL    C18   24  -0.029   0.037  -0.051
    1UNL     O5   25   0.062   0.085  -0.114
    1UNL    C19   26  -0.170   0.078  -0.084
    1UNL    C20   27  -0.270   0.012   0.006
    1UNL     H1   28  -0.491   0.395  -0.208
    1UNL     H2   29  -0.364   0.478  -0.108
    1UNL     H3   30  -0.513   0.389  -0.023
    1UNL     H4   31  -0.602  -0.048  -0.053
    1UNL     H5   32  -0.360  -0.183   0.198
    1UNL     H6   33  -0.425  -0.418   0.124
    1UNL     H7   34  -0.247  -0.393   0.126
    1UNL     H8   35  -0.326  -0.385  -0.033
    1UNL     H9   36  -0.207  -0.182  -0.075
    1UNL    H10   37  -0.135  -0.105   0.210
    1UNL    H11   38  -0.068  -0.247   0.129
    1UNL    H12   39   0.168  -0.154  -0.028
    1UNL    H13   40   0.144  -0.183   0.140
    1UNL    H14   41   0.197   0.048   0.213
    1UNL    H15   42   0.189   0.109   0.041
    1UNL    H16   43   0.267   0.084  -0.140
    1UNL    H17   44   0.386   0.168  -0.329
    1UNL    H18   45   0.649   0.147  -0.329
    1UNL    H19   46   0.757   0.063  -0.157
    1UNL    H20   47   0.622  -0.072   0.156
    1UNL    H21   48   0.765  -0.068   0.051
    1UNL    H22   49  -0.203   0.082  -0.194
    1UNL    H23   50  -0.169   0.188  -0.070
    1UNL    H24   51  -0.267   0.058   0.103
   0.00000   0.00000   0.00000   0.00000   0.00000   0.00000   0.00000   0.00000   0.00000
Generated with MDTraj, t= 9.0
 51
    1UNL     C1    1  -0.416   0.383  -0.137
    1UNL     O1    2  -0.371   0.267  -0.064
    1UNL     C2    3  -0.461   0.168  -0.087
    1UNL     O2    4  -0.569   0.179  -0.140
    1UNL     C3    5  -0.424   0.040  -0.037
    1UNL     C4    6  -0.509  -0.063  -0.020
    1UNL     O3    7  -0.488  -0.186   0.021
    1UNL     C5    8  -0.364  -0.220   0.084
    1UNL     C6    9  -0.342  -0.374   0.088
    1UNL     C7   10  -0.244  -0.142   0.020
    1UNL     C8   11  -0.112  -0.152   0.094
    1UNL     N1   12  -0.005  -0.062   0.047
    1UNL     C9   13   0.142  -0.105   0.067
    1UNL    C10   14   0.228   0.014   0.099
    1UNL    C11   15   0.373  -0.020   0.087
    1UNL     O4   16   0.425  -0.083   0.176
    1UNL    C12   17   0.453   0.022  -0.032
    1UNL    C13   18   0.381   0.076  -0.141
    1UNL    C14   19   0.449   0.130  -0.250
    1UNL    C15   20   0.586   0.118  -0.241
    1UNL    C16   21   0.660   0.059  -0.145
    1UNL    C17   22   0.592  -0.001  -0.040
    1UNL     N2   23   0.660  -0.034   0.073
    1UNL    C18   24  -0.034   0.042  -0.041
    1UNL     O5   25   0.056   0.114  -0.079
    1UNL    C19   26  -0.178   0.081  -0.075
    1UNL    C20   27  -0.287   0.013   0.011
    1UNL     H1   28  -0.435   0.353  -0.245
    1UNL     H2   29  -0.337   0.461  -0.145
    1UNL     H3   30  -0.509   0.416  -0.089
    1UNL     H4   31  -0.611  -0.040  -0.046
    1UNL     H5   32  -0.375  -0.176   0.195
    1UNL     H6   33  -0.444  -0.415   0.125
    1UNL     H7   34  -0.270  -0.404   0.158
    1UNL     H8   35  -0.320  -0.410  -0.014
    1UNL     H9   36  -0.239  -0.181  -0.084
    1UNL    H10   37  -0.122  -0.134   0.204
    1UNL    H11   38  -0.069  -0.255   0.086
    1UNL    H12   39   0.175  -0.153  -0.026
    1UNL    H13   40   0.143  -0.191   0.136
    1UNL    H14   41   0.200   0.052   0.199
    1UNL    H15   42   0.198   0.108   0.037
    1UNL    H16   43   0.273   0.106  -0.134
    1UNL    H17   44   0.407   0.173  -0.338
    1UNL    H18   45   0.636   0.162  -0.325
    1UNL    H19   46   0.767   0.073  -0.132
    1UNL    H20   47   0.630  -0.093   0.149
    1UNL    H21   48   0.763  -0.037   0.076
    1UNL    H22   49  -0.179   0.053  -0.187
    1UNL    H23   50  -0.184   0.190  -0.091
    1UNL    H24   51  -0.282   0.056   0.109
   0.00000   0.00000   0.00000   0.00000   0.00000   0.00000   0.00000   0.00000   0.00000
Generated with MDTraj, t= 10.0
 51
    1UNL     C1    1  -0.414   0.378  -0.147
    1UNL     O1    2  -0.374   0.269  -0.074
    1UNL     C2    3  -0.461   0.166  -0.087
    1UNL     O2    4  -0.567   0.174  -0.147
    1UNL     C3    5  -0.419   0.041  -0.024
    1UNL     C4    6  -0.503  -0.066  -0.024
    1UNL     O3    7  -0.483  -0.194   0.022
    1UNL     C5    8  -0.360  -0.205   0.090
    1UNL     C6    9  -0.330  -0.353   0.113
    1UNL     C7   10  -0.241  -0.133   0.021
    1UNL     C8   11  -0.105  -0.170   0.069
    1UNL     N1   12  -0.005  -0.070   0.021
    1UNL     C9   13   0.141  -0.103   0.027
    1UNL    C10   14   0.223  -0.008   0.115
    1UNL    C11   15   0.372  -0.028   0.090
    1UNL     O4   16   0.426  -0.105   0.166
    1UNL    C12   17   0.443   0.035  -0.023
    1UNL    C13   18   0.375   0.089  -0.127
    1UNL    C14   19   0.437   0.121  -0.242
    1UNL    C15   20   0.570   0.104  -0.250
    1UNL    C16   21   0.648   0.068  -0.141
    1UNL    C17   22   0.588   0.029  -0.024
    1UNL     N2   23   0.653  -0.034   0.080
    1UNL    C18   24  -0.030   0.052  -0.041
    1UNL     O5   25   0.060   0.123  -0.082
    1UNL    C19   26  -0.170   0.094  -0.060
    1UNL    C20   27  -0.272   0.018   0.025
    1UNL     H1   28  -0.395   0.353  -0.256
    1UNL     H2   29  -0.354   0.460  -0.117
    1UNL     H3   30  -0.521   0.393  -0.125
    1UNL     H4   31  -0.602  -0.053  -0.072
    1UNL     H5   32  -0.379  -0.140   0.189
    1UNL     H6   33  -0.416  -0.388   0.174
    1UNL     H7   34  -0.241  -0.389   0.180
    1UNL     H8   35  -0.329  -0.415   0.024
    1UNL     H9   36  -0.240  -0.175  -0.084
    1UNL    H10   37  -0.112  -0.171   0.181
    1UNL    H11   38  -0.075  -0.273   0.034
    1UNL    H12   39   0.168  -0.101  -0.078
    1UNL    H13   40   0.151  -0.210   0.051
    1UNL    H14   41   0.191  -0.004   0.222
    1UNL    H15   42   0.190   0.097   0.086
    1UNL    H16   43   0.271   0.083  -0.129
    1UNL    H17   44   0.377   0.160  -0.326
    1UNL    H18   45   0.605   0.097  -0.352
    1UNL    H19   46   0.753   0.052  -0.138
    1UNL    H20   47   0.603  -0.086   0.154
    1UNL    H21   48   0.743  -0.082   0.080
    1UNL    H22   49  -0.193   0.101  -0.174
    1UNL    H23   50  -0.166   0.200  -0.034
    1UNL    H24   51  -0.265   0.040   0.130
   0.00000   0.00000   0.00000   0.00000   0.00000   0.00000   0.00000   0.00000   0.00000
Generated with MDTraj, t= 11.0
 51
    1UNL     C1    1  -0.440   0.388  -0.135
    1UNL     O1    2  -0.372   0.274  -0.093
    1UNL     C2    3  -0.458   0.169  -0.093
    1UNL     O2    4  -0.572   0.163  -0.138
    1UNL     C3    5  -0.414   0.041  -0.028
    1UNL     C4    6  -0.503  -0.061  -0.024
    1UNL     O3    7  -0.471  -0.185   0.035
    1UNL     C5    8  -0.350  -0.196   0.104
    1UNL     C6    9  -0.318  -0.349   0.117
    1UNL     C7   10  -0.235  -0.123   0.024
    1UNL     C8   11  -0.096  -0.148   0.079
    1UNL     N1   12   0.003  -0.076   0.000
    1UNL     C9   13   0.142  -0.116   0.009
    1UNL    C10   14   0.224  -0.032   0.108
    1UNL    C11   15   0.370  -0.055   0.101
    1UNL     O4   16   0.436  -0.103   0.194
    1UNL    C12   17   0.431   0.007  -0.020
    1UNL    C13   18   0.357   0.074  -0.120
    1UNL    C14   19   0.426   0.140  -0.218
    1UNL    C15   20   0.564   0.132  -0.239
    1UNL    C16   21   0.632   0.068  -0.143
    1UNL    C17   22   0.571   0.007  -0.029
    1UNL     N2   23   0.655  -0.033   0.076
    1UNL    C18   24  -0.021   0.046  -0.062
    1UNL     O5   25   0.069   0.121  -0.086
    1UNL    C19   26  -0.165   0.085  -0.092
    1UNL    C20   27  -0.269   0.029   0.016
    1UNL     H1   28  -0.471   0.368  -0.241
    1UNL     H2   29  -0.384   0.471  -0.119
    1UNL     H3   30  -0.530   0.398  -0.074
    1UNL     H4   31  -0.605  -0.064  -0.061
    1UNL     H5   32  -0.372  -0.129   0.202
    1UNL     H6   33  -0.388  -0.403   0.178
    1UNL     H7   34  -0.216  -0.370   0.174
    1UNL     H8   35  -0.310  -0.404   0.020
    1UNL     H9   36  -0.227  -0.160  -0.082
    1UNL    H10   37  -0.096  -0.112   0.185
    1UNL    H11   38  -0.077  -0.258   0.072
    1UNL    H12   39   0.190  -0.118  -0.084
    1UNL    H13   40   0.141  -0.225   0.037
    1UNL    H14   41   0.183  -0.060   0.208
    1UNL    H15   42   0.185   0.072   0.102
    1UNL    H16   43   0.247   0.095  -0.118
    1UNL    H17   44   0.364   0.177  -0.296
    1UNL    H18   45   0.621   0.180  -0.316
    1UNL    H19   46   0.736   0.039  -0.165
    1UNL    H20   47   0.604  -0.053   0.165
    1UNL    H21   48   0.750  -0.000   0.074
    1UNL    H22   49  -0.201   0.046  -0.195
    1UNL    H23   50  -0.175   0.194  -0.099
    1UNL    H24   51  -0.263   0.077   0.111
   0.00000   0.00000   0.00000   0.00000   0.00000   0.00000   0.00000   0.00000   0.00000
Generated with MDTraj, t= 12.0
 51
    1UNL     C1    1  -0.438   0.388  -0.140
    1UNL     O1    2  -0.373   0.269  -0.094
    1UNL     C2    3  -0.462   0.167  -0.091
    1UNL     O2    4  -0.582   0.174  -0.118
    1UNL     C3    5  -0.411   0.039  -0.039
    1UNL     C4    6  -0.499  -0.062  -0.016
    1UNL     O3    7  -0.488  -0.183   0.047
    1UNL     C5    8  -0.356  -0.200   0.106
    1UNL     C6    9  -0.329  -0.346   0.135
    1UNL     C7   10  -0.245  -0.131   0.019
    1UNL     C8   11  -0.101  -0.142   0.074
    1UNL     N1   12   0.009  -0.077  -0.002
    1UNL     C9   13   0.149  -0.116   0.015
    1UNL    C10   14   0.227  -0.030   0.116
    1UNL    C11   15   0.377  -0.037   0.107
    1UNL     O4   16   0.433  -0.109   0.186
    1UNL    C12   17   0.445   0.030  -0.001
    1UNL    C13   18   0.366   0.098  -0.099
    1UNL    C14   19   0.428   0.142  -0.215
    1UNL    C15   20   0.566   0.151  -0.224
    1UNL    C16   21   0.642   0.081  -0.132
    1UNL    C17   22   0.584   0.013  -0.024
    1UNL     N2   23   0.653  -0.071   0.052
    1UNL    C18   24  -0.021   0.034  -0.081
    1UNL     O5   25   0.066   0.103  -0.126
    1UNL    C19   26  -0.163   0.077  -0.106
    1UNL    C20   27  -0.274   0.021  -0.003
    1UNL     H1   28  -0.511   0.357  -0.218
    1UNL     H2   29  -0.372   0.457  -0.163
    1UNL     H3   30  -0.495   0.433  -0.061
    1UNL     H4   31  -0.600  -0.051  -0.050
    1UNL     H5   32  -0.367  -0.137   0.208
    1UNL     H6   33  -0.415  -0.377   0.194
    1UNL     H7   34  -0.241  -0.362   0.202
    1UNL     H8   35  -0.316  -0.411   0.039
    1UNL     H9   36  -0.242  -0.187  -0.077
    1UNL    H10   37  -0.110  -0.096   0.175
    1UNL    H11   38  -0.078  -0.251   0.088
    1UNL    H12   39   0.183  -0.113  -0.081
    1UNL    H13   40   0.162  -0.226   0.043
    1UNL    H14   41   0.185  -0.060   0.216
    1UNL    H15   42   0.191   0.073   0.107
    1UNL    H16   43   0.259   0.096  -0.095
    1UNL    H17   44   0.372   0.198  -0.295
    1UNL    H18   45   0.614   0.209  -0.302
    1UNL    H19   46   0.745   0.101  -0.137
    1UNL    H20   47   0.611  -0.130   0.125
    1UNL    H21   48   0.753  -0.085   0.035
    1UNL    H22   49  -0.197   0.050  -0.210
    1UNL    H23   50  -0.169   0.188  -0.097
    1UNL    H24   51  -0.256   0.071   0.089
   0.00000   0.00000   0.00000   0.00000   0.00000   0.00000   0.00000   0.00000   0.00000
Generated with MDTraj, t= 13.0
 51
    1UNL     C1    1  -0.417   0.385  -0.159
    1UNL     O1    2  -0.356   0.269  -0.105
    1UNL     C2    3  -0.452   0.168  -0.083
    1UNL     O2    4  -0.572   0.191  -0.095
    1UNL     C3    5  -0.409   0.033  -0.033
    1UNL     C4    6  -0.506  -0.063  -0.006
    1UNL     O3    7  -0.494  -0.188   0.044
    1UNL     C5    8  -0.360  -0.203   0.112
    1UNL     C6    9  -0.327  -0.345   0.157
    1UNL     C7   10  -0.245  -0.148   0.022
    1UNL     C8   11  -0.101  -0.160   0.070
    1UNL     N1   12  -0.005  -0.071   0.007
    1UNL     C9   13   0.134  -0.109   0.025
    1UNL    C10   14   0.211  -0.013   0.107
    1UNL    C11   15   0.359  -0.036   0.086
    1UNL     O4   16   0.413  -0.112   0.162
    1UNL    C12   17   0.442   0.033  -0.016
    1UNL    C13   18   0.389   0.124  -0.104
    1UNL    C14   19   0.458   0.199  -0.191
    1UNL    C15   20   0.586   0.162  -0.214
    1UNL    C16   21   0.649   0.065  -0.134
    1UNL    C17   22   0.580   0.010  -0.030
    1UNL     N2   23   0.640  -0.077   0.061
    1UNL    C18   24  -0.031   0.026  -0.087
    1UNL     O5   25   0.061   0.083  -0.147
    1UNL    C19   26  -0.178   0.059  -0.111
    1UNL    C20   27  -0.269   0.000   0.002
    1UNL     H1   28  -0.457   0.361  -0.259
    1UNL     H2   29  -0.346   0.459  -0.152
    1UNL     H3   30  -0.498   0.419  -0.099
    1UNL     H4   31  -0.603  -0.035  -0.043
    1UNL     H5   32  -0.364  -0.135   0.212
    1UNL     H6   33  -0.423  -0.382   0.202
    1UNL     H7   34  -0.257  -0.343   0.234
    1UNL     H8   35  -0.287  -0.407   0.067
    1UNL     H9   36  -0.250  -0.203  -0.076
    1UNL    H10   37  -0.095  -0.154   0.181
    1UNL    H11   38  -0.069  -0.262   0.042
    1UNL    H12   39   0.182  -0.124  -0.065
    1UNL    H13   40   0.126  -0.211   0.075
    1UNL    H14   41   0.199  -0.020   0.220
    1UNL    H15   42   0.191   0.083   0.067
    1UNL    H16   43   0.289   0.143  -0.075
    1UNL    H17   44   0.406   0.274  -0.240
    1UNL    H18   45   0.642   0.223  -0.283
    1UNL    H19   46   0.759   0.059  -0.136
    1UNL    H20   47   0.603  -0.101   0.151
    1UNL    H21   48   0.742  -0.081   0.073
    1UNL    H22   49  -0.217   0.026  -0.208
    1UNL    H23   50  -0.187   0.172  -0.108
    1UNL    H24   51  -0.233   0.046   0.091
   0.00000   0.00000   0.00000   0.00000   0.00000   0.00000   0.00000   0.00000   0.00000
Generated with MDTraj, t= 14.0
 51
    1UNL     C1    1  -0.405   0.377  -0.166
    1UNL     O1    2  -0.349   0.264  -0.108
    1UNL     C2    3  -0.451   0.171  -0.080
    1UNL     O2    4  -0.571   0.191  -0.092
    1UNL     C3    5  -0.419   0.040  -0.024
    1UNL     C4    6  -0.514  -0.054   0.008
    1UNL     O3    7  -0.497  -0.177   0.065
    1UNL     C5    8  -0.370  -0.204   0.119
    1UNL     C6    9  -0.351  -0.354   0.159
    1UNL     C7   10  -0.254  -0.146   0.020
    1UNL     C8   11  -0.108  -0.166   0.069
    1UNL     N1   12  -0.001  -0.103  -0.011
    1UNL     C9   13   0.136  -0.133   0.010
    1UNL    C10   14   0.211  -0.016   0.079
    1UNL    C11   15   0.358  -0.030   0.081
    1UNL     O4   16   0.406  -0.105   0.162
    1UNL    C12   17   0.439   0.036  -0.026
    1UNL    C13   18   0.391   0.127  -0.116
    1UNL    C14   19   0.475   0.195  -0.199
    1UNL    C15   20   0.614   0.183  -0.197
    1UNL    C16   21   0.663   0.093  -0.103
    1UNL    C17   22   0.577   0.025  -0.014
    1UNL     N2   23   0.649  -0.079   0.053
    1UNL    C18   24  -0.030   0.010  -0.086
    1UNL     O5   25   0.051   0.094  -0.132
    1UNL    C19   26  -0.177   0.044  -0.116
    1UNL    C20   27  -0.275   0.007  -0.001
    1UNL     H1   28  -0.455   0.353  -0.262
    1UNL     H2   29  -0.320   0.443  -0.176
    1UNL     H3   30  -0.471   0.429  -0.100
    1UNL     H4   31  -0.620  -0.032  -0.009
    1UNL     H5   32  -0.356  -0.140   0.221
    1UNL     H6   33  -0.403  -0.395   0.253
    1UNL     H7   34  -0.251  -0.350   0.191
    1UNL     H8   35  -0.353  -0.419   0.069
    1UNL     H9   36  -0.274  -0.195  -0.077
    1UNL    H10   37  -0.098  -0.124   0.171
    1UNL    H11   38  -0.083  -0.272   0.081
    1UNL    H12   39   0.171  -0.158  -0.084
    1UNL    H13   40   0.148  -0.224   0.078
    1UNL    H14   41   0.183  -0.021   0.190
    1UNL    H15   42   0.198   0.076   0.029
    1UNL    H16   43   0.281   0.146  -0.126
    1UNL    H17   44   0.442   0.261  -0.284
    1UNL    H18   45   0.677   0.245  -0.260
    1UNL    H19   46   0.767   0.072  -0.102
    1UNL    H20   47   0.589  -0.144   0.101
    1UNL    H21   48   0.736  -0.113   0.017
    1UNL    H22   49  -0.204   0.002  -0.212
    1UNL    H23   50  -0.177   0.157  -0.135
    1UNL    H24   51  -0.248   0.067   0.083
   0.00000   0.00000   0.00000   0.00000   0.00000   0.00000   0.00000   0.00000   0.00000
Generated with MDTraj, t= 15.0
 51
    1UNL     C1    1  -0.409   0.378  -0.162
    1UNL     O1    2  -0.356   0.256  -0.115
    1UNL     C2    3  -0.463   0.168  -0.082
    1UNL     O2    4  -0.584   0.182  -0.103
    1UNL     C3    5  -0.416   0.044  -0.013
    1UNL     C4    6  -0.515  -0.038   0.025
    1UNL     O3    7  -0.505  -0.161   0.091
    1UNL     C5    8  -0.357  -0.193   0.126
    1UNL     C6    9  -0.346  -0.340   0.145
    1UNL     C7   10  -0.252  -0.141   0.024
    1UNL     C8   11  -0.110  -0.183   0.050
    1UNL     N1   12  -0.004  -0.103  -0.028
    1UNL     C9   13   0.134  -0.131   0.003
    1UNL    C10   14   0.216  -0.028   0.076
    1UNL    C11   15   0.361  -0.053   0.073
    1UNL     O4   16   0.411  -0.125   0.155
    1UNL    C12   17   0.445   0.029  -0.016
    1UNL    C13   18   0.385   0.109  -0.118
    1UNL    C14   19   0.464   0.189  -0.205
    1UNL    C15   20   0.601   0.194  -0.186
    1UNL    C16   21   0.663   0.111  -0.097
    1UNL    C17   22   0.590   0.022  -0.011
    1UNL     N2   23   0.654  -0.053   0.081
    1UNL    C18   24  -0.027   0.014  -0.098
    1UNL     O5   25   0.064   0.079  -0.154
    1UNL    C19   26  -0.176   0.056  -0.113
    1UNL    C20   27  -0.262   0.011   0.009
    1UNL     H1   28  -0.484   0.364  -0.240
    1UNL     H2   29  -0.326   0.444  -0.203
    1UNL     H3   30  -0.454   0.433  -0.080
    1UNL     H4   31  -0.616  -0.016  -0.007
    1UNL     H5   32  -0.324  -0.141   0.230
    1UNL     H6   33  -0.416  -0.369   0.230
    1UNL     H7   34  -0.251  -0.380   0.182
    1UNL     H8   35  -0.366  -0.395   0.061
    1UNL     H9   36  -0.295  -0.188  -0.067
    1UNL    H10   37  -0.083  -0.176   0.156
    1UNL    H11   38  -0.096  -0.287   0.024
    1UNL    H12   39   0.189  -0.144  -0.085
    1UNL    H13   40   0.143  -0.224   0.065
    1UNL    H14   41   0.188  -0.042   0.186
    1UNL    H15   42   0.197   0.066   0.032
    1UNL    H16   43   0.284   0.096  -0.143
    1UNL    H17   44   0.425   0.250  -0.280
    1UNL    H18   45   0.669   0.251  -0.247
    1UNL    H19   46   0.771   0.113  -0.100
    1UNL    H20   47   0.588  -0.097   0.143
    1UNL    H21   48   0.743  -0.094   0.078
    1UNL    H22   49  -0.220   0.025  -0.207
    1UNL    H23   50  -0.171   0.169  -0.130
    1UNL    H24   51  -0.238   0.058   0.102
   0.00000   0.00000   0.00000   0.00000   0.00000   0.00000   0.00000   0.00000   0.00000
Generated with MDTraj, t= 16.0
 51
    1UNL     C1    1  -0.425   0.379  -0.178
    1UNL     O1    2  -0.361   0.270  -0.114
    1UNL     C2    3  -0.452   0.176  -0.079
    1UNL     O2    4  -0.573   0.184  -0.093
    1UNL     C3    5  -0.407   0.057  -0.010
    1UNL     C4    6  -0.491  -0.035   0.037
    1UNL     O3    7  -0.482  -0.158   0.102
    1UNL     C5    8  -0.345  -0.189   0.133
    1UNL     C6    9  -0.339  -0.339   0.142
    1UNL     C7   10  -0.249  -0.139   0.024
    1UNL     C8   11  -0.098  -0.180   0.040
    1UNL     N1   12   0.006  -0.093  -0.028
    1UNL     C9   13   0.141  -0.128  -0.014
    1UNL    C10   14   0.220  -0.053   0.087
    1UNL    C11   15   0.363  -0.067   0.077
    1UNL     O4   16   0.413  -0.165   0.126
    1UNL    C12   17   0.437   0.025  -0.012
    1UNL    C13   18   0.375   0.087  -0.119
    1UNL    C14   19   0.441   0.171  -0.204
    1UNL    C15   20   0.579   0.181  -0.190
    1UNL    C16   21   0.646   0.117  -0.090
    1UNL    C17   22   0.580   0.035  -0.001
    1UNL     N2   23   0.628  -0.012   0.119
    1UNL    C18   24  -0.027   0.015  -0.106
    1UNL     O5   25   0.061   0.081  -0.160
    1UNL    C19   26  -0.175   0.052  -0.127
    1UNL    C20   27  -0.264   0.020  -0.002
    1UNL     H1   28  -0.452   0.360  -0.282
    1UNL     H2   29  -0.344   0.467  -0.187
    1UNL     H3   30  -0.511   0.415  -0.123
    1UNL     H4   31  -0.594  -0.004   0.030
    1UNL     H5   32  -0.311  -0.133   0.234
    1UNL     H6   33  -0.408  -0.387   0.210
    1UNL     H7   34  -0.241  -0.369   0.187
    1UNL     H8   35  -0.343  -0.389   0.051
    1UNL     H9   36  -0.283  -0.191  -0.068
    1UNL    H10   37  -0.071  -0.180   0.146
    1UNL    H11   38  -0.083  -0.282   0.008
    1UNL    H12   39   0.182  -0.104  -0.110
    1UNL    H13   40   0.162  -0.236  -0.001
    1UNL    H14   41   0.196  -0.089   0.191
    1UNL    H15   42   0.201   0.050   0.077
    1UNL    H16   43   0.265   0.078  -0.134
    1UNL    H17   44   0.375   0.222  -0.280
    1UNL    H18   45   0.633   0.243  -0.261
    1UNL    H19   46   0.751   0.141  -0.072
    1UNL    H20   47   0.589  -0.091   0.169
    1UNL    H21   48   0.728  -0.020   0.136
    1UNL    H22   49  -0.203  -0.004  -0.215
    1UNL    H23   50  -0.184   0.160  -0.163
    1UNL    H24   51  -0.226   0.071   0.083
   0.00000   0.00000   0.00000   0.00000   0.00000   0.00000   0.00000   0.00000   0.00000
Generated with MDTraj, t= 17.0
 51
    1UNL     C1    1  -0.405   0.375  -0.185
    1UNL     O1    2  -0.350   0.266  -0.120
    1UNL     C2    3  -0.452   0.184  -0.078
    1UNL     O2    4  -0.574   0.204  -0.084
    1UNL     C3    5  -0.406   0.050  -0.021
    1UNL     C4    6  -0.500  -0.037   0.041
    1UNL     O3    7  -0.475  -0.156   0.103
    1UNL     C5    8  -0.342  -0.185   0.132
    1UNL     C6    9  -0.330  -0.341   0.167
    1UNL     C7   10  -0.241  -0.135   0.022
    1UNL     C8   11  -0.099  -0.171   0.047
    1UNL     N1   12  -0.005  -0.112  -0.057
    1UNL     C9   13   0.141  -0.149  -0.051
    1UNL    C10   14   0.210  -0.080   0.065
    1UNL    C11   15   0.362  -0.077   0.076
    1UNL     O4   16   0.417  -0.167   0.138
    1UNL    C12   17   0.429   0.017  -0.013
    1UNL    C13   18   0.373   0.071  -0.128
    1UNL    C14   19   0.434   0.163  -0.213
    1UNL    C15   20   0.569   0.190  -0.185
    1UNL    C16   21   0.629   0.149  -0.068
    1UNL    C17   22   0.556   0.057   0.015
    1UNL     N2   23   0.636  -0.002   0.116
    1UNL    C18   24  -0.027   0.016  -0.104
    1UNL     O5   25   0.069   0.071  -0.152
    1UNL    C19   26  -0.171   0.071  -0.111
    1UNL    C20   27  -0.259   0.017   0.003
    1UNL     H1   28  -0.461   0.345  -0.274
    1UNL     H2   29  -0.324   0.455  -0.228
    1UNL     H3   30  -0.477   0.425  -0.116
    1UNL     H4   31  -0.602  -0.013   0.016
    1UNL     H5   32  -0.325  -0.120   0.231
    1UNL     H6   33  -0.381  -0.365   0.252
    1UNL     H7   34  -0.222  -0.354   0.195
    1UNL     H8   35  -0.344  -0.406   0.080
    1UNL     H9   36  -0.271  -0.181  -0.074
    1UNL    H10   37  -0.072  -0.143   0.148
    1UNL    H11   38  -0.095  -0.278   0.038
    1UNL    H12   39   0.194  -0.139  -0.147
    1UNL    H13   40   0.142  -0.257  -0.042
    1UNL    H14   41   0.182  -0.138   0.157
    1UNL    H15   42   0.174   0.018   0.087
    1UNL    H16   43   0.273   0.050  -0.156
    1UNL    H17   44   0.392   0.205  -0.300
    1UNL    H18   45   0.615   0.243  -0.267
    1UNL    H19   46   0.722   0.178  -0.028
    1UNL    H20   47   0.595  -0.077   0.174
    1UNL    H21   48   0.738   0.020   0.129
    1UNL    H22   49  -0.227   0.052  -0.205
    1UNL    H23   50  -0.171   0.182  -0.106
    1UNL    H24   51  -0.222   0.062   0.092
   0.00000   0.00000   0.00000   0.00000   0.00000   0.00000   0.00000   0.00000   0.00000
Generated with MDTraj, t= 18.0
 51
    1UNL     C1    1  -0.398   0.374  -0.179
    1UNL     O1    2  -0.339   0.265  -0.123
    1UNL     C2    3  -0.435   0.187  -0.072
    1UNL     O2    4  -0.553   0.214  -0.080
    1UNL     C3    5  -0.393   0.062  -0.006
    1UNL     C4    6  -0.491  -0.030   0.036
    1UNL     O3    7  -0.480  -0.157   0.090
    1UNL     C5    8  -0.344  -0.185   0.132
    1UNL     C6    9  -0.327  -0.329   0.184
    1UNL     C7   10  -0.246  -0.155   0.016
    1UNL     C8   11  -0.104  -0.197   0.046
    1UNL     N1   12  -0.005  -0.121  -0.040
    1UNL     C9   13   0.130  -0.153  -0.028
    1UNL    C10   14   0.204  -0.056   0.071
    1UNL    C11   15   0.351  -0.076   0.065
    1UNL     O4   16   0.407  -0.165   0.126
    1UNL    C12   17   0.426   0.011  -0.028
    1UNL    C13   18   0.362   0.092  -0.123
    1UNL    C14   19   0.429   0.191  -0.192
    1UNL    C15   20   0.563   0.215  -0.171
    1UNL    C16   21   0.625   0.145  -0.074
    1UNL    C17   22   0.562   0.045   0.001
    1UNL     N2   23   0.623  -0.003   0.112
    1UNL    C18   24  -0.024  -0.003  -0.115
    1UNL     O5   25   0.068   0.055  -0.165
    1UNL    C19   26  -0.164   0.049  -0.129
    1UNL    C20   27  -0.257   0.010  -0.005
    1UNL     H1   28  -0.485   0.351  -0.241
    1UNL     H2   29  -0.320   0.414  -0.255
    1UNL     H3   30  -0.425   0.453  -0.101
    1UNL     H4   31  -0.595   0.006   0.038
    1UNL     H5   32  -0.329  -0.109   0.223
    1UNL     H6   33  -0.401  -0.331   0.256
    1UNL     H7   34  -0.234  -0.344   0.231
    1UNL     H8   35  -0.333  -0.401   0.098
    1UNL     H9   36  -0.284  -0.206  -0.074
    1UNL    H10   37  -0.085  -0.174   0.150
    1UNL    H11   38  -0.094  -0.302   0.032
    1UNL    H12   39   0.169  -0.152  -0.133
    1UNL    H13   40   0.142  -0.251   0.005
    1UNL    H14   41   0.173  -0.081   0.176
    1UNL    H15   42   0.178   0.047   0.056
    1UNL    H16   43   0.258   0.077  -0.139
    1UNL    H17   44   0.382   0.232  -0.283
    1UNL    H18   45   0.632   0.285  -0.219
    1UNL    H19   46   0.735   0.152  -0.054
    1UNL    H20   47   0.576  -0.078   0.168
    1UNL    H21   48   0.707   0.035   0.156
    1UNL    H22   49  -0.215   0.013  -0.221
    1UNL    H23   50  -0.167   0.157  -0.136
    1UNL    H24   51  -0.213   0.056   0.080
   0.00000   0.00000   0.00000   0.00000   0.00000   0.00000   0.00000   0.00000   0.00000
Generated with MDTraj, t= 19.0
 51
    1UNL     C1    1  -0.368   0.377  -0.156
    1UNL     O1    2  -0.317   0.246  -0.132
    1UNL     C2    3  -0.430   0.178  -0.076
    1UNL     O2    4  -0.547   0.219  -0.073
    1UNL     C3    5  -0.405   0.047  -0.019
    1UNL     C4    6  -0.502  -0.020   0.042
    1UNL     O3    7  -0.489  -0.137   0.112
    1UNL     C5    8  -0.352  -0.181   0.135
    1UNL     C6    9  -0.359  -0.328   0.177
    1UNL     C7   10  -0.257  -0.154   0.013
    1UNL     C8   11  -0.114  -0.194   0.044
    1UNL     N1   12  -0.010  -0.121  -0.026
    1UNL     C9   13   0.137  -0.159  -0.013
    1UNL    C10   14   0.205  -0.062   0.086
    1UNL    C11   15   0.353  -0.062   0.057
    1UNL     O4   16   0.409  -0.151   0.113
    1UNL    C12   17   0.431   0.045  -0.005
    1UNL    C13   18   0.364   0.123  -0.100
    1UNL    C14   19   0.435   0.198  -0.192
    1UNL    C15   20   0.571   0.228  -0.168
    1UNL    C16   21   0.635   0.159  -0.067
    1UNL    C17   22   0.575   0.059   0.007
    1UNL     N2   23   0.646  -0.024   0.087
    1UNL    C18   24  -0.036  -0.023  -0.125
    1UNL     O5   25   0.056   0.025  -0.187
    1UNL    C19   26  -0.180   0.016  -0.153
    1UNL    C20   27  -0.262   0.000  -0.017
    1UNL     H1   28  -0.419   0.373  -0.253
    1UNL     H2   29  -0.295   0.459  -0.164
    1UNL     H3   30  -0.449   0.400  -0.077
    1UNL     H4   31  -0.608   0.010   0.045
    1UNL     H5   32  -0.309  -0.119   0.228
    1UNL     H6   33  -0.431  -0.327   0.257
    1UNL     H7   34  -0.275  -0.372   0.211
    1UNL     H8   35  -0.387  -0.394   0.090
    1UNL     H9   36  -0.288  -0.211  -0.077
    1UNL    H10   37  -0.101  -0.179   0.150
    1UNL    H11   38  -0.098  -0.295   0.017
    1UNL    H12   39   0.192  -0.137  -0.109
    1UNL    H13   40   0.157  -0.257   0.008
    1UNL    H14   41   0.174  -0.087   0.189
    1UNL    H15   42   0.158   0.036   0.078
    1UNL    H16   43   0.257   0.106  -0.121
    1UNL    H17   44   0.381   0.247  -0.270
    1UNL    H18   45   0.625   0.291  -0.238
    1UNL    H19   46   0.737   0.172  -0.063
    1UNL    H20   47   0.599  -0.101   0.135
    1UNL    H21   48   0.745  -0.036   0.090
    1UNL    H22   49  -0.225  -0.055  -0.229
    1UNL    H23   50  -0.187   0.111  -0.200
    1UNL    H24   51  -0.208   0.049   0.061
   0.00000   0.00000   0.00000   0.00000   0.00000   0.00000   0.00000   0.00000   0.00000
Generated with MDTraj, t= 20.0
 51
    1UNL     C1    1  -0.353   0.368  -0.163
    1UNL     O1    2  -0.311   0.251  -0.108
    1UNL     C2    3  -0.420   0.183  -0.075
    1UNL     O2    4  -0.534   0.221  -0.088
    1UNL     C3    5  -0.392   0.053  -0.014
    1UNL     C4    6  -0.487  -0.023   0.035
    1UNL     O3    7  -0.494  -0.135   0.104
    1UNL     C5    8  -0.363  -0.176   0.142
    1UNL     C6    9  -0.363  -0.326   0.164
    1UNL     C7   10  -0.252  -0.151   0.028
    1UNL     C8   11  -0.111  -0.199   0.058
    1UNL     N1   12  -0.013  -0.133  -0.030
    1UNL     C9   13   0.129  -0.169  -0.009
    1UNL    C10   14   0.198  -0.058   0.066
    1UNL    C11   15   0.351  -0.065   0.055
    1UNL     O4   16   0.406  -0.144   0.129
    1UNL    C12   17   0.428   0.034  -0.024
    1UNL    C13   18   0.363   0.115  -0.118
    1UNL    C14   19   0.428   0.223  -0.173
    1UNL    C15   20   0.562   0.247  -0.154
    1UNL    C16   21   0.631   0.158  -0.077
    1UNL    C17   22   0.560   0.056  -0.006
    1UNL     N2   23   0.641  -0.025   0.078
    1UNL    C18   24  -0.038  -0.033  -0.126
    1UNL     O5   25   0.056   0.015  -0.189
    1UNL    C19   26  -0.181   0.012  -0.142
    1UNL    C20   27  -0.254  -0.004  -0.009
    1UNL     H1   28  -0.435   0.339  -0.233
    1UNL     H2   29  -0.273   0.403  -0.219
    1UNL     H3   30  -0.394   0.441  -0.087
    1UNL     H4   31  -0.588   0.010   0.027
    1UNL     H5   32  -0.334  -0.115   0.241
    1UNL     H6   33  -0.417  -0.362   0.251
    1UNL     H7   34  -0.266  -0.367   0.177
    1UNL     H8   35  -0.388  -0.385   0.078
    1UNL     H9   36  -0.285  -0.209  -0.060
    1UNL    H10   37  -0.089  -0.165   0.158
    1UNL    H11   38  -0.105  -0.305   0.052
    1UNL    H12   39   0.169  -0.196  -0.111
    1UNL    H13   40   0.137  -0.256   0.045
    1UNL    H14   41   0.160  -0.046   0.171
    1UNL    H15   42   0.154   0.043   0.038
    1UNL    H16   43   0.260   0.097  -0.129
    1UNL    H17   44   0.360   0.298  -0.215
    1UNL    H18   45   0.600   0.340  -0.193
    1UNL    H19   46   0.741   0.166  -0.056
    1UNL    H20   47   0.600  -0.091   0.138
    1UNL    H21   48   0.733   0.011   0.097
    1UNL    H22   49  -0.231  -0.041  -0.231
    1UNL    H23   50  -0.170   0.113  -0.173
    1UNL    H24   51  -0.202   0.052   0.065
   0.00000   0.00000   0.00000   0.00000   0.00000   0.00000   0.00000   0.00000   0.00000
Generated with MDTraj, t= 21.0
 51
    1UNL     C1    1  -0.353   0.371  -0.173
    1UNL     O1    2  -0.301   0.261  -0.115
    1UNL     C2    3  -0.411   0.187  -0.079
    1UNL     O2    4  -0.529   0.219  -0.089
    1UNL     C3    5  -0.387   0.055  -0.016
    1UNL     C4    6  -0.491  -0.020   0.031
    1UNL     O3    7  -0.484  -0.142   0.087
    1UNL     C5    8  -0.354  -0.183   0.140
    1UNL     C6    9  -0.355  -0.330   0.174
    1UNL     C7   10  -0.244  -0.145   0.034
    1UNL     C8   11  -0.111  -0.200   0.056
    1UNL     N1   12  -0.009  -0.143  -0.037
    1UNL     C9   13   0.134  -0.181  -0.011
    1UNL    C10   14   0.191  -0.068   0.073
    1UNL    C11   15   0.344  -0.065   0.062
    1UNL     O4   16   0.402  -0.163   0.109
    1UNL    C12   17   0.414   0.040  -0.020
    1UNL    C13   18   0.351   0.109  -0.119
    1UNL    C14   19   0.414   0.212  -0.187
    1UNL    C15   20   0.547   0.241  -0.168
    1UNL    C16   21   0.610   0.160  -0.075
    1UNL    C17   22   0.550   0.066   0.004
    1UNL     N2   23   0.628  -0.010   0.086
    1UNL    C18   24  -0.032  -0.031  -0.114
    1UNL     O5   25   0.062   0.020  -0.176
    1UNL    C19   26  -0.162   0.039  -0.121
    1UNL    C20   27  -0.248   0.005   0.005
    1UNL     H1   28  -0.407   0.333  -0.261
    1UNL     H2   29  -0.276   0.432  -0.193
    1UNL     H3   30  -0.426   0.423  -0.108
    1UNL     H4   31  -0.589   0.018   0.013
    1UNL     H5   32  -0.335  -0.115   0.237
    1UNL     H6   33  -0.428  -0.349   0.251
    1UNL     H7   34  -0.258  -0.371   0.215
    1UNL     H8   35  -0.367  -0.393   0.095
    1UNL     H9   36  -0.285  -0.200  -0.054
    1UNL    H10   37  -0.082  -0.194   0.160
    1UNL    H11   38  -0.107  -0.303   0.027
    1UNL    H12   39   0.189  -0.203  -0.105
    1UNL    H13   40   0.124  -0.271   0.042
    1UNL    H14   41   0.178  -0.081   0.182
    1UNL    H15   42   0.140   0.036   0.070
    1UNL    H16   43   0.242   0.088  -0.130
    1UNL    H17   44   0.357   0.283  -0.245
    1UNL    H18   45   0.600   0.332  -0.195
    1UNL    H19   46   0.713   0.175  -0.055
    1UNL    H20   47   0.600  -0.093   0.129
    1UNL    H21   48   0.725  -0.013   0.058
    1UNL    H22   49  -0.201   0.010  -0.222
    1UNL    H23   50  -0.139   0.143  -0.132
    1UNL    H24   51  -0.215   0.059   0.091
   0.00000   0.00000   0.00000   0.00000   0.00000   0.00000   0.00000   0.00000   0.00000
Generated with MDTraj, t= 22.0
 51
    1UNL     C1    1  -0.360   0.389  -0.172
    1UNL     O1    2  -0.314   0.268  -0.110
    1UNL     C2    3  -0.430   0.185  -0.078
    1UNL     O2    4  -0.544   0.230  -0.093
    1UNL     C3    5  -0.399   0.053  -0.023
    1UNL     C4    6  -0.496  -0.019   0.042
    1UNL     O3    7  -0.484  -0.142   0.095
    1UNL     C5    8  -0.352  -0.178   0.131
    1UNL     C6    9  -0.362  -0.326   0.176
    1UNL     C7   10  -0.247  -0.151   0.018
    1UNL     C8   11  -0.111  -0.195   0.052
    1UNL     N1   12   0.000  -0.129  -0.032
    1UNL     C9   13   0.136  -0.175  -0.011
    1UNL    C10   14   0.219  -0.102   0.094
    1UNL    C11   15   0.370  -0.087   0.059
    1UNL     O4   16   0.437  -0.174   0.105
    1UNL    C12   17   0.429   0.025  -0.012
    1UNL    C13   18   0.351   0.084  -0.107
    1UNL    C14   19   0.401   0.184  -0.191
    1UNL    C15   20   0.527   0.235  -0.171
    1UNL    C16   21   0.605   0.171  -0.078
    1UNL    C17   22   0.560   0.067   0.001
    1UNL     N2   23   0.634   0.020   0.104
    1UNL    C18   24  -0.027  -0.022  -0.115
    1UNL     O5   25   0.060   0.042  -0.176
    1UNL    C19   26  -0.165   0.027  -0.138
    1UNL    C20   27  -0.262   0.004  -0.014
    1UNL     H1   28  -0.413   0.358  -0.261
    1UNL     H2   29  -0.284   0.452  -0.181
    1UNL     H3   30  -0.433   0.439  -0.110
    1UNL     H4   31  -0.596   0.027   0.042
    1UNL     H5   32  -0.321  -0.100   0.217
    1UNL     H6   33  -0.445  -0.320   0.243
    1UNL     H7   34  -0.270  -0.354   0.233
    1UNL     H8   35  -0.372  -0.391   0.094
    1UNL     H9   36  -0.276  -0.208  -0.073
    1UNL    H10   37  -0.081  -0.169   0.153
    1UNL    H11   38  -0.096  -0.302   0.051
    1UNL    H12   39   0.185  -0.151  -0.107
    1UNL    H13   40   0.137  -0.282   0.003
    1UNL    H14   41   0.203  -0.155   0.190
    1UNL    H15   42   0.170  -0.002   0.126
    1UNL    H16   43   0.250   0.054  -0.119
    1UNL    H17   44   0.339   0.232  -0.265
    1UNL    H18   45   0.567   0.314  -0.231
    1UNL    H19   46   0.707   0.206  -0.071
    1UNL    H20   47   0.599  -0.068   0.139
    1UNL    H21   48   0.734   0.018   0.110
    1UNL    H22   49  -0.201  -0.018  -0.232
    1UNL    H23   50  -0.149   0.134  -0.160
    1UNL    H24   51  -0.222   0.055   0.071
   0.00000   0.00000   0.00000   0.00000   0.00000   0.00000   0.00000   0.00000   0.00000
Generated with MDTraj, t= 23.0
 51
    1UNL     C1    1  -0.372   0.392  -0.160
    1UNL     O1    2  -0.329   0.266  -0.124
    1UNL     C2    3  -0.435   0.189  -0.081
    1UNL     O2    4  -0.551   0.222  -0.095
    1UNL     C3    5  -0.396   0.059  -0.015
    1UNL     C4    6  -0.495  -0.021   0.026
    1UNL     O3    7  -0.481  -0.141   0.093
    1UNL     C5    8  -0.343  -0.179   0.135
    1UNL     C6    9  -0.353  -0.338   0.180
    1UNL     C7   10  -0.237  -0.149   0.022
    1UNL     C8   11  -0.093  -0.181   0.063
    1UNL     N1   12   0.004  -0.124  -0.036
    1UNL     C9   13   0.138  -0.164  -0.014
    1UNL    C10   14   0.219  -0.089   0.091
    1UNL    C11   15   0.366  -0.093   0.059
    1UNL     O4   16   0.428  -0.177   0.118
    1UNL    C12   17   0.424   0.015  -0.022
    1UNL    C13   18   0.355   0.076  -0.127
    1UNL    C14   19   0.406   0.186  -0.193
    1UNL    C15   20   0.528   0.239  -0.161
    1UNL    C16   21   0.600   0.170  -0.071
    1UNL    C17   22   0.556   0.054   0.001
    1UNL     N2   23   0.630   0.006   0.106
    1UNL    C18   24  -0.025  -0.018  -0.121
    1UNL     O5   25   0.062   0.033  -0.190
    1UNL    C19   26  -0.166   0.043  -0.128
    1UNL    C20   27  -0.256   0.010  -0.004
    1UNL     H1   28  -0.457   0.381  -0.227
    1UNL     H2   29  -0.287   0.443  -0.193
    1UNL     H3   30  -0.404   0.442  -0.070
    1UNL     H4   31  -0.599   0.006   0.003
    1UNL     H5   32  -0.317  -0.104   0.226
    1UNL     H6   33  -0.435  -0.345   0.243
    1UNL     H7   34  -0.260  -0.368   0.228
    1UNL     H8   35  -0.360  -0.395   0.082
    1UNL     H9   36  -0.263  -0.200  -0.074
    1UNL    H10   37  -0.083  -0.130   0.160
    1UNL    H11   38  -0.067  -0.285   0.081
    1UNL    H12   39   0.192  -0.159  -0.108
    1UNL    H13   40   0.131  -0.268   0.026
    1UNL    H14   41   0.198  -0.124   0.193
    1UNL    H15   42   0.177   0.019   0.091
    1UNL    H16   43   0.258   0.041  -0.155
    1UNL    H17   44   0.333   0.216  -0.268
    1UNL    H18   45   0.566   0.315  -0.229
    1UNL    H19   46   0.705   0.193  -0.048
    1UNL    H20   47   0.582  -0.066   0.168
    1UNL    H21   48   0.727   0.029   0.123
    1UNL    H22   49  -0.215   0.013  -0.219
    1UNL    H23   50  -0.156   0.154  -0.133
    1UNL    H24   51  -0.219   0.059   0.085
   0.00000   0.00000   0.00000   0.00000   0.00000   0.00000   0.00000   0.00000   0.00000
Generated with MDTraj, t= 24.0
 51
    1UNL     C1    1  -0.381   0.382  -0.175
    1UNL     O1    2  -0.335   0.269  -0.113
    1UNL     C2    3  -0.436   0.191  -0.075
    1UNL     O2    4  -0.555   0.217  -0.084
    1UNL     C3    5  -0.392   0.055  -0.012
    1UNL     C4    6  -0.487  -0.035   0.016
    1UNL     O3    7  -0.477  -0.153   0.083
    1UNL     C5    8  -0.347  -0.182   0.135
    1UNL     C6    9  -0.346  -0.330   0.179
    1UNL     C7   10  -0.241  -0.135   0.036
    1UNL     C8   11  -0.097  -0.168   0.063
    1UNL     N1   12  -0.004  -0.140  -0.041
    1UNL     C9   13   0.141  -0.176  -0.021
    1UNL    C10   14   0.200  -0.073   0.073
    1UNL    C11   15   0.348  -0.073   0.063
    1UNL     O4   16   0.409  -0.169   0.105
    1UNL    C12   17   0.413   0.039  -0.011
    1UNL    C13   18   0.359   0.102  -0.116
    1UNL    C14   19   0.428   0.201  -0.188
    1UNL    C15   20   0.569   0.220  -0.174
    1UNL    C16   21   0.622   0.155  -0.067
    1UNL    C17   22   0.553   0.062   0.009
    1UNL     N2   23   0.624  -0.013   0.100
    1UNL    C18   24  -0.027  -0.028  -0.118
    1UNL     O5   25   0.056   0.025  -0.186
    1UNL    C19   26  -0.164   0.042  -0.127
    1UNL    C20   27  -0.245   0.019   0.010
    1UNL     H1   28  -0.453   0.347  -0.253
    1UNL     H2   29  -0.295   0.444  -0.204
    1UNL     H3   30  -0.437   0.430  -0.098
    1UNL     H4   31  -0.591  -0.018  -0.009
    1UNL     H5   32  -0.332  -0.115   0.234
    1UNL     H6   33  -0.415  -0.346   0.257
    1UNL     H7   34  -0.253  -0.337   0.230
    1UNL     H8   35  -0.355  -0.408   0.092
    1UNL     H9   36  -0.270  -0.191  -0.057
    1UNL    H10   37  -0.060  -0.111   0.149
    1UNL    H11   38  -0.109  -0.275   0.085
    1UNL    H12   39   0.187  -0.175  -0.116
    1UNL    H13   40   0.146  -0.281   0.024
    1UNL    H14   41   0.181  -0.099   0.179
    1UNL    H15   42   0.164   0.034   0.058
    1UNL    H16   43   0.257   0.072  -0.151
    1UNL    H17   44   0.387   0.254  -0.271
    1UNL    H18   45   0.630   0.279  -0.239
    1UNL    H19   46   0.723   0.168  -0.040
    1UNL    H20   47   0.598  -0.111   0.126
    1UNL    H21   48   0.727  -0.018   0.085
    1UNL    H22   49  -0.218   0.008  -0.211
    1UNL    H23   50  -0.147   0.151  -0.140
    1UNL    H24   51  -0.203   0.070   0.095
   0.00000   0.00000   0.00000   0.00000   0.00000   0.00000   0.00000   0.00000   0.00000
Generated with MDTraj, t= 25.0
 51
    1UNL     C1    1  -0.373   0.375  -0.170
    1UNL     O1    2  -0.338   0.252  -0.107
    1UNL     C2    3  -0.442   0.174  -0.075
    1UNL     O2    4  -0.556   0.210  -0.085
    1UNL     C3    5  -0.409   0.046  -0.020
    1UNL     C4    6  -0.506  -0.035   0.030
    1UNL     O3    7  -0.496  -0.147   0.098
    1UNL     C5    8  -0.355  -0.176   0.142
    1UNL     C6    9  -0.348  -0.319   0.187
    1UNL     C7   10  -0.256  -0.147   0.025
    1UNL     C8   11  -0.107  -0.191   0.042
    1UNL     N1   12  -0.010  -0.112  -0.031
    1UNL     C9   13   0.126  -0.150  -0.007
    1UNL    C10   14   0.217  -0.049   0.068
    1UNL    C11   15   0.365  -0.071   0.056
    1UNL     O4   16   0.408  -0.164   0.121
    1UNL    C12   17   0.447   0.018  -0.026
    1UNL    C13   18   0.383   0.103  -0.121
    1UNL    C14   19   0.441   0.215  -0.181
    1UNL    C15   20   0.576   0.227  -0.162
    1UNL    C16   21   0.648   0.143  -0.079
    1UNL    C17   22   0.581   0.040  -0.004
    1UNL     N2   23   0.638  -0.017   0.104
    1UNL    C18   24  -0.035  -0.010  -0.122
    1UNL     O5   25   0.051   0.053  -0.178
    1UNL    C19   26  -0.187   0.026  -0.144
    1UNL    C20   27  -0.271   0.000  -0.011
    1UNL     H1   28  -0.414   0.351  -0.273
    1UNL     H2   29  -0.281   0.442  -0.170
    1UNL     H3   30  -0.448   0.419  -0.107
    1UNL     H4   31  -0.606  -0.009   0.010
    1UNL     H5   32  -0.322  -0.103   0.231
    1UNL     H6   33  -0.411  -0.349   0.271
    1UNL     H7   34  -0.258  -0.348   0.233
    1UNL     H8   35  -0.369  -0.389   0.097
    1UNL     H9   36  -0.290  -0.208  -0.063
    1UNL    H10   37  -0.097  -0.188   0.152
    1UNL    H11   38  -0.092  -0.294   0.003
    1UNL    H12   39   0.162  -0.177  -0.102
    1UNL    H13   40   0.131  -0.249   0.055
    1UNL    H14   41   0.192  -0.058   0.178
    1UNL    H15   42   0.201   0.055   0.033
    1UNL    H16   43   0.286   0.075  -0.144
    1UNL    H17   44   0.399   0.277  -0.262
    1UNL    H18   45   0.636   0.301  -0.214
    1UNL    H19   46   0.749   0.168  -0.041
    1UNL    H20   47   0.595  -0.102   0.141
    1UNL    H21   48   0.740  -0.033   0.106
    1UNL    H22   49  -0.230  -0.026  -0.224
    1UNL    H23   50  -0.191   0.134  -0.174
    1UNL    H24   51  -0.220   0.054   0.067
   0.00000   0.00000   0.00000   0.00000   0.00000   0.00000   0.00000   0.00000   0.00000
Generated with MDTraj, t= 26.0
 51
    1UNL     C1    1  -0.401   0.382  -0.161
    1UNL     O1    2  -0.339   0.256  -0.129
    1UNL     C2    3  -0.442   0.162  -0.084
    1UNL     O2    4  -0.561   0.193  -0.095
    1UNL     C3    5  -0.406   0.040  -0.022
    1UNL     C4    6  -0.507  -0.027   0.045
    1UNL     O3    7  -0.491  -0.144   0.108
    1UNL     C5    8  -0.352  -0.186   0.139
    1UNL     C6    9  -0.352  -0.331   0.174
    1UNL     C7   10  -0.258  -0.151   0.016
    1UNL     C8   11  -0.120  -0.198   0.037
    1UNL     N1   12  -0.010  -0.111  -0.021
    1UNL     C9   13   0.132  -0.143  -0.010
    1UNL    C10   14   0.214  -0.046   0.070
    1UNL    C11   15   0.354  -0.060   0.056
    1UNL     O4   16   0.402  -0.154   0.118
    1UNL    C12   17   0.435   0.038  -0.019
    1UNL    C13   18   0.381   0.117  -0.120
    1UNL    C14   19   0.463   0.191  -0.199
    1UNL    C15   20   0.601   0.210  -0.169
    1UNL    C16   21   0.658   0.139  -0.067
    1UNL    C17   22   0.578   0.048  -0.000
    1UNL     N2   23   0.640  -0.038   0.088
    1UNL    C18   24  -0.029  -0.001  -0.104
    1UNL     O5   25   0.054   0.071  -0.154
    1UNL    C19   26  -0.173   0.035  -0.134
    1UNL    C20   27  -0.263   0.002  -0.007
    1UNL     H1   28  -0.494   0.362  -0.221
    1UNL     H2   29  -0.326   0.455  -0.220
    1UNL     H3   30  -0.425   0.425  -0.065
    1UNL     H4   31  -0.609   0.013   0.038
    1UNL     H5   32  -0.323  -0.119   0.233
    1UNL     H6   33  -0.419  -0.355   0.265
    1UNL     H7   34  -0.267  -0.372   0.225
    1UNL     H8   35  -0.386  -0.396   0.096
    1UNL     H9   36  -0.302  -0.198  -0.076
    1UNL    H10   37  -0.091  -0.205   0.144
    1UNL    H11   38  -0.118  -0.302  -0.005
    1UNL    H12   39   0.180  -0.154  -0.102
    1UNL    H13   40   0.146  -0.247   0.040
    1UNL    H14   41   0.187  -0.055   0.181
    1UNL    H15   42   0.183   0.051   0.031
    1UNL    H16   43   0.276   0.104  -0.157
    1UNL    H17   44   0.413   0.219  -0.289
    1UNL    H18   45   0.654   0.279  -0.232
    1UNL    H19   46   0.753   0.166  -0.030
    1UNL    H20   47   0.577  -0.104   0.128
    1UNL    H21   48   0.739  -0.048   0.089
    1UNL    H22   49  -0.204  -0.007  -0.227
    1UNL    H23   50  -0.176   0.143  -0.156
    1UNL    H24   51  -0.220   0.059   0.074
   0.00000   0.00000   0.00000   0.00000   0.00000   0.00000   0.00000   0.00000   0.00000
Generated with MDTraj, t= 27.0
 51
    1UNL     C1    1  -0.421   0.364  -0.192
    1UNL     O1    2  -0.360   0.268  -0.119
    1UNL     C2    3  -0.450   0.174  -0.077
    1UNL     O2    4  -0.569   0.195  -0.089
    1UNL     C3    5  -0.406   0.050  -0.008
    1UNL     C4    6  -0.506  -0.030   0.037
    1UNL     O3    7  -0.486  -0.152   0.101
    1UNL     C5    8  -0.349  -0.195   0.123
    1UNL     C6    9  -0.329  -0.348   0.141
    1UNL     C7   10  -0.245  -0.141   0.019
    1UNL     C8   11  -0.105  -0.173   0.061
    1UNL     N1   12  -0.007  -0.107  -0.030
    1UNL     C9   13   0.129  -0.149  -0.018
    1UNL    C10   14   0.207  -0.059   0.071
    1UNL    C11   15   0.354  -0.063   0.069
    1UNL     O4   16   0.406  -0.147   0.137
    1UNL    C12   17   0.430   0.029  -0.017
    1UNL    C13   18   0.377   0.117  -0.116
    1UNL    C14   19   0.460   0.200  -0.196
    1UNL    C15   20   0.598   0.192  -0.195
    1UNL    C16   21   0.648   0.114  -0.089
    1UNL    C17   22   0.573   0.033  -0.001
    1UNL     N2   23   0.645  -0.038   0.101
    1UNL    C18   24  -0.028   0.009  -0.102
    1UNL     O5   25   0.064   0.068  -0.154
    1UNL    C19   26  -0.169   0.061  -0.113
    1UNL    C20   27  -0.263   0.014   0.006
    1UNL     H1   28  -0.472   0.327  -0.285
    1UNL     H2   29  -0.323   0.428  -0.226
    1UNL     H3   30  -0.482   0.423  -0.123
    1UNL     H4   31  -0.609   0.013   0.042
    1UNL     H5   32  -0.336  -0.153   0.234
    1UNL     H6   33  -0.381  -0.392   0.235
    1UNL     H7   34  -0.227  -0.364   0.179
    1UNL     H8   35  -0.354  -0.400   0.056
    1UNL     H9   36  -0.271  -0.193  -0.078
    1UNL    H10   37  -0.099  -0.140   0.167
    1UNL    H11   38  -0.068  -0.281   0.057
    1UNL    H12   39   0.164  -0.140  -0.117
    1UNL    H13   40   0.152  -0.261   0.002
    1UNL    H14   41   0.168  -0.079   0.177
    1UNL    H15   42   0.177   0.042   0.052
    1UNL    H16   43   0.275   0.108  -0.139
    1UNL    H17   44   0.412   0.256  -0.278
    1UNL    H18   45   0.662   0.262  -0.247
    1UNL    H19   46   0.756   0.126  -0.071
    1UNL    H20   47   0.592  -0.084   0.169
    1UNL    H21   48   0.735  -0.020   0.137
    1UNL    H22   49  -0.213   0.038  -0.210
    1UNL    H23   50  -0.155   0.168  -0.121
    1UNL    H24   51  -0.239   0.070   0.096
   0.00000   0.00000   0.00000   0.00000   0.00000   0.00000   0.00000   0.00000   0.00000
Generated with MDTraj, t= 28.0
 51
    1UNL     C1    1  -0.419   0.363  -0.200
    1UNL     O1    2  -0.362   0.261  -0.119
    1UNL     C2    3  -0.455   0.173  -0.070
    1UNL     O2    4  -0.574   0.195  -0.084
    1UNL     C3    5  -0.408   0.046  -0.008
    1UNL     C4    6  -0.502  -0.041   0.028
    1UNL     O3    7  -0.485  -0.168   0.083
    1UNL     C5    8  -0.345  -0.190   0.125
    1UNL     C6    9  -0.323  -0.351   0.129
    1UNL     C7   10  -0.244  -0.136   0.020
    1UNL     C8   11  -0.099  -0.150   0.061
    1UNL     N1   12   0.005  -0.076  -0.023
    1UNL     C9   13   0.149  -0.117  -0.021
    1UNL    C10   14   0.215  -0.048   0.087
    1UNL    C11   15   0.360  -0.071   0.085
    1UNL     O4   16   0.411  -0.150   0.159
    1UNL    C12   17   0.444   0.010  -0.010
    1UNL    C13   18   0.372   0.076  -0.109
    1UNL    C14   19   0.433   0.162  -0.197
    1UNL    C15   20   0.568   0.182  -0.190
    1UNL    C16   21   0.650   0.114  -0.097
    1UNL    C17   22   0.584   0.032  -0.006
    1UNL     N2   23   0.654  -0.039   0.082
    1UNL    C18   24  -0.035   0.030  -0.100
    1UNL     O5   25   0.048   0.093  -0.163
    1UNL    C19   26  -0.182   0.068  -0.109
    1UNL    C20   27  -0.263   0.016   0.010
    1UNL     H1   28  -0.434   0.340  -0.307
    1UNL     H2   29  -0.351   0.457  -0.196
    1UNL     H3   30  -0.512   0.389  -0.148
    1UNL     H4   31  -0.603  -0.029  -0.012
    1UNL     H5   32  -0.327  -0.141   0.232
    1UNL     H6   33  -0.395  -0.389   0.205
    1UNL     H7   34  -0.225  -0.364   0.176
    1UNL     H8   35  -0.337  -0.388   0.032
    1UNL     H9   36  -0.250  -0.192  -0.079
    1UNL    H10   37  -0.076  -0.119   0.166
    1UNL    H11   38  -0.073  -0.260   0.057
    1UNL    H12   39   0.188  -0.106  -0.118
    1UNL    H13   40   0.151  -0.233  -0.023
    1UNL    H14   41   0.185  -0.089   0.188
    1UNL    H15   42   0.191   0.057   0.093
    1UNL    H16   43   0.263   0.063  -0.112
    1UNL    H17   44   0.385   0.216  -0.273
    1UNL    H18   45   0.620   0.252  -0.255
    1UNL    H19   46   0.752   0.144  -0.078
    1UNL    H20   47   0.613  -0.117   0.126
    1UNL    H21   48   0.749  -0.024   0.113
    1UNL    H22   49  -0.220   0.040  -0.208
    1UNL    H23   50  -0.184   0.173  -0.103
    1UNL    H24   51  -0.228   0.064   0.100
   0.00000   0.00000   0.00000   0.00000   0.00000   0.00000   0.00000   0.00000   0.00000
Generated with MDTraj, t= 29.0
 51
    1UNL     C1    1  -0.441   0.385  -0.163
    1UNL     O1    2  -0.374   0.262  -0.117
    1UNL     C2    3  -0.460   0.163  -0.089
    1UNL     O2    4  -0.579   0.180  -0.099
    1UNL     C3    5  -0.412   0.043  -0.029
    1UNL     C4    6  -0.502  -0.050   0.004
    1UNL     O3    7  -0.490  -0.164   0.074
    1UNL     C5    8  -0.349  -0.187   0.115
    1UNL     C6    9  -0.337  -0.341   0.142
    1UNL     C7   10  -0.243  -0.132   0.021
    1UNL     C8   11  -0.095  -0.160   0.058
    1UNL     N1   12   0.010  -0.091  -0.019
    1UNL     C9   13   0.150  -0.125  -0.002
    1UNL    C10   14   0.221  -0.037   0.107
    1UNL    C11   15   0.366  -0.057   0.093
    1UNL     O4   16   0.416  -0.148   0.152
    1UNL    C12   17   0.439   0.027  -0.011
    1UNL    C13   18   0.378   0.106  -0.106
    1UNL    C14   19   0.437   0.173  -0.208
    1UNL    C15   20   0.578   0.170  -0.208
    1UNL    C16   21   0.643   0.092  -0.116
    1UNL    C17   22   0.580   0.028  -0.012
    1UNL     N2   23   0.656  -0.047   0.082
    1UNL    C18   24  -0.023   0.021  -0.085
    1UNL     O5   25   0.070   0.092  -0.122
    1UNL    C19   26  -0.165   0.066  -0.113
    1UNL    C20   27  -0.268   0.022   0.001
    1UNL     H1   28  -0.527   0.371  -0.226
    1UNL     H2   29  -0.376   0.455  -0.220
    1UNL     H3   30  -0.476   0.432  -0.069
    1UNL     H4   31  -0.605  -0.026  -0.002
    1UNL     H5   32  -0.339  -0.122   0.214
    1UNL     H6   33  -0.419  -0.368   0.203
    1UNL     H7   34  -0.252  -0.338   0.212
    1UNL     H8   35  -0.319  -0.401   0.050
    1UNL     H9   36  -0.262  -0.182  -0.079
    1UNL    H10   37  -0.088  -0.137   0.168
    1UNL    H11   38  -0.061  -0.267   0.044
    1UNL    H12   39   0.197  -0.121  -0.095
    1UNL    H13   40   0.158  -0.242   0.006
    1UNL    H14   41   0.179  -0.057   0.207
    1UNL    H15   42   0.192   0.065   0.082
    1UNL    H16   43   0.269   0.110  -0.102
    1UNL    H17   44   0.369   0.208  -0.291
    1UNL    H18   45   0.629   0.225  -0.281
    1UNL    H19   46   0.750   0.086  -0.124
    1UNL    H20   47   0.603  -0.097   0.155
    1UNL    H21   48   0.752  -0.077   0.060
    1UNL    H22   49  -0.200   0.023  -0.209
    1UNL    H23   50  -0.159   0.170  -0.118
    1UNL    H24   51  -0.237   0.073   0.091
   0.00000   0.00000   0.00000   0.00000   0.00000   0.00000   0.00000   0.00000   0.00000
Generated with MDTraj, t= 30.0
 51
    1UNL     C1    1  -0.416   0.381  -0.139
    1UNL     O1    2  -0.366   0.260  -0.098
    1UNL     C2    3  -0.463   0.166  -0.089
    1UNL     O2    4  -0.577   0.184  -0.128
    1UNL     C3    5  -0.418   0.037  -0.035
    1UNL     C4    6  -0.518  -0.057  -0.011
    1UNL     O3    7  -0.493  -0.181   0.040
    1UNL     C5    8  -0.362  -0.189   0.119
    1UNL     C6    9  -0.334  -0.335   0.166
    1UNL     C7   10  -0.248  -0.141   0.019
    1UNL     C8   11  -0.110  -0.168   0.068
    1UNL     N1   12  -0.002  -0.093  -0.002
    1UNL     C9   13   0.141  -0.119   0.011
    1UNL    C10   14   0.218  -0.022   0.106
    1UNL    C11   15   0.367  -0.052   0.084
    1UNL     O4   16   0.430  -0.118   0.161
    1UNL    C12   17   0.439   0.017  -0.027
    1UNL    C13   18   0.376   0.108  -0.118
    1UNL    C14   19   0.457   0.182  -0.205
    1UNL    C15   20   0.596   0.173  -0.214
    1UNL    C16   21   0.658   0.089  -0.128
    1UNL    C17   22   0.582   0.011  -0.031
    1UNL     N2   23   0.645  -0.059   0.068
    1UNL    C18   24  -0.028   0.026  -0.071
    1UNL     O5   25   0.064   0.102  -0.101
    1UNL    C19   26  -0.167   0.065  -0.103
    1UNL    C20   27  -0.268   0.011   0.000
    1UNL     H1   28  -0.469   0.369  -0.228
    1UNL     H2   29  -0.334   0.443  -0.164
    1UNL     H3   30  -0.481   0.430  -0.063
    1UNL     H4   31  -0.613  -0.038  -0.058
    1UNL     H5   32  -0.370  -0.109   0.206
    1UNL     H6   33  -0.396  -0.365   0.241
    1UNL     H7   34  -0.235  -0.345   0.212
    1UNL     H8   35  -0.338  -0.414   0.082
    1UNL     H9   36  -0.267  -0.202  -0.076
    1UNL    H10   37  -0.096  -0.149   0.179
    1UNL    H11   38  -0.099  -0.279   0.046
    1UNL    H12   39   0.180  -0.125  -0.085
    1UNL    H13   40   0.163  -0.228   0.039
    1UNL    H14   41   0.181  -0.044   0.203
    1UNL    H15   42   0.177   0.077   0.077
    1UNL    H16   43   0.272   0.117  -0.112
    1UNL    H17   44   0.407   0.248  -0.268
    1UNL    H18   45   0.647   0.245  -0.281
    1UNL    H19   46   0.764   0.067  -0.139
    1UNL    H20   47   0.592  -0.070   0.159
    1UNL    H21   48   0.746  -0.056   0.079
    1UNL    H22   49  -0.192   0.030  -0.205
    1UNL    H23   50  -0.170   0.170  -0.097
    1UNL    H24   51  -0.255   0.064   0.094
   0.00000   0.00000   0.00000   0.00000   0.00000   0.00000   0.00000   0.00000   0.00000
Generated with MDTraj, t= 31.0
 51
    1UNL     C1    1  -0.400   0.381  -0.144
    1UNL     O1    2  -0.361   0.268  -0.072
    1UNL     C2    3  -0.451   0.164  -0.084
    1UNL     O2    4  -0.556   0.182  -0.142
    1UNL     C3    5  -0.421   0.036  -0.025
    1UNL     C4    6  -0.513  -0.066  -0.018
    1UNL     O3    7  -0.486  -0.193   0.026
    1UNL     C5    8  -0.368  -0.207   0.102
    1UNL     C6    9  -0.344  -0.348   0.146
    1UNL     C7   10  -0.247  -0.134   0.030
    1UNL     C8   11  -0.104  -0.156   0.080
    1UNL     N1   12  -0.005  -0.080   0.013
    1UNL     C9   13   0.140  -0.108   0.033
    1UNL    C10   14   0.218  -0.008   0.113
    1UNL    C11   15   0.367  -0.034   0.087
    1UNL     O4   16   0.419  -0.119   0.162
    1UNL    C12   17   0.444   0.040  -0.020
    1UNL    C13   18   0.375   0.106  -0.121
    1UNL    C14   19   0.445   0.156  -0.227
    1UNL    C15   20   0.587   0.161  -0.221
    1UNL    C16   21   0.653   0.096  -0.122
    1UNL    C17   22   0.590   0.021  -0.024
    1UNL     N2   23   0.653  -0.079   0.047
    1UNL    C18   24  -0.035   0.030  -0.066
    1UNL     O5   25   0.051   0.101  -0.115
    1UNL    C19   26  -0.180   0.063  -0.098
    1UNL    C20   27  -0.278   0.015   0.011
    1UNL     H1   28  -0.343   0.372  -0.230
    1UNL     H2   29  -0.363   0.463  -0.097
    1UNL     H3   30  -0.506   0.396  -0.172
    1UNL     H4   31  -0.613  -0.038  -0.055
    1UNL     H5   32  -0.378  -0.138   0.196
    1UNL     H6   33  -0.415  -0.386   0.213
    1UNL     H7   34  -0.255  -0.350   0.210
    1UNL     H8   35  -0.321  -0.433   0.073
    1UNL     H9   36  -0.242  -0.183  -0.072
    1UNL    H10   37  -0.120  -0.109   0.183
    1UNL    H11   38  -0.065  -0.263   0.087
    1UNL    H12   39   0.180  -0.116  -0.065
    1UNL    H13   40   0.150  -0.220   0.058
    1UNL    H14   41   0.194  -0.023   0.215
    1UNL    H15   42   0.192   0.096   0.077
    1UNL    H16   43   0.264   0.115  -0.122
    1UNL    H17   44   0.408   0.235  -0.297
    1UNL    H18   45   0.646   0.206  -0.296
    1UNL    H19   46   0.760   0.096  -0.123
    1UNL    H20   47   0.597  -0.142   0.107
    1UNL    H21   48   0.751  -0.096   0.074
    1UNL    H22   49  -0.214   0.031  -0.196
    1UNL    H23   50  -0.182   0.170  -0.098
    1UNL    H24   51  -0.268   0.072   0.104
   0.00000   0.00000   0.00000   0.00000   0.00000   0.00000   0.00000   0.00000   0.00000
Generated with MDTraj, t= 32.0
 51
    1UNL     C1    1  -0.430   0.391  -0.131
    1UNL     O1    2  -0.368   0.272  -0.075
    1UNL     C2    3  -0.452   0.162  -0.094
    1UNL     O2    4  -0.559   0.181  -0.151
    1UNL     C3    5  -0.412   0.035  -0.037
    1UNL     C4    6  -0.501  -0.063  -0.028
    1UNL     O3    7  -0.490  -0.181   0.044
    1UNL     C5    8  -0.359  -0.206   0.106
    1UNL     C6    9  -0.335  -0.357   0.100
    1UNL     C7   10  -0.239  -0.137   0.024
    1UNL     C8   11  -0.113  -0.141   0.102
    1UNL     N1   12  -0.006  -0.078   0.026
    1UNL     C9   13   0.134  -0.124   0.046
    1UNL    C10   14   0.217  -0.014   0.104
    1UNL    C11   15   0.370  -0.037   0.088
    1UNL     O4   16   0.420  -0.119   0.168
    1UNL    C12   17   0.444   0.030  -0.023
    1UNL    C13   18   0.371   0.104  -0.117
    1UNL    C14   19   0.437   0.167  -0.216
    1UNL    C15   20   0.572   0.140  -0.229
    1UNL    C16   21   0.648   0.067  -0.146
    1UNL    C17   22   0.581   0.012  -0.038
    1UNL     N2   23   0.661  -0.035   0.063
    1UNL    C18   24  -0.027   0.028  -0.060
    1UNL     O5   25   0.067   0.077  -0.117
    1UNL    C19   26  -0.161   0.086  -0.076
    1UNL    C20   27  -0.271   0.017   0.012
    1UNL     H1   28  -0.416   0.375  -0.234
    1UNL     H2   29  -0.385   0.475  -0.104
    1UNL     H3   30  -0.541   0.399  -0.116
    1UNL     H4   31  -0.599  -0.036  -0.070
    1UNL     H5   32  -0.360  -0.154   0.212
    1UNL     H6   33  -0.428  -0.414   0.130
    1UNL     H7   34  -0.258  -0.391   0.168
    1UNL     H8   35  -0.297  -0.386   0.003
    1UNL     H9   36  -0.224  -0.188  -0.078
    1UNL    H10   37  -0.122  -0.100   0.208
    1UNL    H11   38  -0.090  -0.251   0.106
    1UNL    H12   39   0.162  -0.174  -0.043
    1UNL    H13   40   0.131  -0.215   0.115
    1UNL    H14   41   0.188   0.008   0.202
    1UNL    H15   42   0.191   0.072   0.037
    1UNL    H16   43   0.268   0.121  -0.112
    1UNL    H17   44   0.386   0.238  -0.272
    1UNL    H18   45   0.620   0.192  -0.315
    1UNL    H19   46   0.753   0.041  -0.156
    1UNL    H20   47   0.622  -0.089   0.139
    1UNL    H21   48   0.764  -0.028   0.065
    1UNL    H22   49  -0.191   0.077  -0.178
    1UNL    H23   50  -0.157   0.194  -0.058
    1UNL    H24   51  -0.267   0.061   0.113
   0.00000   0.00000   0.00000   0.00000   0.00000   0.00000   0.00000   0.00000   0.00000
Generated with MDTraj, t= 33.0
 51
    1UNL     C1    1  -0.441   0.391  -0.129
    1UNL     O1    2  -0.372   0.277  -0.088
    1UNL     C2    3  -0.451   0.170  -0.091
    1UNL     O2    4  -0.564   0.173  -0.138
    1UNL     C3    5  -0.410   0.040  -0.038
    1UNL     C4    6  -0.500  -0.056  -0.034
    1UNL     O3    7  -0.488  -0.179   0.025
    1UNL     C5    8  -0.359  -0.212   0.091
    1UNL     C6    9  -0.343  -0.370   0.084
    1UNL     C7   10  -0.239  -0.131   0.032
    1UNL     C8   11  -0.108  -0.149   0.100
    1UNL     N1   12  -0.002  -0.063   0.047
    1UNL     C9   13   0.131  -0.117   0.039
    1UNL    C10   14   0.224  -0.016   0.114
    1UNL    C11   15   0.379  -0.039   0.099
    1UNL     O4   16   0.441  -0.116   0.173
    1UNL    C12   17   0.446   0.017  -0.020
    1UNL    C13   18   0.367   0.067  -0.130
    1UNL    C14   19   0.428   0.126  -0.240
    1UNL    C15   20   0.565   0.138  -0.240
    1UNL    C16   21   0.644   0.100  -0.134
    1UNL    C17   22   0.588   0.029  -0.024
    1UNL     N2   23   0.671  -0.039   0.065
    1UNL    C18   24  -0.026   0.042  -0.044
    1UNL     O5   25   0.064   0.093  -0.105
    1UNL    C19   26  -0.165   0.084  -0.079
    1UNL    C20   27  -0.274   0.021   0.017
    1UNL     H1   28  -0.528   0.348  -0.181
    1UNL     H2   29  -0.378   0.443  -0.192
    1UNL     H3   30  -0.479   0.464  -0.048
    1UNL     H4   31  -0.592  -0.037  -0.084
    1UNL     H5   32  -0.374  -0.179   0.203
    1UNL     H6   33  -0.444  -0.404   0.135
    1UNL     H7   34  -0.258  -0.397   0.145
    1UNL     H8   35  -0.329  -0.399  -0.015
    1UNL     H9   36  -0.232  -0.173  -0.075
    1UNL    H10   37  -0.133  -0.120   0.208
    1UNL    H11   38  -0.073  -0.255   0.102
    1UNL    H12   39   0.163  -0.143  -0.060
    1UNL    H13   40   0.133  -0.217   0.089
    1UNL    H14   41   0.192  -0.019   0.215
    1UNL    H15   42   0.193   0.084   0.075
    1UNL    H16   43   0.258   0.066  -0.130
    1UNL    H17   44   0.362   0.158  -0.324
    1UNL    H18   45   0.604   0.161  -0.335
    1UNL    H19   46   0.750   0.092  -0.147
    1UNL    H20   47   0.638  -0.079   0.150
    1UNL    H21   48   0.770  -0.043   0.044
    1UNL    H22   49  -0.189   0.073  -0.182
    1UNL    H23   50  -0.172   0.195  -0.071
    1UNL    H24   51  -0.270   0.071   0.116
   0.00000   0.00000   0.00000   0.00000   0.00000   0.00000   0.00000   0.00000   0.00000
Generated with MDTraj, t= 34.0
 51
    1UNL     C1    1  -0.414   0.379  -0.138
    1UNL     O1    2  -0.368   0.262  -0.092
    1UNL     C2    3  -0.465   0.169  -0.081
    1UNL     O2    4  -0.581   0.193  -0.107
    1UNL     C3    5  -0.417   0.038  -0.035
    1UNL     C4    6  -0.502  -0.068  -0.029
    1UNL     O3    7  -0.473  -0.193  -0.000
    1UNL     C5    8  -0.359  -0.207   0.078
    1UNL     C6    9  -0.324  -0.358   0.098
    1UNL     C7   10  -0.242  -0.126   0.014
    1UNL     C8   11  -0.111  -0.155   0.080
    1UNL     N1   12  -0.001  -0.067   0.034
    1UNL     C9   13   0.135  -0.117   0.059
    1UNL    C10   14   0.226  -0.011   0.116
    1UNL    C11   15   0.370  -0.045   0.092
    1UNL     O4   16   0.438  -0.111   0.168
    1UNL    C12   17   0.437   0.012  -0.031
    1UNL    C13   18   0.360   0.059  -0.134
    1UNL    C14   19   0.425   0.112  -0.242
    1UNL    C15   20   0.564   0.127  -0.245
    1UNL    C16   21   0.645   0.081  -0.142
    1UNL    C17   22   0.585   0.019  -0.031
    1UNL     N2   23   0.656  -0.009   0.089
    1UNL    C18   24  -0.024   0.051  -0.040
    1UNL     O5   25   0.067   0.121  -0.077
    1UNL    C19   26  -0.164   0.093  -0.078
    1UNL    C20   27  -0.274   0.024   0.011
    1UNL     H1   28  -0.480   0.347  -0.225
    1UNL     H2   29  -0.325   0.439  -0.155
    1UNL     H3   30  -0.477   0.438  -0.061
    1UNL     H4   31  -0.604  -0.053  -0.057
    1UNL     H5   32  -0.378  -0.166   0.186
    1UNL     H6   33  -0.407  -0.394   0.169
    1UNL     H7   34  -0.231  -0.356   0.156
    1UNL     H8   35  -0.306  -0.409   0.008
    1UNL     H9   36  -0.223  -0.174  -0.089
    1UNL    H10   37  -0.115  -0.155   0.195
    1UNL    H11   38  -0.085  -0.260   0.054
    1UNL    H12   39   0.173  -0.156  -0.035
    1UNL    H13   40   0.141  -0.210   0.121
    1UNL    H14   41   0.203   0.003   0.220
    1UNL    H15   42   0.203   0.086   0.072
    1UNL    H16   43   0.252   0.077  -0.124
    1UNL    H17   44   0.374   0.149  -0.326
    1UNL    H18   45   0.625   0.142  -0.335
    1UNL    H19   46   0.750   0.073  -0.162
    1UNL    H20   47   0.617  -0.066   0.160
    1UNL    H21   48   0.748  -0.043   0.081
    1UNL    H22   49  -0.178   0.069  -0.179
    1UNL    H23   50  -0.171   0.205  -0.089
    1UNL    H24   51  -0.274   0.066   0.114
   0.00000   0.00000   0.00000   0.00000   0.00000   0.00000   0.00000   0.00000   0.00000
Generated with MDTraj, t= 35.0
 51
    1UNL     C1    1  -0.419   0.390  -0.138
    1UNL     O1    2  -0.363   0.268  -0.097
    1UNL     C2    3  -0.463   0.168  -0.075
    1UNL     O2    4  -0.582   0.197  -0.092
    1UNL     C3    5  -0.414   0.038  -0.031
    1UNL     C4    6  -0.502  -0.064  -0.035
    1UNL     O3    7  -0.480  -0.190  -0.008
    1UNL     C5    8  -0.366  -0.211   0.085
    1UNL     C6    9  -0.356  -0.364   0.102
    1UNL     C7   10  -0.238  -0.141   0.016
    1UNL     C8   11  -0.100  -0.168   0.075
    1UNL     N1   12   0.006  -0.077   0.018
    1UNL     C9   13   0.148  -0.115   0.049
    1UNL    C10   14   0.230  -0.004   0.114
    1UNL    C11   15   0.376  -0.026   0.099
    1UNL     O4   16   0.435  -0.097   0.172
    1UNL    C12   17   0.441   0.033  -0.020
    1UNL    C13   18   0.365   0.082  -0.132
    1UNL    C14   19   0.429   0.111  -0.248
    1UNL    C15   20   0.563   0.103  -0.250
    1UNL    C16   21   0.644   0.056  -0.145
    1UNL    C17   22   0.582   0.023  -0.025
    1UNL     N2   23   0.661  -0.005   0.085
    1UNL    C18   24  -0.024   0.045  -0.041
    1UNL     O5   25   0.066   0.125  -0.064
    1UNL    C19   26  -0.171   0.079  -0.081
    1UNL    C20   27  -0.272   0.005   0.007
    1UNL     H1   28  -0.428   0.393  -0.253
    1UNL     H2   29  -0.360   0.473  -0.091
    1UNL     H3   30  -0.524   0.396  -0.097
    1UNL     H4   31  -0.606  -0.043  -0.067
    1UNL     H5   32  -0.395  -0.152   0.181
    1UNL     H6   33  -0.450  -0.395   0.143
    1UNL     H7   34  -0.274  -0.398   0.170
    1UNL     H8   35  -0.326  -0.417   0.012
    1UNL     H9   36  -0.229  -0.183  -0.090
    1UNL    H10   37  -0.111  -0.156   0.188
    1UNL    H11   38  -0.065  -0.272   0.063
    1UNL    H12   39   0.196  -0.137  -0.045
    1UNL    H13   40   0.152  -0.213   0.099
    1UNL    H14   41   0.210   0.028   0.216
    1UNL    H15   42   0.205   0.083   0.061
    1UNL    H16   43   0.261   0.093  -0.127
    1UNL    H17   44   0.382   0.166  -0.331
    1UNL    H18   45   0.611   0.132  -0.342
    1UNL    H19   46   0.752   0.036  -0.155
    1UNL    H20   47   0.610  -0.040   0.164
    1UNL    H21   48   0.749  -0.052   0.076
    1UNL    H22   49  -0.183   0.061  -0.184
    1UNL    H23   50  -0.187   0.190  -0.082
    1UNL    H24   51  -0.268   0.055   0.107
   0.00000   0.00000   0.00000   0.00000   0.00000   0.00000   0.00000   0.00000   0.00000
Generated with MDTraj, t= 36.0
 51
    1UNL     C1    1  -0.422   0.392  -0.119
    1UNL     O1    2  -0.367   0.277  -0.073
    1UNL     C2    3  -0.460   0.172  -0.080
    1UNL     O2    4  -0.575   0.198  -0.115
    1UNL     C3    5  -0.416   0.039  -0.042
    1UNL     C4    6  -0.500  -0.063  -0.030
    1UNL     O3    7  -0.487  -0.185   0.026
    1UNL     C5    8  -0.354  -0.220   0.082
    1UNL     C6    9  -0.341  -0.369   0.091
    1UNL     C7   10  -0.239  -0.144   0.003
    1UNL     C8   11  -0.102  -0.172   0.065
    1UNL     N1   12   0.005  -0.067   0.034
    1UNL     C9   13   0.147  -0.110   0.040
    1UNL    C10   14   0.221  -0.001   0.114
    1UNL    C11   15   0.375  -0.009   0.113
    1UNL     O4   16   0.442  -0.060   0.196
    1UNL    C12   17   0.438   0.025  -0.016
    1UNL    C13   18   0.367   0.064  -0.131
    1UNL    C14   19   0.427   0.120  -0.240
    1UNL    C15   20   0.565   0.110  -0.244
    1UNL    C16   21   0.645   0.062  -0.143
    1UNL    C17   22   0.581   0.020  -0.028
    1UNL     N2   23   0.657  -0.045   0.073
    1UNL    C18   24  -0.027   0.036  -0.053
    1UNL     O5   25   0.062   0.103  -0.106
    1UNL    C19   26  -0.167   0.080  -0.087
    1UNL    C20   27  -0.278   0.010   0.006
    1UNL     H1   28  -0.487   0.381  -0.214
    1UNL     H2   29  -0.333   0.463  -0.137
    1UNL     H3   30  -0.482   0.429  -0.034
    1UNL     H4   31  -0.603  -0.046  -0.062
    1UNL     H5   32  -0.361  -0.168   0.183
    1UNL     H6   33  -0.426  -0.410   0.130
    1UNL     H7   34  -0.259  -0.410   0.156
    1UNL     H8   35  -0.305  -0.424  -0.000
    1UNL     H9   36  -0.242  -0.186  -0.104
    1UNL    H10   37  -0.111  -0.167   0.177
    1UNL    H11   38  -0.069  -0.274   0.045
    1UNL    H12   39   0.179  -0.124  -0.063
    1UNL    H13   40   0.170  -0.208   0.080
    1UNL    H14   41   0.181  -0.004   0.216
    1UNL    H15   42   0.192   0.094   0.087
    1UNL    H16   43   0.256   0.086  -0.120
    1UNL    H17   44   0.367   0.179  -0.307
    1UNL    H18   45   0.603   0.167  -0.327
    1UNL    H19   46   0.748   0.056  -0.161
    1UNL    H20   47   0.613  -0.056   0.167
    1UNL    H21   48   0.760  -0.046   0.070
    1UNL    H22   49  -0.191   0.049  -0.188
    1UNL    H23   50  -0.172   0.191  -0.092
    1UNL    H24   51  -0.268   0.055   0.108
   0.00000   0.00000   0.00000   0.00000   0.00000   0.00000   0.00000   0.00000   0.00000
Generated with MDTraj, t= 37.0
 51
    1UNL     C1    1  -0.421   0.391  -0.102
    1UNL     O1    2  -0.362   0.277  -0.058
    1UNL     C2    3  -0.450   0.174  -0.077
    1UNL     O2    4  -0.559   0.185  -0.134
    1UNL     C3    5  -0.408   0.038  -0.023
    1UNL     C4    6  -0.500  -0.057  -0.011
    1UNL     O3    7  -0.478  -0.184   0.038
    1UNL     C5    8  -0.343  -0.215   0.083
    1UNL     C6    9  -0.319  -0.366   0.084
    1UNL     C7   10  -0.233  -0.141   0.009
    1UNL     C8   11  -0.100  -0.161   0.072
    1UNL     N1   12   0.001  -0.079   0.006
    1UNL     C9   13   0.144  -0.109   0.032
    1UNL    C10   14   0.209   0.007   0.102
    1UNL    C11   15   0.356  -0.004   0.106
    1UNL     O4   16   0.411  -0.051   0.204
    1UNL    C12   17   0.430   0.035  -0.015
    1UNL    C13   18   0.362   0.101  -0.122
    1UNL    C14   19   0.430   0.128  -0.236
    1UNL    C15   20   0.567   0.113  -0.241
    1UNL    C16   21   0.637   0.041  -0.146
    1UNL    C17   22   0.574   0.010  -0.019
    1UNL     N2   23   0.634  -0.061   0.081
    1UNL    C18   24  -0.026   0.030  -0.073
    1UNL     O5   25   0.064   0.092  -0.128
    1UNL    C19   26  -0.167   0.077  -0.101
    1UNL    C20   27  -0.263   0.006   0.009
    1UNL     H1   28  -0.478   0.370  -0.196
    1UNL     H2   29  -0.341   0.477  -0.123
    1UNL     H3   30  -0.491   0.412  -0.025
    1UNL     H4   31  -0.600  -0.039  -0.044
    1UNL     H5   32  -0.335  -0.180   0.192
    1UNL     H6   33  -0.399  -0.415   0.135
    1UNL     H7   34  -0.224  -0.398   0.125
    1UNL     H8   35  -0.298  -0.410  -0.019
    1UNL     H9   36  -0.226  -0.193  -0.094
    1UNL    H10   37  -0.109  -0.140   0.181
    1UNL    H11   38  -0.066  -0.264   0.058
    1UNL    H12   39   0.204  -0.128  -0.058
    1UNL    H13   40   0.158  -0.195   0.093
    1UNL    H14   41   0.180   0.010   0.206
    1UNL    H15   42   0.179   0.094   0.054
    1UNL    H16   43   0.261   0.130  -0.117
    1UNL    H17   44   0.380   0.184  -0.314
    1UNL    H18   45   0.625   0.146  -0.326
    1UNL    H19   46   0.739   0.008  -0.176
    1UNL    H20   47   0.594  -0.108   0.166
    1UNL    H21   48   0.733  -0.088   0.070
    1UNL    H22   49  -0.199   0.052  -0.204
    1UNL    H23   50  -0.183   0.183  -0.083
    1UNL    H24   51  -0.234   0.048   0.109
   0.00000   0.00000   0.00000   0.00000   0.00000   0.00000   0.00000   0.00000   0.00000
Generated with MDTraj, t= 38.0
 51
    1UNL     C1    1  -0.412   0.382  -0.106
    1UNL     O1    2  -0.359   0.263  -0.054
    1UNL     C2    3  -0.447   0.165  -0.067
    1UNL     O2    4  -0.559   0.177  -0.109
    1UNL     C3    5  -0.413   0.036  -0.018
    1UNL     C4    6  -0.504  -0.061  -0.004
    1UNL     O3    7  -0.485  -0.192   0.028
    1UNL     C5    8  -0.359  -0.203   0.088
    1UNL     C6    9  -0.336  -0.358   0.109
    1UNL     C7   10  -0.242  -0.139   0.007
    1UNL     C8   11  -0.092  -0.163   0.055
    1UNL     N1   12   0.005  -0.087  -0.024
    1UNL     C9   13   0.148  -0.108   0.003
    1UNL    C10   14   0.210   0.001   0.093
    1UNL    C11   15   0.359  -0.004   0.108
    1UNL     O4   16   0.412  -0.035   0.216
    1UNL    C12   17   0.436   0.039  -0.011
    1UNL    C13   18   0.378   0.116  -0.110
    1UNL    C14   19   0.446   0.137  -0.226
    1UNL    C15   20   0.575   0.097  -0.239
    1UNL    C16   21   0.644   0.036  -0.138
    1UNL    C17   22   0.575   0.007  -0.017
    1UNL     N2   23   0.641  -0.068   0.078
    1UNL    C18   24  -0.029   0.032  -0.085
    1UNL     O5   25   0.051   0.112  -0.132
    1UNL    C19   26  -0.176   0.071  -0.109
    1UNL    C20   27  -0.272   0.008   0.003
    1UNL     H1   28  -0.366   0.406  -0.202
    1UNL     H2   29  -0.387   0.472  -0.037
    1UNL     H3   30  -0.512   0.364  -0.113
    1UNL     H4   31  -0.607  -0.037  -0.021
    1UNL     H5   32  -0.360  -0.142   0.184
    1UNL     H6   33  -0.414  -0.400   0.180
    1UNL     H7   34  -0.239  -0.374   0.137
    1UNL     H8   35  -0.338  -0.400   0.006
    1UNL     H9   36  -0.244  -0.185  -0.099
    1UNL    H10   37  -0.084  -0.130   0.160
    1UNL    H11   38  -0.079  -0.270   0.052
    1UNL    H12   39   0.192  -0.108  -0.099
    1UNL    H13   40   0.168  -0.197   0.054
    1UNL    H14   41   0.158   0.001   0.186
    1UNL    H15   42   0.196   0.098   0.047
    1UNL    H16   43   0.282   0.164  -0.101
    1UNL    H17   44   0.409   0.194  -0.310
    1UNL    H18   45   0.621   0.111  -0.335
    1UNL    H19   46   0.737  -0.009  -0.156
    1UNL    H20   47   0.605  -0.057   0.175
    1UNL    H21   48   0.743  -0.070   0.084
    1UNL    H22   49  -0.216   0.042  -0.210
    1UNL    H23   50  -0.178   0.178  -0.095
    1UNL    H24   51  -0.251   0.060   0.101
   0.00000   0.00000   0.00000   0.00000   0.00000   0.00000   0.00000   0.00000   0.00000
Generated with MDTraj, t= 39.0
 51
    1UNL     C1    1  -0.422   0.382  -0.111
    1UNL     O1    2  -0.359   0.265  -0.071
    1UNL     C2    3  -0.460   0.164  -0.064
    1UNL     O2    4  -0.580   0.184  -0.077
    1UNL     C3    5  -0.413   0.033  -0.036
    1UNL     C4    6  -0.509  -0.062  -0.005
    1UNL     O3    7  -0.481  -0.189   0.040
    1UNL     C5    8  -0.345  -0.200   0.095
    1UNL     C6    9  -0.304  -0.347   0.121
    1UNL     C7   10  -0.240  -0.143  -0.001
    1UNL     C8   11  -0.094  -0.172   0.025
    1UNL     N1   12   0.001  -0.076  -0.020
    1UNL     C9   13   0.145  -0.107   0.012
    1UNL    C10   14   0.204   0.003   0.100
    1UNL    C11   15   0.353  -0.003   0.103
    1UNL     O4   16   0.413  -0.044   0.205
    1UNL    C12   17   0.435   0.027  -0.019
    1UNL    C13   18   0.379   0.092  -0.128
    1UNL    C14   19   0.455   0.131  -0.235
    1UNL    C15   20   0.589   0.106  -0.225
    1UNL    C16   21   0.647   0.053  -0.118
    1UNL    C17   22   0.571  -0.011  -0.022
    1UNL     N2   23   0.628  -0.069   0.092
    1UNL    C18   24  -0.030   0.040  -0.085
    1UNL     O5   25   0.054   0.118  -0.125
    1UNL    C19   26  -0.172   0.076  -0.117
    1UNL    C20   27  -0.263   0.008  -0.006
    1UNL     H1   28  -0.411   0.405  -0.213
    1UNL     H2   29  -0.373   0.470  -0.060
    1UNL     H3   30  -0.519   0.368  -0.082
    1UNL     H4   31  -0.611  -0.036  -0.041
    1UNL     H5   32  -0.341  -0.130   0.184
    1UNL     H6   33  -0.393  -0.386   0.185
    1UNL     H7   34  -0.212  -0.352   0.172
    1UNL     H8   35  -0.292  -0.391   0.024
    1UNL     H9   36  -0.275  -0.189  -0.101
    1UNL    H10   37  -0.089  -0.175   0.135
    1UNL    H11   38  -0.064  -0.267  -0.019
    1UNL    H12   39   0.209  -0.113  -0.080
    1UNL    H13   40   0.141  -0.196   0.065
    1UNL    H14   41   0.170  -0.001   0.199
    1UNL    H15   42   0.174   0.103   0.061
    1UNL    H16   43   0.272   0.114  -0.132
    1UNL    H17   44   0.410   0.182  -0.317
    1UNL    H18   45   0.640   0.139  -0.315
    1UNL    H19   46   0.759   0.054  -0.111
    1UNL    H20   47   0.564  -0.113   0.155
    1UNL    H21   48   0.723  -0.064   0.125
    1UNL    H22   49  -0.194   0.036  -0.220
    1UNL    H23   50  -0.183   0.182  -0.119
    1UNL    H24   51  -0.243   0.055   0.095
   0.00000   0.00000   0.00000   0.00000   0.00000   0.00000   0.00000   0.00000   0.00000
Generated with MDTraj, t= 40.0
 51
    1UNL     C1    1  -0.453   0.391  -0.115
    1UNL     O1    2  -0.376   0.278  -0.099
    1UNL     C2    3  -0.461   0.172  -0.068
    1UNL     O2    4  -0.582   0.191  -0.061
    1UNL     C3    5  -0.411   0.041  -0.022
    1UNL     C4    6  -0.500  -0.058  -0.005
    1UNL     O3    7  -0.484  -0.180   0.052
    1UNL     C5    8  -0.349  -0.210   0.095
    1UNL     C6    9  -0.320  -0.361   0.109
    1UNL     C7   10  -0.235  -0.146  -0.000
    1UNL     C8   11  -0.089  -0.175   0.036
    1UNL     N1   12   0.009  -0.080  -0.023
    1UNL     C9   13   0.147  -0.100  -0.005
    1UNL    C10   14   0.211   0.002   0.095
    1UNL    C11   15   0.360  -0.011   0.104
    1UNL     O4   16   0.412  -0.072   0.197
    1UNL    C12   17   0.443   0.039  -0.007
    1UNL    C13   18   0.380   0.094  -0.122
    1UNL    C14   19   0.464   0.129  -0.228
    1UNL    C15   20   0.595   0.097  -0.228
    1UNL    C16   21   0.655   0.053  -0.118
    1UNL    C17   22   0.581   0.004  -0.008
    1UNL     N2   23   0.639  -0.054   0.099
    1UNL    C18   24  -0.031   0.038  -0.089
    1UNL     O5   25   0.046   0.116  -0.137
    1UNL    C19   26  -0.175   0.062  -0.110
    1UNL    C20   27  -0.266   0.006  -0.006
    1UNL     H1   28  -0.552   0.386  -0.145
    1UNL     H2   29  -0.398   0.439  -0.198
    1UNL     H3   30  -0.446   0.444  -0.025
    1UNL     H4   31  -0.603  -0.025  -0.018
    1UNL     H5   32  -0.332  -0.151   0.189
    1UNL     H6   33  -0.393  -0.407   0.182
    1UNL     H7   34  -0.221  -0.376   0.161
    1UNL     H8   35  -0.325  -0.401   0.012
    1UNL     H9   36  -0.261  -0.198  -0.100
    1UNL    H10   37  -0.070  -0.166   0.143
    1UNL    H11   38  -0.058  -0.275   0.011
    1UNL    H12   39   0.185  -0.083  -0.110
    1UNL    H13   40   0.166  -0.195   0.030
    1UNL    H14   41   0.173  -0.020   0.191
    1UNL    H15   42   0.176   0.109   0.082
    1UNL    H16   43   0.276   0.101  -0.128
    1UNL    H17   44   0.418   0.169  -0.318
    1UNL    H18   45   0.647   0.096  -0.322
    1UNL    H19   46   0.760   0.050  -0.120
    1UNL    H20   47   0.586  -0.081   0.177
    1UNL    H21   48   0.735  -0.061   0.124
    1UNL    H22   49  -0.204   0.025  -0.213
    1UNL    H23   50  -0.183   0.169  -0.123
    1UNL    H24   51  -0.241   0.051   0.095
   0.00000   0.00000   0.00000   0.00000   0.00000   0.00000   0.00000   0.00000   0.00000
Generated with MDTraj, t= 41.0
 51
    1UNL     C1    1  -0.431   0.384  -0.146
    1UNL     O1    2  -0.370   0.267  -0.092
    1UNL     C2    3  -0.472   0.176  -0.054
    1UNL     O2    4  -0.594   0.202  -0.057
    1UNL     C3    5  -0.427   0.036  -0.010
    1UNL     C4    6  -0.515  -0.059   0.020
    1UNL     O3    7  -0.485  -0.183   0.058
    1UNL     C5    8  -0.347  -0.213   0.086
    1UNL     C6    9  -0.317  -0.361   0.093
    1UNL     C7   10  -0.239  -0.138  -0.005
    1UNL     C8   11  -0.100  -0.150   0.051
    1UNL     N1   12   0.004  -0.081  -0.034
    1UNL     C9   13   0.151  -0.106  -0.009
    1UNL    C10   14   0.220  -0.008   0.087
    1UNL    C11   15   0.366  -0.033   0.098
    1UNL     O4   16   0.409  -0.084   0.198
    1UNL    C12   17   0.441   0.022  -0.013
    1UNL    C13   18   0.385   0.080  -0.124
    1UNL    C14   19   0.461   0.133  -0.221
    1UNL    C15   20   0.597   0.120  -0.219
    1UNL    C16   21   0.659   0.053  -0.116
    1UNL    C17   22   0.585   0.007  -0.005
    1UNL     N2   23   0.658  -0.026   0.110
    1UNL    C18   24  -0.035   0.038  -0.096
    1UNL     O5   25   0.047   0.105  -0.152
    1UNL    C19   26  -0.179   0.077  -0.100
    1UNL    C20   27  -0.273   0.009  -0.004
    1UNL     H1   28  -0.535   0.379  -0.155
    1UNL     H2   29  -0.399   0.395  -0.249
    1UNL     H3   30  -0.413   0.471  -0.086
    1UNL     H4   31  -0.619  -0.049  -0.004
    1UNL     H5   32  -0.323  -0.167   0.185
    1UNL     H6   33  -0.378  -0.414   0.167
    1UNL     H7   34  -0.211  -0.388   0.140
    1UNL     H8   35  -0.327  -0.408   0.000
    1UNL     H9   36  -0.240  -0.190  -0.109
    1UNL    H10   37  -0.097  -0.106   0.150
    1UNL    H11   38  -0.058  -0.250   0.057
    1UNL    H12   39   0.210  -0.099  -0.105
    1UNL    H13   40   0.155  -0.204   0.024
    1UNL    H14   41   0.173  -0.017   0.185
    1UNL    H15   42   0.201   0.100   0.064
    1UNL    H16   43   0.275   0.087  -0.144
    1UNL    H17   44   0.421   0.162  -0.315
    1UNL    H18   45   0.654   0.138  -0.311
    1UNL    H19   46   0.766   0.035  -0.128
    1UNL    H20   47   0.610  -0.064   0.186
    1UNL    H21   48   0.757  -0.039   0.118
    1UNL    H22   49  -0.212   0.060  -0.206
    1UNL    H23   50  -0.188   0.185  -0.096
    1UNL    H24   51  -0.247   0.050   0.099
   0.00000   0.00000   0.00000   0.00000   0.00000   0.00000   0.00000   0.00000   0.00000
Generated with MDTraj, t= 42.0
 51
    1UNL     C1    1  -0.432   0.381  -0.143
    1UNL     O1    2  -0.366   0.267  -0.097
    1UNL     C2    3  -0.457   0.174  -0.062
    1UNL     O2    4  -0.576   0.189  -0.078
    1UNL     C3    5  -0.415   0.049  -0.006
    1UNL     C4    6  -0.506  -0.047   0.020
    1UNL     O3    7  -0.489  -0.178   0.051
    1UNL     C5    8  -0.350  -0.213   0.097
    1UNL     C6    9  -0.329  -0.357   0.105
    1UNL     C7   10  -0.242  -0.142   0.010
    1UNL     C8   11  -0.096  -0.174   0.055
    1UNL     N1   12   0.003  -0.088  -0.021
    1UNL     C9   13   0.148  -0.113   0.001
    1UNL    C10   14   0.212  -0.001   0.079
    1UNL    C11   15   0.355  -0.029   0.086
    1UNL     O4   16   0.399  -0.103   0.168
    1UNL    C12   17   0.442   0.027  -0.017
    1UNL    C13   18   0.392   0.074  -0.141
    1UNL    C14   19   0.468   0.129  -0.235
    1UNL    C15   20   0.601   0.140  -0.215
    1UNL    C16   21   0.661   0.086  -0.103
    1UNL    C17   22   0.578   0.028  -0.004
    1UNL     N2   23   0.629  -0.041   0.107
    1UNL    C18   24  -0.031   0.031  -0.086
    1UNL     O5   25   0.055   0.099  -0.136
    1UNL    C19   26  -0.173   0.074  -0.094
    1UNL    C20   27  -0.270   0.015   0.010
    1UNL     H1   28  -0.540   0.374  -0.145
    1UNL     H2   29  -0.398   0.399  -0.239
    1UNL     H3   30  -0.405   0.470  -0.080
    1UNL     H4   31  -0.610  -0.029   0.004
    1UNL     H5   32  -0.347  -0.164   0.197
    1UNL     H6   33  -0.408  -0.404   0.160
    1UNL     H7   34  -0.240  -0.389   0.173
    1UNL     H8   35  -0.321  -0.403   0.005
    1UNL     H9   36  -0.250  -0.189  -0.097
    1UNL    H10   37  -0.089  -0.137   0.158
    1UNL    H11   38  -0.075  -0.280   0.044
    1UNL    H12   39   0.183  -0.123  -0.105
    1UNL    H13   40   0.161  -0.206   0.049
    1UNL    H14   41   0.180   0.004   0.188
    1UNL    H15   42   0.188   0.095   0.029
    1UNL    H16   43   0.293   0.057  -0.164
    1UNL    H17   44   0.423   0.156  -0.334
    1UNL    H18   45   0.657   0.193  -0.290
    1UNL    H19   46   0.767   0.092  -0.082
    1UNL    H20   47   0.574  -0.084   0.180
    1UNL    H21   48   0.725  -0.065   0.089
    1UNL    H22   49  -0.212   0.047  -0.193
    1UNL    H23   50  -0.172   0.185  -0.095
    1UNL    H24   51  -0.242   0.063   0.110
   0.00000   0.00000   0.00000   0.00000   0.00000   0.00000   0.00000   0.00000   0.00000
Generated with MDTraj, t= 43.0
 51
    1UNL     C1    1  -0.410   0.383  -0.128
    1UNL     O1    2  -0.359   0.265  -0.075
    1UNL     C2    3  -0.460   0.169  -0.078
    1UNL     O2    4  -0.577   0.194  -0.105
    1UNL     C3    5  -0.418   0.041  -0.035
    1UNL     C4    6  -0.520  -0.049   0.003
    1UNL     O3    7  -0.502  -0.171   0.065
    1UNL     C5    8  -0.366  -0.194   0.115
    1UNL     C6    9  -0.351  -0.346   0.132
    1UNL     C7   10  -0.259  -0.144   0.016
    1UNL     C8   11  -0.110  -0.187   0.046
    1UNL     N1   12  -0.007  -0.092  -0.005
    1UNL     C9   13   0.145  -0.129   0.002
    1UNL    C10   14   0.226  -0.025   0.080
    1UNL    C11   15   0.372  -0.042   0.076
    1UNL     O4   16   0.422  -0.116   0.153
    1UNL    C12   17   0.452   0.030  -0.018
    1UNL    C13   18   0.397   0.099  -0.126
    1UNL    C14   19   0.470   0.161  -0.224
    1UNL    C15   20   0.605   0.150  -0.220
    1UNL    C16   21   0.666   0.083  -0.117
    1UNL    C17   22   0.592   0.034  -0.011
    1UNL     N2   23   0.647  -0.015   0.110
    1UNL    C18   24  -0.038   0.021  -0.079
    1UNL     O5   25   0.051   0.089  -0.128
    1UNL    C19   26  -0.180   0.057  -0.112
    1UNL    C20   27  -0.274   0.008   0.000
    1UNL     H1   28  -0.521   0.373  -0.115
    1UNL     H2   29  -0.382   0.393  -0.226
    1UNL     H3   30  -0.369   0.480  -0.077
    1UNL     H4   31  -0.623  -0.009   0.002
    1UNL     H5   32  -0.369  -0.140   0.211
    1UNL     H6   33  -0.416  -0.382   0.210
    1UNL     H7   34  -0.252  -0.370   0.165
    1UNL     H8   35  -0.372  -0.393   0.026
    1UNL     H9   36  -0.282  -0.192  -0.088
    1UNL    H10   37  -0.111  -0.193   0.155
    1UNL    H11   38  -0.093  -0.274  -0.015
    1UNL    H12   39   0.182  -0.132  -0.103
    1UNL    H13   40   0.155  -0.230   0.036
    1UNL    H14   41   0.188  -0.056   0.187
    1UNL    H15   42   0.196   0.076   0.054
    1UNL    H16   43   0.284   0.109  -0.131
    1UNL    H17   44   0.427   0.212  -0.305
    1UNL    H18   45   0.662   0.222  -0.278
    1UNL    H19   46   0.768   0.107  -0.106
    1UNL    H20   47   0.599  -0.066   0.187
    1UNL    H21   48   0.745  -0.045   0.110
    1UNL    H22   49  -0.215   0.012  -0.205
    1UNL    H23   50  -0.198   0.170  -0.119
    1UNL    H24   51  -0.239   0.065   0.093
   0.00000   0.00000   0.00000   0.00000   0.00000   0.00000   0.00000   0.00000   0.00000
Generated with MDTraj, t= 44.0
 51
    1UNL     C1    1  -0.402   0.387  -0.119
    1UNL     O1    2  -0.346   0.268  -0.075
    1UNL     C2    3  -0.442   0.172  -0.081
    1UNL     O2    4  -0.555   0.192  -0.125
    1UNL     C3    5  -0.409   0.040  -0.034
    1UNL     C4    6  -0.508  -0.050  -0.007
    1UNL     O3    7  -0.490  -0.173   0.058
    1UNL     C5    8  -0.365  -0.187   0.115
    1UNL     C6    9  -0.345  -0.338   0.147
    1UNL     C7   10  -0.253  -0.143   0.023
    1UNL     C8   11  -0.105  -0.175   0.074
    1UNL     N1   12  -0.002  -0.095  -0.007
    1UNL     C9   13   0.137  -0.132   0.016
    1UNL    C10   14   0.221  -0.023   0.082
    1UNL    C11   15   0.359  -0.056   0.071
    1UNL     O4   16   0.411  -0.139   0.142
    1UNL    C12   17   0.436   0.020  -0.025
    1UNL    C13   18   0.372   0.091  -0.127
    1UNL    C14   19   0.450   0.161  -0.211
    1UNL    C15   20   0.581   0.179  -0.206
    1UNL    C16   21   0.642   0.115  -0.101
    1UNL    C17   22   0.575   0.044  -0.002
    1UNL     N2   23   0.652  -0.034   0.080
    1UNL    C18   24  -0.032   0.016  -0.087
    1UNL     O5   25   0.059   0.081  -0.140
    1UNL    C19   26  -0.175   0.050  -0.118
    1UNL    C20   27  -0.270   0.008  -0.002
    1UNL     H1   28  -0.438   0.442  -0.021
    1UNL     H2   29  -0.484   0.369  -0.182
    1UNL     H3   30  -0.324   0.444  -0.187
    1UNL     H4   31  -0.609  -0.021  -0.036
    1UNL     H5   32  -0.370  -0.135   0.212
    1UNL     H6   33  -0.418  -0.369   0.225
    1UNL     H7   34  -0.255  -0.350   0.196
    1UNL     H8   35  -0.350  -0.397   0.047
    1UNL     H9   36  -0.260  -0.205  -0.076
    1UNL    H10   37  -0.090  -0.138   0.176
    1UNL    H11   38  -0.083  -0.279   0.055
    1UNL    H12   39   0.171  -0.169  -0.082
    1UNL    H13   40   0.144  -0.221   0.078
    1UNL    H14   41   0.193  -0.023   0.196
    1UNL    H15   42   0.189   0.070   0.034
    1UNL    H16   43   0.272   0.081  -0.153
    1UNL    H17   44   0.399   0.215  -0.295
    1UNL    H18   45   0.637   0.250  -0.264
    1UNL    H19   46   0.749   0.141  -0.078
    1UNL    H20   47   0.602  -0.084   0.159
    1UNL    H21   48   0.755  -0.031   0.093
    1UNL    H22   49  -0.220   0.008  -0.207
    1UNL    H23   50  -0.186   0.165  -0.123
    1UNL    H24   51  -0.234   0.069   0.088
   0.00000   0.00000   0.00000   0.00000   0.00000   0.00000   0.00000   0.00000   0.00000
Generated with MDTraj, t= 45.0
 51
    1UNL     C1    1  -0.400   0.390  -0.136
    1UNL     O1    2  -0.340   0.271  -0.097
    1UNL     C2    3  -0.439   0.182  -0.079
    1UNL     O2    4  -0.555   0.202  -0.112
    1UNL     C3    5  -0.408   0.047  -0.030
    1UNL     C4    6  -0.502  -0.046  -0.017
    1UNL     O3    7  -0.487  -0.176   0.041
    1UNL     C5    8  -0.359  -0.191   0.109
    1UNL     C6    9  -0.344  -0.335   0.159
    1UNL     C7   10  -0.246  -0.136   0.028
    1UNL     C8   11  -0.106  -0.147   0.101
    1UNL     N1   12  -0.002  -0.114  -0.007
    1UNL     C9   13   0.136  -0.155   0.015
    1UNL    C10   14   0.213  -0.053   0.087
    1UNL    C11   15   0.359  -0.067   0.066
    1UNL     O4   16   0.423  -0.147   0.134
    1UNL    C12   17   0.432   0.022  -0.019
    1UNL    C13   18   0.368   0.099  -0.109
    1UNL    C14   19   0.427   0.179  -0.203
    1UNL    C15   20   0.557   0.199  -0.198
    1UNL    C16   21   0.627   0.133  -0.103
    1UNL    C17   22   0.569   0.042  -0.010
    1UNL     N2   23   0.652  -0.031   0.080
    1UNL    C18   24  -0.023  -0.004  -0.090
    1UNL     O5   25   0.063   0.048  -0.163
    1UNL    C19   26  -0.162   0.062  -0.098
    1UNL    C20   27  -0.266   0.014   0.007
    1UNL     H1   28  -0.419   0.455  -0.040
    1UNL     H2   29  -0.494   0.367  -0.184
    1UNL     H3   30  -0.331   0.437  -0.218
    1UNL     H4   31  -0.595  -0.032  -0.069
    1UNL     H5   32  -0.369  -0.132   0.200
    1UNL     H6   33  -0.444  -0.368   0.202
    1UNL     H7   34  -0.281  -0.348   0.247
    1UNL     H8   35  -0.312  -0.400   0.081
    1UNL     H9   36  -0.249  -0.191  -0.074
    1UNL    H10   37  -0.093  -0.072   0.180
    1UNL    H11   38  -0.075  -0.247   0.128
    1UNL    H12   39   0.182  -0.177  -0.083
    1UNL    H13   40   0.139  -0.257   0.056
    1UNL    H14   41   0.185  -0.063   0.198
    1UNL    H15   42   0.178   0.049   0.058
    1UNL    H16   43   0.261   0.089  -0.120
    1UNL    H17   44   0.376   0.211  -0.289
    1UNL    H18   45   0.605   0.274  -0.259
    1UNL    H19   46   0.728   0.149  -0.101
    1UNL    H20   47   0.627  -0.129   0.093
    1UNL    H21   48   0.750  -0.009   0.094
    1UNL    H22   49  -0.204   0.050  -0.197
    1UNL    H23   50  -0.156   0.176  -0.087
    1UNL    H24   51  -0.243   0.076   0.102
   0.00000   0.00000   0.00000   0.00000   0.00000   0.00000   0.00000   0.00000   0.00000
Generated with MDTraj, t= 46.0
 51
    1UNL     C1    1  -0.394   0.387  -0.168
    1UNL     O1    2  -0.337   0.271  -0.107
    1UNL     C2    3  -0.445   0.184  -0.081
    1UNL     O2    4  -0.562   0.216  -0.097
    1UNL     C3    5  -0.412   0.052  -0.027
    1UNL     C4    6  -0.508  -0.039  -0.006
    1UNL     O3    7  -0.494  -0.165   0.050
    1UNL     C5    8  -0.363  -0.191   0.112
    1UNL     C6    9  -0.354  -0.329   0.163
    1UNL     C7   10  -0.248  -0.144   0.018
    1UNL     C8   11  -0.107  -0.167   0.081
    1UNL     N1   12   0.004  -0.098   0.006
    1UNL     C9   13   0.140  -0.150   0.022
    1UNL    C10   14   0.234  -0.074   0.111
    1UNL    C11   15   0.377  -0.074   0.072
    1UNL     O4   16   0.448  -0.163   0.119
    1UNL    C12   17   0.436   0.019  -0.021
    1UNL    C13   18   0.354   0.100  -0.098
    1UNL    C14   19   0.416   0.190  -0.182
    1UNL    C15   20   0.546   0.211  -0.187
    1UNL    C16   21   0.621   0.137  -0.105
    1UNL    C17   22   0.572   0.042  -0.019
    1UNL     N2   23   0.651  -0.021   0.073
    1UNL    C18   24  -0.025  -0.005  -0.093
    1UNL     O5   25   0.063   0.036  -0.169
    1UNL    C19   26  -0.167   0.054  -0.110
    1UNL    C20   27  -0.261   0.008  -0.002
    1UNL     H1   28  -0.504   0.388  -0.139
    1UNL     H2   29  -0.387   0.365  -0.278
    1UNL     H3   30  -0.337   0.481  -0.137
    1UNL     H4   31  -0.610  -0.009  -0.014
    1UNL     H5   32  -0.362  -0.125   0.198
    1UNL     H6   33  -0.437  -0.357   0.234
    1UNL     H7   34  -0.270  -0.338   0.239
    1UNL     H8   35  -0.341  -0.398   0.092
    1UNL     H9   36  -0.270  -0.197  -0.083
    1UNL    H10   37  -0.094  -0.125   0.182
    1UNL    H11   38  -0.073  -0.270   0.085
    1UNL    H12   39   0.175  -0.161  -0.082
    1UNL    H13   40   0.140  -0.259   0.042
    1UNL    H14   41   0.234  -0.112   0.216
    1UNL    H15   42   0.204   0.036   0.123
    1UNL    H16   43   0.248   0.072  -0.117
    1UNL    H17   44   0.349   0.244  -0.255
    1UNL    H18   45   0.580   0.279  -0.263
    1UNL    H19   46   0.731   0.161  -0.102
    1UNL    H20   47   0.618  -0.098   0.125
    1UNL    H21   48   0.725   0.019   0.125
    1UNL    H22   49  -0.204   0.034  -0.211
    1UNL    H23   50  -0.150   0.166  -0.116
    1UNL    H24   51  -0.227   0.060   0.095
   0.00000   0.00000   0.00000   0.00000   0.00000   0.00000   0.00000   0.00000   0.00000
Generated with MDTraj, t= 47.0
 51
    1UNL     C1    1  -0.378   0.384  -0.172
    1UNL     O1    2  -0.329   0.262  -0.126
    1UNL     C2    3  -0.436   0.179  -0.093
    1UNL     O2    4  -0.552   0.211  -0.109
    1UNL     C3    5  -0.401   0.052  -0.031
    1UNL     C4    6  -0.499  -0.034   0.017
    1UNL     O3    7  -0.491  -0.151   0.083
    1UNL     C5    8  -0.360  -0.185   0.138
    1UNL     C6    9  -0.355  -0.334   0.155
    1UNL     C7   10  -0.247  -0.141   0.031
    1UNL     C8   11  -0.102  -0.178   0.070
    1UNL     N1   12   0.006  -0.114  -0.015
    1UNL     C9   13   0.144  -0.149   0.005
    1UNL    C10   14   0.226  -0.063   0.098
    1UNL    C11   15   0.369  -0.077   0.072
    1UNL     O4   16   0.428  -0.176   0.115
    1UNL    C12   17   0.424   0.030  -0.009
    1UNL    C13   18   0.353   0.091  -0.111
    1UNL    C14   19   0.406   0.192  -0.186
    1UNL    C15   20   0.537   0.221  -0.171
    1UNL    C16   21   0.613   0.157  -0.082
    1UNL    C17   22   0.565   0.043  -0.013
    1UNL     N2   23   0.650  -0.032   0.059
    1UNL    C18   24  -0.025  -0.003  -0.094
    1UNL     O5   25   0.060   0.066  -0.143
    1UNL    C19   26  -0.172   0.038  -0.118
    1UNL    C20   27  -0.257   0.009  -0.005
    1UNL     H1   28  -0.473   0.402  -0.125
    1UNL     H2   29  -0.396   0.359  -0.285
    1UNL     H3   30  -0.298   0.454  -0.147
    1UNL     H4   31  -0.602  -0.007  -0.008
    1UNL     H5   32  -0.339  -0.134   0.231
    1UNL     H6   33  -0.420  -0.371   0.231
    1UNL     H7   34  -0.254  -0.365   0.197
    1UNL     H8   35  -0.374  -0.377   0.057
    1UNL     H9   36  -0.276  -0.197  -0.066
    1UNL    H10   37  -0.076  -0.140   0.170
    1UNL    H11   38  -0.074  -0.284   0.072
    1UNL    H12   39   0.198  -0.180  -0.085
    1UNL    H13   40   0.136  -0.250   0.052
    1UNL    H14   41   0.214  -0.096   0.202
    1UNL    H15   42   0.192   0.049   0.094
    1UNL    H16   43   0.251   0.073  -0.124
    1UNL    H17   44   0.353   0.227  -0.268
    1UNL    H18   45   0.580   0.298  -0.236
    1UNL    H19   46   0.707   0.199  -0.060
    1UNL    H20   47   0.626  -0.125   0.087
    1UNL    H21   48   0.741  -0.010   0.092
    1UNL    H22   49  -0.207  -0.010  -0.212
    1UNL    H23   50  -0.173   0.145  -0.143
    1UNL    H24   51  -0.224   0.067   0.088
   0.00000   0.00000   0.00000   0.00000   0.00000   0.00000   0.00000   0.00000   0.00000
Generated with MDTraj, t= 48.0
 51
    1UNL     C1    1  -0.368   0.370  -0.192
    1UNL     O1    2  -0.332   0.259  -0.113
    1UNL     C2    3  -0.438   0.176  -0.089
    1UNL     O2    4  -0.554   0.192  -0.120
    1UNL     C3    5  -0.404   0.052  -0.016
    1UNL     C4    6  -0.507  -0.026   0.036
    1UNL     O3    7  -0.495  -0.140   0.106
    1UNL     C5    8  -0.360  -0.183   0.140
    1UNL     C6    9  -0.358  -0.331   0.162
    1UNL     C7   10  -0.250  -0.136   0.036
    1UNL     C8   11  -0.108  -0.194   0.049
    1UNL     N1   12  -0.005  -0.133  -0.041
    1UNL     C9   13   0.133  -0.169  -0.020
    1UNL    C10   14   0.216  -0.066   0.064
    1UNL    C11   15   0.364  -0.073   0.062
    1UNL     O4   16   0.422  -0.160   0.120
    1UNL    C12   17   0.429   0.031  -0.020
    1UNL    C13   18   0.361   0.118  -0.099
    1UNL    C14   19   0.425   0.218  -0.162
    1UNL    C15   20   0.562   0.226  -0.173
    1UNL    C16   21   0.632   0.145  -0.092
    1UNL    C17   22   0.570   0.038  -0.013
    1UNL     N2   23   0.642  -0.024   0.085
    1UNL    C18   24  -0.026  -0.008  -0.098
    1UNL     O5   25   0.062   0.057  -0.143
    1UNL    C19   26  -0.163   0.047  -0.106
    1UNL    C20   27  -0.259   0.014   0.005
    1UNL     H1   28  -0.371   0.456  -0.133
    1UNL     H2   29  -0.474   0.339  -0.225
    1UNL     H3   30  -0.297   0.373  -0.268
    1UNL     H4   31  -0.609   0.004   0.007
    1UNL     H5   32  -0.336  -0.133   0.232
    1UNL     H6   33  -0.423  -0.347   0.241
    1UNL     H7   34  -0.258  -0.355   0.201
    1UNL     H8   35  -0.392  -0.380   0.060
    1UNL     H9   36  -0.288  -0.187  -0.062
    1UNL    H10   37  -0.071  -0.188   0.153
    1UNL    H11   38  -0.115  -0.301   0.020
    1UNL    H12   39   0.179  -0.180  -0.118
    1UNL    H13   40   0.149  -0.274   0.016
    1UNL    H14   41   0.181  -0.086   0.167
    1UNL    H15   42   0.175   0.041   0.050
    1UNL    H16   43   0.264   0.091  -0.136
    1UNL    H17   44   0.374   0.296  -0.223
    1UNL    H18   45   0.612   0.277  -0.252
    1UNL    H19   46   0.737   0.173  -0.075
    1UNL    H20   47   0.593  -0.086   0.150
    1UNL    H21   48   0.744  -0.023   0.092
    1UNL    H22   49  -0.216   0.002  -0.197
    1UNL    H23   50  -0.160   0.153  -0.122
    1UNL    H24   51  -0.236   0.070   0.103
   0.00000   0.00000   0.00000   0.00000   0.00000   0.00000   0.00000   0.00000   0.00000
Generated with MDTraj, t= 49.0
 51
    1UNL     C1    1  -0.387   0.364  -0.202
    1UNL     O1    2  -0.339   0.260  -0.120
    1UNL     C2    3  -0.438   0.175  -0.080
    1UNL     O2    4  -0.556   0.186  -0.104
    1UNL     C3    5  -0.400   0.058   0.001
    1UNL     C4    6  -0.498  -0.019   0.051
    1UNL     O3    7  -0.484  -0.141   0.113
    1UNL     C5    8  -0.349  -0.184   0.137
    1UNL     C6    9  -0.343  -0.332   0.170
    1UNL     C7   10  -0.253  -0.148   0.021
    1UNL     C8   11  -0.105  -0.200   0.033
    1UNL     N1   12  -0.008  -0.109  -0.026
    1UNL     C9   13   0.132  -0.138  -0.008
    1UNL    C10   14   0.214  -0.048   0.079
    1UNL    C11   15   0.357  -0.072   0.057
    1UNL     O4   16   0.405  -0.171   0.102
    1UNL    C12   17   0.428   0.036  -0.015
    1UNL    C13   18   0.368   0.121  -0.113
    1UNL    C14   19   0.440   0.213  -0.181
    1UNL    C15   20   0.574   0.220  -0.154
    1UNL    C16   21   0.635   0.145  -0.061
    1UNL    C17   22   0.567   0.045   0.005
    1UNL     N2   23   0.628  -0.046   0.091
    1UNL    C18   24  -0.028  -0.003  -0.112
    1UNL     O5   25   0.060   0.058  -0.168
    1UNL    C19   26  -0.166   0.039  -0.128
    1UNL    C20   27  -0.259   0.006  -0.007
    1UNL     H1   28  -0.336   0.452  -0.187
    1UNL     H2   29  -0.492   0.375  -0.162
    1UNL     H3   30  -0.387   0.330  -0.298
    1UNL     H4   31  -0.595   0.027   0.048
    1UNL     H5   32  -0.319  -0.118   0.218
    1UNL     H6   33  -0.406  -0.349   0.254
    1UNL     H7   34  -0.242  -0.352   0.204
    1UNL     H8   35  -0.381  -0.386   0.072
    1UNL     H9   36  -0.292  -0.201  -0.074
    1UNL    H10   37  -0.095  -0.210   0.143
    1UNL    H11   38  -0.100  -0.300  -0.016
    1UNL    H12   39   0.176  -0.140  -0.106
    1UNL    H13   40   0.146  -0.247   0.021
    1UNL    H14   41   0.202  -0.077   0.186
    1UNL    H15   42   0.183   0.057   0.067
    1UNL    H16   43   0.263   0.104  -0.142
    1UNL    H17   44   0.400   0.248  -0.272
    1UNL    H18   45   0.626   0.288  -0.226
    1UNL    H19   46   0.744   0.147  -0.054
    1UNL    H20   47   0.579  -0.137   0.107
    1UNL    H21   48   0.723  -0.070   0.055
    1UNL    H22   49  -0.206  -0.027  -0.214
    1UNL    H23   50  -0.176   0.143  -0.149
    1UNL    H24   51  -0.206   0.051   0.084
   0.00000   0.00000   0.00000   0.00000   0.00000   0.00000   0.00000   0.00000   0.00000
Generated with MDTraj, t= 50.0
 51
    1UNL     C1    1  -0.404   0.374  -0.188
    1UNL     O1    2  -0.357   0.250  -0.152
    1UNL     C2    3  -0.453   0.174  -0.084
    1UNL     O2    4  -0.572   0.204  -0.078
    1UNL     C3    5  -0.413   0.045  -0.020
    1UNL     C4    6  -0.502  -0.022   0.053
    1UNL     O3    7  -0.485  -0.139   0.131
    1UNL     C5    8  -0.346  -0.181   0.135
    1UNL     C6    9  -0.336  -0.332   0.173
    1UNL     C7   10  -0.251  -0.144   0.011
    1UNL     C8   11  -0.103  -0.179   0.044
    1UNL     N1   12  -0.006  -0.109  -0.038
    1UNL     C9   13   0.140  -0.151  -0.042
    1UNL    C10   14   0.214  -0.063   0.056
    1UNL    C11   15   0.364  -0.078   0.059
    1UNL     O4   16   0.415  -0.166   0.123
    1UNL    C12   17   0.440   0.022  -0.016
    1UNL    C13   18   0.381   0.104  -0.114
    1UNL    C14   19   0.451   0.203  -0.174
    1UNL    C15   20   0.582   0.223  -0.145
    1UNL    C16   21   0.651   0.142  -0.058
    1UNL    C17   22   0.576   0.048   0.011
    1UNL     N2   23   0.642  -0.034   0.103
    1UNL    C18   24  -0.038   0.001  -0.117
    1UNL     O5   25   0.054   0.063  -0.171
    1UNL    C19   26  -0.178   0.038  -0.133
    1UNL    C20   27  -0.266   0.007  -0.012
    1UNL     H1   28  -0.368   0.405  -0.280
    1UNL     H2   29  -0.372   0.439  -0.101
    1UNL     H3   30  -0.506   0.368  -0.188
    1UNL     H4   31  -0.604   0.009   0.041
    1UNL     H5   32  -0.303  -0.114   0.210
    1UNL     H6   33  -0.396  -0.358   0.265
    1UNL     H7   34  -0.239  -0.370   0.200
    1UNL     H8   35  -0.384  -0.386   0.091
    1UNL     H9   36  -0.281  -0.203  -0.082
    1UNL    H10   37  -0.088  -0.133   0.145
    1UNL    H11   38  -0.091  -0.291   0.052
    1UNL    H12   39   0.178  -0.153  -0.141
    1UNL    H13   40   0.148  -0.261  -0.009
    1UNL    H14   41   0.176  -0.091   0.158
    1UNL    H15   42   0.191   0.039   0.035
    1UNL    H16   43   0.285   0.083  -0.151
    1UNL    H17   44   0.400   0.268  -0.249
    1UNL    H18   45   0.631   0.299  -0.196
    1UNL    H19   46   0.752   0.162  -0.038
    1UNL    H20   47   0.595  -0.111   0.158
    1UNL    H21   48   0.738  -0.067   0.089
    1UNL    H22   49  -0.223  -0.020  -0.220
    1UNL    H23   50  -0.181   0.145  -0.146
    1UNL    H24   51  -0.216   0.059   0.078
   0.00000   0.00000   0.00000   0.00000   0.00000   0.00000   0.00000   0.00000   0.00000
Generated with MDTraj, t= 51.0
 51
    1UNL     C1    1  -0.432   0.364  -0.205
    1UNL     O1    2  -0.363   0.259  -0.148
    1UNL     C2    3  -0.448   0.179  -0.072
    1UNL     O2    4  -0.562   0.215  -0.045
    1UNL     C3    5  -0.403   0.051  -0.020
    1UNL     C4    6  -0.493  -0.037   0.030
    1UNL     O3    7  -0.476  -0.151   0.104
    1UNL     C5    8  -0.343  -0.180   0.138
    1UNL     C6    9  -0.318  -0.322   0.179
    1UNL     C7   10  -0.249  -0.143   0.018
    1UNL     C8   11  -0.099  -0.177   0.044
    1UNL     N1   12  -0.004  -0.105  -0.039
    1UNL     C9   13   0.140  -0.151  -0.041
    1UNL    C10   14   0.209  -0.059   0.063
    1UNL    C11   15   0.355  -0.076   0.059
    1UNL     O4   16   0.408  -0.175   0.109
    1UNL    C12   17   0.438   0.024  -0.010
    1UNL    C13   18   0.380   0.100  -0.111
    1UNL    C14   19   0.450   0.194  -0.179
    1UNL    C15   20   0.582   0.209  -0.163
    1UNL    C16   21   0.646   0.132  -0.065
    1UNL    C17   22   0.577   0.041   0.022
    1UNL     N2   23   0.633  -0.027   0.131
    1UNL    C18   24  -0.039   0.005  -0.121
    1UNL     O5   25   0.054   0.066  -0.180
    1UNL    C19   26  -0.175   0.049  -0.134
    1UNL    C20   27  -0.263   0.006  -0.009
    1UNL     H1   28  -0.421   0.363  -0.312
    1UNL     H2   29  -0.402   0.458  -0.153
    1UNL     H3   30  -0.535   0.356  -0.185
    1UNL     H4   31  -0.596  -0.005   0.043
    1UNL     H5   32  -0.314  -0.113   0.216
    1UNL     H6   33  -0.388  -0.369   0.260
    1UNL     H7   34  -0.221  -0.333   0.228
    1UNL     H8   35  -0.322  -0.390   0.104
    1UNL     H9   36  -0.300  -0.206  -0.064
    1UNL    H10   37  -0.079  -0.157   0.153
    1UNL    H11   38  -0.070  -0.284   0.023
    1UNL    H12   39   0.178  -0.135  -0.138
    1UNL    H13   40   0.155  -0.262  -0.014
    1UNL    H14   41   0.170  -0.092   0.164
    1UNL    H15   42   0.184   0.040   0.036
    1UNL    H16   43   0.270   0.111  -0.129
    1UNL    H17   44   0.407   0.263  -0.248
    1UNL    H18   45   0.641   0.297  -0.202
    1UNL    H19   46   0.751   0.162  -0.037
    1UNL    H20   47   0.572  -0.101   0.167
    1UNL    H21   48   0.734  -0.038   0.138
    1UNL    H22   49  -0.215   0.005  -0.229
    1UNL    H23   50  -0.168   0.158  -0.141
    1UNL    H24   51  -0.223   0.067   0.080
   0.00000   0.00000   0.00000   0.00000   0.00000   0.00000   0.00000   0.00000   0.00000
Generated with MDTraj, t= 52.0
 51
    1UNL     C1    1  -0.417   0.353  -0.194
    1UNL     O1    2  -0.360   0.240  -0.149
    1UNL     C2    3  -0.450   0.173  -0.066
    1UNL     O2    4  -0.564   0.214  -0.045
    1UNL     C3    5  -0.403   0.051  -0.014
    1UNL     C4    6  -0.497  -0.033   0.041
    1UNL     O3    7  -0.480  -0.156   0.090
    1UNL     C5    8  -0.340  -0.176   0.133
    1UNL     C6    9  -0.320  -0.323   0.174
    1UNL     C7   10  -0.244  -0.134   0.021
    1UNL     C8   11  -0.098  -0.178   0.042
    1UNL     N1   12  -0.001  -0.101  -0.046
    1UNL     C9   13   0.141  -0.140  -0.037
    1UNL    C10   14   0.200  -0.052   0.075
    1UNL    C11   15   0.349  -0.075   0.064
    1UNL     O4   16   0.408  -0.167   0.122
    1UNL    C12   17   0.432   0.019  -0.017
    1UNL    C13   18   0.373   0.093  -0.123
    1UNL    C14   19   0.458   0.173  -0.196
    1UNL    C15   20   0.584   0.205  -0.155
    1UNL    C16   21   0.644   0.141  -0.051
    1UNL    C17   22   0.568   0.048   0.020
    1UNL     N2   23   0.637  -0.033   0.112
    1UNL    C18   24  -0.037   0.011  -0.123
    1UNL     O5   25   0.056   0.076  -0.179
    1UNL    C19   26  -0.182   0.051  -0.131
    1UNL    C20   27  -0.258   0.014  -0.003
    1UNL     H1   28  -0.349   0.410  -0.267
    1UNL     H2   29  -0.460   0.409  -0.115
    1UNL     H3   30  -0.503   0.325  -0.260
    1UNL     H4   31  -0.603  -0.009   0.028
    1UNL     H5   32  -0.317  -0.112   0.217
    1UNL     H6   33  -0.402  -0.352   0.244
    1UNL     H7   34  -0.222  -0.353   0.218
    1UNL     H8   35  -0.331  -0.382   0.089
    1UNL     H9   36  -0.289  -0.185  -0.072
    1UNL    H10   37  -0.051  -0.181   0.144
    1UNL    H11   38  -0.089  -0.286   0.009
    1UNL    H12   39   0.187  -0.115  -0.130
    1UNL    H13   40   0.146  -0.253  -0.017
    1UNL    H14   41   0.170  -0.097   0.172
    1UNL    H15   42   0.176   0.050   0.062
    1UNL    H16   43   0.277   0.076  -0.156
    1UNL    H17   44   0.409   0.228  -0.277
    1UNL    H18   45   0.631   0.289  -0.194
    1UNL    H19   46   0.744   0.158  -0.033
    1UNL    H20   47   0.584  -0.098   0.164
    1UNL    H21   48   0.735  -0.025   0.137
    1UNL    H22   49  -0.223   0.016  -0.224
    1UNL    H23   50  -0.173   0.162  -0.145
    1UNL    H24   51  -0.216   0.075   0.085
   0.00000   0.00000   0.00000   0.00000   0.00000   0.00000   0.00000   0.00000   0.00000
Generated with MDTraj, t= 53.0
 51
    1UNL     C1    1  -0.411   0.366  -0.175
    1UNL     O1    2  -0.357   0.252  -0.128
    1UNL     C2    3  -0.456   0.171  -0.076
    1UNL     O2    4  -0.576   0.196  -0.081
    1UNL     C3    5  -0.410   0.050  -0.013
    1UNL     C4    6  -0.500  -0.025   0.052
    1UNL     O3    7  -0.479  -0.143   0.110
    1UNL     C5    8  -0.343  -0.180   0.128
    1UNL     C6    9  -0.348  -0.333   0.152
    1UNL     C7   10  -0.251  -0.134   0.019
    1UNL     C8   11  -0.104  -0.183   0.045
    1UNL     N1   12  -0.001  -0.119  -0.052
    1UNL     C9   13   0.137  -0.154  -0.034
    1UNL    C10   14   0.203  -0.065   0.073
    1UNL    C11   15   0.356  -0.071   0.064
    1UNL     O4   16   0.414  -0.145   0.142
    1UNL    C12   17   0.437   0.017  -0.025
    1UNL    C13   18   0.381   0.109  -0.117
    1UNL    C14   19   0.456   0.199  -0.189
    1UNL    C15   20   0.588   0.203  -0.164
    1UNL    C16   21   0.651   0.121  -0.077
    1UNL    C17   22   0.575   0.039   0.005
    1UNL     N2   23   0.643  -0.019   0.114
    1UNL    C18   24  -0.030  -0.003  -0.120
    1UNL     O5   25   0.063   0.069  -0.157
    1UNL    C19   26  -0.176   0.044  -0.136
    1UNL    C20   27  -0.263   0.017  -0.008
    1UNL     H1   28  -0.330   0.449  -0.196
    1UNL     H2   29  -0.495   0.401  -0.121
    1UNL     H3   30  -0.455   0.341  -0.280
    1UNL     H4   31  -0.603   0.007   0.051
    1UNL     H5   32  -0.314  -0.134   0.221
    1UNL     H6   33  -0.398  -0.348   0.242
    1UNL     H7   34  -0.243  -0.371   0.142
    1UNL     H8   35  -0.400  -0.379   0.066
    1UNL     H9   36  -0.284  -0.181  -0.080
    1UNL    H10   37  -0.074  -0.156   0.149
    1UNL    H11   38  -0.079  -0.294   0.041
    1UNL    H12   39   0.182  -0.126  -0.128
    1UNL    H13   40   0.150  -0.266  -0.019
    1UNL    H14   41   0.166  -0.091   0.172
    1UNL    H15   42   0.179   0.037   0.058
    1UNL    H16   43   0.268   0.117  -0.115
    1UNL    H17   44   0.415   0.264  -0.265
    1UNL    H18   45   0.640   0.283  -0.224
    1UNL    H19   46   0.762   0.116  -0.083
    1UNL    H20   47   0.591  -0.068   0.181
    1UNL    H21   48   0.721   0.017   0.164
    1UNL    H22   49  -0.209   0.008  -0.230
    1UNL    H23   50  -0.166   0.154  -0.159
    1UNL    H24   51  -0.212   0.073   0.079
   0.00000   0.00000   0.00000   0.00000   0.00000   0.00000   0.00000   0.00000   0.00000
Generated with MDTraj, t= 54.0
 51
    1UNL     C1    1  -0.397   0.378  -0.169
    1UNL     O1    2  -0.344   0.271  -0.108
    1UNL     C2    3  -0.440   0.176  -0.085
    1UNL     O2    4  -0.556   0.185  -0.128
    1UNL     C3    5  -0.397   0.053  -0.002
    1UNL     C4    6  -0.494  -0.030   0.039
    1UNL     O3    7  -0.475  -0.150   0.111
    1UNL     C5    8  -0.339  -0.200   0.130
    1UNL     C6    9  -0.352  -0.353   0.146
    1UNL     C7   10  -0.249  -0.150   0.015
    1UNL     C8   11  -0.106  -0.198   0.032
    1UNL     N1   12  -0.006  -0.106  -0.030
    1UNL     C9   13   0.134  -0.129  -0.000
    1UNL    C10   14   0.196  -0.030   0.094
    1UNL    C11   15   0.347  -0.049   0.084
    1UNL     O4   16   0.397  -0.151   0.125
    1UNL    C12   17   0.432   0.041  -0.007
    1UNL    C13   18   0.368   0.102  -0.114
    1UNL    C14   19   0.441   0.173  -0.200
    1UNL    C15   20   0.577   0.195  -0.185
    1UNL    C16   21   0.647   0.136  -0.084
    1UNL    C17   22   0.578   0.047   0.007
    1UNL     N2   23   0.638  -0.040   0.089
    1UNL    C18   24  -0.033   0.000  -0.111
    1UNL     O5   25   0.056   0.064  -0.162
    1UNL    C19   26  -0.173   0.055  -0.118
    1UNL    C20   27  -0.253   0.009   0.005
    1UNL     H1   28  -0.317   0.447  -0.223
    1UNL     H2   29  -0.458   0.439  -0.106
    1UNL     H3   30  -0.474   0.337  -0.248
    1UNL     H4   31  -0.595   0.003   0.031
    1UNL     H5   32  -0.318  -0.161   0.228
    1UNL     H6   33  -0.433  -0.367   0.207
    1UNL     H7   34  -0.250  -0.392   0.168
    1UNL     H8   35  -0.371  -0.395   0.041
    1UNL     H9   36  -0.287  -0.185  -0.087
    1UNL    H10   37  -0.070  -0.213   0.136
    1UNL    H11   38  -0.101  -0.299  -0.019
    1UNL    H12   39   0.187  -0.123  -0.095
    1UNL    H13   40   0.150  -0.234   0.036
    1UNL    H14   41   0.164  -0.030   0.194
    1UNL    H15   42   0.166   0.071   0.070
    1UNL    H16   43   0.266   0.095  -0.125
    1UNL    H17   44   0.395   0.234  -0.276
    1UNL    H18   45   0.628   0.249  -0.260
    1UNL    H19   46   0.752   0.152  -0.073
    1UNL    H20   47   0.590  -0.116   0.132
    1UNL    H21   48   0.737  -0.043   0.091
    1UNL    H22   49  -0.225   0.025  -0.205
    1UNL    H23   50  -0.169   0.168  -0.125
    1UNL    H24   51  -0.209   0.051   0.103
   0.00000   0.00000   0.00000   0.00000   0.00000   0.00000   0.00000   0.00000   0.00000
Generated with MDTraj, t= 55.0
 51
    1UNL     C1    1  -0.373   0.381  -0.167
    1UNL     O1    2  -0.342   0.271  -0.094
    1UNL     C2    3  -0.444   0.178  -0.083
    1UNL     O2    4  -0.556   0.205  -0.123
    1UNL     C3    5  -0.407   0.047  -0.024
    1UNL     C4    6  -0.501  -0.038   0.021
    1UNL     O3    7  -0.488  -0.160   0.092
    1UNL     C5    8  -0.351  -0.204   0.122
    1UNL     C6    9  -0.358  -0.354   0.147
    1UNL     C7   10  -0.254  -0.149   0.016
    1UNL     C8   11  -0.110  -0.186   0.045
    1UNL     N1   12  -0.006  -0.113  -0.024
    1UNL     C9   13   0.134  -0.145  -0.005
    1UNL    C10   14   0.209  -0.049   0.082
    1UNL    C11   15   0.364  -0.054   0.085
    1UNL     O4   16   0.416  -0.125   0.167
    1UNL    C12   17   0.434   0.026  -0.021
    1UNL    C13   18   0.364   0.097  -0.122
    1UNL    C14   19   0.429   0.189  -0.199
    1UNL    C15   20   0.569   0.194  -0.191
    1UNL    C16   21   0.645   0.120  -0.111
    1UNL    C17   22   0.580   0.030  -0.018
    1UNL     N2   23   0.657  -0.015   0.088
    1UNL    C18   24  -0.031   0.003  -0.093
    1UNL     O5   25   0.058   0.072  -0.129
    1UNL    C19   26  -0.176   0.051  -0.112
    1UNL    C20   27  -0.270   0.005  -0.006
    1UNL     H1   28  -0.298   0.467  -0.158
    1UNL     H2   29  -0.465   0.422  -0.133
    1UNL     H3   30  -0.399   0.348  -0.277
    1UNL     H4   31  -0.602  -0.021  -0.012
    1UNL     H5   32  -0.335  -0.159   0.219
    1UNL     H6   33  -0.450  -0.376   0.203
    1UNL     H7   34  -0.267  -0.398   0.186
    1UNL     H8   35  -0.366  -0.414   0.050
    1UNL     H9   36  -0.276  -0.195  -0.086
    1UNL    H10   37  -0.103  -0.163   0.154
    1UNL    H11   38  -0.085  -0.295   0.030
    1UNL    H12   39   0.179  -0.153  -0.106
    1UNL    H13   40   0.147  -0.245   0.039
    1UNL    H14   41   0.169  -0.057   0.178
    1UNL    H15   42   0.169   0.053   0.078
    1UNL    H16   43   0.252   0.091  -0.128
    1UNL    H17   44   0.373   0.266  -0.250
    1UNL    H18   45   0.618   0.268  -0.257
    1UNL    H19   46   0.752   0.128  -0.122
    1UNL    H20   47   0.622  -0.071   0.164
    1UNL    H21   48   0.757   0.003   0.097
    1UNL    H22   49  -0.222   0.024  -0.204
    1UNL    H23   50  -0.189   0.161  -0.103
    1UNL    H24   51  -0.241   0.049   0.096
   0.00000   0.00000   0.00000   0.00000   0.00000   0.00000   0.00000   0.00000   0.00000
Generated with MDTraj, t= 56.0
 51
    1UNL     C1    1  -0.386   0.389  -0.153
    1UNL     O1    2  -0.338   0.265  -0.109
    1UNL     C2    3  -0.441   0.173  -0.077
    1UNL     O2    4  -0.559   0.201  -0.093
    1UNL     C3    5  -0.402   0.045  -0.023
    1UNL     C4    6  -0.500  -0.047  -0.004
    1UNL     O3    7  -0.486  -0.172   0.039
    1UNL     C5    8  -0.363  -0.199   0.105
    1UNL     C6    9  -0.360  -0.343   0.144
    1UNL     C7   10  -0.245  -0.148   0.016
    1UNL     C8   11  -0.104  -0.174   0.064
    1UNL     N1   12  -0.002  -0.100  -0.003
    1UNL     C9   13   0.132  -0.144   0.015
    1UNL    C10   14   0.209  -0.056   0.113
    1UNL    C11   15   0.360  -0.049   0.095
    1UNL     O4   16   0.428  -0.126   0.156
    1UNL    C12   17   0.426   0.038  -0.013
    1UNL    C13   18   0.356   0.096  -0.121
    1UNL    C14   19   0.424   0.165  -0.218
    1UNL    C15   20   0.560   0.178  -0.211
    1UNL    C16   21   0.634   0.123  -0.109
    1UNL    C17   22   0.571   0.044  -0.018
    1UNL     N2   23   0.649  -0.020   0.076
    1UNL    C18   24  -0.021   0.010  -0.081
    1UNL     O5   25   0.067   0.079  -0.121
    1UNL    C19   26  -0.158   0.058  -0.109
    1UNL    C20   27  -0.258   0.006  -0.006
    1UNL     H1   28  -0.323   0.473  -0.122
    1UNL     H2   29  -0.479   0.407  -0.103
    1UNL     H3   30  -0.414   0.384  -0.263
    1UNL     H4   31  -0.602  -0.015  -0.028
    1UNL     H5   32  -0.362  -0.138   0.194
    1UNL     H6   33  -0.443  -0.377   0.220
    1UNL     H7   34  -0.266  -0.367   0.185
    1UNL     H8   35  -0.368  -0.423   0.068
    1UNL     H9   36  -0.251  -0.192  -0.089
    1UNL    H10   37  -0.084  -0.163   0.173
    1UNL    H11   38  -0.090  -0.282   0.036
    1UNL    H12   39   0.183  -0.145  -0.085
    1UNL    H13   40   0.132  -0.247   0.050
    1UNL    H14   41   0.177  -0.062   0.210
    1UNL    H15   42   0.168   0.043   0.097
    1UNL    H16   43   0.248   0.085  -0.136
    1UNL    H17   44   0.363   0.212  -0.295
    1UNL    H18   45   0.598   0.222  -0.303
    1UNL    H19   46   0.744   0.109  -0.122
    1UNL    H20   47   0.602  -0.074   0.150
    1UNL    H21   48   0.730  -0.077   0.045
    1UNL    H22   49  -0.197   0.013  -0.200
    1UNL    H23   50  -0.165   0.166  -0.121
    1UNL    H24   51  -0.219   0.048   0.093
   0.00000   0.00000   0.00000   0.00000   0.00000   0.00000   0.00000   0.00000   0.00000
Generated with MDTraj, t= 57.0
 51
    1UNL     C1    1  -0.394   0.385  -0.134
    1UNL     O1    2  -0.351   0.261  -0.103
    1UNL     C2    3  -0.453   0.175  -0.076
    1UNL     O2    4  -0.573   0.190  -0.088
    1UNL     C3    5  -0.412   0.045  -0.028
    1UNL     C4    6  -0.504  -0.055  -0.023
    1UNL     O3    7  -0.485  -0.183   0.010
    1UNL     C5    8  -0.361  -0.198   0.095
    1UNL     C6    9  -0.343  -0.346   0.125
    1UNL     C7   10  -0.244  -0.129   0.020
    1UNL     C8   11  -0.109  -0.161   0.077
    1UNL     N1   12  -0.002  -0.073   0.031
    1UNL     C9   13   0.123  -0.132   0.043
    1UNL    C10   14   0.214  -0.034   0.116
    1UNL    C11   15   0.363  -0.053   0.090
    1UNL     O4   16   0.426  -0.130   0.161
    1UNL    C12   17   0.438   0.020  -0.021
    1UNL    C13   18   0.364   0.078  -0.126
    1UNL    C14   19   0.426   0.152  -0.225
    1UNL    C15   20   0.559   0.175  -0.216
    1UNL    C16   21   0.643   0.114  -0.124
    1UNL    C17   22   0.583   0.033  -0.024
    1UNL     N2   23   0.662  -0.015   0.085
    1UNL    C18   24  -0.020   0.019  -0.074
    1UNL     O5   25   0.069   0.068  -0.141
    1UNL    C19   26  -0.162   0.065  -0.102
    1UNL    C20   27  -0.262   0.020   0.003
    1UNL     H1   28  -0.318   0.432  -0.185
    1UNL     H2   29  -0.397   0.444  -0.039
    1UNL     H3   30  -0.491   0.380  -0.181
    1UNL     H4   31  -0.604  -0.022  -0.052
    1UNL     H5   32  -0.382  -0.147   0.187
    1UNL     H6   33  -0.437  -0.396   0.174
    1UNL     H7   34  -0.262  -0.375   0.192
    1UNL     H8   35  -0.330  -0.411   0.040
    1UNL     H9   36  -0.263  -0.169  -0.086
    1UNL    H10   37  -0.126  -0.157   0.187
    1UNL    H11   38  -0.081  -0.266   0.057
    1UNL    H12   39   0.162  -0.150  -0.063
    1UNL    H13   40   0.113  -0.229   0.091
    1UNL    H14   41   0.192  -0.038   0.217
    1UNL    H15   42   0.186   0.067   0.091
    1UNL    H16   43   0.259   0.080  -0.124
    1UNL    H17   44   0.371   0.195  -0.308
    1UNL    H18   45   0.616   0.210  -0.299
    1UNL    H19   46   0.745   0.113  -0.133
    1UNL    H20   47   0.615  -0.091   0.142
    1UNL    H21   48   0.760  -0.040   0.074
    1UNL    H22   49  -0.187   0.032  -0.205
    1UNL    H23   50  -0.164   0.171  -0.106
    1UNL    H24   51  -0.234   0.071   0.101
   0.00000   0.00000   0.00000   0.00000   0.00000   0.00000   0.00000   0.00000   0.00000
Generated with MDTraj, t= 58.0
 51
    1UNL     C1    1  -0.422   0.399  -0.121
    1UNL     O1    2  -0.368   0.272  -0.081
    1UNL     C2    3  -0.463   0.172  -0.078
    1UNL     O2    4  -0.582   0.184  -0.106
    1UNL     C3    5  -0.414   0.039  -0.042
    1UNL     C4    6  -0.504  -0.060  -0.032
    1UNL     O3    7  -0.495  -0.182   0.025
    1UNL     C5    8  -0.373  -0.207   0.095
    1UNL     C6    9  -0.351  -0.358   0.097
    1UNL     C7   10  -0.252  -0.135   0.029
    1UNL     C8   11  -0.112  -0.149   0.098
    1UNL     N1   12  -0.006  -0.081   0.022
    1UNL     C9   13   0.131  -0.131   0.041
    1UNL    C10   14   0.218  -0.019   0.097
    1UNL    C11   15   0.370  -0.045   0.088
    1UNL     O4   16   0.422  -0.126   0.166
    1UNL    C12   17   0.451   0.025  -0.017
    1UNL    C13   18   0.380   0.080  -0.128
    1UNL    C14   19   0.447   0.143  -0.231
    1UNL    C15   20   0.584   0.148  -0.229
    1UNL    C16   21   0.663   0.096  -0.129
    1UNL    C17   22   0.599   0.037  -0.021
    1UNL     N2   23   0.678  -0.011   0.085
    1UNL    C18   24  -0.030   0.021  -0.072
    1UNL     O5   25   0.069   0.078  -0.124
    1UNL    C19   26  -0.169   0.068  -0.100
    1UNL    C20   27  -0.270   0.020   0.009
    1UNL     H1   28  -0.347   0.462  -0.145
    1UNL     H2   29  -0.464   0.450  -0.030
    1UNL     H3   30  -0.496   0.381  -0.191
    1UNL     H4   31  -0.603  -0.047  -0.073
    1UNL     H5   32  -0.377  -0.173   0.197
    1UNL     H6   33  -0.435  -0.416   0.140
    1UNL     H7   34  -0.267  -0.378   0.172
    1UNL     H8   35  -0.332  -0.394  -0.003
    1UNL     H9   36  -0.246  -0.183  -0.074
    1UNL    H10   37  -0.109  -0.109   0.201
    1UNL    H11   38  -0.092  -0.255   0.116
    1UNL    H12   39   0.162  -0.162  -0.065
    1UNL    H13   40   0.128  -0.220   0.101
    1UNL    H14   41   0.195  -0.003   0.200
    1UNL    H15   42   0.198   0.072   0.045
    1UNL    H16   43   0.271   0.075  -0.141
    1UNL    H17   44   0.400   0.198  -0.312
    1UNL    H18   45   0.642   0.192  -0.313
    1UNL    H19   46   0.777   0.096  -0.135
    1UNL    H20   47   0.628  -0.045   0.170
    1UNL    H21   48   0.775  -0.044   0.073
    1UNL    H22   49  -0.202   0.045  -0.204
    1UNL    H23   50  -0.153   0.172  -0.101
    1UNL    H24   51  -0.262   0.078   0.106
   0.00000   0.00000   0.00000   0.00000   0.00000   0.00000   0.00000   0.00000   0.00000
Generated with MDTraj, t= 59.0
 51
    1UNL     C1    1  -0.433   0.405  -0.119
    1UNL     O1    2  -0.377   0.283  -0.064
    1UNL     C2    3  -0.457   0.171  -0.079
    1UNL     O2    4  -0.570   0.179  -0.129
    1UNL     C3    5  -0.413   0.040  -0.030
    1UNL     C4    6  -0.498  -0.065  -0.027
    1UNL     O3    7  -0.486  -0.192   0.035
    1UNL     C5    8  -0.359  -0.217   0.097
    1UNL     C6    9  -0.339  -0.374   0.109
    1UNL     C7   10  -0.249  -0.147   0.014
    1UNL     C8   11  -0.106  -0.163   0.074
    1UNL     N1   12  -0.007  -0.071   0.016
    1UNL     C9   13   0.136  -0.106   0.034
    1UNL    C10   14   0.215   0.007   0.105
    1UNL    C11   15   0.361  -0.028   0.086
    1UNL     O4   16   0.404  -0.118   0.158
    1UNL    C12   17   0.443   0.026  -0.027
    1UNL    C13   18   0.388   0.079  -0.149
    1UNL    C14   19   0.469   0.128  -0.248
    1UNL    C15   20   0.607   0.126  -0.234
    1UNL    C16   21   0.668   0.080  -0.117
    1UNL    C17   22   0.586   0.029  -0.017
    1UNL     N2   23   0.650  -0.027   0.096
    1UNL    C18   24  -0.035   0.038  -0.064
    1UNL     O5   25   0.062   0.099  -0.114
    1UNL    C19   26  -0.175   0.082  -0.079
    1UNL    C20   27  -0.276   0.009   0.011
    1UNL     H1   28  -0.393   0.481  -0.064
    1UNL     H2   29  -0.543   0.411  -0.095
    1UNL     H3   30  -0.414   0.411  -0.219
    1UNL     H4   31  -0.601  -0.059  -0.057
    1UNL     H5   32  -0.353  -0.167   0.190
    1UNL     H6   33  -0.422  -0.409   0.156
    1UNL     H7   34  -0.249  -0.390   0.183
    1UNL     H8   35  -0.332  -0.406   0.003
    1UNL     H9   36  -0.247  -0.183  -0.093
    1UNL    H10   37  -0.111  -0.175   0.183
    1UNL    H11   38  -0.059  -0.257   0.046
    1UNL    H12   39   0.184  -0.112  -0.071
    1UNL    H13   40   0.150  -0.200   0.084
    1UNL    H14   41   0.188   0.012   0.214
    1UNL    H15   42   0.200   0.092   0.044
    1UNL    H16   43   0.280   0.085  -0.167
    1UNL    H17   44   0.423   0.177  -0.333
    1UNL    H18   45   0.653   0.191  -0.301
    1UNL    H19   46   0.771   0.088  -0.107
    1UNL    H20   47   0.591  -0.090   0.150
    1UNL    H21   48   0.745  -0.066   0.094
    1UNL    H22   49  -0.204   0.086  -0.186
    1UNL    H23   50  -0.178   0.182  -0.048
    1UNL    H24   51  -0.269   0.051   0.116
   0.00000   0.00000   0.00000   0.00000   0.00000   0.00000   0.00000   0.00000   0.00000
Generated with MDTraj, t= 60.0
 51
    1UNL     C1    1  -0.420   0.394  -0.118
    1UNL     O1    2  -0.389   0.276  -0.046
    1UNL     C2    3  -0.472   0.171  -0.073
    1UNL     O2    4  -0.571   0.176  -0.144
    1UNL     C3    5  -0.430   0.038  -0.019
    1UNL     C4    6  -0.514  -0.071  -0.007
    1UNL     O3    7  -0.489  -0.202   0.032
    1UNL     C5    8  -0.354  -0.218   0.083
    1UNL     C6    9  -0.320  -0.369   0.114
    1UNL     C7   10  -0.250  -0.136   0.004
    1UNL     C8   11  -0.111  -0.154   0.059
    1UNL     N1   12  -0.009  -0.069  -0.004
    1UNL     C9   13   0.139  -0.098   0.012
    1UNL    C10   14   0.214  -0.003   0.106
    1UNL    C11   15   0.367  -0.030   0.091
    1UNL     O4   16   0.420  -0.091   0.181
    1UNL    C12   17   0.451   0.013  -0.029
    1UNL    C13   18   0.399   0.078  -0.144
    1UNL    C14   19   0.477   0.131  -0.243
    1UNL    C15   20   0.615   0.117  -0.234
    1UNL    C16   21   0.677   0.055  -0.130
    1UNL    C17   22   0.595   0.013  -0.021
    1UNL     N2   23   0.652  -0.034   0.096
    1UNL    C18   24  -0.045   0.051  -0.064
    1UNL     O5   25   0.049   0.124  -0.099
    1UNL    C19   26  -0.189   0.085  -0.085
    1UNL    C20   27  -0.287   0.015   0.008
    1UNL     H1   28  -0.347   0.464  -0.097
    1UNL     H2   29  -0.518   0.436  -0.071
    1UNL     H3   30  -0.426   0.375  -0.220
    1UNL     H4   31  -0.619  -0.057  -0.036
    1UNL     H5   32  -0.368  -0.164   0.171
    1UNL     H6   33  -0.406  -0.404   0.164
    1UNL     H7   34  -0.240  -0.365   0.195
    1UNL     H8   35  -0.304  -0.421   0.016
    1UNL     H9   36  -0.255  -0.178  -0.101
    1UNL    H10   37  -0.102  -0.137   0.166
    1UNL    H11   38  -0.084  -0.259   0.056
    1UNL    H12   39   0.188  -0.095  -0.092
    1UNL    H13   40   0.158  -0.197   0.053
    1UNL    H14   41   0.182  -0.034   0.210
    1UNL    H15   42   0.193   0.098   0.083
    1UNL    H16   43   0.295   0.097  -0.139
    1UNL    H17   44   0.432   0.183  -0.326
    1UNL    H18   45   0.687   0.155  -0.312
    1UNL    H19   46   0.787   0.061  -0.122
    1UNL    H20   47   0.595  -0.032   0.176
    1UNL    H21   48   0.748  -0.021   0.122
    1UNL    H22   49  -0.227   0.078  -0.188
    1UNL    H23   50  -0.198   0.188  -0.061
    1UNL    H24   51  -0.266   0.049   0.114
   0.00000   0.00000   0.00000   0.00000   0.00000   0.00000   0.00000   0.00000   0.00000
Generated with MDTraj, t= 61.0
 51
    1UNL     C1    1  -0.456   0.388  -0.098
    1UNL     O1    2  -0.380   0.268  -0.084
    1UNL     C2    3  -0.470   0.165  -0.076
    1UNL     O2    4  -0.585   0.158  -0.116
    1UNL     C3    5  -0.419   0.037  -0.022
    1UNL     C4    6  -0.506  -0.069  -0.013
    1UNL     O3    7  -0.481  -0.190   0.033
    1UNL     C5    8  -0.351  -0.210   0.091
    1UNL     C6    9  -0.326  -0.362   0.097
    1UNL     C7   10  -0.241  -0.136   0.011
    1UNL     C8   11  -0.096  -0.148   0.059
    1UNL     N1   12  -0.001  -0.074  -0.024
    1UNL     C9   13   0.143  -0.096   0.002
    1UNL    C10   14   0.212   0.003   0.093
    1UNL    C11   15   0.361  -0.021   0.104
    1UNL     O4   16   0.406  -0.082   0.197
    1UNL    C12   17   0.445   0.034  -0.012
    1UNL    C13   18   0.391   0.094  -0.124
    1UNL    C14   19   0.469   0.113  -0.241
    1UNL    C15   20   0.609   0.104  -0.240
    1UNL    C16   21   0.664   0.043  -0.130
    1UNL    C17   22   0.591   0.011  -0.014
    1UNL     N2   23   0.650  -0.055   0.089
    1UNL    C18   24  -0.029   0.051  -0.076
    1UNL     O5   25   0.059   0.135  -0.094
    1UNL    C19   26  -0.173   0.097  -0.085
    1UNL    C20   27  -0.273   0.019   0.012
    1UNL     H1   28  -0.391   0.477  -0.101
    1UNL     H2   29  -0.523   0.392  -0.003
    1UNL     H3   30  -0.514   0.379  -0.189
    1UNL     H4   31  -0.605  -0.044  -0.052
    1UNL     H5   32  -0.360  -0.163   0.184
    1UNL     H6   33  -0.395  -0.419   0.168
    1UNL     H7   34  -0.232  -0.374   0.142
    1UNL     H8   35  -0.336  -0.411  -0.004
    1UNL     H9   36  -0.239  -0.176  -0.094
    1UNL    H10   37  -0.092  -0.112   0.162
    1UNL    H11   38  -0.055  -0.246   0.068
    1UNL    H12   39   0.188  -0.076  -0.102
    1UNL    H13   40   0.168  -0.201   0.021
    1UNL    H14   41   0.176  -0.010   0.200
    1UNL    H15   42   0.189   0.107   0.070
    1UNL    H16   43   0.283   0.116  -0.132
    1UNL    H17   44   0.434   0.131  -0.343
    1UNL    H18   45   0.663   0.131  -0.326
    1UNL    H19   46   0.772   0.021  -0.130
    1UNL    H20   47   0.584  -0.090   0.152
    1UNL    H21   48   0.738  -0.099   0.086
    1UNL    H22   49  -0.203   0.064  -0.184
    1UNL    H23   50  -0.184   0.204  -0.082
    1UNL    H24   51  -0.247   0.061   0.114
   0.00000   0.00000   0.00000   0.00000   0.00000   0.00000   0.00000   0.00000   0.00000
Generated with MDTraj, t= 62.0
 51
    1UNL     C1    1  -0.460   0.381  -0.125
    1UNL     O1    2  -0.387   0.272  -0.076
    1UNL     C2    3  -0.474   0.165  -0.062
    1UNL     O2    4  -0.596   0.165  -0.070
    1UNL     C3    5  -0.416   0.037  -0.032
    1UNL     C4    6  -0.496  -0.073  -0.022
    1UNL     O3    7  -0.476  -0.197   0.034
    1UNL     C5    8  -0.337  -0.202   0.087
    1UNL     C6    9  -0.294  -0.350   0.087
    1UNL     C7   10  -0.235  -0.122  -0.000
    1UNL     C8   11  -0.091  -0.161   0.031
    1UNL     N1   12   0.004  -0.048   0.006
    1UNL     C9   13   0.141  -0.082   0.028
    1UNL    C10   14   0.216   0.014   0.116
    1UNL    C11   15   0.358  -0.020   0.112
    1UNL     O4   16   0.400  -0.067   0.213
    1UNL    C12   17   0.441   0.016  -0.012
    1UNL    C13   18   0.381   0.082  -0.117
    1UNL    C14   19   0.456   0.136  -0.220
    1UNL    C15   20   0.587   0.102  -0.235
    1UNL    C16   21   0.653   0.032  -0.138
    1UNL    C17   22   0.578  -0.015  -0.024
    1UNL     N2   23   0.651  -0.078   0.078
    1UNL    C18   24  -0.024   0.058  -0.076
    1UNL     O5   25   0.066   0.119  -0.128
    1UNL    C19   26  -0.170   0.086  -0.109
    1UNL    C20   27  -0.265   0.024  -0.007
    1UNL     H1   28  -0.387   0.468  -0.149
    1UNL     H2   29  -0.536   0.406  -0.047
    1UNL     H3   30  -0.502   0.346  -0.225
    1UNL     H4   31  -0.601  -0.052  -0.034
    1UNL     H5   32  -0.340  -0.164   0.183
    1UNL     H6   33  -0.370  -0.416   0.148
    1UNL     H7   34  -0.206  -0.382   0.129
    1UNL     H8   35  -0.304  -0.403  -0.010
    1UNL     H9   36  -0.245  -0.163  -0.105
    1UNL    H10   37  -0.088  -0.180   0.138
    1UNL    H11   38  -0.068  -0.256  -0.012
    1UNL    H12   39   0.187  -0.091  -0.076
    1UNL    H13   40   0.147  -0.185   0.065
    1UNL    H14   41   0.176   0.023   0.221
    1UNL    H15   42   0.204   0.123   0.087
    1UNL    H16   43   0.276   0.087  -0.118
    1UNL    H17   44   0.397   0.193  -0.289
    1UNL    H18   45   0.645   0.152  -0.316
    1UNL    H19   46   0.750   0.002  -0.156
    1UNL    H20   47   0.609  -0.082   0.167
    1UNL    H21   48   0.749  -0.072   0.094
    1UNL    H22   49  -0.192   0.046  -0.205
    1UNL    H23   50  -0.185   0.193  -0.108
    1UNL    H24   51  -0.250   0.076   0.093
   0.00000   0.00000   0.00000   0.00000   0.00000   0.00000   0.00000   0.00000   0.00000
Generated with MDTraj, t= 63.0
 51
    1UNL     C1    1  -0.441   0.381  -0.131
    1UNL     O1    2  -0.372   0.267  -0.095
    1UNL     C2    3  -0.464   0.169  -0.059
    1UNL     O2    4  -0.586   0.188  -0.054
    1UNL     C3    5  -0.417   0.034  -0.036
    1UNL     C4    6  -0.503  -0.064  -0.015
    1UNL     O3    7  -0.481  -0.199   0.021
    1UNL     C5    8  -0.352  -0.221   0.081
    1UNL     C6    9  -0.321  -0.364   0.084
    1UNL     C7   10  -0.237  -0.146   0.003
    1UNL     C8   11  -0.090  -0.162   0.049
    1UNL     N1   12   0.006  -0.060  -0.006
    1UNL     C9   13   0.150  -0.075   0.006
    1UNL    C10   14   0.214   0.005   0.123
    1UNL    C11   15   0.365   0.003   0.123
    1UNL     O4   16   0.419  -0.044   0.220
    1UNL    C12   17   0.448   0.043   0.005
    1UNL    C13   18   0.391   0.111  -0.102
    1UNL    C14   19   0.454   0.135  -0.224
    1UNL    C15   20   0.581   0.089  -0.244
    1UNL    C16   21   0.646   0.024  -0.142
    1UNL    C17   22   0.583  -0.007  -0.021
    1UNL     N2   23   0.644  -0.086   0.065
    1UNL    C18   24  -0.032   0.052  -0.076
    1UNL     O5   25   0.049   0.124  -0.123
    1UNL    C19   26  -0.173   0.078  -0.104
    1UNL    C20   27  -0.270   0.005  -0.002
    1UNL     H1   28  -0.356   0.461  -0.156
    1UNL     H2   29  -0.509   0.407  -0.049
    1UNL     H3   30  -0.486   0.358  -0.235
    1UNL     H4   31  -0.609  -0.055  -0.033
    1UNL     H5   32  -0.363  -0.190   0.179
    1UNL     H6   33  -0.400  -0.436   0.126
    1UNL     H7   34  -0.230  -0.383   0.144
    1UNL     H8   35  -0.300  -0.411  -0.011
    1UNL     H9   36  -0.246  -0.188  -0.100
    1UNL    H10   37  -0.088  -0.170   0.156
    1UNL    H11   38  -0.051  -0.255   0.012
    1UNL    H12   39   0.204  -0.057  -0.090
    1UNL    H13   40   0.166  -0.183   0.028
    1UNL    H14   41   0.180  -0.037   0.220
    1UNL    H15   42   0.170   0.112   0.123
    1UNL    H16   43   0.282   0.132  -0.095
    1UNL    H17   44   0.397   0.197  -0.295
    1UNL    H18   45   0.623   0.105  -0.340
    1UNL    H19   46   0.761   0.015  -0.152
    1UNL    H20   47   0.592  -0.128   0.142
    1UNL    H21   48   0.742  -0.112   0.051
    1UNL    H22   49  -0.193   0.027  -0.193
    1UNL    H23   50  -0.193   0.186  -0.114
    1UNL    H24   51  -0.271   0.049   0.102
   0.00000   0.00000   0.00000   0.00000   0.00000   0.00000   0.00000   0.00000   0.00000
Generated with MDTraj, t= 64.0
 51
    1UNL     C1    1  -0.419   0.390  -0.113
    1UNL     O1    2  -0.359   0.264  -0.106
    1UNL     C2    3  -0.456   0.168  -0.070
    1UNL     O2    4  -0.578   0.190  -0.078
    1UNL     C3    5  -0.411   0.035  -0.032
    1UNL     C4    6  -0.495  -0.063   0.003
    1UNL     O3    7  -0.475  -0.195   0.032
    1UNL     C5    8  -0.339  -0.225   0.078
    1UNL     C6    9  -0.310  -0.377   0.080
    1UNL     C7   10  -0.229  -0.145   0.001
    1UNL     C8   11  -0.088  -0.156   0.059
    1UNL     N1   12   0.008  -0.085  -0.020
    1UNL     C9   13   0.144  -0.109   0.018
    1UNL    C10   14   0.197  -0.003   0.110
    1UNL    C11   15   0.345   0.006   0.106
    1UNL     O4   16   0.399  -0.019   0.214
    1UNL    C12   17   0.422   0.031  -0.016
    1UNL    C13   18   0.374   0.112  -0.118
    1UNL    C14   19   0.453   0.148  -0.227
    1UNL    C15   20   0.584   0.108  -0.238
    1UNL    C16   21   0.632   0.028  -0.138
    1UNL    C17   22   0.553  -0.014  -0.029
    1UNL     N2   23   0.620  -0.089   0.069
    1UNL    C18   24  -0.019   0.048  -0.061
    1UNL     O5   25   0.069   0.123  -0.092
    1UNL    C19   26  -0.164   0.086  -0.093
    1UNL    C20   27  -0.268   0.004  -0.008
    1UNL     H1   28  -0.348   0.463  -0.172
    1UNL     H2   29  -0.444   0.419  -0.013
    1UNL     H3   30  -0.510   0.375  -0.184
    1UNL     H4   31  -0.600  -0.038  -0.010
    1UNL     H5   32  -0.339  -0.193   0.176
    1UNL     H6   33  -0.385  -0.430   0.136
    1UNL     H7   34  -0.199  -0.395   0.121
    1UNL     H8   35  -0.311  -0.416  -0.021
    1UNL     H9   36  -0.219  -0.170  -0.107
    1UNL    H10   37  -0.071  -0.114   0.159
    1UNL    H11   38  -0.056  -0.257   0.068
    1UNL    H12   39   0.198  -0.108  -0.079
    1UNL    H13   40   0.166  -0.214   0.057
    1UNL    H14   41   0.168  -0.041   0.212
    1UNL    H15   42   0.148   0.102   0.096
    1UNL    H16   43   0.280   0.158  -0.110
    1UNL    H17   44   0.415   0.183  -0.319
    1UNL    H18   45   0.656   0.133  -0.319
    1UNL    H19   46   0.733   0.013  -0.138
    1UNL    H20   47   0.574  -0.092   0.162
    1UNL    H21   48   0.722  -0.080   0.079
    1UNL    H22   49  -0.186   0.078  -0.194
    1UNL    H23   50  -0.178   0.193  -0.069
    1UNL    H24   51  -0.260   0.052   0.094
   0.00000   0.00000   0.00000   0.00000   0.00000   0.00000   0.00000   0.00000   0.00000
Generated with MDTraj, t= 65.0
 51
    1UNL     C1    1  -0.414   0.384  -0.125
    1UNL     O1    2  -0.364   0.276  -0.061
    1UNL     C2    3  -0.458   0.174  -0.062
    1UNL     O2    4  -0.571   0.185  -0.111
    1UNL     C3    5  -0.412   0.041  -0.013
    1UNL     C4    6  -0.499  -0.064   0.003
    1UNL     O3    7  -0.480  -0.191   0.033
    1UNL     C5    8  -0.341  -0.217   0.081
    1UNL     C6    9  -0.333  -0.375   0.092
    1UNL     C7   10  -0.240  -0.146  -0.012
    1UNL     C8   11  -0.091  -0.182   0.020
    1UNL     N1   12   0.009  -0.079  -0.018
    1UNL     C9   13   0.150  -0.088   0.028
    1UNL    C10   14   0.211   0.006   0.127
    1UNL    C11   15   0.361  -0.001   0.118
    1UNL     O4   16   0.420  -0.026   0.223
    1UNL    C12   17   0.434   0.024  -0.004
    1UNL    C13   18   0.372   0.105  -0.102
    1UNL    C14   19   0.433   0.135  -0.219
    1UNL    C15   20   0.564   0.112  -0.240
    1UNL    C16   21   0.630   0.042  -0.143
    1UNL    C17   22   0.569  -0.001  -0.026
    1UNL     N2   23   0.639  -0.083   0.064
    1UNL    C18   24  -0.025   0.042  -0.079
    1UNL     O5   25   0.059   0.118  -0.124
    1UNL    C19   26  -0.169   0.075  -0.104
    1UNL    C20   27  -0.263   0.006   0.002
    1UNL     H1   28  -0.332   0.453  -0.162
    1UNL     H2   29  -0.490   0.426  -0.067
    1UNL     H3   30  -0.456   0.342  -0.224
    1UNL     H4   31  -0.600  -0.022  -0.005
    1UNL     H5   32  -0.338  -0.184   0.177
    1UNL     H6   33  -0.415  -0.407   0.152
    1UNL     H7   34  -0.222  -0.400   0.122
    1UNL     H8   35  -0.349  -0.411  -0.010
    1UNL     H9   36  -0.255  -0.174  -0.117
    1UNL    H10   37  -0.081  -0.204   0.127
    1UNL    H11   38  -0.050  -0.273  -0.022
    1UNL    H12   39   0.211  -0.098  -0.062
    1UNL    H13   40   0.160  -0.192   0.076
    1UNL    H14   41   0.190  -0.024   0.236
    1UNL    H15   42   0.181   0.114   0.104
    1UNL    H16   43   0.263   0.126  -0.093
    1UNL    H17   44   0.373   0.178  -0.301
    1UNL    H18   45   0.612   0.142  -0.329
    1UNL    H19   46   0.735   0.004  -0.150
    1UNL    H20   47   0.615  -0.080   0.166
    1UNL    H21   48   0.739  -0.101   0.053
    1UNL    H22   49  -0.194   0.047  -0.203
    1UNL    H23   50  -0.184   0.183  -0.103
    1UNL    H24   51  -0.231   0.027   0.107
   0.00000   0.00000   0.00000   0.00000   0.00000   0.00000   0.00000   0.00000   0.00000
Generated with MDTraj, t= 66.0
 51
    1UNL     C1    1  -0.408   0.389  -0.102
    1UNL     O1    2  -0.357   0.265  -0.076
    1UNL     C2    3  -0.456   0.172  -0.076
    1UNL     O2    4  -0.572   0.190  -0.115
    1UNL     C3    5  -0.410   0.039  -0.031
    1UNL     C4    6  -0.496  -0.065  -0.018
    1UNL     O3    7  -0.477  -0.181   0.048
    1UNL     C5    8  -0.342  -0.216   0.095
    1UNL     C6    9  -0.333  -0.369   0.085
    1UNL     C7   10  -0.239  -0.144   0.009
    1UNL     C8   11  -0.090  -0.186   0.039
    1UNL     N1   12   0.007  -0.082  -0.009
    1UNL     C9   13   0.149  -0.099   0.026
    1UNL    C10   14   0.209  -0.002   0.121
    1UNL    C11   15   0.358  -0.013   0.106
    1UNL     O4   16   0.415  -0.069   0.199
    1UNL    C12   17   0.429   0.047  -0.002
    1UNL    C13   18   0.372   0.115  -0.109
    1UNL    C14   19   0.436   0.137  -0.229
    1UNL    C15   20   0.566   0.095  -0.249
    1UNL    C16   21   0.624   0.034  -0.142
    1UNL    C17   22   0.566   0.020  -0.021
    1UNL     N2   23   0.637  -0.038   0.083
    1UNL    C18   24  -0.027   0.036  -0.077
    1UNL     O5   25   0.064   0.112  -0.109
    1UNL    C19   26  -0.168   0.070  -0.110
    1UNL    C20   27  -0.264   0.016   0.006
    1UNL     H1   28  -0.382   0.457  -0.026
    1UNL     H2   29  -0.513   0.377  -0.111
    1UNL     H3   30  -0.363   0.429  -0.193
    1UNL     H4   31  -0.598  -0.047  -0.050
    1UNL     H5   32  -0.341  -0.183   0.191
    1UNL     H6   33  -0.424  -0.411   0.128
    1UNL     H7   34  -0.238  -0.389   0.129
    1UNL     H8   35  -0.329  -0.407  -0.023
    1UNL     H9   36  -0.255  -0.177  -0.093
    1UNL    H10   37  -0.066  -0.191   0.145
    1UNL    H11   38  -0.072  -0.288   0.005
    1UNL    H12   39   0.208  -0.104  -0.065
    1UNL    H13   40   0.159  -0.203   0.076
    1UNL    H14   41   0.172  -0.027   0.228
    1UNL    H15   42   0.185   0.103   0.091
    1UNL    H16   43   0.264   0.132  -0.117
    1UNL    H17   44   0.393   0.209  -0.295
    1UNL    H18   45   0.622   0.130  -0.336
    1UNL    H19   46   0.729   0.007  -0.153
    1UNL    H20   47   0.590  -0.083   0.163
    1UNL    H21   48   0.725  -0.084   0.064
    1UNL    H22   49  -0.194   0.022  -0.203
    1UNL    H23   50  -0.183   0.175  -0.131
    1UNL    H24   51  -0.257   0.060   0.108
   0.00000   0.00000   0.00000   0.00000   0.00000   0.00000   0.00000   0.00000   0.00000
Generated with MDTraj, t= 67.0
 51
    1UNL     C1    1  -0.412   0.385  -0.109
    1UNL     O1    2  -0.356   0.264  -0.082
    1UNL     C2    3  -0.460   0.171  -0.069
    1UNL     O2    4  -0.577   0.198  -0.097
    1UNL     C3    5  -0.412   0.038  -0.032
    1UNL     C4    6  -0.498  -0.062  -0.019
    1UNL     O3    7  -0.480  -0.192   0.025
    1UNL     C5    8  -0.351  -0.207   0.093
    1UNL     C6    9  -0.335  -0.360   0.101
    1UNL     C7   10  -0.244  -0.133   0.012
    1UNL     C8   11  -0.106  -0.164   0.063
    1UNL     N1   12   0.001  -0.084   0.001
    1UNL     C9   13   0.139  -0.123   0.023
    1UNL    C10   14   0.215  -0.019   0.106
    1UNL    C11   15   0.364  -0.030   0.097
    1UNL     O4   16   0.417  -0.068   0.198
    1UNL    C12   17   0.436   0.013  -0.022
    1UNL    C13   18   0.373   0.055  -0.141
    1UNL    C14   19   0.444   0.125  -0.235
    1UNL    C15   20   0.580   0.137  -0.236
    1UNL    C16   21   0.642   0.079  -0.130
    1UNL    C17   22   0.572   0.022  -0.018
    1UNL     N2   23   0.646  -0.030   0.083
    1UNL    C18   24  -0.027   0.041  -0.066
    1UNL     O5   25   0.067   0.113  -0.104
    1UNL    C19   26  -0.170   0.075  -0.107
    1UNL    C20   27  -0.270   0.015  -0.003
    1UNL     H1   28  -0.483   0.400  -0.038
    1UNL     H2   29  -0.458   0.377  -0.207
    1UNL     H3   30  -0.343   0.464  -0.102
    1UNL     H4   31  -0.598  -0.047  -0.053
    1UNL     H5   32  -0.356  -0.158   0.182
    1UNL     H6   33  -0.420  -0.406   0.156
    1UNL     H7   34  -0.244  -0.388   0.136
    1UNL     H8   35  -0.345  -0.420   0.005
    1UNL     H9   36  -0.240  -0.167  -0.092
    1UNL    H10   37  -0.107  -0.151   0.173
    1UNL    H11   38  -0.078  -0.270   0.056
    1UNL    H12   39   0.180  -0.111  -0.076
    1UNL    H13   40   0.155  -0.233   0.055
    1UNL    H14   41   0.191  -0.031   0.220
    1UNL    H15   42   0.178   0.081   0.081
    1UNL    H16   43   0.270   0.065  -0.146
    1UNL    H17   44   0.388   0.180  -0.312
    1UNL    H18   45   0.642   0.209  -0.286
    1UNL    H19   46   0.746   0.093  -0.123
    1UNL    H20   47   0.602  -0.054   0.168
    1UNL    H21   48   0.738   0.008   0.099
    1UNL    H22   49  -0.203   0.041  -0.207
    1UNL    H23   50  -0.189   0.179  -0.111
    1UNL    H24   51  -0.259   0.071   0.092
   0.00000   0.00000   0.00000   0.00000   0.00000   0.00000   0.00000   0.00000   0.00000
Generated with MDTraj, t= 68.0
 51
    1UNL     C1    1  -0.431   0.386  -0.131
    1UNL     O1    2  -0.370   0.280  -0.069
    1UNL     C2    3  -0.464   0.172  -0.060
    1UNL     O2    4  -0.581   0.194  -0.093
    1UNL     C3    5  -0.419   0.042  -0.020
    1UNL     C4    6  -0.509  -0.056  -0.021
    1UNL     O3    7  -0.484  -0.189   0.002
    1UNL     C5    8  -0.367  -0.207   0.083
    1UNL     C6    9  -0.360  -0.349   0.123
    1UNL     C7   10  -0.247  -0.144   0.008
    1UNL     C8   11  -0.108  -0.164   0.073
    1UNL     N1   12  -0.001  -0.084   0.003
    1UNL     C9   13   0.139  -0.128   0.018
    1UNL    C10   14   0.223  -0.020   0.099
    1UNL    C11   15   0.374  -0.037   0.095
    1UNL     O4   16   0.420  -0.113   0.174
    1UNL    C12   17   0.454   0.034  -0.010
    1UNL    C13   18   0.387   0.080  -0.117
    1UNL    C14   19   0.448   0.116  -0.234
    1UNL    C15   20   0.583   0.135  -0.238
    1UNL    C16   21   0.656   0.093  -0.128
    1UNL    C17   22   0.598   0.046  -0.011
    1UNL     N2   23   0.673  -0.006   0.090
    1UNL    C18   24  -0.030   0.029  -0.079
    1UNL     O5   25   0.067   0.080  -0.135
    1UNL    C19   26  -0.168   0.084  -0.086
    1UNL    C20   27  -0.274   0.011   0.009
    1UNL     H1   28  -0.531   0.375  -0.141
    1UNL     H2   29  -0.385   0.403  -0.230
    1UNL     H3   30  -0.420   0.469  -0.071
    1UNL     H4   31  -0.612  -0.023  -0.036
    1UNL     H5   32  -0.383  -0.152   0.166
    1UNL     H6   33  -0.454  -0.391   0.163
    1UNL     H7   34  -0.274  -0.364   0.186
    1UNL     H8   35  -0.343  -0.427   0.051
    1UNL     H9   36  -0.240  -0.197  -0.085
    1UNL    H10   37  -0.109  -0.160   0.184
    1UNL    H11   38  -0.085  -0.271   0.057
    1UNL    H12   39   0.184  -0.161  -0.073
    1UNL    H13   40   0.124  -0.219   0.086
    1UNL    H14   41   0.201  -0.034   0.212
    1UNL    H15   42   0.194   0.085   0.086
    1UNL    H16   43   0.274   0.070  -0.117
    1UNL    H17   44   0.391   0.125  -0.323
    1UNL    H18   45   0.626   0.169  -0.332
    1UNL    H19   46   0.768   0.112  -0.120
    1UNL    H20   47   0.633  -0.053   0.167
    1UNL    H21   48   0.766  -0.025   0.066
    1UNL    H22   49  -0.207   0.062  -0.187
    1UNL    H23   50  -0.173   0.188  -0.076
    1UNL    H24   51  -0.259   0.047   0.114
   0.00000   0.00000   0.00000   0.00000   0.00000   0.00000   0.00000   0.00000   0.00000
Generated with MDTraj, t= 69.0
 51
    1UNL     C1    1  -0.417   0.396  -0.104
    1UNL     O1    2  -0.358   0.274  -0.086
    1UNL     C2    3  -0.455   0.175  -0.083
    1UNL     O2    4  -0.571   0.197  -0.113
    1UNL     C3    5  -0.415   0.039  -0.043
    1UNL     C4    6  -0.504  -0.061  -0.013
    1UNL     O3    7  -0.488  -0.185   0.035
    1UNL     C5    8  -0.357  -0.210   0.098
    1UNL     C6    9  -0.324  -0.360   0.116
    1UNL     C7   10  -0.244  -0.138   0.018
    1UNL     C8   11  -0.111  -0.157   0.091
    1UNL     N1   12  -0.005  -0.077   0.032
    1UNL     C9   13   0.128  -0.130   0.035
    1UNL    C10   14   0.215  -0.021   0.095
    1UNL    C11   15   0.356  -0.051   0.070
    1UNL     O4   16   0.405  -0.132   0.141
    1UNL    C12   17   0.437   0.020  -0.031
    1UNL    C13   18   0.382   0.084  -0.138
    1UNL    C14   19   0.458   0.155  -0.232
    1UNL    C15   20   0.595   0.148  -0.224
    1UNL    C16   21   0.651   0.094  -0.114
    1UNL    C17   22   0.573   0.027  -0.016
    1UNL     N2   23   0.642   0.006   0.103
    1UNL    C18   24  -0.026   0.027  -0.065
    1UNL     O5   25   0.067   0.071  -0.132
    1UNL    C19   26  -0.162   0.068  -0.101
    1UNL    C20   27  -0.271   0.012  -0.003
    1UNL     H1   28  -0.521   0.392  -0.103
    1UNL     H2   29  -0.385   0.447  -0.202
    1UNL     H3   30  -0.392   0.456  -0.024
    1UNL     H4   31  -0.606  -0.031  -0.041
    1UNL     H5   32  -0.364  -0.166   0.190
    1UNL     H6   33  -0.412  -0.417   0.146
    1UNL     H7   34  -0.237  -0.367   0.189
    1UNL     H8   35  -0.295  -0.412   0.035
    1UNL     H9   36  -0.233  -0.185  -0.076
    1UNL    H10   37  -0.134  -0.122   0.194
    1UNL    H11   38  -0.086  -0.263   0.109
    1UNL    H12   39   0.158  -0.158  -0.063
    1UNL    H13   40   0.122  -0.221   0.102
    1UNL    H14   41   0.199   0.003   0.204
    1UNL    H15   42   0.188   0.077   0.050
    1UNL    H16   43   0.277   0.079  -0.147
    1UNL    H17   44   0.410   0.184  -0.327
    1UNL    H18   45   0.646   0.185  -0.311
    1UNL    H19   46   0.753   0.095  -0.110
    1UNL    H20   47   0.604  -0.048   0.176
    1UNL    H21   48   0.740  -0.014   0.102
    1UNL    H22   49  -0.186   0.041  -0.207
    1UNL    H23   50  -0.167   0.173  -0.101
    1UNL    H24   51  -0.258   0.082   0.084
   0.00000   0.00000   0.00000   0.00000   0.00000   0.00000   0.00000   0.00000   0.00000
Generated with MDTraj, t= 70.0
 51
    1UNL     C1    1  -0.401   0.385  -0.121
    1UNL     O1    2  -0.357   0.268  -0.063
    1UNL     C2    3  -0.454   0.172  -0.082
    1UNL     O2    4  -0.564   0.198  -0.130
    1UNL     C3    5  -0.419   0.038  -0.044
    1UNL     C4    6  -0.511  -0.060  -0.031
    1UNL     O3    7  -0.503  -0.175   0.040
    1UNL     C5    8  -0.375  -0.205   0.113
    1UNL     C6    9  -0.361  -0.360   0.125
    1UNL     C7   10  -0.249  -0.142   0.032
    1UNL     C8   11  -0.110  -0.148   0.098
    1UNL     N1   12  -0.007  -0.082   0.021
    1UNL     C9   13   0.135  -0.121   0.033
    1UNL    C10   14   0.228  -0.022   0.096
    1UNL    C11   15   0.372  -0.054   0.071
    1UNL     O4   16   0.424  -0.138   0.142
    1UNL    C12   17   0.447   0.024  -0.029
    1UNL    C13   18   0.388   0.070  -0.147
    1UNL    C14   19   0.460   0.148  -0.232
    1UNL    C15   20   0.592   0.180  -0.211
    1UNL    C16   21   0.650   0.131  -0.099
    1UNL    C17   22   0.587   0.040  -0.010
    1UNL     N2   23   0.662  -0.022   0.082
    1UNL    C18   24  -0.036   0.023  -0.071
    1UNL     O5   25   0.053   0.081  -0.133
    1UNL    C19   26  -0.176   0.053  -0.103
    1UNL    C20   27  -0.278   0.006   0.005
    1UNL     H1   28  -0.503   0.402  -0.082
    1UNL     H2   29  -0.405   0.375  -0.237
    1UNL     H3   30  -0.338   0.469  -0.094
    1UNL     H4   31  -0.612  -0.043  -0.067
    1UNL     H5   32  -0.378  -0.161   0.205
    1UNL     H6   33  -0.440  -0.400   0.183
    1UNL     H7   34  -0.256  -0.377   0.164
    1UNL     H8   35  -0.373  -0.402   0.027
    1UNL     H9   36  -0.235  -0.196  -0.059
    1UNL    H10   37  -0.114  -0.114   0.204
    1UNL    H11   38  -0.078  -0.253   0.110
    1UNL    H12   39   0.161  -0.111  -0.070
    1UNL    H13   40   0.148  -0.227   0.069
    1UNL    H14   41   0.214  -0.016   0.201
    1UNL    H15   42   0.201   0.083   0.066
    1UNL    H16   43   0.292   0.027  -0.182
    1UNL    H17   44   0.407   0.186  -0.315
    1UNL    H18   45   0.659   0.224  -0.284
    1UNL    H19   46   0.761   0.145  -0.087
    1UNL    H20   47   0.621  -0.110   0.113
    1UNL    H21   48   0.763  -0.031   0.068
    1UNL    H22   49  -0.207  -0.002  -0.193
    1UNL    H23   50  -0.188   0.157  -0.128
    1UNL    H24   51  -0.267   0.070   0.096
   0.00000   0.00000   0.00000   0.00000   0.00000   0.00000   0.00000   0.00000   0.00000
Generated with MDTraj, t= 71.0
 51
    1UNL     C1    1  -0.412   0.389  -0.144
    1UNL     O1    2  -0.359   0.270  -0.084
    1UNL     C2    3  -0.453   0.169  -0.084
    1UNL     O2    4  -0.563   0.184  -0.135
    1UNL     C3    5  -0.416   0.047  -0.021
    1UNL     C4    6  -0.508  -0.050  -0.016
    1UNL     O3    7  -0.498  -0.174   0.041
    1UNL     C5    8  -0.371  -0.191   0.111
    1UNL     C6    9  -0.353  -0.338   0.142
    1UNL     C7   10  -0.253  -0.137   0.025
    1UNL     C8   11  -0.114  -0.186   0.058
    1UNL     N1   12  -0.003  -0.110  -0.007
    1UNL     C9   13   0.140  -0.143   0.034
    1UNL    C10   14   0.227  -0.035   0.090
    1UNL    C11   15   0.374  -0.054   0.072
    1UNL     O4   16   0.423  -0.144   0.140
    1UNL    C12   17   0.442   0.036  -0.020
    1UNL    C13   18   0.374   0.099  -0.123
    1UNL    C14   19   0.441   0.182  -0.209
    1UNL    C15   20   0.582   0.183  -0.210
    1UNL    C16   21   0.656   0.104  -0.123
    1UNL    C17   22   0.587   0.035  -0.023
    1UNL     N2   23   0.652  -0.021   0.086
    1UNL    C18   24  -0.027   0.009  -0.072
    1UNL     O5   25   0.064   0.069  -0.124
    1UNL    C19   26  -0.162   0.071  -0.083
    1UNL    C20   27  -0.266   0.018   0.020
    1UNL     H1   28  -0.456   0.451  -0.055
    1UNL     H2   29  -0.496   0.359  -0.214
    1UNL     H3   30  -0.331   0.447  -0.199
    1UNL     H4   31  -0.609  -0.037  -0.046
    1UNL     H5   32  -0.378  -0.133   0.196
    1UNL     H6   33  -0.444  -0.362   0.184
    1UNL     H7   34  -0.270  -0.338   0.215
    1UNL     H8   35  -0.334  -0.400   0.045
    1UNL     H9   36  -0.266  -0.178  -0.072
    1UNL    H10   37  -0.098  -0.174   0.169
    1UNL    H11   38  -0.095  -0.295   0.050
    1UNL    H12   39   0.193  -0.189  -0.045
    1UNL    H13   40   0.124  -0.211   0.122
    1UNL    H14   41   0.205  -0.032   0.192
    1UNL    H15   42   0.198   0.068   0.059
    1UNL    H16   43   0.269   0.087  -0.137
    1UNL    H17   44   0.393   0.260  -0.273
    1UNL    H18   45   0.631   0.252  -0.279
    1UNL    H19   46   0.763   0.115  -0.118
    1UNL    H20   47   0.591  -0.062   0.161
    1UNL    H21   48   0.752  -0.021   0.109
    1UNL    H22   49  -0.205   0.060  -0.183
    1UNL    H23   50  -0.156   0.179  -0.069
    1UNL    H24   51  -0.260   0.061   0.124
   0.00000   0.00000   0.00000   0.00000   0.00000   0.00000   0.00000   0.00000   0.00000
Generated with MDTraj, t= 72.0
 51
    1UNL     C1    1  -0.399   0.380  -0.160
    1UNL     O1    2  -0.345   0.255  -0.125
    1UNL     C2    3  -0.443   0.174  -0.085
    1UNL     O2    4  -0.561   0.195  -0.107
    1UNL     C3    5  -0.412   0.046  -0.022
    1UNL     C4    6  -0.508  -0.040   0.015
    1UNL     O3    7  -0.488  -0.168   0.059
    1UNL     C5    8  -0.351  -0.192   0.117
    1UNL     C6    9  -0.343  -0.348   0.142
    1UNL     C7   10  -0.243  -0.139   0.017
    1UNL     C8   11  -0.104  -0.168   0.065
    1UNL     N1   12   0.002  -0.103  -0.020
    1UNL     C9   13   0.143  -0.137   0.003
    1UNL    C10   14   0.219  -0.043   0.102
    1UNL    C11   15   0.366  -0.052   0.093
    1UNL     O4   16   0.420  -0.150   0.145
    1UNL    C12   17   0.434   0.029  -0.010
    1UNL    C13   18   0.360   0.108  -0.107
    1UNL    C14   19   0.427   0.182  -0.201
    1UNL    C15   20   0.564   0.188  -0.202
    1UNL    C16   21   0.635   0.116  -0.111
    1UNL    C17   22   0.569   0.033  -0.019
    1UNL     N2   23   0.643  -0.051   0.066
    1UNL    C18   24  -0.023   0.015  -0.080
    1UNL     O5   25   0.060   0.098  -0.108
    1UNL    C19   26  -0.166   0.051  -0.113
    1UNL    C20   27  -0.263   0.009  -0.003
    1UNL     H1   28  -0.492   0.400  -0.090
    1UNL     H2   29  -0.428   0.372  -0.267
    1UNL     H3   30  -0.312   0.457  -0.143
    1UNL     H4   31  -0.607  -0.005  -0.010
    1UNL     H5   32  -0.351  -0.130   0.199
    1UNL     H6   33  -0.422  -0.377   0.208
    1UNL     H7   34  -0.248  -0.373   0.186
    1UNL     H8   35  -0.359  -0.407   0.044
    1UNL     H9   36  -0.249  -0.189  -0.076
    1UNL    H10   37  -0.087  -0.139   0.173
    1UNL    H11   38  -0.079  -0.276   0.077
    1UNL    H12   39   0.185  -0.126  -0.093
    1UNL    H13   40   0.147  -0.240   0.046
    1UNL    H14   41   0.194  -0.057   0.203
    1UNL    H15   42   0.188   0.059   0.084
    1UNL    H16   43   0.255   0.114  -0.097
    1UNL    H17   44   0.370   0.234  -0.273
    1UNL    H18   45   0.609   0.264  -0.261
    1UNL    H19   46   0.738   0.126  -0.093
    1UNL    H20   47   0.602  -0.110   0.144
    1UNL    H21   48   0.745  -0.049   0.072
    1UNL    H22   49  -0.201   0.009  -0.206
    1UNL    H23   50  -0.170   0.161  -0.122
    1UNL    H24   51  -0.242   0.064   0.094
   0.00000   0.00000   0.00000   0.00000   0.00000   0.00000   0.00000   0.00000   0.00000
Generated with MDTraj, t= 73.0
 51
    1UNL     C1    1  -0.403   0.366  -0.193
    1UNL     O1    2  -0.350   0.255  -0.118
    1UNL     C2    3  -0.452   0.174  -0.079
    1UNL     O2    4  -0.568   0.214  -0.089
    1UNL     C3    5  -0.414   0.041  -0.029
    1UNL     C4    6  -0.508  -0.042   0.020
    1UNL     O3    7  -0.488  -0.159   0.085
    1UNL     C5    8  -0.352  -0.198   0.114
    1UNL     C6    9  -0.339  -0.345   0.144
    1UNL     C7   10  -0.247  -0.147   0.012
    1UNL     C8   11  -0.100  -0.166   0.054
    1UNL     N1   12   0.004  -0.084  -0.014
    1UNL     C9   13   0.148  -0.124  -0.010
    1UNL    C10   14   0.221  -0.069   0.110
    1UNL    C11   15   0.371  -0.074   0.085
    1UNL     O4   16   0.443  -0.136   0.161
    1UNL    C12   17   0.431   0.014  -0.012
    1UNL    C13   18   0.364   0.111  -0.086
    1UNL    C14   19   0.419   0.194  -0.181
    1UNL    C15   20   0.558   0.199  -0.183
    1UNL    C16   21   0.634   0.118  -0.100
    1UNL    C17   22   0.574   0.027  -0.016
    1UNL     N2   23   0.648  -0.063   0.056
    1UNL    C18   24  -0.027   0.021  -0.095
    1UNL     O5   25   0.055   0.093  -0.146
    1UNL    C19   26  -0.174   0.060  -0.123
    1UNL    C20   27  -0.267   0.004  -0.010
    1UNL     H1   28  -0.497   0.404  -0.138
    1UNL     H2   29  -0.423   0.324  -0.288
    1UNL     H3   30  -0.317   0.443  -0.205
    1UNL     H4   31  -0.606   0.007   0.010
    1UNL     H5   32  -0.337  -0.138   0.199
    1UNL     H6   33  -0.388  -0.385   0.239
    1UNL     H7   34  -0.234  -0.362   0.160
    1UNL     H8   35  -0.367  -0.420   0.069
    1UNL     H9   36  -0.258  -0.205  -0.076
    1UNL    H10   37  -0.078  -0.167   0.164
    1UNL    H11   38  -0.064  -0.267   0.027
    1UNL    H12   39   0.191  -0.071  -0.090
    1UNL    H13   40   0.156  -0.235  -0.013
    1UNL    H14   41   0.200  -0.133   0.192
    1UNL    H15   42   0.200   0.029   0.142
    1UNL    H16   43   0.253   0.112  -0.087
    1UNL    H17   44   0.360   0.255  -0.253
    1UNL    H18   45   0.615   0.257  -0.257
    1UNL    H19   46   0.747   0.118  -0.111
    1UNL    H20   47   0.613  -0.127   0.129
    1UNL    H21   48   0.745  -0.035   0.075
    1UNL    H22   49  -0.204   0.025  -0.219
    1UNL    H23   50  -0.190   0.172  -0.123
    1UNL    H24   51  -0.239   0.060   0.085
   0.00000   0.00000   0.00000   0.00000   0.00000   0.00000   0.00000   0.00000   0.00000
Generated with MDTraj, t= 74.0
 51
    1UNL     C1    1  -0.444   0.375  -0.193
    1UNL     O1    2  -0.365   0.271  -0.132
    1UNL     C2    3  -0.446   0.173  -0.082
    1UNL     O2    4  -0.567   0.193  -0.096
    1UNL     C3    5  -0.398   0.053  -0.020
    1UNL     C4    6  -0.491  -0.032   0.027
    1UNL     O3    7  -0.478  -0.153   0.091
    1UNL     C5    8  -0.337  -0.185   0.127
    1UNL     C6    9  -0.321  -0.336   0.144
    1UNL     C7   10  -0.244  -0.135   0.019
    1UNL     C8   11  -0.099  -0.179   0.039
    1UNL     N1   12   0.008  -0.110  -0.038
    1UNL     C9   13   0.150  -0.147  -0.017
    1UNL    C10   14   0.207  -0.052   0.086
    1UNL    C11   15   0.356  -0.069   0.077
    1UNL     O4   16   0.408  -0.145   0.155
    1UNL    C12   17   0.431   0.023  -0.005
    1UNL    C13   18   0.359   0.120  -0.078
    1UNL    C14   19   0.423   0.208  -0.157
    1UNL    C15   20   0.558   0.205  -0.175
    1UNL    C16   21   0.636   0.114  -0.098
    1UNL    C17   22   0.571   0.023  -0.008
    1UNL     N2   23   0.653  -0.068   0.060
    1UNL    C18   24  -0.021   0.005  -0.104
    1UNL     O5   25   0.067   0.065  -0.159
    1UNL    C19   26  -0.163   0.063  -0.107
    1UNL    C20   27  -0.255   0.016   0.009
    1UNL     H1   28  -0.464   0.447  -0.113
    1UNL     H2   29  -0.526   0.330  -0.236
    1UNL     H3   30  -0.375   0.406  -0.273
    1UNL     H4   31  -0.595  -0.002   0.014
    1UNL     H5   32  -0.316  -0.132   0.216
    1UNL     H6   33  -0.419  -0.388   0.179
    1UNL     H7   34  -0.245  -0.365   0.220
    1UNL     H8   35  -0.296  -0.387   0.059
    1UNL     H9   36  -0.280  -0.182  -0.069
    1UNL    H10   37  -0.073  -0.166   0.147
    1UNL    H11   38  -0.085  -0.288   0.030
    1UNL    H12   39   0.193  -0.127  -0.111
    1UNL    H13   40   0.160  -0.246   0.034
    1UNL    H14   41   0.179  -0.078   0.186
    1UNL    H15   42   0.177   0.044   0.068
    1UNL    H16   43   0.254   0.125  -0.087
    1UNL    H17   44   0.365   0.275  -0.216
    1UNL    H18   45   0.610   0.264  -0.245
    1UNL    H19   46   0.737   0.107  -0.117
    1UNL    H20   47   0.615  -0.136   0.124
    1UNL    H21   48   0.753  -0.071   0.048
    1UNL    H22   49  -0.224   0.054  -0.195
    1UNL    H23   50  -0.149   0.173  -0.090
    1UNL    H24   51  -0.234   0.073   0.107
   0.00000   0.00000   0.00000   0.00000   0.00000   0.00000   0.00000   0.00000   0.00000
Generated with MDTraj, t= 75.0
 51
    1UNL     C1    1  -0.410   0.367  -0.177
    1UNL     O1    2  -0.348   0.246  -0.131
    1UNL     C2    3  -0.447   0.163  -0.080
    1UNL     O2    4  -0.564   0.193  -0.098
    1UNL     C3    5  -0.408   0.042  -0.017
    1UNL     C4    6  -0.505  -0.034   0.036
    1UNL     O3    7  -0.487  -0.150   0.107
    1UNL     C5    8  -0.340  -0.178   0.137
    1UNL     C6    9  -0.330  -0.334   0.164
    1UNL     C7   10  -0.243  -0.141   0.022
    1UNL     C8   11  -0.092  -0.164   0.053
    1UNL     N1   12  -0.002  -0.103  -0.045
    1UNL     C9   13   0.142  -0.144  -0.050
    1UNL    C10   14   0.205  -0.054   0.062
    1UNL    C11   15   0.354  -0.064   0.075
    1UNL     O4   16   0.403  -0.154   0.136
    1UNL    C12   17   0.434   0.028  -0.005
    1UNL    C13   18   0.366   0.109  -0.094
    1UNL    C14   19   0.442   0.198  -0.168
    1UNL    C15   20   0.577   0.211  -0.160
    1UNL    C16   21   0.638   0.124  -0.078
    1UNL    C17   22   0.576   0.029   0.000
    1UNL     N2   23   0.650  -0.064   0.080
    1UNL    C18   24  -0.031   0.013  -0.115
    1UNL     O5   25   0.051   0.096  -0.147
    1UNL    C19   26  -0.175   0.045  -0.136
    1UNL    C20   27  -0.255   0.011  -0.004
    1UNL     H1   28  -0.477   0.391  -0.100
    1UNL     H2   29  -0.452   0.343  -0.270
    1UNL     H3   30  -0.330   0.433  -0.189
    1UNL     H4   31  -0.609  -0.010   0.028
    1UNL     H5   32  -0.315  -0.128   0.229
    1UNL     H6   33  -0.365  -0.360   0.268
    1UNL     H7   34  -0.223  -0.366   0.154
    1UNL     H8   35  -0.389  -0.382   0.091
    1UNL     H9   36  -0.267  -0.198  -0.063
    1UNL    H10   37  -0.071  -0.140   0.159
    1UNL    H11   38  -0.070  -0.271   0.045
    1UNL    H12   39   0.184  -0.115  -0.142
    1UNL    H13   40   0.137  -0.250  -0.019
    1UNL    H14   41   0.158  -0.065   0.156
    1UNL    H15   42   0.189   0.044   0.033
    1UNL    H16   43   0.261   0.097  -0.112
    1UNL    H17   44   0.384   0.269  -0.230
    1UNL    H18   45   0.623   0.301  -0.205
    1UNL    H19   46   0.746   0.141  -0.057
    1UNL    H20   47   0.595  -0.138   0.118
    1UNL    H21   48   0.742  -0.088   0.053
    1UNL    H22   49  -0.218  -0.000  -0.225
    1UNL    H23   50  -0.192   0.154  -0.154
    1UNL    H24   51  -0.217   0.078   0.080
   0.00000   0.00000   0.00000   0.00000   0.00000   0.00000   0.00000   0.00000   0.00000
Generated with MDTraj, t= 76.0
 51
    1UNL     C1    1  -0.408   0.363  -0.180
    1UNL     O1    2  -0.355   0.254  -0.102
    1UNL     C2    3  -0.455   0.167  -0.075
    1UNL     O2    4  -0.571   0.196  -0.098
    1UNL     C3    5  -0.417   0.042  -0.013
    1UNL     C4    6  -0.510  -0.034   0.042
    1UNL     O3    7  -0.485  -0.146   0.103
    1UNL     C5    8  -0.346  -0.177   0.133
    1UNL     C6    9  -0.324  -0.326   0.181
    1UNL     C7   10  -0.259  -0.143   0.016
    1UNL     C8   11  -0.113  -0.185   0.025
    1UNL     N1   12  -0.006  -0.087  -0.021
    1UNL     C9   13   0.132  -0.134  -0.027
    1UNL    C10   14   0.214  -0.055   0.064
    1UNL    C11   15   0.367  -0.075   0.054
    1UNL     O4   16   0.423  -0.169   0.106
    1UNL    C12   17   0.443   0.035  -0.016
    1UNL    C13   18   0.386   0.108  -0.118
    1UNL    C14   19   0.461   0.204  -0.181
    1UNL    C15   20   0.594   0.210  -0.149
    1UNL    C16   21   0.656   0.123  -0.065
    1UNL    C17   22   0.581   0.037   0.010
    1UNL     N2   23   0.631  -0.043   0.110
    1UNL    C18   24  -0.035   0.013  -0.116
    1UNL     O5   25   0.049   0.079  -0.176
    1UNL    C19   26  -0.183   0.034  -0.140
    1UNL    C20   27  -0.268   0.005  -0.010
    1UNL     H1   28  -0.489   0.397  -0.125
    1UNL     H2   29  -0.437   0.318  -0.274
    1UNL     H3   30  -0.331   0.429  -0.194
    1UNL     H4   31  -0.606   0.012   0.059
    1UNL     H5   32  -0.329  -0.117   0.222
    1UNL     H6   33  -0.394  -0.349   0.257
    1UNL     H7   34  -0.226  -0.316   0.235
    1UNL     H8   35  -0.316  -0.400   0.094
    1UNL     H9   36  -0.296  -0.195  -0.068
    1UNL    H10   37  -0.093  -0.209   0.130
    1UNL    H11   38  -0.099  -0.283  -0.022
    1UNL    H12   39   0.162  -0.117  -0.127
    1UNL    H13   40   0.133  -0.238   0.009
    1UNL    H14   41   0.184  -0.084   0.161
    1UNL    H15   42   0.185   0.048   0.069
    1UNL    H16   43   0.280   0.092  -0.131
    1UNL    H17   44   0.427   0.272  -0.258
    1UNL    H18   45   0.648   0.291  -0.192
    1UNL    H19   46   0.760   0.136  -0.046
    1UNL    H20   47   0.576  -0.106   0.159
    1UNL    H21   48   0.726  -0.053   0.140
    1UNL    H22   49  -0.230  -0.020  -0.225
    1UNL    H23   50  -0.189   0.138  -0.175
    1UNL    H24   51  -0.216   0.071   0.068
   0.00000   0.00000   0.00000   0.00000   0.00000   0.00000   0.00000   0.00000   0.00000
Generated with MDTraj, t= 77.0
 51
    1UNL     C1    1  -0.438   0.384  -0.165
    1UNL     O1    2  -0.368   0.269  -0.125
    1UNL     C2    3  -0.450   0.176  -0.076
    1UNL     O2    4  -0.570   0.196  -0.092
    1UNL     C3    5  -0.409   0.046  -0.016
    1UNL     C4    6  -0.506  -0.032   0.040
    1UNL     O3    7  -0.490  -0.152   0.098
    1UNL     C5    8  -0.345  -0.181   0.137
    1UNL     C6    9  -0.336  -0.330   0.180
    1UNL     C7   10  -0.247  -0.140   0.023
    1UNL     C8   11  -0.106  -0.182   0.052
    1UNL     N1   12  -0.003  -0.122  -0.038
    1UNL     C9   13   0.139  -0.158  -0.028
    1UNL    C10   14   0.212  -0.050   0.048
    1UNL    C11   15   0.362  -0.065   0.043
    1UNL     O4   16   0.411  -0.167   0.084
    1UNL    C12   17   0.443   0.036  -0.023
    1UNL    C13   18   0.390   0.107  -0.132
    1UNL    C14   19   0.474   0.191  -0.193
    1UNL    C15   20   0.604   0.207  -0.150
    1UNL    C16   21   0.656   0.139  -0.042
    1UNL    C17   22   0.572   0.050   0.031
    1UNL     N2   23   0.628  -0.030   0.122
    1UNL    C18   24  -0.034  -0.009  -0.119
    1UNL     O5   25   0.054   0.048  -0.181
    1UNL    C19   26  -0.169   0.056  -0.112
    1UNL    C20   27  -0.262   0.012   0.003
    1UNL     H1   28  -0.484   0.422  -0.080
    1UNL     H2   29  -0.512   0.352  -0.244
    1UNL     H3   30  -0.359   0.443  -0.203
    1UNL     H4   31  -0.607  -0.003   0.008
    1UNL     H5   32  -0.330  -0.116   0.224
    1UNL     H6   33  -0.411  -0.349   0.250
    1UNL     H7   34  -0.244  -0.369   0.228
    1UNL     H8   35  -0.359  -0.398   0.085
    1UNL     H9   36  -0.270  -0.195  -0.065
    1UNL    H10   37  -0.075  -0.181   0.156
    1UNL    H11   38  -0.092  -0.288   0.028
    1UNL    H12   39   0.176  -0.156  -0.125
    1UNL    H13   40   0.141  -0.259   0.019
    1UNL    H14   41   0.183  -0.046   0.148
    1UNL    H15   42   0.172   0.049   0.021
    1UNL    H16   43   0.301   0.072  -0.182
    1UNL    H17   44   0.442   0.243  -0.282
    1UNL    H18   45   0.671   0.269  -0.209
    1UNL    H19   46   0.760   0.150  -0.019
    1UNL    H20   47   0.584  -0.113   0.153
    1UNL    H21   48   0.716  -0.012   0.168
    1UNL    H22   49  -0.218   0.045  -0.213
    1UNL    H23   50  -0.163   0.164  -0.112
    1UNL    H24   51  -0.227   0.074   0.093
   0.00000   0.00000   0.00000   0.00000   0.00000   0.00000   0.00000   0.00000   0.00000
Generated with MDTraj, t= 78.0
 51
    1UNL     C1    1  -0.405   0.383  -0.167
    1UNL     O1    2  -0.354   0.261  -0.109
    1UNL     C2    3  -0.455   0.173  -0.071
    1UNL     O2    4  -0.571   0.215  -0.087
    1UNL     C3    5  -0.413   0.046  -0.015
    1UNL     C4    6  -0.505  -0.041   0.032
    1UNL     O3    7  -0.480  -0.155   0.103
    1UNL     C5    8  -0.347  -0.191   0.138
    1UNL     C6    9  -0.338  -0.339   0.152
    1UNL     C7   10  -0.248  -0.140   0.035
    1UNL     C8   11  -0.102  -0.151   0.067
    1UNL     N1   12  -0.004  -0.114  -0.042
    1UNL     C9   13   0.137  -0.149  -0.030
    1UNL    C10   14   0.219  -0.045   0.035
    1UNL    C11   15   0.363  -0.079   0.040
    1UNL     O4   16   0.410  -0.177   0.093
    1UNL    C12   17   0.447   0.015  -0.030
    1UNL    C13   18   0.400   0.080  -0.141
    1UNL    C14   19   0.465   0.187  -0.195
    1UNL    C15   20   0.594   0.218  -0.152
    1UNL    C16   21   0.642   0.155  -0.044
    1UNL    C17   22   0.578   0.045   0.022
    1UNL     N2   23   0.627  -0.016   0.140
    1UNL    C18   24  -0.045  -0.005  -0.118
    1UNL     O5   25   0.046   0.055  -0.171
    1UNL    C19   26  -0.184   0.038  -0.130
    1UNL    C20   27  -0.270   0.010  -0.002
    1UNL     H1   28  -0.456   0.437  -0.090
    1UNL     H2   29  -0.480   0.350  -0.254
    1UNL     H3   30  -0.319   0.438  -0.206
    1UNL     H4   31  -0.610  -0.009   0.042
    1UNL     H5   32  -0.331  -0.132   0.230
    1UNL     H6   33  -0.388  -0.378   0.242
    1UNL     H7   34  -0.235  -0.372   0.174
    1UNL     H8   35  -0.372  -0.399   0.064
    1UNL     H9   36  -0.258  -0.203  -0.050
    1UNL    H10   37  -0.082  -0.086   0.151
    1UNL    H11   38  -0.063  -0.245   0.103
    1UNL    H12   39   0.170  -0.172  -0.127
    1UNL    H13   40   0.137  -0.242   0.029
    1UNL    H14   41   0.178  -0.009   0.124
    1UNL    H15   42   0.212   0.051  -0.020
    1UNL    H16   43   0.300   0.061  -0.183
    1UNL    H17   44   0.418   0.222  -0.287
    1UNL    H18   45   0.648   0.298  -0.201
    1UNL    H19   46   0.746   0.181  -0.011
    1UNL    H20   47   0.571  -0.080   0.200
    1UNL    H21   48   0.682   0.052   0.190
    1UNL    H22   49  -0.244  -0.002  -0.219
    1UNL    H23   50  -0.178   0.143  -0.154
    1UNL    H24   51  -0.240   0.074   0.088
   0.00000   0.00000   0.00000   0.00000   0.00000   0.00000   0.00000   0.00000   0.00000
Generated with MDTraj, t= 79.0
 51
    1UNL     C1    1  -0.393   0.373  -0.163
    1UNL     O1    2  -0.346   0.257  -0.105
    1UNL     C2    3  -0.448   0.178  -0.062
    1UNL     O2    4  -0.565   0.207  -0.083
    1UNL     C3    5  -0.407   0.053  -0.003
    1UNL     C4    6  -0.505  -0.032   0.033
    1UNL     O3    7  -0.492  -0.155   0.093
    1UNL     C5    8  -0.353  -0.189   0.131
    1UNL     C6    9  -0.344  -0.345   0.166
    1UNL     C7   10  -0.253  -0.144   0.014
    1UNL     C8   11  -0.106  -0.183   0.033
    1UNL     N1   12  -0.002  -0.098  -0.024
    1UNL     C9   13   0.142  -0.121  -0.021
    1UNL    C10   14   0.222  -0.050   0.090
    1UNL    C11   15   0.364  -0.073   0.055
    1UNL     O4   16   0.424  -0.173   0.089
    1UNL    C12   17   0.441   0.024  -0.019
    1UNL    C13   18   0.390   0.085  -0.135
    1UNL    C14   19   0.472   0.165  -0.217
    1UNL    C15   20   0.588   0.211  -0.161
    1UNL    C16   21   0.645   0.159  -0.046
    1UNL    C17   22   0.570   0.059   0.021
    1UNL     N2   23   0.619  -0.009   0.132
    1UNL    C18   24  -0.045  -0.006  -0.122
    1UNL     O5   25   0.037   0.047  -0.195
    1UNL    C19   26  -0.189   0.044  -0.133
    1UNL    C20   27  -0.262   0.011  -0.004
    1UNL     H1   28  -0.475   0.416  -0.098
    1UNL     H2   29  -0.439   0.343  -0.267
    1UNL     H3   30  -0.306   0.448  -0.172
    1UNL     H4   31  -0.610  -0.004   0.025
    1UNL     H5   32  -0.332  -0.123   0.219
    1UNL     H6   33  -0.438  -0.386   0.222
    1UNL     H7   34  -0.258  -0.373   0.231
    1UNL     H8   35  -0.339  -0.396   0.075
    1UNL     H9   36  -0.284  -0.183  -0.080
    1UNL    H10   37  -0.092  -0.188   0.140
    1UNL    H11   38  -0.094  -0.282  -0.011
    1UNL    H12   39   0.184  -0.095  -0.115
    1UNL    H13   40   0.158  -0.229  -0.016
    1UNL    H14   41   0.210  -0.095   0.185
    1UNL    H15   42   0.185   0.053   0.110
    1UNL    H16   43   0.289   0.073  -0.163
    1UNL    H17   44   0.439   0.218  -0.304
    1UNL    H18   45   0.639   0.276  -0.230
    1UNL    H19   46   0.731   0.192  -0.001
    1UNL    H20   47   0.600  -0.113   0.148
    1UNL    H21   48   0.715  -0.000   0.162
    1UNL    H22   49  -0.243   0.011  -0.228
    1UNL    H23   50  -0.190   0.151  -0.137
    1UNL    H24   51  -0.223   0.069   0.086
   0.00000   0.00000   0.00000   0.00000   0.00000   0.00000   0.00000   0.00000   0.00000
Generated with MDTraj, t= 80.0
 51
    1UNL     C1    1  -0.410   0.385  -0.147
    1UNL     O1    2  -0.353   0.268  -0.105
    1UNL     C2    3  -0.445   0.178  -0.065
    1UNL     O2    4  -0.564   0.203  -0.076
    1UNL     C3    5  -0.404   0.048  -0.020
    1UNL     C4    6  -0.501  -0.031   0.029
    1UNL     O3    7  -0.487  -0.148   0.086
    1UNL     C5    8  -0.351  -0.182   0.122
    1UNL     C6    9  -0.345  -0.330   0.163
    1UNL     C7   10  -0.249  -0.145   0.017
    1UNL     C8   11  -0.101  -0.180   0.039
    1UNL     N1   12  -0.008  -0.140  -0.060
    1UNL     C9   13   0.130  -0.168  -0.031
    1UNL    C10   14   0.206  -0.062   0.058
    1UNL    C11   15   0.351  -0.069   0.061
    1UNL     O4   16   0.407  -0.149   0.134
    1UNL    C12   17   0.434   0.021  -0.025
    1UNL    C13   18   0.380   0.107  -0.116
    1UNL    C14   19   0.450   0.197  -0.186
    1UNL    C15   20   0.587   0.203  -0.179
    1UNL    C16   21   0.646   0.130  -0.082
    1UNL    C17   22   0.572   0.052   0.008
    1UNL     N2   23   0.627   0.009   0.127
    1UNL    C18   24  -0.026  -0.016  -0.120
    1UNL     O5   25   0.070   0.048  -0.156
    1UNL    C19   26  -0.162   0.040  -0.133
    1UNL    C20   27  -0.253   0.008  -0.006
    1UNL     H1   28  -0.476   0.430  -0.063
    1UNL     H2   29  -0.478   0.364  -0.234
    1UNL     H3   30  -0.326   0.462  -0.170
    1UNL     H4   31  -0.599   0.004   0.005
    1UNL     H5   32  -0.326  -0.127   0.218
    1UNL     H6   33  -0.407  -0.335   0.262
    1UNL     H7   34  -0.240  -0.356   0.186
    1UNL     H8   35  -0.391  -0.388   0.091
    1UNL     H9   36  -0.273  -0.195  -0.074
    1UNL    H10   37  -0.074  -0.137   0.133
    1UNL    H11   38  -0.101  -0.289   0.044
    1UNL    H12   39   0.173  -0.170  -0.129
    1UNL    H13   40   0.149  -0.271   0.004
    1UNL    H14   41   0.166  -0.074   0.160
    1UNL    H15   42   0.185   0.043   0.031
    1UNL    H16   43   0.270   0.108  -0.128
    1UNL    H17   44   0.395   0.268  -0.249
    1UNL    H18   45   0.652   0.265  -0.239
    1UNL    H19   46   0.760   0.118  -0.077
    1UNL    H20   47   0.571  -0.053   0.186
    1UNL    H21   48   0.723   0.021   0.163
    1UNL    H22   49  -0.216   0.002  -0.224
    1UNL    H23   50  -0.141   0.147  -0.139
    1UNL    H24   51  -0.206   0.053   0.086
   0.00000   0.00000   0.00000   0.00000   0.00000   0.00000   0.00000   0.00000   0.00000
Generated with MDTraj, t= 81.0
 51
    1UNL     C1    1  -0.379   0.390  -0.140
    1UNL     O1    2  -0.331   0.259  -0.114
    1UNL     C2    3  -0.429   0.173  -0.072
    1UNL     O2    4  -0.546   0.205  -0.082
    1UNL     C3    5  -0.403   0.044  -0.012
    1UNL     C4    6  -0.497  -0.046   0.025
    1UNL     O3    7  -0.479  -0.164   0.081
    1UNL     C5    8  -0.344  -0.188   0.122
    1UNL     C6    9  -0.321  -0.337   0.160
    1UNL     C7   10  -0.248  -0.147   0.010
    1UNL     C8   11  -0.102  -0.187   0.029
    1UNL     N1   12  -0.003  -0.117  -0.051
    1UNL     C9   13   0.135  -0.134  -0.016
    1UNL    C10   14   0.200  -0.034   0.085
    1UNL    C11   15   0.347  -0.051   0.094
    1UNL     O4   16   0.393  -0.131   0.172
    1UNL    C12   17   0.423   0.025  -0.001
    1UNL    C13   18   0.360   0.087  -0.113
    1UNL    C14   19   0.426   0.172  -0.198
    1UNL    C15   20   0.560   0.204  -0.182
    1UNL    C16   21   0.628   0.146  -0.075
    1UNL    C17   22   0.565   0.048   0.008
    1UNL     N2   23   0.644  -0.048   0.072
    1UNL    C18   24  -0.035  -0.001  -0.124
    1UNL     O5   25   0.051   0.071  -0.169
    1UNL    C19   26  -0.172   0.046  -0.138
    1UNL    C20   27  -0.258   0.005  -0.013
    1UNL     H1   28  -0.417   0.442  -0.043
    1UNL     H2   29  -0.468   0.387  -0.201
    1UNL     H3   30  -0.300   0.462  -0.183
    1UNL     H4   31  -0.598  -0.006   0.023
    1UNL     H5   32  -0.333  -0.126   0.217
    1UNL     H6   33  -0.393  -0.369   0.236
    1UNL     H7   34  -0.217  -0.353   0.195
    1UNL     H8   35  -0.339  -0.399   0.071
    1UNL     H9   36  -0.287  -0.192  -0.079
    1UNL    H10   37  -0.075  -0.184   0.131
    1UNL    H11   38  -0.090  -0.288  -0.011
    1UNL    H12   39   0.201  -0.156  -0.100
    1UNL    H13   40   0.136  -0.229   0.037
    1UNL    H14   41   0.164  -0.060   0.190
    1UNL    H15   42   0.171   0.067   0.054
    1UNL    H16   43   0.257   0.074  -0.133
    1UNL    H17   44   0.373   0.226  -0.271
    1UNL    H18   45   0.605   0.286  -0.233
    1UNL    H19   46   0.731   0.155  -0.083
    1UNL    H20   47   0.588  -0.110   0.126
    1UNL    H21   48   0.734  -0.083   0.035
    1UNL    H22   49  -0.215   0.008  -0.234
    1UNL    H23   50  -0.166   0.156  -0.135
    1UNL    H24   51  -0.205   0.058   0.072
   0.00000   0.00000   0.00000   0.00000   0.00000   0.00000   0.00000   0.00000   0.00000
Generated with MDTraj, t= 82.0
 51
    1UNL     C1    1  -0.372   0.378  -0.159
    1UNL     O1    2  -0.328   0.271  -0.084
    1UNL     C2    3  -0.429   0.177  -0.061
    1UNL     O2    4  -0.547   0.207  -0.079
    1UNL     C3    5  -0.397   0.039  -0.028
    1UNL     C4    6  -0.498  -0.038   0.019
    1UNL     O3    7  -0.486  -0.161   0.083
    1UNL     C5    8  -0.347  -0.198   0.114
    1UNL     C6    9  -0.337  -0.352   0.144
    1UNL     C7   10  -0.248  -0.153  -0.003
    1UNL     C8   11  -0.104  -0.188   0.023
    1UNL     N1   12  -0.001  -0.092  -0.022
    1UNL     C9   13   0.140  -0.126  -0.011
    1UNL    C10   14   0.202  -0.067   0.108
    1UNL    C11   15   0.353  -0.047   0.103
    1UNL     O4   16   0.417  -0.109   0.184
    1UNL    C12   17   0.424   0.036   0.001
    1UNL    C13   18   0.355   0.125  -0.086
    1UNL    C14   19   0.419   0.192  -0.188
    1UNL    C15   20   0.557   0.186  -0.196
    1UNL    C16   21   0.627   0.091  -0.123
    1UNL    C17   22   0.561   0.023  -0.021
    1UNL     N2   23   0.636  -0.024   0.086
    1UNL    C18   24  -0.034   0.010  -0.116
    1UNL     O5   25   0.055   0.067  -0.175
    1UNL    C19   26  -0.177   0.037  -0.141
    1UNL    C20   27  -0.256  -0.003  -0.021
    1UNL     H1   28  -0.449   0.439  -0.102
    1UNL     H2   29  -0.420   0.348  -0.244
    1UNL     H3   30  -0.288   0.447  -0.178
    1UNL     H4   31  -0.605  -0.012   0.011
    1UNL     H5   32  -0.323  -0.134   0.205
    1UNL     H6   33  -0.413  -0.389   0.202
    1UNL     H7   34  -0.246  -0.397   0.187
    1UNL     H8   35  -0.350  -0.413   0.045
    1UNL     H9   36  -0.284  -0.196  -0.094
    1UNL    H10   37  -0.080  -0.194   0.126
    1UNL    H11   38  -0.080  -0.284  -0.021
    1UNL    H12   39   0.190  -0.103  -0.107
    1UNL    H13   40   0.156  -0.235  -0.015
    1UNL    H14   41   0.187  -0.141   0.195
    1UNL    H15   42   0.160   0.032   0.130
    1UNL    H16   43   0.245   0.124  -0.082
    1UNL    H17   44   0.366   0.275  -0.238
    1UNL    H18   45   0.601   0.251  -0.271
    1UNL    H19   46   0.738   0.095  -0.129
    1UNL    H20   47   0.601  -0.086   0.156
    1UNL    H21   48   0.734  -0.033   0.074
    1UNL    H22   49  -0.221  -0.013  -0.228
    1UNL    H23   50  -0.184   0.149  -0.151
    1UNL    H24   51  -0.219   0.053   0.070
   0.00000   0.00000   0.00000   0.00000   0.00000   0.00000   0.00000   0.00000   0.00000
Generated with MDTraj, t= 83.0
 51
    1UNL     C1    1  -0.387   0.391  -0.143
    1UNL     O1    2  -0.343   0.267  -0.110
    1UNL     C2    3  -0.439   0.175  -0.073
    1UNL     O2    4  -0.558   0.206  -0.077
    1UNL     C3    5  -0.392   0.045  -0.028
    1UNL     C4    6  -0.492  -0.039   0.007
    1UNL     O3    7  -0.480  -0.158   0.077
    1UNL     C5    8  -0.348  -0.208   0.100
    1UNL     C6    9  -0.346  -0.355   0.112
    1UNL     C7   10  -0.241  -0.155   0.007
    1UNL     C8   11  -0.093  -0.181   0.049
    1UNL     N1   12   0.009  -0.109  -0.028
    1UNL     C9   13   0.147  -0.144  -0.004
    1UNL    C10   14   0.196  -0.054   0.101
    1UNL    C11   15   0.345  -0.037   0.104
    1UNL     O4   16   0.403  -0.100   0.189
    1UNL    C12   17   0.418   0.049   0.005
    1UNL    C13   18   0.350   0.117  -0.089
    1UNL    C14   19   0.407   0.182  -0.195
    1UNL    C15   20   0.542   0.162  -0.216
    1UNL    C16   21   0.619   0.102  -0.119
    1UNL    C17   22   0.559   0.036  -0.013
    1UNL     N2   23   0.639  -0.046   0.066
    1UNL    C18   24  -0.012   0.008  -0.100
    1UNL     O5   25   0.078   0.073  -0.151
    1UNL    C19   26  -0.151   0.057  -0.116
    1UNL    C20   27  -0.248   0.003  -0.004
    1UNL     H1   28  -0.465   0.427  -0.078
    1UNL     H2   29  -0.427   0.394  -0.237
    1UNL     H3   30  -0.306   0.457  -0.135
    1UNL     H4   31  -0.597  -0.008   0.009
    1UNL     H5   32  -0.325  -0.164   0.203
    1UNL     H6   33  -0.417  -0.389   0.180
    1UNL     H7   34  -0.248  -0.385   0.153
    1UNL     H8   35  -0.359  -0.416   0.015
    1UNL     H9   36  -0.254  -0.201  -0.089
    1UNL    H10   37  -0.084  -0.141   0.146
    1UNL    H11   38  -0.052  -0.282   0.045
    1UNL    H12   39   0.203  -0.112  -0.093
    1UNL    H13   40   0.167  -0.252  -0.003
    1UNL    H14   41   0.167  -0.094   0.206
    1UNL    H15   42   0.159   0.050   0.081
    1UNL    H16   43   0.243   0.118  -0.076
    1UNL    H17   44   0.347   0.212  -0.276
    1UNL    H18   45   0.591   0.188  -0.309
    1UNL    H19   46   0.726   0.094  -0.133
    1UNL    H20   47   0.610  -0.085   0.154
    1UNL    H21   48   0.731  -0.069   0.043
    1UNL    H22   49  -0.180   0.024  -0.214
    1UNL    H23   50  -0.146   0.171  -0.127
    1UNL    H24   51  -0.223   0.050   0.096
   0.00000   0.00000   0.00000   0.00000   0.00000   0.00000   0.00000   0.00000   0.00000
Generated with MDTraj, t= 84.0
 51
    1UNL     C1    1  -0.390   0.396  -0.142
    1UNL     O1    2  -0.348   0.265  -0.106
    1UNL     C2    3  -0.449   0.180  -0.065
    1UNL     O2    4  -0.568   0.200  -0.091
    1UNL     C3    5  -0.409   0.050  -0.007
    1UNL     C4    6  -0.504  -0.045   0.011
    1UNL     O3    7  -0.486  -0.176   0.039
    1UNL     C5    8  -0.349  -0.210   0.098
    1UNL     C6    9  -0.339  -0.371   0.105
    1UNL     C7   10  -0.243  -0.145   0.013
    1UNL     C8   11  -0.097  -0.177   0.063
    1UNL     N1   12   0.011  -0.095  -0.015
    1UNL     C9   13   0.149  -0.129  -0.000
    1UNL    C10   14   0.206  -0.021   0.098
    1UNL    C11   15   0.357  -0.035   0.105
    1UNL     O4   16   0.409  -0.081   0.204
    1UNL    C12   17   0.434   0.018  -0.009
    1UNL    C13   18   0.358   0.090  -0.104
    1UNL    C14   19   0.423   0.173  -0.196
    1UNL    C15   20   0.559   0.175  -0.208
    1UNL    C16   21   0.636   0.097  -0.122
    1UNL    C17   22   0.576   0.018  -0.017
    1UNL     N2   23   0.660  -0.063   0.055
    1UNL    C18   24  -0.026   0.018  -0.091
    1UNL     O5   25   0.061   0.088  -0.144
    1UNL    C19   26  -0.175   0.052  -0.112
    1UNL    C20   27  -0.264   0.010   0.005
    1UNL     H1   28  -0.417   0.455  -0.060
    1UNL     H2   29  -0.478   0.392  -0.200
    1UNL     H3   30  -0.321   0.450  -0.195
    1UNL     H4   31  -0.603  -0.006  -0.002
    1UNL     H5   32  -0.350  -0.165   0.203
    1UNL     H6   33  -0.426  -0.413   0.161
    1UNL     H7   34  -0.244  -0.401   0.151
    1UNL     H8   35  -0.344  -0.403   0.004
    1UNL     H9   36  -0.250  -0.187  -0.087
    1UNL    H10   37  -0.081  -0.170   0.167
    1UNL    H11   38  -0.089  -0.279   0.030
    1UNL    H12   39   0.196  -0.134  -0.100
    1UNL    H13   40   0.164  -0.226   0.046
    1UNL    H14   41   0.168  -0.039   0.205
    1UNL    H15   42   0.167   0.082   0.068
    1UNL    H16   43   0.255   0.068  -0.120
    1UNL    H17   44   0.371   0.225  -0.278
    1UNL    H18   45   0.603   0.227  -0.292
    1UNL    H19   46   0.740   0.098  -0.133
    1UNL    H20   47   0.614  -0.108   0.129
    1UNL    H21   48   0.763  -0.073   0.054
    1UNL    H22   49  -0.205   0.007  -0.205
    1UNL    H23   50  -0.180   0.164  -0.137
    1UNL    H24   51  -0.220   0.060   0.096
   0.00000   0.00000   0.00000   0.00000   0.00000   0.00000   0.00000   0.00000   0.00000
Generated with MDTraj, t= 85.0
 51
    1UNL     C1    1  -0.408   0.386  -0.133
    1UNL     O1    2  -0.366   0.262  -0.078
    1UNL     C2    3  -0.467   0.169  -0.064
    1UNL     O2    4  -0.586   0.197  -0.081
    1UNL     C3    5  -0.421   0.032  -0.041
    1UNL     C4    6  -0.511  -0.064  -0.009
    1UNL     O3    7  -0.489  -0.186   0.035
    1UNL     C5    8  -0.361  -0.207   0.094
    1UNL     C6    9  -0.350  -0.358   0.120
    1UNL     C7   10  -0.253  -0.142   0.014
    1UNL     C8   11  -0.109  -0.177   0.054
    1UNL     N1   12  -0.001  -0.080   0.003
    1UNL     C9   13   0.138  -0.120   0.013
    1UNL    C10   14   0.217  -0.015   0.101
    1UNL    C11   15   0.368  -0.030   0.091
    1UNL     O4   16   0.419  -0.109   0.169
    1UNL    C12   17   0.449   0.042  -0.018
    1UNL    C13   18   0.391   0.120  -0.118
    1UNL    C14   19   0.467   0.171  -0.221
    1UNL    C15   20   0.606   0.148  -0.220
    1UNL    C16   21   0.660   0.069  -0.125
    1UNL    C17   22   0.588   0.018  -0.019
    1UNL     N2   23   0.647  -0.048   0.086
    1UNL    C18   24  -0.031   0.030  -0.077
    1UNL     O5   25   0.063   0.094  -0.128
    1UNL    C19   26  -0.175   0.067  -0.109
    1UNL    C20   27  -0.278   0.009  -0.005
    1UNL     H1   28  -0.482   0.434  -0.077
    1UNL     H2   29  -0.446   0.371  -0.234
    1UNL     H3   30  -0.331   0.455  -0.136
    1UNL     H4   31  -0.612  -0.036  -0.030
    1UNL     H5   32  -0.371  -0.158   0.199
    1UNL     H6   33  -0.425  -0.392   0.201
    1UNL     H7   34  -0.249  -0.367   0.159
    1UNL     H8   35  -0.363  -0.408   0.033
    1UNL     H9   36  -0.270  -0.187  -0.084
    1UNL    H10   37  -0.112  -0.167   0.160
    1UNL    H11   38  -0.079  -0.276   0.026
    1UNL    H12   39   0.195  -0.126  -0.083
    1UNL    H13   40   0.139  -0.217   0.058
    1UNL    H14   41   0.179  -0.028   0.209
    1UNL    H15   42   0.191   0.096   0.080
    1UNL    H16   43   0.283   0.136  -0.119
    1UNL    H17   44   0.407   0.205  -0.302
    1UNL    H18   45   0.667   0.206  -0.288
    1UNL    H19   46   0.773   0.067  -0.120
    1UNL    H20   47   0.597  -0.101   0.157
    1UNL    H21   48   0.745  -0.030   0.114
    1UNL    H22   49  -0.211   0.037  -0.208
    1UNL    H23   50  -0.183   0.178  -0.107
    1UNL    H24   51  -0.252   0.060   0.092
   0.00000   0.00000   0.00000   0.00000   0.00000   0.00000   0.00000   0.00000   0.00000
Generated with MDTraj, t= 86.0
 51
    1UNL     C1    1  -0.450   0.386  -0.105
    1UNL     O1    2  -0.383   0.275  -0.077
    1UNL     C2    3  -0.468   0.166  -0.076
    1UNL     O2    4  -0.588   0.180  -0.101
    1UNL     C3    5  -0.418   0.034  -0.040
    1UNL     C4    6  -0.506  -0.069  -0.022
    1UNL     O3    7  -0.481  -0.195   0.028
    1UNL     C5    8  -0.358  -0.209   0.104
    1UNL     C6    9  -0.337  -0.355   0.126
    1UNL     C7   10  -0.247  -0.140   0.018
    1UNL     C8   11  -0.106  -0.159   0.066
    1UNL     N1   12  -0.007  -0.072   0.001
    1UNL     C9   13   0.137  -0.109   0.029
    1UNL    C10   14   0.222  -0.005   0.094
    1UNL    C11   15   0.372  -0.039   0.070
    1UNL     O4   16   0.409  -0.127   0.147
    1UNL    C12   17   0.453   0.031  -0.030
    1UNL    C13   18   0.398   0.088  -0.144
    1UNL    C14   19   0.487   0.138  -0.239
    1UNL    C15   20   0.626   0.133  -0.216
    1UNL    C16   21   0.678   0.083  -0.102
    1UNL    C17   22   0.591   0.030  -0.007
    1UNL     N2   23   0.636  -0.049   0.094
    1UNL    C18   24  -0.039   0.042  -0.076
    1UNL     O5   25   0.051   0.117  -0.111
    1UNL    C19   26  -0.178   0.085  -0.101
    1UNL    C20   27  -0.274   0.016   0.001
    1UNL     H1   28  -0.552   0.389  -0.072
    1UNL     H2   29  -0.430   0.415  -0.215
    1UNL     H3   30  -0.397   0.459  -0.049
    1UNL     H4   31  -0.615  -0.055  -0.033
    1UNL     H5   32  -0.361  -0.153   0.206
    1UNL     H6   33  -0.432  -0.409   0.156
    1UNL     H7   34  -0.265  -0.380   0.201
    1UNL     H8   35  -0.307  -0.404   0.036
    1UNL     H9   36  -0.253  -0.184  -0.082
    1UNL    H10   37  -0.090  -0.155   0.172
    1UNL    H11   38  -0.080  -0.259   0.031
    1UNL    H12   39   0.172  -0.123  -0.077
    1UNL    H13   40   0.150  -0.202   0.079
    1UNL    H14   41   0.202   0.022   0.204
    1UNL    H15   42   0.196   0.099   0.048
    1UNL    H16   43   0.293   0.105  -0.153
    1UNL    H17   44   0.450   0.184  -0.333
    1UNL    H18   45   0.688   0.193  -0.282
    1UNL    H19   46   0.775   0.099  -0.070
    1UNL    H20   47   0.579  -0.077   0.178
    1UNL    H21   48   0.729  -0.083   0.102
    1UNL    H22   49  -0.211   0.043  -0.199
    1UNL    H23   50  -0.195   0.193  -0.095
    1UNL    H24   51  -0.260   0.067   0.100
   0.00000   0.00000   0.00000   0.00000   0.00000   0.00000   0.00000   0.00000   0.00000
Generated with MDTraj, t= 87.0
 51
    1UNL     C1    1  -0.468   0.388  -0.098
    1UNL     O1    2  -0.400   0.274  -0.049
    1UNL     C2    3  -0.482   0.163  -0.072
    1UNL     O2    4  -0.587   0.175  -0.139
    1UNL     C3    5  -0.434   0.037  -0.021
    1UNL     C4    6  -0.510  -0.074  -0.026
    1UNL     O3    7  -0.479  -0.199   0.023
    1UNL     C5    8  -0.353  -0.211   0.094
    1UNL     C6    9  -0.324  -0.358   0.121
    1UNL     C7   10  -0.246  -0.123   0.016
    1UNL     C8   11  -0.108  -0.138   0.074
    1UNL     N1   12  -0.012  -0.061  -0.001
    1UNL     C9   13   0.128  -0.106   0.013
    1UNL    C10   14   0.228  -0.011   0.070
    1UNL    C11   15   0.378  -0.062   0.069
    1UNL     O4   16   0.420  -0.137   0.155
    1UNL    C12   17   0.470  -0.004  -0.031
    1UNL    C13   18   0.414   0.062  -0.143
    1UNL    C14   19   0.494   0.132  -0.234
    1UNL    C15   20   0.631   0.138  -0.221
    1UNL    C16   21   0.683   0.079  -0.109
    1UNL    C17   22   0.607   0.017  -0.005
    1UNL     N2   23   0.666  -0.023   0.113
    1UNL    C18   24  -0.046   0.056  -0.069
    1UNL     O5   25   0.033   0.129  -0.126
    1UNL    C19   26  -0.195   0.095  -0.084
    1UNL    C20   27  -0.287   0.024   0.011
    1UNL     H1   28  -0.533   0.427  -0.018
    1UNL     H2   29  -0.524   0.355  -0.199
    1UNL     H3   30  -0.401   0.472  -0.133
    1UNL     H4   31  -0.615  -0.072  -0.057
    1UNL     H5   32  -0.370  -0.156   0.195
    1UNL     H6   33  -0.408  -0.410   0.158
    1UNL     H7   34  -0.245  -0.385   0.187
    1UNL     H8   35  -0.302  -0.416   0.025
    1UNL     H9   36  -0.247  -0.156  -0.088
    1UNL    H10   37  -0.123  -0.084   0.167
    1UNL    H11   38  -0.071  -0.237   0.099
    1UNL    H12   39   0.165  -0.148  -0.084
    1UNL    H13   40   0.123  -0.187   0.083
    1UNL    H14   41   0.201   0.031   0.174
    1UNL    H15   42   0.225   0.090   0.014
    1UNL    H16   43   0.312   0.044  -0.170
    1UNL    H17   44   0.458   0.200  -0.306
    1UNL    H18   45   0.697   0.194  -0.286
    1UNL    H19   46   0.790   0.086  -0.074
    1UNL    H20   47   0.611  -0.062   0.192
    1UNL    H21   48   0.763  -0.008   0.141
    1UNL    H22   49  -0.239   0.077  -0.186
    1UNL    H23   50  -0.200   0.197  -0.055
    1UNL    H24   51  -0.282   0.070   0.113
   0.00000   0.00000   0.00000   0.00000   0.00000   0.00000   0.00000   0.00000   0.00000
Generated with MDTraj, t= 88.0
 51
    1UNL     C1    1  -0.483   0.382  -0.099
    1UNL     O1    2  -0.402   0.272  -0.057
    1UNL     C2    3  -0.481   0.162  -0.071
    1UNL     O2    4  -0.592   0.171  -0.125
    1UNL     C3    5  -0.428   0.036  -0.030
    1UNL     C4    6  -0.502  -0.077  -0.031
    1UNL     O3    7  -0.473  -0.196   0.023
    1UNL     C5    8  -0.348  -0.211   0.091
    1UNL     C6    9  -0.322  -0.359   0.108
    1UNL     C7   10  -0.235  -0.127   0.019
    1UNL     C8   11  -0.099  -0.126   0.086
    1UNL     N1   12  -0.002  -0.056   0.008
    1UNL     C9   13   0.133  -0.109   0.009
    1UNL    C10   14   0.217  -0.004   0.074
    1UNL    C11   15   0.360  -0.044   0.065
    1UNL     O4   16   0.400  -0.133   0.135
    1UNL    C12   17   0.454   0.030  -0.026
    1UNL    C13   18   0.413   0.073  -0.151
    1UNL    C14   19   0.503   0.111  -0.246
    1UNL    C15   20   0.643   0.113  -0.219
    1UNL    C16   21   0.682   0.079  -0.093
    1UNL    C17   22   0.594   0.029  -0.003
    1UNL     N2   23   0.642  -0.038   0.112
    1UNL    C18   24  -0.036   0.054  -0.065
    1UNL     O5   25   0.047   0.119  -0.120
    1UNL    C19   26  -0.177   0.108  -0.061
    1UNL    C20   27  -0.283   0.025   0.016
    1UNL     H1   28  -0.578   0.369  -0.040
    1UNL     H2   29  -0.498   0.366  -0.216
    1UNL     H3   30  -0.440   0.488  -0.080
    1UNL     H4   31  -0.590  -0.072  -0.091
    1UNL     H5   32  -0.378  -0.164   0.195
    1UNL     H6   33  -0.396  -0.402   0.161
    1UNL     H7   34  -0.224  -0.373   0.152
    1UNL     H8   35  -0.327  -0.408   0.003
    1UNL     H9   36  -0.224  -0.169  -0.082
    1UNL    H10   37  -0.094  -0.082   0.185
    1UNL    H11   38  -0.072  -0.230   0.095
    1UNL    H12   39   0.170  -0.127  -0.098
    1UNL    H13   40   0.143  -0.193   0.074
    1UNL    H14   41   0.188   0.002   0.185
    1UNL    H15   42   0.195   0.100   0.032
    1UNL    H16   43   0.308   0.068  -0.182
    1UNL    H17   44   0.459   0.113  -0.348
    1UNL    H18   45   0.717   0.148  -0.291
    1UNL    H19   46   0.785   0.056  -0.078
    1UNL    H20   47   0.604  -0.119   0.155
    1UNL    H21   48   0.745  -0.040   0.108
    1UNL    H22   49  -0.202   0.089  -0.170
    1UNL    H23   50  -0.173   0.211  -0.038
    1UNL    H24   51  -0.282   0.061   0.121
   0.00000   0.00000   0.00000   0.00000   0.00000   0.00000   0.00000   0.00000   0.00000
Generated with MDTraj, t= 89.0
 51
    1UNL     C1    1  -0.462   0.376  -0.110
    1UNL     O1    2  -0.404   0.266  -0.063
    1UNL     C2    3  -0.488   0.166  -0.071
    1UNL     O2    4  -0.605   0.181  -0.107
    1UNL     C3    5  -0.433   0.036  -0.027
    1UNL     C4    6  -0.511  -0.075  -0.024
    1UNL     O3    7  -0.481  -0.204   0.011
    1UNL     C5    8  -0.356  -0.209   0.086
    1UNL     C6    9  -0.311  -0.357   0.100
    1UNL     C7   10  -0.243  -0.125   0.026
    1UNL     C8   11  -0.099  -0.142   0.073
    1UNL     N1   12  -0.001  -0.045   0.027
    1UNL     C9   13   0.129  -0.096   0.013
    1UNL    C10   14   0.226   0.005   0.083
    1UNL    C11   15   0.371  -0.041   0.067
    1UNL     O4   16   0.401  -0.113   0.158
    1UNL    C12   17   0.460   0.006  -0.032
    1UNL    C13   18   0.415   0.076  -0.149
    1UNL    C14   19   0.504   0.136  -0.238
    1UNL    C15   20   0.640   0.128  -0.218
    1UNL    C16   21   0.688   0.050  -0.113
    1UNL    C17   22   0.598   0.001  -0.014
    1UNL     N2   23   0.651  -0.034   0.108
    1UNL    C18   24  -0.038   0.059  -0.053
    1UNL     O5   25   0.042   0.117  -0.120
    1UNL    C19   26  -0.182   0.086  -0.083
    1UNL    C20   27  -0.284   0.019   0.011
    1UNL     H1   28  -0.561   0.371  -0.060
    1UNL     H2   29  -0.469   0.376  -0.225
    1UNL     H3   30  -0.402   0.464  -0.065
    1UNL     H4   31  -0.612  -0.051  -0.052
    1UNL     H5   32  -0.386  -0.166   0.192
    1UNL     H6   33  -0.403  -0.411   0.103
    1UNL     H7   34  -0.245  -0.376   0.185
    1UNL     H8   35  -0.267  -0.383   0.006
    1UNL     H9   36  -0.239  -0.153  -0.081
    1UNL    H10   37  -0.104  -0.147   0.183
    1UNL    H11   38  -0.058  -0.239   0.045
    1UNL    H12   39   0.153  -0.086  -0.099
    1UNL    H13   40   0.137  -0.194   0.054
    1UNL    H14   41   0.205   0.004   0.198
    1UNL    H15   42   0.207   0.104   0.037
    1UNL    H16   43   0.311   0.074  -0.169
    1UNL    H17   44   0.466   0.186  -0.323
    1UNL    H18   45   0.703   0.150  -0.302
    1UNL    H19   46   0.795   0.041  -0.099
    1UNL    H20   47   0.586  -0.050   0.180
    1UNL    H21   48   0.746  -0.029   0.140
    1UNL    H22   49  -0.197   0.065  -0.193
    1UNL    H23   50  -0.185   0.191  -0.065
    1UNL    H24   51  -0.262   0.070   0.107
   0.00000   0.00000   0.00000   0.00000   0.00000   0.00000   0.00000   0.00000   0.00000
Generated with MDTraj, t= 90.0
 51
    1UNL     C1    1  -0.451   0.379  -0.113
    1UNL     O1    2  -0.388   0.261  -0.066
    1UNL     C2    3  -0.482   0.163  -0.071
    1UNL     O2    4  -0.604   0.182  -0.097
    1UNL     C3    5  -0.432   0.032  -0.037
    1UNL     C4    6  -0.523  -0.067  -0.018
    1UNL     O3    7  -0.485  -0.196   0.014
    1UNL     C5    8  -0.365  -0.215   0.086
    1UNL     C6    9  -0.336  -0.369   0.097
    1UNL     C7   10  -0.246  -0.136   0.018
    1UNL     C8   11  -0.098  -0.149   0.070
    1UNL     N1   12   0.004  -0.063  -0.002
    1UNL     C9   13   0.144  -0.094   0.014
    1UNL    C10   14   0.221   0.019   0.080
    1UNL    C11   15   0.366  -0.019   0.095
    1UNL     O4   16   0.403  -0.096   0.184
    1UNL    C12   17   0.465   0.040  -0.010
    1UNL    C13   18   0.411   0.084  -0.127
    1UNL    C14   19   0.484   0.127  -0.234
    1UNL    C15   20   0.624   0.118  -0.233
    1UNL    C16   21   0.683   0.061  -0.118
    1UNL    C17   22   0.606   0.010  -0.015
    1UNL     N2   23   0.664  -0.070   0.079
    1UNL    C18   24  -0.034   0.051  -0.068
    1UNL     O5   25   0.049   0.128  -0.105
    1UNL    C19   26  -0.178   0.082  -0.093
    1UNL    C20   27  -0.285   0.017   0.007
    1UNL     H1   28  -0.495   0.407  -0.016
    1UNL     H2   29  -0.537   0.355  -0.173
    1UNL     H3   30  -0.381   0.455  -0.155
    1UNL     H4   31  -0.632  -0.055  -0.029
    1UNL     H5   32  -0.382  -0.166   0.192
    1UNL     H6   33  -0.400  -0.433   0.164
    1UNL     H7   34  -0.234  -0.387   0.126
    1UNL     H8   35  -0.346  -0.410   0.006
    1UNL     H9   36  -0.238  -0.179  -0.084
    1UNL    H10   37  -0.075  -0.138   0.178
    1UNL    H11   38  -0.069  -0.254   0.057
    1UNL    H12   39   0.184  -0.108  -0.092
    1UNL    H13   40   0.145  -0.184   0.070
    1UNL    H14   41   0.190   0.026   0.191
    1UNL    H15   42   0.223   0.121   0.038
    1UNL    H16   43   0.302   0.097  -0.132
    1UNL    H17   44   0.440   0.163  -0.329
    1UNL    H18   45   0.689   0.162  -0.309
    1UNL    H19   46   0.794   0.066  -0.111
    1UNL    H20   47   0.616  -0.088   0.168
    1UNL    H21   48   0.758  -0.098   0.077
    1UNL    H22   49  -0.198   0.050  -0.198
    1UNL    H23   50  -0.183   0.189  -0.093
    1UNL    H24   51  -0.278   0.063   0.108
   0.00000   0.00000   0.00000   0.00000   0.00000   0.00000   0.00000   0.00000   0.00000
Generated with MDTraj, t= 91.0
 51
    1UNL     C1    1  -0.444   0.388  -0.112
    1UNL     O1    2  -0.370   0.270  -0.089
    1UNL     C2    3  -0.461   0.167  -0.072
    1UNL     O2    4  -0.582   0.192  -0.089
    1UNL     C3    5  -0.414   0.035  -0.033
    1UNL     C4    6  -0.502  -0.067  -0.001
    1UNL     O3    7  -0.477  -0.199   0.034
    1UNL     C5    8  -0.342  -0.214   0.084
    1UNL     C6    9  -0.314  -0.362   0.099
    1UNL     C7   10  -0.241  -0.142  -0.002
    1UNL     C8   11  -0.095  -0.177   0.034
    1UNL     N1   12   0.002  -0.076  -0.010
    1UNL     C9   13   0.139  -0.103   0.026
    1UNL    C10   14   0.210   0.010   0.103
    1UNL    C11   15   0.360  -0.011   0.109
    1UNL     O4   16   0.401  -0.066   0.208
    1UNL    C12   17   0.436   0.023  -0.017
    1UNL    C13   18   0.380   0.102  -0.119
    1UNL    C14   19   0.459   0.152  -0.222
    1UNL    C15   20   0.594   0.120  -0.231
    1UNL    C16   21   0.653   0.036  -0.139
    1UNL    C17   22   0.574  -0.008  -0.026
    1UNL     N2   23   0.642  -0.064   0.081
    1UNL    C18   24  -0.026   0.045  -0.076
    1UNL     O5   25   0.063   0.122  -0.109
    1UNL    C19   26  -0.167   0.083  -0.099
    1UNL    C20   27  -0.270   0.012  -0.004
    1UNL     H1   28  -0.509   0.382  -0.025
    1UNL     H2   29  -0.508   0.376  -0.190
    1UNL     H3   30  -0.376   0.471  -0.112
    1UNL     H4   31  -0.612  -0.064  -0.017
    1UNL     H5   32  -0.346  -0.161   0.190
    1UNL     H6   33  -0.394  -0.413   0.159
    1UNL     H7   34  -0.225  -0.391   0.146
    1UNL     H8   35  -0.314  -0.412   0.006
    1UNL     H9   36  -0.266  -0.182  -0.103
    1UNL    H10   37  -0.091  -0.187   0.145
    1UNL    H11   38  -0.056  -0.275  -0.000
    1UNL    H12   39   0.194  -0.113  -0.074
    1UNL    H13   40   0.145  -0.196   0.078
    1UNL    H14   41   0.185   0.024   0.213
    1UNL    H15   42   0.187   0.110   0.062
    1UNL    H16   43   0.275   0.106  -0.114
    1UNL    H17   44   0.415   0.227  -0.284
    1UNL    H18   45   0.657   0.178  -0.295
    1UNL    H19   46   0.757   0.027  -0.140
    1UNL    H20   47   0.589  -0.116   0.152
    1UNL    H21   48   0.744  -0.076   0.093
    1UNL    H22   49  -0.196   0.076  -0.204
    1UNL    H23   50  -0.174   0.191  -0.084
    1UNL    H24   51  -0.261   0.046   0.101
   0.00000   0.00000   0.00000   0.00000   0.00000   0.00000   0.00000   0.00000   0.00000
Generated with MDTraj, t= 92.0
 51
    1UNL     C1    1  -0.411   0.378  -0.132
    1UNL     O1    2  -0.347   0.278  -0.071
    1UNL     C2    3  -0.444   0.176  -0.057
    1UNL     O2    4  -0.562   0.200  -0.089
    1UNL     C3    5  -0.406   0.040  -0.017
    1UNL     C4    6  -0.496  -0.065  -0.005
    1UNL     O3    7  -0.476  -0.189   0.043
    1UNL     C5    8  -0.334  -0.220   0.077
    1UNL     C6    9  -0.319  -0.373   0.095
    1UNL     C7   10  -0.235  -0.151  -0.011
    1UNL     C8   11  -0.087  -0.173   0.030
    1UNL     N1   12   0.008  -0.074  -0.021
    1UNL     C9   13   0.152  -0.094   0.004
    1UNL    C10   14   0.211  -0.034   0.127
    1UNL    C11   15   0.359  -0.016   0.122
    1UNL     O4   16   0.416  -0.037   0.226
    1UNL    C12   17   0.424   0.034  -0.002
    1UNL    C13   18   0.355   0.114  -0.101
    1UNL    C14   19   0.421   0.153  -0.219
    1UNL    C15   20   0.553   0.106  -0.239
    1UNL    C16   21   0.624   0.042  -0.140
    1UNL    C17   22   0.564   0.010  -0.018
    1UNL     N2   23   0.626  -0.066   0.076
    1UNL    C18   24  -0.029   0.044  -0.088
    1UNL     O5   25   0.062   0.124  -0.119
    1UNL    C19   26  -0.174   0.063  -0.117
    1UNL    C20   27  -0.261   0.001  -0.010
    1UNL     H1   28  -0.506   0.384  -0.080
    1UNL     H2   29  -0.430   0.346  -0.225
    1UNL     H3   30  -0.342   0.460  -0.132
    1UNL     H4   31  -0.601  -0.040  -0.015
    1UNL     H5   32  -0.323  -0.169   0.184
    1UNL     H6   33  -0.413  -0.405   0.138
    1UNL     H7   34  -0.242  -0.409   0.154
    1UNL     H8   35  -0.306  -0.423  -0.006
    1UNL     H9   36  -0.251  -0.176  -0.118
    1UNL    H10   37  -0.071  -0.179   0.141
    1UNL    H11   38  -0.065  -0.274  -0.011
    1UNL    H12   39   0.206  -0.051  -0.087
    1UNL    H13   40   0.181  -0.197   0.015
    1UNL    H14   41   0.168  -0.082   0.215
    1UNL    H15   42   0.168   0.067   0.141
    1UNL    H16   43   0.250   0.145  -0.085
    1UNL    H17   44   0.363   0.207  -0.295
    1UNL    H18   45   0.586   0.127  -0.339
    1UNL    H19   46   0.732   0.019  -0.161
    1UNL    H20   47   0.563  -0.103   0.149
    1UNL    H21   48   0.714  -0.119   0.063
    1UNL    H22   49  -0.202   0.032  -0.214
    1UNL    H23   50  -0.194   0.172  -0.126
    1UNL    H24   51  -0.220   0.041   0.084
   0.00000   0.00000   0.00000   0.00000   0.00000   0.00000   0.00000   0.00000   0.00000
Generated with MDTraj, t= 93.0
 51
    1UNL     C1    1  -0.391   0.381  -0.113
    1UNL     O1    2  -0.335   0.259  -0.087
    1UNL     C2    3  -0.444   0.173  -0.064
    1UNL     O2    4  -0.564   0.206  -0.090
    1UNL     C3    5  -0.403   0.039  -0.023
    1UNL     C4    6  -0.488  -0.062  -0.006
    1UNL     O3    7  -0.473  -0.178   0.051
    1UNL     C5    8  -0.341  -0.215   0.080
    1UNL     C6    9  -0.324  -0.368   0.086
    1UNL     C7   10  -0.237  -0.148  -0.007
    1UNL     C8   11  -0.084  -0.174   0.037
    1UNL     N1   12   0.016  -0.100  -0.037
    1UNL     C9   13   0.155  -0.120   0.004
    1UNL    C10   14   0.196  -0.035   0.120
    1UNL    C11   15   0.342  -0.009   0.125
    1UNL     O4   16   0.407  -0.026   0.227
    1UNL    C12   17   0.417   0.044   0.003
    1UNL    C13   18   0.351   0.119  -0.090
    1UNL    C14   19   0.400   0.154  -0.211
    1UNL    C15   20   0.538   0.122  -0.236
    1UNL    C16   21   0.611   0.052  -0.146
    1UNL    C17   22   0.554   0.010  -0.025
    1UNL     N2   23   0.620  -0.068   0.069
    1UNL    C18   24  -0.011   0.024  -0.097
    1UNL     O5   25   0.080   0.105  -0.127
    1UNL    C19   26  -0.155   0.074  -0.100
    1UNL    C20   27  -0.257   0.011  -0.001
    1UNL     H1   28  -0.462   0.403  -0.030
    1UNL     H2   29  -0.452   0.359  -0.192
    1UNL     H3   30  -0.313   0.450  -0.146
    1UNL     H4   31  -0.587  -0.037  -0.035
    1UNL     H5   32  -0.324  -0.184   0.195
    1UNL     H6   33  -0.376  -0.418   0.160
    1UNL     H7   34  -0.217  -0.379   0.091
    1UNL     H8   35  -0.348  -0.409  -0.018
    1UNL     H9   36  -0.247  -0.178  -0.114
    1UNL    H10   37  -0.079  -0.139   0.143
    1UNL    H11   38  -0.054  -0.281   0.035
    1UNL    H12   39   0.222  -0.094  -0.081
    1UNL    H13   40   0.178  -0.223   0.026
    1UNL    H14   41   0.151  -0.061   0.214
    1UNL    H15   42   0.141   0.061   0.102
    1UNL    H16   43   0.247   0.138  -0.079
    1UNL    H17   44   0.335   0.191  -0.288
    1UNL    H18   45   0.590   0.134  -0.332
    1UNL    H19   46   0.711   0.025  -0.162
    1UNL    H20   47   0.599  -0.050   0.168
    1UNL    H21   48   0.718  -0.089   0.064
    1UNL    H22   49  -0.192   0.051  -0.196
    1UNL    H23   50  -0.162   0.185  -0.103
    1UNL    H24   51  -0.227   0.047   0.100
   0.00000   0.00000   0.00000   0.00000   0.00000   0.00000   0.00000   0.00000   0.00000
Generated with MDTraj, t= 94.0
 51
    1UNL     C1    1  -0.402   0.388  -0.111
    1UNL     O1    2  -0.338   0.272  -0.090
    1UNL     C2    3  -0.437   0.179  -0.058
    1UNL     O2    4  -0.560   0.199  -0.083
    1UNL     C3    5  -0.397   0.044  -0.013
    1UNL     C4    6  -0.492  -0.048   0.003
    1UNL     O3    7  -0.486  -0.184   0.030
    1UNL     C5    8  -0.351  -0.217   0.085
    1UNL     C6    9  -0.337  -0.367   0.093
    1UNL     C7   10  -0.238  -0.147   0.008
    1UNL     C8   11  -0.095  -0.191   0.034
    1UNL     N1   12   0.013  -0.100  -0.018
    1UNL     C9   13   0.148  -0.120   0.035
    1UNL    C10   14   0.197  -0.004   0.118
    1UNL    C11   15   0.347  -0.002   0.118
    1UNL     O4   16   0.407  -0.049   0.213
    1UNL    C12   17   0.421   0.047   0.001
    1UNL    C13   18   0.357   0.128  -0.096
    1UNL    C14   19   0.426   0.178  -0.206
    1UNL    C15   20   0.558   0.143  -0.226
    1UNL    C16   21   0.621   0.052  -0.145
    1UNL    C17   22   0.555  -0.002  -0.029
    1UNL     N2   23   0.640  -0.059   0.064
    1UNL    C18   24  -0.019   0.010  -0.102
    1UNL     O5   25   0.074   0.077  -0.147
    1UNL    C19   26  -0.169   0.042  -0.123
    1UNL    C20   27  -0.253   0.009  -0.005
    1UNL     H1   28  -0.462   0.417  -0.016
    1UNL     H2   29  -0.474   0.357  -0.185
    1UNL     H3   30  -0.331   0.457  -0.159
    1UNL     H4   31  -0.592  -0.012  -0.017
    1UNL     H5   32  -0.348  -0.184   0.200
    1UNL     H6   33  -0.426  -0.403   0.132
    1UNL     H7   34  -0.245  -0.411   0.142
    1UNL     H8   35  -0.331  -0.404  -0.011
    1UNL     H9   36  -0.260  -0.186  -0.095
    1UNL    H10   37  -0.081  -0.196   0.145
    1UNL    H11   38  -0.084  -0.296  -0.003
    1UNL    H12   39   0.207  -0.133  -0.059
    1UNL    H13   40   0.158  -0.216   0.083
    1UNL    H14   41   0.150   0.017   0.212
    1UNL    H15   42   0.165   0.090   0.069
    1UNL    H16   43   0.252   0.142  -0.094
    1UNL    H17   44   0.386   0.246  -0.281
    1UNL    H18   45   0.616   0.200  -0.295
    1UNL    H19   46   0.726   0.014  -0.144
    1UNL    H20   47   0.607  -0.081   0.155
    1UNL    H21   48   0.739  -0.066   0.061
    1UNL    H22   49  -0.213  -0.007  -0.205
    1UNL    H23   50  -0.178   0.152  -0.141
    1UNL    H24   51  -0.214   0.056   0.087
   0.00000   0.00000   0.00000   0.00000   0.00000   0.00000   0.00000   0.00000   0.00000
Generated with MDTraj, t= 95.0
 51
    1UNL     C1    1  -0.378   0.380  -0.115
    1UNL     O1    2  -0.336   0.256  -0.081
    1UNL     C2    3  -0.447   0.171  -0.065
    1UNL     O2    4  -0.566   0.212  -0.067
    1UNL     C3    5  -0.416   0.031  -0.039
    1UNL     C4    6  -0.513  -0.061  -0.009
    1UNL     O3    7  -0.494  -0.192   0.038
    1UNL     C5    8  -0.367  -0.218   0.097
    1UNL     C6    9  -0.356  -0.359   0.112
    1UNL     C7   10  -0.252  -0.158   0.010
    1UNL     C8   11  -0.110  -0.183   0.049
    1UNL     N1   12  -0.001  -0.088  -0.003
    1UNL     C9   13   0.140  -0.113   0.018
    1UNL    C10   14   0.206  -0.004   0.109
    1UNL    C11   15   0.357  -0.008   0.101
    1UNL     O4   16   0.416  -0.065   0.190
    1UNL    C12   17   0.435   0.052  -0.011
    1UNL    C13   18   0.374   0.116  -0.120
    1UNL    C14   19   0.453   0.174  -0.222
    1UNL    C15   20   0.594   0.154  -0.214
    1UNL    C16   21   0.654   0.086  -0.112
    1UNL    C17   22   0.577   0.035  -0.012
    1UNL     N2   23   0.633  -0.069   0.062
    1UNL    C18   24  -0.027   0.014  -0.096
    1UNL     O5   25   0.064   0.077  -0.145
    1UNL    C19   26  -0.171   0.052  -0.120
    1UNL    C20   27  -0.272  -0.003  -0.016
    1UNL     H1   28  -0.482   0.394  -0.063
    1UNL     H2   29  -0.400   0.370  -0.225
    1UNL     H3   30  -0.300   0.458  -0.091
    1UNL     H4   31  -0.617  -0.030   0.011
    1UNL     H5   32  -0.366  -0.156   0.199
    1UNL     H6   33  -0.427  -0.404   0.182
    1UNL     H7   34  -0.248  -0.387   0.138
    1UNL     H8   35  -0.372  -0.405   0.019
    1UNL     H9   36  -0.273  -0.201  -0.091
    1UNL    H10   37  -0.096  -0.191   0.160
    1UNL    H11   38  -0.075  -0.283   0.012
    1UNL    H12   39   0.194  -0.122  -0.078
    1UNL    H13   40   0.140  -0.217   0.054
    1UNL    H14   41   0.176  -0.018   0.208
    1UNL    H15   42   0.171   0.097   0.093
    1UNL    H16   43   0.264   0.115  -0.141
    1UNL    H17   44   0.396   0.236  -0.292
    1UNL    H18   45   0.653   0.199  -0.295
    1UNL    H19   46   0.760   0.080  -0.101
    1UNL    H20   47   0.581  -0.127   0.120
    1UNL    H21   48   0.728  -0.101   0.048
    1UNL    H22   49  -0.197   0.010  -0.215
    1UNL    H23   50  -0.175   0.162  -0.119
    1UNL    H24   51  -0.256   0.053   0.077
   0.00000   0.00000   0.00000   0.00000   0.00000   0.00000   0.00000   0.00000   0.00000
Generated with MDTraj, t= 96.0
 51
    1UNL     C1    1  -0.408   0.391  -0.117
    1UNL     O1    2  -0.349   0.273  -0.076
    1UNL     C2    3  -0.448   0.178  -0.068
    1UNL     O2    4  -0.568   0.202  -0.091
    1UNL     C3    5  -0.418   0.037  -0.039
    1UNL     C4    6  -0.510  -0.060  -0.002
    1UNL     O3    7  -0.487  -0.190   0.041
    1UNL     C5    8  -0.361  -0.217   0.101
    1UNL     C6    9  -0.341  -0.364   0.129
    1UNL     C7   10  -0.248  -0.146   0.019
    1UNL     C8   11  -0.107  -0.174   0.068
    1UNL     N1   12  -0.006  -0.097  -0.014
    1UNL     C9   13   0.128  -0.132   0.004
    1UNL    C10   14   0.205  -0.016   0.075
    1UNL    C11   15   0.358  -0.039   0.073
    1UNL     O4   16   0.402  -0.102   0.166
    1UNL    C12   17   0.445   0.019  -0.032
    1UNL    C13   18   0.386   0.093  -0.136
    1UNL    C14   19   0.464   0.178  -0.215
    1UNL    C15   20   0.603   0.173  -0.206
    1UNL    C16   21   0.664   0.095  -0.108
    1UNL    C17   22   0.584   0.026  -0.012
    1UNL     N2   23   0.637  -0.028   0.103
    1UNL    C18   24  -0.030   0.020  -0.087
    1UNL     O5   25   0.061   0.088  -0.127
    1UNL    C19   26  -0.174   0.056  -0.114
    1UNL    C20   27  -0.273   0.007  -0.009
    1UNL     H1   28  -0.486   0.408  -0.033
    1UNL     H2   29  -0.472   0.367  -0.210
    1UNL     H3   30  -0.340   0.484  -0.111
    1UNL     H4   31  -0.615  -0.033  -0.011
    1UNL     H5   32  -0.363  -0.153   0.202
    1UNL     H6   33  -0.430  -0.415   0.181
    1UNL     H7   34  -0.246  -0.378   0.184
    1UNL     H8   35  -0.331  -0.418   0.042
    1UNL     H9   36  -0.250  -0.193  -0.082
    1UNL    H10   37  -0.088  -0.160   0.177
    1UNL    H11   38  -0.079  -0.281   0.049
    1UNL    H12   39   0.165  -0.153  -0.097
    1UNL    H13   40   0.141  -0.227   0.059
    1UNL    H14   41   0.183  -0.014   0.178
    1UNL    H15   42   0.170   0.070   0.030
    1UNL    H16   43   0.281   0.104  -0.135
    1UNL    H17   44   0.405   0.219  -0.296
    1UNL    H18   45   0.669   0.230  -0.266
    1UNL    H19   46   0.771   0.100  -0.100
    1UNL    H20   47   0.581  -0.081   0.166
    1UNL    H21   48   0.722   0.007   0.145
    1UNL    H22   49  -0.202   0.026  -0.215
    1UNL    H23   50  -0.165   0.164  -0.109
    1UNL    H24   51  -0.256   0.058   0.085
   0.00000   0.00000   0.00000   0.00000   0.00000   0.00000   0.00000   0.00000   0.00000
Generated with MDTraj, t= 97.0
 51
    1UNL     C1    1  -0.443   0.394  -0.119
    1UNL     O1    2  -0.379   0.281  -0.075
    1UNL     C2    3  -0.467   0.181  -0.069
    1UNL     O2    4  -0.584   0.182  -0.115
    1UNL     C3    5  -0.418   0.050  -0.020
    1UNL     C4    6  -0.502  -0.056  -0.001
    1UNL     O3    7  -0.485  -0.184   0.045
    1UNL     C5    8  -0.353  -0.203   0.105
    1UNL     C6    9  -0.331  -0.354   0.143
    1UNL     C7   10  -0.251  -0.135   0.015
    1UNL     C8   11  -0.103  -0.162   0.056
    1UNL     N1   12  -0.003  -0.086  -0.023
    1UNL     C9   13   0.140  -0.127  -0.013
    1UNL    C10   14   0.220  -0.043   0.083
    1UNL    C11   15   0.373  -0.073   0.069
    1UNL     O4   16   0.423  -0.169   0.122
    1UNL    C12   17   0.446   0.031  -0.007
    1UNL    C13   18   0.385   0.081  -0.119
    1UNL    C14   19   0.463   0.129  -0.223
    1UNL    C15   20   0.596   0.164  -0.206
    1UNL    C16   21   0.655   0.127  -0.081
    1UNL    C17   22   0.586   0.053   0.015
    1UNL     N2   23   0.658   0.003   0.120
    1UNL    C18   24  -0.032   0.025  -0.099
    1UNL     O5   25   0.054   0.082  -0.160
    1UNL    C19   26  -0.174   0.076  -0.096
    1UNL    C20   27  -0.269   0.023   0.009
    1UNL     H1   28  -0.501   0.427  -0.031
    1UNL     H2   29  -0.527   0.362  -0.194
    1UNL     H3   30  -0.377   0.481  -0.143
    1UNL     H4   31  -0.598  -0.037  -0.042
    1UNL     H5   32  -0.359  -0.140   0.207
    1UNL     H6   33  -0.439  -0.384   0.174
    1UNL     H7   34  -0.251  -0.375   0.211
    1UNL     H8   35  -0.316  -0.413   0.054
    1UNL     H9   36  -0.261  -0.178  -0.087
    1UNL    H10   37  -0.087  -0.138   0.163
    1UNL    H11   38  -0.077  -0.271   0.044
    1UNL    H12   39   0.191  -0.118  -0.108
    1UNL    H13   40   0.147  -0.238   0.008
    1UNL    H14   41   0.176  -0.064   0.177
    1UNL    H15   42   0.215   0.056   0.055
    1UNL    H16   43   0.282   0.047  -0.137
    1UNL    H17   44   0.433   0.152  -0.323
    1UNL    H18   45   0.658   0.208  -0.288
    1UNL    H19   46   0.763   0.145  -0.064
    1UNL    H20   47   0.605  -0.044   0.195
    1UNL    H21   48   0.758   0.005   0.131
    1UNL    H22   49  -0.208   0.058  -0.199
    1UNL    H23   50  -0.156   0.180  -0.072
    1UNL    H24   51  -0.239   0.063   0.105
   0.00000   0.00000   0.00000   0.00000   0.00000   0.00000   0.00000   0.00000   0.00000
Generated with MDTraj, t= 98.0
 51
    1UNL     C1    1  -0.439   0.389  -0.123
    1UNL     O1    2  -0.383   0.269  -0.077
    1UNL     C2    3  -0.474   0.170  -0.076
    1UNL     O2    4  -0.592   0.177  -0.116
    1UNL     C3    5  -0.422   0.048  -0.017
    1UNL     C4    6  -0.499  -0.063  -0.006
    1UNL     O3    7  -0.479  -0.178   0.065
    1UNL     C5    8  -0.348  -0.190   0.112
    1UNL     C6    9  -0.325  -0.339   0.140
    1UNL     C7   10  -0.239  -0.130   0.020
    1UNL     C8   11  -0.084  -0.135   0.071
    1UNL     N1   12   0.007  -0.075  -0.021
    1UNL     C9   13   0.140  -0.133  -0.018
    1UNL    C10   14   0.220  -0.058   0.078
    1UNL    C11   15   0.366  -0.090   0.056
    1UNL     O4   16   0.426  -0.168   0.125
    1UNL    C12   17   0.444   0.001  -0.038
    1UNL    C13   18   0.386   0.067  -0.147
    1UNL    C14   19   0.458   0.157  -0.215
    1UNL    C15   20   0.593   0.186  -0.180
    1UNL    C16   21   0.646   0.127  -0.068
    1UNL    C17   22   0.574   0.033   0.001
    1UNL     N2   23   0.625  -0.005   0.126
    1UNL    C18   24  -0.025   0.031  -0.102
    1UNL     O5   25   0.072   0.084  -0.151
    1UNL    C19   26  -0.169   0.076  -0.109
    1UNL    C20   27  -0.269   0.027   0.004
    1UNL     H1   28  -0.532   0.397  -0.078
    1UNL     H2   29  -0.457   0.379  -0.234
    1UNL     H3   30  -0.386   0.477  -0.093
    1UNL     H4   31  -0.605  -0.051  -0.020
    1UNL     H5   32  -0.358  -0.128   0.215
    1UNL     H6   33  -0.409  -0.368   0.211
    1UNL     H7   34  -0.226  -0.346   0.173
    1UNL     H8   35  -0.339  -0.406   0.047
    1UNL     H9   36  -0.252  -0.174  -0.082
    1UNL    H10   37  -0.073  -0.080   0.166
    1UNL    H11   38  -0.047  -0.240   0.089
    1UNL    H12   39   0.178  -0.136  -0.118
    1UNL    H13   40   0.138  -0.241   0.017
    1UNL    H14   41   0.211  -0.092   0.178
    1UNL    H15   42   0.197   0.041   0.057
    1UNL    H16   43   0.282   0.045  -0.159
    1UNL    H17   44   0.405   0.216  -0.290
    1UNL    H18   45   0.649   0.263  -0.223
    1UNL    H19   46   0.738   0.159  -0.029
    1UNL    H20   47   0.570  -0.070   0.185
    1UNL    H21   48   0.727  -0.012   0.146
    1UNL    H22   49  -0.217   0.036  -0.200
    1UNL    H23   50  -0.161   0.182  -0.107
    1UNL    H24   51  -0.238   0.085   0.090
   0.00000   0.00000   0.00000   0.00000   0.00000   0.00000   0.00000   0.00000   0.00000
Generated with MDTraj, t= 99.0
 51
    1UNL     C1    1  -0.419   0.384  -0.141
    1UNL     O1    2  -0.362   0.267  -0.104
    1UNL     C2    3  -0.465   0.172  -0.073
    1UNL     O2    4  -0.585   0.181  -0.113
    1UNL     C3    5  -0.413   0.048  -0.016
    1UNL     C4    6  -0.504  -0.058   0.002
    1UNL     O3    7  -0.484  -0.187   0.058
    1UNL     C5    8  -0.357  -0.189   0.126
    1UNL     C6    9  -0.325  -0.337   0.164
    1UNL     C7   10  -0.248  -0.126   0.030
    1UNL     C8   11  -0.101  -0.153   0.067
    1UNL     N1   12  -0.002  -0.093  -0.021
    1UNL     C9   13   0.136  -0.141  -0.019
    1UNL    C10   14   0.214  -0.050   0.081
    1UNL    C11   15   0.364  -0.070   0.056
    1UNL     O4   16   0.408  -0.171   0.100
    1UNL    C12   17   0.442   0.023  -0.017
    1UNL    C13   18   0.384   0.100  -0.125
    1UNL    C14   19   0.461   0.188  -0.204
    1UNL    C15   20   0.600   0.200  -0.175
    1UNL    C16   21   0.653   0.126  -0.072
    1UNL    C17   22   0.580   0.038   0.007
    1UNL     N2   23   0.644  -0.039   0.105
    1UNL    C18   24  -0.033   0.018  -0.099
    1UNL     O5   25   0.055   0.084  -0.152
    1UNL    C19   26  -0.177   0.060  -0.107
    1UNL    C20   27  -0.266   0.024   0.009
    1UNL     H1   28  -0.489   0.406  -0.070
    1UNL     H2   29  -0.452   0.370  -0.244
    1UNL     H3   30  -0.352   0.466  -0.140
    1UNL     H4   31  -0.602  -0.065  -0.046
    1UNL     H5   32  -0.373  -0.123   0.225
    1UNL     H6   33  -0.413  -0.378   0.211
    1UNL     H7   34  -0.235  -0.355   0.222
    1UNL     H8   35  -0.310  -0.409   0.073
    1UNL     H9   36  -0.269  -0.174  -0.069
    1UNL    H10   37  -0.079  -0.118   0.169
    1UNL    H11   38  -0.074  -0.261   0.059
    1UNL    H12   39   0.178  -0.127  -0.116
    1UNL    H13   40   0.144  -0.253   0.001
    1UNL    H14   41   0.188  -0.085   0.175
    1UNL    H15   42   0.193   0.052   0.074
    1UNL    H16   43   0.277   0.088  -0.141
    1UNL    H17   44   0.411   0.247  -0.278
    1UNL    H18   45   0.653   0.282  -0.229
    1UNL    H19   46   0.757   0.152  -0.044
    1UNL    H20   47   0.610  -0.137   0.114
    1UNL    H21   48   0.749  -0.036   0.098
    1UNL    H22   49  -0.225   0.023  -0.200
    1UNL    H23   50  -0.182   0.165  -0.102
    1UNL    H24   51  -0.231   0.081   0.095
   0.00000   0.00000   0.00000   0.00000   0.00000   0.00000   0.00000   0.00000   0.00000
