[ moleculetype ]
; name        nrexcl
res           1

[ atoms ]
;    nr  type  resnr resid  atom  cgnr     charge       mass
      1 TN4a      1 res   C1        1      0.000     36.000
      2 SN6       1 res   C2        2      0.000     54.000
      3 SP2       1 res   C3        3      0.000     54.000
      4 SN4a      1 res   C4        4      0.000     54.000
      5 TP1       1 res   C5        5      0.000     36.000
      6 SP4       1 res   C6        6      0.000     54.000
      7 TN6       1 res   C7        7      0.000     36.000
      8 TC3       1 res   C8        8      0.000     36.000
      9 TC3       1 res   C9        9      0.000     36.000
     10 N4a       1 res   C10      10      0.000     72.000
     11 TC5       1 res   C11      11      0.000     36.000
     12 TC5       1 res   C12      12      0.000     36.000
     13 TC5       1 res   C13      13      0.000     36.000
     14 TC5       1 res   C14      14      0.000     36.000

[ constraints ]
;  ai    aj   funct      b0(nm)
   10    11     1      0.31258
   11    12     1      0.26842
   12    14     1      0.29841
   13    14     1      0.28761
   12    13     1      0.25629
    2     8     1      0.32879
    8     9     1      0.29574
    4     6     1      0.26842

[ bonds ]
;  ai    aj   funct      b0(nm)          k(kJ/mol/nm^2)
    1     2     1      0.28274          14178.4
    2     3     1      0.27458           5818.3
    4     5     1      0.24810          14722.9
    2     9     1      0.26617          19651.2
    3     4     1      0.30193          14078.2
    9    10     1      0.24388          10994.5
    6     7     1      0.29455          13672.7
    4     7     1      0.28718          11636.8

[ angles ]
;  ai    aj    ak  funct     th0(deg)        k(kJ/mol/rad^2)
    1     2     3     1     84.72953           518.23
    1     2     8     1     70.41961           935.73
    1     2     9     1     85.88589           153.15
    2     3     4     1    115.76102            16.23
    2     8     9     1     50.08779          1621.23
    2     9     8     1     71.45999          1043.19
    2     9    10     1    145.63842            53.98
    3     2     8     1     74.41023           181.30
    3     2     9     1    131.69443           113.44
    3     4     5     1    119.31066            20.12
    3     4     6     1    129.64018            47.66
    3     4     7     1     73.23452           145.52
    4     6     7     1     61.11956           488.02
    4     7     6     1     54.81650          1637.45
    5     4     6     1    101.06530           329.98
    5     4     7     1    136.63593            22.13
    6     4     7     1     64.06333           335.13
    8     2     9     1     58.45182          2427.12
    8     9    10     1     86.92857           365.89
    9    10    11     1    103.07481           161.26
   10    11    12     1    137.54906           323.49
   11    12    13     1    137.25536          1150.33
   11    12    14     1     75.81297          1681.98
   12    13    14     1     66.25871          8123.86
   12    14    13     1     51.82595         10430.99
   13    12    14     1     61.91533          8230.87

[ dihedrals ]
;  ai    aj    ak    al  funct   phi0(deg)        k(kJ/mol)   mult
    1     2     3     4     1    -95.67769       27.643      1
    1     2     8     9     1     81.67218       13.612      1
    1     2     9     8     1   -111.00199        7.082      1
    1     2     9    10     1   -153.18452       23.794      1
    2     3     4     5     1     74.01935       22.074      1
    2     3     4     6     1    -65.63212       18.577      1
    2     3     4     7     1    -49.80675       25.537      1
    2     8     9    10     1    -26.16408       20.438      1
    2     9    10    11     1     40.09723       26.681      1
    3     2     8     9     1     -7.98133       15.091      1
    3     2     9     8     1    173.72702       17.077      1
    3     2     9    10     1    126.26041       24.793      1
    3     4     6     7     1   -177.39674       27.241      1
    3     4     7     6     1     12.24569       29.292      1
    4     3     2     8     1    -24.79354       29.020      1
    4     3     2     9     1    -18.29570       30.058      1
    5     4     6     7     1     40.02997       24.352      1
    5     4     7     6     1   -138.07286       20.452      1
    8     2     9    10     1    137.43190       22.492      1
    8     9    10    11     1     -2.57203       17.597      1
    9    10    11    12     1    -94.75757       27.791      1
   10    11    12    13     1     -5.31881       19.683      1
   10    11    12    14     1     -8.73739       20.675      1
   11    12    13    14     1    178.23351       16.403      1
   11    12    14    13     1     -0.78474       11.502      1
