1TPCN00148
14
    1res  C1    1   -0.029   0.038   0.193
    1res  C2    2   -0.094   0.285   0.032
    1res  C3    3   -0.255  -0.008  -0.040
    1res  C4    4   -0.544  -0.080  -0.126
    1res  C5    5   -0.775  -0.286  -0.197
    1res  C6    6   -0.703  -0.085   0.099
    1res  C7    7   -0.552   0.138   0.033
    1res  C8    8    0.108   0.078  -0.130
    1res  C9    9    0.147   0.283   0.070
    1res  C10   10    0.410   0.247   0.027
    1res  C11   11    0.643  -0.010   0.054
    1res  C12   12    0.785  -0.220   0.148
    1res  C13   13    0.966  -0.382   0.062
    1res  C14   14    0.905  -0.168  -0.124
  10.00000  10.00000  10.00000
