[ moleculetype ]
; name        nrexcl
res           1

[ atoms ]
;    nr  type  resnr resid  atom  cgnr     charge       mass
      1 TN6a      1 res   C1        1      0.000     36.000
      2 TC5       1 res   C2        2      0.000     36.000
      3 TC5e      1 res   C3        3      0.000     36.000
      4 TC5       1 res   C4        4      0.000     36.000
      5 TC5       1 res   C5        5      0.000     36.000

[ bonds ]
;  ai    aj   funct      b0(nm)          k(kJ/mol/nm^2)
    1     2     1      0.25744         207480.1
    1     3     1      0.24995         174206.6
    2     3     1      0.24776         153031.6
    3     4     1      0.25212         191799.8
    3     5     1      0.25104         182321.0
    4     5     1      0.28895         210462.3

[ angles ]
;  ai    aj    ak  funct     th0(deg)        k(kJ/mol/rad^2)
    1     2     3     1     59.27516          4913.52
    1     3     2     1     62.28470          7946.66
    1     3     4     1    171.45794          1576.36
    1     3     5     1    116.88359          2094.08
    2     1     3     1     58.44016          4583.05
    2     3     4     1    110.65143          2115.37
    2     3     5     1    176.63674          2750.40
    3     4     5     1     54.77982          8071.37
    3     5     4     1     55.12938          9120.31
    4     3     5     1     70.09082         13309.36

[ dihedrals ]
;  ai    aj    ak    al  funct   phi0(deg)        k(kJ/mol)   mult
    1     2     3     4     1      0.15623        9.336      1
    1     2     3     4     1   -179.70129        9.121      2
    1     2     3     4     1      0.41272        8.771      3
    1     2     3     5     1   -169.31084       12.101      1
    1     2     3     5     1     29.94845        8.066      2
    1     2     3     5     1   -168.38520        3.797      3
    1     3     4     5     1      1.11458       31.998      1
    1     3     4     5     1   -177.38471       16.252      2
    1     3     4     5     1     17.00846        1.433      3
    1     3     5     4     1      0.14501        9.327      1
    1     3     5     4     1   -179.72385        9.113      2
    1     3     5     4     1      0.37857        8.763      3
    2     1     3     4     1    177.16384       29.109      1
    2     1     3     4     1    172.97622       13.191      2
    2     1     3     4     1     12.37689        2.059      3
    2     1     3     5     1      0.93928        7.065      1
    2     1     3     5     1   -178.12198        6.982      2
    2     1     3     5     1      2.81562        6.844      3
    2     3     4     5     1      0.01153        7.761      1
    2     3     4     5     1   -179.97676        7.648      2
    2     3     4     5     1      0.03533        7.463      3
    2     3     5     4     1    -12.29629       12.133      1
    2     3     5     4     1    -10.15161        9.613      2
    2     3     5     4     1    -77.51077        4.863      3
