[ moleculetype ]
; name        nrexcl
res           1

[ atoms ]
;    nr  type resnr resid  atom  cgnr     charge       mass
      1 TN2a      1 res   C1        1      0.000     36.000
      2 TC5       1 res   C2        2      0.000     36.000
      3 SC2       1 res   C3        3      0.000     54.000
      4 TC5       1 res   C4        4      0.000     36.000
      5 TC5       1 res   C5        5      0.000     36.000
      6 TC3       1 res   C6        6      0.000     36.000
      7 SC4       1 res   C7        7      0.000     54.000
      8 SC4       1 res   C8        8      0.000     54.000
      9 SP2       1 res   C9        9      0.000     54.000
     10 TC3       1 res   C10      10      0.000     36.000

[ bonds ]
;  ai    aj   funct      b0(nm)        k
    1     2     1      0.29454    20000
    2     3     1      0.25013    20000
    2     4     1      0.25236    20000
    2     5     1      0.21315    20000
    4     5     1      0.25316    20000
    5     6     1      0.25014    20000
    5     7     1      0.24982    20000
    6     7     1      0.30705    20000
    7     8     1      0.30699    20000
    7    10     1      0.27565    20000
    8     9     1      0.33488    20000
    8    10     1      0.40016    20000
