[ moleculetype ]
; name        nrexcl
res           1

[ atoms ]
;    nr  type  resnr resid  atom  cgnr     charge       mass
      1 TN1       1 res   C1        1      0.000     36.000
      2 TN6a      1 res   C2        2      0.000     36.000
      3 TC5       1 res   C3        3      0.000     36.000
      4 SN3a      1 res   C4        4      0.000     54.000

[ bonds ]
;  ai    aj   funct      b0(nm)          k(kJ/mol/nm^2)
    1     2     1      0.28506          43045.7
    1     3     1      0.28486          71338.1
    2     3     1      0.25977         190196.3
    3     4     1      0.25215          28706.9

[ angles ]
;  ai    aj    ak  funct     th0(deg)        k(kJ/mol/rad^2)
    1     2     3     1     62.86248          1714.58
    1     3     2     1     62.93600          1545.31
    1     3     4     1    159.16601           271.74
    2     1     3     1     54.20158          7365.96
    2     3     4     1     98.58839           606.43

[ dihedrals ]
;  ai    aj    ak    al  funct   phi0(deg)        k(kJ/mol)   mult
    1     2     3     4     1     -0.74002       16.986      1
    1     2     3     4     1    178.31003       15.241      2
    1     2     3     4     1     -3.09119       12.657      3
    2     1     3     4     1   -178.70499       32.318      1
    2     1     3     4     1   -176.54214       18.679      2
    2     1     3     4     1   -169.02830        4.573      3
