Generated with MDTraj, t= 0.0
 68
    1UNL     O1    1   0.069   0.309  -0.098
    1UNL     C1    2  -0.014   0.239  -0.148
    1UNL     C2    3   0.004   0.090  -0.163
    1UNL     C3    4  -0.119   0.028  -0.224
    1UNL     C4    5  -0.239   0.033  -0.167
    1UNL     O2    6  -0.352  -0.023  -0.220
    1UNL     C5    7  -0.466   0.007  -0.141
    1UNL     O3    8  -0.440   0.013   0.000
    1UNL     C6    9  -0.551   0.065   0.080
    1UNL     C7   10  -0.531   0.212   0.114
    1UNL     O4   11  -0.634   0.260   0.197
    1UNL     C8   12  -0.689   0.040   0.013
    1UNL     O5   13  -0.796   0.045   0.106
    1UNL     C9   14  -0.690  -0.095  -0.061
    1UNL     O6   15  -0.819  -0.117  -0.115
    1UNL    C10   16  -0.581  -0.095  -0.172
    1UNL     O7   17  -0.640  -0.070  -0.298
    1UNL    C11   18   0.129   0.066  -0.255
    1UNL    C12   19   0.215  -0.053  -0.207
    1UNL    C13   20   0.275  -0.027  -0.066
    1UNL    C14   21   0.313  -0.158   0.003
    1UNL     O8   22   0.371  -0.136   0.129
    1UNL    C15   23   0.386  -0.255   0.194
    1UNL     O9   24   0.352  -0.362   0.147
    1UNL    C16   25   0.445  -0.250   0.329
    1UNL    C17   26   0.542  -0.166   0.368
    1UNL    C18   27   0.619  -0.076   0.284
    1UNL    C19   28   0.644  -0.103   0.149
    1UNL    C20   29   0.719  -0.019   0.072
    1UNL    C21   30   0.775   0.097   0.127
    1UNL    O10   31   0.851   0.184   0.053
    1UNL    C22   32   0.751   0.124   0.262
    1UNL    C23   33   0.676   0.040   0.339
    1UNL    C24   34   0.177   0.053   0.024
    1UNL    C25   35   0.031   0.029  -0.019
    1UNL    O11   36  -0.001  -0.110  -0.017
    1UNL     H1   37  -0.104   0.286  -0.184
    1UNL     H2   38  -0.109  -0.026  -0.316
    1UNL     H3   39  -0.252   0.084  -0.072
    1UNL     H4   40  -0.498   0.107  -0.172
    1UNL     H5   41  -0.549   0.007   0.173
    1UNL     H6   42  -0.530   0.273   0.023
    1UNL     H7   43  -0.436   0.229   0.165
    1UNL     H8   44  -0.713   0.202   0.184
    1UNL     H9   45  -0.708   0.120  -0.060
    1UNL    H10   46  -0.873  -0.001   0.066
    1UNL    H11   47  -0.672  -0.175   0.012
    1UNL    H12   48  -0.811  -0.165  -0.200
    1UNL    H13   49  -0.535  -0.195  -0.181
    1UNL    H14   50  -0.681   0.019  -0.298
    1UNL    H15   51   0.098   0.053  -0.359
    1UNL    H16   52   0.190   0.157  -0.253
    1UNL    H17   53   0.293  -0.077  -0.280
    1UNL    H18   54   0.151  -0.142  -0.202
    1UNL    H19   55   0.367   0.032  -0.078
    1UNL    H20   56   0.384  -0.216  -0.057
    1UNL    H21   57   0.224  -0.221   0.018
    1UNL    H22   58   0.403  -0.319   0.400
    1UNL    H23   59   0.569  -0.166   0.473
    1UNL    H24   60   0.602  -0.192   0.106
    1UNL    H25   61   0.737  -0.041  -0.032
    1UNL    H26   62   0.859   0.152  -0.040
    1UNL    H27   63   0.794   0.213   0.304
    1UNL    H28   64   0.658   0.062   0.443
    1UNL    H29   65   0.199   0.161   0.018
    1UNL    H30   66   0.191   0.024   0.128
    1UNL    H31   67  -0.038   0.079   0.051
    1UNL    H32   68   0.007  -0.145   0.074
   0.00000   0.00000   0.00000   0.00000   0.00000   0.00000   0.00000   0.00000   0.00000
Generated with MDTraj, t= 1.0
 68
    1UNL     O1    1   0.022   0.288  -0.063
    1UNL     C1    2  -0.038   0.229  -0.148
    1UNL     C2    3   0.002   0.083  -0.181
    1UNL     C3    4  -0.120   0.026  -0.249
    1UNL     C4    5  -0.237   0.026  -0.182
    1UNL     O2    6  -0.351  -0.036  -0.218
    1UNL     C5    7  -0.466   0.006  -0.138
    1UNL     O3    8  -0.444  -0.005   0.003
    1UNL     C6    9  -0.554   0.048   0.083
    1UNL     C7   10  -0.526   0.198   0.117
    1UNL     O4   11  -0.621   0.258   0.198
    1UNL     C8   12  -0.695   0.033   0.019
    1UNL     O5   13  -0.795   0.022   0.120
    1UNL     C9   14  -0.692  -0.090  -0.072
    1UNL     O6   15  -0.825  -0.114  -0.120
    1UNL    C10   16  -0.589  -0.073  -0.186
    1UNL     O7   17  -0.653  -0.017  -0.300
    1UNL    C11   18   0.132   0.076  -0.258
    1UNL    C12   19   0.228  -0.029  -0.201
    1UNL    C13   20   0.271  -0.010  -0.054
    1UNL    C14   21   0.326  -0.146   0.017
    1UNL     O8   22   0.371  -0.122   0.139
    1UNL    C15   23   0.383  -0.238   0.209
    1UNL     O9   24   0.336  -0.341   0.162
    1UNL    C16   25   0.431  -0.215   0.343
    1UNL    C17   26   0.536  -0.138   0.377
    1UNL    C18   27   0.621  -0.060   0.286
    1UNL    C19   28   0.631  -0.091   0.152
    1UNL    C20   29   0.724  -0.024   0.071
    1UNL    C21   30   0.806   0.080   0.120
    1UNL    O10   31   0.905   0.137   0.048
    1UNL    C22   32   0.785   0.116   0.255
    1UNL    C23   33   0.699   0.047   0.337
    1UNL    C24   34   0.150   0.041   0.030
    1UNL    C25   35   0.019   0.003  -0.044
    1UNL    O11   36   0.002  -0.136  -0.063
    1UNL     H1   37  -0.113   0.286  -0.208
    1UNL     H2   38  -0.119  -0.054  -0.331
    1UNL     H3   39  -0.248   0.104  -0.110
    1UNL     H4   40  -0.494   0.111  -0.152
    1UNL     H5   41  -0.564  -0.008   0.179
    1UNL     H6   42  -0.498   0.259   0.031
    1UNL     H7   43  -0.439   0.205   0.185
    1UNL     H8   44  -0.711   0.224   0.196
    1UNL     H9   45  -0.715   0.116  -0.048
    1UNL    H10   46  -0.829  -0.072   0.131
    1UNL    H11   47  -0.664  -0.174  -0.005
    1UNL    H12   48  -0.824  -0.082  -0.215
    1UNL    H13   49  -0.542  -0.170  -0.213
    1UNL    H14   50  -0.660   0.078  -0.284
    1UNL    H15   51   0.110   0.055  -0.364
    1UNL    H16   52   0.168   0.178  -0.250
    1UNL    H17   53   0.314  -0.033  -0.261
    1UNL    H18   54   0.199  -0.134  -0.214
    1UNL    H19   55   0.350   0.064  -0.053
    1UNL    H20   56   0.415  -0.185  -0.040
    1UNL    H21   57   0.251  -0.229   0.018
    1UNL    H22   58   0.378  -0.262   0.423
    1UNL    H23   59   0.544  -0.100   0.475
    1UNL    H24   60   0.564  -0.166   0.110
    1UNL    H25   61   0.735  -0.055  -0.035
    1UNL    H26   62   0.906   0.106  -0.048
    1UNL    H27   63   0.846   0.204   0.298
    1UNL    H28   64   0.681   0.068   0.440
    1UNL    H29   65   0.152   0.153   0.040
    1UNL    H30   66   0.163  -0.001   0.126
    1UNL    H31   67  -0.058   0.022   0.031
    1UNL    H32   68   0.053  -0.183   0.009
   0.00000   0.00000   0.00000   0.00000   0.00000   0.00000   0.00000   0.00000   0.00000
Generated with MDTraj, t= 2.0
 68
    1UNL     O1    1  -0.014   0.271  -0.026
    1UNL     C1    2  -0.055   0.215  -0.124
    1UNL     C2    3  -0.010   0.072  -0.166
    1UNL     C3    4  -0.129   0.022  -0.239
    1UNL     C4    5  -0.253   0.023  -0.180
    1UNL     O2    6  -0.362  -0.029  -0.244
    1UNL     C5    7  -0.477   0.007  -0.162
    1UNL     O3    8  -0.450  -0.022  -0.025
    1UNL     C6    9  -0.541   0.036   0.069
    1UNL     C7   10  -0.512   0.180   0.108
    1UNL     O4   11  -0.606   0.224   0.203
    1UNL     C8   12  -0.689   0.027   0.014
    1UNL     O5   13  -0.787   0.020   0.113
    1UNL     C9   14  -0.696  -0.092  -0.083
    1UNL     O6   15  -0.835  -0.120  -0.113
    1UNL    C10   16  -0.613  -0.055  -0.211
    1UNL     O7   17  -0.690   0.039  -0.290
    1UNL    C11   18   0.114   0.071  -0.255
    1UNL    C12   19   0.221  -0.038  -0.215
    1UNL    C13   20   0.267  -0.009  -0.072
    1UNL    C14   21   0.329  -0.127   0.004
    1UNL     O8   22   0.373  -0.090   0.129
    1UNL    C15   23   0.372  -0.197   0.217
    1UNL     O9   24   0.339  -0.310   0.177
    1UNL    C16   25   0.415  -0.175   0.359
    1UNL    C17   26   0.529  -0.102   0.382
    1UNL    C18   27   0.642  -0.060   0.298
    1UNL    C19   28   0.665  -0.107   0.169
    1UNL    C20   29   0.758  -0.054   0.085
    1UNL    C21   30   0.831   0.059   0.124
    1UNL    O10   31   0.930   0.117   0.040
    1UNL    C22   32   0.815   0.103   0.256
    1UNL    C23   33   0.730   0.041   0.340
    1UNL    C24   34   0.155   0.042   0.028
    1UNL    C25   35   0.015   0.002  -0.031
    1UNL    O11   36   0.011  -0.142  -0.056
    1UNL     H1   37  -0.125   0.272  -0.182
    1UNL     H2   38  -0.111  -0.020  -0.329
    1UNL     H3   39  -0.263   0.030  -0.071
    1UNL     H4   40  -0.501   0.116  -0.159
    1UNL     H5   41  -0.523  -0.029   0.161
    1UNL     H6   42  -0.531   0.239   0.017
    1UNL     H7   43  -0.404   0.191   0.125
    1UNL     H8   44  -0.691   0.167   0.186
    1UNL     H9   45  -0.705   0.108  -0.061
    1UNL    H10   46  -0.792  -0.074   0.149
    1UNL    H11   47  -0.657  -0.181  -0.027
    1UNL    H12   48  -0.883  -0.037  -0.095
    1UNL    H13   49  -0.577  -0.141  -0.273
    1UNL    H14   50  -0.781  -0.001  -0.293
    1UNL    H15   51   0.068   0.069  -0.356
    1UNL    H16   52   0.168   0.163  -0.250
    1UNL    H17   53   0.303  -0.056  -0.276
    1UNL    H18   54   0.201  -0.146  -0.227
    1UNL    H19   55   0.342   0.065  -0.079
    1UNL    H20   56   0.416  -0.168  -0.058
    1UNL    H21   57   0.250  -0.210   0.014
    1UNL    H22   58   0.360  -0.228   0.438
    1UNL    H23   59   0.565  -0.094   0.490
    1UNL    H24   60   0.609  -0.191   0.133
    1UNL    H25   61   0.754  -0.086  -0.014
    1UNL    H26   62   0.933   0.078  -0.053
    1UNL    H27   63   0.873   0.182   0.282
    1UNL    H28   64   0.730   0.087   0.444
    1UNL    H29   65   0.160   0.156   0.041
    1UNL    H30   66   0.172  -0.002   0.120
    1UNL    H31   67  -0.069   0.028   0.032
    1UNL    H32   68  -0.051  -0.178  -0.127
   0.00000   0.00000   0.00000   0.00000   0.00000   0.00000   0.00000   0.00000   0.00000
Generated with MDTraj, t= 3.0
 68
    1UNL     O1    1  -0.056   0.269  -0.028
    1UNL     C1    2  -0.060   0.219  -0.137
    1UNL     C2    3  -0.018   0.072  -0.171
    1UNL     C3    4  -0.142   0.017  -0.246
    1UNL     C4    5  -0.268   0.037  -0.202
    1UNL     O2    6  -0.381  -0.017  -0.264
    1UNL     C5    7  -0.490   0.013  -0.170
    1UNL     O3    8  -0.458  -0.028  -0.035
    1UNL     C6    9  -0.547   0.029   0.061
    1UNL     C7   10  -0.512   0.168   0.108
    1UNL     O4   11  -0.591   0.200   0.221
    1UNL     C8   12  -0.695   0.016   0.020
    1UNL     O5   13  -0.780   0.002   0.136
    1UNL     C9   14  -0.712  -0.088  -0.092
    1UNL     O6   15  -0.846  -0.107  -0.140
    1UNL    C10   16  -0.631  -0.051  -0.218
    1UNL     O7   17  -0.697   0.042  -0.298
    1UNL    C11   18   0.112   0.066  -0.257
    1UNL    C12   19   0.222  -0.025  -0.198
    1UNL    C13   20   0.261   0.003  -0.053
    1UNL    C14   21   0.351  -0.111  -0.003
    1UNL     O8   22   0.408  -0.078   0.123
    1UNL    C15   23   0.390  -0.178   0.212
    1UNL     O9   24   0.335  -0.284   0.183
    1UNL    C16   25   0.438  -0.160   0.348
    1UNL    C17   26   0.541  -0.087   0.395
    1UNL    C18   27   0.652  -0.048   0.307
    1UNL    C19   28   0.680  -0.118   0.189
    1UNL    C20   29   0.777  -0.074   0.098
    1UNL    C21   30   0.863   0.035   0.125
    1UNL    O10   31   0.963   0.074   0.041
    1UNL    C22   32   0.834   0.097   0.247
    1UNL    C23   33   0.736   0.055   0.341
    1UNL    C24   34   0.140   0.032   0.033
    1UNL    C25   35   0.004   0.003  -0.034
    1UNL    O11   36  -0.020  -0.143  -0.032
    1UNL     H1   37  -0.097   0.277  -0.219
    1UNL     H2   38  -0.133  -0.065  -0.324
    1UNL     H3   39  -0.287   0.099  -0.112
    1UNL     H4   40  -0.507   0.124  -0.166
    1UNL     H5   41  -0.535  -0.033   0.158
    1UNL     H6   42  -0.511   0.244   0.027
    1UNL     H7   43  -0.407   0.172   0.142
    1UNL     H8   44  -0.664   0.140   0.216
    1UNL     H9   45  -0.723   0.114  -0.023
    1UNL    H10   46  -0.846  -0.068   0.137
    1UNL    H11   47  -0.689  -0.189  -0.046
    1UNL    H12   48  -0.910  -0.040  -0.109
    1UNL    H13   49  -0.601  -0.138  -0.285
    1UNL    H14   50  -0.785   0.003  -0.318
    1UNL    H15   51   0.103   0.033  -0.362
    1UNL    H16   52   0.145   0.167  -0.262
    1UNL    H17   53   0.309  -0.046  -0.250
    1UNL    H18   54   0.207  -0.135  -0.208
    1UNL    H19   55   0.314   0.093  -0.047
    1UNL    H20   56   0.435  -0.129  -0.081
    1UNL    H21   57   0.288  -0.207  -0.002
    1UNL    H22   58   0.353  -0.178   0.410
    1UNL    H23   59   0.530  -0.072   0.495
    1UNL    H24   60   0.604  -0.194   0.169
    1UNL    H25   61   0.797  -0.129   0.002
    1UNL    H26   62   0.987   0.002  -0.023
    1UNL    H27   63   0.907   0.176   0.276
    1UNL    H28   64   0.720   0.103   0.429
    1UNL    H29   65   0.142   0.142   0.060
    1UNL    H30   66   0.141  -0.024   0.122
    1UNL    H31   67  -0.089   0.038   0.016
    1UNL    H32   68   0.054  -0.199  -0.003
   0.00000   0.00000   0.00000   0.00000   0.00000   0.00000   0.00000   0.00000   0.00000
Generated with MDTraj, t= 4.0
 68
    1UNL     O1    1  -0.104   0.258  -0.035
    1UNL     C1    2  -0.045   0.215  -0.130
    1UNL     C2    3  -0.023   0.066  -0.172
    1UNL     C3    4  -0.148   0.027  -0.248
    1UNL     C4    5  -0.270   0.050  -0.206
    1UNL     O2    6  -0.388  -0.002  -0.261
    1UNL     C5    7  -0.490   0.022  -0.165
    1UNL     O3    8  -0.461  -0.020  -0.033
    1UNL     C6    9  -0.554   0.014   0.070
    1UNL     C7   10  -0.513   0.142   0.146
    1UNL     O4   11  -0.608   0.182   0.240
    1UNL     C8   12  -0.701   0.017   0.022
    1UNL     O5   13  -0.781  -0.014   0.134
    1UNL     C9   14  -0.718  -0.083  -0.098
    1UNL     O6   15  -0.846  -0.082  -0.156
    1UNL    C10   16  -0.621  -0.049  -0.215
    1UNL     O7   17  -0.679   0.024  -0.316
    1UNL    C11   18   0.098   0.049  -0.257
    1UNL    C12   19   0.204  -0.040  -0.201
    1UNL    C13   20   0.254   0.007  -0.063
    1UNL    C14   21   0.359  -0.082   0.003
    1UNL     O8   22   0.390  -0.046   0.138
    1UNL    C15   23   0.373  -0.150   0.219
    1UNL     O9   24   0.321  -0.256   0.184
    1UNL    C16   25   0.430  -0.125   0.352
    1UNL    C17   26   0.557  -0.088   0.376
    1UNL    C18   27   0.664  -0.049   0.289
    1UNL    C19   28   0.698  -0.131   0.179
    1UNL    C20   29   0.805  -0.103   0.105
    1UNL    C21   30   0.883   0.013   0.134
    1UNL    O10   31   1.003   0.041   0.072
    1UNL    C22   32   0.851   0.098   0.236
    1UNL    C23   33   0.740   0.071   0.312
    1UNL    C24   34   0.129   0.029   0.029
    1UNL    C25   35  -0.005  -0.010  -0.030
    1UNL    O11   36  -0.007  -0.152  -0.045
    1UNL     H1   37  -0.025   0.300  -0.200
    1UNL     H2   38  -0.149  -0.049  -0.323
    1UNL     H3   39  -0.284   0.131  -0.135
    1UNL     H4   40  -0.507   0.132  -0.164
    1UNL     H5   41  -0.553  -0.068   0.152
    1UNL     H6   42  -0.497   0.233   0.083
    1UNL     H7   43  -0.416   0.147   0.199
    1UNL     H8   44  -0.689   0.118   0.223
    1UNL     H9   45  -0.728   0.116  -0.020
    1UNL    H10   46  -0.855  -0.071   0.103
    1UNL    H11   47  -0.698  -0.189  -0.059
    1UNL    H12   48  -0.845  -0.034  -0.243
    1UNL    H13   49  -0.586  -0.144  -0.271
    1UNL    H14   50  -0.637   0.112  -0.324
    1UNL    H15   51   0.058   0.015  -0.355
    1UNL    H16   52   0.153   0.139  -0.282
    1UNL    H17   53   0.285  -0.056  -0.262
    1UNL    H18   54   0.174  -0.144  -0.187
    1UNL    H19   55   0.295   0.102  -0.076
    1UNL    H20   56   0.449  -0.095  -0.065
    1UNL    H21   57   0.309  -0.183   0.009
    1UNL    H22   58   0.367  -0.138   0.443
    1UNL    H23   59   0.587  -0.080   0.487
    1UNL    H24   60   0.636  -0.215   0.153
    1UNL    H25   61   0.818  -0.154   0.016
    1UNL    H26   62   1.036  -0.030   0.014
    1UNL    H27   63   0.909   0.194   0.250
    1UNL    H28   64   0.731   0.147   0.399
    1UNL    H29   65   0.118   0.132   0.068
    1UNL    H30   66   0.147  -0.032   0.121
    1UNL    H31   67  -0.079   0.028   0.047
    1UNL    H32   68  -0.054  -0.188   0.030
   0.00000   0.00000   0.00000   0.00000   0.00000   0.00000   0.00000   0.00000   0.00000
Generated with MDTraj, t= 5.0
 68
    1UNL     O1    1  -0.127   0.261  -0.061
    1UNL     C1    2  -0.038   0.212  -0.124
    1UNL     C2    3  -0.018   0.071  -0.170
    1UNL     C3    4  -0.150   0.036  -0.248
    1UNL     C4    5  -0.272   0.056  -0.193
    1UNL     O2    6  -0.391   0.019  -0.249
    1UNL     C5    7  -0.490   0.027  -0.155
    1UNL     O3    8  -0.458  -0.019  -0.024
    1UNL     C6    9  -0.561  -0.004   0.077
    1UNL     C7   10  -0.534   0.118   0.161
    1UNL     O4   11  -0.626   0.145   0.266
    1UNL     C8   12  -0.705   0.019   0.016
    1UNL     O5   13  -0.816   0.010   0.103
    1UNL     C9   14  -0.724  -0.090  -0.100
    1UNL     O6   15  -0.852  -0.065  -0.155
    1UNL    C10   16  -0.616  -0.054  -0.211
    1UNL     O7   17  -0.683   0.011  -0.315
    1UNL    C11   18   0.103   0.061  -0.260
    1UNL    C12   19   0.229  -0.017  -0.210
    1UNL    C13   20   0.269   0.014  -0.057
    1UNL    C14   21   0.377  -0.080  -0.016
    1UNL     O8   22   0.417  -0.043   0.114
    1UNL    C15   23   0.382  -0.130   0.220
    1UNL     O9   24   0.303  -0.223   0.200
    1UNL    C16   25   0.430  -0.105   0.356
    1UNL    C17   26   0.549  -0.043   0.388
    1UNL    C18   27   0.663  -0.028   0.288
    1UNL    C19   28   0.694  -0.128   0.195
    1UNL    C20   29   0.811  -0.117   0.122
    1UNL    C21   30   0.901  -0.015   0.140
    1UNL    O10   31   1.015  -0.004   0.063
    1UNL    C22   32   0.866   0.086   0.233
    1UNL    C23   33   0.754   0.074   0.314
    1UNL    C24   34   0.136   0.003   0.031
    1UNL    C25   35  -0.001  -0.025  -0.038
    1UNL    O11   36  -0.017  -0.166  -0.074
    1UNL     H1   37   0.042   0.281  -0.147
    1UNL     H2   38  -0.144  -0.008  -0.343
    1UNL     H3   39  -0.280   0.072  -0.087
    1UNL     H4   40  -0.511   0.136  -0.147
    1UNL     H5   41  -0.570  -0.106   0.129
    1UNL     H6   42  -0.536   0.214   0.102
    1UNL     H7   43  -0.429   0.122   0.195
    1UNL     H8   44  -0.704   0.110   0.231
    1UNL     H9   45  -0.714   0.120  -0.032
    1UNL    H10   46  -0.895  -0.007   0.044
    1UNL    H11   47  -0.712  -0.192  -0.046
    1UNL    H12   48  -0.871  -0.127  -0.227
    1UNL    H13   49  -0.575  -0.152  -0.259
    1UNL    H14   50  -0.764   0.057  -0.279
    1UNL    H15   51   0.084   0.010  -0.357
    1UNL    H16   52   0.119   0.163  -0.297
    1UNL    H17   53   0.311   0.003  -0.270
    1UNL    H18   54   0.222  -0.126  -0.216
    1UNL    H19   55   0.308   0.109  -0.045
    1UNL    H20   56   0.464  -0.058  -0.080
    1UNL    H21   57   0.354  -0.187  -0.015
    1UNL    H22   58   0.379  -0.146   0.438
    1UNL    H23   59   0.568  -0.000   0.479
    1UNL    H24   60   0.613  -0.195   0.181
    1UNL    H25   61   0.832  -0.196   0.046
    1UNL    H26   62   1.010  -0.054  -0.019
    1UNL    H27   63   0.939   0.153   0.250
    1UNL    H28   64   0.722   0.145   0.386
    1UNL    H29   65   0.126   0.088   0.098
    1UNL    H30   66   0.149  -0.084   0.108
    1UNL    H31   67  -0.082  -0.005   0.037
    1UNL    H32   68   0.061  -0.219  -0.046
   0.00000   0.00000   0.00000   0.00000   0.00000   0.00000   0.00000   0.00000   0.00000
Generated with MDTraj, t= 6.0
 68
    1UNL     O1    1  -0.125   0.264  -0.048
    1UNL     C1    2  -0.023   0.214  -0.086
    1UNL     C2    3  -0.012   0.072  -0.148
    1UNL     C3    4  -0.140   0.040  -0.228
    1UNL     C4    5  -0.262   0.040  -0.173
    1UNL     O2    6  -0.381  -0.013  -0.228
    1UNL     C5    7  -0.492   0.020  -0.149
    1UNL     O3    8  -0.471  -0.014  -0.009
    1UNL     C6    9  -0.580   0.002   0.082
    1UNL     C7   10  -0.550   0.122   0.173
    1UNL     O4   11  -0.620   0.108   0.296
    1UNL     C8   12  -0.723   0.019   0.009
    1UNL     O5   13  -0.837   0.013   0.082
    1UNL     C9   14  -0.728  -0.077  -0.112
    1UNL     O6   15  -0.857  -0.079  -0.160
    1UNL    C10   16  -0.616  -0.049  -0.214
    1UNL     O7   17  -0.668   0.023  -0.321
    1UNL    C11   18   0.107   0.074  -0.255
    1UNL    C12   19   0.221  -0.027  -0.221
    1UNL    C13   20   0.266   0.001  -0.069
    1UNL    C14   21   0.386  -0.083  -0.021
    1UNL     O8   22   0.450  -0.028   0.092
    1UNL    C15   23   0.391  -0.084   0.200
    1UNL     O9   24   0.303  -0.169   0.195
    1UNL    C16   25   0.419  -0.040   0.335
    1UNL    C17   26   0.540  -0.011   0.377
    1UNL    C18   27   0.658  -0.024   0.297
    1UNL    C19   28   0.678  -0.120   0.201
    1UNL    C20   29   0.793  -0.134   0.128
    1UNL    C21   30   0.892  -0.036   0.140
    1UNL    O10   31   1.006  -0.039   0.063
    1UNL    C22   32   0.876   0.059   0.245
    1UNL    C23   33   0.763   0.071   0.314
    1UNL    C24   34   0.140  -0.024   0.028
    1UNL    C25   35   0.006  -0.045  -0.048
    1UNL    O11   36   0.007  -0.173  -0.122
    1UNL     H1   37   0.066   0.263  -0.054
    1UNL     H2   38  -0.121  -0.015  -0.326
    1UNL     H3   39  -0.273   0.084  -0.075
    1UNL     H4   40  -0.499   0.130  -0.157
    1UNL     H5   41  -0.589  -0.096   0.137
    1UNL     H6   42  -0.553   0.218   0.112
    1UNL     H7   43  -0.444   0.118   0.205
    1UNL     H8   44  -0.716   0.080   0.270
    1UNL     H9   45  -0.714   0.125  -0.027
    1UNL    H10   46  -0.914  -0.007   0.029
    1UNL    H11   47  -0.704  -0.183  -0.066
    1UNL    H12   48  -0.864   0.009  -0.207
    1UNL    H13   49  -0.590  -0.158  -0.251
    1UNL    H14   50  -0.661  -0.026  -0.407
    1UNL    H15   51   0.074   0.066  -0.360
    1UNL    H16   52   0.164   0.171  -0.262
    1UNL    H17   53   0.309  -0.001  -0.274
    1UNL    H18   54   0.185  -0.131  -0.225
    1UNL    H19   55   0.297   0.100  -0.059
    1UNL    H20   56   0.468  -0.077  -0.091
    1UNL    H21   57   0.355  -0.184  -0.004
    1UNL    H22   58   0.337  -0.034   0.408
    1UNL    H23   59   0.557   0.033   0.480
    1UNL    H24   60   0.602  -0.199   0.193
    1UNL    H25   61   0.793  -0.208   0.050
    1UNL    H26   62   0.993  -0.083  -0.021
    1UNL    H27   63   0.956   0.137   0.262
    1UNL    H28   64   0.770   0.136   0.397
    1UNL    H29   65   0.126   0.062   0.094
    1UNL    H30   66   0.150  -0.113   0.104
    1UNL    H31   67  -0.085  -0.036   0.015
    1UNL    H32   68  -0.084  -0.199  -0.159
   0.00000   0.00000   0.00000   0.00000   0.00000   0.00000   0.00000   0.00000   0.00000
Generated with MDTraj, t= 7.0
 68
    1UNL     O1    1  -0.116   0.211   0.002
    1UNL     C1    2  -0.029   0.186  -0.077
    1UNL     C2    3  -0.014   0.061  -0.164
    1UNL     C3    4  -0.146   0.040  -0.233
    1UNL     C4    5  -0.257   0.037  -0.162
    1UNL     O2    6  -0.372   0.004  -0.222
    1UNL     C5    7  -0.485   0.029  -0.142
    1UNL     O3    8  -0.466  -0.029  -0.008
    1UNL     C6    9  -0.573  -0.017   0.083
    1UNL     C7   10  -0.550   0.096   0.187
    1UNL     O4   11  -0.660   0.120   0.274
    1UNL     C8   12  -0.721   0.013   0.017
    1UNL     O5   13  -0.835  -0.001   0.095
    1UNL     C9   14  -0.728  -0.071  -0.115
    1UNL     O6   15  -0.857  -0.053  -0.176
    1UNL    C10   16  -0.603  -0.044  -0.213
    1UNL     O7   17  -0.646   0.026  -0.332
    1UNL    C11   18   0.103   0.072  -0.266
    1UNL    C12   19   0.236   0.003  -0.220
    1UNL    C13   20   0.256   0.015  -0.070
    1UNL    C14   21   0.396  -0.055  -0.026
    1UNL     O8   22   0.445   0.001   0.099
    1UNL    C15   23   0.379  -0.058   0.203
    1UNL     O9   24   0.305  -0.156   0.191
    1UNL    C16   25   0.419  -0.001   0.336
    1UNL    C17   26   0.548   0.036   0.363
    1UNL    C18   27   0.665  -0.001   0.285
    1UNL    C19   28   0.664  -0.110   0.202
    1UNL    C20   29   0.779  -0.138   0.130
    1UNL    C21   30   0.900  -0.069   0.153
    1UNL    O10   31   1.004  -0.082   0.067
    1UNL    C22   32   0.901   0.039   0.246
    1UNL    C23   33   0.782   0.073   0.306
    1UNL    C24   34   0.137  -0.052   0.007
    1UNL    C25   35   0.003  -0.057  -0.061
    1UNL    O11   36  -0.027  -0.183  -0.130
    1UNL     H1   37   0.062   0.249  -0.070
    1UNL     H2   38  -0.152  -0.005  -0.324
    1UNL     H3   39  -0.255   0.092  -0.065
    1UNL     H4   40  -0.499   0.139  -0.140
    1UNL     H5   41  -0.584  -0.111   0.136
    1UNL     H6   42  -0.527   0.192   0.132
    1UNL     H7   43  -0.460   0.080   0.249
    1UNL     H8   44  -0.750   0.089   0.237
    1UNL     H9   45  -0.719   0.119  -0.024
    1UNL    H10   46  -0.899  -0.061   0.053
    1UNL    H11   47  -0.727  -0.187  -0.097
    1UNL    H12   48  -0.894   0.036  -0.150
    1UNL    H13   49  -0.566  -0.148  -0.255
    1UNL    H14   50  -0.742   0.017  -0.345
    1UNL    H15   51   0.074   0.038  -0.367
    1UNL    H16   52   0.126   0.181  -0.290
    1UNL    H17   53   0.323   0.053  -0.264
    1UNL    H18   54   0.206  -0.103  -0.236
    1UNL    H19   55   0.263   0.120  -0.057
    1UNL    H20   56   0.468  -0.038  -0.101
    1UNL    H21   57   0.378  -0.157  -0.016
    1UNL    H22   58   0.337   0.013   0.402
    1UNL    H23   59   0.563   0.082   0.459
    1UNL    H24   60   0.570  -0.150   0.183
    1UNL    H25   61   0.781  -0.220   0.062
    1UNL    H26   62   0.984  -0.158   0.008
    1UNL    H27   63   1.000   0.076   0.269
    1UNL    H28   64   0.773   0.163   0.381
    1UNL    H29   65   0.127  -0.004   0.108
    1UNL    H30   66   0.158  -0.160   0.032
    1UNL    H31   67  -0.072  -0.042   0.017
    1UNL    H32   68  -0.112  -0.229  -0.105
   0.00000   0.00000   0.00000   0.00000   0.00000   0.00000   0.00000   0.00000   0.00000
Generated with MDTraj, t= 8.0
 68
    1UNL     O1    1  -0.027   0.172   0.055
    1UNL     C1    2  -0.028   0.175  -0.064
    1UNL     C2    3  -0.021   0.060  -0.159
    1UNL     C3    4  -0.156   0.037  -0.226
    1UNL     C4    5  -0.279   0.040  -0.170
    1UNL     O2    6  -0.399   0.024  -0.237
    1UNL     C5    7  -0.512   0.018  -0.149
    1UNL     O3    8  -0.483  -0.048  -0.025
    1UNL     C6    9  -0.584  -0.032   0.073
    1UNL     C7   10  -0.546   0.078   0.168
    1UNL     O4   11  -0.646   0.129   0.244
    1UNL     C8   12  -0.727   0.003   0.012
    1UNL     O5   13  -0.824  -0.014   0.115
    1UNL     C9   14  -0.746  -0.074  -0.123
    1UNL     O6   15  -0.875  -0.042  -0.172
    1UNL    C10   16  -0.633  -0.038  -0.223
    1UNL     O7   17  -0.672   0.045  -0.328
    1UNL    C11   18   0.091   0.071  -0.263
    1UNL    C12   19   0.223  -0.007  -0.221
    1UNL    C13   20   0.241   0.020  -0.073
    1UNL    C14   21   0.393  -0.018  -0.026
    1UNL     O8   22   0.423   0.051   0.098
    1UNL    C15   23   0.389  -0.023   0.213
    1UNL     O9   24   0.335  -0.132   0.203
    1UNL    C16   25   0.437   0.023   0.344
    1UNL    C17   26   0.565   0.042   0.377
    1UNL    C18   27   0.675   0.004   0.291
    1UNL    C19   28   0.671  -0.106   0.200
    1UNL    C20   29   0.780  -0.145   0.131
    1UNL    C21   30   0.904  -0.082   0.148
    1UNL    O10   31   1.023  -0.137   0.096
    1UNL    C22   32   0.905   0.032   0.231
    1UNL    C23   33   0.793   0.079   0.294
    1UNL    C24   34   0.125  -0.050   0.009
    1UNL    C25   35   0.001  -0.072  -0.067
    1UNL    O11   36  -0.002  -0.194  -0.146
    1UNL     H1   37  -0.062   0.272  -0.095
    1UNL     H2   38  -0.148   0.001  -0.330
    1UNL     H3   39  -0.286   0.035  -0.060
    1UNL     H4   40  -0.529   0.123  -0.124
    1UNL     H5   41  -0.589  -0.126   0.125
    1UNL     H6   42  -0.509   0.165   0.105
    1UNL     H7   43  -0.455   0.046   0.225
    1UNL     H8   44  -0.720   0.074   0.246
    1UNL     H9   45  -0.736   0.116  -0.003
    1UNL    H10   46  -0.913  -0.043   0.078
    1UNL    H11   47  -0.750  -0.187  -0.093
    1UNL    H12   48  -0.863   0.025  -0.241
    1UNL    H13   49  -0.589  -0.133  -0.276
    1UNL    H14   50  -0.591   0.089  -0.367
    1UNL    H15   51   0.061   0.036  -0.365
    1UNL    H16   52   0.100   0.184  -0.288
    1UNL    H17   53   0.307   0.033  -0.285
    1UNL    H18   54   0.198  -0.114  -0.209
    1UNL    H19   55   0.231   0.127  -0.070
    1UNL    H20   56   0.467   0.014  -0.096
    1UNL    H21   57   0.392  -0.121  -0.009
    1UNL    H22   58   0.361   0.057   0.414
    1UNL    H23   59   0.577   0.090   0.471
    1UNL    H24   60   0.582  -0.173   0.195
    1UNL    H25   61   0.774  -0.229   0.060
    1UNL    H26   62   1.017  -0.232   0.068
    1UNL    H27   63   0.997   0.076   0.256
    1UNL    H28   64   0.806   0.154   0.360
    1UNL    H29   65   0.111   0.014   0.104
    1UNL    H30   66   0.167  -0.143   0.043
    1UNL    H31   67  -0.082  -0.073   0.004
    1UNL    H32   68  -0.090  -0.203  -0.184
   0.00000   0.00000   0.00000   0.00000   0.00000   0.00000   0.00000   0.00000   0.00000
Generated with MDTraj, t= 9.0
 68
    1UNL     O1    1   0.017   0.193   0.043
    1UNL     C1    2  -0.049   0.157  -0.051
    1UNL     C2    3  -0.034   0.040  -0.146
    1UNL     C3    4  -0.165   0.024  -0.217
    1UNL     C4    5  -0.289   0.016  -0.166
    1UNL     O2    6  -0.405   0.001  -0.247
    1UNL     C5    7  -0.518   0.021  -0.159
    1UNL     O3    8  -0.503  -0.063  -0.046
    1UNL     C6    9  -0.595  -0.029   0.061
    1UNL     C7   10  -0.546   0.091   0.145
    1UNL     O4   11  -0.610   0.120   0.264
    1UNL     C8   12  -0.735  -0.001   0.007
    1UNL     O5   13  -0.830  -0.021   0.110
    1UNL     C9   14  -0.760  -0.076  -0.129
    1UNL     O6   15  -0.888  -0.047  -0.185
    1UNL    C10   16  -0.648  -0.027  -0.232
    1UNL     O7   17  -0.702   0.075  -0.303
    1UNL    C11   18   0.074   0.072  -0.251
    1UNL    C12   19   0.220   0.032  -0.210
    1UNL    C13   20   0.233   0.040  -0.058
    1UNL    C14   21   0.386   0.009  -0.022
    1UNL     O8   22   0.424   0.073   0.097
    1UNL    C15   23   0.394  -0.009   0.200
    1UNL     O9   24   0.346  -0.121   0.205
    1UNL    C16   25   0.442   0.050   0.323
    1UNL    C17   26   0.574   0.071   0.353
    1UNL    C18   27   0.690   0.011   0.297
    1UNL    C19   28   0.678  -0.113   0.225
    1UNL    C20   29   0.786  -0.168   0.154
    1UNL    C21   30   0.915  -0.106   0.160
    1UNL    O10   31   1.021  -0.153   0.095
    1UNL    C22   32   0.922   0.009   0.237
    1UNL    C23   33   0.818   0.068   0.306
    1UNL    C24   34   0.135  -0.067   0.011
    1UNL    C25   35   0.001  -0.091  -0.067
    1UNL    O11   36   0.019  -0.201  -0.159
    1UNL     H1   37  -0.118   0.227  -0.092
    1UNL     H2   38  -0.153   0.013  -0.327
    1UNL     H3   39  -0.306   0.009  -0.060
    1UNL     H4   40  -0.531   0.126  -0.128
    1UNL     H5   41  -0.589  -0.120   0.115
    1UNL     H6   42  -0.524   0.174   0.071
    1UNL     H7   43  -0.444   0.066   0.183
    1UNL     H8   44  -0.709   0.082   0.248
    1UNL     H9   45  -0.743   0.111  -0.018
    1UNL    H10   46  -0.908  -0.060   0.068
    1UNL    H11   47  -0.757  -0.192  -0.113
    1UNL    H12   48  -0.877  -0.071  -0.281
    1UNL    H13   49  -0.615  -0.104  -0.313
    1UNL    H14   50  -0.760   0.133  -0.246
    1UNL    H15   51   0.035   0.034  -0.352
    1UNL    H16   52   0.069   0.185  -0.277
    1UNL    H17   53   0.297   0.108  -0.245
    1UNL    H18   54   0.238  -0.074  -0.232
    1UNL    H19   55   0.217   0.146  -0.037
    1UNL    H20   56   0.447   0.054  -0.100
    1UNL    H21   57   0.413  -0.093  -0.013
    1UNL    H22   58   0.367   0.074   0.397
    1UNL    H23   59   0.606   0.148   0.431
    1UNL    H24   60   0.582  -0.157   0.225
    1UNL    H25   61   0.777  -0.257   0.100
    1UNL    H26   62   0.994  -0.230   0.035
    1UNL    H27   63   1.026   0.053   0.243
    1UNL    H28   64   0.829   0.153   0.374
    1UNL    H29   65   0.121  -0.014   0.115
    1UNL    H30   66   0.192  -0.153   0.031
    1UNL    H31   67  -0.084  -0.102   0.002
    1UNL    H32   68  -0.034  -0.195  -0.238
   0.00000   0.00000   0.00000   0.00000   0.00000   0.00000   0.00000   0.00000   0.00000
Generated with MDTraj, t= 10.0
 68
    1UNL     O1    1  -0.004   0.222   0.001
    1UNL     C1    2  -0.081   0.144  -0.047
    1UNL     C2    3  -0.035   0.041  -0.149
    1UNL     C3    4  -0.157   0.012  -0.239
    1UNL     C4    5  -0.282  -0.006  -0.191
    1UNL     O2    6  -0.401  -0.028  -0.257
    1UNL     C5    7  -0.515  -0.002  -0.164
    1UNL     O3    8  -0.494  -0.053  -0.028
    1UNL     C6    9  -0.600  -0.033   0.069
    1UNL     C7   10  -0.554   0.078   0.166
    1UNL     O4   11  -0.645   0.099   0.275
    1UNL     C8   12  -0.740   0.004   0.002
    1UNL     O5   13  -0.846  -0.009   0.101
    1UNL     C9   14  -0.759  -0.075  -0.129
    1UNL     O6   15  -0.892  -0.061  -0.170
    1UNL    C10   16  -0.658  -0.016  -0.235
    1UNL     O7   17  -0.704   0.109  -0.278
    1UNL    C11   18   0.078   0.102  -0.237
    1UNL    C12   19   0.217   0.040  -0.219
    1UNL    C13   20   0.244   0.045  -0.066
    1UNL    C14   21   0.397   0.008  -0.034
    1UNL     O8   22   0.439   0.080   0.087
    1UNL    C15   23   0.412   0.008   0.202
    1UNL     O9   24   0.361  -0.105   0.192
    1UNL    C16   25   0.460   0.080   0.326
    1UNL    C17   26   0.587   0.069   0.377
    1UNL    C18   27   0.695  -0.002   0.308
    1UNL    C19   28   0.670  -0.111   0.226
    1UNL    C20   29   0.775  -0.164   0.160
    1UNL    C21   30   0.905  -0.115   0.168
    1UNL    O10   31   1.020  -0.180   0.112
    1UNL    C22   32   0.925   0.002   0.241
    1UNL    C23   33   0.824   0.051   0.311
    1UNL    C24   34   0.149  -0.059   0.003
    1UNL    C25   35   0.020  -0.084  -0.083
    1UNL    O11   36   0.028  -0.210  -0.161
    1UNL     H1   37  -0.184   0.154  -0.007
    1UNL     H2   38  -0.142  -0.007  -0.338
    1UNL     H3   39  -0.302   0.021  -0.090
    1UNL     H4   40  -0.512   0.106  -0.146
    1UNL     H5   41  -0.595  -0.123   0.126
    1UNL     H6   42  -0.546   0.181   0.122
    1UNL     H7   43  -0.450   0.062   0.203
    1UNL     H8   44  -0.731   0.107   0.244
    1UNL     H9   45  -0.742   0.116  -0.024
    1UNL    H10   46  -0.924  -0.032   0.048
    1UNL    H11   47  -0.745  -0.190  -0.106
    1UNL    H12   48  -0.898  -0.105  -0.257
    1UNL    H13   49  -0.646  -0.086  -0.327
    1UNL    H14   50  -0.801   0.105  -0.283
    1UNL    H15   51   0.035   0.097  -0.346
    1UNL    H16   52   0.069   0.216  -0.221
    1UNL    H17   53   0.294   0.112  -0.266
    1UNL    H18   54   0.221  -0.066  -0.246
    1UNL    H19   55   0.221   0.143  -0.022
    1UNL    H20   56   0.465   0.065  -0.104
    1UNL    H21   57   0.415  -0.099  -0.047
    1UNL    H22   58   0.389   0.136   0.383
    1UNL    H23   59   0.616   0.138   0.445
    1UNL    H24   60   0.571  -0.156   0.215
    1UNL    H25   61   0.757  -0.253   0.096
    1UNL    H26   62   0.995  -0.260   0.058
    1UNL    H27   63   1.020   0.039   0.245
    1UNL    H28   64   0.837   0.142   0.383
    1UNL    H29   65   0.117  -0.009   0.104
    1UNL    H30   66   0.207  -0.143   0.028
    1UNL    H31   67  -0.064  -0.108  -0.012
    1UNL    H32   68  -0.052  -0.268  -0.178
   0.00000   0.00000   0.00000   0.00000   0.00000   0.00000   0.00000   0.00000   0.00000
Generated with MDTraj, t= 11.0
 68
    1UNL     O1    1  -0.001   0.249  -0.040
    1UNL     C1    2  -0.067   0.150  -0.052
    1UNL     C2    3  -0.044   0.038  -0.152
    1UNL     C3    4  -0.171   0.011  -0.215
    1UNL     C4    5  -0.282  -0.019  -0.152
    1UNL     O2    6  -0.397  -0.019  -0.222
    1UNL     C5    7  -0.504   0.007  -0.137
    1UNL     O3    8  -0.497  -0.069  -0.019
    1UNL     C6    9  -0.597  -0.043   0.079
    1UNL     C7   10  -0.560   0.068   0.185
    1UNL     O4   11  -0.668   0.101   0.280
    1UNL     C8   12  -0.730  -0.009   0.006
    1UNL     O5   13  -0.854  -0.021   0.083
    1UNL     C9   14  -0.748  -0.074  -0.130
    1UNL     O6   15  -0.884  -0.052  -0.179
    1UNL    C10   16  -0.639  -0.016  -0.222
    1UNL     O7   17  -0.675   0.101  -0.295
    1UNL    C11   18   0.060   0.091  -0.252
    1UNL    C12   19   0.205   0.050  -0.227
    1UNL    C13   20   0.230   0.060  -0.075
    1UNL    C14   21   0.382   0.025  -0.040
    1UNL     O8   22   0.433   0.095   0.076
    1UNL    C15   23   0.411   0.012   0.183
    1UNL     O9   24   0.355  -0.098   0.182
    1UNL    C16   25   0.458   0.076   0.308
    1UNL    C17   26   0.584   0.074   0.350
    1UNL    C18   27   0.691  -0.002   0.300
    1UNL    C19   28   0.668  -0.108   0.215
    1UNL    C20   29   0.772  -0.181   0.159
    1UNL    C21   30   0.905  -0.139   0.182
    1UNL    O10   31   1.016  -0.194   0.126
    1UNL    C22   32   0.926  -0.024   0.266
    1UNL    C23   33   0.824   0.042   0.325
    1UNL    C24   34   0.141  -0.035   0.008
    1UNL    C25   35   0.024  -0.086  -0.075
    1UNL    O11   36   0.067  -0.183  -0.175
    1UNL     H1   37  -0.148   0.138   0.017
    1UNL     H2   38  -0.184   0.041  -0.325
    1UNL     H3   39  -0.287  -0.054  -0.048
    1UNL     H4   40  -0.500   0.113  -0.111
    1UNL     H5   41  -0.611  -0.136   0.135
    1UNL     H6   42  -0.531   0.164   0.134
    1UNL     H7   43  -0.475   0.044   0.250
    1UNL     H8   44  -0.759   0.059   0.249
    1UNL     H9   45  -0.731   0.107  -0.010
    1UNL    H10   46  -0.926  -0.045   0.015
    1UNL    H11   47  -0.749  -0.191  -0.117
    1UNL    H12   48  -0.898  -0.111  -0.254
    1UNL    H13   49  -0.600  -0.091  -0.300
    1UNL    H14   50  -0.757   0.086  -0.348
    1UNL    H15   51   0.025   0.058  -0.360
    1UNL    H16   52   0.038   0.204  -0.251
    1UNL    H17   53   0.267   0.136  -0.273
    1UNL    H18   54   0.220  -0.051  -0.267
    1UNL    H19   55   0.201   0.163  -0.045
    1UNL    H20   56   0.432   0.064  -0.137
    1UNL    H21   57   0.413  -0.083  -0.033
    1UNL    H22   58   0.383   0.133   0.363
    1UNL    H23   59   0.605   0.148   0.436
    1UNL    H24   60   0.568  -0.141   0.193
    1UNL    H25   61   0.753  -0.251   0.082
    1UNL    H26   62   0.981  -0.279   0.089
    1UNL    H27   63   1.031   0.015   0.275
    1UNL    H28   64   0.836   0.124   0.382
    1UNL    H29   65   0.103   0.023   0.098
    1UNL    H30   66   0.198  -0.118   0.049
    1UNL    H31   67  -0.061  -0.124  -0.012
    1UNL    H32   68  -0.017  -0.238  -0.187
   0.00000   0.00000   0.00000   0.00000   0.00000   0.00000   0.00000   0.00000   0.00000
Generated with MDTraj, t= 12.0
 68
    1UNL     O1    1   0.039   0.262  -0.055
    1UNL     C1    2  -0.047   0.183  -0.078
    1UNL     C2    3  -0.030   0.061  -0.162
    1UNL     C3    4  -0.164   0.011  -0.220
    1UNL     C4    5  -0.281   0.017  -0.156
    1UNL     O2    6  -0.394  -0.048  -0.201
    1UNL     C5    7  -0.513  -0.024  -0.125
    1UNL     O3    8  -0.524  -0.091   0.003
    1UNL     C6    9  -0.631  -0.053   0.091
    1UNL     C7   10  -0.589   0.071   0.174
    1UNL     O4   11  -0.672   0.088   0.284
    1UNL     C8   12  -0.754  -0.017   0.008
    1UNL     O5   13  -0.869  -0.029   0.088
    1UNL     C9   14  -0.766  -0.084  -0.127
    1UNL     O6   15  -0.890  -0.032  -0.176
    1UNL    C10   16  -0.647  -0.043  -0.217
    1UNL     O7   17  -0.680   0.075  -0.289
    1UNL    C11   18   0.084   0.095  -0.271
    1UNL    C12   19   0.233   0.053  -0.232
    1UNL    C13   20   0.259   0.073  -0.086
    1UNL    C14   21   0.409   0.058  -0.050
    1UNL     O8   22   0.442   0.117   0.077
    1UNL    C15   23   0.412   0.030   0.178
    1UNL     O9   24   0.365  -0.080   0.156
    1UNL    C16   25   0.450   0.058   0.313
    1UNL    C17   26   0.580   0.067   0.352
    1UNL    C18   27   0.686   0.004   0.283
    1UNL    C19   28   0.665  -0.110   0.202
    1UNL    C20   29   0.768  -0.182   0.147
    1UNL    C21   30   0.895  -0.150   0.188
    1UNL    O10   31   1.012  -0.219   0.153
    1UNL    C22   32   0.920  -0.045   0.283
    1UNL    C23   33   0.813   0.025   0.332
    1UNL    C24   34   0.173  -0.032  -0.010
    1UNL    C25   35   0.035  -0.054  -0.077
    1UNL    O11   36   0.045  -0.170  -0.154
    1UNL     H1   37  -0.142   0.188  -0.028
    1UNL     H2   38  -0.167  -0.049  -0.306
    1UNL     H3   39  -0.284   0.051  -0.052
    1UNL     H4   40  -0.514   0.082  -0.106
    1UNL     H5   41  -0.652  -0.143   0.153
    1UNL     H6   42  -0.583   0.160   0.106
    1UNL     H7   43  -0.492   0.050   0.216
    1UNL     H8   44  -0.758   0.064   0.250
    1UNL     H9   45  -0.745   0.097  -0.017
    1UNL    H10   46  -0.947  -0.050   0.031
    1UNL    H11   47  -0.780  -0.199  -0.124
    1UNL    H12   48  -0.895  -0.047  -0.273
    1UNL    H13   49  -0.621  -0.121  -0.295
    1UNL    H14   50  -0.754   0.118  -0.240
    1UNL    H15   51   0.041   0.062  -0.374
    1UNL    H16   52   0.083   0.211  -0.271
    1UNL    H17   53   0.296   0.120  -0.299
    1UNL    H18   54   0.245  -0.054  -0.249
    1UNL    H19   55   0.221   0.171  -0.049
    1UNL    H20   56   0.474   0.113  -0.131
    1UNL    H21   57   0.442  -0.050  -0.056
    1UNL    H22   58   0.375   0.103   0.375
    1UNL    H23   59   0.596   0.098   0.449
    1UNL    H24   60   0.566  -0.134   0.173
    1UNL    H25   61   0.762  -0.275   0.090
    1UNL    H26   62   0.993  -0.298   0.101
    1UNL    H27   63   1.014  -0.033   0.331
    1UNL    H28   64   0.831   0.099   0.412
    1UNL    H29   65   0.161  -0.005   0.095
    1UNL    H30   66   0.220  -0.133  -0.008
    1UNL    H31   67  -0.038  -0.078   0.005
    1UNL    H32   68  -0.039  -0.220  -0.161
   0.00000   0.00000   0.00000   0.00000   0.00000   0.00000   0.00000   0.00000   0.00000
Generated with MDTraj, t= 13.0
 68
    1UNL     O1    1   0.043   0.267  -0.057
    1UNL     C1    2  -0.049   0.202  -0.095
    1UNL     C2    3  -0.042   0.078  -0.166
    1UNL     C3    4  -0.179   0.036  -0.212
    1UNL     C4    5  -0.282  -0.008  -0.138
    1UNL     O2    6  -0.402  -0.023  -0.206
    1UNL     C5    7  -0.509  -0.005  -0.121
    1UNL     O3    8  -0.511  -0.082   0.000
    1UNL     C6    9  -0.621  -0.063   0.095
    1UNL     C7   10  -0.590   0.031   0.210
    1UNL     O4   11  -0.693   0.094   0.281
    1UNL     C8   12  -0.742  -0.013   0.008
    1UNL     O5   13  -0.853  -0.025   0.090
    1UNL     C9   14  -0.752  -0.093  -0.122
    1UNL     O6   15  -0.875  -0.068  -0.192
    1UNL    C10   16  -0.631  -0.045  -0.210
    1UNL     O7   17  -0.656   0.062  -0.299
    1UNL    C11   18   0.061   0.076  -0.291
    1UNL    C12   19   0.208   0.042  -0.251
    1UNL    C13   20   0.244   0.084  -0.109
    1UNL    C14   21   0.388   0.066  -0.074
    1UNL     O8   22   0.418   0.128   0.053
    1UNL    C15   23   0.423   0.039   0.156
    1UNL     O9   24   0.399  -0.078   0.129
    1UNL    C16   25   0.459   0.081   0.294
    1UNL    C17   26   0.578   0.059   0.359
    1UNL    C18   27   0.684  -0.029   0.307
    1UNL    C19   28   0.665  -0.120   0.202
    1UNL    C20   29   0.769  -0.187   0.155
    1UNL    C21   30   0.902  -0.161   0.202
    1UNL    O10   31   1.015  -0.225   0.159
    1UNL    C22   32   0.920  -0.074   0.304
    1UNL    C23   33   0.813  -0.004   0.356
    1UNL    C24   34   0.157   0.017   0.002
    1UNL    C25   35   0.021  -0.025  -0.058
    1UNL    O11   36   0.037  -0.156  -0.111
    1UNL     H1   37  -0.148   0.250  -0.080
    1UNL     H2   38  -0.205   0.059  -0.315
    1UNL     H3   39  -0.280  -0.033  -0.034
    1UNL     H4   40  -0.513   0.098  -0.097
    1UNL     H5   41  -0.643  -0.164   0.143
    1UNL     H6   42  -0.536   0.116   0.165
    1UNL     H7   43  -0.526  -0.025   0.274
    1UNL     H8   44  -0.778   0.074   0.233
    1UNL     H9   45  -0.719   0.099  -0.019
    1UNL    H10   46  -0.916  -0.085   0.052
    1UNL    H11   47  -0.750  -0.203  -0.095
    1UNL    H12   48  -0.882   0.029  -0.207
    1UNL    H13   49  -0.593  -0.132  -0.271
    1UNL    H14   50  -0.621   0.042  -0.387
    1UNL    H15   51   0.014   0.001  -0.363
    1UNL    H16   52   0.052   0.183  -0.338
    1UNL    H17   53   0.281   0.102  -0.313
    1UNL    H18   54   0.214  -0.067  -0.269
    1UNL    H19   55   0.226   0.191  -0.099
    1UNL    H20   56   0.468   0.109  -0.148
    1UNL    H21   57   0.415  -0.043  -0.076
    1UNL    H22   58   0.388   0.144   0.345
    1UNL    H23   59   0.588   0.075   0.470
    1UNL    H24   60   0.566  -0.141   0.159
    1UNL    H25   61   0.750  -0.247   0.068
    1UNL    H26   62   0.980  -0.287   0.094
    1UNL    H27   63   1.017  -0.048   0.336
    1UNL    H28   64   0.826   0.076   0.435
    1UNL    H29   65   0.146   0.074   0.089
    1UNL    H30   66   0.213  -0.076   0.038
    1UNL    H31   67  -0.050  -0.033   0.025
    1UNL    H32   68  -0.036  -0.196  -0.160
   0.00000   0.00000   0.00000   0.00000   0.00000   0.00000   0.00000   0.00000   0.00000
Generated with MDTraj, t= 14.0
 68
    1UNL     O1    1   0.007   0.300  -0.066
    1UNL     C1    2  -0.076   0.236  -0.127
    1UNL     C2    3  -0.050   0.095  -0.169
    1UNL     C3    4  -0.167   0.030  -0.229
    1UNL     C4    5  -0.281   0.033  -0.165
    1UNL     O2    6  -0.392  -0.034  -0.211
    1UNL     C5    7  -0.511  -0.029  -0.132
    1UNL     O3    8  -0.497  -0.083   0.003
    1UNL     C6    9  -0.610  -0.052   0.090
    1UNL     C7   10  -0.586   0.056   0.192
    1UNL     O4   11  -0.679   0.051   0.302
    1UNL     C8   12  -0.748  -0.023   0.010
    1UNL     O5   13  -0.854  -0.022   0.105
    1UNL     C9   14  -0.762  -0.104  -0.118
    1UNL     O6   15  -0.883  -0.079  -0.185
    1UNL    C10   16  -0.643  -0.065  -0.215
    1UNL     O7   17  -0.674   0.036  -0.305
    1UNL    C11   18   0.068   0.095  -0.283
    1UNL    C12   19   0.204   0.034  -0.248
    1UNL    C13   20   0.252   0.090  -0.105
    1UNL    C14   21   0.400   0.073  -0.076
    1UNL     O8   22   0.447   0.134   0.038
    1UNL    C15   23   0.437   0.038   0.133
    1UNL     O9   24   0.393  -0.077   0.111
    1UNL    C16   25   0.475   0.089   0.269
    1UNL    C17   26   0.576   0.048   0.344
    1UNL    C18   27   0.686  -0.038   0.310
    1UNL    C19   28   0.673  -0.129   0.201
    1UNL    C20   29   0.784  -0.202   0.157
    1UNL    C21   30   0.908  -0.183   0.219
    1UNL    O10   31   1.031  -0.235   0.180
    1UNL    C22   32   0.915  -0.099   0.328
    1UNL    C23   33   0.808  -0.030   0.378
    1UNL    C24   34   0.154   0.034   0.006
    1UNL    C25   35   0.007   0.008  -0.038
    1UNL    O11   36   0.003  -0.131  -0.067
    1UNL     H1   37  -0.169   0.282  -0.150
    1UNL     H2   38  -0.153  -0.035  -0.319
    1UNL     H3   39  -0.290   0.109  -0.088
    1UNL     H4   40  -0.518   0.074  -0.113
    1UNL     H5   41  -0.640  -0.140   0.158
    1UNL     H6   42  -0.598   0.150   0.138
    1UNL     H7   43  -0.495   0.048   0.246
    1UNL     H8   44  -0.776   0.042   0.266
    1UNL     H9   45  -0.741   0.083  -0.042
    1UNL    H10   46  -0.932  -0.066   0.060
    1UNL    H11   47  -0.769  -0.213  -0.088
    1UNL    H12   48  -0.865  -0.009  -0.250
    1UNL    H13   49  -0.624  -0.150  -0.281
    1UNL    H14   50  -0.595   0.087  -0.333
    1UNL    H15   51   0.024   0.045  -0.375
    1UNL    H16   52   0.074   0.209  -0.305
    1UNL    H17   53   0.268   0.053  -0.336
    1UNL    H18   54   0.194  -0.075  -0.230
    1UNL    H19   55   0.239   0.198  -0.101
    1UNL    H20   56   0.465   0.106  -0.165
    1UNL    H21   57   0.437  -0.030  -0.066
    1UNL    H22   58   0.409   0.164   0.310
    1UNL    H23   59   0.590   0.095   0.439
    1UNL    H24   60   0.583  -0.125   0.141
    1UNL    H25   61   0.793  -0.273   0.076
    1UNL    H26   62   1.028  -0.288   0.099
    1UNL    H27   63   1.019  -0.092   0.376
    1UNL    H28   64   0.826   0.049   0.438
    1UNL    H29   65   0.172   0.093   0.088
    1UNL    H30   66   0.191  -0.069   0.042
    1UNL    H31   67  -0.061   0.040   0.041
    1UNL    H32   68  -0.052  -0.141  -0.148
   0.00000   0.00000   0.00000   0.00000   0.00000   0.00000   0.00000   0.00000   0.00000
Generated with MDTraj, t= 15.0
 68
    1UNL     O1    1  -0.004   0.315  -0.082
    1UNL     C1    2  -0.076   0.250  -0.149
    1UNL     C2    3  -0.046   0.103  -0.173
    1UNL     C3    4  -0.175   0.033  -0.220
    1UNL     C4    5  -0.293   0.026  -0.156
    1UNL     O2    6  -0.402  -0.019  -0.222
    1UNL     C5    7  -0.518  -0.009  -0.145
    1UNL     O3    8  -0.489  -0.064  -0.015
    1UNL     C6    9  -0.596  -0.058   0.089
    1UNL     C7   10  -0.567   0.047   0.191
    1UNL     O4   11  -0.650   0.051   0.309
    1UNL     C8   12  -0.742  -0.034   0.019
    1UNL     O5   13  -0.853  -0.040   0.105
    1UNL     C9   14  -0.764  -0.113  -0.111
    1UNL     O6   15  -0.895  -0.092  -0.171
    1UNL    C10   16  -0.643  -0.077  -0.214
    1UNL     O7   17  -0.698  -0.003  -0.319
    1UNL    C11   18   0.065   0.103  -0.298
    1UNL    C12   19   0.203   0.058  -0.257
    1UNL    C13   20   0.249   0.114  -0.116
    1UNL    C14   21   0.389   0.073  -0.090
    1UNL     O8   22   0.424   0.125   0.033
    1UNL    C15   23   0.434   0.032   0.137
    1UNL     O9   24   0.410  -0.084   0.108
    1UNL    C16   25   0.476   0.073   0.273
    1UNL    C17   26   0.586   0.049   0.343
    1UNL    C18   27   0.699  -0.035   0.305
    1UNL    C19   28   0.696  -0.113   0.188
    1UNL    C20   29   0.799  -0.192   0.153
    1UNL    C21   30   0.916  -0.196   0.228
    1UNL    O10   31   1.016  -0.285   0.218
    1UNL    C22   32   0.914  -0.121   0.351
    1UNL    C23   33   0.812  -0.037   0.382
    1UNL    C24   34   0.160   0.070   0.003
    1UNL    C25   35   0.012   0.039  -0.033
    1UNL    O11   36  -0.014  -0.103  -0.044
    1UNL     H1   37  -0.174   0.293  -0.159
    1UNL     H2   38  -0.170  -0.000  -0.315
    1UNL     H3   39  -0.309   0.060  -0.052
    1UNL     H4   40  -0.536   0.093  -0.132
    1UNL     H5   41  -0.600  -0.161   0.139
    1UNL     H6   42  -0.571   0.148   0.149
    1UNL     H7   43  -0.471   0.017   0.228
    1UNL     H8   44  -0.732   0.019   0.280
    1UNL     H9   45  -0.732   0.077  -0.019
    1UNL    H10   46  -0.927  -0.073   0.050
    1UNL    H11   47  -0.767  -0.219  -0.076
    1UNL    H12   48  -0.878  -0.037  -0.253
    1UNL    H13   49  -0.601  -0.166  -0.259
    1UNL    H14   50  -0.649   0.081  -0.339
    1UNL    H15   51   0.022   0.039  -0.380
    1UNL    H16   52   0.065   0.211  -0.334
    1UNL    H17   53   0.274   0.098  -0.328
    1UNL    H18   54   0.199  -0.054  -0.264
    1UNL    H19   55   0.246   0.224  -0.122
    1UNL    H20   56   0.470   0.096  -0.161
    1UNL    H21   57   0.392  -0.033  -0.084
    1UNL    H22   58   0.410   0.153   0.302
    1UNL    H23   59   0.601   0.120   0.422
    1UNL    H24   60   0.609  -0.124   0.130
    1UNL    H25   61   0.776  -0.248   0.065
    1UNL    H26   62   1.009  -0.329   0.131
    1UNL    H27   63   0.997  -0.127   0.408
    1UNL    H28   64   0.812   0.025   0.479
    1UNL    H29   65   0.163   0.139   0.082
    1UNL    H30   66   0.208  -0.024   0.045
    1UNL    H31   67  -0.054   0.081   0.043
    1UNL    H32   68  -0.067  -0.150   0.028
   0.00000   0.00000   0.00000   0.00000   0.00000   0.00000   0.00000   0.00000   0.00000
Generated with MDTraj, t= 16.0
 68
    1UNL     O1    1   0.011   0.335  -0.111
    1UNL     C1    2  -0.081   0.267  -0.146
    1UNL     C2    3  -0.061   0.115  -0.184
    1UNL     C3    4  -0.189   0.061  -0.252
    1UNL     C4    5  -0.298   0.047  -0.175
    1UNL     O2    6  -0.412  -0.002  -0.223
    1UNL     C5    7  -0.518  -0.012  -0.137
    1UNL     O3    8  -0.484  -0.057  -0.007
    1UNL     C6    9  -0.588  -0.062   0.096
    1UNL     C7   10  -0.547   0.045   0.194
    1UNL     O4   11  -0.640   0.064   0.294
    1UNL     C8   12  -0.730  -0.046   0.024
    1UNL     O5   13  -0.836  -0.064   0.115
    1UNL     C9   14  -0.744  -0.130  -0.104
    1UNL     O6   15  -0.872  -0.105  -0.152
    1UNL    C10   16  -0.628  -0.093  -0.208
    1UNL     O7   17  -0.688  -0.018  -0.309
    1UNL    C11   18   0.060   0.099  -0.293
    1UNL    C12   19   0.191   0.040  -0.240
    1UNL    C13   20   0.221   0.119  -0.108
    1UNL    C14   21   0.366   0.084  -0.075
    1UNL     O8   22   0.406   0.144   0.042
    1UNL    C15   23   0.440   0.048   0.123
    1UNL     O9   24   0.432  -0.071   0.103
    1UNL    C16   25   0.482   0.084   0.263
    1UNL    C17   26   0.591   0.051   0.332
    1UNL    C18   27   0.699  -0.042   0.301
    1UNL    C19   28   0.697  -0.119   0.188
    1UNL    C20   29   0.807  -0.201   0.151
    1UNL    C21   30   0.910  -0.220   0.254
    1UNL    O10   31   1.015  -0.314   0.238
    1UNL    C22   32   0.910  -0.141   0.366
    1UNL    C23   33   0.809  -0.054   0.389
    1UNL    C24   34   0.116   0.098   0.002
    1UNL    C25   35  -0.023   0.042  -0.053
    1UNL    O11   36  -0.016  -0.098  -0.080
    1UNL     H1   37  -0.181   0.311  -0.164
    1UNL     H2   38  -0.192   0.037  -0.363
    1UNL     H3   39  -0.297   0.048  -0.067
    1UNL     H4   40  -0.558   0.083  -0.128
    1UNL     H5   41  -0.585  -0.168   0.133
    1UNL     H6   42  -0.549   0.140   0.140
    1UNL     H7   43  -0.453   0.022   0.240
    1UNL     H8   44  -0.727   0.037   0.244
    1UNL     H9   45  -0.730   0.067  -0.008
    1UNL    H10   46  -0.916  -0.090   0.068
    1UNL    H11   47  -0.744  -0.238  -0.081
    1UNL    H12   48  -0.869  -0.023  -0.204
    1UNL    H13   49  -0.588  -0.179  -0.256
    1UNL    H14   50  -0.625   0.052  -0.342
    1UNL    H15   51   0.016   0.041  -0.379
    1UNL    H16   52   0.088   0.201  -0.322
    1UNL    H17   53   0.269   0.043  -0.314
    1UNL    H18   54   0.162  -0.066  -0.216
    1UNL    H19   55   0.215   0.226  -0.136
    1UNL    H20   56   0.438   0.099  -0.153
    1UNL    H21   57   0.364  -0.020  -0.063
    1UNL    H22   58   0.414   0.151   0.316
    1UNL    H23   59   0.606   0.084   0.440
    1UNL    H24   60   0.612  -0.109   0.121
    1UNL    H25   61   0.809  -0.270   0.067
    1UNL    H26   62   1.002  -0.375   0.161
    1UNL    H27   63   0.995  -0.155   0.438
    1UNL    H28   64   0.814   0.013   0.469
    1UNL    H29   65   0.105   0.183   0.068
    1UNL    H30   66   0.151   0.016   0.065
    1UNL    H31   67  -0.098   0.053   0.027
    1UNL    H32   68   0.065  -0.145  -0.047
   0.00000   0.00000   0.00000   0.00000   0.00000   0.00000   0.00000   0.00000   0.00000
Generated with MDTraj, t= 17.0
 68
    1UNL     O1    1   0.025   0.353  -0.147
    1UNL     C1    2  -0.071   0.280  -0.158
    1UNL     C2    3  -0.061   0.135  -0.214
    1UNL     C3    4  -0.202   0.090  -0.260
    1UNL     C4    5  -0.306   0.052  -0.185
    1UNL     O2    6  -0.420  -0.004  -0.235
    1UNL     C5    7  -0.522  -0.009  -0.137
    1UNL     O3    8  -0.479  -0.071  -0.014
    1UNL     C6    9  -0.576  -0.060   0.091
    1UNL     C7   10  -0.555   0.060   0.175
    1UNL     O4   11  -0.637   0.063   0.296
    1UNL     C8   12  -0.725  -0.058   0.042
    1UNL     O5   13  -0.822  -0.087   0.141
    1UNL     C9   14  -0.745  -0.148  -0.081
    1UNL     O6   15  -0.877  -0.129  -0.119
    1UNL    C10   16  -0.637  -0.102  -0.195
    1UNL     O7   17  -0.701  -0.031  -0.296
    1UNL    C11   18   0.055   0.115  -0.328
    1UNL    C12   19   0.199   0.085  -0.268
    1UNL    C13   20   0.226   0.134  -0.118
    1UNL    C14   21   0.367   0.099  -0.065
    1UNL     O8   22   0.385   0.146   0.065
    1UNL    C15   23   0.447   0.045   0.150
    1UNL     O9   24   0.444  -0.068   0.108
    1UNL    C16   25   0.502   0.106   0.267
    1UNL    C17   26   0.609   0.064   0.339
    1UNL    C18   27   0.704  -0.048   0.319
    1UNL    C19   28   0.702  -0.128   0.205
    1UNL    C20   29   0.801  -0.220   0.183
    1UNL    C21   30   0.908  -0.246   0.266
    1UNL    O10   31   1.015  -0.325   0.232
    1UNL    C22   32   0.901  -0.173   0.387
    1UNL    C23   33   0.804  -0.074   0.409
    1UNL    C24   34   0.120   0.086  -0.023
    1UNL    C25   35  -0.023   0.047  -0.087
    1UNL    O11   36  -0.033  -0.090  -0.117
    1UNL     H1   37  -0.166   0.327  -0.146
    1UNL     H2   38  -0.208   0.082  -0.366
    1UNL     H3   39  -0.311   0.066  -0.080
    1UNL     H4   40  -0.556   0.087  -0.121
    1UNL     H5   41  -0.570  -0.149   0.155
    1UNL     H6   42  -0.567   0.155   0.121
    1UNL     H7   43  -0.460   0.056   0.229
    1UNL     H8   44  -0.730   0.043   0.275
    1UNL     H9   45  -0.742   0.054   0.007
    1UNL    H10   46  -0.912  -0.100   0.093
    1UNL    H11   47  -0.737  -0.255  -0.061
    1UNL    H12   48  -0.882  -0.060  -0.193
    1UNL    H13   49  -0.585  -0.184  -0.234
    1UNL    H14   50  -0.632   0.031  -0.326
    1UNL    H15   51   0.022   0.030  -0.392
    1UNL    H16   52   0.056   0.208  -0.380
    1UNL    H17   53   0.275   0.115  -0.336
    1UNL    H18   54   0.201  -0.026  -0.257
    1UNL    H19   55   0.224   0.247  -0.116
    1UNL    H20   56   0.451   0.127  -0.123
    1UNL    H21   57   0.373  -0.003  -0.049
    1UNL    H22   58   0.446   0.191   0.298
    1UNL    H23   59   0.628   0.118   0.422
    1UNL    H24   60   0.604  -0.129   0.153
    1UNL    H25   61   0.789  -0.272   0.090
    1UNL    H26   62   0.999  -0.368   0.142
    1UNL    H27   63   0.983  -0.179   0.456
    1UNL    H28   64   0.807  -0.018   0.501
    1UNL    H29   65   0.101   0.160   0.059
    1UNL    H30   66   0.164   0.005   0.027
    1UNL    H31   67  -0.095   0.065  -0.005
    1UNL    H32   68  -0.016  -0.103  -0.211
   0.00000   0.00000   0.00000   0.00000   0.00000   0.00000   0.00000   0.00000   0.00000
Generated with MDTraj, t= 18.0
 68
    1UNL     O1    1   0.006   0.363  -0.174
    1UNL     C1    2  -0.080   0.282  -0.155
    1UNL     C2    3  -0.071   0.139  -0.205
    1UNL     C3    4  -0.207   0.102  -0.257
    1UNL     C4    5  -0.306   0.036  -0.195
    1UNL     O2    6  -0.431   0.011  -0.255
    1UNL     C5    7  -0.527  -0.005  -0.149
    1UNL     O3    8  -0.467  -0.040  -0.021
    1UNL     C6    9  -0.553  -0.051   0.089
    1UNL     C7   10  -0.535   0.068   0.182
    1UNL     O4   11  -0.626   0.072   0.292
    1UNL     C8   12  -0.708  -0.054   0.050
    1UNL     O5   13  -0.793  -0.101   0.156
    1UNL     C9   14  -0.720  -0.150  -0.076
    1UNL     O6   15  -0.848  -0.183  -0.103
    1UNL    C10   16  -0.639  -0.092  -0.198
    1UNL     O7   17  -0.713  -0.018  -0.294
    1UNL    C11   18   0.047   0.131  -0.315
    1UNL    C12   19   0.187   0.091  -0.263
    1UNL    C13   20   0.212   0.143  -0.115
    1UNL    C14   21   0.356   0.101  -0.070
    1UNL     O8   22   0.394   0.154   0.056
    1UNL    C15   23   0.441   0.060   0.136
    1UNL     O9   24   0.461  -0.051   0.101
    1UNL    C16   25   0.494   0.103   0.272
    1UNL    C17   26   0.597   0.043   0.340
    1UNL    C18   27   0.693  -0.057   0.308
    1UNL    C19   28   0.709  -0.136   0.192
    1UNL    C20   29   0.809  -0.228   0.177
    1UNL    C21   30   0.895  -0.252   0.281
    1UNL    O10   31   0.992  -0.350   0.269
    1UNL    C22   32   0.895  -0.169   0.395
    1UNL    C23   33   0.792  -0.075   0.411
    1UNL    C24   34   0.106   0.083  -0.021
    1UNL    C25   35  -0.038   0.037  -0.091
    1UNL    O11   36  -0.024  -0.097  -0.138
    1UNL     H1   37  -0.156   0.315  -0.086
    1UNL     H2   38  -0.221   0.129  -0.357
    1UNL     H3   39  -0.301   0.033  -0.086
    1UNL     H4   40  -0.567   0.087  -0.133
    1UNL     H5   41  -0.521  -0.140   0.139
    1UNL     H6   42  -0.562   0.162   0.129
    1UNL     H7   43  -0.431   0.065   0.217
    1UNL     H8   44  -0.679  -0.010   0.294
    1UNL     H9   45  -0.739   0.056   0.021
    1UNL    H10   46  -0.870  -0.143   0.116
    1UNL    H11   47  -0.676  -0.243  -0.045
    1UNL    H12   48  -0.882  -0.143  -0.184
    1UNL    H13   49  -0.610  -0.178  -0.249
    1UNL    H14   50  -0.659   0.053  -0.338
    1UNL    H15   51   0.009   0.058  -0.386
    1UNL    H16   52   0.045   0.228  -0.358
    1UNL    H17   53   0.269   0.115  -0.326
    1UNL    H18   54   0.187  -0.020  -0.258
    1UNL    H19   55   0.202   0.257  -0.116
    1UNL    H20   56   0.431   0.134  -0.139
    1UNL    H21   57   0.361  -0.004  -0.064
    1UNL    H22   58   0.458   0.198   0.316
    1UNL    H23   59   0.632   0.102   0.433
    1UNL    H24   60   0.632  -0.135   0.119
    1UNL    H25   61   0.810  -0.296   0.094
    1UNL    H26   62   0.990  -0.398   0.180
    1UNL    H27   63   0.974  -0.180   0.464
    1UNL    H28   64   0.801  -0.022   0.510
    1UNL    H29   65   0.092   0.152   0.068
    1UNL    H30   66   0.151   0.000   0.018
    1UNL    H31   67  -0.111   0.035  -0.008
    1UNL    H32   68  -0.042  -0.164  -0.071
   0.00000   0.00000   0.00000   0.00000   0.00000   0.00000   0.00000   0.00000   0.00000
Generated with MDTraj, t= 19.0
 68
    1UNL     O1    1  -0.013   0.371  -0.171
    1UNL     C1    2  -0.087   0.279  -0.153
    1UNL     C2    3  -0.068   0.136  -0.198
    1UNL     C3    4  -0.194   0.100  -0.265
    1UNL     C4    5  -0.307   0.066  -0.199
    1UNL     O2    6  -0.436   0.041  -0.253
    1UNL     C5    7  -0.527   0.011  -0.144
    1UNL     O3    8  -0.462  -0.040  -0.027
    1UNL     C6    9  -0.544  -0.038   0.085
    1UNL     C7   10  -0.536   0.098   0.167
    1UNL     O4   11  -0.597   0.078   0.289
    1UNL     C8   12  -0.690  -0.078   0.052
    1UNL     O5   13  -0.771  -0.123   0.160
    1UNL     C9   14  -0.693  -0.178  -0.073
    1UNL     O6   15  -0.822  -0.217  -0.095
    1UNL    C10   16  -0.633  -0.088  -0.195
    1UNL     O7   17  -0.731  -0.008  -0.265
    1UNL    C11   18   0.051   0.148  -0.309
    1UNL    C12   19   0.180   0.084  -0.265
    1UNL    C13   20   0.210   0.137  -0.122
    1UNL    C14   21   0.356   0.114  -0.078
    1UNL     O8   22   0.370   0.145   0.054
    1UNL    C15   23   0.454   0.047   0.113
    1UNL     O9   24   0.481  -0.055   0.059
    1UNL    C16   25   0.486   0.087   0.244
    1UNL    C17   26   0.593   0.056   0.321
    1UNL    C18   27   0.693  -0.056   0.308
    1UNL    C19   28   0.696  -0.134   0.195
    1UNL    C20   29   0.793  -0.230   0.187
    1UNL    C21   30   0.879  -0.252   0.299
    1UNL    O10   31   0.963  -0.357   0.283
    1UNL    C22   32   0.868  -0.173   0.409
    1UNL    C23   33   0.773  -0.077   0.423
    1UNL    C24   34   0.114   0.080  -0.016
    1UNL    C25   35  -0.028   0.033  -0.083
    1UNL    O11   36  -0.022  -0.102  -0.116
    1UNL     H1   37  -0.159   0.291  -0.070
    1UNL     H2   38  -0.193   0.118  -0.378
    1UNL     H3   39  -0.296   0.051  -0.090
    1UNL     H4   40  -0.560   0.102  -0.114
    1UNL     H5   41  -0.503  -0.115   0.144
    1UNL     H6   42  -0.588   0.175   0.104
    1UNL     H7   43  -0.431   0.118   0.192
    1UNL     H8   44  -0.670   0.011   0.266
    1UNL     H9   45  -0.737   0.020   0.008
    1UNL    H10   46  -0.851  -0.172   0.125
    1UNL    H11   47  -0.632  -0.261  -0.048
    1UNL    H12   48  -0.863  -0.165  -0.171
    1UNL    H13   49  -0.577  -0.146  -0.264
    1UNL    H14   50  -0.687   0.059  -0.325
    1UNL    H15   51   0.012   0.102  -0.396
    1UNL    H16   52   0.063   0.251  -0.330
    1UNL    H17   53   0.263   0.111  -0.328
    1UNL    H18   54   0.181  -0.025  -0.267
    1UNL    H19   55   0.187   0.250  -0.125
    1UNL    H20   56   0.423   0.180  -0.136
    1UNL    H21   57   0.378   0.008  -0.094
    1UNL    H22   58   0.423   0.166   0.278
    1UNL    H23   59   0.584   0.095   0.415
    1UNL    H24   60   0.621  -0.125   0.125
    1UNL    H25   61   0.799  -0.297   0.103
    1UNL    H26   62   0.945  -0.399   0.194
    1UNL    H27   63   0.948  -0.182   0.490
    1UNL    H28   64   0.751  -0.021   0.506
    1UNL    H29   65   0.092   0.158   0.062
    1UNL    H30   66   0.166   0.004   0.036
    1UNL    H31   67  -0.109   0.031  -0.005
    1UNL    H32   68   0.003  -0.115  -0.211
   0.00000   0.00000   0.00000   0.00000   0.00000   0.00000   0.00000   0.00000   0.00000
Generated with MDTraj, t= 20.0
 68
    1UNL     O1    1   0.014   0.363  -0.151
    1UNL     C1    2  -0.082   0.298  -0.186
    1UNL     C2    3  -0.074   0.148  -0.225
    1UNL     C3    4  -0.203   0.105  -0.276
    1UNL     C4    5  -0.320   0.094  -0.207
    1UNL     O2    6  -0.431   0.026  -0.251
    1UNL     C5    7  -0.520   0.011  -0.140
    1UNL     O3    8  -0.451  -0.024  -0.016
    1UNL     C6    9  -0.532  -0.042   0.099
    1UNL     C7   10  -0.544   0.092   0.174
    1UNL     O4   11  -0.625   0.092   0.292
    1UNL     C8   12  -0.678  -0.087   0.064
    1UNL     O5   13  -0.737  -0.165   0.169
    1UNL     C9   14  -0.688  -0.176  -0.066
    1UNL     O6   15  -0.817  -0.219  -0.093
    1UNL    C10   16  -0.636  -0.091  -0.183
    1UNL     O7   17  -0.747  -0.026  -0.234
    1UNL    C11   18   0.032   0.146  -0.336
    1UNL    C12   19   0.183   0.130  -0.290
    1UNL    C13   20   0.212   0.145  -0.139
    1UNL    C14   21   0.366   0.132  -0.095
    1UNL     O8   22   0.392   0.170   0.042
    1UNL    C15   23   0.457   0.069   0.106
    1UNL     O9   24   0.479  -0.039   0.054
    1UNL    C16   25   0.495   0.099   0.251
    1UNL    C17   26   0.580   0.034   0.332
    1UNL    C18   27   0.674  -0.070   0.319
    1UNL    C19   28   0.701  -0.147   0.204
    1UNL    C20   29   0.802  -0.241   0.208
    1UNL    C21   30   0.880  -0.268   0.317
    1UNL    O10   31   0.974  -0.373   0.307
    1UNL    C22   32   0.860  -0.188   0.433
    1UNL    C23   33   0.755  -0.100   0.428
    1UNL    C24   34   0.114   0.061  -0.056
    1UNL    C25   35  -0.031   0.040  -0.108
    1UNL    O11   36  -0.059  -0.090  -0.135
    1UNL     H1   37  -0.177   0.333  -0.153
    1UNL     H2   38  -0.205   0.071  -0.372
    1UNL     H3   39  -0.310   0.103  -0.100
    1UNL     H4   40  -0.570   0.098  -0.126
    1UNL     H5   41  -0.491  -0.117   0.160
    1UNL     H6   42  -0.588   0.174   0.109
    1UNL     H7   43  -0.444   0.123   0.210
    1UNL     H8   44  -0.708   0.035   0.286
    1UNL     H9   45  -0.742   0.010   0.046
    1UNL    H10   46  -0.821  -0.207   0.144
    1UNL    H11   47  -0.631  -0.264  -0.052
    1UNL    H12   48  -0.867  -0.157  -0.150
    1UNL    H13   49  -0.608  -0.156  -0.266
    1UNL    H14   50  -0.719   0.026  -0.313
    1UNL    H15   51   0.009   0.070  -0.402
    1UNL    H16   52   0.028   0.238  -0.389
    1UNL    H17   53   0.250   0.191  -0.351
    1UNL    H18   54   0.212   0.028  -0.309
    1UNL    H19   55   0.179   0.251  -0.109
    1UNL    H20   56   0.424   0.201  -0.163
    1UNL    H21   57   0.392   0.025  -0.118
    1UNL    H22   58   0.450   0.185   0.301
    1UNL    H23   59   0.587   0.085   0.434
    1UNL    H24   60   0.639  -0.135   0.117
    1UNL    H25   61   0.826  -0.288   0.116
    1UNL    H26   62   0.959  -0.427   0.227
    1UNL    H27   63   0.924  -0.196   0.512
    1UNL    H28   64   0.759  -0.028   0.515
    1UNL    H29   65   0.112   0.096   0.049
    1UNL    H30   66   0.163  -0.040  -0.061
    1UNL    H31   67  -0.103   0.057  -0.024
    1UNL    H32   68  -0.020  -0.113  -0.225
   0.00000   0.00000   0.00000   0.00000   0.00000   0.00000   0.00000   0.00000   0.00000
Generated with MDTraj, t= 21.0
 68
    1UNL     O1    1   0.011   0.359  -0.125
    1UNL     C1    2  -0.070   0.294  -0.183
    1UNL     C2    3  -0.057   0.156  -0.228
    1UNL     C3    4  -0.199   0.124  -0.279
    1UNL     C4    5  -0.297   0.060  -0.211
    1UNL     O2    6  -0.431   0.045  -0.234
    1UNL     C5    7  -0.516   0.022  -0.125
    1UNL     O3    8  -0.448  -0.020  -0.004
    1UNL     C6    9  -0.533  -0.034   0.110
    1UNL     C7   10  -0.551   0.094   0.184
    1UNL     O4   11  -0.642   0.090   0.297
    1UNL     C8   12  -0.670  -0.097   0.068
    1UNL     O5   13  -0.725  -0.174   0.174
    1UNL     C9   14  -0.664  -0.182  -0.062
    1UNL     O6   15  -0.794  -0.241  -0.081
    1UNL    C10   16  -0.625  -0.081  -0.178
    1UNL     O7   17  -0.744  -0.026  -0.225
    1UNL    C11   18   0.043   0.150  -0.349
    1UNL    C12   19   0.193   0.130  -0.305
    1UNL    C13   20   0.216   0.153  -0.156
    1UNL    C14   21   0.358   0.123  -0.107
    1UNL     O8   22   0.367   0.152   0.033
    1UNL    C15   23   0.456   0.061   0.093
    1UNL     O9   24   0.514  -0.031   0.039
    1UNL    C16   25   0.483   0.092   0.230
    1UNL    C17   26   0.567   0.044   0.318
    1UNL    C18   27   0.661  -0.070   0.315
    1UNL    C19   28   0.686  -0.148   0.204
    1UNL    C20   29   0.777  -0.249   0.202
    1UNL    C21   30   0.860  -0.268   0.319
    1UNL    O10   31   0.958  -0.359   0.323
    1UNL    C22   32   0.821  -0.201   0.439
    1UNL    C23   33   0.723  -0.099   0.436
    1UNL    C24   34   0.124   0.069  -0.067
    1UNL    C25   35  -0.024   0.053  -0.118
    1UNL    O11   36  -0.051  -0.081  -0.144
    1UNL     H1   37  -0.159   0.351  -0.207
    1UNL     H2   38  -0.233   0.165  -0.377
    1UNL     H3   39  -0.272   0.021  -0.116
    1UNL     H4   40  -0.557   0.113  -0.107
    1UNL     H5   41  -0.489  -0.107   0.173
    1UNL     H6   42  -0.599   0.175   0.121
    1UNL     H7   43  -0.456   0.140   0.220
    1UNL     H8   44  -0.683  -0.002   0.303
    1UNL     H9   45  -0.743  -0.009   0.043
    1UNL    H10   46  -0.804  -0.224   0.143
    1UNL    H11   47  -0.593  -0.257  -0.049
    1UNL    H12   48  -0.838  -0.195  -0.155
    1UNL    H13   49  -0.572  -0.130  -0.263
    1UNL    H14   50  -0.728   0.013  -0.313
    1UNL    H15   51   0.023   0.072  -0.414
    1UNL    H16   52   0.036   0.241  -0.402
    1UNL    H17   53   0.269   0.193  -0.355
    1UNL    H18   54   0.218   0.029  -0.326
    1UNL    H19   55   0.193   0.263  -0.135
    1UNL    H20   56   0.430   0.184  -0.173
    1UNL    H21   57   0.379   0.009  -0.114
    1UNL    H22   58   0.432   0.183   0.258
    1UNL    H23   59   0.577   0.113   0.400
    1UNL    H24   60   0.636  -0.123   0.109
    1UNL    H25   61   0.782  -0.309   0.109
    1UNL    H26   62   0.973  -0.403   0.239
    1UNL    H27   63   0.879  -0.225   0.533
    1UNL    H28   64   0.698  -0.037   0.515
    1UNL    H29   65   0.131   0.105   0.036
    1UNL    H30   66   0.167  -0.041  -0.080
    1UNL    H31   67  -0.099   0.068  -0.040
    1UNL    H32   68   0.002  -0.118  -0.221
   0.00000   0.00000   0.00000   0.00000   0.00000   0.00000   0.00000   0.00000   0.00000
Generated with MDTraj, t= 22.0
 68
    1UNL     O1    1   0.028   0.348  -0.107
    1UNL     C1    2  -0.068   0.289  -0.145
    1UNL     C2    3  -0.065   0.164  -0.227
    1UNL     C3    4  -0.202   0.140  -0.274
    1UNL     C4    5  -0.299   0.077  -0.203
    1UNL     O2    6  -0.430   0.065  -0.233
    1UNL     C5    7  -0.517   0.023  -0.127
    1UNL     O3    8  -0.436  -0.014  -0.009
    1UNL     C6    9  -0.525  -0.027   0.110
    1UNL     C7   10  -0.562   0.102   0.187
    1UNL     O4   11  -0.622   0.070   0.309
    1UNL     C8   12  -0.661  -0.098   0.068
    1UNL     O5   13  -0.726  -0.161   0.176
    1UNL     C9   14  -0.643  -0.179  -0.055
    1UNL     O6   15  -0.752  -0.271  -0.074
    1UNL    C10   16  -0.614  -0.087  -0.180
    1UNL     O7   17  -0.733  -0.033  -0.232
    1UNL    C11   18   0.040   0.151  -0.344
    1UNL    C12   19   0.171   0.087  -0.293
    1UNL    C13   20   0.211   0.144  -0.158
    1UNL    C14   21   0.357   0.118  -0.132
    1UNL     O8   22   0.385   0.161   0.001
    1UNL    C15   23   0.473   0.081   0.067
    1UNL     O9   24   0.541  -0.000   0.003
    1UNL    C16   25   0.464   0.078   0.212
    1UNL    C17   26   0.535   0.031   0.316
    1UNL    C18   27   0.644  -0.068   0.316
    1UNL    C19   28   0.678  -0.141   0.202
    1UNL    C20   29   0.774  -0.239   0.203
    1UNL    C21   30   0.838  -0.267   0.328
    1UNL    O10   31   0.925  -0.378   0.341
    1UNL    C22   32   0.802  -0.197   0.438
    1UNL    C23   33   0.707  -0.101   0.432
    1UNL    C24   34   0.113   0.086  -0.053
    1UNL    C25   35  -0.027   0.056  -0.118
    1UNL    O11   36  -0.043  -0.084  -0.145
    1UNL     H1   37  -0.164   0.346  -0.145
    1UNL     H2   38  -0.225   0.191  -0.368
    1UNL     H3   39  -0.288   0.048  -0.098
    1UNL     H4   40  -0.577   0.100  -0.101
    1UNL     H5   41  -0.469  -0.099   0.168
    1UNL     H6   42  -0.628   0.168   0.122
    1UNL     H7   43  -0.478   0.169   0.215
    1UNL     H8   44  -0.677  -0.006   0.281
    1UNL     H9   45  -0.729  -0.013   0.027
    1UNL    H10   46  -0.792  -0.225   0.141
    1UNL    H11   47  -0.565  -0.246  -0.034
    1UNL    H12   48  -0.814  -0.232  -0.143
    1UNL    H13   49  -0.572  -0.153  -0.263
    1UNL    H14   50  -0.725   0.013  -0.318
    1UNL    H15   51   0.003   0.095  -0.424
    1UNL    H16   52   0.070   0.242  -0.388
    1UNL    H17   53   0.259   0.095  -0.360
    1UNL    H18   54   0.169  -0.018  -0.272
    1UNL    H19   55   0.198   0.258  -0.159
    1UNL    H20   56   0.427   0.178  -0.202
    1UNL    H21   57   0.378   0.005  -0.144
    1UNL    H22   58   0.380   0.140   0.245
    1UNL    H23   59   0.493   0.039   0.414
    1UNL    H24   60   0.631  -0.103   0.112
    1UNL    H25   61   0.795  -0.307   0.125
    1UNL    H26   62   0.942  -0.424   0.259
    1UNL    H27   63   0.850  -0.220   0.530
    1UNL    H28   64   0.684  -0.051   0.529
    1UNL    H29   65   0.100   0.162   0.024
    1UNL    H30   66   0.160  -0.015  -0.015
    1UNL    H31   67  -0.106   0.076  -0.046
    1UNL    H32   68  -0.004  -0.103  -0.234
   0.00000   0.00000   0.00000   0.00000   0.00000   0.00000   0.00000   0.00000   0.00000
Generated with MDTraj, t= 23.0
 68
    1UNL     O1    1   0.029   0.362  -0.122
    1UNL     C1    2  -0.069   0.299  -0.152
    1UNL     C2    3  -0.068   0.165  -0.226
    1UNL     C3    4  -0.204   0.136  -0.266
    1UNL     C4    5  -0.310   0.107  -0.185
    1UNL     O2    6  -0.435   0.066  -0.233
    1UNL     C5    7  -0.527   0.025  -0.133
    1UNL     O3    8  -0.453   0.018  -0.003
    1UNL     C6    9  -0.525  -0.022   0.118
    1UNL     C7   10  -0.552   0.093   0.207
    1UNL     O4   11  -0.627   0.061   0.321
    1UNL     C8   12  -0.657  -0.099   0.077
    1UNL     O5   13  -0.709  -0.171   0.185
    1UNL     C9   14  -0.638  -0.182  -0.050
    1UNL     O6   15  -0.750  -0.274  -0.067
    1UNL    C10   16  -0.604  -0.102  -0.182
    1UNL     O7   17  -0.719  -0.079  -0.261
    1UNL    C11   18   0.029   0.160  -0.351
    1UNL    C12   19   0.176   0.113  -0.324
    1UNL    C13   20   0.216   0.147  -0.174
    1UNL    C14   21   0.365   0.121  -0.132
    1UNL     O8   22   0.391   0.163  -0.008
    1UNL    C15   23   0.481   0.083   0.058
    1UNL     O9   24   0.551  -0.010   0.007
    1UNL    C16   25   0.489   0.114   0.207
    1UNL    C17   26   0.543   0.046   0.310
    1UNL    C18   27   0.623  -0.080   0.314
    1UNL    C19   28   0.676  -0.147   0.202
    1UNL    C20   29   0.768  -0.248   0.216
    1UNL    C21   30   0.824  -0.291   0.333
    1UNL    O10   31   0.922  -0.382   0.360
    1UNL    C22   32   0.779  -0.217   0.444
    1UNL    C23   33   0.683  -0.116   0.437
    1UNL    C24   34   0.125   0.069  -0.076
    1UNL    C25   35  -0.024   0.068  -0.113
    1UNL    O11   36  -0.062  -0.068  -0.140
    1UNL     H1   37  -0.164   0.348  -0.150
    1UNL     H2   38  -0.219   0.151  -0.366
    1UNL     H3   39  -0.298   0.091  -0.078
    1UNL     H4   40  -0.590   0.104  -0.124
    1UNL     H5   41  -0.462  -0.093   0.176
    1UNL     H6   42  -0.603   0.179   0.155
    1UNL     H7   43  -0.455   0.140   0.232
    1UNL     H8   44  -0.660  -0.036   0.312
    1UNL     H9   45  -0.727  -0.011   0.054
    1UNL    H10   46  -0.778  -0.232   0.147
    1UNL    H11   47  -0.555  -0.238  -0.021
    1UNL    H12   48  -0.805  -0.238  -0.138
    1UNL    H13   49  -0.526  -0.151  -0.250
    1UNL    H14   50  -0.694  -0.050  -0.352
    1UNL    H15   51  -0.013   0.093  -0.420
    1UNL    H16   52   0.032   0.250  -0.404
    1UNL    H17   53   0.250   0.163  -0.388
    1UNL    H18   54   0.199   0.009  -0.341
    1UNL    H19   55   0.196   0.260  -0.163
    1UNL    H20   56   0.435   0.183  -0.196
    1UNL    H21   57   0.395   0.011  -0.144
    1UNL    H22   58   0.427   0.200   0.230
    1UNL    H23   59   0.536   0.098   0.413
    1UNL    H24   60   0.644  -0.113   0.107
    1UNL    H25   61   0.804  -0.276   0.116
    1UNL    H26   62   0.940  -0.430   0.279
    1UNL    H27   63   0.818  -0.247   0.538
    1UNL    H28   64   0.678  -0.058   0.526
    1UNL    H29   65   0.135   0.122   0.019
    1UNL    H30   66   0.155  -0.039  -0.065
    1UNL    H31   67  -0.085   0.095  -0.025
    1UNL    H32   68  -0.009  -0.113  -0.207
   0.00000   0.00000   0.00000   0.00000   0.00000   0.00000   0.00000   0.00000   0.00000
Generated with MDTraj, t= 24.0
 68
    1UNL     O1    1   0.017   0.374  -0.156
    1UNL     C1    2  -0.077   0.311  -0.191
    1UNL     C2    3  -0.070   0.172  -0.236
    1UNL     C3    4  -0.211   0.137  -0.281
    1UNL     C4    5  -0.299   0.094  -0.192
    1UNL     O2    6  -0.439   0.084  -0.218
    1UNL     C5    7  -0.514   0.034  -0.108
    1UNL     O3    8  -0.446   0.016   0.016
    1UNL     C6    9  -0.527  -0.028   0.127
    1UNL     C7   10  -0.575   0.092   0.214
    1UNL     O4   11  -0.633   0.056   0.337
    1UNL     C8   12  -0.653  -0.111   0.079
    1UNL     O5   13  -0.721  -0.172   0.186
    1UNL     C9   14  -0.618  -0.204  -0.040
    1UNL     O6   15  -0.745  -0.265  -0.082
    1UNL    C10   16  -0.566  -0.110  -0.154
    1UNL     O7   17  -0.660  -0.100  -0.253
    1UNL    C11   18   0.034   0.169  -0.355
    1UNL    C12   19   0.176   0.129  -0.312
    1UNL    C13   20   0.212   0.155  -0.164
    1UNL    C14   21   0.365   0.133  -0.129
    1UNL     O8   22   0.388   0.161   0.002
    1UNL    C15   23   0.476   0.074   0.067
    1UNL     O9   24   0.521  -0.024   0.007
    1UNL    C16   25   0.512   0.117   0.198
    1UNL    C17   26   0.570   0.063   0.301
    1UNL    C18   27   0.645  -0.067   0.301
    1UNL    C19   28   0.682  -0.144   0.194
    1UNL    C20   29   0.769  -0.256   0.209
    1UNL    C21   30   0.807  -0.291   0.337
    1UNL    O10   31   0.883  -0.401   0.373
    1UNL    C22   32   0.755  -0.229   0.449
    1UNL    C23   33   0.680  -0.114   0.434
    1UNL    C24   34   0.118   0.068  -0.075
    1UNL    C25   35  -0.033   0.072  -0.126
    1UNL    O11   36  -0.065  -0.063  -0.166
    1UNL     H1   37  -0.163   0.364  -0.155
    1UNL     H2   38  -0.255   0.190  -0.372
    1UNL     H3   39  -0.263   0.047  -0.105
    1UNL     H4   40  -0.599   0.088  -0.096
    1UNL     H5   41  -0.477  -0.101   0.199
    1UNL     H6   42  -0.650   0.147   0.152
    1UNL     H7   43  -0.495   0.163   0.226
    1UNL     H8   44  -0.691  -0.016   0.330
    1UNL     H9   45  -0.733  -0.045   0.029
    1UNL    H10   46  -0.799  -0.217   0.142
    1UNL    H11   47  -0.553  -0.280  -0.018
    1UNL    H12   48  -0.789  -0.203  -0.148
    1UNL    H13   49  -0.483  -0.162  -0.213
    1UNL    H14   50  -0.629  -0.038  -0.324
    1UNL    H15   51   0.009   0.098  -0.430
    1UNL    H16   52   0.032   0.263  -0.398
    1UNL    H17   53   0.248   0.179  -0.377
    1UNL    H18   54   0.190   0.021  -0.332
    1UNL    H19   55   0.190   0.268  -0.152
    1UNL    H20   56   0.430   0.199  -0.187
    1UNL    H21   57   0.394   0.027  -0.154
    1UNL    H22   58   0.472   0.216   0.215
    1UNL    H23   59   0.571   0.116   0.386
    1UNL    H24   60   0.643  -0.120   0.100
    1UNL    H25   61   0.802  -0.320   0.130
    1UNL    H26   62   0.927  -0.458   0.306
    1UNL    H27   63   0.773  -0.282   0.546
    1UNL    H28   64   0.627  -0.076   0.519
    1UNL    H29   65   0.111   0.104   0.030
    1UNL    H30   66   0.152  -0.032  -0.068
    1UNL    H31   67  -0.095   0.111  -0.040
    1UNL    H32   68  -0.009  -0.089  -0.239
   0.00000   0.00000   0.00000   0.00000   0.00000   0.00000   0.00000   0.00000   0.00000
Generated with MDTraj, t= 25.0
 68
    1UNL     O1    1   0.039   0.378  -0.192
    1UNL     C1    2  -0.058   0.315  -0.163
    1UNL     C2    3  -0.076   0.169  -0.219
    1UNL     C3    4  -0.221   0.165  -0.257
    1UNL     C4    5  -0.309   0.086  -0.200
    1UNL     O2    6  -0.443   0.086  -0.218
    1UNL     C5    7  -0.514   0.025  -0.111
    1UNL     O3    8  -0.447   0.043   0.018
    1UNL     C6    9  -0.518  -0.031   0.124
    1UNL     C7   10  -0.568   0.083   0.220
    1UNL     O4   11  -0.648   0.055   0.329
    1UNL     C8   12  -0.647  -0.109   0.079
    1UNL     O5   13  -0.726  -0.168   0.181
    1UNL     C9   14  -0.607  -0.202  -0.031
    1UNL     O6   15  -0.716  -0.275  -0.082
    1UNL    C10   16  -0.540  -0.127  -0.150
    1UNL     O7   17  -0.623  -0.123  -0.263
    1UNL    C11   18   0.015   0.167  -0.341
    1UNL    C12   19   0.157   0.111  -0.311
    1UNL    C13   20   0.204   0.155  -0.173
    1UNL    C14   21   0.350   0.118  -0.140
    1UNL     O8   22   0.391   0.165  -0.007
    1UNL    C15   23   0.466   0.077   0.065
    1UNL     O9   24   0.496  -0.033   0.022
    1UNL    C16   25   0.511   0.123   0.199
    1UNL    C17   26   0.591   0.079   0.296
    1UNL    C18   27   0.658  -0.053   0.306
    1UNL    C19   28   0.694  -0.128   0.194
    1UNL    C20   29   0.755  -0.251   0.202
    1UNL    C21   30   0.766  -0.307   0.329
    1UNL    O10   31   0.830  -0.424   0.353
    1UNL    C22   32   0.741  -0.230   0.442
    1UNL    C23   33   0.692  -0.102   0.429
    1UNL    C24   34   0.112   0.104  -0.060
    1UNL    C25   35  -0.027   0.065  -0.107
    1UNL    O11   36  -0.037  -0.068  -0.160
    1UNL     H1   37  -0.112   0.329  -0.066
    1UNL     H2   38  -0.245   0.247  -0.313
    1UNL     H3   39  -0.278   0.025  -0.117
    1UNL     H4   40  -0.598   0.082  -0.104
    1UNL     H5   41  -0.443  -0.102   0.175
    1UNL     H6   42  -0.615   0.155   0.149
    1UNL     H7   43  -0.480   0.133   0.252
    1UNL     H8   44  -0.707  -0.029   0.305
    1UNL     H9   45  -0.718  -0.023   0.048
    1UNL    H10   46  -0.779  -0.230   0.131
    1UNL    H11   47  -0.540  -0.264   0.015
    1UNL    H12   48  -0.748  -0.236  -0.164
    1UNL    H13   49  -0.440  -0.168  -0.178
    1UNL    H14   50  -0.605  -0.044  -0.319
    1UNL    H15   51  -0.029   0.106  -0.418
    1UNL    H16   52   0.025   0.265  -0.373
    1UNL    H17   53   0.226   0.139  -0.390
    1UNL    H18   54   0.155  -0.002  -0.311
    1UNL    H19   55   0.198   0.271  -0.180
    1UNL    H20   56   0.414   0.151  -0.217
    1UNL    H21   57   0.354   0.008  -0.150
    1UNL    H22   58   0.474   0.224   0.222
    1UNL    H23   59   0.600   0.140   0.396
    1UNL    H24   60   0.684  -0.071   0.097
    1UNL    H25   61   0.786  -0.288   0.104
    1UNL    H26   62   0.848  -0.459   0.261
    1UNL    H27   63   0.766  -0.272   0.532
    1UNL    H28   64   0.671  -0.054   0.526
    1UNL    H29   65   0.117   0.179   0.023
    1UNL    H30   66   0.145   0.021  -0.011
    1UNL    H31   67  -0.092   0.071  -0.016
    1UNL    H32   68   0.008  -0.071  -0.245
   0.00000   0.00000   0.00000   0.00000   0.00000   0.00000   0.00000   0.00000   0.00000
Generated with MDTraj, t= 26.0
 68
    1UNL     O1    1   0.052   0.396  -0.202
    1UNL     C1    2  -0.044   0.338  -0.165
    1UNL     C2    3  -0.058   0.189  -0.200
    1UNL     C3    4  -0.204   0.168  -0.247
    1UNL     C4    5  -0.294   0.092  -0.187
    1UNL     O2    6  -0.422   0.084  -0.225
    1UNL     C5    7  -0.513   0.026  -0.124
    1UNL     O3    8  -0.463   0.041   0.011
    1UNL     C6    9  -0.544  -0.014   0.121
    1UNL     C7   10  -0.597   0.103   0.209
    1UNL     O4   11  -0.639   0.051   0.333
    1UNL     C8   12  -0.651  -0.121   0.080
    1UNL     O5   13  -0.710  -0.182   0.192
    1UNL     C9   14  -0.595  -0.215  -0.029
    1UNL     O6   15  -0.705  -0.297  -0.080
    1UNL    C10   16  -0.526  -0.131  -0.149
    1UNL     O7   17  -0.594  -0.145  -0.273
    1UNL    C11   18   0.023   0.155  -0.332
    1UNL    C12   19   0.167   0.098  -0.303
    1UNL    C13   20   0.217   0.133  -0.164
    1UNL    C14   21   0.361   0.102  -0.133
    1UNL     O8   22   0.418   0.177  -0.027
    1UNL    C15   23   0.475   0.087   0.064
    1UNL     O9   24   0.470  -0.034   0.051
    1UNL    C16   25   0.530   0.156   0.185
    1UNL    C17   26   0.596   0.092   0.281
    1UNL    C18   27   0.653  -0.048   0.291
    1UNL    C19   28   0.676  -0.121   0.177
    1UNL    C20   29   0.722  -0.251   0.186
    1UNL    C21   30   0.744  -0.306   0.313
    1UNL    O10   31   0.793  -0.435   0.328
    1UNL    C22   32   0.720  -0.232   0.427
    1UNL    C23   33   0.674  -0.103   0.416
    1UNL    C24   34   0.122   0.079  -0.054
    1UNL    C25   35  -0.025   0.086  -0.083
    1UNL    O11   36  -0.087  -0.044  -0.099
    1UNL     H1   37  -0.095   0.380  -0.078
    1UNL     H2   38  -0.227   0.233  -0.335
    1UNL     H3   39  -0.279   0.029  -0.097
    1UNL     H4   40  -0.605   0.069  -0.136
    1UNL     H5   41  -0.458  -0.066   0.180
    1UNL     H6   42  -0.683   0.150   0.161
    1UNL     H7   43  -0.521   0.177   0.208
    1UNL     H8   44  -0.672  -0.039   0.323
    1UNL     H9   45  -0.743  -0.066   0.035
    1UNL    H10   46  -0.747  -0.269   0.154
    1UNL    H11   47  -0.524  -0.284  -0.000
    1UNL    H12   48  -0.700  -0.305  -0.180
    1UNL    H13   49  -0.432  -0.182  -0.167
    1UNL    H14   50  -0.573  -0.079  -0.342
    1UNL    H15   51  -0.041   0.090  -0.388
    1UNL    H16   52   0.030   0.245  -0.384
    1UNL    H17   53   0.245   0.130  -0.373
    1UNL    H18   54   0.170  -0.016  -0.302
    1UNL    H19   55   0.212   0.249  -0.160
    1UNL    H20   56   0.422   0.109  -0.217
    1UNL    H21   57   0.371  -0.002  -0.106
    1UNL    H22   58   0.496   0.258   0.191
    1UNL    H23   59   0.610   0.153   0.364
    1UNL    H24   60   0.648  -0.080   0.085
    1UNL    H25   61   0.761  -0.305   0.102
    1UNL    H26   62   0.827  -0.487   0.249
    1UNL    H27   63   0.730  -0.271   0.533
    1UNL    H28   64   0.651  -0.049   0.504
    1UNL    H29   65   0.144   0.110   0.052
    1UNL    H30   66   0.156  -0.018  -0.039
    1UNL    H31   67  -0.076   0.124   0.008
    1UNL    H32   68  -0.037  -0.110  -0.153
   0.00000   0.00000   0.00000   0.00000   0.00000   0.00000   0.00000   0.00000   0.00000
Generated with MDTraj, t= 27.0
 68
    1UNL     O1    1   0.066   0.393  -0.192
    1UNL     C1    2  -0.036   0.329  -0.188
    1UNL     C2    3  -0.053   0.182  -0.200
    1UNL     C3    4  -0.201   0.164  -0.236
    1UNL     C4    5  -0.298   0.102  -0.170
    1UNL     O2    6  -0.430   0.102  -0.216
    1UNL     C5    7  -0.504   0.023  -0.122
    1UNL     O3    8  -0.465   0.050   0.018
    1UNL     C6    9  -0.545  -0.013   0.121
    1UNL     C7   10  -0.609   0.101   0.205
    1UNL     O4   11  -0.669   0.045   0.320
    1UNL     C8   12  -0.643  -0.120   0.075
    1UNL     O5   13  -0.701  -0.196   0.182
    1UNL     C9   14  -0.573  -0.207  -0.028
    1UNL     O6   15  -0.671  -0.305  -0.067
    1UNL    C10   16  -0.503  -0.135  -0.152
    1UNL     O7   17  -0.558  -0.164  -0.278
    1UNL    C11   18   0.026   0.118  -0.323
    1UNL    C12   19   0.166   0.076  -0.287
    1UNL    C13   20   0.223   0.146  -0.159
    1UNL    C14   21   0.368   0.102  -0.144
    1UNL     O8   22   0.429   0.175  -0.040
    1UNL    C15   23   0.456   0.097   0.067
    1UNL     O9   24   0.410  -0.012   0.074
    1UNL    C16   25   0.545   0.158   0.168
    1UNL    C17   26   0.606   0.095   0.265
    1UNL    C18   27   0.651  -0.041   0.270
    1UNL    C19   28   0.675  -0.124   0.158
    1UNL    C20   29   0.718  -0.255   0.176
    1UNL    C21   30   0.726  -0.315   0.305
    1UNL    O10   31   0.759  -0.447   0.319
    1UNL    C22   32   0.691  -0.236   0.416
    1UNL    C23   33   0.653  -0.101   0.396
    1UNL    C24   34   0.131   0.102  -0.037
    1UNL    C25   35  -0.024   0.105  -0.065
    1UNL    O11   36  -0.077  -0.022  -0.055
    1UNL     H1   37  -0.124   0.389  -0.181
    1UNL     H2   38  -0.234   0.204  -0.332
    1UNL     H3   39  -0.274   0.037  -0.087
    1UNL     H4   40  -0.599   0.056  -0.142
    1UNL     H5   41  -0.470  -0.059   0.194
    1UNL     H6   42  -0.687   0.147   0.144
    1UNL     H7   43  -0.548   0.181   0.239
    1UNL     H8   44  -0.705  -0.050   0.310
    1UNL     H9   45  -0.745  -0.068   0.043
    1UNL    H10   46  -0.735  -0.278   0.138
    1UNL    H11   47  -0.499  -0.263   0.021
    1UNL    H12   48  -0.709  -0.283  -0.152
    1UNL    H13   49  -0.399  -0.155  -0.152
    1UNL    H14   50  -0.502  -0.109  -0.340
    1UNL    H15   51  -0.028   0.036  -0.363
    1UNL    H16   52   0.025   0.197  -0.393
    1UNL    H17   53   0.240   0.103  -0.366
    1UNL    H18   54   0.179  -0.036  -0.275
    1UNL    H19   55   0.221   0.262  -0.163
    1UNL    H20   56   0.425   0.124  -0.227
    1UNL    H21   57   0.380  -0.003  -0.130
    1UNL    H22   58   0.552   0.266   0.170
    1UNL    H23   59   0.655   0.153   0.343
    1UNL    H24   60   0.675  -0.087   0.055
    1UNL    H25   61   0.740  -0.309   0.086
    1UNL    H26   62   0.786  -0.480   0.229
    1UNL    H27   63   0.698  -0.282   0.512
    1UNL    H28   64   0.623  -0.041   0.485
    1UNL    H29   65   0.166   0.157   0.054
    1UNL    H30   66   0.156   0.007   0.007
    1UNL    H31   67  -0.078   0.156   0.017
    1UNL    H32   68  -0.016  -0.079  -0.112
   0.00000   0.00000   0.00000   0.00000   0.00000   0.00000   0.00000   0.00000   0.00000
Generated with MDTraj, t= 28.0
 68
    1UNL     O1    1   0.088   0.385  -0.181
    1UNL     C1    2  -0.014   0.329  -0.212
    1UNL     C2    3  -0.051   0.183  -0.227
    1UNL     C3    4  -0.199   0.181  -0.237
    1UNL     C4    5  -0.282   0.098  -0.172
    1UNL     O2    6  -0.425   0.100  -0.187
    1UNL     C5    7  -0.498   0.022  -0.094
    1UNL     O3    8  -0.460   0.042   0.046
    1UNL     C6    9  -0.552  -0.020   0.143
    1UNL     C7   10  -0.639   0.090   0.207
    1UNL     O4   11  -0.722   0.034   0.307
    1UNL     C8   12  -0.636  -0.123   0.077
    1UNL     O5   13  -0.703  -0.208   0.167
    1UNL     C9   14  -0.547  -0.210  -0.010
    1UNL     O6   15  -0.628  -0.315  -0.063
    1UNL    C10   16  -0.481  -0.129  -0.128
    1UNL     O7   17  -0.531  -0.153  -0.260
    1UNL    C11   18   0.030   0.102  -0.336
    1UNL    C12   19   0.164   0.042  -0.281
    1UNL    C13   20   0.235   0.135  -0.181
    1UNL    C14   21   0.371   0.080  -0.139
    1UNL     O8   22   0.435   0.164  -0.049
    1UNL    C15   23   0.448   0.100   0.071
    1UNL     O9   24   0.397  -0.001   0.105
    1UNL    C16   25   0.532   0.167   0.170
    1UNL    C17   26   0.605   0.101   0.262
    1UNL    C18   27   0.633  -0.045   0.273
    1UNL    C19   28   0.652  -0.117   0.155
    1UNL    C20   29   0.672  -0.252   0.161
    1UNL    C21   30   0.685  -0.311   0.282
    1UNL    O10   31   0.730  -0.447   0.291
    1UNL    C22   32   0.669  -0.238   0.400
    1UNL    C23   33   0.650  -0.104   0.395
    1UNL    C24   34   0.147   0.156  -0.055
    1UNL    C25   35  -0.009   0.136  -0.077
    1UNL    O11   36  -0.045  -0.000  -0.049
    1UNL     H1   37  -0.087   0.400  -0.254
    1UNL     H2   38  -0.246   0.241  -0.308
    1UNL     H3   39  -0.241   0.046  -0.090
    1UNL     H4   40  -0.598   0.035  -0.117
    1UNL     H5   41  -0.474  -0.062   0.213
    1UNL     H6   42  -0.705   0.142   0.135
    1UNL     H7   43  -0.575   0.161   0.254
    1UNL     H8   44  -0.748  -0.060   0.278
    1UNL     H9   45  -0.725  -0.078   0.011
    1UNL    H10   46  -0.729  -0.280   0.108
    1UNL    H11   47  -0.473  -0.258   0.050
    1UNL    H12   48  -0.631  -0.303  -0.163
    1UNL    H13   49  -0.380  -0.156  -0.133
    1UNL    H14   50  -0.491  -0.092  -0.326
    1UNL    H15   51  -0.033   0.025  -0.370
    1UNL    H16   52   0.064   0.167  -0.416
    1UNL    H17   53   0.227   0.027  -0.375
    1UNL    H18   54   0.144  -0.059  -0.237
    1UNL    H19   55   0.244   0.240  -0.227
    1UNL    H20   56   0.424   0.089  -0.228
    1UNL    H21   57   0.374  -0.024  -0.107
    1UNL    H22   58   0.523   0.275   0.168
    1UNL    H23   59   0.658   0.156   0.347
    1UNL    H24   60   0.666  -0.065   0.060
    1UNL    H25   61   0.691  -0.309   0.068
    1UNL    H26   62   0.731  -0.488   0.203
    1UNL    H27   63   0.697  -0.288   0.490
    1UNL    H28   64   0.648  -0.039   0.479
    1UNL    H29   65   0.163   0.247   0.004
    1UNL    H30   66   0.185   0.083   0.022
    1UNL    H31   67  -0.071   0.193  -0.006
    1UNL    H32   68  -0.009  -0.063  -0.119
   0.00000   0.00000   0.00000   0.00000   0.00000   0.00000   0.00000   0.00000   0.00000
Generated with MDTraj, t= 29.0
 68
    1UNL     O1    1   0.105   0.383  -0.225
    1UNL     C1    2  -0.007   0.346  -0.241
    1UNL     C2    3  -0.041   0.194  -0.216
    1UNL     C3    4  -0.189   0.176  -0.227
    1UNL     C4    5  -0.275   0.126  -0.132
    1UNL     O2    6  -0.405   0.094  -0.174
    1UNL     C5    7  -0.476   0.019  -0.073
    1UNL     O3    8  -0.450   0.043   0.067
    1UNL     C6    9  -0.559  -0.020   0.147
    1UNL     C7   10  -0.668   0.088   0.195
    1UNL     O4   11  -0.764   0.033   0.288
    1UNL     C8   12  -0.622  -0.142   0.077
    1UNL     O5   13  -0.697  -0.228   0.168
    1UNL     C9   14  -0.520  -0.221  -0.002
    1UNL     O6   15  -0.582  -0.333  -0.066
    1UNL    C10   16  -0.459  -0.127  -0.111
    1UNL     O7   17  -0.516  -0.145  -0.233
    1UNL    C11   18   0.036   0.106  -0.325
    1UNL    C12   19   0.175   0.040  -0.279
    1UNL    C13   20   0.246   0.132  -0.181
    1UNL    C14   21   0.386   0.069  -0.153
    1UNL     O8   22   0.474   0.133  -0.063
    1UNL    C15   23   0.441   0.089   0.070
    1UNL     O9   24   0.356   0.010   0.101
    1UNL    C16   25   0.510   0.171   0.178
    1UNL    C17   26   0.577   0.108   0.272
    1UNL    C18   27   0.622  -0.031   0.267
    1UNL    C19   28   0.622  -0.102   0.147
    1UNL    C20   29   0.632  -0.245   0.150
    1UNL    C21   30   0.664  -0.317   0.268
    1UNL    O10   31   0.679  -0.452   0.273
    1UNL    C22   32   0.672  -0.236   0.383
    1UNL    C23   33   0.649  -0.102   0.385
    1UNL    C24   34   0.162   0.149  -0.049
    1UNL    C25   35   0.009   0.148  -0.077
    1UNL    O11   36  -0.051   0.026  -0.037
    1UNL     H1   37  -0.087   0.421  -0.254
    1UNL     H2   38  -0.239   0.186  -0.330
    1UNL     H3   39  -0.249   0.111  -0.027
    1UNL     H4   40  -0.573   0.059  -0.077
    1UNL     H5   41  -0.500  -0.056   0.233
    1UNL     H6   42  -0.733   0.115   0.108
    1UNL     H7   43  -0.625   0.176   0.236
    1UNL     H8   44  -0.754  -0.059   0.277
    1UNL     H9   45  -0.708  -0.099   0.006
    1UNL    H10   46  -0.719  -0.314   0.120
    1UNL    H11   47  -0.441  -0.249   0.067
    1UNL    H12   48  -0.597  -0.297  -0.155
    1UNL    H13   49  -0.356  -0.135  -0.125
    1UNL    H14   50  -0.504  -0.073  -0.298
    1UNL    H15   51  -0.027   0.026  -0.351
    1UNL    H16   52   0.059   0.172  -0.409
    1UNL    H17   53   0.235   0.010  -0.374
    1UNL    H18   54   0.150  -0.055  -0.228
    1UNL    H19   55   0.260   0.238  -0.226
    1UNL    H20   56   0.439   0.053  -0.244
    1UNL    H21   57   0.359  -0.029  -0.106
    1UNL    H22   58   0.491   0.276   0.181
    1UNL    H23   59   0.593   0.160   0.355
    1UNL    H24   60   0.588  -0.066   0.052
    1UNL    H25   61   0.613  -0.305   0.067
    1UNL    H26   62   0.682  -0.481   0.181
    1UNL    H27   63   0.679  -0.276   0.486
    1UNL    H28   64   0.656  -0.048   0.482
    1UNL    H29   65   0.192   0.239   0.002
    1UNL    H30   66   0.183   0.067   0.032
    1UNL    H31   67  -0.043   0.218  -0.011
    1UNL    H32   68  -0.039  -0.044  -0.106
   0.00000   0.00000   0.00000   0.00000   0.00000   0.00000   0.00000   0.00000   0.00000
Generated with MDTraj, t= 30.0
 68
    1UNL     O1    1   0.111   0.365  -0.281
    1UNL     C1    2   0.009   0.338  -0.226
    1UNL     C2    3  -0.037   0.196  -0.193
    1UNL     C3    4  -0.184   0.198  -0.206
    1UNL     C4    5  -0.268   0.123  -0.130
    1UNL     O2    6  -0.400   0.115  -0.169
    1UNL     C5    7  -0.472   0.032  -0.073
    1UNL     O3    8  -0.463   0.064   0.069
    1UNL     C6    9  -0.557  -0.011   0.151
    1UNL     C7   10  -0.674   0.084   0.184
    1UNL     O4   11  -0.782   0.014   0.249
    1UNL     C8   12  -0.602  -0.138   0.085
    1UNL     O5   13  -0.658  -0.233   0.181
    1UNL     C9   14  -0.491  -0.209   0.001
    1UNL     O6   15  -0.529  -0.341  -0.051
    1UNL    C10   16  -0.437  -0.119  -0.115
    1UNL     O7   17  -0.503  -0.160  -0.232
    1UNL    C11   18   0.018   0.109  -0.312
    1UNL    C12   19   0.148   0.037  -0.272
    1UNL    C13   20   0.235   0.129  -0.188
    1UNL    C14   21   0.375   0.070  -0.158
    1UNL     O8   22   0.441   0.150  -0.059
    1UNL    C15   23   0.423   0.106   0.071
    1UNL     O9   24   0.366   0.009   0.107
    1UNL    C16   25   0.505   0.174   0.180
    1UNL    C17   26   0.581   0.106   0.268
    1UNL    C18   27   0.598  -0.038   0.259
    1UNL    C19   28   0.593  -0.118   0.139
    1UNL    C20   29   0.605  -0.252   0.145
    1UNL    C21   30   0.637  -0.317   0.260
    1UNL    O10   31   0.663  -0.455   0.275
    1UNL    C22   32   0.661  -0.245   0.377
    1UNL    C23   33   0.639  -0.105   0.370
    1UNL    C24   34   0.170   0.170  -0.054
    1UNL    C25   35   0.021   0.140  -0.053
    1UNL    O11   36  -0.032   0.011  -0.030
    1UNL     H1   37  -0.044   0.418  -0.182
    1UNL     H2   38  -0.233   0.254  -0.277
    1UNL     H3   39  -0.229   0.050  -0.056
    1UNL     H4   40  -0.577   0.039  -0.090
    1UNL     H5   41  -0.512  -0.040   0.244
    1UNL     H6   42  -0.717   0.126   0.088
    1UNL     H7   43  -0.647   0.163   0.251
    1UNL     H8   44  -0.772  -0.088   0.227
    1UNL     H9   45  -0.694  -0.119   0.010
    1UNL    H10   46  -0.664  -0.320   0.142
    1UNL    H11   47  -0.410  -0.235   0.071
    1UNL    H12   48  -0.572  -0.329  -0.141
    1UNL    H13   49  -0.339  -0.133  -0.148
    1UNL    H14   50  -0.517  -0.090  -0.302
    1UNL    H15   51  -0.055   0.037  -0.334
    1UNL    H16   52   0.029   0.180  -0.395
    1UNL    H17   53   0.216  -0.003  -0.359
    1UNL    H18   54   0.126  -0.056  -0.213
    1UNL    H19   55   0.254   0.222  -0.255
    1UNL    H20   56   0.435   0.060  -0.249
    1UNL    H21   57   0.368  -0.036  -0.111
    1UNL    H22   58   0.504   0.281   0.176
    1UNL    H23   59   0.638   0.164   0.350
    1UNL    H24   60   0.570  -0.074   0.040
    1UNL    H25   61   0.568  -0.315   0.060
    1UNL    H26   62   0.653  -0.494   0.188
    1UNL    H27   63   0.690  -0.296   0.463
    1UNL    H28   64   0.652  -0.046   0.455
    1UNL    H29   65   0.191   0.274  -0.042
    1UNL    H30   66   0.224   0.114   0.029
    1UNL    H31   67  -0.030   0.203   0.021
    1UNL    H32   68  -0.032  -0.006   0.065
   0.00000   0.00000   0.00000   0.00000   0.00000   0.00000   0.00000   0.00000   0.00000
Generated with MDTraj, t= 31.0
 68
    1UNL     O1    1   0.091   0.355  -0.327
    1UNL     C1    2   0.014   0.343  -0.236
    1UNL     C2    3  -0.056   0.213  -0.198
    1UNL     C3    4  -0.202   0.219  -0.221
    1UNL     C4    5  -0.282   0.139  -0.153
    1UNL     O2    6  -0.420   0.145  -0.155
    1UNL     C5    7  -0.484   0.042  -0.082
    1UNL     O3    8  -0.459   0.059   0.056
    1UNL     C6    9  -0.555  -0.010   0.140
    1UNL     C7   10  -0.693   0.068   0.151
    1UNL     O4   11  -0.783   0.002   0.239
    1UNL     C8   12  -0.578  -0.153   0.094
    1UNL     O5   13  -0.623  -0.241   0.191
    1UNL     C9   14  -0.459  -0.205   0.011
    1UNL     O6   15  -0.480  -0.340  -0.027
    1UNL    C10   16  -0.438  -0.114  -0.115
    1UNL     O7   17  -0.503  -0.169  -0.224
    1UNL    C11   18   0.012   0.113  -0.300
    1UNL    C12   19   0.142   0.049  -0.258
    1UNL    C13   20   0.224   0.144  -0.171
    1UNL    C14   21   0.368   0.089  -0.155
    1UNL     O8   22   0.457   0.151  -0.065
    1UNL    C15   23   0.443   0.104   0.068
    1UNL     O9   24   0.361   0.026   0.104
    1UNL    C16   25   0.539   0.159   0.159
    1UNL    C17   26   0.603   0.089   0.256
    1UNL    C18   27   0.604  -0.055   0.270
    1UNL    C19   28   0.600  -0.131   0.153
    1UNL    C20   29   0.616  -0.269   0.146
    1UNL    C21   30   0.638  -0.333   0.271
    1UNL    O10   31   0.648  -0.471   0.285
    1UNL    C22   32   0.646  -0.259   0.386
    1UNL    C23   33   0.634  -0.122   0.387
    1UNL    C24   34   0.142   0.172  -0.039
    1UNL    C25   35  -0.014   0.164  -0.050
    1UNL    O11   36  -0.060   0.025  -0.019
    1UNL     H1   37  -0.025   0.436  -0.192
    1UNL     H2   38  -0.248   0.295  -0.285
    1UNL     H3   39  -0.231   0.077  -0.084
    1UNL     H4   40  -0.589   0.049  -0.097
    1UNL     H5   41  -0.513  -0.003   0.237
    1UNL     H6   42  -0.753   0.061   0.054
    1UNL     H7   43  -0.674   0.172   0.180
    1UNL     H8   44  -0.751  -0.083   0.258
    1UNL     H9   45  -0.665  -0.154   0.010
    1UNL    H10   46  -0.591  -0.334   0.174
    1UNL    H11   47  -0.372  -0.202   0.083
    1UNL    H12   48  -0.511  -0.342  -0.118
    1UNL    H13   49  -0.339  -0.101  -0.146
    1UNL    H14   50  -0.515  -0.097  -0.292
    1UNL    H15   51  -0.066   0.048  -0.328
    1UNL    H16   52   0.034   0.172  -0.388
    1UNL    H17   53   0.204   0.008  -0.347
    1UNL    H18   54   0.132  -0.044  -0.194
    1UNL    H19   55   0.228   0.237  -0.236
    1UNL    H20   56   0.427   0.082  -0.251
    1UNL    H21   57   0.358  -0.020  -0.114
    1UNL    H22   58   0.540   0.267   0.166
    1UNL    H23   59   0.646   0.144   0.337
    1UNL    H24   60   0.574  -0.088   0.061
    1UNL    H25   61   0.604  -0.332   0.062
    1UNL    H26   62   0.617  -0.511   0.201
    1UNL    H27   63   0.681  -0.313   0.479
    1UNL    H28   64   0.636  -0.060   0.478
    1UNL    H29   65   0.178   0.268  -0.003
    1UNL    H30   66   0.180   0.092   0.020
    1UNL    H31   67  -0.063   0.227   0.025
    1UNL    H32   68   0.017  -0.033  -0.015
   0.00000   0.00000   0.00000   0.00000   0.00000   0.00000   0.00000   0.00000   0.00000
Generated with MDTraj, t= 32.0
 68
    1UNL     O1    1   0.061   0.382  -0.336
    1UNL     C1    2  -0.012   0.353  -0.244
    1UNL     C2    3  -0.052   0.214  -0.209
    1UNL     C3    4  -0.201   0.199  -0.230
    1UNL     C4    5  -0.295   0.160  -0.145
    1UNL     O2    6  -0.427   0.142  -0.180
    1UNL     C5    7  -0.486   0.044  -0.103
    1UNL     O3    8  -0.486   0.084   0.038
    1UNL     C6    9  -0.558  -0.007   0.134
    1UNL     C7   10  -0.700   0.047   0.155
    1UNL     O4   11  -0.772  -0.033   0.246
    1UNL     C8   12  -0.564  -0.155   0.096
    1UNL     O5   13  -0.587  -0.238   0.202
    1UNL     C9   14  -0.434  -0.184   0.014
    1UNL     O6   15  -0.437  -0.324  -0.008
    1UNL    C10   16  -0.433  -0.109  -0.126
    1UNL     O7   17  -0.517  -0.182  -0.218
    1UNL    C11   18   0.001   0.105  -0.308
    1UNL    C12   19   0.144   0.060  -0.278
    1UNL    C13   20   0.227   0.144  -0.171
    1UNL    C14   21   0.370   0.097  -0.151
    1UNL     O8   22   0.433   0.162  -0.044
    1UNL    C15   23   0.441   0.094   0.077
    1UNL     O9   24   0.362   0.009   0.106
    1UNL    C16   25   0.555   0.153   0.157
    1UNL    C17   26   0.625   0.075   0.243
    1UNL    C18   27   0.623  -0.070   0.257
    1UNL    C19   28   0.607  -0.152   0.141
    1UNL    C20   29   0.620  -0.291   0.158
    1UNL    C21   30   0.631  -0.348   0.286
    1UNL    O10   31   0.639  -0.483   0.308
    1UNL    C22   32   0.632  -0.259   0.398
    1UNL    C23   33   0.621  -0.127   0.385
    1UNL    C24   34   0.152   0.152  -0.038
    1UNL    C25   35  -0.002   0.187  -0.061
    1UNL    O11   36  -0.079   0.088   0.011
    1UNL     H1   37  -0.079   0.430  -0.202
    1UNL     H2   38  -0.228   0.227  -0.332
    1UNL     H3   39  -0.275   0.146  -0.041
    1UNL     H4   40  -0.590   0.043  -0.129
    1UNL     H5   41  -0.502  -0.000   0.223
    1UNL     H6   42  -0.749   0.045   0.051
    1UNL     H7   43  -0.705   0.147   0.199
    1UNL     H8   44  -0.747  -0.134   0.240
    1UNL     H9   45  -0.654  -0.178   0.019
    1UNL    H10   46  -0.556  -0.330   0.186
    1UNL    H11   47  -0.346  -0.155   0.081
    1UNL    H12   48  -0.462  -0.337  -0.105
    1UNL    H13   49  -0.332  -0.117  -0.157
    1UNL    H14   50  -0.530  -0.147  -0.309
    1UNL    H15   51  -0.066   0.023  -0.317
    1UNL    H16   52   0.006   0.160  -0.403
    1UNL    H17   53   0.205   0.042  -0.372
    1UNL    H18   54   0.135  -0.045  -0.229
    1UNL    H19   55   0.231   0.247  -0.220
    1UNL    H20   56   0.436   0.107  -0.242
    1UNL    H21   57   0.363  -0.017  -0.123
    1UNL    H22   58   0.585   0.253   0.136
    1UNL    H23   59   0.704   0.116   0.302
    1UNL    H24   60   0.571  -0.112   0.043
    1UNL    H25   61   0.615  -0.356   0.072
    1UNL    H26   62   0.613  -0.532   0.227
    1UNL    H27   63   0.635  -0.291   0.496
    1UNL    H28   64   0.635  -0.059   0.464
    1UNL    H29   65   0.200   0.231   0.021
    1UNL    H30   66   0.157   0.061   0.008
    1UNL    H31   67  -0.027   0.274   0.003
    1UNL    H32   68  -0.034   0.001   0.005
   0.00000   0.00000   0.00000   0.00000   0.00000   0.00000   0.00000   0.00000   0.00000
Generated with MDTraj, t= 33.0
 68
    1UNL     O1    1   0.069   0.376  -0.333
    1UNL     C1    2  -0.018   0.364  -0.253
    1UNL     C2    3  -0.061   0.227  -0.217
    1UNL     C3    4  -0.214   0.223  -0.235
    1UNL     C4    5  -0.302   0.151  -0.163
    1UNL     O2    6  -0.435   0.134  -0.198
    1UNL     C5    7  -0.501   0.046  -0.108
    1UNL     O3    8  -0.501   0.085   0.036
    1UNL     C6    9  -0.561  -0.004   0.137
    1UNL     C7   10  -0.707   0.034   0.155
    1UNL     O4   11  -0.774  -0.044   0.258
    1UNL     C8   12  -0.543  -0.158   0.105
    1UNL     O5   13  -0.544  -0.236   0.215
    1UNL     C9   14  -0.418  -0.175   0.013
    1UNL     O6   15  -0.391  -0.316  -0.015
    1UNL    C10   16  -0.436  -0.098  -0.117
    1UNL     O7   17  -0.508  -0.168  -0.213
    1UNL    C11   18  -0.011   0.100  -0.304
    1UNL    C12   19   0.127   0.051  -0.250
    1UNL    C13   20   0.202   0.157  -0.165
    1UNL    C14   21   0.352   0.108  -0.147
    1UNL     O8   22   0.435   0.169  -0.059
    1UNL    C15   23   0.464   0.094   0.052
    1UNL     O9   24   0.421  -0.015   0.061
    1UNL    C16   25   0.545   0.144   0.164
    1UNL    C17   26   0.604   0.064   0.258
    1UNL    C18   27   0.610  -0.079   0.267
    1UNL    C19   28   0.605  -0.161   0.154
    1UNL    C20   29   0.610  -0.295   0.171
    1UNL    C21   30   0.620  -0.352   0.296
    1UNL    O10   31   0.614  -0.488   0.320
    1UNL    C22   32   0.639  -0.272   0.411
    1UNL    C23   33   0.634  -0.137   0.393
    1UNL    C24   34   0.132   0.187  -0.037
    1UNL    C25   35  -0.022   0.198  -0.066
    1UNL    O11   36  -0.073   0.075  -0.021
    1UNL     H1   37  -0.059   0.452  -0.209
    1UNL     H2   38  -0.245   0.265  -0.325
    1UNL     H3   39  -0.272   0.083  -0.082
    1UNL     H4   40  -0.604   0.055  -0.139
    1UNL     H5   41  -0.502   0.012   0.224
    1UNL     H6   42  -0.770   0.022   0.060
    1UNL     H7   43  -0.712   0.138   0.187
    1UNL     H8   44  -0.716  -0.115   0.289
    1UNL     H9   45  -0.636  -0.203   0.044
    1UNL    H10   46  -0.513  -0.326   0.197
    1UNL    H11   47  -0.332  -0.125   0.073
    1UNL    H12   48  -0.421  -0.335  -0.105
    1UNL    H13   49  -0.333  -0.084  -0.145
    1UNL    H14   50  -0.509  -0.121  -0.299
    1UNL    H15   51  -0.077   0.018  -0.286
    1UNL    H16   52   0.004   0.120  -0.409
    1UNL    H17   53   0.198   0.026  -0.334
    1UNL    H18   54   0.112  -0.048  -0.189
    1UNL    H19   55   0.217   0.253  -0.224
    1UNL    H20   56   0.393   0.132  -0.248
    1UNL    H21   57   0.360  -0.007  -0.131
    1UNL    H22   58   0.552   0.254   0.165
    1UNL    H23   59   0.672   0.123   0.330
    1UNL    H24   60   0.590  -0.125   0.057
    1UNL    H25   61   0.612  -0.358   0.080
    1UNL    H26   62   0.593  -0.535   0.235
    1UNL    H27   63   0.683  -0.329   0.496
    1UNL    H28   64   0.647  -0.068   0.476
    1UNL    H29   65   0.163   0.280   0.011
    1UNL    H30   66   0.143   0.108   0.028
    1UNL    H31   67  -0.066   0.276   0.000
    1UNL    H32   68  -0.003   0.005  -0.039
   0.00000   0.00000   0.00000   0.00000   0.00000   0.00000   0.00000   0.00000   0.00000
Generated with MDTraj, t= 34.0
 68
    1UNL     O1    1   0.076   0.381  -0.319
    1UNL     C1    2  -0.023   0.362  -0.257
    1UNL     C2    3  -0.077   0.227  -0.221
    1UNL     C3    4  -0.226   0.234  -0.231
    1UNL     C4    5  -0.304   0.161  -0.156
    1UNL     O2    6  -0.435   0.133  -0.193
    1UNL     C5    7  -0.493   0.048  -0.096
    1UNL     O3    8  -0.489   0.092   0.043
    1UNL     C6    9  -0.544   0.000   0.139
    1UNL     C7   10  -0.693   0.029   0.147
    1UNL     O4   11  -0.753  -0.049   0.251
    1UNL     C8   12  -0.522  -0.157   0.108
    1UNL     O5   13  -0.519  -0.242   0.219
    1UNL     C9   14  -0.398  -0.170   0.019
    1UNL     O6   15  -0.372  -0.312  -0.013
    1UNL    C10   16  -0.423  -0.096  -0.112
    1UNL     O7   17  -0.510  -0.170  -0.208
    1UNL    C11   18  -0.024   0.128  -0.323
    1UNL    C12   19   0.114   0.071  -0.285
    1UNL    C13   20   0.199   0.168  -0.190
    1UNL    C14   21   0.339   0.111  -0.151
    1UNL     O8   22   0.388   0.172  -0.033
    1UNL    C15   23   0.446   0.079   0.049
    1UNL     O9   24   0.429  -0.037   0.033
    1UNL    C16   25   0.523   0.130   0.162
    1UNL    C17   26   0.599   0.060   0.247
    1UNL    C18   27   0.617  -0.081   0.266
    1UNL    C19   28   0.605  -0.175   0.165
    1UNL    C20   29   0.606  -0.311   0.183
    1UNL    C21   30   0.613  -0.359   0.317
    1UNL    O10   31   0.620  -0.495   0.342
    1UNL    C22   32   0.622  -0.267   0.418
    1UNL    C23   33   0.617  -0.130   0.400
    1UNL    C24   34   0.128   0.200  -0.059
    1UNL    C25   35  -0.022   0.195  -0.072
    1UNL    O11   36  -0.056   0.064  -0.034
    1UNL     H1   37  -0.067   0.446  -0.200
    1UNL     H2   38  -0.266   0.266  -0.333
    1UNL     H3   39  -0.273   0.126  -0.059
    1UNL     H4   40  -0.591   0.020  -0.135
    1UNL     H5   41  -0.491   0.028   0.229
    1UNL     H6   42  -0.750  -0.000   0.053
    1UNL     H7   43  -0.719   0.133   0.167
    1UNL     H8   44  -0.705  -0.137   0.252
    1UNL     H9   45  -0.615  -0.197   0.043
    1UNL    H10   46  -0.502  -0.338   0.191
    1UNL    H11   47  -0.313  -0.116   0.077
    1UNL    H12   48  -0.434  -0.344  -0.083
    1UNL    H13   49  -0.326  -0.083  -0.157
    1UNL    H14   50  -0.515  -0.114  -0.289
    1UNL    H15   51  -0.089   0.042  -0.324
    1UNL    H16   52  -0.018   0.174  -0.420
    1UNL    H17   53   0.179   0.048  -0.374
    1UNL    H18   54   0.110  -0.029  -0.224
    1UNL    H19   55   0.226   0.263  -0.237
    1UNL    H20   56   0.420   0.123  -0.221
    1UNL    H21   57   0.319   0.000  -0.129
    1UNL    H22   58   0.525   0.235   0.177
    1UNL    H23   59   0.643   0.123   0.312
    1UNL    H24   60   0.589  -0.140   0.061
    1UNL    H25   61   0.586  -0.381   0.111
    1UNL    H26   62   0.631  -0.543   0.253
    1UNL    H27   63   0.639  -0.307   0.517
    1UNL    H28   64   0.610  -0.062   0.484
    1UNL    H29   65   0.163   0.289  -0.012
    1UNL    H30   66   0.152   0.123   0.014
    1UNL    H31   67  -0.067   0.271  -0.006
    1UNL    H32   68  -0.075   0.058   0.064
   0.00000   0.00000   0.00000   0.00000   0.00000   0.00000   0.00000   0.00000   0.00000
Generated with MDTraj, t= 35.0
 68
    1UNL     O1    1   0.054   0.434  -0.317
    1UNL     C1    2  -0.046   0.394  -0.264
    1UNL     C2    3  -0.086   0.247  -0.236
    1UNL     C3    4  -0.234   0.230  -0.259
    1UNL     C4    5  -0.308   0.171  -0.170
    1UNL     O2    6  -0.442   0.137  -0.187
    1UNL     C5    7  -0.486   0.039  -0.085
    1UNL     O3    8  -0.473   0.083   0.051
    1UNL     C6    9  -0.525  -0.005   0.144
    1UNL     C7   10  -0.673   0.033   0.172
    1UNL     O4   11  -0.734  -0.066   0.247
    1UNL     C8   12  -0.508  -0.156   0.113
    1UNL     O5   13  -0.505  -0.250   0.221
    1UNL     C9   14  -0.390  -0.171   0.019
    1UNL     O6   15  -0.378  -0.317  -0.001
    1UNL    C10   16  -0.418  -0.101  -0.113
    1UNL     O7   17  -0.508  -0.177  -0.200
    1UNL    C11   18  -0.006   0.172  -0.344
    1UNL    C12   19   0.106   0.089  -0.294
    1UNL    C13   20   0.202   0.168  -0.195
    1UNL    C14   21   0.328   0.092  -0.160
    1UNL     O8   22   0.415   0.155  -0.062
    1UNL    C15   23   0.454   0.058   0.033
    1UNL     O9   24   0.411  -0.056   0.030
    1UNL    C16   25   0.532   0.116   0.145
    1UNL    C17   26   0.582   0.055   0.256
    1UNL    C18   27   0.590  -0.094   0.285
    1UNL    C19   28   0.618  -0.184   0.177
    1UNL    C20   29   0.627  -0.316   0.211
    1UNL    C21   30   0.620  -0.371   0.339
    1UNL    O10   31   0.642  -0.507   0.363
    1UNL    C22   32   0.602  -0.270   0.442
    1UNL    C23   33   0.586  -0.137   0.415
    1UNL    C24   34   0.117   0.213  -0.072
    1UNL    C25   35  -0.037   0.210  -0.089
    1UNL    O11   36  -0.081   0.076  -0.054
    1UNL     H1   37  -0.099   0.471  -0.208
    1UNL     H2   38  -0.275   0.244  -0.351
    1UNL     H3   39  -0.268   0.142  -0.076
    1UNL     H4   40  -0.593   0.023  -0.105
    1UNL     H5   41  -0.461   0.016   0.232
    1UNL     H6   42  -0.730   0.038   0.075
    1UNL     H7   43  -0.697   0.123   0.227
    1UNL     H8   44  -0.664  -0.131   0.272
    1UNL     H9   45  -0.604  -0.192   0.050
    1UNL    H10   46  -0.484  -0.338   0.186
    1UNL    H11   47  -0.294  -0.128   0.065
    1UNL    H12   48  -0.446  -0.348  -0.062
    1UNL    H13   49  -0.319  -0.083  -0.156
    1UNL    H14   50  -0.518  -0.130  -0.287
    1UNL    H15   51  -0.068   0.113  -0.412
    1UNL    H16   52   0.031   0.253  -0.403
    1UNL    H17   53   0.173   0.040  -0.370
    1UNL    H18   54   0.075  -0.000  -0.230
    1UNL    H19   55   0.217   0.258  -0.256
    1UNL    H20   56   0.379   0.070  -0.248
    1UNL    H21   57   0.298  -0.003  -0.111
    1UNL    H22   58   0.555   0.223   0.142
    1UNL    H23   59   0.629   0.119   0.339
    1UNL    H24   60   0.599  -0.141   0.082
    1UNL    H25   61   0.645  -0.389   0.126
    1UNL    H26   62   0.649  -0.558   0.278
    1UNL    H27   63   0.595  -0.295   0.542
    1UNL    H28   64   0.571  -0.068   0.494
    1UNL    H29   65   0.154   0.302  -0.035
    1UNL    H30   66   0.145   0.143   0.013
    1UNL    H31   67  -0.091   0.282  -0.026
    1UNL    H32   68  -0.055   0.005  -0.114
   0.00000   0.00000   0.00000   0.00000   0.00000   0.00000   0.00000   0.00000   0.00000
Generated with MDTraj, t= 36.0
 68
    1UNL     O1    1   0.030   0.472  -0.260
    1UNL     C1    2  -0.076   0.413  -0.256
    1UNL     C2    3  -0.082   0.258  -0.250
    1UNL     C3    4  -0.228   0.219  -0.258
    1UNL     C4    5  -0.306   0.164  -0.163
    1UNL     O2    6  -0.439   0.146  -0.180
    1UNL     C5    7  -0.489   0.037  -0.088
    1UNL     O3    8  -0.459   0.071   0.044
    1UNL     C6    9  -0.515  -0.010   0.144
    1UNL     C7   10  -0.659   0.029   0.183
    1UNL     O4   11  -0.709  -0.046   0.292
    1UNL     C8   12  -0.511  -0.161   0.110
    1UNL     O5   13  -0.489  -0.243   0.223
    1UNL     C9   14  -0.394  -0.181   0.012
    1UNL     O6   15  -0.370  -0.324  -0.012
    1UNL    C10   16  -0.415  -0.101  -0.118
    1UNL     O7   17  -0.488  -0.177  -0.209
    1UNL    C11   18   0.004   0.192  -0.369
    1UNL    C12   19   0.125   0.104  -0.324
    1UNL    C13   20   0.210   0.169  -0.210
    1UNL    C14   21   0.311   0.067  -0.159
    1UNL     O8   22   0.391   0.132  -0.060
    1UNL    C15   23   0.435   0.044   0.030
    1UNL     O9   24   0.419  -0.077   0.032
    1UNL    C16   25   0.506   0.099   0.141
    1UNL    C17   26   0.560   0.040   0.246
    1UNL    C18   27   0.570  -0.100   0.270
    1UNL    C19   28   0.610  -0.194   0.180
    1UNL    C20   29   0.632  -0.321   0.218
    1UNL    C21   30   0.623  -0.360   0.353
    1UNL    O10   31   0.657  -0.485   0.398
    1UNL    C22   32   0.587  -0.267   0.448
    1UNL    C23   33   0.565  -0.140   0.408
    1UNL    C24   34   0.120   0.229  -0.095
    1UNL    C25   35  -0.031   0.207  -0.112
    1UNL    O11   36  -0.075   0.078  -0.066
    1UNL     H1   37  -0.161   0.475  -0.263
    1UNL     H2   38  -0.278   0.256  -0.351
    1UNL     H3   39  -0.273   0.117  -0.070
    1UNL     H4   40  -0.599   0.030  -0.100
    1UNL     H5   41  -0.453   0.012   0.236
    1UNL     H6   42  -0.732   0.015   0.101
    1UNL     H7   43  -0.652   0.131   0.211
    1UNL     H8   44  -0.659  -0.128   0.295
    1UNL     H9   45  -0.620  -0.186   0.068
    1UNL    H10   46  -0.469  -0.333   0.197
    1UNL    H11   47  -0.302  -0.138   0.062
    1UNL    H12   48  -0.429  -0.351  -0.086
    1UNL    H13   49  -0.313  -0.085  -0.156
    1UNL    H14   50  -0.498  -0.138  -0.299
    1UNL    H15   51  -0.064   0.125  -0.422
    1UNL    H16   52   0.039   0.267  -0.436
    1UNL    H17   53   0.206   0.088  -0.403
    1UNL    H18   54   0.105  -0.001  -0.290
    1UNL    H19   55   0.267   0.248  -0.262
    1UNL    H20   56   0.382   0.034  -0.226
    1UNL    H21   57   0.262  -0.022  -0.120
    1UNL    H22   58   0.497   0.206   0.145
    1UNL    H23   59   0.613   0.097   0.314
    1UNL    H24   60   0.614  -0.161   0.076
    1UNL    H25   61   0.645  -0.394   0.144
    1UNL    H26   62   0.658  -0.552   0.327
    1UNL    H27   63   0.576  -0.306   0.554
    1UNL    H28   64   0.531  -0.066   0.483
    1UNL    H29   65   0.142   0.329  -0.081
    1UNL    H30   66   0.158   0.188   0.006
    1UNL    H31   67  -0.081   0.278  -0.044
    1UNL    H32   68  -0.017   0.008  -0.095
   0.00000   0.00000   0.00000   0.00000   0.00000   0.00000   0.00000   0.00000   0.00000
Generated with MDTraj, t= 37.0
 68
    1UNL     O1    1   0.001   0.481  -0.193
    1UNL     C1    2  -0.088   0.410  -0.232
    1UNL     C2    3  -0.087   0.264  -0.254
    1UNL     C3    4  -0.228   0.223  -0.270
    1UNL     C4    5  -0.308   0.164  -0.177
    1UNL     O2    6  -0.435   0.129  -0.194
    1UNL     C5    7  -0.469   0.035  -0.088
    1UNL     O3    8  -0.449   0.081   0.040
    1UNL     C6    9  -0.494  -0.011   0.143
    1UNL     C7   10  -0.629   0.040   0.199
    1UNL     O4   11  -0.662  -0.036   0.316
    1UNL     C8   12  -0.507  -0.165   0.101
    1UNL     O5   13  -0.503  -0.235   0.225
    1UNL     C9   14  -0.382  -0.190   0.010
    1UNL     O6   15  -0.379  -0.327  -0.019
    1UNL    C10   16  -0.396  -0.108  -0.124
    1UNL     O7   17  -0.470  -0.185  -0.210
    1UNL    C11   18  -0.004   0.209  -0.382
    1UNL    C12   19   0.103   0.101  -0.335
    1UNL    C13   20   0.203   0.170  -0.240
    1UNL    C14   21   0.285   0.061  -0.164
    1UNL     O8   22   0.364   0.118  -0.062
    1UNL    C15   23   0.430   0.031   0.027
    1UNL     O9   24   0.419  -0.092   0.016
    1UNL    C16   25   0.496   0.094   0.143
    1UNL    C17   26   0.542   0.042   0.257
    1UNL    C18   27   0.557  -0.097   0.284
    1UNL    C19   28   0.595  -0.194   0.193
    1UNL    C20   29   0.627  -0.324   0.229
    1UNL    C21   30   0.629  -0.364   0.365
    1UNL    O10   31   0.650  -0.494   0.404
    1UNL    C22   32   0.594  -0.259   0.459
    1UNL    C23   33   0.559  -0.132   0.422
    1UNL    C24   34   0.130   0.253  -0.130
    1UNL    C25   35  -0.021   0.213  -0.121
    1UNL    O11   36  -0.051   0.078  -0.100
    1UNL     H1   37  -0.179   0.462  -0.265
    1UNL     H2   38  -0.272   0.271  -0.355
    1UNL     H3   39  -0.280   0.139  -0.073
    1UNL     H4   40  -0.579   0.015  -0.098
    1UNL     H5   41  -0.414  -0.010   0.226
    1UNL     H6   42  -0.696   0.022   0.114
    1UNL     H7   43  -0.620   0.142   0.224
    1UNL     H8   44  -0.609  -0.124   0.308
    1UNL     H9   45  -0.603  -0.197   0.036
    1UNL    H10   46  -0.506  -0.333   0.209
    1UNL    H11   47  -0.289  -0.161   0.064
    1UNL    H12   48  -0.430  -0.340  -0.103
    1UNL    H13   49  -0.297  -0.083  -0.168
    1UNL    H14   50  -0.480  -0.139  -0.296
    1UNL    H15   51  -0.066   0.150  -0.451
    1UNL    H16   52   0.043   0.291  -0.430
    1UNL    H17   53   0.164   0.057  -0.422
    1UNL    H18   54   0.064   0.012  -0.285
    1UNL    H19   55   0.279   0.227  -0.300
    1UNL    H20   56   0.350   0.014  -0.227
    1UNL    H21   57   0.228  -0.016  -0.113
    1UNL    H22   58   0.488   0.201   0.132
    1UNL    H23   59   0.574   0.113   0.337
    1UNL    H24   60   0.594  -0.161   0.092
    1UNL    H25   61   0.632  -0.397   0.150
    1UNL    H26   62   0.676  -0.553   0.332
    1UNL    H27   63   0.594  -0.296   0.555
    1UNL    H28   64   0.521  -0.068   0.496
    1UNL    H29   65   0.133   0.358  -0.149
    1UNL    H30   66   0.178   0.243  -0.028
    1UNL    H31   67  -0.055   0.266  -0.031
    1UNL    H32   68  -0.095   0.065  -0.014
   0.00000   0.00000   0.00000   0.00000   0.00000   0.00000   0.00000   0.00000   0.00000
Generated with MDTraj, t= 38.0
 68
    1UNL     O1    1  -0.041   0.496  -0.188
    1UNL     C1    2  -0.114   0.424  -0.247
    1UNL     C2    3  -0.094   0.277  -0.259
    1UNL     C3    4  -0.215   0.202  -0.292
    1UNL     C4    5  -0.296   0.167  -0.194
    1UNL     O2    6  -0.417   0.108  -0.205
    1UNL     C5    7  -0.450   0.022  -0.093
    1UNL     O3    8  -0.424   0.071   0.027
    1UNL     C6    9  -0.470  -0.005   0.146
    1UNL     C7   10  -0.588   0.059   0.218
    1UNL     O4   11  -0.634  -0.017   0.332
    1UNL     C8   12  -0.495  -0.161   0.112
    1UNL     O5   13  -0.507  -0.242   0.224
    1UNL     C9   14  -0.380  -0.210   0.015
    1UNL     O6   15  -0.388  -0.346  -0.031
    1UNL    C10   16  -0.382  -0.120  -0.118
    1UNL     O7   17  -0.457  -0.187  -0.208
    1UNL    C11   18   0.011   0.240  -0.373
    1UNL    C12   19   0.107   0.130  -0.327
    1UNL    C13   20   0.202   0.177  -0.228
    1UNL    C14   21   0.287   0.067  -0.168
    1UNL     O8   22   0.370   0.114  -0.064
    1UNL    C15   23   0.414   0.015   0.020
    1UNL     O9   24   0.402  -0.111   0.016
    1UNL    C16   25   0.466   0.087   0.135
    1UNL    C17   26   0.526   0.039   0.246
    1UNL    C18   27   0.550  -0.100   0.293
    1UNL    C19   28   0.577  -0.201   0.195
    1UNL    C20   29   0.599  -0.331   0.235
    1UNL    C21   30   0.614  -0.366   0.369
    1UNL    O10   31   0.644  -0.493   0.410
    1UNL    C22   32   0.603  -0.259   0.460
    1UNL    C23   33   0.567  -0.134   0.427
    1UNL    C24   34   0.123   0.254  -0.116
    1UNL    C25   35  -0.035   0.225  -0.125
    1UNL    O11   36  -0.070   0.088  -0.101
    1UNL     H1   37  -0.201   0.471  -0.293
    1UNL     H2   38  -0.247   0.190  -0.393
    1UNL     H3   39  -0.254   0.194  -0.100
    1UNL     H4   40  -0.561   0.012  -0.102
    1UNL     H5   41  -0.384  -0.007   0.224
    1UNL     H6   42  -0.669   0.082   0.148
    1UNL     H7   43  -0.553   0.150   0.261
    1UNL     H8   44  -0.620  -0.107   0.320
    1UNL     H9   45  -0.602  -0.168   0.058
    1UNL    H10   46  -0.511  -0.333   0.192
    1UNL    H11   47  -0.292  -0.202   0.077
    1UNL    H12   48  -0.444  -0.349  -0.111
    1UNL    H13   49  -0.276  -0.109  -0.159
    1UNL    H14   50  -0.478  -0.127  -0.282
    1UNL    H15   51  -0.041   0.205  -0.464
    1UNL    H16   52   0.076   0.320  -0.393
    1UNL    H17   53   0.152   0.079  -0.421
    1UNL    H18   54   0.051   0.049  -0.283
    1UNL    H19   55   0.270   0.253  -0.278
    1UNL    H20   56   0.342   0.017  -0.240
    1UNL    H21   57   0.222  -0.011  -0.131
    1UNL    H22   58   0.470   0.196   0.124
    1UNL    H23   59   0.564   0.112   0.315
    1UNL    H24   60   0.567  -0.165   0.094
    1UNL    H25   61   0.611  -0.402   0.149
    1UNL    H26   62   0.673  -0.556   0.343
    1UNL    H27   63   0.603  -0.281   0.568
    1UNL    H28   64   0.562  -0.059   0.507
    1UNL    H29   65   0.130   0.368  -0.130
    1UNL    H30   66   0.153   0.230  -0.013
    1UNL    H31   67  -0.086   0.275  -0.041
    1UNL    H32   68   0.002   0.024  -0.073
   0.00000   0.00000   0.00000   0.00000   0.00000   0.00000   0.00000   0.00000   0.00000
Generated with MDTraj, t= 39.0
 68
    1UNL     O1    1  -0.050   0.498  -0.208
    1UNL     C1    2  -0.126   0.416  -0.251
    1UNL     C2    3  -0.094   0.273  -0.256
    1UNL     C3    4  -0.216   0.195  -0.287
    1UNL     C4    5  -0.299   0.149  -0.190
    1UNL     O2    6  -0.424   0.088  -0.213
    1UNL     C5    7  -0.449   0.005  -0.097
    1UNL     O3    8  -0.411   0.066   0.022
    1UNL     C6    9  -0.452  -0.006   0.143
    1UNL     C7   10  -0.557   0.069   0.213
    1UNL     O4   11  -0.597   0.011   0.332
    1UNL     C8   12  -0.481  -0.167   0.117
    1UNL     O5   13  -0.486  -0.236   0.235
    1UNL     C9   14  -0.386  -0.221   0.009
    1UNL     O6   15  -0.416  -0.357  -0.021
    1UNL    C10   16  -0.382  -0.133  -0.124
    1UNL     O7   17  -0.435  -0.206  -0.226
    1UNL    C11   18   0.005   0.255  -0.378
    1UNL    C12   19   0.112   0.156  -0.346
    1UNL    C13   20   0.200   0.198  -0.231
    1UNL    C14   21   0.283   0.084  -0.174
    1UNL     O8   22   0.372   0.126  -0.067
    1UNL    C15   23   0.400   0.042   0.035
    1UNL     O9   24   0.364  -0.076   0.033
    1UNL    C16   25   0.472   0.095   0.146
    1UNL    C17   26   0.528   0.035   0.251
    1UNL    C18   27   0.546  -0.113   0.282
    1UNL    C19   28   0.541  -0.223   0.197
    1UNL    C20   29   0.567  -0.351   0.241
    1UNL    C21   30   0.606  -0.377   0.379
    1UNL    O10   31   0.645  -0.504   0.416
    1UNL    C22   32   0.603  -0.274   0.462
    1UNL    C23   33   0.577  -0.145   0.414
    1UNL    C24   34   0.120   0.277  -0.119
    1UNL    C25   35  -0.032   0.228  -0.118
    1UNL    O11   36  -0.057   0.092  -0.086
    1UNL     H1   37  -0.228   0.435  -0.273
    1UNL     H2   38  -0.253   0.198  -0.394
    1UNL     H3   39  -0.256   0.157  -0.091
    1UNL     H4   40  -0.562   0.004  -0.087
    1UNL     H5   41  -0.356   0.002   0.205
    1UNL     H6   42  -0.650   0.082   0.153
    1UNL     H7   43  -0.519   0.168   0.236
    1UNL     H8   44  -0.552  -0.084   0.346
    1UNL     H9   45  -0.591  -0.171   0.069
    1UNL    H10   46  -0.476  -0.330   0.220
    1UNL    H11   47  -0.287  -0.232   0.045
    1UNL    H12   48  -0.484  -0.358  -0.093
    1UNL    H13   49  -0.268  -0.123  -0.146
    1UNL    H14   50  -0.450  -0.155  -0.309
    1UNL    H15   51  -0.047   0.220  -0.468
    1UNL    H16   52   0.053   0.349  -0.393
    1UNL    H17   53   0.175   0.126  -0.437
    1UNL    H18   54   0.055   0.064  -0.332
    1UNL    H19   55   0.274   0.277  -0.269
    1UNL    H20   56   0.345   0.041  -0.246
    1UNL    H21   57   0.217  -0.001  -0.150
    1UNL    H22   58   0.487   0.199   0.148
    1UNL    H23   59   0.583   0.107   0.311
    1UNL    H24   60   0.522  -0.201   0.091
    1UNL    H25   61   0.579  -0.427   0.174
    1UNL    H26   62   0.642  -0.573   0.347
    1UNL    H27   63   0.634  -0.297   0.562
    1UNL    H28   64   0.579  -0.067   0.485
    1UNL    H29   65   0.113   0.393  -0.144
    1UNL    H30   66   0.168   0.262  -0.023
    1UNL    H31   67  -0.086   0.285  -0.038
    1UNL    H32   68   0.001   0.063  -0.008
   0.00000   0.00000   0.00000   0.00000   0.00000   0.00000   0.00000   0.00000   0.00000
Generated with MDTraj, t= 40.0
 68
    1UNL     O1    1  -0.045   0.518  -0.251
    1UNL     C1    2  -0.126   0.428  -0.255
    1UNL     C2    3  -0.093   0.284  -0.269
    1UNL     C3    4  -0.215   0.203  -0.296
    1UNL     C4    5  -0.282   0.126  -0.201
    1UNL     O2    6  -0.409   0.069  -0.222
    1UNL     C5    7  -0.444  -0.009  -0.104
    1UNL     O3    8  -0.407   0.058   0.015
    1UNL     C6    9  -0.436  -0.009   0.143
    1UNL     C7   10  -0.548   0.053   0.215
    1UNL     O4   11  -0.560   0.007   0.343
    1UNL     C8   12  -0.481  -0.165   0.123
    1UNL     O5   13  -0.475  -0.234   0.247
    1UNL     C9   14  -0.393  -0.231   0.021
    1UNL     O6   15  -0.449  -0.361   0.009
    1UNL    C10   16  -0.377  -0.149  -0.118
    1UNL     O7   17  -0.430  -0.231  -0.218
    1UNL    C11   18   0.019   0.273  -0.377
    1UNL    C12   19   0.128   0.165  -0.347
    1UNL    C13   20   0.207   0.213  -0.223
    1UNL    C14   21   0.285   0.099  -0.162
    1UNL     O8   22   0.356   0.144  -0.057
    1UNL    C15   23   0.395   0.052   0.040
    1UNL     O9   24   0.352  -0.064   0.046
    1UNL    C16   25   0.482   0.102   0.150
    1UNL    C17   26   0.529   0.034   0.255
    1UNL    C18   27   0.545  -0.110   0.295
    1UNL    C19   28   0.489  -0.217   0.217
    1UNL    C20   29   0.520  -0.348   0.239
    1UNL    C21   30   0.585  -0.379   0.353
    1UNL    O10   31   0.610  -0.512   0.378
    1UNL    C22   32   0.621  -0.283   0.450
    1UNL    C23   33   0.600  -0.148   0.421
    1UNL    C24   34   0.113   0.277  -0.114
    1UNL    C25   35  -0.033   0.232  -0.124
    1UNL    O11   36  -0.037   0.092  -0.093
    1UNL     H1   37  -0.225   0.475  -0.256
    1UNL     H2   38  -0.260   0.223  -0.386
    1UNL     H3   39  -0.240   0.107  -0.101
    1UNL     H4   40  -0.557  -0.022  -0.099
    1UNL     H5   41  -0.342   0.002   0.202
    1UNL     H6   42  -0.641   0.029   0.156
    1UNL     H7   43  -0.549   0.162   0.229
    1UNL     H8   44  -0.563  -0.088   0.340
    1UNL     H9   45  -0.595  -0.165   0.087
    1UNL    H10   46  -0.470  -0.333   0.227
    1UNL    H11   47  -0.297  -0.244   0.063
    1UNL    H12   48  -0.463  -0.377  -0.086
    1UNL    H13   49  -0.262  -0.133  -0.134
    1UNL    H14   50  -0.419  -0.186  -0.304
    1UNL    H15   51  -0.029   0.259  -0.473
    1UNL    H16   52   0.069   0.368  -0.377
    1UNL    H17   53   0.189   0.147  -0.443
    1UNL    H18   54   0.097   0.063  -0.329
    1UNL    H19   55   0.285   0.294  -0.247
    1UNL    H20   56   0.345   0.046  -0.232
    1UNL    H21   57   0.223   0.018  -0.116
    1UNL    H22   58   0.508   0.212   0.152
    1UNL    H23   59   0.575   0.108   0.322
    1UNL    H24   60   0.447  -0.188   0.127
    1UNL    H25   61   0.487  -0.418   0.157
    1UNL    H26   62   0.562  -0.569   0.313
    1UNL    H27   63   0.668  -0.320   0.539
    1UNL    H28   64   0.617  -0.077   0.502
    1UNL    H29   65   0.129   0.394  -0.118
    1UNL    H30   66   0.143   0.233  -0.019
    1UNL    H31   67  -0.087   0.288  -0.044
    1UNL    H32   68  -0.083   0.086  -0.008
   0.00000   0.00000   0.00000   0.00000   0.00000   0.00000   0.00000   0.00000   0.00000
Generated with MDTraj, t= 41.0
 68
    1UNL     O1    1  -0.048   0.514  -0.270
    1UNL     C1    2  -0.124   0.422  -0.272
    1UNL     C2    3  -0.089   0.272  -0.269
    1UNL     C3    4  -0.220   0.199  -0.283
    1UNL     C4    5  -0.276   0.114  -0.196
    1UNL     O2    6  -0.394   0.050  -0.218
    1UNL     C5    7  -0.434  -0.023  -0.099
    1UNL     O3    8  -0.390   0.036   0.017
    1UNL     C6    9  -0.421  -0.019   0.144
    1UNL     C7   10  -0.516   0.069   0.219
    1UNL     O4   11  -0.550   0.026   0.348
    1UNL     C8   12  -0.477  -0.162   0.119
    1UNL     O5   13  -0.505  -0.236   0.244
    1UNL     C9   14  -0.384  -0.239   0.024
    1UNL     O6   15  -0.426  -0.375   0.010
    1UNL    C10   16  -0.375  -0.162  -0.111
    1UNL     O7   17  -0.426  -0.234  -0.220
    1UNL    C11   18   0.009   0.239  -0.383
    1UNL    C12   19   0.128   0.158  -0.328
    1UNL    C13   20   0.210   0.229  -0.214
    1UNL    C14   21   0.310   0.131  -0.150
    1UNL     O8   22   0.366   0.172  -0.032
    1UNL    C15   23   0.381   0.071   0.057
    1UNL     O9   24   0.330  -0.036   0.037
    1UNL    C16   25   0.457   0.112   0.180
    1UNL    C17   26   0.520   0.036   0.271
    1UNL    C18   27   0.533  -0.116   0.282
    1UNL    C19   28   0.466  -0.213   0.211
    1UNL    C20   29   0.478  -0.351   0.242
    1UNL    C21   30   0.559  -0.391   0.346
    1UNL    O10   31   0.562  -0.521   0.377
    1UNL    C22   32   0.642  -0.290   0.405
    1UNL    C23   33   0.629  -0.160   0.375
    1UNL    C24   34   0.112   0.299  -0.115
    1UNL    C25   35  -0.028   0.245  -0.122
    1UNL    O11   36  -0.029   0.106  -0.091
    1UNL     H1   37  -0.230   0.431  -0.306
    1UNL     H2   38  -0.279   0.215  -0.376
    1UNL     H3   39  -0.229   0.098  -0.101
    1UNL     H4   40  -0.549  -0.031  -0.100
    1UNL     H5   41  -0.325  -0.030   0.198
    1UNL     H6   42  -0.608   0.102   0.160
    1UNL     H7   43  -0.457   0.162   0.235
    1UNL     H8   44  -0.543  -0.073   0.344
    1UNL     H9   45  -0.586  -0.163   0.069
    1UNL    H10   46  -0.487  -0.327   0.215
    1UNL    H11   47  -0.290  -0.241   0.073
    1UNL    H12   48  -0.456  -0.386  -0.085
    1UNL    H13   49  -0.260  -0.145  -0.129
    1UNL    H14   50  -0.403  -0.181  -0.299
    1UNL    H15   51  -0.042   0.174  -0.452
    1UNL    H16   52   0.039   0.329  -0.434
    1UNL    H17   53   0.206   0.117  -0.400
    1UNL    H18   54   0.091   0.063  -0.288
    1UNL    H19   55   0.275   0.315  -0.250
    1UNL    H20   56   0.394   0.099  -0.213
    1UNL    H21   57   0.255   0.035  -0.132
    1UNL    H22   58   0.487   0.211   0.190
    1UNL    H23   59   0.573   0.092   0.345
    1UNL    H24   60   0.405  -0.178   0.132
    1UNL    H25   61   0.445  -0.424   0.173
    1UNL    H26   62   0.494  -0.574   0.326
    1UNL    H27   63   0.715  -0.318   0.483
    1UNL    H28   64   0.692  -0.087   0.421
    1UNL    H29   65   0.108   0.411  -0.145
    1UNL    H30   66   0.160   0.280  -0.018
    1UNL    H31   67  -0.104   0.295  -0.058
    1UNL    H32   68   0.037   0.085  -0.024
   0.00000   0.00000   0.00000   0.00000   0.00000   0.00000   0.00000   0.00000   0.00000
Generated with MDTraj, t= 42.0
 68
    1UNL     O1    1  -0.021   0.502  -0.274
    1UNL     C1    2  -0.110   0.423  -0.283
    1UNL     C2    3  -0.082   0.266  -0.273
    1UNL     C3    4  -0.214   0.188  -0.301
    1UNL     C4    5  -0.266   0.109  -0.212
    1UNL     O2    6  -0.376   0.031  -0.221
    1UNL     C5    7  -0.405  -0.031  -0.091
    1UNL     O3    8  -0.366   0.036   0.028
    1UNL     C6    9  -0.411  -0.025   0.150
    1UNL     C7   10  -0.519   0.062   0.226
    1UNL     O4   11  -0.552   0.015   0.355
    1UNL     C8   12  -0.477  -0.174   0.130
    1UNL     O5   13  -0.511  -0.243   0.256
    1UNL     C9   14  -0.379  -0.250   0.034
    1UNL     O6   15  -0.429  -0.385   0.022
    1UNL    C10   16  -0.365  -0.178  -0.101
    1UNL     O7   17  -0.439  -0.234  -0.213
    1UNL    C11   18   0.024   0.224  -0.382
    1UNL    C12   19   0.144   0.156  -0.329
    1UNL    C13   20   0.217   0.237  -0.219
    1UNL    C14   21   0.313   0.147  -0.136
    1UNL     O8   22   0.372   0.194  -0.019
    1UNL    C15   23   0.372   0.089   0.068
    1UNL     O9   24   0.320  -0.016   0.052
    1UNL    C16   25   0.451   0.119   0.186
    1UNL    C17   26   0.515   0.039   0.270
    1UNL    C18   27   0.521  -0.111   0.268
    1UNL    C19   28   0.423  -0.197   0.228
    1UNL    C20   29   0.428  -0.330   0.253
    1UNL    C21   30   0.536  -0.384   0.324
    1UNL    O10   31   0.538  -0.520   0.349
    1UNL    C22   32   0.637  -0.303   0.367
    1UNL    C23   33   0.629  -0.171   0.342
    1UNL    C24   34   0.118   0.306  -0.121
    1UNL    C25   35  -0.027   0.256  -0.132
    1UNL    O11   36  -0.029   0.121  -0.077
    1UNL     H1   37  -0.204   0.472  -0.270
    1UNL     H2   38  -0.257   0.177  -0.398
    1UNL     H3   39  -0.218   0.107  -0.116
    1UNL     H4   40  -0.519  -0.009  -0.093
    1UNL     H5   41  -0.323  -0.033   0.211
    1UNL     H6   42  -0.612   0.070   0.162
    1UNL     H7   43  -0.480   0.166   0.234
    1UNL     H8   44  -0.546  -0.087   0.353
    1UNL     H9   45  -0.583  -0.163   0.075
    1UNL    H10   46  -0.527  -0.336   0.230
    1UNL    H11   47  -0.284  -0.253   0.084
    1UNL    H12   48  -0.478  -0.376  -0.061
    1UNL    H13   49  -0.253  -0.181  -0.135
    1UNL    H14   50  -0.419  -0.177  -0.292
    1UNL    H15   51  -0.033   0.163  -0.450
    1UNL    H16   52   0.061   0.311  -0.436
    1UNL    H17   53   0.216   0.133  -0.411
    1UNL    H18   54   0.115   0.058  -0.290
    1UNL    H19   55   0.265   0.321  -0.279
    1UNL    H20   56   0.393   0.118  -0.211
    1UNL    H21   57   0.263   0.051  -0.117
    1UNL    H22   58   0.462   0.231   0.198
    1UNL    H23   59   0.586   0.089   0.339
    1UNL    H24   60   0.336  -0.146   0.178
    1UNL    H25   61   0.348  -0.393   0.217
    1UNL    H26   62   0.475  -0.571   0.290
    1UNL    H27   63   0.712  -0.344   0.426
    1UNL    H28   64   0.703  -0.107   0.391
    1UNL    H29   65   0.123   0.413  -0.147
    1UNL    H30   66   0.159   0.296  -0.016
    1UNL    H31   67  -0.096   0.312  -0.066
    1UNL    H32   68   0.059   0.082  -0.093
   0.00000   0.00000   0.00000   0.00000   0.00000   0.00000   0.00000   0.00000   0.00000
Generated with MDTraj, t= 43.0
 68
    1UNL     O1    1  -0.038   0.501  -0.303
    1UNL     C1    2  -0.114   0.412  -0.272
    1UNL     C2    3  -0.069   0.266  -0.267
    1UNL     C3    4  -0.194   0.187  -0.285
    1UNL     C4    5  -0.255   0.107  -0.200
    1UNL     O2    6  -0.376   0.038  -0.213
    1UNL     C5    7  -0.418  -0.034  -0.087
    1UNL     O3    8  -0.362   0.019   0.035
    1UNL     C6    9  -0.404  -0.030   0.162
    1UNL     C7   10  -0.525   0.055   0.219
    1UNL     O4   11  -0.563   0.008   0.345
    1UNL     C8   12  -0.463  -0.176   0.142
    1UNL     O5   13  -0.479  -0.248   0.260
    1UNL     C9   14  -0.379  -0.259   0.035
    1UNL     O6   15  -0.440  -0.392   0.034
    1UNL    C10   16  -0.373  -0.186  -0.100
    1UNL     O7   17  -0.450  -0.250  -0.210
    1UNL    C11   18   0.030   0.232  -0.385
    1UNL    C12   19   0.161   0.162  -0.335
    1UNL    C13   20   0.241   0.232  -0.216
    1UNL    C14   21   0.307   0.125  -0.136
    1UNL     O8   22   0.382   0.180  -0.035
    1UNL    C15   23   0.379   0.089   0.078
    1UNL     O9   24   0.308  -0.006   0.081
    1UNL    C16   25   0.456   0.131   0.200
    1UNL    C17   26   0.512   0.046   0.288
    1UNL    C18   27   0.504  -0.096   0.293
    1UNL    C19   28   0.382  -0.167   0.270
    1UNL    C20   29   0.383  -0.302   0.273
    1UNL    C21   30   0.503  -0.373   0.296
    1UNL    O10   31   0.511  -0.507   0.283
    1UNL    C22   32   0.623  -0.303   0.325
    1UNL    C23   33   0.625  -0.162   0.318
    1UNL    C24   34   0.147   0.322  -0.138
    1UNL    C25   35   0.009   0.259  -0.130
    1UNL    O11   36   0.014   0.112  -0.093
    1UNL     H1   37  -0.197   0.438  -0.206
    1UNL     H2   38  -0.235   0.203  -0.382
    1UNL     H3   39  -0.216   0.081  -0.100
    1UNL     H4   40  -0.531  -0.020  -0.082
    1UNL     H5   41  -0.317  -0.028   0.222
    1UNL     H6   42  -0.606   0.051   0.140
    1UNL     H7   43  -0.499   0.162   0.229
    1UNL     H8   44  -0.554  -0.084   0.350
    1UNL     H9   45  -0.571  -0.157   0.096
    1UNL    H10   46  -0.506  -0.343   0.237
    1UNL    H11   47  -0.280  -0.289   0.075
    1UNL    H12   48  -0.460  -0.402  -0.064
    1UNL    H13   49  -0.268  -0.199  -0.146
    1UNL    H14   50  -0.465  -0.183  -0.280
    1UNL    H15   51  -0.009   0.158  -0.453
    1UNL    H16   52   0.047   0.324  -0.441
    1UNL    H17   53   0.232   0.147  -0.419
    1UNL    H18   54   0.134   0.060  -0.299
    1UNL    H19   55   0.325   0.293  -0.259
    1UNL    H20   56   0.382   0.057  -0.193
    1UNL    H21   57   0.229   0.056  -0.103
    1UNL    H22   58   0.456   0.232   0.216
    1UNL    H23   59   0.581   0.082   0.361
    1UNL    H24   60   0.301  -0.102   0.249
    1UNL    H25   61   0.288  -0.355   0.264
    1UNL    H26   62   0.423  -0.544   0.254
    1UNL    H27   63   0.710  -0.372   0.347
    1UNL    H28   64   0.717  -0.123   0.353
    1UNL    H29   65   0.140   0.416  -0.188
    1UNL    H30   66   0.198   0.350  -0.038
    1UNL    H31   67  -0.041   0.303  -0.043
    1UNL    H32   68   0.093   0.094  -0.034
   0.00000   0.00000   0.00000   0.00000   0.00000   0.00000   0.00000   0.00000   0.00000
Generated with MDTraj, t= 44.0
 68
    1UNL     O1    1  -0.057   0.494  -0.314
    1UNL     C1    2  -0.109   0.401  -0.261
    1UNL     C2    3  -0.057   0.261  -0.255
    1UNL     C3    4  -0.167   0.164  -0.269
    1UNL     C4    5  -0.228   0.096  -0.174
    1UNL     O2    6  -0.349   0.040  -0.200
    1UNL     C5    7  -0.388  -0.026  -0.077
    1UNL     O3    8  -0.336   0.018   0.047
    1UNL     C6    9  -0.401  -0.041   0.163
    1UNL     C7   10  -0.519   0.046   0.214
    1UNL     O4   11  -0.583   0.015   0.337
    1UNL     C8   12  -0.452  -0.184   0.142
    1UNL     O5   13  -0.473  -0.261   0.255
    1UNL     C9   14  -0.368  -0.258   0.030
    1UNL     O6   15  -0.415  -0.390   0.027
    1UNL    C10   16  -0.373  -0.184  -0.100
    1UNL     O7   17  -0.467  -0.240  -0.193
    1UNL    C11   18   0.046   0.240  -0.371
    1UNL    C12   19   0.168   0.143  -0.338
    1UNL    C13   20   0.252   0.215  -0.223
    1UNL    C14   21   0.333   0.111  -0.146
    1UNL     O8   22   0.401   0.171  -0.039
    1UNL    C15   23   0.361   0.103   0.071
    1UNL     O9   24   0.267   0.033   0.082
    1UNL    C16   25   0.438   0.139   0.194
    1UNL    C17   26   0.493   0.066   0.292
    1UNL    C18   27   0.490  -0.080   0.293
    1UNL    C19   28   0.369  -0.146   0.293
    1UNL    C20   29   0.358  -0.282   0.292
    1UNL    C21   30   0.475  -0.362   0.271
    1UNL    O10   31   0.472  -0.495   0.245
    1UNL    C22   32   0.594  -0.294   0.272
    1UNL    C23   33   0.606  -0.158   0.282
    1UNL    C24   34   0.160   0.290  -0.116
    1UNL    C25   35   0.022   0.241  -0.116
    1UNL    O11   36   0.018   0.099  -0.079
    1UNL     H1   37  -0.203   0.428  -0.207
    1UNL     H2   38  -0.217   0.176  -0.370
    1UNL     H3   39  -0.206   0.084  -0.068
    1UNL     H4   40  -0.496   0.008  -0.065
    1UNL     H5   41  -0.318  -0.039   0.229
    1UNL     H6   42  -0.602   0.059   0.139
    1UNL     H7   43  -0.482   0.148   0.226
    1UNL     H8   44  -0.586  -0.087   0.359
    1UNL     H9   45  -0.561  -0.172   0.095
    1UNL    H10   46  -0.488  -0.350   0.225
    1UNL    H11   47  -0.261  -0.262   0.067
    1UNL    H12   48  -0.458  -0.392  -0.060
    1UNL    H13   49  -0.274  -0.191  -0.154
    1UNL    H14   50  -0.502  -0.161  -0.238
    1UNL    H15   51  -0.004   0.198  -0.455
    1UNL    H16   52   0.091   0.333  -0.407
    1UNL    H17   53   0.232   0.122  -0.423
    1UNL    H18   54   0.130   0.045  -0.298
    1UNL    H19   55   0.327   0.282  -0.272
    1UNL    H20   56   0.411   0.062  -0.219
    1UNL    H21   57   0.271   0.027  -0.112
    1UNL    H22   58   0.461   0.249   0.192
    1UNL    H23   59   0.558   0.112   0.368
    1UNL    H24   60   0.280  -0.085   0.309
    1UNL    H25   61   0.263  -0.328   0.294
    1UNL    H26   62   0.394  -0.553   0.262
    1UNL    H27   63   0.684  -0.348   0.273
    1UNL    H28   64   0.703  -0.108   0.285
    1UNL    H29   65   0.159   0.394  -0.120
    1UNL    H30   66   0.209   0.272  -0.011
    1UNL    H31   67  -0.037   0.283  -0.034
    1UNL    H32   68   0.097   0.076  -0.026
   0.00000   0.00000   0.00000   0.00000   0.00000   0.00000   0.00000   0.00000   0.00000
Generated with MDTraj, t= 45.0
 68
    1UNL     O1    1  -0.021   0.491  -0.289
    1UNL     C1    2  -0.081   0.399  -0.245
    1UNL     C2    3  -0.033   0.257  -0.243
    1UNL     C3    4  -0.157   0.164  -0.265
    1UNL     C4    5  -0.222   0.101  -0.170
    1UNL     O2    6  -0.341   0.036  -0.193
    1UNL     C5    7  -0.396  -0.041  -0.073
    1UNL     O3    8  -0.347   0.008   0.046
    1UNL     C6    9  -0.397  -0.044   0.173
    1UNL     C7   10  -0.512   0.045   0.221
    1UNL     O4   11  -0.587  -0.006   0.332
    1UNL     C8   12  -0.448  -0.187   0.143
    1UNL     O5   13  -0.477  -0.259   0.256
    1UNL     C9   14  -0.347  -0.264   0.043
    1UNL     O6   15  -0.396  -0.397   0.034
    1UNL    C10   16  -0.365  -0.190  -0.096
    1UNL     O7   17  -0.477  -0.256  -0.170
    1UNL    C11   18   0.069   0.238  -0.367
    1UNL    C12   19   0.188   0.154  -0.336
    1UNL    C13   20   0.269   0.195  -0.212
    1UNL    C14   21   0.342   0.073  -0.142
    1UNL     O8   22   0.424   0.129  -0.036
    1UNL    C15   23   0.354   0.133   0.086
    1UNL     O9   24   0.244   0.091   0.091
    1UNL    C16   25   0.427   0.174   0.205
    1UNL    C17   26   0.476   0.079   0.288
    1UNL    C18   27   0.467  -0.068   0.264
    1UNL    C19   28   0.338  -0.121   0.260
    1UNL    C20   29   0.325  -0.260   0.248
    1UNL    C21   30   0.439  -0.339   0.244
    1UNL    O10   31   0.438  -0.478   0.257
    1UNL    C22   32   0.565  -0.278   0.215
    1UNL    C23   33   0.577  -0.147   0.236
    1UNL    C24   34   0.182   0.271  -0.107
    1UNL    C25   35   0.036   0.222  -0.106
    1UNL    O11   36   0.021   0.085  -0.083
    1UNL     H1   37  -0.187   0.405  -0.241
    1UNL     H2   38  -0.210   0.164  -0.353
    1UNL     H3   39  -0.179   0.088  -0.073
    1UNL     H4   40  -0.510  -0.036  -0.068
    1UNL     H5   41  -0.315  -0.049   0.244
    1UNL     H6   42  -0.588   0.053   0.142
    1UNL     H7   43  -0.491   0.146   0.246
    1UNL     H8   44  -0.574  -0.098   0.341
    1UNL     H9   45  -0.555  -0.188   0.091
    1UNL    H10   46  -0.488  -0.355   0.229
    1UNL    H11   47  -0.242  -0.257   0.089
    1UNL    H12   48  -0.443  -0.391  -0.055
    1UNL    H13   49  -0.275  -0.202  -0.157
    1UNL    H14   50  -0.509  -0.192  -0.236
    1UNL    H15   51   0.018   0.203  -0.454
    1UNL    H16   52   0.109   0.335  -0.399
    1UNL    H17   53   0.261   0.154  -0.415
    1UNL    H18   54   0.162   0.046  -0.321
    1UNL    H19   55   0.349   0.258  -0.257
    1UNL    H20   56   0.415   0.022  -0.218
    1UNL    H21   57   0.276  -0.006  -0.105
    1UNL    H22   58   0.441   0.277   0.232
    1UNL    H23   59   0.523   0.114   0.378
    1UNL    H24   60   0.250  -0.059   0.269
    1UNL    H25   61   0.223  -0.295   0.255
    1UNL    H26   62   0.347  -0.502   0.280
    1UNL    H27   63   0.646  -0.349   0.199
    1UNL    H28   64   0.670  -0.095   0.227
    1UNL    H29   65   0.188   0.374  -0.131
    1UNL    H30   66   0.220   0.268  -0.004
    1UNL    H31   67  -0.028   0.266  -0.027
    1UNL    H32   68   0.083   0.053  -0.014
   0.00000   0.00000   0.00000   0.00000   0.00000   0.00000   0.00000   0.00000   0.00000
Generated with MDTraj, t= 46.0
 68
    1UNL     O1    1   0.016   0.483  -0.224
    1UNL     C1    2  -0.059   0.399  -0.268
    1UNL     C2    3  -0.041   0.250  -0.256
    1UNL     C3    4  -0.170   0.168  -0.259
    1UNL     C4    5  -0.220   0.082  -0.171
    1UNL     O2    6  -0.344   0.029  -0.202
    1UNL     C5    7  -0.385  -0.048  -0.080
    1UNL     O3    8  -0.344   0.017   0.040
    1UNL     C6    9  -0.402  -0.041   0.166
    1UNL     C7   10  -0.531   0.034   0.213
    1UNL     O4   11  -0.575  -0.006   0.345
    1UNL     C8   12  -0.439  -0.192   0.151
    1UNL     O5   13  -0.461  -0.257   0.272
    1UNL     C9   14  -0.346  -0.270   0.046
    1UNL     O6   15  -0.383  -0.405   0.034
    1UNL    C10   16  -0.355  -0.198  -0.092
    1UNL     O7   17  -0.450  -0.264  -0.171
    1UNL    C11   18   0.057   0.211  -0.372
    1UNL    C12   19   0.179   0.120  -0.337
    1UNL    C13   20   0.267   0.186  -0.223
    1UNL    C14   21   0.332   0.088  -0.133
    1UNL     O8   22   0.412   0.155  -0.032
    1UNL    C15   23   0.346   0.143   0.094
    1UNL     O9   24   0.231   0.113   0.108
    1UNL    C16   25   0.445   0.176   0.203
    1UNL    C17   26   0.505   0.079   0.275
    1UNL    C18   27   0.476  -0.059   0.266
    1UNL    C19   28   0.341  -0.103   0.270
    1UNL    C20   29   0.308  -0.242   0.249
    1UNL    C21   30   0.411  -0.334   0.223
    1UNL    O10   31   0.378  -0.470   0.193
    1UNL    C22   32   0.545  -0.291   0.235
    1UNL    C23   33   0.578  -0.160   0.260
    1UNL    C24   34   0.183   0.277  -0.130
    1UNL    C25   35   0.034   0.230  -0.119
    1UNL    O11   36   0.031   0.101  -0.068
    1UNL     H1   37  -0.135   0.431  -0.339
    1UNL     H2   38  -0.239   0.176  -0.348
    1UNL     H3   39  -0.168   0.055  -0.081
    1UNL     H4   40  -0.497  -0.030  -0.074
    1UNL     H5   41  -0.322  -0.028   0.239
    1UNL     H6   42  -0.615   0.025   0.145
    1UNL     H7   43  -0.511   0.136   0.222
    1UNL     H8   44  -0.540  -0.101   0.354
    1UNL     H9   45  -0.546  -0.204   0.102
    1UNL    H10   46  -0.476  -0.355   0.261
    1UNL    H11   47  -0.234  -0.264   0.078
    1UNL    H12   48  -0.429  -0.412  -0.051
    1UNL    H13   49  -0.260  -0.215  -0.138
    1UNL    H14   50  -0.492  -0.196  -0.228
    1UNL    H15   51  -0.000   0.173  -0.455
    1UNL    H16   52   0.098   0.303  -0.413
    1UNL    H17   53   0.234   0.078  -0.417
    1UNL    H18   54   0.141   0.027  -0.284
    1UNL    H19   55   0.347   0.239  -0.276
    1UNL    H20   56   0.405   0.020  -0.198
    1UNL    H21   57   0.255   0.020  -0.096
    1UNL    H22   58   0.451   0.274   0.242
    1UNL    H23   59   0.566   0.104   0.362
    1UNL    H24   60   0.255  -0.040   0.288
    1UNL    H25   61   0.207  -0.280   0.261
    1UNL    H26   62   0.288  -0.472   0.160
    1UNL    H27   63   0.622  -0.365   0.208
    1UNL    H28   64   0.677  -0.124   0.287
    1UNL    H29   65   0.183   0.377  -0.165
    1UNL    H30   66   0.234   0.279  -0.041
    1UNL    H31   67  -0.016   0.302  -0.050
    1UNL    H32   68   0.098   0.100   0.007
   0.00000   0.00000   0.00000   0.00000   0.00000   0.00000   0.00000   0.00000   0.00000
Generated with MDTraj, t= 47.0
 68
    1UNL     O1    1  -0.034   0.491  -0.246
    1UNL     C1    2  -0.059   0.391  -0.308
    1UNL     C2    3  -0.047   0.251  -0.260
    1UNL     C3    4  -0.182   0.188  -0.267
    1UNL     C4    5  -0.238   0.093  -0.182
    1UNL     O2    6  -0.357   0.020  -0.199
    1UNL     C5    7  -0.383  -0.047  -0.072
    1UNL     O3    8  -0.337   0.014   0.045
    1UNL     C6    9  -0.393  -0.042   0.167
    1UNL     C7   10  -0.514   0.038   0.206
    1UNL     O4   11  -0.567  -0.001   0.332
    1UNL     C8   12  -0.429  -0.190   0.148
    1UNL     O5   13  -0.445  -0.252   0.268
    1UNL     C9   14  -0.325  -0.265   0.051
    1UNL     O6   15  -0.354  -0.407   0.043
    1UNL    C10   16  -0.337  -0.194  -0.092
    1UNL     O7   17  -0.421  -0.263  -0.191
    1UNL    C11   18   0.042   0.179  -0.363
    1UNL    C12   19   0.157   0.095  -0.293
    1UNL    C13   20   0.250   0.188  -0.203
    1UNL    C14   21   0.337   0.089  -0.118
    1UNL     O8   22   0.435   0.149  -0.034
    1UNL    C15   23   0.382   0.143   0.094
    1UNL     O9   24   0.273   0.107   0.122
    1UNL    C16   25   0.478   0.166   0.208
    1UNL    C17   26   0.512   0.069   0.299
    1UNL    C18   27   0.469  -0.074   0.288
    1UNL    C19   28   0.336  -0.102   0.258
    1UNL    C20   29   0.297  -0.222   0.220
    1UNL    C21   30   0.384  -0.329   0.210
    1UNL    O10   31   0.350  -0.454   0.164
    1UNL    C22   32   0.516  -0.301   0.239
    1UNL    C23   33   0.559  -0.175   0.277
    1UNL    C24   34   0.166   0.292  -0.124
    1UNL    C25   35   0.017   0.241  -0.108
    1UNL    O11   36   0.011   0.111  -0.055
    1UNL     H1   37  -0.117   0.413  -0.400
    1UNL     H2   38  -0.228   0.201  -0.361
    1UNL     H3   39  -0.198   0.077  -0.080
    1UNL     H4   40  -0.494  -0.042  -0.060
    1UNL     H5   41  -0.313  -0.017   0.241
    1UNL     H6   42  -0.587   0.032   0.126
    1UNL     H7   43  -0.486   0.138   0.221
    1UNL     H8   44  -0.533  -0.089   0.343
    1UNL     H9   45  -0.535  -0.194   0.099
    1UNL    H10   46  -0.452  -0.347   0.263
    1UNL    H11   47  -0.216  -0.254   0.092
    1UNL    H12   48  -0.397  -0.425  -0.043
    1UNL    H13   49  -0.240  -0.197  -0.133
    1UNL    H14   50  -0.456  -0.188  -0.245
    1UNL    H15   51  -0.020   0.114  -0.423
    1UNL    H16   52   0.085   0.248  -0.434
    1UNL    H17   53   0.220   0.042  -0.360
    1UNL    H18   54   0.111   0.010  -0.233
    1UNL    H19   55   0.320   0.242  -0.268
    1UNL    H20   56   0.384   0.018  -0.200
    1UNL    H21   57   0.276   0.023  -0.057
    1UNL    H22   58   0.538   0.260   0.187
    1UNL    H23   59   0.609   0.083   0.342
    1UNL    H24   60   0.255  -0.031   0.260
    1UNL    H25   61   0.197  -0.243   0.189
    1UNL    H26   62   0.254  -0.450   0.142
    1UNL    H27   63   0.595  -0.369   0.228
    1UNL    H28   64   0.663  -0.152   0.287
    1UNL    H29   65   0.166   0.383  -0.177
    1UNL    H30   66   0.200   0.316  -0.031
    1UNL    H31   67  -0.033   0.312  -0.038
    1UNL    H32   68   0.076   0.103   0.020
   0.00000   0.00000   0.00000   0.00000   0.00000   0.00000   0.00000   0.00000   0.00000
Generated with MDTraj, t= 48.0
 68
    1UNL     O1    1  -0.052   0.482  -0.234
    1UNL     C1    2  -0.048   0.391  -0.313
    1UNL     C2    3  -0.044   0.239  -0.268
    1UNL     C3    4  -0.186   0.180  -0.272
    1UNL     C4    5  -0.227   0.087  -0.181
    1UNL     O2    6  -0.351   0.029  -0.193
    1UNL     C5    7  -0.379  -0.039  -0.070
    1UNL     O3    8  -0.337   0.021   0.045
    1UNL     C6    9  -0.382  -0.038   0.170
    1UNL     C7   10  -0.509   0.038   0.227
    1UNL     O4   11  -0.574  -0.022   0.338
    1UNL     C8   12  -0.420  -0.192   0.146
    1UNL     O5   13  -0.427  -0.263   0.267
    1UNL     C9   14  -0.313  -0.255   0.055
    1UNL     O6   15  -0.324  -0.396   0.054
    1UNL    C10   16  -0.318  -0.186  -0.085
    1UNL     O7   17  -0.393  -0.256  -0.188
    1UNL    C11   18   0.055   0.164  -0.360
    1UNL    C12   19   0.170   0.082  -0.293
    1UNL    C13   20   0.263   0.179  -0.216
    1UNL    C14   21   0.344   0.087  -0.114
    1UNL     O8   22   0.426   0.161  -0.022
    1UNL    C15   23   0.360   0.158   0.099
    1UNL     O9   24   0.243   0.151   0.124
    1UNL    C16   25   0.464   0.165   0.210
    1UNL    C17   26   0.512   0.060   0.271
    1UNL    C18   27   0.458  -0.075   0.253
    1UNL    C19   28   0.316  -0.105   0.240
    1UNL    C20   29   0.276  -0.234   0.214
    1UNL    C21   30   0.368  -0.341   0.208
    1UNL    O10   31   0.326  -0.471   0.171
    1UNL    C22   32   0.499  -0.316   0.246
    1UNL    C23   33   0.541  -0.182   0.262
    1UNL    C24   34   0.176   0.284  -0.140
    1UNL    C25   35   0.023   0.250  -0.126
    1UNL    O11   36   0.001   0.146  -0.033
    1UNL     H1   37  -0.046   0.411  -0.417
    1UNL     H2   38  -0.250   0.205  -0.357
    1UNL     H3   39  -0.158   0.063  -0.102
    1UNL     H4   40  -0.490  -0.037  -0.065
    1UNL     H5   41  -0.297  -0.024   0.243
    1UNL     H6   42  -0.589   0.029   0.151
    1UNL     H7   43  -0.493   0.141   0.250
    1UNL     H8   44  -0.540  -0.116   0.348
    1UNL     H9   45  -0.519  -0.214   0.090
    1UNL    H10   46  -0.405  -0.361   0.257
    1UNL    H11   47  -0.208  -0.229   0.100
    1UNL    H12   48  -0.395  -0.426  -0.008
    1UNL    H13   49  -0.221  -0.183  -0.124
    1UNL    H14   50  -0.417  -0.183  -0.250
    1UNL    H15   51   0.005   0.096  -0.430
    1UNL    H16   52   0.104   0.237  -0.422
    1UNL    H17   53   0.228   0.034  -0.369
    1UNL    H18   54   0.135  -0.001  -0.226
    1UNL    H19   55   0.336   0.241  -0.270
    1UNL    H20   56   0.422   0.013  -0.160
    1UNL    H21   57   0.276   0.025  -0.059
    1UNL    H22   58   0.487   0.259   0.240
    1UNL    H23   59   0.589   0.076   0.347
    1UNL    H24   60   0.246  -0.023   0.242
    1UNL    H25   61   0.178  -0.269   0.185
    1UNL    H26   62   0.227  -0.461   0.169
    1UNL    H27   63   0.574  -0.398   0.264
    1UNL    H28   64   0.649  -0.160   0.270
    1UNL    H29   65   0.178   0.381  -0.179
    1UNL    H30   66   0.215   0.286  -0.042
    1UNL    H31   67  -0.031   0.339  -0.089
    1UNL    H32   68   0.071   0.144   0.033
   0.00000   0.00000   0.00000   0.00000   0.00000   0.00000   0.00000   0.00000   0.00000
Generated with MDTraj, t= 49.0
 68
    1UNL     O1    1  -0.058   0.500  -0.269
    1UNL     C1    2  -0.060   0.393  -0.323
    1UNL     C2    3  -0.026   0.250  -0.279
    1UNL     C3    4  -0.164   0.181  -0.266
    1UNL     C4    5  -0.222   0.113  -0.166
    1UNL     O2    6  -0.336   0.048  -0.177
    1UNL     C5    7  -0.363  -0.035  -0.058
    1UNL     O3    8  -0.344   0.027   0.067
    1UNL     C6    9  -0.396  -0.042   0.179
    1UNL     C7   10  -0.535   0.009   0.222
    1UNL     O4   11  -0.561  -0.031   0.356
    1UNL     C8   12  -0.399  -0.195   0.151
    1UNL     O5   13  -0.402  -0.276   0.268
    1UNL     C9   14  -0.287  -0.250   0.060
    1UNL     O6   15  -0.307  -0.390   0.057
    1UNL    C10   16  -0.291  -0.178  -0.079
    1UNL     O7   17  -0.372  -0.251  -0.171
    1UNL    C11   18   0.065   0.185  -0.381
    1UNL    C12   19   0.172   0.093  -0.317
    1UNL    C13   20   0.262   0.168  -0.208
    1UNL    C14   21   0.320   0.071  -0.107
    1UNL     O8   22   0.398   0.139  -0.004
    1UNL    C15   23   0.338   0.167   0.125
    1UNL     O9   24   0.220   0.164   0.140
    1UNL    C16   25   0.439   0.168   0.230
    1UNL    C17   26   0.482   0.051   0.273
    1UNL    C18   27   0.435  -0.083   0.238
    1UNL    C19   28   0.305  -0.112   0.201
    1UNL    C20   29   0.265  -0.239   0.177
    1UNL    C21   30   0.355  -0.344   0.203
    1UNL    O10   31   0.311  -0.473   0.222
    1UNL    C22   32   0.491  -0.321   0.236
    1UNL    C23   33   0.530  -0.191   0.245
    1UNL    C24   34   0.192   0.296  -0.156
    1UNL    C25   35   0.041   0.254  -0.140
    1UNL    O11   36   0.030   0.125  -0.077
    1UNL     H1   37  -0.103   0.405  -0.421
    1UNL     H2   38  -0.227   0.185  -0.356
    1UNL     H3   39  -0.158   0.100  -0.082
    1UNL     H4   40  -0.473  -0.046  -0.056
    1UNL     H5   41  -0.328  -0.027   0.268
    1UNL     H6   42  -0.619  -0.014   0.150
    1UNL     H7   43  -0.519   0.115   0.238
    1UNL     H8   44  -0.535  -0.127   0.380
    1UNL     H9   45  -0.497  -0.216   0.098
    1UNL    H10   46  -0.375  -0.368   0.252
    1UNL    H11   47  -0.193  -0.212   0.116
    1UNL    H12   48  -0.387  -0.413   0.006
    1UNL    H13   49  -0.192  -0.181  -0.117
    1UNL    H14   50  -0.377  -0.207  -0.257
    1UNL    H15   51   0.002   0.132  -0.453
    1UNL    H16   52   0.123   0.257  -0.434
    1UNL    H17   53   0.229   0.044  -0.393
    1UNL    H18   54   0.118   0.012  -0.266
    1UNL    H19   55   0.339   0.221  -0.268
    1UNL    H20   56   0.390   0.004  -0.166
    1UNL    H21   57   0.254   0.011  -0.052
    1UNL    H22   58   0.484   0.266   0.266
    1UNL    H23   59   0.544   0.046   0.359
    1UNL    H24   60   0.222  -0.042   0.177
    1UNL    H25   61   0.164  -0.263   0.148
    1UNL    H26   62   0.211  -0.470   0.214
    1UNL    H27   63   0.558  -0.399   0.248
    1UNL    H28   64   0.631  -0.165   0.269
    1UNL    H29   65   0.192   0.366  -0.231
    1UNL    H30   66   0.227   0.342  -0.062
    1UNL    H31   67  -0.015   0.328  -0.083
    1UNL    H32   68   0.073   0.136   0.015
   0.00000   0.00000   0.00000   0.00000   0.00000   0.00000   0.00000   0.00000   0.00000
Generated with MDTraj, t= 50.0
 68
    1UNL     O1    1  -0.019   0.483  -0.280
    1UNL     C1    2  -0.088   0.395  -0.326
    1UNL     C2    3  -0.046   0.251  -0.291
    1UNL     C3    4  -0.161   0.153  -0.285
    1UNL     C4    5  -0.224   0.111  -0.173
    1UNL     O2    6  -0.346   0.052  -0.173
    1UNL     C5    7  -0.359  -0.029  -0.056
    1UNL     O3    8  -0.338   0.036   0.066
    1UNL     C6    9  -0.379  -0.034   0.186
    1UNL     C7   10  -0.509   0.023   0.248
    1UNL     O4   11  -0.573  -0.063   0.341
    1UNL     C8   12  -0.380  -0.190   0.155
    1UNL     O5   13  -0.381  -0.272   0.270
    1UNL     C9   14  -0.261  -0.231   0.068
    1UNL     O6   15  -0.266  -0.376   0.050
    1UNL    C10   16  -0.273  -0.161  -0.070
    1UNL     O7   17  -0.335  -0.246  -0.162
    1UNL    C11   18   0.063   0.196  -0.385
    1UNL    C12   19   0.171   0.102  -0.325
    1UNL    C13   20   0.255   0.180  -0.219
    1UNL    C14   21   0.300   0.079  -0.119
    1UNL     O8   22   0.393   0.123  -0.022
    1UNL    C15   23   0.328   0.144   0.098
    1UNL     O9   24   0.212   0.158   0.112
    1UNL    C16   25   0.417   0.156   0.220
    1UNL    C17   26   0.472   0.044   0.281
    1UNL    C18   27   0.428  -0.095   0.266
    1UNL    C19   28   0.297  -0.125   0.220
    1UNL    C20   29   0.255  -0.258   0.204
    1UNL    C21   30   0.343  -0.359   0.218
    1UNL    O10   31   0.306  -0.487   0.188
    1UNL    C22   32   0.476  -0.324   0.257
    1UNL    C23   33   0.514  -0.196   0.284
    1UNL    C24   34   0.178   0.295  -0.158
    1UNL    C25   35   0.020   0.270  -0.146
    1UNL    O11   36  -0.009   0.169  -0.041
    1UNL     H1   37  -0.157   0.416  -0.410
    1UNL     H2   38  -0.199   0.131  -0.379
    1UNL     H3   39  -0.187   0.149  -0.076
    1UNL     H4   40  -0.466  -0.052  -0.047
    1UNL     H5   41  -0.285  -0.015   0.244
    1UNL     H6   42  -0.576   0.031   0.156
    1UNL     H7   43  -0.487   0.120   0.295
    1UNL     H8   44  -0.521  -0.140   0.346
    1UNL     H9   45  -0.465  -0.220   0.089
    1UNL    H10   46  -0.362  -0.366   0.252
    1UNL    H11   47  -0.167  -0.195   0.122
    1UNL    H12   48  -0.276  -0.408  -0.045
    1UNL    H13   49  -0.174  -0.138  -0.102
    1UNL    H14   50  -0.344  -0.197  -0.247
    1UNL    H15   51   0.013   0.147  -0.469
    1UNL    H16   52   0.115   0.282  -0.424
    1UNL    H17   53   0.238   0.069  -0.406
    1UNL    H18   54   0.133   0.008  -0.287
    1UNL    H19   55   0.341   0.235  -0.266
    1UNL    H20   56   0.357  -0.005  -0.166
    1UNL    H21   57   0.218   0.035  -0.073
    1UNL    H22   58   0.478   0.240   0.218
    1UNL    H23   59   0.564   0.049   0.342
    1UNL    H24   60   0.236  -0.045   0.194
    1UNL    H25   61   0.154  -0.278   0.175
    1UNL    H26   62   0.219  -0.487   0.141
    1UNL    H27   63   0.550  -0.404   0.276
    1UNL    H28   64   0.614  -0.160   0.298
    1UNL    H29   65   0.197   0.387  -0.205
    1UNL    H30   66   0.218   0.306  -0.056
    1UNL    H31   67  -0.019   0.364  -0.107
    1UNL    H32   68   0.061   0.175   0.024
   0.00000   0.00000   0.00000   0.00000   0.00000   0.00000   0.00000   0.00000   0.00000
Generated with MDTraj, t= 51.0
 68
    1UNL     O1    1  -0.034   0.489  -0.376
    1UNL     C1    2  -0.089   0.418  -0.299
    1UNL     C2    3  -0.053   0.275  -0.274
    1UNL     C3    4  -0.178   0.187  -0.279
    1UNL     C4    5  -0.241   0.135  -0.172
    1UNL     O2    6  -0.354   0.048  -0.181
    1UNL     C5    7  -0.355  -0.027  -0.063
    1UNL     O3    8  -0.342   0.045   0.060
    1UNL     C6    9  -0.373  -0.032   0.175
    1UNL     C7   10  -0.512   0.006   0.226
    1UNL     O4   11  -0.557  -0.060   0.342
    1UNL     C8   12  -0.358  -0.194   0.156
    1UNL     O5   13  -0.336  -0.247   0.283
    1UNL     C9   14  -0.235  -0.220   0.069
    1UNL     O6   15  -0.224  -0.365   0.050
    1UNL    C10   16  -0.250  -0.148  -0.071
    1UNL     O7   17  -0.296  -0.247  -0.167
    1UNL    C11   18   0.048   0.228  -0.384
    1UNL    C12   19   0.130   0.115  -0.319
    1UNL    C13   20   0.226   0.175  -0.216
    1UNL    C14   21   0.286   0.062  -0.115
    1UNL     O8   22   0.390   0.098  -0.032
    1UNL    C15   23   0.334   0.113   0.093
    1UNL     O9   24   0.218   0.114   0.117
    1UNL    C16   25   0.431   0.135   0.202
    1UNL    C17   26   0.456   0.042   0.293
    1UNL    C18   27   0.411  -0.097   0.285
    1UNL    C19   28   0.284  -0.124   0.234
    1UNL    C20   29   0.247  -0.252   0.201
    1UNL    C21   30   0.345  -0.359   0.217
    1UNL    O10   31   0.308  -0.489   0.181
    1UNL    C22   32   0.463  -0.332   0.282
    1UNL    C23   33   0.494  -0.207   0.320
    1UNL    C24   34   0.168   0.294  -0.142
    1UNL    C25   35   0.021   0.265  -0.128
    1UNL    O11   36  -0.013   0.141  -0.058
    1UNL     H1   37  -0.172   0.460  -0.247
    1UNL     H2   38  -0.212   0.172  -0.385
    1UNL     H3   39  -0.209   0.165  -0.072
    1UNL     H4   40  -0.451  -0.075  -0.046
    1UNL     H5   41  -0.307   0.010   0.253
    1UNL     H6   42  -0.592  -0.015   0.147
    1UNL     H7   43  -0.512   0.115   0.251
    1UNL     H8   44  -0.494  -0.142   0.352
    1UNL     H9   45  -0.452  -0.235   0.116
    1UNL    H10   46  -0.321  -0.345   0.285
    1UNL    H11   47  -0.142  -0.180   0.118
    1UNL    H12   48  -0.162  -0.390  -0.019
    1UNL    H13   49  -0.154  -0.107  -0.100
    1UNL    H14   50  -0.302  -0.209  -0.258
    1UNL    H15   51  -0.009   0.187  -0.468
    1UNL    H16   52   0.107   0.312  -0.421
    1UNL    H17   53   0.183   0.045  -0.387
    1UNL    H18   54   0.066   0.048  -0.268
    1UNL    H19   55   0.319   0.217  -0.264
    1UNL    H20   56   0.330  -0.020  -0.171
    1UNL    H21   57   0.218   0.017  -0.053
    1UNL    H22   58   0.481   0.234   0.211
    1UNL    H23   59   0.513   0.072   0.378
    1UNL    H24   60   0.205  -0.047   0.225
    1UNL    H25   61   0.152  -0.270   0.153
    1UNL    H26   62   0.221  -0.490   0.136
    1UNL    H27   63   0.534  -0.413   0.297
    1UNL    H28   64   0.591  -0.192   0.371
    1UNL    H29   65   0.178   0.385  -0.207
    1UNL    H30   66   0.215   0.316  -0.047
    1UNL    H31   67  -0.012   0.348  -0.065
    1UNL    H32   68   0.063   0.126   0.011
   0.00000   0.00000   0.00000   0.00000   0.00000   0.00000   0.00000   0.00000   0.00000
Generated with MDTraj, t= 52.0
 68
    1UNL     O1    1  -0.087   0.469  -0.394
    1UNL     C1    2  -0.054   0.431  -0.287
    1UNL     C2    3  -0.058   0.289  -0.258
    1UNL     C3    4  -0.204   0.236  -0.261
    1UNL     C4    5  -0.242   0.143  -0.181
    1UNL     O2    6  -0.358   0.065  -0.189
    1UNL     C5    7  -0.358  -0.029  -0.078
    1UNL     O3    8  -0.358   0.044   0.043
    1UNL     C6    9  -0.378  -0.028   0.163
    1UNL     C7   10  -0.523  -0.024   0.211
    1UNL     O4   11  -0.525  -0.061   0.348
    1UNL     C8   12  -0.327  -0.180   0.160
    1UNL     O5   13  -0.307  -0.219   0.289
    1UNL     C9   14  -0.205  -0.199   0.067
    1UNL     O6   15  -0.159  -0.335   0.059
    1UNL    C10   16  -0.237  -0.138  -0.072
    1UNL     O7   17  -0.267  -0.236  -0.162
    1UNL    C11   18   0.030   0.212  -0.370
    1UNL    C12   19   0.140   0.115  -0.327
    1UNL    C13   20   0.235   0.178  -0.225
    1UNL    C14   21   0.284   0.063  -0.136
    1UNL     O8   22   0.368   0.100  -0.033
    1UNL    C15   23   0.315   0.114   0.095
    1UNL     O9   24   0.200   0.102   0.107
    1UNL    C16   25   0.404   0.137   0.215
    1UNL    C17   26   0.442   0.031   0.285
    1UNL    C18   27   0.400  -0.105   0.268
    1UNL    C19   28   0.273  -0.145   0.224
    1UNL    C20   29   0.244  -0.277   0.208
    1UNL    C21   30   0.328  -0.383   0.246
    1UNL    O10   31   0.302  -0.514   0.216
    1UNL    C22   32   0.452  -0.346   0.295
    1UNL    C23   33   0.484  -0.208   0.312
    1UNL    C24   34   0.168   0.286  -0.133
    1UNL    C25   35   0.016   0.263  -0.121
    1UNL    O11   36  -0.003   0.132  -0.068
    1UNL     H1   37  -0.037   0.501  -0.207
    1UNL     H2   38  -0.272   0.270  -0.331
    1UNL     H3   39  -0.170   0.104  -0.115
    1UNL     H4   40  -0.449  -0.084  -0.071
    1UNL     H5   41  -0.322   0.021   0.241
    1UNL     H6   42  -0.593  -0.086   0.146
    1UNL     H7   43  -0.568   0.077   0.223
    1UNL     H8   44  -0.461  -0.131   0.355
    1UNL     H9   45  -0.402  -0.248   0.124
    1UNL    H10   46  -0.258  -0.304   0.283
    1UNL    H11   47  -0.116  -0.145   0.100
    1UNL    H12   48  -0.183  -0.373  -0.030
    1UNL    H13   49  -0.147  -0.079  -0.103
    1UNL    H14   50  -0.262  -0.199  -0.254
    1UNL    H15   51  -0.035   0.170  -0.447
    1UNL    H16   52   0.085   0.293  -0.418
    1UNL    H17   53   0.196   0.083  -0.418
    1UNL    H18   54   0.108   0.020  -0.296
    1UNL    H19   55   0.322   0.223  -0.285
    1UNL    H20   56   0.331  -0.011  -0.198
    1UNL    H21   57   0.203   0.018  -0.092
    1UNL    H22   58   0.419   0.244   0.238
    1UNL    H23   59   0.522   0.052   0.360
    1UNL    H24   60   0.207  -0.068   0.185
    1UNL    H25   61   0.147  -0.304   0.171
    1UNL    H26   62   0.207  -0.530   0.212
    1UNL    H27   63   0.514  -0.431   0.307
    1UNL    H28   64   0.578  -0.185   0.351
    1UNL    H29   65   0.178   0.391  -0.185
    1UNL    H30   66   0.215   0.302  -0.037
    1UNL    H31   67  -0.032   0.334  -0.050
    1UNL    H32   68   0.057   0.113   0.004
   0.00000   0.00000   0.00000   0.00000   0.00000   0.00000   0.00000   0.00000   0.00000
Generated with MDTraj, t= 53.0
 68
    1UNL     O1    1  -0.148   0.470  -0.394
    1UNL     C1    2  -0.082   0.435  -0.299
    1UNL     C2    3  -0.062   0.290  -0.278
    1UNL     C3    4  -0.192   0.212  -0.287
    1UNL     C4    5  -0.254   0.149  -0.193
    1UNL     O2    6  -0.360   0.069  -0.198
    1UNL     C5    7  -0.354  -0.011  -0.080
    1UNL     O3    8  -0.373   0.057   0.040
    1UNL     C6    9  -0.373  -0.021   0.167
    1UNL     C7   10  -0.510  -0.016   0.226
    1UNL     O4   11  -0.515  -0.106   0.337
    1UNL     C8   12  -0.305  -0.169   0.152
    1UNL     O5   13  -0.282  -0.227   0.279
    1UNL     C9   14  -0.175  -0.151   0.060
    1UNL     O6   15  -0.092  -0.269   0.064
    1UNL    C10   16  -0.223  -0.114  -0.085
    1UNL     O7   17  -0.261  -0.233  -0.150
    1UNL    C11   18   0.039   0.231  -0.382
    1UNL    C12   19   0.126   0.121  -0.323
    1UNL    C13   20   0.229   0.173  -0.220
    1UNL    C14   21   0.299   0.069  -0.128
    1UNL     O8   22   0.376   0.129  -0.027
    1UNL    C15   23   0.306   0.113   0.092
    1UNL     O9   24   0.193   0.081   0.103
    1UNL    C16   25   0.393   0.121   0.217
    1UNL    C17   26   0.431   0.014   0.290
    1UNL    C18   27   0.404  -0.132   0.260
    1UNL    C19   28   0.271  -0.175   0.220
    1UNL    C20   29   0.229  -0.304   0.221
    1UNL    C21   30   0.316  -0.404   0.261
    1UNL    O10   31   0.286  -0.538   0.275
    1UNL    C22   32   0.446  -0.363   0.301
    1UNL    C23   33   0.491  -0.234   0.303
    1UNL    C24   34   0.167   0.290  -0.142
    1UNL    C25   35   0.013   0.272  -0.134
    1UNL    O11   36  -0.021   0.142  -0.071
    1UNL     H1   37  -0.061   0.510  -0.218
    1UNL     H2   38  -0.246   0.218  -0.384
    1UNL     H3   39  -0.219   0.160  -0.089
    1UNL     H4   40  -0.436  -0.078  -0.078
    1UNL     H5   41  -0.300   0.035   0.224
    1UNL     H6   42  -0.588  -0.053   0.155
    1UNL     H7   43  -0.535   0.087   0.252
    1UNL     H8   44  -0.429  -0.155   0.331
    1UNL     H9   45  -0.374  -0.239   0.113
    1UNL    H10   46  -0.197  -0.275   0.272
    1UNL    H11   47  -0.118  -0.073   0.105
    1UNL    H12   48  -0.147  -0.346   0.035
    1UNL    H13   49  -0.145  -0.060  -0.148
    1UNL    H14   50  -0.345  -0.274  -0.119
    1UNL    H15   51  -0.019   0.205  -0.470
    1UNL    H16   52   0.112   0.308  -0.409
    1UNL    H17   53   0.162   0.042  -0.392
    1UNL    H18   54   0.060   0.063  -0.267
    1UNL    H19   55   0.308   0.213  -0.293
    1UNL    H20   56   0.378   0.015  -0.181
    1UNL    H21   57   0.226   0.002  -0.100
    1UNL    H22   58   0.412   0.218   0.248
    1UNL    H23   59   0.496   0.033   0.370
    1UNL    H24   60   0.201  -0.097   0.207
    1UNL    H25   61   0.132  -0.332   0.180
    1UNL    H26   62   0.193  -0.566   0.274
    1UNL    H27   63   0.520  -0.443   0.328
    1UNL    H28   64   0.592  -0.217   0.351
    1UNL    H29   65   0.197   0.393  -0.189
    1UNL    H30   66   0.211   0.297  -0.041
    1UNL    H31   67  -0.029   0.350  -0.066
    1UNL    H32   68   0.039   0.129   0.010
   0.00000   0.00000   0.00000   0.00000   0.00000   0.00000   0.00000   0.00000   0.00000
Generated with MDTraj, t= 54.0
 68
    1UNL     O1    1  -0.171   0.444  -0.413
    1UNL     C1    2  -0.127   0.421  -0.304
    1UNL     C2    3  -0.067   0.286  -0.282
    1UNL     C3    4  -0.176   0.182  -0.296
    1UNL     C4    5  -0.265   0.166  -0.193
    1UNL     O2    6  -0.371   0.077  -0.182
    1UNL     C5    7  -0.357  -0.011  -0.069
    1UNL     O3    8  -0.366   0.057   0.049
    1UNL     C6    9  -0.360  -0.025   0.170
    1UNL     C7   10  -0.506  -0.056   0.205
    1UNL     O4   11  -0.519  -0.121   0.331
    1UNL     C8   12  -0.268  -0.155   0.158
    1UNL     O5   13  -0.221  -0.186   0.284
    1UNL     C9   14  -0.154  -0.126   0.060
    1UNL     O6   15  -0.065  -0.239   0.059
    1UNL    C10   16  -0.219  -0.094  -0.076
    1UNL     O7   17  -0.248  -0.204  -0.153
    1UNL    C11   18   0.045   0.266  -0.397
    1UNL    C12   19   0.157   0.168  -0.358
    1UNL    C13   20   0.228   0.208  -0.223
    1UNL    C14   21   0.265   0.080  -0.145
    1UNL     O8   22   0.358   0.103  -0.038
    1UNL    C15   23   0.299   0.079   0.088
    1UNL     O9   24   0.185   0.059   0.105
    1UNL    C16   25   0.396   0.090   0.200
    1UNL    C17   26   0.444  -0.004   0.283
    1UNL    C18   27   0.391  -0.145   0.284
    1UNL    C19   28   0.272  -0.182   0.234
    1UNL    C20   29   0.223  -0.314   0.235
    1UNL    C21   30   0.303  -0.418   0.290
    1UNL    O10   31   0.269  -0.550   0.286
    1UNL    C22   32   0.431  -0.380   0.325
    1UNL    C23   33   0.471  -0.252   0.331
    1UNL    C24   34   0.147   0.307  -0.131
    1UNL    C25   35   0.002   0.274  -0.136
    1UNL    O11   36  -0.023   0.139  -0.078
    1UNL     H1   37  -0.103   0.503  -0.240
    1UNL     H2   38  -0.189   0.136  -0.391
    1UNL     H3   39  -0.269   0.234  -0.105
    1UNL     H4   40  -0.440  -0.073  -0.070
    1UNL     H5   41  -0.307   0.039   0.241
    1UNL     H6   42  -0.558  -0.113   0.126
    1UNL     H7   43  -0.557   0.038   0.214
    1UNL     H8   44  -0.427  -0.161   0.355
    1UNL     H9   45  -0.335  -0.229   0.129
    1UNL    H10   46  -0.136  -0.236   0.275
    1UNL    H11   47  -0.103  -0.043   0.099
    1UNL    H12   48  -0.013  -0.230  -0.021
    1UNL    H13   49  -0.159  -0.021  -0.140
    1UNL    H14   50  -0.273  -0.281  -0.099
    1UNL    H15   51   0.004   0.221  -0.488
    1UNL    H16   52   0.079   0.368  -0.423
    1UNL    H17   53   0.233   0.174  -0.437
    1UNL    H18   54   0.130   0.067  -0.356
    1UNL    H19   55   0.333   0.250  -0.245
    1UNL    H20   56   0.295   0.002  -0.218
    1UNL    H21   57   0.186   0.034  -0.095
    1UNL    H22   58   0.449   0.190   0.212
    1UNL    H23   59   0.534   0.009   0.349
    1UNL    H24   60   0.209  -0.095   0.205
    1UNL    H25   61   0.121  -0.331   0.207
    1UNL    H26   62   0.186  -0.562   0.235
    1UNL    H27   63   0.492  -0.456   0.359
    1UNL    H28   64   0.564  -0.230   0.370
    1UNL    H29   65   0.160   0.416  -0.163
    1UNL    H30   66   0.189   0.305  -0.023
    1UNL    H31   67  -0.052   0.345  -0.068
    1UNL    H32   68   0.045   0.110  -0.017
   0.00000   0.00000   0.00000   0.00000   0.00000   0.00000   0.00000   0.00000   0.00000
Generated with MDTraj, t= 55.0
 68
    1UNL     O1    1  -0.182   0.475  -0.386
    1UNL     C1    2  -0.149   0.419  -0.286
    1UNL     C2    3  -0.079   0.282  -0.270
    1UNL     C3    4  -0.169   0.169  -0.280
    1UNL     C4    5  -0.281   0.156  -0.206
    1UNL     O2    6  -0.364   0.046  -0.205
    1UNL     C5    7  -0.345  -0.022  -0.078
    1UNL     O3    8  -0.372   0.058   0.034
    1UNL     C6    9  -0.355  -0.013   0.160
    1UNL     C7   10  -0.491  -0.073   0.206
    1UNL     O4   11  -0.477  -0.154   0.323
    1UNL     C8   12  -0.247  -0.130   0.166
    1UNL     O5   13  -0.192  -0.145   0.295
    1UNL     C9   14  -0.135  -0.099   0.070
    1UNL     O6   15  -0.044  -0.218   0.077
    1UNL    C10   16  -0.192  -0.077  -0.072
    1UNL     O7   17  -0.194  -0.192  -0.148
    1UNL    C11   18   0.027   0.275  -0.387
    1UNL    C12   19   0.131   0.162  -0.359
    1UNL    C13   20   0.224   0.206  -0.235
    1UNL    C14   21   0.268   0.073  -0.166
    1UNL     O8   22   0.361   0.100  -0.057
    1UNL    C15   23   0.299   0.076   0.069
    1UNL     O9   24   0.183   0.058   0.083
    1UNL    C16   25   0.391   0.081   0.190
    1UNL    C17   26   0.426  -0.022   0.269
    1UNL    C18   27   0.362  -0.153   0.282
    1UNL    C19   28   0.245  -0.196   0.220
    1UNL    C20   29   0.207  -0.327   0.228
    1UNL    C21   30   0.283  -0.419   0.297
    1UNL    O10   31   0.254  -0.556   0.307
    1UNL    C22   32   0.406  -0.387   0.359
    1UNL    C23   33   0.439  -0.253   0.347
    1UNL    C24   34   0.152   0.303  -0.138
    1UNL    C25   35   0.006   0.280  -0.132
    1UNL    O11   36  -0.028   0.154  -0.073
    1UNL     H1   37  -0.158   0.479  -0.197
    1UNL     H2   38  -0.157   0.098  -0.360
    1UNL     H3   39  -0.292   0.226  -0.124
    1UNL     H4   40  -0.409  -0.101  -0.068
    1UNL     H5   41  -0.316   0.059   0.235
    1UNL     H6   42  -0.537  -0.128   0.125
    1UNL     H7   43  -0.559   0.001   0.234
    1UNL     H8   44  -0.389  -0.174   0.353
    1UNL     H9   45  -0.287  -0.216   0.125
    1UNL    H10   46  -0.129  -0.220   0.285
    1UNL    H11   47  -0.068  -0.028   0.105
    1UNL    H12   48  -0.070  -0.273  -0.002
    1UNL    H13   49  -0.125  -0.002  -0.127
    1UNL    H14   50  -0.242  -0.173  -0.232
    1UNL    H15   51  -0.021   0.256  -0.484
    1UNL    H16   52   0.084   0.371  -0.390
    1UNL    H17   53   0.196   0.139  -0.442
    1UNL    H18   54   0.075   0.075  -0.330
    1UNL    H19   55   0.321   0.253  -0.276
    1UNL    H20   56   0.337   0.008  -0.227
    1UNL    H21   57   0.183   0.013  -0.140
    1UNL    H22   58   0.451   0.163   0.201
    1UNL    H23   59   0.501   0.002   0.336
    1UNL    H24   60   0.188  -0.116   0.182
    1UNL    H25   61   0.105  -0.345   0.195
    1UNL    H26   62   0.183  -0.581   0.241
    1UNL    H27   63   0.464  -0.470   0.407
    1UNL    H28   64   0.522  -0.221   0.414
    1UNL    H29   65   0.175   0.409  -0.167
    1UNL    H30   66   0.197   0.292  -0.028
    1UNL    H31   67  -0.037   0.353  -0.059
    1UNL    H32   68   0.031   0.143   0.009
   0.00000   0.00000   0.00000   0.00000   0.00000   0.00000   0.00000   0.00000   0.00000
Generated with MDTraj, t= 56.0
 68
    1UNL     O1    1  -0.177   0.500  -0.373
    1UNL     C1    2  -0.136   0.445  -0.275
    1UNL     C2    3  -0.082   0.308  -0.265
    1UNL     C3    4  -0.187   0.199  -0.277
    1UNL     C4    5  -0.260   0.137  -0.183
    1UNL     O2    6  -0.338   0.028  -0.200
    1UNL     C5    7  -0.318  -0.045  -0.077
    1UNL     O3    8  -0.355   0.033   0.035
    1UNL     C6    9  -0.344  -0.033   0.158
    1UNL     C7   10  -0.481  -0.076   0.203
    1UNL     O4   11  -0.473  -0.140   0.324
    1UNL     C8   12  -0.225  -0.139   0.168
    1UNL     O5   13  -0.181  -0.145   0.302
    1UNL     C9   14  -0.112  -0.097   0.073
    1UNL     O6   15  -0.006  -0.194   0.087
    1UNL    C10   16  -0.162  -0.094  -0.071
    1UNL     O7   17  -0.148  -0.218  -0.141
    1UNL    C11   18   0.016   0.290  -0.384
    1UNL    C12   19   0.108   0.170  -0.355
    1UNL    C13   20   0.213   0.197  -0.239
    1UNL    C14   21   0.267   0.068  -0.178
    1UNL     O8   22   0.360   0.095  -0.070
    1UNL    C15   23   0.294   0.057   0.046
    1UNL     O9   24   0.178   0.034   0.056
    1UNL    C16   25   0.385   0.075   0.167
    1UNL    C17   26   0.406  -0.015   0.264
    1UNL    C18   27   0.350  -0.153   0.271
    1UNL    C19   28   0.242  -0.200   0.195
    1UNL    C20   29   0.197  -0.331   0.194
    1UNL    C21   30   0.256  -0.415   0.294
    1UNL    O10   31   0.205  -0.534   0.323
    1UNL    C22   32   0.361  -0.366   0.373
    1UNL    C23   33   0.412  -0.237   0.366
    1UNL    C24   34   0.145   0.290  -0.135
    1UNL    C25   35  -0.008   0.284  -0.128
    1UNL    O11   36  -0.043   0.160  -0.061
    1UNL     H1   37  -0.165   0.501  -0.183
    1UNL     H2   38  -0.218   0.165  -0.379
    1UNL     H3   39  -0.240   0.172  -0.086
    1UNL     H4   40  -0.378  -0.126  -0.079
    1UNL     H5   41  -0.318   0.045   0.235
    1UNL     H6   42  -0.521  -0.151   0.136
    1UNL     H7   43  -0.540   0.012   0.199
    1UNL     H8   44  -0.372  -0.151   0.352
    1UNL     H9   45  -0.271  -0.229   0.143
    1UNL    H10   46  -0.108  -0.208   0.307
    1UNL    H11   47  -0.085  -0.003   0.110
    1UNL    H12   48   0.010  -0.221  -0.005
    1UNL    H13   49  -0.101  -0.017  -0.129
    1UNL    H14   50  -0.235  -0.261  -0.163
    1UNL    H15   51  -0.045   0.270  -0.474
    1UNL    H16   52   0.079   0.378  -0.406
    1UNL    H17   53   0.156   0.147  -0.446
    1UNL    H18   54   0.045   0.084  -0.326
    1UNL    H19   55   0.294   0.251  -0.301
    1UNL    H20   56   0.313   0.008  -0.261
    1UNL    H21   57   0.185   0.007  -0.137
    1UNL    H22   58   0.422   0.182   0.186
    1UNL    H23   59   0.475   0.026   0.344
    1UNL    H24   60   0.186  -0.128   0.142
    1UNL    H25   61   0.111  -0.362   0.140
    1UNL    H26   62   0.116  -0.557   0.282
    1UNL    H27   63   0.398  -0.426   0.452
    1UNL    H28   64   0.492  -0.212   0.433
    1UNL    H29   65   0.173   0.398  -0.147
    1UNL    H30   66   0.190   0.261  -0.031
    1UNL    H31   67  -0.043   0.356  -0.052
    1UNL    H32   68   0.032   0.117  -0.016
   0.00000   0.00000   0.00000   0.00000   0.00000   0.00000   0.00000   0.00000   0.00000
Generated with MDTraj, t= 57.0
 68
    1UNL     O1    1  -0.162   0.531  -0.365
    1UNL     C1    2  -0.144   0.460  -0.270
    1UNL     C2    3  -0.082   0.320  -0.272
    1UNL     C3    4  -0.183   0.206  -0.290
    1UNL     C4    5  -0.245   0.151  -0.182
    1UNL     O2    6  -0.322   0.038  -0.187
    1UNL     C5    7  -0.309  -0.058  -0.076
    1UNL     O3    8  -0.344   0.016   0.039
    1UNL     C6    9  -0.335  -0.051   0.166
    1UNL     C7   10  -0.473  -0.100   0.215
    1UNL     O4   11  -0.461  -0.134   0.347
    1UNL     C8   12  -0.227  -0.163   0.167
    1UNL     O5   13  -0.183  -0.179   0.298
    1UNL     C9   14  -0.110  -0.129   0.080
    1UNL     O6   15  -0.006  -0.230   0.080
    1UNL    C10   16  -0.160  -0.113  -0.065
    1UNL     O7   17  -0.163  -0.239  -0.131
    1UNL    C11   18   0.017   0.317  -0.388
    1UNL    C12   19   0.120   0.205  -0.384
    1UNL    C13   20   0.213   0.215  -0.259
    1UNL    C14   21   0.240   0.078  -0.191
    1UNL     O8   22   0.344   0.088  -0.087
    1UNL    C15   23   0.295   0.066   0.043
    1UNL     O9   24   0.180   0.050   0.062
    1UNL    C16   25   0.396   0.065   0.148
    1UNL    C17   26   0.413  -0.022   0.250
    1UNL    C18   27   0.336  -0.147   0.275
    1UNL    C19   28   0.241  -0.205   0.189
    1UNL    C20   29   0.192  -0.333   0.210
    1UNL    C21   30   0.238  -0.404   0.320
    1UNL    O10   31   0.196  -0.528   0.342
    1UNL    C22   32   0.325  -0.348   0.406
    1UNL    C23   33   0.380  -0.227   0.379
    1UNL    C24   34   0.150   0.308  -0.156
    1UNL    C25   35  -0.007   0.296  -0.138
    1UNL    O11   36  -0.025   0.167  -0.087
    1UNL     H1   37  -0.174   0.487  -0.172
    1UNL     H2   38  -0.194   0.166  -0.385
    1UNL     H3   39  -0.242   0.192  -0.082
    1UNL     H4   40  -0.375  -0.132  -0.092
    1UNL     H5   41  -0.289   0.024   0.235
    1UNL     H6   42  -0.497  -0.181   0.147
    1UNL     H7   43  -0.544  -0.023   0.206
    1UNL     H8   44  -0.370  -0.159   0.352
    1UNL     H9   45  -0.266  -0.256   0.138
    1UNL    H10   46  -0.125  -0.258   0.296
    1UNL    H11   47  -0.068  -0.041   0.117
    1UNL    H12   48  -0.006  -0.282  -0.006
    1UNL    H13   49  -0.093  -0.038  -0.120
    1UNL    H14   50  -0.220  -0.311  -0.092
    1UNL    H15   51  -0.035   0.320  -0.486
    1UNL    H16   52   0.069   0.415  -0.386
    1UNL    H17   53   0.173   0.195  -0.472
    1UNL    H18   54   0.067   0.108  -0.366
    1UNL    H19   55   0.315   0.255  -0.292
    1UNL    H20   56   0.286   0.008  -0.268
    1UNL    H21   57   0.146   0.031  -0.155
    1UNL    H22   58   0.473   0.136   0.137
    1UNL    H23   59   0.498  -0.017   0.309
    1UNL    H24   60   0.215  -0.143   0.101
    1UNL    H25   61   0.129  -0.379   0.135
    1UNL    H26   62   0.112  -0.555   0.297
    1UNL    H27   63   0.361  -0.414   0.484
    1UNL    H28   64   0.468  -0.196   0.434
    1UNL    H29   65   0.185   0.415  -0.172
    1UNL    H30   66   0.194   0.277  -0.059
    1UNL    H31   67  -0.042   0.365  -0.061
    1UNL    H32   68   0.052   0.137  -0.026
   0.00000   0.00000   0.00000   0.00000   0.00000   0.00000   0.00000   0.00000   0.00000
Generated with MDTraj, t= 58.0
 68
    1UNL     O1    1  -0.131   0.537  -0.323
    1UNL     C1    2  -0.159   0.437  -0.267
    1UNL     C2    3  -0.081   0.307  -0.273
    1UNL     C3    4  -0.180   0.191  -0.280
    1UNL     C4    5  -0.246   0.131  -0.179
    1UNL     O2    6  -0.343   0.031  -0.181
    1UNL     C5    7  -0.322  -0.040  -0.068
    1UNL     O3    8  -0.334   0.043   0.050
    1UNL     C6    9  -0.321  -0.043   0.168
    1UNL     C7   10  -0.459  -0.072   0.228
    1UNL     O4   11  -0.447  -0.156   0.342
    1UNL     C8   12  -0.235  -0.178   0.149
    1UNL     O5   13  -0.187  -0.221   0.275
    1UNL     C9   14  -0.122  -0.156   0.053
    1UNL     O6   15  -0.046  -0.279   0.047
    1UNL    C10   16  -0.181  -0.117  -0.082
    1UNL     O7   17  -0.196  -0.228  -0.173
    1UNL    C11   18   0.011   0.325  -0.394
    1UNL    C12   19   0.116   0.212  -0.387
    1UNL    C13   20   0.210   0.225  -0.263
    1UNL    C14   21   0.255   0.089  -0.199
    1UNL     O8   22   0.352   0.105  -0.092
    1UNL    C15   23   0.307   0.056   0.027
    1UNL     O9   24   0.191   0.037   0.053
    1UNL    C16   25   0.413   0.062   0.134
    1UNL    C17   26   0.429  -0.025   0.235
    1UNL    C18   27   0.356  -0.147   0.268
    1UNL    C19   28   0.254  -0.204   0.190
    1UNL    C20   29   0.200  -0.324   0.231
    1UNL    C21   30   0.238  -0.391   0.347
    1UNL    O10   31   0.191  -0.514   0.388
    1UNL    C22   32   0.319  -0.324   0.442
    1UNL    C23   33   0.376  -0.205   0.400
    1UNL    C24   34   0.149   0.325  -0.164
    1UNL    C25   35   0.000   0.297  -0.135
    1UNL    O11   36  -0.020   0.179  -0.069
    1UNL     H1   37  -0.238   0.449  -0.195
    1UNL     H2   38  -0.203   0.158  -0.385
    1UNL     H3   39  -0.214   0.146  -0.073
    1UNL     H4   40  -0.396  -0.109  -0.067
    1UNL     H5   41  -0.269   0.013   0.247
    1UNL     H6   42  -0.537  -0.116   0.163
    1UNL     H7   43  -0.506   0.018   0.263
    1UNL     H8   44  -0.358  -0.212   0.343
    1UNL     H9   45  -0.304  -0.253   0.119
    1UNL    H10   46  -0.130  -0.300   0.259
    1UNL    H11   47  -0.057  -0.076   0.080
    1UNL    H12   48  -0.095  -0.349   0.005
    1UNL    H13   49  -0.111  -0.041  -0.129
    1UNL    H14   50  -0.198  -0.194  -0.264
    1UNL    H15   51  -0.057   0.323  -0.482
    1UNL    H16   52   0.056   0.425  -0.405
    1UNL    H17   53   0.179   0.206  -0.468
    1UNL    H18   54   0.064   0.114  -0.373
    1UNL    H19   55   0.313   0.269  -0.289
    1UNL    H20   56   0.303   0.026  -0.279
    1UNL    H21   57   0.168   0.034  -0.152
    1UNL    H22   58   0.483   0.143   0.118
    1UNL    H23   59   0.506   0.001   0.312
    1UNL    H24   60   0.231  -0.160   0.097
    1UNL    H25   61   0.122  -0.356   0.164
    1UNL    H26   62   0.144  -0.559   0.316
    1UNL    H27   63   0.332  -0.383   0.533
    1UNL    H28   64   0.442  -0.164   0.478
    1UNL    H29   65   0.152   0.431  -0.211
    1UNL    H30   66   0.212   0.331  -0.077
    1UNL    H31   67  -0.036   0.378  -0.071
    1UNL    H32   68   0.054   0.132  -0.031
   0.00000   0.00000   0.00000   0.00000   0.00000   0.00000   0.00000   0.00000   0.00000
Generated with MDTraj, t= 59.0
 68
    1UNL     O1    1  -0.084   0.538  -0.244
    1UNL     C1    2  -0.157   0.448  -0.269
    1UNL     C2    3  -0.092   0.307  -0.263
    1UNL     C3    4  -0.191   0.193  -0.279
    1UNL     C4    5  -0.270   0.161  -0.184
    1UNL     O2    6  -0.356   0.047  -0.167
    1UNL     C5    7  -0.316  -0.035  -0.064
    1UNL     O3    8  -0.294   0.032   0.063
    1UNL     C6    9  -0.300  -0.058   0.177
    1UNL     C7   10  -0.442  -0.062   0.227
    1UNL     O4   11  -0.447  -0.144   0.347
    1UNL     C8   12  -0.251  -0.203   0.135
    1UNL     O5   13  -0.203  -0.265   0.253
    1UNL     C9   14  -0.134  -0.194   0.029
    1UNL     O6   15  -0.072  -0.326   0.005
    1UNL    C10   16  -0.188  -0.124  -0.099
    1UNL     O7   17  -0.216  -0.214  -0.206
    1UNL    C11   18   0.009   0.300  -0.383
    1UNL    C12   19   0.109   0.180  -0.370
    1UNL    C13   20   0.210   0.220  -0.261
    1UNL    C14   21   0.287   0.098  -0.211
    1UNL     O8   22   0.374   0.116  -0.103
    1UNL    C15   23   0.322   0.054   0.013
    1UNL     O9   24   0.208   0.015   0.016
    1UNL    C16   25   0.410   0.072   0.130
    1UNL    C17   26   0.427  -0.000   0.236
    1UNL    C18   27   0.357  -0.128   0.276
    1UNL    C19   28   0.268  -0.195   0.198
    1UNL    C20   29   0.195  -0.306   0.239
    1UNL    C21   30   0.227  -0.358   0.366
    1UNL    O10   31   0.158  -0.463   0.418
    1UNL    C22   32   0.330  -0.297   0.438
    1UNL    C23   33   0.391  -0.181   0.404
    1UNL    C24   34   0.143   0.305  -0.150
    1UNL    C25   35  -0.015   0.289  -0.130
    1UNL    O11   36  -0.042   0.162  -0.074
    1UNL     H1   37  -0.262   0.469  -0.296
    1UNL     H2   38  -0.173   0.119  -0.349
    1UNL     H3   39  -0.274   0.240  -0.106
    1UNL     H4   40  -0.392  -0.102  -0.050
    1UNL     H5   41  -0.238  -0.014   0.256
    1UNL     H6   42  -0.514  -0.107   0.153
    1UNL     H7   43  -0.488   0.036   0.245
    1UNL     H8   44  -0.368  -0.190   0.356
    1UNL     H9   45  -0.331  -0.263   0.097
    1UNL    H10   46  -0.121  -0.310   0.224
    1UNL    H11   47  -0.049  -0.135   0.065
    1UNL    H12   48  -0.119  -0.378  -0.067
    1UNL    H13   49  -0.107  -0.051  -0.132
    1UNL    H14   50  -0.294  -0.266  -0.181
    1UNL    H15   51  -0.044   0.296  -0.481
    1UNL    H16   52   0.054   0.401  -0.384
    1UNL    H17   53   0.156   0.164  -0.462
    1UNL    H18   54   0.059   0.084  -0.346
    1UNL    H19   55   0.282   0.294  -0.314
    1UNL    H20   56   0.346   0.060  -0.301
    1UNL    H21   57   0.209   0.023  -0.173
    1UNL    H22   58   0.476   0.160   0.113
    1UNL    H23   59   0.510   0.027   0.298
    1UNL    H24   60   0.258  -0.157   0.099
    1UNL    H25   61   0.132  -0.365   0.176
    1UNL    H26   62   0.118  -0.523   0.354
    1UNL    H27   63   0.363  -0.346   0.525
    1UNL    H28   64   0.474  -0.146   0.456
    1UNL    H29   65   0.160   0.416  -0.178
    1UNL    H30   66   0.188   0.294  -0.056
    1UNL    H31   67  -0.057   0.366  -0.063
    1UNL    H32   68   0.043   0.126  -0.032
   0.00000   0.00000   0.00000   0.00000   0.00000   0.00000   0.00000   0.00000   0.00000
Generated with MDTraj, t= 60.0
 68
    1UNL     O1    1  -0.034   0.523  -0.172
    1UNL     C1    2  -0.116   0.446  -0.218
    1UNL     C2    3  -0.087   0.300  -0.253
    1UNL     C3    4  -0.214   0.224  -0.254
    1UNL     C4    5  -0.246   0.134  -0.163
    1UNL     O2    6  -0.356   0.047  -0.170
    1UNL     C5    7  -0.336  -0.044  -0.068
    1UNL     O3    8  -0.313   0.022   0.060
    1UNL     C6    9  -0.303  -0.073   0.172
    1UNL     C7   10  -0.431  -0.072   0.264
    1UNL     O4   11  -0.414  -0.159   0.374
    1UNL     C8   12  -0.260  -0.210   0.117
    1UNL     O5   13  -0.215  -0.293   0.224
    1UNL     C9   14  -0.151  -0.203   0.010
    1UNL     O6   15  -0.097  -0.330  -0.020
    1UNL    C10   16  -0.209  -0.129  -0.112
    1UNL     O7   17  -0.244  -0.219  -0.215
    1UNL    C11   18  -0.006   0.289  -0.388
    1UNL    C12   19   0.111   0.186  -0.379
    1UNL    C13   20   0.215   0.211  -0.269
    1UNL    C14   21   0.292   0.087  -0.216
    1UNL     O8   22   0.376   0.124  -0.111
    1UNL    C15   23   0.333   0.080   0.007
    1UNL     O9   24   0.221   0.033   0.025
    1UNL    C16   25   0.427   0.089   0.121
    1UNL    C17   26   0.428   0.022   0.237
    1UNL    C18   27   0.347  -0.099   0.275
    1UNL    C19   28   0.244  -0.167   0.200
    1UNL    C20   29   0.177  -0.273   0.246
    1UNL    C21   30   0.214  -0.326   0.368
    1UNL    O10   31   0.141  -0.428   0.429
    1UNL    C22   32   0.321  -0.269   0.442
    1UNL    C23   33   0.382  -0.156   0.394
    1UNL    C24   34   0.151   0.299  -0.160
    1UNL    C25   35   0.006   0.246  -0.138
    1UNL    O11   36  -0.007   0.101  -0.129
    1UNL     H1   37  -0.201   0.492  -0.265
    1UNL     H2   38  -0.264   0.219  -0.353
    1UNL     H3   39  -0.199   0.126  -0.067
    1UNL     H4   40  -0.420  -0.103  -0.052
    1UNL     H5   41  -0.217  -0.034   0.225
    1UNL     H6   42  -0.517  -0.102   0.194
    1UNL     H7   43  -0.461   0.029   0.298
    1UNL     H8   44  -0.361  -0.246   0.345
    1UNL     H9   45  -0.354  -0.253   0.081
    1UNL    H10   46  -0.172  -0.373   0.185
    1UNL    H11   47  -0.065  -0.146   0.052
    1UNL    H12   48  -0.106  -0.347  -0.114
    1UNL    H13   49  -0.129  -0.060  -0.150
    1UNL    H14   50  -0.225  -0.179  -0.302
    1UNL    H15   51  -0.079   0.271  -0.472
    1UNL    H16   52   0.042   0.385  -0.413
    1UNL    H17   53   0.159   0.173  -0.474
    1UNL    H18   54   0.060   0.094  -0.354
    1UNL    H19   55   0.294   0.281  -0.316
    1UNL    H20   56   0.370   0.059  -0.295
    1UNL    H21   57   0.219   0.002  -0.187
    1UNL    H22   58   0.521   0.131   0.104
    1UNL    H23   59   0.517   0.023   0.301
    1UNL    H24   60   0.234  -0.121   0.100
    1UNL    H25   61   0.098  -0.316   0.185
    1UNL    H26   62   0.089  -0.481   0.367
    1UNL    H27   63   0.354  -0.311   0.539
    1UNL    H28   64   0.457  -0.110   0.462
    1UNL    H29   65   0.143   0.408  -0.186
    1UNL    H30   66   0.201   0.294  -0.067
    1UNL    H31   67  -0.032   0.289  -0.043
    1UNL    H32   68   0.074   0.070  -0.082
   0.00000   0.00000   0.00000   0.00000   0.00000   0.00000   0.00000   0.00000   0.00000
Generated with MDTraj, t= 61.0
 68
    1UNL     O1    1  -0.005   0.509  -0.153
    1UNL     C1    2  -0.094   0.441  -0.194
    1UNL     C2    3  -0.073   0.303  -0.246
    1UNL     C3    4  -0.207   0.229  -0.252
    1UNL     C4    5  -0.259   0.149  -0.151
    1UNL     O2    6  -0.359   0.055  -0.164
    1UNL     C5    7  -0.348  -0.047  -0.065
    1UNL     O3    8  -0.340   0.006   0.067
    1UNL     C6    9  -0.308  -0.095   0.169
    1UNL     C7   10  -0.421  -0.116   0.278
    1UNL     O4   11  -0.374  -0.179   0.391
    1UNL     C8   12  -0.271  -0.226   0.112
    1UNL     O5   13  -0.222  -0.321   0.208
    1UNL     C9   14  -0.169  -0.216  -0.002
    1UNL     O6   15  -0.125  -0.342  -0.040
    1UNL    C10   16  -0.232  -0.143  -0.124
    1UNL     O7   17  -0.289  -0.247  -0.201
    1UNL    C11   18   0.013   0.308  -0.376
    1UNL    C12   19   0.135   0.216  -0.394
    1UNL    C13   20   0.233   0.225  -0.273
    1UNL    C14   21   0.318   0.102  -0.239
    1UNL     O8   22   0.408   0.107  -0.130
    1UNL    C15   23   0.350   0.065  -0.013
    1UNL     O9   24   0.225   0.048  -0.003
    1UNL    C16   25   0.440   0.081   0.105
    1UNL    C17   26   0.437   0.022   0.222
    1UNL    C18   27   0.346  -0.081   0.272
    1UNL    C19   28   0.235  -0.122   0.206
    1UNL    C20   29   0.168  -0.229   0.254
    1UNL    C21   30   0.193  -0.289   0.383
    1UNL    O10   31   0.123  -0.399   0.426
    1UNL    C22   32   0.296  -0.236   0.458
    1UNL    C23   33   0.374  -0.133   0.399
    1UNL    C24   34   0.162   0.277  -0.136
    1UNL    C25   35   0.016   0.230  -0.133
    1UNL    O11   36  -0.010   0.090  -0.131
    1UNL     H1   37  -0.191   0.486  -0.204
    1UNL     H2   38  -0.245   0.200  -0.347
    1UNL     H3   39  -0.210   0.134  -0.058
    1UNL     H4   40  -0.441  -0.096  -0.061
    1UNL     H5   41  -0.219  -0.058   0.219
    1UNL     H6   42  -0.508  -0.183   0.242
    1UNL     H7   43  -0.463  -0.014   0.291
    1UNL     H8   44  -0.295  -0.232   0.378
    1UNL     H9   45  -0.363  -0.270   0.063
    1UNL    H10   46  -0.196  -0.404   0.164
    1UNL    H11   47  -0.076  -0.159   0.028
    1UNL    H12   48  -0.134  -0.350  -0.140
    1UNL    H13   49  -0.162  -0.092  -0.192
    1UNL    H14   50  -0.342  -0.209  -0.275
    1UNL    H15   51  -0.051   0.289  -0.467
    1UNL    H16   52   0.048   0.414  -0.382
    1UNL    H17   53   0.185   0.250  -0.488
    1UNL    H18   54   0.106   0.114  -0.408
    1UNL    H19   55   0.310   0.308  -0.290
    1UNL    H20   56   0.377   0.060  -0.327
    1UNL    H21   57   0.245   0.022  -0.194
    1UNL    H22   58   0.519   0.160   0.085
    1UNL    H23   59   0.510   0.059   0.291
    1UNL    H24   60   0.212  -0.071   0.113
    1UNL    H25   61   0.089  -0.265   0.193
    1UNL    H26   62   0.047  -0.411   0.364
    1UNL    H27   63   0.314  -0.272   0.555
    1UNL    H28   64   0.442  -0.084   0.462
    1UNL    H29   65   0.165   0.380  -0.121
    1UNL    H30   66   0.210   0.230  -0.049
    1UNL    H31   67  -0.022   0.260  -0.032
    1UNL    H32   68   0.054   0.035  -0.077
   0.00000   0.00000   0.00000   0.00000   0.00000   0.00000   0.00000   0.00000   0.00000
Generated with MDTraj, t= 62.0
 68
    1UNL     O1    1  -0.055   0.525  -0.172
    1UNL     C1    2  -0.121   0.429  -0.162
    1UNL     C2    3  -0.073   0.296  -0.213
    1UNL     C3    4  -0.196   0.213  -0.234
    1UNL     C4    5  -0.248   0.133  -0.141
    1UNL     O2    6  -0.362   0.058  -0.157
    1UNL     C5    7  -0.357  -0.050  -0.060
    1UNL     O3    8  -0.303  -0.006   0.064
    1UNL     C6    9  -0.285  -0.104   0.169
    1UNL     C7   10  -0.406  -0.097   0.278
    1UNL     O4   11  -0.389  -0.195   0.377
    1UNL     C8   12  -0.262  -0.238   0.105
    1UNL     O5   13  -0.199  -0.334   0.191
    1UNL     C9   14  -0.180  -0.229  -0.023
    1UNL     O6   15  -0.136  -0.356  -0.074
    1UNL    C10   16  -0.265  -0.152  -0.127
    1UNL     O7   17  -0.340  -0.238  -0.212
    1UNL    C11   18   0.008   0.315  -0.348
    1UNL    C12   19   0.121   0.208  -0.361
    1UNL    C13   20   0.244   0.230  -0.269
    1UNL    C14   21   0.339   0.118  -0.255
    1UNL     O8   22   0.422   0.132  -0.147
    1UNL    C15   23   0.388   0.058  -0.038
    1UNL     O9   24   0.297  -0.028  -0.043
    1UNL    C16   25   0.455   0.067   0.091
    1UNL    C17   26   0.433   0.019   0.212
    1UNL    C18   27   0.337  -0.077   0.269
    1UNL    C19   28   0.222  -0.116   0.205
    1UNL    C20   29   0.136  -0.210   0.267
    1UNL    C21   30   0.165  -0.248   0.398
    1UNL    O10   31   0.084  -0.341   0.460
    1UNL    C22   32   0.283  -0.207   0.458
    1UNL    C23   33   0.373  -0.132   0.394
    1UNL    C24   34   0.180   0.284  -0.130
    1UNL    C25   35   0.033   0.231  -0.110
    1UNL    O11   36   0.024   0.087  -0.114
    1UNL     H1   37  -0.201   0.427  -0.084
    1UNL     H2   38  -0.246   0.194  -0.328
    1UNL     H3   39  -0.197   0.134  -0.045
    1UNL     H4   40  -0.456  -0.083  -0.040
    1UNL     H5   41  -0.194  -0.084   0.227
    1UNL     H6   42  -0.496  -0.131   0.217
    1UNL     H7   43  -0.429   0.002   0.322
    1UNL     H8   44  -0.346  -0.279   0.341
    1UNL     H9   45  -0.367  -0.275   0.078
    1UNL    H10   46  -0.164  -0.409   0.137
    1UNL    H11   47  -0.085  -0.169   0.005
    1UNL    H12   48  -0.170  -0.363  -0.166
    1UNL    H13   49  -0.202  -0.106  -0.201
    1UNL    H14   50  -0.388  -0.188  -0.283
    1UNL    H15   51  -0.056   0.318  -0.440
    1UNL    H16   52   0.054   0.416  -0.332
    1UNL    H17   53   0.154   0.197  -0.468
    1UNL    H18   54   0.085   0.114  -0.330
    1UNL    H19   55   0.305   0.321  -0.302
    1UNL    H20   56   0.406   0.105  -0.346
    1UNL    H21   57   0.287   0.011  -0.245
    1UNL    H22   58   0.529   0.135   0.082
    1UNL    H23   59   0.508   0.050   0.286
    1UNL    H24   60   0.195  -0.075   0.110
    1UNL    H25   61   0.057  -0.266   0.216
    1UNL    H26   62  -0.003  -0.363   0.414
    1UNL    H27   63   0.294  -0.233   0.565
    1UNL    H28   64   0.463  -0.100   0.448
    1UNL    H29   65   0.175   0.385  -0.131
    1UNL    H30   66   0.243   0.254  -0.044
    1UNL    H31   67   0.012   0.254  -0.004
    1UNL    H32   68   0.113   0.058  -0.093
   0.00000   0.00000   0.00000   0.00000   0.00000   0.00000   0.00000   0.00000   0.00000
Generated with MDTraj, t= 63.0
 68
    1UNL     O1    1  -0.060   0.528  -0.200
    1UNL     C1    2  -0.090   0.427  -0.141
    1UNL     C2    3  -0.066   0.292  -0.200
    1UNL     C3    4  -0.198   0.229  -0.225
    1UNL     C4    5  -0.241   0.138  -0.136
    1UNL     O2    6  -0.357   0.061  -0.142
    1UNL     C5    7  -0.328  -0.047  -0.048
    1UNL     O3    8  -0.258  -0.011   0.081
    1UNL     C6    9  -0.264  -0.124   0.176
    1UNL     C7   10  -0.398  -0.126   0.250
    1UNL     O4   11  -0.396  -0.232   0.352
    1UNL     C8   12  -0.241  -0.260   0.111
    1UNL     O5   13  -0.157  -0.340   0.198
    1UNL     C9   14  -0.185  -0.256  -0.034
    1UNL     O6   15  -0.172  -0.392  -0.075
    1UNL    C10   16  -0.271  -0.166  -0.127
    1UNL     O7   17  -0.377  -0.235  -0.197
    1UNL    C11   18   0.009   0.326  -0.342
    1UNL    C12   19   0.130   0.237  -0.361
    1UNL    C13   20   0.235   0.255  -0.250
    1UNL    C14   21   0.328   0.141  -0.241
    1UNL     O8   22   0.424   0.134  -0.133
    1UNL    C15   23   0.387   0.042  -0.045
    1UNL     O9   24   0.285  -0.034  -0.063
    1UNL    C16   25   0.474   0.033   0.068
    1UNL    C17   26   0.462  -0.015   0.193
    1UNL    C18   27   0.346  -0.081   0.258
    1UNL    C19   28   0.221  -0.110   0.196
    1UNL    C20   29   0.122  -0.182   0.266
    1UNL    C21   30   0.129  -0.208   0.398
    1UNL    O10   31   0.025  -0.264   0.464
    1UNL    C22   32   0.258  -0.181   0.454
    1UNL    C23   33   0.366  -0.128   0.387
    1UNL    C24   34   0.171   0.288  -0.109
    1UNL    C25   35   0.029   0.222  -0.099
    1UNL    O11   36   0.035   0.081  -0.132
    1UNL     H1   37  -0.141   0.438  -0.049
    1UNL     H2   38  -0.252   0.235  -0.322
    1UNL     H3   39  -0.178   0.126  -0.045
    1UNL     H4   40  -0.425  -0.080  -0.016
    1UNL     H5   41  -0.182  -0.104   0.249
    1UNL     H6   42  -0.485  -0.141   0.178
    1UNL     H7   43  -0.411  -0.030   0.295
    1UNL     H8   44  -0.311  -0.280   0.331
    1UNL     H9   45  -0.346  -0.309   0.105
    1UNL    H10   46  -0.116  -0.408   0.138
    1UNL    H11   47  -0.080  -0.210  -0.020
    1UNL    H12   48  -0.259  -0.432  -0.089
    1UNL    H13   49  -0.207  -0.129  -0.204
    1UNL    H14   50  -0.410  -0.180  -0.270
    1UNL    H15   51  -0.069   0.324  -0.423
    1UNL    H16   52   0.051   0.430  -0.339
    1UNL    H17   53   0.182   0.246  -0.462
    1UNL    H18   54   0.092   0.140  -0.358
    1UNL    H19   55   0.289   0.351  -0.282
    1UNL    H20   56   0.385   0.125  -0.335
    1UNL    H21   57   0.263   0.042  -0.245
    1UNL    H22   58   0.571   0.091   0.049
    1UNL    H23   59   0.545  -0.014   0.259
    1UNL    H24   60   0.204  -0.082   0.096
    1UNL    H25   61   0.039  -0.192   0.197
    1UNL    H26   62  -0.047  -0.275   0.396
    1UNL    H27   63   0.261  -0.194   0.559
    1UNL    H28   64   0.451  -0.098   0.444
    1UNL    H29   65   0.166   0.389  -0.097
    1UNL    H30   66   0.236   0.247  -0.031
    1UNL    H31   67  -0.001   0.242   0.005
    1UNL    H32   68   0.123   0.042  -0.106
   0.00000   0.00000   0.00000   0.00000   0.00000   0.00000   0.00000   0.00000   0.00000
Generated with MDTraj, t= 64.0
 68
    1UNL     O1    1  -0.038   0.542  -0.179
    1UNL     C1    2  -0.089   0.443  -0.132
    1UNL     C2    3  -0.066   0.308  -0.200
    1UNL     C3    4  -0.203   0.241  -0.204
    1UNL     C4    5  -0.219   0.122  -0.138
    1UNL     O2    6  -0.338   0.062  -0.116
    1UNL     C5    7  -0.329  -0.058  -0.040
    1UNL     O3    8  -0.253  -0.033   0.082
    1UNL     C6    9  -0.266  -0.141   0.184
    1UNL     C7   10  -0.395  -0.144   0.263
    1UNL     O4   11  -0.392  -0.248   0.366
    1UNL     C8   12  -0.235  -0.278   0.118
    1UNL     O5   13  -0.150  -0.352   0.198
    1UNL     C9   14  -0.182  -0.273  -0.030
    1UNL     O6   15  -0.165  -0.406  -0.081
    1UNL    C10   16  -0.279  -0.189  -0.115
    1UNL     O7   17  -0.389  -0.271  -0.166
    1UNL    C11   18   0.005   0.328  -0.339
    1UNL    C12   19   0.143   0.253  -0.362
    1UNL    C13   20   0.253   0.270  -0.250
    1UNL    C14   21   0.352   0.149  -0.255
    1UNL     O8   22   0.437   0.137  -0.138
    1UNL    C15   23   0.392   0.045  -0.044
    1UNL     O9   24   0.268   0.016  -0.038
    1UNL    C16   25   0.490  -0.012   0.050
    1UNL    C17   26   0.467  -0.074   0.170
    1UNL    C18   27   0.340  -0.102   0.244
    1UNL    C19   28   0.232  -0.140   0.173
    1UNL    C20   29   0.112  -0.176   0.232
    1UNL    C21   30   0.103  -0.169   0.374
    1UNL    O10   31  -0.019  -0.209   0.437
    1UNL    C22   32   0.205  -0.126   0.449
    1UNL    C23   33   0.325  -0.098   0.386
    1UNL    C24   34   0.179   0.299  -0.113
    1UNL    C25   35   0.039   0.231  -0.108
    1UNL    O11   36   0.047   0.099  -0.145
    1UNL     H1   37  -0.159   0.456  -0.051
    1UNL     H2   38  -0.280   0.289  -0.254
    1UNL     H3   39  -0.138   0.059  -0.107
    1UNL     H4   40  -0.430  -0.080  -0.005
    1UNL     H5   41  -0.178  -0.117   0.249
    1UNL     H6   42  -0.485  -0.172   0.202
    1UNL     H7   43  -0.421  -0.052   0.307
    1UNL     H8   44  -0.315  -0.299   0.362
    1UNL     H9   45  -0.336  -0.336   0.112
    1UNL    H10   46  -0.131  -0.430   0.144
    1UNL    H11   47  -0.079  -0.219  -0.031
    1UNL    H12   48  -0.257  -0.440  -0.105
    1UNL    H13   49  -0.226  -0.155  -0.201
    1UNL    H14   50  -0.466  -0.213  -0.180
    1UNL    H15   51  -0.060   0.283  -0.419
    1UNL    H16   52   0.006   0.439  -0.358
    1UNL    H17   53   0.174   0.280  -0.467
    1UNL    H18   54   0.128   0.148  -0.368
    1UNL    H19   55   0.311   0.365  -0.276
    1UNL    H20   56   0.417   0.144  -0.343
    1UNL    H21   57   0.293   0.048  -0.267
    1UNL    H22   58   0.584   0.008   0.013
    1UNL    H23   59   0.559  -0.092   0.226
    1UNL    H24   60   0.233  -0.136   0.066
    1UNL    H25   61   0.019  -0.206   0.186
    1UNL    H26   62  -0.079  -0.248   0.371
    1UNL    H27   63   0.192  -0.108   0.555
    1UNL    H28   64   0.399  -0.044   0.445
    1UNL    H29   65   0.163   0.404  -0.103
    1UNL    H30   66   0.239   0.263  -0.032
    1UNL    H31   67  -0.005   0.243  -0.010
    1UNL    H32   68   0.128   0.058  -0.109
   0.00000   0.00000   0.00000   0.00000   0.00000   0.00000   0.00000   0.00000   0.00000
Generated with MDTraj, t= 65.0
 68
    1UNL     O1    1   0.004   0.521  -0.110
    1UNL     C1    2  -0.083   0.446  -0.139
    1UNL     C2    3  -0.053   0.307  -0.190
    1UNL     C3    4  -0.181   0.232  -0.191
    1UNL     C4    5  -0.211   0.124  -0.123
    1UNL     O2    6  -0.319   0.050  -0.139
    1UNL     C5    7  -0.335  -0.059  -0.052
    1UNL     O3    8  -0.283  -0.029   0.083
    1UNL     C6    9  -0.268  -0.137   0.185
    1UNL     C7   10  -0.380  -0.132   0.291
    1UNL     O4   11  -0.386  -0.241   0.375
    1UNL     C8   12  -0.245  -0.273   0.116
    1UNL     O5   13  -0.182  -0.356   0.200
    1UNL     C9   14  -0.173  -0.265  -0.021
    1UNL     O6   15  -0.142  -0.392  -0.073
    1UNL    C10   16  -0.275  -0.197  -0.117
    1UNL     O7   17  -0.379  -0.301  -0.136
    1UNL    C11   18   0.007   0.319  -0.333
    1UNL    C12   19   0.132   0.232  -0.356
    1UNL    C13   20   0.243   0.264  -0.247
    1UNL    C14   21   0.341   0.139  -0.241
    1UNL     O8   22   0.427   0.147  -0.133
    1UNL    C15   23   0.394   0.054  -0.041
    1UNL     O9   24   0.288  -0.011  -0.055
    1UNL    C16   25   0.492   0.024   0.061
    1UNL    C17   26   0.464  -0.062   0.163
    1UNL    C18   27   0.332  -0.095   0.214
    1UNL    C19   28   0.247  -0.197   0.159
    1UNL    C20   29   0.122  -0.218   0.207
    1UNL    C21   30   0.078  -0.154   0.328
    1UNL    O10   31  -0.027  -0.200   0.395
    1UNL    C22   32   0.165  -0.062   0.393
    1UNL    C23   33   0.290  -0.034   0.331
    1UNL    C24   34   0.185   0.294  -0.105
    1UNL    C25   35   0.045   0.233  -0.082
    1UNL    O11   36   0.038   0.096  -0.112
    1UNL     H1   37  -0.188   0.482  -0.130
    1UNL     H2   38  -0.260   0.269  -0.262
    1UNL     H3   39  -0.151   0.091  -0.042
    1UNL     H4   40  -0.444  -0.071  -0.038
    1UNL     H5   41  -0.166  -0.120   0.230
    1UNL     H6   42  -0.478  -0.133   0.242
    1UNL     H7   43  -0.381  -0.051   0.356
    1UNL     H8   44  -0.297  -0.298   0.379
    1UNL     H9   45  -0.351  -0.319   0.106
    1UNL    H10   46  -0.175  -0.445   0.159
    1UNL    H11   47  -0.076  -0.200  -0.016
    1UNL    H12   48  -0.219  -0.420  -0.123
    1UNL    H13   49  -0.236  -0.173  -0.215
    1UNL    H14   50  -0.467  -0.268  -0.104
    1UNL    H15   51  -0.075   0.309  -0.409
    1UNL    H16   52   0.042   0.426  -0.338
    1UNL    H17   53   0.178   0.256  -0.455
    1UNL    H18   54   0.103   0.128  -0.366
    1UNL    H19   55   0.316   0.347  -0.279
    1UNL    H20   56   0.403   0.143  -0.329
    1UNL    H21   57   0.295   0.032  -0.252
    1UNL    H22   58   0.598   0.049   0.041
    1UNL    H23   59   0.543  -0.114   0.212
    1UNL    H24   60   0.279  -0.250   0.070
    1UNL    H25   61   0.065  -0.296   0.165
    1UNL    H26   62  -0.071  -0.269   0.344
    1UNL    H27   63   0.143  -0.003   0.483
    1UNL    H28   64   0.363   0.028   0.380
    1UNL    H29   65   0.181   0.402  -0.087
    1UNL    H30   66   0.251   0.253  -0.036
    1UNL    H31   67   0.000   0.249   0.017
    1UNL    H32   68   0.123   0.053  -0.078
   0.00000   0.00000   0.00000   0.00000   0.00000   0.00000   0.00000   0.00000   0.00000
Generated with MDTraj, t= 66.0
 68
    1UNL     O1    1  -0.013   0.486  -0.043
    1UNL     C1    2  -0.092   0.430  -0.114
    1UNL     C2    3  -0.058   0.292  -0.175
    1UNL     C3    4  -0.190   0.215  -0.186
    1UNL     C4    5  -0.221   0.108  -0.126
    1UNL     O2    6  -0.345   0.060  -0.129
    1UNL     C5    7  -0.340  -0.053  -0.048
    1UNL     O3    8  -0.279  -0.019   0.082
    1UNL     C6    9  -0.275  -0.129   0.180
    1UNL     C7   10  -0.397  -0.127   0.278
    1UNL     O4   11  -0.382  -0.215   0.388
    1UNL     C8   12  -0.254  -0.269   0.115
    1UNL     O5   13  -0.210  -0.364   0.203
    1UNL     C9   14  -0.173  -0.253  -0.017
    1UNL     O6   15  -0.137  -0.383  -0.059
    1UNL    C10   16  -0.264  -0.178  -0.114
    1UNL     O7   17  -0.359  -0.269  -0.169
    1UNL    C11   18   0.014   0.319  -0.313
    1UNL    C12   19   0.126   0.217  -0.341
    1UNL    C13   20   0.241   0.241  -0.239
    1UNL    C14   21   0.337   0.124  -0.251
    1UNL     O8   22   0.439   0.130  -0.149
    1UNL    C15   23   0.413   0.034  -0.057
    1UNL     O9   24   0.311  -0.034  -0.066
    1UNL    C16   25   0.508   0.019   0.050
    1UNL    C17   26   0.470  -0.017   0.174
    1UNL    C18   27   0.337  -0.064   0.222
    1UNL    C19   28   0.292  -0.195   0.187
    1UNL    C20   29   0.170  -0.239   0.222
    1UNL    C21   30   0.092  -0.153   0.297
    1UNL    O10   31  -0.036  -0.198   0.330
    1UNL    C22   32   0.136  -0.025   0.335
    1UNL    C23   33   0.253   0.022   0.290
    1UNL    C24   34   0.189   0.269  -0.096
    1UNL    C25   35   0.039   0.218  -0.078
    1UNL    O11   36   0.037   0.074  -0.085
    1UNL     H1   37  -0.196   0.448  -0.108
    1UNL     H2   38  -0.270   0.264  -0.234
    1UNL     H3   39  -0.142   0.063  -0.064
    1UNL     H4   40  -0.448  -0.072  -0.025
    1UNL     H5   41  -0.179  -0.109   0.233
    1UNL     H6   42  -0.487  -0.162   0.226
    1UNL     H7   43  -0.405  -0.029   0.309
    1UNL     H8   44  -0.330  -0.288   0.361
    1UNL     H9   45  -0.357  -0.311   0.091
    1UNL    H10   46  -0.185  -0.444   0.151
    1UNL    H11   47  -0.071  -0.198   0.001
    1UNL    H12   48  -0.197  -0.416  -0.133
    1UNL    H13   49  -0.208  -0.141  -0.201
    1UNL    H14   50  -0.421  -0.300  -0.098
    1UNL    H15   51  -0.071   0.327  -0.386
    1UNL    H16   52   0.056   0.423  -0.312
    1UNL    H17   53   0.150   0.211  -0.449
    1UNL    H18   54   0.085   0.114  -0.323
    1UNL    H19   55   0.306   0.328  -0.277
    1UNL    H20   56   0.375   0.110  -0.348
    1UNL    H21   57   0.269   0.032  -0.239
    1UNL    H22   58   0.609   0.062   0.041
    1UNL    H23   59   0.545  -0.016   0.255
    1UNL    H24   60   0.354  -0.254   0.121
    1UNL    H25   61   0.129  -0.334   0.183
    1UNL    H26   62  -0.052  -0.285   0.292
    1UNL    H27   63   0.075   0.028   0.403
    1UNL    H28   64   0.289   0.124   0.304
    1UNL    H29   65   0.193   0.378  -0.075
    1UNL    H30   66   0.254   0.232  -0.027
    1UNL    H31   67   0.009   0.234   0.027
    1UNL    H32   68   0.125   0.034  -0.084
   0.00000   0.00000   0.00000   0.00000   0.00000   0.00000   0.00000   0.00000   0.00000
Generated with MDTraj, t= 67.0
 68
    1UNL     O1    1   0.005   0.461  -0.017
    1UNL     C1    2  -0.082   0.391  -0.060
    1UNL     C2    3  -0.051   0.281  -0.154
    1UNL     C3    4  -0.183   0.208  -0.192
    1UNL     C4    5  -0.246   0.136  -0.101
    1UNL     O2    6  -0.358   0.054  -0.123
    1UNL     C5    7  -0.353  -0.070  -0.050
    1UNL     O3    8  -0.314  -0.041   0.088
    1UNL     C6    9  -0.295  -0.145   0.182
    1UNL     C7   10  -0.408  -0.132   0.285
    1UNL     O4   11  -0.397  -0.228   0.394
    1UNL     C8   12  -0.289  -0.286   0.118
    1UNL     O5   13  -0.235  -0.374   0.211
    1UNL     C9   14  -0.194  -0.272  -0.008
    1UNL     O6   15  -0.168  -0.402  -0.056
    1UNL    C10   16  -0.253  -0.171  -0.114
    1UNL     O7   17  -0.321  -0.221  -0.232
    1UNL    C11   18   0.023   0.343  -0.285
    1UNL    C12   19   0.128   0.246  -0.341
    1UNL    C13   20   0.248   0.227  -0.243
    1UNL    C14   21   0.328   0.096  -0.264
    1UNL     O8   22   0.445   0.094  -0.179
    1UNL    C15   23   0.412   0.028  -0.060
    1UNL     O9   24   0.304  -0.027  -0.053
    1UNL    C16   25   0.507   0.041   0.049
    1UNL    C17   26   0.489   0.012   0.178
    1UNL    C18   27   0.357  -0.037   0.223
    1UNL    C19   28   0.330  -0.172   0.216
    1UNL    C20   29   0.201  -0.216   0.251
    1UNL    C21   30   0.100  -0.128   0.296
    1UNL    O10   31  -0.024  -0.178   0.333
    1UNL    C22   32   0.129   0.008   0.292
    1UNL    C23   33   0.247   0.055   0.252
    1UNL    C24   34   0.201   0.248  -0.103
    1UNL    C25   35   0.054   0.192  -0.081
    1UNL    O11   36   0.036   0.056  -0.128
    1UNL     H1   37  -0.178   0.422  -0.022
    1UNL     H2   38  -0.213   0.226  -0.296
    1UNL     H3   39  -0.192   0.129  -0.004
    1UNL     H4   40  -0.451  -0.123  -0.058
    1UNL     H5   41  -0.199  -0.130   0.236
    1UNL     H6   42  -0.499  -0.141   0.221
    1UNL     H7   43  -0.398  -0.037   0.328
    1UNL     H8   44  -0.325  -0.297   0.361
    1UNL     H9   45  -0.395  -0.317   0.093
    1UNL    H10   46  -0.176  -0.433   0.160
    1UNL    H11   47  -0.091  -0.234   0.029
    1UNL    H12   48  -0.240  -0.421  -0.119
    1UNL    H13   49  -0.171  -0.105  -0.157
    1UNL    H14   50  -0.294  -0.167  -0.310
    1UNL    H15   51  -0.050   0.380  -0.364
    1UNL    H16   52   0.070   0.438  -0.249
    1UNL    H17   53   0.158   0.265  -0.444
    1UNL    H18   54   0.069   0.149  -0.352
    1UNL    H19   55   0.320   0.313  -0.272
    1UNL    H20   56   0.360   0.091  -0.364
    1UNL    H21   57   0.266   0.009  -0.236
    1UNL    H22   58   0.595   0.086   0.021
    1UNL    H23   59   0.566   0.040   0.244
    1UNL    H24   60   0.398  -0.243   0.170
    1UNL    H25   61   0.170  -0.315   0.237
    1UNL    H26   62  -0.007  -0.272   0.341
    1UNL    H27   63   0.056   0.070   0.350
    1UNL    H28   64   0.266   0.161   0.237
    1UNL    H29   65   0.204   0.355  -0.075
    1UNL    H30   66   0.278   0.208  -0.039
    1UNL    H31   67   0.028   0.177   0.027
    1UNL    H32   68   0.117   0.012  -0.091
   0.00000   0.00000   0.00000   0.00000   0.00000   0.00000   0.00000   0.00000   0.00000
Generated with MDTraj, t= 68.0
 68
    1UNL     O1    1   0.019   0.436   0.003
    1UNL     C1    2  -0.077   0.379  -0.043
    1UNL     C2    3  -0.057   0.278  -0.150
    1UNL     C3    4  -0.175   0.196  -0.190
    1UNL     C4    5  -0.237   0.120  -0.097
    1UNL     O2    6  -0.351   0.047  -0.125
    1UNL     C5    7  -0.341  -0.072  -0.043
    1UNL     O3    8  -0.333  -0.035   0.099
    1UNL     C6    9  -0.305  -0.143   0.187
    1UNL     C7   10  -0.427  -0.146   0.289
    1UNL     O4   11  -0.414  -0.252   0.382
    1UNL     C8   12  -0.293  -0.286   0.122
    1UNL     O5   13  -0.264  -0.394   0.214
    1UNL     C9   14  -0.200  -0.287  -0.001
    1UNL     O6   15  -0.222  -0.407  -0.069
    1UNL    C10   16  -0.226  -0.162  -0.094
    1UNL     O7   17  -0.261  -0.188  -0.229
    1UNL    C11   18   0.021   0.349  -0.272
    1UNL    C12   19   0.132   0.265  -0.338
    1UNL    C13   20   0.252   0.237  -0.239
    1UNL    C14   21   0.326   0.106  -0.273
    1UNL     O8   22   0.438   0.091  -0.192
    1UNL    C15   23   0.402   0.019  -0.084
    1UNL     O9   24   0.303  -0.049  -0.067
    1UNL    C16   25   0.498   0.044   0.027
    1UNL    C17   26   0.485   0.016   0.159
    1UNL    C18   27   0.361  -0.020   0.219
    1UNL    C19   28   0.341  -0.154   0.264
    1UNL    C20   29   0.217  -0.194   0.297
    1UNL    C21   30   0.108  -0.113   0.286
    1UNL    O10   31  -0.019  -0.150   0.318
    1UNL    C22   32   0.131   0.030   0.270
    1UNL    C23   33   0.255   0.072   0.230
    1UNL    C24   34   0.198   0.231  -0.095
    1UNL    C25   35   0.051   0.177  -0.089
    1UNL    O11   36   0.046   0.051  -0.144
    1UNL     H1   37  -0.180   0.422  -0.034
    1UNL     H2   38  -0.195   0.211  -0.294
    1UNL     H3   39  -0.201   0.122   0.004
    1UNL     H4   40  -0.438  -0.127  -0.060
    1UNL     H5   41  -0.209  -0.121   0.238
    1UNL     H6   42  -0.521  -0.172   0.232
    1UNL     H7   43  -0.430  -0.051   0.335
    1UNL     H8   44  -0.376  -0.327   0.331
    1UNL     H9   45  -0.393  -0.305   0.076
    1UNL    H10   46  -0.246  -0.472   0.156
    1UNL    H11   47  -0.090  -0.291   0.031
    1UNL    H12   48  -0.180  -0.397  -0.154
    1UNL    H13   49  -0.131  -0.095  -0.095
    1UNL    H14   50  -0.255  -0.107  -0.283
    1UNL    H15   51  -0.053   0.379  -0.351
    1UNL    H16   52   0.066   0.447  -0.241
    1UNL    H17   53   0.166   0.313  -0.428
    1UNL    H18   54   0.084   0.166  -0.376
    1UNL    H19   55   0.328   0.326  -0.246
    1UNL    H20   56   0.367   0.104  -0.371
    1UNL    H21   57   0.266   0.018  -0.251
    1UNL    H22   58   0.601   0.065  -0.018
    1UNL    H23   59   0.577   0.011   0.220
    1UNL    H24   60   0.419  -0.226   0.252
    1UNL    H25   61   0.192  -0.301   0.309
    1UNL    H26   62  -0.020  -0.240   0.354
    1UNL    H27   63   0.054   0.102   0.277
    1UNL    H28   64   0.280   0.178   0.235
    1UNL    H29   65   0.198   0.333  -0.058
    1UNL    H30   66   0.273   0.172  -0.029
    1UNL    H31   67   0.021   0.154   0.017
    1UNL    H32   68   0.125  -0.004  -0.122
   0.00000   0.00000   0.00000   0.00000   0.00000   0.00000   0.00000   0.00000   0.00000
Generated with MDTraj, t= 69.0
 68
    1UNL     O1    1  -0.015   0.428   0.031
    1UNL     C1    2  -0.085   0.393  -0.055
    1UNL     C2    3  -0.054   0.285  -0.148
    1UNL     C3    4  -0.172   0.202  -0.174
    1UNL     C4    5  -0.229   0.116  -0.089
    1UNL     O2    6  -0.327   0.031  -0.122
    1UNL     C5    7  -0.326  -0.080  -0.031
    1UNL     O3    8  -0.326  -0.043   0.108
    1UNL     C6    9  -0.314  -0.156   0.192
    1UNL     C7   10  -0.441  -0.156   0.281
    1UNL     O4   11  -0.433  -0.241   0.385
    1UNL     C8   12  -0.298  -0.289   0.121
    1UNL     O5   13  -0.309  -0.412   0.198
    1UNL     C9   14  -0.195  -0.300   0.005
    1UNL     O6   15  -0.244  -0.401  -0.084
    1UNL    C10   16  -0.203  -0.160  -0.073
    1UNL     O7   17  -0.208  -0.178  -0.213
    1UNL    C11   18   0.013   0.343  -0.280
    1UNL    C12   19   0.117   0.245  -0.338
    1UNL    C13   20   0.238   0.230  -0.242
    1UNL    C14   21   0.335   0.115  -0.282
    1UNL     O8   22   0.443   0.117  -0.193
    1UNL    C15   23   0.422   0.023  -0.086
    1UNL     O9   24   0.325  -0.050  -0.083
    1UNL    C16   25   0.528   0.018   0.017
    1UNL    C17   26   0.494  -0.016   0.146
    1UNL    C18   27   0.358  -0.034   0.196
    1UNL    C19   28   0.328  -0.147   0.267
    1UNL    C20   29   0.210  -0.183   0.312
    1UNL    C21   30   0.102  -0.089   0.296
    1UNL    O10   31  -0.025  -0.116   0.345
    1UNL    C22   32   0.126   0.025   0.221
    1UNL    C23   33   0.257   0.063   0.186
    1UNL    C24   34   0.194   0.251  -0.094
    1UNL    C25   35   0.057   0.190  -0.080
    1UNL    O11   36   0.051   0.060  -0.126
    1UNL     H1   37  -0.184   0.432  -0.056
    1UNL     H2   38  -0.216   0.202  -0.272
    1UNL     H3   39  -0.183   0.104   0.006
    1UNL     H4   40  -0.423  -0.134  -0.054
    1UNL     H5   41  -0.220  -0.141   0.246
    1UNL     H6   42  -0.529  -0.196   0.218
    1UNL     H7   43  -0.459  -0.057   0.321
    1UNL     H8   44  -0.371  -0.311   0.364
    1UNL     H9   45  -0.395  -0.295   0.070
    1UNL    H10   46  -0.303  -0.486   0.135
    1UNL    H11   47  -0.098  -0.333   0.051
    1UNL    H12   48  -0.217  -0.377  -0.178
    1UNL    H13   49  -0.104  -0.105  -0.049
    1UNL    H14   50  -0.211  -0.090  -0.260
    1UNL    H15   51  -0.065   0.368  -0.358
    1UNL    H16   52   0.071   0.438  -0.259
    1UNL    H17   53   0.152   0.275  -0.437
    1UNL    H18   54   0.067   0.142  -0.352
    1UNL    H19   55   0.300   0.328  -0.258
    1UNL    H20   56   0.379   0.121  -0.377
    1UNL    H21   57   0.295   0.017  -0.263
    1UNL    H22   58   0.626   0.041  -0.006
    1UNL    H23   59   0.569  -0.045   0.215
    1UNL    H24   60   0.405  -0.226   0.255
    1UNL    H25   61   0.184  -0.275   0.355
    1UNL    H26   62  -0.023  -0.205   0.389
    1UNL    H27   63   0.047   0.100   0.227
    1UNL    H28   64   0.284   0.162   0.162
    1UNL    H29   65   0.197   0.357  -0.066
    1UNL    H30   66   0.275   0.195  -0.036
    1UNL    H31   67   0.031   0.188   0.028
    1UNL    H32   68   0.138   0.023  -0.106
   0.00000   0.00000   0.00000   0.00000   0.00000   0.00000   0.00000   0.00000   0.00000
Generated with MDTraj, t= 70.0
 68
    1UNL     O1    1  -0.031   0.440   0.022
    1UNL     C1    2  -0.091   0.417  -0.078
    1UNL     C2    3  -0.048   0.299  -0.157
    1UNL     C3    4  -0.161   0.204  -0.181
    1UNL     C4    5  -0.211   0.121  -0.087
    1UNL     O2    6  -0.302   0.028  -0.125
    1UNL     C5    7  -0.320  -0.092  -0.039
    1UNL     O3    8  -0.351  -0.061   0.102
    1UNL     C6    9  -0.324  -0.171   0.196
    1UNL     C7   10  -0.431  -0.150   0.309
    1UNL     O4   11  -0.455  -0.253   0.399
    1UNL     C8   12  -0.328  -0.307   0.123
    1UNL     O5   13  -0.325  -0.428   0.201
    1UNL     C9   14  -0.219  -0.318   0.016
    1UNL     O6   15  -0.237  -0.420  -0.081
    1UNL    C10   16  -0.200  -0.179  -0.057
    1UNL     O7   17  -0.173  -0.194  -0.195
    1UNL    C11   18   0.015   0.349  -0.292
    1UNL    C12   19   0.124   0.261  -0.362
    1UNL    C13   20   0.249   0.256  -0.270
    1UNL    C14   21   0.343   0.139  -0.288
    1UNL     O8   22   0.446   0.135  -0.187
    1UNL    C15   23   0.416   0.040  -0.096
    1UNL     O9   24   0.318  -0.024  -0.099
    1UNL    C16   25   0.516   0.002   0.009
    1UNL    C17   26   0.489  -0.059   0.127
    1UNL    C18   27   0.360  -0.065   0.192
    1UNL    C19   28   0.316  -0.185   0.258
    1UNL    C20   29   0.195  -0.189   0.324
    1UNL    C21   30   0.099  -0.084   0.310
    1UNL    O10   31  -0.030  -0.101   0.366
    1UNL    C22   32   0.138   0.033   0.241
    1UNL    C23   33   0.265   0.037   0.192
    1UNL    C24   34   0.209   0.278  -0.119
    1UNL    C25   35   0.064   0.227  -0.084
    1UNL    O11   36   0.059   0.087  -0.088
    1UNL     H1   37  -0.182   0.469  -0.104
    1UNL     H2   38  -0.204   0.179  -0.280
    1UNL     H3   39  -0.180   0.117   0.018
    1UNL     H4   40  -0.410  -0.145  -0.086
    1UNL     H5   41  -0.227  -0.148   0.236
    1UNL     H6   42  -0.531  -0.135   0.251
    1UNL     H7   43  -0.410  -0.062   0.370
    1UNL     H8   44  -0.433  -0.343   0.349
    1UNL     H9   45  -0.423  -0.305   0.075
    1UNL    H10   46  -0.338  -0.506   0.145
    1UNL    H11   47  -0.122  -0.337   0.062
    1UNL    H12   48  -0.198  -0.382  -0.160
    1UNL    H13   49  -0.109  -0.125  -0.010
    1UNL    H14   50  -0.124  -0.112  -0.221
    1UNL    H15   51  -0.061   0.369  -0.372
    1UNL    H16   52   0.069   0.444  -0.262
    1UNL    H17   53   0.145   0.299  -0.463
    1UNL    H18   54   0.079   0.158  -0.380
    1UNL    H19   55   0.304   0.357  -0.301
    1UNL    H20   56   0.391   0.147  -0.382
    1UNL    H21   57   0.295   0.043  -0.282
    1UNL    H22   58   0.624   0.013  -0.011
    1UNL    H23   59   0.573  -0.112   0.175
    1UNL    H24   60   0.392  -0.257   0.259
    1UNL    H25   61   0.157  -0.293   0.337
    1UNL    H26   62  -0.036  -0.194   0.404
    1UNL    H27   63   0.073   0.118   0.230
    1UNL    H28   64   0.301   0.141   0.165
    1UNL    H29   65   0.233   0.384  -0.093
    1UNL    H30   66   0.276   0.218  -0.063
    1UNL    H31   67   0.048   0.258   0.021
    1UNL    H32   68   0.152   0.044  -0.088
   0.00000   0.00000   0.00000   0.00000   0.00000   0.00000   0.00000   0.00000   0.00000
Generated with MDTraj, t= 71.0
 68
    1UNL     O1    1  -0.050   0.492  -0.017
    1UNL     C1    2  -0.112   0.420  -0.092
    1UNL     C2    3  -0.054   0.302  -0.163
    1UNL     C3    4  -0.161   0.209  -0.183
    1UNL     C4    5  -0.186   0.094  -0.114
    1UNL     O2    6  -0.291   0.012  -0.139
    1UNL     C5    7  -0.306  -0.088  -0.037
    1UNL     O3    8  -0.328  -0.044   0.104
    1UNL     C6    9  -0.333  -0.167   0.197
    1UNL     C7   10  -0.455  -0.162   0.296
    1UNL     O4   11  -0.430  -0.250   0.411
    1UNL     C8   12  -0.341  -0.301   0.118
    1UNL     O5   13  -0.338  -0.409   0.207
    1UNL     C9   14  -0.218  -0.320   0.024
    1UNL     O6   15  -0.252  -0.417  -0.072
    1UNL    C10   16  -0.185  -0.182  -0.043
    1UNL     O7   17  -0.129  -0.210  -0.167
    1UNL    C11   18   0.004   0.362  -0.298
    1UNL    C12   19   0.126   0.273  -0.337
    1UNL    C13   20   0.250   0.275  -0.249
    1UNL    C14   21   0.334   0.149  -0.264
    1UNL     O8   22   0.439   0.134  -0.170
    1UNL    C15   23   0.408   0.021  -0.093
    1UNL     O9   24   0.310  -0.041  -0.102
    1UNL    C16   25   0.511  -0.010   0.001
    1UNL    C17   26   0.488  -0.064   0.123
    1UNL    C18   27   0.352  -0.084   0.178
    1UNL    C19   28   0.312  -0.200   0.238
    1UNL    C20   29   0.183  -0.209   0.299
    1UNL    C21   30   0.100  -0.095   0.310
    1UNL    O10   31  -0.011  -0.109   0.383
    1UNL    C22   32   0.144   0.022   0.241
    1UNL    C23   33   0.268   0.029   0.187
    1UNL    C24   34   0.207   0.303  -0.102
    1UNL    C25   35   0.064   0.237  -0.083
    1UNL    O11   36   0.062   0.098  -0.111
    1UNL     H1   37  -0.221   0.441  -0.102
    1UNL     H2   38  -0.234   0.223  -0.257
    1UNL     H3   39  -0.132   0.064  -0.023
    1UNL     H4   40  -0.399  -0.146  -0.072
    1UNL     H5   41  -0.244  -0.162   0.255
    1UNL     H6   42  -0.554  -0.202   0.249
    1UNL     H7   43  -0.475  -0.060   0.331
    1UNL     H8   44  -0.372  -0.326   0.379
    1UNL     H9   45  -0.430  -0.313   0.062
    1UNL    H10   46  -0.352  -0.493   0.159
    1UNL    H11   47  -0.135  -0.355   0.080
    1UNL    H12   48  -0.184  -0.413  -0.147
    1UNL    H13   49  -0.109  -0.137   0.028
    1UNL    H14   50  -0.173  -0.150  -0.230
    1UNL    H15   51  -0.078   0.357  -0.376
    1UNL    H16   52   0.045   0.467  -0.290
    1UNL    H17   53   0.154   0.305  -0.440
    1UNL    H18   54   0.088   0.169  -0.351
    1UNL    H19   55   0.326   0.363  -0.277
    1UNL    H20   56   0.382   0.145  -0.359
    1UNL    H21   57   0.267   0.065  -0.260
    1UNL    H22   58   0.614   0.003  -0.032
    1UNL    H23   59   0.575  -0.091   0.181
    1UNL    H24   60   0.367  -0.293   0.229
    1UNL    H25   61   0.160  -0.300   0.346
    1UNL    H26   62  -0.012  -0.190   0.444
    1UNL    H27   63   0.086   0.109   0.265
    1UNL    H28   64   0.317   0.120   0.170
    1UNL    H29   65   0.203   0.415  -0.085
    1UNL    H30   66   0.274   0.267  -0.033
    1UNL    H31   67   0.042   0.259   0.022
    1UNL    H32   68   0.150   0.051  -0.110
   0.00000   0.00000   0.00000   0.00000   0.00000   0.00000   0.00000   0.00000   0.00000
Generated with MDTraj, t= 72.0
 68
    1UNL     O1    1  -0.036   0.514  -0.073
    1UNL     C1    2  -0.094   0.412  -0.059
    1UNL     C2    3  -0.060   0.294  -0.150
    1UNL     C3    4  -0.178   0.203  -0.179
    1UNL     C4    5  -0.234   0.112  -0.102
    1UNL     O2    6  -0.299   0.002  -0.152
    1UNL     C5    7  -0.303  -0.098  -0.056
    1UNL     O3    8  -0.332  -0.046   0.076
    1UNL     C6    9  -0.325  -0.152   0.185
    1UNL     C7   10  -0.429  -0.117   0.294
    1UNL     O4   11  -0.426  -0.214   0.406
    1UNL     C8   12  -0.337  -0.294   0.128
    1UNL     O5   13  -0.319  -0.390   0.221
    1UNL     C9   14  -0.221  -0.322   0.024
    1UNL     O6   15  -0.244  -0.421  -0.076
    1UNL    C10   16  -0.176  -0.186  -0.039
    1UNL     O7   17  -0.093  -0.215  -0.151
    1UNL    C11   18  -0.005   0.350  -0.288
    1UNL    C12   19   0.120   0.276  -0.340
    1UNL    C13   20   0.236   0.290  -0.240
    1UNL    C14   21   0.325   0.168  -0.257
    1UNL     O8   22   0.422   0.150  -0.155
    1UNL    C15   23   0.398   0.031  -0.087
    1UNL     O9   24   0.305  -0.037  -0.104
    1UNL    C16   25   0.509  -0.005   0.014
    1UNL    C17   26   0.489  -0.080   0.126
    1UNL    C18   27   0.361  -0.092   0.186
    1UNL    C19   28   0.315  -0.218   0.238
    1UNL    C20   29   0.190  -0.226   0.293
    1UNL    C21   30   0.110  -0.119   0.300
    1UNL    O10   31  -0.021  -0.133   0.352
    1UNL    C22   32   0.152   0.004   0.253
    1UNL    C23   33   0.272   0.019   0.190
    1UNL    C24   34   0.189   0.287  -0.091
    1UNL    C25   35   0.054   0.218  -0.081
    1UNL    O11   36   0.054   0.086  -0.117
    1UNL     H1   37  -0.174   0.416   0.011
    1UNL     H2   38  -0.197   0.177  -0.286
    1UNL     H3   39  -0.226   0.112   0.004
    1UNL     H4   40  -0.388  -0.165  -0.098
    1UNL     H5   41  -0.227  -0.144   0.229
    1UNL     H6   42  -0.535  -0.108   0.246
    1UNL     H7   43  -0.412  -0.021   0.341
    1UNL     H8   44  -0.393  -0.297   0.375
    1UNL     H9   45  -0.433  -0.311   0.085
    1UNL    H10   46  -0.320  -0.478   0.177
    1UNL    H11   47  -0.142  -0.356   0.085
    1UNL    H12   48  -0.166  -0.425  -0.131
    1UNL    H13   49  -0.113  -0.135   0.036
    1UNL    H14   50  -0.083  -0.130  -0.199
    1UNL    H15   51  -0.080   0.352  -0.371
    1UNL    H16   52   0.013   0.458  -0.260
    1UNL    H17   53   0.150   0.312  -0.443
    1UNL    H18   54   0.094   0.171  -0.361
    1UNL    H19   55   0.304   0.389  -0.247
    1UNL    H20   56   0.368   0.173  -0.358
    1UNL    H21   57   0.263   0.082  -0.258
    1UNL    H22   58   0.602   0.037  -0.006
    1UNL    H23   59   0.572  -0.097   0.193
    1UNL    H24   60   0.372  -0.308   0.225
    1UNL    H25   61   0.163  -0.326   0.334
    1UNL    H26   62  -0.040  -0.207   0.415
    1UNL    H27   63   0.082   0.085   0.275
    1UNL    H28   64   0.309   0.120   0.162
    1UNL    H29   65   0.185   0.387  -0.044
    1UNL    H30   66   0.254   0.230  -0.030
    1UNL    H31   67   0.029   0.209   0.025
    1UNL    H32   68   0.141   0.048  -0.085
   0.00000   0.00000   0.00000   0.00000   0.00000   0.00000   0.00000   0.00000   0.00000
Generated with MDTraj, t= 73.0
 68
    1UNL     O1    1  -0.070   0.510  -0.045
    1UNL     C1    2  -0.115   0.402  -0.064
    1UNL     C2    3  -0.063   0.293  -0.163
    1UNL     C3    4  -0.184   0.207  -0.207
    1UNL     C4    5  -0.221   0.100  -0.135
    1UNL     O2    6  -0.315  -0.003  -0.159
    1UNL     C5    7  -0.312  -0.098  -0.051
    1UNL     O3    8  -0.366  -0.050   0.078
    1UNL     C6    9  -0.336  -0.144   0.188
    1UNL     C7   10  -0.445  -0.121   0.299
    1UNL     O4   11  -0.411  -0.169   0.426
    1UNL     C8   12  -0.312  -0.294   0.145
    1UNL     O5   13  -0.276  -0.369   0.257
    1UNL     C9   14  -0.202  -0.304   0.033
    1UNL     O6   15  -0.235  -0.399  -0.064
    1UNL    C10   16  -0.170  -0.171  -0.036
    1UNL     O7   17  -0.106  -0.189  -0.164
    1UNL    C11   18   0.006   0.359  -0.286
    1UNL    C12   19   0.129   0.281  -0.329
    1UNL    C13   20   0.249   0.272  -0.231
    1UNL    C14   21   0.348   0.163  -0.263
    1UNL     O8   22   0.454   0.147  -0.169
    1UNL    C15   23   0.413   0.045  -0.076
    1UNL     O9   24   0.310  -0.009  -0.070
    1UNL    C16   25   0.516  -0.004   0.021
    1UNL    C17   26   0.489  -0.069   0.136
    1UNL    C18   27   0.349  -0.095   0.194
    1UNL    C19   28   0.319  -0.227   0.232
    1UNL    C20   29   0.195  -0.248   0.283
    1UNL    C21   30   0.093  -0.145   0.278
    1UNL    O10   31  -0.030  -0.177   0.311
    1UNL    C22   32   0.128  -0.016   0.242
    1UNL    C23   33   0.258   0.009   0.192
    1UNL    C24   34   0.192   0.265  -0.085
    1UNL    C25   35   0.043   0.206  -0.082
    1UNL    O11   36   0.040   0.078  -0.141
    1UNL     H1   37  -0.206   0.377  -0.011
    1UNL     H2   38  -0.231   0.238  -0.295
    1UNL     H3   39  -0.163   0.079  -0.047
    1UNL     H4   40  -0.389  -0.174  -0.092
    1UNL     H5   41  -0.240  -0.110   0.227
    1UNL     H6   42  -0.544  -0.174   0.273
    1UNL     H7   43  -0.475  -0.017   0.303
    1UNL     H8   44  -0.369  -0.265   0.417
    1UNL     H9   45  -0.403  -0.331   0.103
    1UNL    H10   46  -0.250  -0.462   0.233
    1UNL    H11   47  -0.108  -0.328   0.077
    1UNL    H12   48  -0.158  -0.392  -0.129
    1UNL    H13   49  -0.104  -0.104   0.017
    1UNL    H14   50  -0.139  -0.115  -0.221
    1UNL    H15   51  -0.074   0.362  -0.365
    1UNL    H16   52   0.023   0.470  -0.270
    1UNL    H17   53   0.171   0.330  -0.423
    1UNL    H18   54   0.104   0.182  -0.364
    1UNL    H19   55   0.310   0.374  -0.235
    1UNL    H20   56   0.401   0.190  -0.359
    1UNL    H21   57   0.300   0.067  -0.284
    1UNL    H22   58   0.622  -0.003  -0.020
    1UNL    H23   59   0.569  -0.121   0.187
    1UNL    H24   60   0.401  -0.298   0.233
    1UNL    H25   61   0.164  -0.344   0.312
    1UNL    H26   62  -0.035  -0.274   0.314
    1UNL    H27   63   0.054   0.059   0.252
    1UNL    H28   64   0.274   0.109   0.161
    1UNL    H29   65   0.196   0.356  -0.025
    1UNL    H30   66   0.261   0.198  -0.024
    1UNL    H31   67   0.010   0.193   0.022
    1UNL    H32   68   0.129   0.036  -0.129
   0.00000   0.00000   0.00000   0.00000   0.00000   0.00000   0.00000   0.00000   0.00000
Generated with MDTraj, t= 74.0
 68
    1UNL     O1    1  -0.051   0.460  -0.015
    1UNL     C1    2  -0.120   0.389  -0.084
    1UNL     C2    3  -0.057   0.274  -0.167
    1UNL     C3    4  -0.157   0.163  -0.213
    1UNL     C4    5  -0.241   0.106  -0.129
    1UNL     O2    6  -0.335   0.011  -0.157
    1UNL     C5    7  -0.324  -0.094  -0.059
    1UNL     O3    8  -0.379  -0.057   0.071
    1UNL     C6    9  -0.327  -0.119   0.191
    1UNL     C7   10  -0.434  -0.111   0.307
    1UNL     O4   11  -0.384  -0.162   0.423
    1UNL     C8   12  -0.289  -0.261   0.155
    1UNL     O5   13  -0.260  -0.346   0.268
    1UNL     C9   14  -0.180  -0.278   0.042
    1UNL     O6   15  -0.220  -0.396  -0.030
    1UNL    C10   16  -0.178  -0.148  -0.046
    1UNL     O7   17  -0.123  -0.165  -0.172
    1UNL    C11   18  -0.006   0.344  -0.293
    1UNL    C12   19   0.129   0.291  -0.344
    1UNL    C13   20   0.240   0.282  -0.231
    1UNL    C14   21   0.335   0.165  -0.247
    1UNL     O8   22   0.432   0.153  -0.137
    1UNL    C15   23   0.405   0.040  -0.059
    1UNL     O9   24   0.318  -0.036  -0.075
    1UNL    C16   25   0.509   0.023   0.046
    1UNL    C17   26   0.484  -0.050   0.151
    1UNL    C18   27   0.350  -0.089   0.186
    1UNL    C19   28   0.317  -0.218   0.214
    1UNL    C20   29   0.189  -0.266   0.238
    1UNL    C21   30   0.087  -0.171   0.247
    1UNL    O10   31  -0.044  -0.205   0.282
    1UNL    C22   32   0.111  -0.042   0.217
    1UNL    C23   33   0.240   0.002   0.195
    1UNL    C24   34   0.186   0.277  -0.087
    1UNL    C25   35   0.053   0.199  -0.082
    1UNL    O11   36   0.075   0.068  -0.133
    1UNL     H1   37  -0.230   0.393  -0.066
    1UNL     H2   38  -0.151   0.149  -0.324
    1UNL     H3   39  -0.234   0.140  -0.023
    1UNL     H4   40  -0.380  -0.183  -0.107
    1UNL     H5   41  -0.233  -0.069   0.220
    1UNL     H6   42  -0.526  -0.173   0.278
    1UNL     H7   43  -0.475  -0.015   0.318
    1UNL     H8   44  -0.320  -0.228   0.394
    1UNL     H9   45  -0.376  -0.311   0.110
    1UNL    H10   46  -0.232  -0.434   0.235
    1UNL    H11   47  -0.093  -0.302   0.101
    1UNL    H12   48  -0.183  -0.404  -0.117
    1UNL    H13   49  -0.111  -0.082  -0.000
    1UNL    H14   50  -0.105  -0.081  -0.217
    1UNL    H15   51  -0.086   0.340  -0.372
    1UNL    H16   52  -0.001   0.456  -0.276
    1UNL    H17   53   0.166   0.346  -0.437
    1UNL    H18   54   0.116   0.190  -0.375
    1UNL    H19   55   0.300   0.381  -0.242
    1UNL    H20   56   0.397   0.177  -0.344
    1UNL    H21   57   0.284   0.069  -0.260
    1UNL    H22   58   0.598   0.075   0.041
    1UNL    H23   59   0.563  -0.084   0.216
    1UNL    H24   60   0.399  -0.285   0.216
    1UNL    H25   61   0.170  -0.365   0.281
    1UNL    H26   62  -0.050  -0.296   0.308
    1UNL    H27   63   0.042   0.045   0.229
    1UNL    H28   64   0.255   0.108   0.183
    1UNL    H29   65   0.183   0.371  -0.035
    1UNL    H30   66   0.257   0.213  -0.018
    1UNL    H31   67   0.009   0.181   0.018
    1UNL    H32   68   0.149   0.015  -0.096
   0.00000   0.00000   0.00000   0.00000   0.00000   0.00000   0.00000   0.00000   0.00000
Generated with MDTraj, t= 75.0
 68
    1UNL     O1    1  -0.060   0.427   0.018
    1UNL     C1    2  -0.111   0.395  -0.086
    1UNL     C2    3  -0.064   0.278  -0.176
    1UNL     C3    4  -0.173   0.178  -0.220
    1UNL     C4    5  -0.243   0.113  -0.128
    1UNL     O2    6  -0.332   0.013  -0.152
    1UNL     C5    7  -0.320  -0.086  -0.049
    1UNL     O3    8  -0.365  -0.037   0.082
    1UNL     C6    9  -0.319  -0.124   0.185
    1UNL     C7   10  -0.411  -0.097   0.304
    1UNL     O4   11  -0.362  -0.151   0.423
    1UNL     C8   12  -0.316  -0.268   0.143
    1UNL     O5   13  -0.313  -0.369   0.249
    1UNL     C9   14  -0.197  -0.285   0.046
    1UNL     O6   15  -0.205  -0.411  -0.026
    1UNL    C10   16  -0.185  -0.153  -0.047
    1UNL     O7   17  -0.123  -0.168  -0.172
    1UNL    C11   18  -0.003   0.342  -0.302
    1UNL    C12   19   0.127   0.262  -0.338
    1UNL    C13   20   0.237   0.269  -0.223
    1UNL    C14   21   0.361   0.184  -0.258
    1UNL     O8   22   0.441   0.174  -0.137
    1UNL    C15   23   0.429   0.052  -0.069
    1UNL     O9   24   0.352  -0.032  -0.095
    1UNL    C16   25   0.520   0.038   0.046
    1UNL    C17   26   0.482  -0.036   0.153
    1UNL    C18   27   0.340  -0.083   0.187
    1UNL    C19   28   0.315  -0.217   0.205
    1UNL    C20   29   0.189  -0.265   0.239
    1UNL    C21   30   0.088  -0.175   0.258
    1UNL    O10   31  -0.044  -0.208   0.295
    1UNL    C22   32   0.109  -0.027   0.237
    1UNL    C23   33   0.241   0.010   0.201
    1UNL    C24   34   0.174   0.249  -0.080
    1UNL    C25   35   0.037   0.186  -0.089
    1UNL    O11   36   0.054   0.055  -0.147
    1UNL     H1   37  -0.195   0.453  -0.114
    1UNL     H2   38  -0.184   0.156  -0.322
    1UNL     H3   39  -0.225   0.143  -0.026
    1UNL     H4   40  -0.407  -0.155  -0.083
    1UNL     H5   41  -0.213  -0.100   0.213
    1UNL     H6   42  -0.517  -0.123   0.279
    1UNL     H7   43  -0.419   0.006   0.313
    1UNL     H8   44  -0.340  -0.239   0.404
    1UNL     H9   45  -0.409  -0.285   0.082
    1UNL    H10   46  -0.312  -0.455   0.205
    1UNL    H11   47  -0.110  -0.289   0.109
    1UNL    H12   48  -0.201  -0.396  -0.126
    1UNL    H13   49  -0.122  -0.084  -0.003
    1UNL    H14   50  -0.097  -0.080  -0.212
    1UNL    H15   51  -0.075   0.358  -0.386
    1UNL    H16   52   0.033   0.445  -0.274
    1UNL    H17   53   0.176   0.301  -0.433
    1UNL    H18   54   0.099   0.159  -0.354
    1UNL    H19   55   0.278   0.375  -0.230
    1UNL    H20   56   0.427   0.231  -0.343
    1UNL    H21   57   0.344   0.078  -0.286
    1UNL    H22   58   0.622   0.081   0.031
    1UNL    H23   59   0.557  -0.058   0.227
    1UNL    H24   60   0.396  -0.288   0.210
    1UNL    H25   61   0.176  -0.369   0.253
    1UNL    H26   62  -0.034  -0.286   0.352
    1UNL    H27   63   0.021   0.030   0.227
    1UNL    H28   64   0.272   0.115   0.207
    1UNL    H29   65   0.157   0.339  -0.021
    1UNL    H30   66   0.244   0.191  -0.011
    1UNL    H31   67  -0.014   0.167   0.008
    1UNL    H32   68   0.148   0.036  -0.133
   0.00000   0.00000   0.00000   0.00000   0.00000   0.00000   0.00000   0.00000   0.00000
Generated with MDTraj, t= 76.0
 68
    1UNL     O1    1  -0.054   0.389   0.032
    1UNL     C1    2  -0.100   0.381  -0.077
    1UNL     C2    3  -0.056   0.276  -0.183
    1UNL     C3    4  -0.164   0.183  -0.224
    1UNL     C4    5  -0.225   0.110  -0.126
    1UNL     O2    6  -0.316   0.005  -0.153
    1UNL     C5    7  -0.321  -0.090  -0.046
    1UNL     O3    8  -0.348  -0.036   0.084
    1UNL     C6    9  -0.324  -0.133   0.188
    1UNL     C7   10  -0.412  -0.096   0.314
    1UNL     O4   11  -0.371  -0.177   0.426
    1UNL     C8   12  -0.328  -0.282   0.142
    1UNL     O5   13  -0.330  -0.379   0.252
    1UNL     C9   14  -0.216  -0.310   0.046
    1UNL     O6   15  -0.257  -0.410  -0.049
    1UNL    C10   16  -0.190  -0.177  -0.040
    1UNL     O7   17  -0.158  -0.200  -0.175
    1UNL    C11   18   0.013   0.350  -0.306
    1UNL    C12   19   0.144   0.281  -0.353
    1UNL    C13   20   0.246   0.299  -0.230
    1UNL    C14   21   0.366   0.198  -0.260
    1UNL     O8   22   0.464   0.164  -0.159
    1UNL    C15   23   0.424   0.062  -0.072
    1UNL     O9   24   0.317   0.013  -0.069
    1UNL    C16   25   0.523   0.027   0.037
    1UNL    C17   26   0.484  -0.031   0.153
    1UNL    C18   27   0.348  -0.077   0.190
    1UNL    C19   28   0.318  -0.208   0.212
    1UNL    C20   29   0.190  -0.246   0.253
    1UNL    C21   30   0.091  -0.152   0.276
    1UNL    O10   31  -0.034  -0.193   0.322
    1UNL    C22   32   0.112  -0.025   0.237
    1UNL    C23   33   0.240   0.017   0.209
    1UNL    C24   34   0.186   0.270  -0.090
    1UNL    C25   35   0.047   0.191  -0.101
    1UNL    O11   36   0.064   0.066  -0.173
    1UNL     H1   37  -0.169   0.457  -0.111
    1UNL     H2   38  -0.205   0.166  -0.325
    1UNL     H3   39  -0.199   0.123  -0.024
    1UNL     H4   40  -0.406  -0.164  -0.077
    1UNL     H5   41  -0.220  -0.109   0.226
    1UNL     H6   42  -0.519  -0.113   0.293
    1UNL     H7   43  -0.415   0.005   0.336
    1UNL     H8   44  -0.349  -0.274   0.390
    1UNL     H9   45  -0.428  -0.289   0.088
    1UNL    H10   46  -0.317  -0.467   0.217
    1UNL    H11   47  -0.124  -0.337   0.098
    1UNL    H12   48  -0.209  -0.395  -0.132
    1UNL    H13   49  -0.109  -0.126  -0.004
    1UNL    H14   50  -0.217  -0.153  -0.236
    1UNL    H15   51  -0.058   0.364  -0.392
    1UNL    H16   52   0.044   0.453  -0.277
    1UNL    H17   53   0.179   0.327  -0.450
    1UNL    H18   54   0.129   0.175  -0.365
    1UNL    H19   55   0.288   0.401  -0.239
    1UNL    H20   56   0.439   0.239  -0.343
    1UNL    H21   57   0.325   0.103  -0.301
    1UNL    H22   58   0.627   0.028   0.009
    1UNL    H23   59   0.565  -0.072   0.212
    1UNL    H24   60   0.390  -0.288   0.224
    1UNL    H25   61   0.169  -0.353   0.281
    1UNL    H26   62  -0.038  -0.293   0.327
    1UNL    H27   63   0.040   0.058   0.239
    1UNL    H28   64   0.258   0.116   0.175
    1UNL    H29   65   0.174   0.363  -0.035
    1UNL    H30   66   0.251   0.215  -0.032
    1UNL    H31   67   0.013   0.168   0.003
    1UNL    H32   68   0.143   0.016  -0.134
   0.00000   0.00000   0.00000   0.00000   0.00000   0.00000   0.00000   0.00000   0.00000
Generated with MDTraj, t= 77.0
 68
    1UNL     O1    1  -0.062   0.385   0.043
    1UNL     C1    2  -0.109   0.379  -0.067
    1UNL     C2    3  -0.049   0.283  -0.168
    1UNL     C3    4  -0.151   0.182  -0.206
    1UNL     C4    5  -0.205   0.097  -0.115
    1UNL     O2    6  -0.308   0.008  -0.150
    1UNL     C5    7  -0.320  -0.087  -0.049
    1UNL     O3    8  -0.340  -0.040   0.090
    1UNL     C6    9  -0.310  -0.141   0.195
    1UNL     C7   10  -0.404  -0.095   0.310
    1UNL     O4   11  -0.413  -0.192   0.410
    1UNL     C8   12  -0.327  -0.285   0.156
    1UNL     O5   13  -0.294  -0.372   0.260
    1UNL     C9   14  -0.245  -0.321   0.029
    1UNL     O6   15  -0.314  -0.413  -0.054
    1UNL    C10   16  -0.205  -0.199  -0.059
    1UNL     O7   17  -0.185  -0.245  -0.189
    1UNL    C11   18   0.005   0.360  -0.299
    1UNL    C12   19   0.141   0.307  -0.347
    1UNL    C13   20   0.258   0.312  -0.244
    1UNL    C14   21   0.353   0.190  -0.267
    1UNL     O8   22   0.445   0.166  -0.159
    1UNL    C15   23   0.422   0.057  -0.069
    1UNL     O9   24   0.331  -0.020  -0.083
    1UNL    C16   25   0.516   0.045   0.047
    1UNL    C17   26   0.494  -0.030   0.155
    1UNL    C18   27   0.357  -0.074   0.196
    1UNL    C19   28   0.324  -0.210   0.236
    1UNL    C20   29   0.191  -0.234   0.279
    1UNL    C21   30   0.091  -0.137   0.279
    1UNL    O10   31  -0.037  -0.169   0.305
    1UNL    C22   32   0.131  -0.011   0.242
    1UNL    C23   33   0.260   0.018   0.198
    1UNL    C24   34   0.205   0.290  -0.105
    1UNL    C25   35   0.074   0.198  -0.113
    1UNL    O11   36   0.086   0.068  -0.183
    1UNL     H1   37  -0.196   0.444  -0.089
    1UNL     H2   38  -0.208   0.172  -0.298
    1UNL     H3   39  -0.172   0.102  -0.011
    1UNL     H4   40  -0.418  -0.147  -0.063
    1UNL     H5   41  -0.205  -0.124   0.227
    1UNL     H6   42  -0.506  -0.084   0.270
    1UNL     H7   43  -0.389   0.002   0.346
    1UNL     H8   44  -0.373  -0.279   0.377
    1UNL     H9   45  -0.436  -0.312   0.127
    1UNL    H10   46  -0.291  -0.461   0.218
    1UNL    H11   47  -0.162  -0.383   0.070
    1UNL    H12   48  -0.290  -0.405  -0.150
    1UNL    H13   49  -0.121  -0.153  -0.021
    1UNL    H14   50  -0.228  -0.179  -0.249
    1UNL    H15   51  -0.066   0.347  -0.386
    1UNL    H16   52   0.005   0.470  -0.280
    1UNL    H17   53   0.176   0.337  -0.447
    1UNL    H18   54   0.116   0.200  -0.359
    1UNL    H19   55   0.312   0.401  -0.257
    1UNL    H20   56   0.406   0.207  -0.370
    1UNL    H21   57   0.296   0.097  -0.276
    1UNL    H22   58   0.600   0.109   0.048
    1UNL    H23   59   0.570  -0.039   0.232
    1UNL    H24   60   0.406  -0.279   0.249
    1UNL    H25   61   0.157  -0.328   0.312
    1UNL    H26   62  -0.036  -0.269   0.313
    1UNL    H27   63   0.051   0.056   0.217
    1UNL    H28   64   0.273   0.122   0.164
    1UNL    H29   65   0.163   0.385  -0.068
    1UNL    H30   66   0.283   0.258  -0.046
    1UNL    H31   67   0.053   0.175  -0.007
    1UNL    H32   68   0.169   0.020  -0.153
   0.00000   0.00000   0.00000   0.00000   0.00000   0.00000   0.00000   0.00000   0.00000
Generated with MDTraj, t= 78.0
 68
    1UNL     O1    1  -0.065   0.410   0.049
    1UNL     C1    2  -0.105   0.371  -0.060
    1UNL     C2    3  -0.052   0.278  -0.162
    1UNL     C3    4  -0.166   0.188  -0.207
    1UNL     C4    5  -0.214   0.098  -0.119
    1UNL     O2    6  -0.317   0.008  -0.150
    1UNL     C5    7  -0.319  -0.092  -0.055
    1UNL     O3    8  -0.293  -0.041   0.076
    1UNL     C6    9  -0.308  -0.143   0.188
    1UNL     C7   10  -0.422  -0.098   0.281
    1UNL     O4   11  -0.415  -0.162   0.405
    1UNL     C8   12  -0.326  -0.289   0.152
    1UNL     O5   13  -0.277  -0.367   0.257
    1UNL     C9   14  -0.265  -0.335   0.017
    1UNL     O6   15  -0.351  -0.415  -0.059
    1UNL    C10   16  -0.223  -0.214  -0.072
    1UNL     O7   17  -0.199  -0.263  -0.199
    1UNL    C11   18   0.013   0.354  -0.282
    1UNL    C12   19   0.140   0.279  -0.327
    1UNL    C13   20   0.252   0.294  -0.218
    1UNL    C14   21   0.370   0.194  -0.250
    1UNL     O8   22   0.459   0.171  -0.147
    1UNL    C15   23   0.438   0.046  -0.085
    1UNL     O9   24   0.349  -0.033  -0.104
    1UNL    C16   25   0.533   0.024   0.021
    1UNL    C17   26   0.493  -0.005   0.145
    1UNL    C18   27   0.353  -0.050   0.173
    1UNL    C19   28   0.332  -0.176   0.237
    1UNL    C20   29   0.214  -0.214   0.282
    1UNL    C21   30   0.104  -0.125   0.272
    1UNL    O10   31  -0.023  -0.182   0.308
    1UNL    C22   32   0.121   0.005   0.227
    1UNL    C23   33   0.244   0.043   0.170
    1UNL    C24   34   0.198   0.265  -0.081
    1UNL    C25   35   0.062   0.193  -0.080
    1UNL    O11   36   0.064   0.057  -0.127
    1UNL     H1   37  -0.195   0.418  -0.089
    1UNL     H2   38  -0.229   0.205  -0.291
    1UNL     H3   39  -0.168   0.085  -0.020
    1UNL     H4   40  -0.428  -0.134  -0.053
    1UNL     H5   41  -0.211  -0.137   0.242
    1UNL     H6   42  -0.523  -0.113   0.238
    1UNL     H7   43  -0.419   0.004   0.298
    1UNL     H8   44  -0.370  -0.241   0.390
    1UNL     H9   45  -0.440  -0.309   0.151
    1UNL    H10   46  -0.297  -0.464   0.242
    1UNL    H11   47  -0.170  -0.396   0.028
    1UNL    H12   48  -0.337  -0.388  -0.153
    1UNL    H13   49  -0.127  -0.176  -0.047
    1UNL    H14   50  -0.202  -0.192  -0.268
    1UNL    H15   51  -0.066   0.376  -0.360
    1UNL    H16   52   0.042   0.456  -0.249
    1UNL    H17   53   0.172   0.316  -0.425
    1UNL    H18   54   0.130   0.169  -0.341
    1UNL    H19   55   0.285   0.391  -0.216
    1UNL    H20   56   0.426   0.222  -0.345
    1UNL    H21   57   0.315   0.104  -0.274
    1UNL    H22   58   0.634   0.074   0.007
    1UNL    H23   59   0.563  -0.008   0.227
    1UNL    H24   60   0.411  -0.250   0.253
    1UNL    H25   61   0.216  -0.298   0.351
    1UNL    H26   62  -0.022  -0.267   0.361
    1UNL    H27   63   0.035   0.068   0.222
    1UNL    H28   64   0.263   0.139   0.127
    1UNL    H29   65   0.186   0.364  -0.037
    1UNL    H30   66   0.275   0.201  -0.033
    1UNL    H31   67   0.028   0.182   0.024
    1UNL    H32   68   0.154   0.019  -0.108
   0.00000   0.00000   0.00000   0.00000   0.00000   0.00000   0.00000   0.00000   0.00000
Generated with MDTraj, t= 79.0
 68
    1UNL     O1    1  -0.045   0.435   0.021
    1UNL     C1    2  -0.111   0.360  -0.040
    1UNL     C2    3  -0.048   0.273  -0.145
    1UNL     C3    4  -0.148   0.178  -0.206
    1UNL     C4    5  -0.194   0.074  -0.138
    1UNL     O2    6  -0.309   0.002  -0.169
    1UNL     C5    7  -0.332  -0.097  -0.071
    1UNL     O3    8  -0.327  -0.037   0.063
    1UNL     C6    9  -0.307  -0.131   0.179
    1UNL     C7   10  -0.392  -0.082   0.300
    1UNL     O4   11  -0.409  -0.177   0.404
    1UNL     C8   12  -0.339  -0.278   0.144
    1UNL     O5   13  -0.304  -0.364   0.256
    1UNL     C9   14  -0.265  -0.330   0.016
    1UNL     O6   15  -0.342  -0.429  -0.051
    1UNL    C10   16  -0.228  -0.214  -0.084
    1UNL     O7   17  -0.228  -0.273  -0.210
    1UNL    C11   18   0.010   0.352  -0.262
    1UNL    C12   19   0.124   0.281  -0.337
    1UNL    C13   20   0.247   0.281  -0.238
    1UNL    C14   21   0.361   0.179  -0.272
    1UNL     O8   22   0.457   0.167  -0.171
    1UNL    C15   23   0.429   0.073  -0.075
    1UNL     O9   24   0.337  -0.003  -0.072
    1UNL    C16   25   0.524   0.056   0.034
    1UNL    C17   26   0.497  -0.015   0.147
    1UNL    C18   27   0.365  -0.058   0.189
    1UNL    C19   28   0.342  -0.186   0.229
    1UNL    C20   29   0.216  -0.222   0.279
    1UNL    C21   30   0.106  -0.133   0.276
    1UNL    O10   31  -0.021  -0.169   0.302
    1UNL    C22   32   0.139  -0.001   0.244
    1UNL    C23   33   0.262   0.029   0.194
    1UNL    C24   34   0.196   0.272  -0.083
    1UNL    C25   35   0.067   0.199  -0.063
    1UNL    O11   36   0.079   0.060  -0.102
    1UNL     H1   37  -0.205   0.327   0.005
    1UNL     H2   38  -0.214   0.219  -0.284
    1UNL     H3   39  -0.143   0.042  -0.048
    1UNL     H4   40  -0.439  -0.141  -0.090
    1UNL     H5   41  -0.199  -0.127   0.205
    1UNL     H6   42  -0.496  -0.057   0.266
    1UNL     H7   43  -0.355   0.008   0.338
    1UNL     H8   44  -0.367  -0.267   0.372
    1UNL     H9   45  -0.453  -0.285   0.139
    1UNL    H10   46  -0.319  -0.460   0.235
    1UNL    H11   47  -0.165  -0.376   0.044
    1UNL    H12   48  -0.351  -0.398  -0.143
    1UNL    H13   49  -0.128  -0.176  -0.073
    1UNL    H14   50  -0.238  -0.212  -0.285
    1UNL    H15   51  -0.079   0.381  -0.325
    1UNL    H16   52   0.046   0.447  -0.221
    1UNL    H17   53   0.156   0.323  -0.432
    1UNL    H18   54   0.094   0.175  -0.358
    1UNL    H19   55   0.290   0.373  -0.235
    1UNL    H20   56   0.403   0.207  -0.370
    1UNL    H21   57   0.319   0.084  -0.289
    1UNL    H22   58   0.618   0.093   0.018
    1UNL    H23   59   0.579  -0.038   0.213
    1UNL    H24   60   0.426  -0.251   0.246
    1UNL    H25   61   0.210  -0.315   0.333
    1UNL    H26   62  -0.032  -0.263   0.329
    1UNL    H27   63   0.058   0.071   0.249
    1UNL    H28   64   0.287   0.125   0.158
    1UNL    H29   65   0.178   0.369  -0.044
    1UNL    H30   66   0.286   0.221  -0.028
    1UNL    H31   67   0.036   0.197   0.041
    1UNL    H32   68   0.171   0.031  -0.105
   0.00000   0.00000   0.00000   0.00000   0.00000   0.00000   0.00000   0.00000   0.00000
Generated with MDTraj, t= 80.0
 68
    1UNL     O1    1  -0.045   0.478  -0.012
    1UNL     C1    2  -0.116   0.400  -0.063
    1UNL     C2    3  -0.057   0.290  -0.153
    1UNL     C3    4  -0.164   0.189  -0.197
    1UNL     C4    5  -0.213   0.092  -0.125
    1UNL     O2    6  -0.302  -0.006  -0.167
    1UNL     C5    7  -0.329  -0.104  -0.068
    1UNL     O3    8  -0.336  -0.050   0.068
    1UNL     C6    9  -0.316  -0.147   0.172
    1UNL     C7   10  -0.390  -0.088   0.294
    1UNL     O4   11  -0.346  -0.145   0.416
    1UNL     C8   12  -0.358  -0.287   0.137
    1UNL     O5   13  -0.361  -0.374   0.257
    1UNL     C9   14  -0.265  -0.334   0.016
    1UNL     O6   15  -0.312  -0.453  -0.047
    1UNL    C10   16  -0.229  -0.224  -0.090
    1UNL     O7   17  -0.241  -0.277  -0.218
    1UNL    C11   18  -0.002   0.360  -0.279
    1UNL    C12   19   0.132   0.304  -0.322
    1UNL    C13   20   0.247   0.286  -0.216
    1UNL    C14   21   0.353   0.168  -0.254
    1UNL     O8   22   0.454   0.147  -0.160
    1UNL    C15   23   0.429   0.048  -0.066
    1UNL     O9   24   0.332  -0.030  -0.065
    1UNL    C16   25   0.530   0.046   0.041
    1UNL    C17   26   0.508  -0.012   0.159
    1UNL    C18   27   0.380  -0.049   0.213
    1UNL    C19   28   0.355  -0.189   0.212
    1UNL    C20   29   0.225  -0.240   0.241
    1UNL    C21   30   0.121  -0.144   0.273
    1UNL    O10   31  -0.009  -0.176   0.310
    1UNL    C22   32   0.148  -0.004   0.258
    1UNL    C23   33   0.272   0.038   0.239
    1UNL    C24   34   0.183   0.279  -0.074
    1UNL    C25   35   0.051   0.206  -0.077
    1UNL    O11   36   0.082   0.077  -0.146
    1UNL     H1   37  -0.224   0.401  -0.043
    1UNL     H2   38  -0.199   0.213  -0.292
    1UNL     H3   39  -0.182   0.086  -0.023
    1UNL     H4   40  -0.439  -0.140  -0.086
    1UNL     H5   41  -0.208  -0.149   0.191
    1UNL     H6   42  -0.502  -0.109   0.277
    1UNL     H7   43  -0.382   0.019   0.298
    1UNL     H8   44  -0.347  -0.248   0.407
    1UNL     H9   45  -0.461  -0.300   0.092
    1UNL    H10   46  -0.370  -0.464   0.221
    1UNL    H11   47  -0.179  -0.374   0.073
    1UNL    H12   48  -0.355  -0.442  -0.137
    1UNL    H13   49  -0.131  -0.179  -0.068
    1UNL    H14   50  -0.220  -0.207  -0.284
    1UNL    H15   51  -0.071   0.343  -0.366
    1UNL    H16   52  -0.002   0.469  -0.258
    1UNL    H17   53   0.163   0.355  -0.412
    1UNL    H18   54   0.114   0.195  -0.348
    1UNL    H19   55   0.301   0.372  -0.211
    1UNL    H20   56   0.405   0.198  -0.343
    1UNL    H21   57   0.306   0.077  -0.276
    1UNL    H22   58   0.630   0.091   0.015
    1UNL    H23   59   0.592  -0.013   0.228
    1UNL    H24   60   0.444  -0.248   0.203
    1UNL    H25   61   0.214  -0.345   0.253
    1UNL    H26   62  -0.023  -0.271   0.305
    1UNL    H27   63   0.069   0.063   0.269
    1UNL    H28   64   0.284   0.148   0.233
    1UNL    H29   65   0.175   0.381  -0.041
    1UNL    H30   66   0.255   0.220  -0.008
    1UNL    H31   67   0.019   0.185   0.025
    1UNL    H32   68   0.160   0.033  -0.106
   0.00000   0.00000   0.00000   0.00000   0.00000   0.00000   0.00000   0.00000   0.00000
Generated with MDTraj, t= 81.0
 68
    1UNL     O1    1  -0.048   0.488  -0.046
    1UNL     C1    2  -0.109   0.385  -0.069
    1UNL     C2    3  -0.061   0.282  -0.166
    1UNL     C3    4  -0.170   0.185  -0.219
    1UNL     C4    5  -0.209   0.082  -0.149
    1UNL     O2    6  -0.311  -0.003  -0.173
    1UNL     C5    7  -0.332  -0.093  -0.066
    1UNL     O3    8  -0.325  -0.038   0.063
    1UNL     C6    9  -0.310  -0.134   0.174
    1UNL     C7   10  -0.366  -0.083   0.314
    1UNL     O4   11  -0.328  -0.171   0.422
    1UNL     C8   12  -0.354  -0.272   0.134
    1UNL     O5   13  -0.371  -0.371   0.238
    1UNL     C9   14  -0.258  -0.319   0.027
    1UNL     O6   15  -0.306  -0.446  -0.027
    1UNL    C10   16  -0.229  -0.207  -0.078
    1UNL     O7   17  -0.235  -0.255  -0.214
    1UNL    C11   18  -0.003   0.353  -0.286
    1UNL    C12   19   0.125   0.281  -0.332
    1UNL    C13   20   0.241   0.292  -0.225
    1UNL    C14   21   0.350   0.185  -0.246
    1UNL     O8   22   0.446   0.170  -0.143
    1UNL    C15   23   0.429   0.068  -0.053
    1UNL     O9   24   0.325   0.001  -0.060
    1UNL    C16   25   0.532   0.044   0.049
    1UNL    C17   26   0.510  -0.016   0.171
    1UNL    C18   27   0.380  -0.068   0.219
    1UNL    C19   28   0.346  -0.203   0.208
    1UNL    C20   29   0.221  -0.246   0.224
    1UNL    C21   30   0.120  -0.155   0.272
    1UNL    O10   31  -0.009  -0.198   0.295
    1UNL    C22   32   0.151  -0.021   0.279
    1UNL    C23   33   0.281   0.027   0.262
    1UNL    C24   34   0.179   0.261  -0.085
    1UNL    C25   35   0.041   0.199  -0.083
    1UNL    O11   36   0.061   0.062  -0.120
    1UNL     H1   37  -0.210   0.386  -0.038
    1UNL     H2   38  -0.221   0.225  -0.310
    1UNL     H3   39  -0.157   0.071  -0.053
    1UNL     H4   40  -0.435  -0.145  -0.091
    1UNL     H5   41  -0.203  -0.126   0.187
    1UNL     H6   42  -0.482  -0.079   0.312
    1UNL     H7   43  -0.328   0.016   0.335
    1UNL     H8   44  -0.345  -0.259   0.396
    1UNL     H9   45  -0.456  -0.254   0.094
    1UNL    H10   46  -0.391  -0.456   0.196
    1UNL    H11   47  -0.159  -0.342   0.067
    1UNL    H12   48  -0.272  -0.454  -0.116
    1UNL    H13   49  -0.122  -0.169  -0.075
    1UNL    H14   50  -0.230  -0.179  -0.275
    1UNL    H15   51  -0.083   0.353  -0.364
    1UNL    H16   52   0.029   0.456  -0.262
    1UNL    H17   53   0.159   0.335  -0.420
    1UNL    H18   54   0.096   0.174  -0.357
    1UNL    H19   55   0.279   0.389  -0.232
    1UNL    H20   56   0.411   0.216  -0.329
    1UNL    H21   57   0.305   0.093  -0.257
    1UNL    H22   58   0.629   0.047   0.010
    1UNL    H23   59   0.595  -0.052   0.230
    1UNL    H24   60   0.425  -0.276   0.186
    1UNL    H25   61   0.198  -0.352   0.221
    1UNL    H26   62  -0.023  -0.291   0.270
    1UNL    H27   63   0.063   0.047   0.294
    1UNL    H28   64   0.313   0.126   0.282
    1UNL    H29   65   0.170   0.358  -0.035
    1UNL    H30   66   0.250   0.213  -0.021
    1UNL    H31   67   0.005   0.208   0.021
    1UNL    H32   68   0.149   0.033  -0.090
   0.00000   0.00000   0.00000   0.00000   0.00000   0.00000   0.00000   0.00000   0.00000
Generated with MDTraj, t= 82.0
 68
    1UNL     O1    1  -0.067   0.482  -0.049
    1UNL     C1    2  -0.120   0.392  -0.110
    1UNL     C2    3  -0.056   0.277  -0.175
    1UNL     C3    4  -0.165   0.177  -0.215
    1UNL     C4    5  -0.229   0.098  -0.130
    1UNL     O2    6  -0.323   0.004  -0.157
    1UNL     C5    7  -0.334  -0.099  -0.058
    1UNL     O3    8  -0.316  -0.036   0.077
    1UNL     C6    9  -0.285  -0.129   0.183
    1UNL     C7   10  -0.362  -0.068   0.309
    1UNL     O4   11  -0.357  -0.148   0.424
    1UNL     C8   12  -0.326  -0.279   0.152
    1UNL     O5   13  -0.305  -0.383   0.254
    1UNL     C9   14  -0.248  -0.319   0.018
    1UNL     O6   15  -0.326  -0.427  -0.037
    1UNL    C10   16  -0.229  -0.203  -0.083
    1UNL     O7   17  -0.236  -0.233  -0.220
    1UNL    C11   18   0.008   0.329  -0.304
    1UNL    C12   19   0.136   0.250  -0.335
    1UNL    C13   20   0.239   0.282  -0.225
    1UNL    C14   21   0.349   0.177  -0.236
    1UNL     O8   22   0.449   0.187  -0.135
    1UNL    C15   23   0.438   0.092  -0.038
    1UNL     O9   24   0.331   0.027  -0.031
    1UNL    C16   25   0.533   0.055   0.070
    1UNL    C17   26   0.502  -0.027   0.174
    1UNL    C18   27   0.365  -0.081   0.198
    1UNL    C19   28   0.331  -0.220   0.186
    1UNL    C20   29   0.208  -0.257   0.214
    1UNL    C21   30   0.112  -0.175   0.262
    1UNL    O10   31  -0.011  -0.226   0.287
    1UNL    C22   32   0.138  -0.036   0.271
    1UNL    C23   33   0.265   0.005   0.236
    1UNL    C24   34   0.177   0.281  -0.089
    1UNL    C25   35   0.051   0.207  -0.081
    1UNL    O11   36   0.063   0.071  -0.117
    1UNL     H1   37  -0.229   0.386  -0.108
    1UNL     H2   38  -0.194   0.190  -0.314
    1UNL     H3   39  -0.192   0.100  -0.026
    1UNL     H4   40  -0.446  -0.133  -0.062
    1UNL     H5   41  -0.180  -0.125   0.203
    1UNL     H6   42  -0.477  -0.063   0.286
    1UNL     H7   43  -0.327   0.031   0.340
    1UNL     H8   44  -0.332  -0.244   0.399
    1UNL     H9   45  -0.433  -0.289   0.134
    1UNL    H10   46  -0.327  -0.468   0.210
    1UNL    H11   47  -0.150  -0.355   0.041
    1UNL    H12   48  -0.288  -0.465  -0.122
    1UNL    H13   49  -0.133  -0.142  -0.063
    1UNL    H14   50  -0.238  -0.151  -0.274
    1UNL    H15   51  -0.056   0.320  -0.393
    1UNL    H16   52   0.030   0.437  -0.284
    1UNL    H17   53   0.175   0.268  -0.436
    1UNL    H18   54   0.114   0.141  -0.320
    1UNL    H19   55   0.277   0.380  -0.249
    1UNL    H20   56   0.402   0.190  -0.328
    1UNL    H21   57   0.315   0.079  -0.227
    1UNL    H22   58   0.625   0.111   0.082
    1UNL    H23   59   0.573  -0.038   0.254
    1UNL    H24   60   0.410  -0.287   0.160
    1UNL    H25   61   0.170  -0.351   0.183
    1UNL    H26   62  -0.013  -0.324   0.291
    1UNL    H27   63   0.061   0.031   0.284
    1UNL    H28   64   0.281   0.114   0.238
    1UNL    H29   65   0.175   0.383  -0.044
    1UNL    H30   66   0.243   0.239  -0.022
    1UNL    H31   67   0.011   0.221   0.022
    1UNL    H32   68   0.157   0.044  -0.092
   0.00000   0.00000   0.00000   0.00000   0.00000   0.00000   0.00000   0.00000   0.00000
Generated with MDTraj, t= 83.0
 68
    1UNL     O1    1  -0.058   0.483  -0.068
    1UNL     C1    2  -0.119   0.409  -0.134
    1UNL     C2    3  -0.060   0.288  -0.196
    1UNL     C3    4  -0.164   0.185  -0.224
    1UNL     C4    5  -0.220   0.102  -0.135
    1UNL     O2    6  -0.320   0.008  -0.157
    1UNL     C5    7  -0.330  -0.087  -0.049
    1UNL     O3    8  -0.311  -0.039   0.091
    1UNL     C6    9  -0.281  -0.132   0.200
    1UNL     C7   10  -0.382  -0.098   0.310
    1UNL     O4   11  -0.355  -0.158   0.431
    1UNL     C8   12  -0.296  -0.282   0.168
    1UNL     O5   13  -0.245  -0.376   0.269
    1UNL     C9   14  -0.245  -0.314   0.021
    1UNL     O6   15  -0.348  -0.402  -0.026
    1UNL    C10   16  -0.227  -0.195  -0.075
    1UNL     O7   17  -0.235  -0.231  -0.213
    1UNL    C11   18   0.018   0.325  -0.324
    1UNL    C12   19   0.156   0.272  -0.340
    1UNL    C13   20   0.251   0.300  -0.225
    1UNL    C14   21   0.357   0.190  -0.233
    1UNL     O8   22   0.444   0.184  -0.119
    1UNL    C15   23   0.414   0.079  -0.034
    1UNL     O9   24   0.311   0.006  -0.049
    1UNL    C16   25   0.508   0.062   0.070
    1UNL    C17   26   0.490  -0.015   0.181
    1UNL    C18   27   0.363  -0.085   0.202
    1UNL    C19   28   0.339  -0.222   0.203
    1UNL    C20   29   0.209  -0.277   0.221
    1UNL    C21   30   0.099  -0.191   0.249
    1UNL    O10   31  -0.023  -0.250   0.256
    1UNL    C22   32   0.126  -0.056   0.267
    1UNL    C23   33   0.249  -0.002   0.243
    1UNL    C24   34   0.178   0.289  -0.090
    1UNL    C25   35   0.046   0.215  -0.097
    1UNL    O11   36   0.053   0.071  -0.112
    1UNL     H1   37  -0.227   0.429  -0.136
    1UNL     H2   38  -0.211   0.190  -0.322
    1UNL     H3   39  -0.187   0.109  -0.032
    1UNL     H4   40  -0.430  -0.149  -0.053
    1UNL     H5   41  -0.177  -0.110   0.220
    1UNL     H6   42  -0.492  -0.122   0.276
    1UNL     H7   43  -0.373   0.010   0.328
    1UNL     H8   44  -0.330  -0.254   0.408
    1UNL     H9   45  -0.399  -0.311   0.172
    1UNL    H10   46  -0.265  -0.469   0.238
    1UNL    H11   47  -0.151  -0.368   0.028
    1UNL    H12   48  -0.335  -0.424  -0.118
    1UNL    H13   49  -0.117  -0.158  -0.054
    1UNL    H14   50  -0.268  -0.156  -0.269
    1UNL    H15   51  -0.042   0.283  -0.405
    1UNL    H16   52   0.022   0.436  -0.339
    1UNL    H17   53   0.210   0.312  -0.429
    1UNL    H18   54   0.157   0.160  -0.348
    1UNL    H19   55   0.302   0.398  -0.234
    1UNL    H20   56   0.420   0.180  -0.324
    1UNL    H21   57   0.303   0.100  -0.227
    1UNL    H22   58   0.596   0.130   0.067
    1UNL    H23   59   0.570  -0.023   0.256
    1UNL    H24   60   0.425  -0.287   0.183
    1UNL    H25   61   0.186  -0.385   0.215
    1UNL    H26   62  -0.009  -0.347   0.237
    1UNL    H27   63   0.051   0.015   0.311
    1UNL    H28   64   0.265   0.101   0.246
    1UNL    H29   65   0.174   0.388  -0.037
    1UNL    H30   66   0.239   0.240  -0.020
    1UNL    H31   67  -0.002   0.236   0.002
    1UNL    H32   68   0.138   0.039  -0.079
   0.00000   0.00000   0.00000   0.00000   0.00000   0.00000   0.00000   0.00000   0.00000
Generated with MDTraj, t= 84.0
 68
    1UNL     O1    1  -0.059   0.507  -0.098
    1UNL     C1    2  -0.106   0.396  -0.095
    1UNL     C2    3  -0.065   0.286  -0.185
    1UNL     C3    4  -0.180   0.199  -0.211
    1UNL     C4    5  -0.217   0.093  -0.134
    1UNL     O2    6  -0.322   0.009  -0.159
    1UNL     C5    7  -0.329  -0.083  -0.046
    1UNL     O3    8  -0.304  -0.031   0.089
    1UNL     C6    9  -0.283  -0.136   0.195
    1UNL     C7   10  -0.341  -0.093   0.329
    1UNL     O4   11  -0.335  -0.184   0.442
    1UNL     C8   12  -0.326  -0.279   0.155
    1UNL     O5   13  -0.314  -0.379   0.256
    1UNL     C9   14  -0.259  -0.319   0.023
    1UNL     O6   15  -0.338  -0.406  -0.058
    1UNL    C10   16  -0.222  -0.195  -0.061
    1UNL     O7   17  -0.207  -0.223  -0.200
    1UNL    C11   18  -0.002   0.321  -0.326
    1UNL    C12   19   0.133   0.247  -0.349
    1UNL    C13   20   0.249   0.285  -0.241
    1UNL    C14   21   0.362   0.182  -0.225
    1UNL     O8   22   0.436   0.187  -0.107
    1UNL    C15   23   0.418   0.079  -0.032
    1UNL     O9   24   0.333  -0.014  -0.042
    1UNL    C16   25   0.511   0.069   0.077
    1UNL    C17   26   0.491  -0.011   0.187
    1UNL    C18   27   0.360  -0.073   0.218
    1UNL    C19   28   0.344  -0.212   0.224
    1UNL    C20   29   0.221  -0.275   0.239
    1UNL    C21   30   0.107  -0.200   0.245
    1UNL    O10   31  -0.021  -0.254   0.269
    1UNL    C22   32   0.118  -0.055   0.240
    1UNL    C23   33   0.241  -0.002   0.219
    1UNL    C24   34   0.177   0.309  -0.104
    1UNL    C25   35   0.046   0.220  -0.101
    1UNL    O11   36   0.068   0.084  -0.137
    1UNL     H1   37  -0.186   0.369  -0.031
    1UNL     H2   38  -0.257   0.228  -0.280
    1UNL     H3   39  -0.160   0.079  -0.045
    1UNL     H4   40  -0.437  -0.127  -0.034
    1UNL     H5   41  -0.175  -0.131   0.204
    1UNL     H6   42  -0.454  -0.068   0.315
    1UNL     H7   43  -0.292  -0.004   0.364
    1UNL     H8   44  -0.325  -0.267   0.404
    1UNL     H9   45  -0.430  -0.270   0.140
    1UNL    H10   46  -0.317  -0.468   0.213
    1UNL    H11   47  -0.162  -0.368   0.034
    1UNL    H12   48  -0.299  -0.396  -0.148
    1UNL    H13   49  -0.125  -0.136  -0.024
    1UNL    H14   50  -0.229  -0.141  -0.247
    1UNL    H15   51  -0.076   0.301  -0.403
    1UNL    H16   52   0.011   0.432  -0.321
    1UNL    H17   53   0.176   0.268  -0.450
    1UNL    H18   54   0.126   0.136  -0.347
    1UNL    H19   55   0.294   0.387  -0.272
    1UNL    H20   56   0.434   0.201  -0.311
    1UNL    H21   57   0.326   0.082  -0.242
    1UNL    H22   58   0.600   0.119   0.057
    1UNL    H23   59   0.576  -0.038   0.246
    1UNL    H24   60   0.426  -0.275   0.201
    1UNL    H25   61   0.220  -0.381   0.241
    1UNL    H26   62  -0.013  -0.355   0.272
    1UNL    H27   63   0.026  -0.006   0.254
    1UNL    H28   64   0.250   0.109   0.214
    1UNL    H29   65   0.149   0.416  -0.092
    1UNL    H30   66   0.236   0.297  -0.013
    1UNL    H31   67   0.009   0.224   0.005
    1UNL    H32   68   0.154   0.051  -0.093
   0.00000   0.00000   0.00000   0.00000   0.00000   0.00000   0.00000   0.00000   0.00000
Generated with MDTraj, t= 85.0
 68
    1UNL     O1    1  -0.048   0.522  -0.125
    1UNL     C1    2  -0.105   0.415  -0.103
    1UNL     C2    3  -0.061   0.289  -0.173
    1UNL     C3    4  -0.175   0.198  -0.202
    1UNL     C4    5  -0.208   0.103  -0.109
    1UNL     O2    6  -0.297   0.009  -0.149
    1UNL     C5    7  -0.324  -0.081  -0.036
    1UNL     O3    8  -0.310  -0.036   0.098
    1UNL     C6    9  -0.300  -0.150   0.192
    1UNL     C7   10  -0.352  -0.114   0.332
    1UNL     O4   11  -0.288  -0.195   0.431
    1UNL     C8   12  -0.369  -0.284   0.138
    1UNL     O5   13  -0.377  -0.377   0.246
    1UNL     C9   14  -0.273  -0.328   0.021
    1UNL     O6   15  -0.320  -0.422  -0.071
    1UNL    C10   16  -0.232  -0.202  -0.059
    1UNL     O7   17  -0.210  -0.236  -0.194
    1UNL    C11   18   0.008   0.318  -0.311
    1UNL    C12   19   0.148   0.259  -0.338
    1UNL    C13   20   0.249   0.282  -0.226
    1UNL    C14   21   0.367   0.183  -0.258
    1UNL     O8   22   0.463   0.170  -0.157
    1UNL    C15   23   0.426   0.083  -0.054
    1UNL     O9   24   0.326   0.004  -0.058
    1UNL    C16   25   0.507   0.076   0.072
    1UNL    C17   26   0.477   0.000   0.178
    1UNL    C18   27   0.350  -0.058   0.214
    1UNL    C19   28   0.351  -0.190   0.255
    1UNL    C20   29   0.238  -0.260   0.277
    1UNL    C21   30   0.111  -0.201   0.254
    1UNL    O10   31  -0.012  -0.258   0.271
    1UNL    C22   32   0.108  -0.070   0.217
    1UNL    C23   33   0.225   0.001   0.196
    1UNL    C24   34   0.182   0.297  -0.083
    1UNL    C25   35   0.044   0.227  -0.076
    1UNL    O11   36   0.057   0.088  -0.105
    1UNL     H1   37  -0.191   0.424  -0.039
    1UNL     H2   38  -0.242   0.199  -0.287
    1UNL     H3   39  -0.159   0.084  -0.013
    1UNL     H4   40  -0.433  -0.123  -0.041
    1UNL     H5   41  -0.194  -0.169   0.211
    1UNL     H6   42  -0.462  -0.144   0.341
    1UNL     H7   43  -0.343  -0.013   0.365
    1UNL     H8   44  -0.297  -0.297   0.410
    1UNL     H9   45  -0.468  -0.265   0.102
    1UNL    H10   46  -0.398  -0.463   0.205
    1UNL    H11   47  -0.189  -0.379   0.074
    1UNL    H12   48  -0.315  -0.388  -0.167
    1UNL    H13   49  -0.122  -0.176  -0.023
    1UNL    H14   50  -0.200  -0.154  -0.250
    1UNL    H15   51  -0.064   0.302  -0.391
    1UNL    H16   52   0.021   0.430  -0.306
    1UNL    H17   53   0.191   0.304  -0.433
    1UNL    H18   54   0.142   0.151  -0.359
    1UNL    H19   55   0.293   0.391  -0.237
    1UNL    H20   56   0.420   0.220  -0.355
    1UNL    H21   57   0.323   0.089  -0.290
    1UNL    H22   58   0.599   0.142   0.071
    1UNL    H23   59   0.557  -0.006   0.253
    1UNL    H24   60   0.449  -0.241   0.260
    1UNL    H25   61   0.249  -0.362   0.314
    1UNL    H26   62  -0.010  -0.340   0.327
    1UNL    H27   63   0.016  -0.015   0.231
    1UNL    H28   64   0.228   0.104   0.178
    1UNL    H29   65   0.172   0.396  -0.038
    1UNL    H30   66   0.247   0.238  -0.007
    1UNL    H31   67   0.013   0.231   0.030
    1UNL    H32   68   0.148   0.058  -0.092
   0.00000   0.00000   0.00000   0.00000   0.00000   0.00000   0.00000   0.00000   0.00000
Generated with MDTraj, t= 86.0
 68
    1UNL     O1    1  -0.026   0.518  -0.093
    1UNL     C1    2  -0.101   0.428  -0.108
    1UNL     C2    3  -0.047   0.294  -0.173
    1UNL     C3    4  -0.160   0.194  -0.188
    1UNL     C4    5  -0.191   0.095  -0.104
    1UNL     O2    6  -0.305   0.026  -0.137
    1UNL     C5    7  -0.328  -0.082  -0.040
    1UNL     O3    8  -0.332  -0.044   0.097
    1UNL     C6    9  -0.301  -0.153   0.198
    1UNL     C7   10  -0.349  -0.111   0.335
    1UNL     O4   11  -0.324  -0.214   0.426
    1UNL     C8   12  -0.361  -0.289   0.149
    1UNL     O5   13  -0.344  -0.397   0.239
    1UNL     C9   14  -0.275  -0.328   0.022
    1UNL     O6   15  -0.337  -0.431  -0.055
    1UNL    C10   16  -0.240  -0.208  -0.070
    1UNL     O7   17  -0.237  -0.254  -0.203
    1UNL    C11   18   0.009   0.337  -0.310
    1UNL    C12   19   0.126   0.249  -0.347
    1UNL    C13   20   0.248   0.278  -0.254
    1UNL    C14   21   0.366   0.175  -0.256
    1UNL     O8   22   0.451   0.183  -0.146
    1UNL    C15   23   0.423   0.086  -0.056
    1UNL     O9   24   0.340  -0.006  -0.077
    1UNL    C16   25   0.497   0.087   0.068
    1UNL    C17   26   0.472   0.013   0.175
    1UNL    C18   27   0.342  -0.049   0.214
    1UNL    C19   28   0.348  -0.173   0.292
    1UNL    C20   29   0.234  -0.246   0.312
    1UNL    C21   30   0.108  -0.199   0.249
    1UNL    O10   31  -0.010  -0.266   0.265
    1UNL    C22   32   0.108  -0.079   0.179
    1UNL    C23   33   0.221   0.000   0.168
    1UNL    C24   34   0.210   0.305  -0.105
    1UNL    C25   35   0.073   0.241  -0.078
    1UNL    O11   36   0.077   0.098  -0.081
    1UNL     H1   37  -0.205   0.429  -0.070
    1UNL     H2   38  -0.222   0.192  -0.280
    1UNL     H3   39  -0.130   0.062  -0.017
    1UNL     H4   40  -0.442  -0.106  -0.056
    1UNL     H5   41  -0.191  -0.164   0.209
    1UNL     H6   42  -0.457  -0.081   0.341
    1UNL     H7   43  -0.286  -0.034   0.367
    1UNL     H8   44  -0.330  -0.299   0.375
    1UNL     H9   45  -0.465  -0.274   0.121
    1UNL    H10   46  -0.380  -0.474   0.192
    1UNL    H11   47  -0.182  -0.380   0.060
    1UNL    H12   48  -0.358  -0.395  -0.140
    1UNL    H13   49  -0.127  -0.173  -0.056
    1UNL    H14   50  -0.201  -0.185  -0.262
    1UNL    H15   51  -0.069   0.318  -0.385
    1UNL    H16   52   0.036   0.446  -0.317
    1UNL    H17   53   0.150   0.271  -0.457
    1UNL    H18   54   0.096   0.143  -0.339
    1UNL    H19   55   0.291   0.383  -0.288
    1UNL    H20   56   0.429   0.188  -0.355
    1UNL    H21   57   0.328   0.072  -0.269
    1UNL    H22   58   0.587   0.138   0.067
    1UNL    H23   59   0.543   0.002   0.252
    1UNL    H24   60   0.442  -0.201   0.330
    1UNL    H25   61   0.225  -0.344   0.358
    1UNL    H26   62  -0.005  -0.344   0.324
    1UNL    H27   63   0.012  -0.032   0.155
    1UNL    H28   64   0.208   0.103   0.136
    1UNL    H29   65   0.189   0.410  -0.084
    1UNL    H30   66   0.285   0.261  -0.027
    1UNL    H31   67   0.043   0.257   0.025
    1UNL    H32   68   0.172   0.064  -0.080
   0.00000   0.00000   0.00000   0.00000   0.00000   0.00000   0.00000   0.00000   0.00000
Generated with MDTraj, t= 87.0
 68
    1UNL     O1    1  -0.022   0.500  -0.060
    1UNL     C1    2  -0.097   0.422  -0.105
    1UNL     C2    3  -0.052   0.291  -0.175
    1UNL     C3    4  -0.173   0.198  -0.186
    1UNL     C4    5  -0.202   0.098  -0.107
    1UNL     O2    6  -0.327   0.042  -0.100
    1UNL     C5    7  -0.311  -0.080  -0.020
    1UNL     O3    8  -0.254  -0.057   0.103
    1UNL     C6    9  -0.285  -0.160   0.204
    1UNL     C7   10  -0.380  -0.109   0.313
    1UNL     O4   11  -0.360  -0.184   0.428
    1UNL     C8   12  -0.332  -0.297   0.144
    1UNL     O5   13  -0.316  -0.405   0.236
    1UNL     C9   14  -0.256  -0.332   0.014
    1UNL     O6   15  -0.347  -0.422  -0.049
    1UNL    C10   16  -0.240  -0.210  -0.079
    1UNL     O7   17  -0.273  -0.241  -0.213
    1UNL    C11   18  -0.000   0.338  -0.317
    1UNL    C12   19   0.128   0.252  -0.351
    1UNL    C13   20   0.250   0.279  -0.254
    1UNL    C14   21   0.359   0.179  -0.246
    1UNL     O8   22   0.445   0.185  -0.131
    1UNL    C15   23   0.436   0.081  -0.047
    1UNL     O9   24   0.364  -0.013  -0.084
    1UNL    C16   25   0.508   0.077   0.078
    1UNL    C17   26   0.465   0.023   0.193
    1UNL    C18   27   0.336  -0.042   0.209
    1UNL    C19   28   0.333  -0.152   0.294
    1UNL    C20   29   0.218  -0.222   0.312
    1UNL    C21   30   0.103  -0.194   0.249
    1UNL    O10   31  -0.008  -0.276   0.272
    1UNL    C22   32   0.103  -0.088   0.156
    1UNL    C23   33   0.217  -0.008   0.144
    1UNL    C24   34   0.205   0.299  -0.113
    1UNL    C25   35   0.070   0.227  -0.088
    1UNL    O11   36   0.078   0.082  -0.123
    1UNL     H1   37  -0.200   0.443  -0.100
    1UNL     H2   38  -0.240   0.211  -0.265
    1UNL     H3   39  -0.127   0.067  -0.037
    1UNL     H4   40  -0.423  -0.107  -0.001
    1UNL     H5   41  -0.187  -0.173   0.253
    1UNL     H6   42  -0.481  -0.123   0.271
    1UNL     H7   43  -0.362  -0.010   0.337
    1UNL     H8   44  -0.338  -0.269   0.397
    1UNL     H9   45  -0.441  -0.289   0.128
    1UNL    H10   46  -0.354  -0.488   0.200
    1UNL    H11   47  -0.156  -0.385   0.037
    1UNL    H12   48  -0.356  -0.397  -0.147
    1UNL    H13   49  -0.125  -0.188  -0.090
    1UNL    H14   50  -0.253  -0.166  -0.272
    1UNL    H15   51  -0.072   0.338  -0.399
    1UNL    H16   52   0.041   0.440  -0.303
    1UNL    H17   53   0.159   0.264  -0.461
    1UNL    H18   54   0.099   0.147  -0.333
    1UNL    H19   55   0.300   0.381  -0.291
    1UNL    H20   56   0.433   0.191  -0.337
    1UNL    H21   57   0.324   0.075  -0.259
    1UNL    H22   58   0.612   0.115   0.072
    1UNL    H23   59   0.534   0.006   0.277
    1UNL    H24   60   0.428  -0.188   0.336
    1UNL    H25   61   0.229  -0.313   0.364
    1UNL    H26   62   0.021  -0.347   0.330
    1UNL    H27   63   0.008  -0.068   0.112
    1UNL    H28   64   0.211   0.092   0.095
    1UNL    H29   65   0.185   0.406  -0.095
    1UNL    H30   66   0.281   0.250  -0.045
    1UNL    H31   67   0.040   0.226   0.015
    1UNL    H32   68   0.165   0.043  -0.102
   0.00000   0.00000   0.00000   0.00000   0.00000   0.00000   0.00000   0.00000   0.00000
Generated with MDTraj, t= 88.0
 68
    1UNL     O1    1   0.003   0.482  -0.062
    1UNL     C1    2  -0.084   0.404  -0.097
    1UNL     C2    3  -0.051   0.282  -0.174
    1UNL     C3    4  -0.176   0.194  -0.193
    1UNL     C4    5  -0.196   0.084  -0.122
    1UNL     O2    6  -0.322   0.033  -0.106
    1UNL     C5    7  -0.312  -0.077  -0.016
    1UNL     O3    8  -0.250  -0.049   0.109
    1UNL     C6    9  -0.262  -0.148   0.212
    1UNL     C7   10  -0.359  -0.092   0.319
    1UNL     O4   11  -0.419  -0.195   0.393
    1UNL     C8   12  -0.317  -0.281   0.148
    1UNL     O5   13  -0.300  -0.388   0.241
    1UNL     C9   14  -0.238  -0.316   0.023
    1UNL     O6   15  -0.311  -0.425  -0.036
    1UNL    C10   16  -0.248  -0.203  -0.087
    1UNL     O7   17  -0.334  -0.239  -0.202
    1UNL    C11   18   0.009   0.333  -0.312
    1UNL    C12   19   0.152   0.285  -0.354
    1UNL    C13   20   0.258   0.294  -0.236
    1UNL    C14   21   0.370   0.205  -0.266
    1UNL     O8   22   0.454   0.185  -0.151
    1UNL    C15   23   0.418   0.087  -0.061
    1UNL     O9   24   0.322   0.013  -0.087
    1UNL    C16   25   0.487   0.087   0.071
    1UNL    C17   26   0.451   0.028   0.193
    1UNL    C18   27   0.335  -0.058   0.221
    1UNL    C19   28   0.338  -0.161   0.307
    1UNL    C20   29   0.221  -0.236   0.324
    1UNL    C21   30   0.105  -0.200   0.259
    1UNL    O10   31   0.008  -0.296   0.270
    1UNL    C22   32   0.099  -0.087   0.178
    1UNL    C23   33   0.211  -0.015   0.161
    1UNL    C24   34   0.196   0.278  -0.092
    1UNL    C25   35   0.060   0.203  -0.095
    1UNL    O11   36   0.071   0.068  -0.157
    1UNL     H1   37  -0.180   0.453  -0.112
    1UNL     H2   38  -0.244   0.234  -0.273
    1UNL     H3   39  -0.122   0.041  -0.057
    1UNL     H4   40  -0.425  -0.096   0.005
    1UNL     H5   41  -0.161  -0.169   0.252
    1UNL     H6   42  -0.442  -0.039   0.272
    1UNL     H7   43  -0.309  -0.025   0.380
    1UNL     H8   44  -0.378  -0.289   0.368
    1UNL     H9   45  -0.428  -0.290   0.122
    1UNL    H10   46  -0.335  -0.469   0.197
    1UNL    H11   47  -0.132  -0.347   0.054
    1UNL    H12   48  -0.312  -0.414  -0.131
    1UNL    H13   49  -0.137  -0.182  -0.112
    1UNL    H14   50  -0.346  -0.161  -0.261
    1UNL    H15   51  -0.060   0.303  -0.392
    1UNL    H16   52   0.009   0.443  -0.307
    1UNL    H17   53   0.193   0.336  -0.447
    1UNL    H18   54   0.147   0.175  -0.378
    1UNL    H19   55   0.298   0.405  -0.249
    1UNL    H20   56   0.446   0.226  -0.353
    1UNL    H21   57   0.333   0.107  -0.296
    1UNL    H22   58   0.577   0.144   0.067
    1UNL    H23   59   0.521   0.045   0.271
    1UNL    H24   60   0.423  -0.208   0.342
    1UNL    H25   61   0.228  -0.338   0.364
    1UNL    H26   62   0.040  -0.370   0.323
    1UNL    H27   63   0.007  -0.060   0.125
    1UNL    H28   64   0.210   0.079   0.115
    1UNL    H29   65   0.177   0.379  -0.047
    1UNL    H30   66   0.264   0.222  -0.041
    1UNL    H31   67   0.023   0.186   0.007
    1UNL    H32   68   0.158   0.031  -0.138
   0.00000   0.00000   0.00000   0.00000   0.00000   0.00000   0.00000   0.00000   0.00000
Generated with MDTraj, t= 89.0
 68
    1UNL     O1    1  -0.008   0.508  -0.068
    1UNL     C1    2  -0.086   0.417  -0.086
    1UNL     C2    3  -0.052   0.293  -0.171
    1UNL     C3    4  -0.177   0.201  -0.193
    1UNL     C4    5  -0.218   0.111  -0.106
    1UNL     O2    6  -0.320   0.025  -0.134
    1UNL     C5    7  -0.318  -0.074  -0.030
    1UNL     O3    8  -0.246  -0.052   0.097
    1UNL     C6    9  -0.281  -0.143   0.205
    1UNL     C7   10  -0.390  -0.087   0.296
    1UNL     O4   11  -0.441  -0.175   0.396
    1UNL     C8   12  -0.316  -0.282   0.146
    1UNL     O5   13  -0.302  -0.381   0.248
    1UNL     C9   14  -0.234  -0.308   0.020
    1UNL     O6   15  -0.237  -0.442  -0.036
    1UNL    C10   16  -0.275  -0.211  -0.089
    1UNL     O7   17  -0.380  -0.258  -0.168
    1UNL    C11   18   0.015   0.345  -0.309
    1UNL    C12   19   0.133   0.269  -0.351
    1UNL    C13   20   0.255   0.291  -0.243
    1UNL    C14   21   0.377   0.189  -0.249
    1UNL     O8   22   0.458   0.190  -0.135
    1UNL    C15   23   0.427   0.087  -0.051
    1UNL     O9   24   0.348  -0.001  -0.083
    1UNL    C16   25   0.487   0.099   0.086
    1UNL    C17   26   0.461   0.026   0.194
    1UNL    C18   27   0.351  -0.069   0.199
    1UNL    C19   28   0.354  -0.187   0.284
    1UNL    C20   29   0.234  -0.257   0.312
    1UNL    C21   30   0.113  -0.218   0.261
    1UNL    O10   31   0.005  -0.297   0.299
    1UNL    C22   32   0.107  -0.099   0.178
    1UNL    C23   33   0.225  -0.031   0.153
    1UNL    C24   34   0.187   0.294  -0.097
    1UNL    C25   35   0.061   0.208  -0.102
    1UNL    O11   36   0.079   0.086  -0.174
    1UNL     H1   37  -0.190   0.434  -0.052
    1UNL     H2   38  -0.209   0.206  -0.291
    1UNL     H3   39  -0.171   0.100  -0.007
    1UNL     H4   40  -0.431  -0.087  -0.005
    1UNL     H5   41  -0.188  -0.149   0.267
    1UNL     H6   42  -0.471  -0.045   0.234
    1UNL     H7   43  -0.357  -0.007   0.354
    1UNL     H8   44  -0.381  -0.249   0.411
    1UNL     H9   45  -0.428  -0.290   0.119
    1UNL    H10   46  -0.305  -0.470   0.206
    1UNL    H11   47  -0.127  -0.280   0.046
    1UNL    H12   48  -0.319  -0.446  -0.091
    1UNL    H13   49  -0.180  -0.194  -0.146
    1UNL    H14   50  -0.407  -0.181  -0.224
    1UNL    H15   51  -0.066   0.357  -0.384
    1UNL    H16   52   0.049   0.445  -0.284
    1UNL    H17   53   0.166   0.298  -0.454
    1UNL    H18   54   0.109   0.159  -0.362
    1UNL    H19   55   0.296   0.395  -0.282
    1UNL    H20   56   0.447   0.194  -0.340
    1UNL    H21   57   0.348   0.086  -0.255
    1UNL    H22   58   0.571   0.165   0.089
    1UNL    H23   59   0.528   0.037   0.279
    1UNL    H24   60   0.454  -0.218   0.324
    1UNL    H25   61   0.241  -0.356   0.357
    1UNL    H26   62   0.040  -0.375   0.344
    1UNL    H27   63   0.016  -0.055   0.143
    1UNL    H28   64   0.211   0.060   0.098
    1UNL    H29   65   0.154   0.396  -0.073
    1UNL    H30   66   0.258   0.271  -0.023
    1UNL    H31   67   0.033   0.177   0.001
    1UNL    H32   68   0.164   0.046  -0.145
   0.00000   0.00000   0.00000   0.00000   0.00000   0.00000   0.00000   0.00000   0.00000
Generated with MDTraj, t= 90.0
 68
    1UNL     O1    1  -0.046   0.506  -0.075
    1UNL     C1    2  -0.112   0.416  -0.105
    1UNL     C2    3  -0.052   0.292  -0.177
    1UNL     C3    4  -0.160   0.189  -0.215
    1UNL     C4    5  -0.201   0.095  -0.133
    1UNL     O2    6  -0.314   0.023  -0.143
    1UNL     C5    7  -0.330  -0.072  -0.035
    1UNL     O3    8  -0.262  -0.041   0.085
    1UNL     C6    9  -0.300  -0.135   0.193
    1UNL     C7   10  -0.427  -0.099   0.270
    1UNL     O4   11  -0.443  -0.166   0.394
    1UNL     C8   12  -0.314  -0.282   0.144
    1UNL     O5   13  -0.287  -0.372   0.253
    1UNL     C9   14  -0.222  -0.300   0.017
    1UNL     O6   15  -0.213  -0.444  -0.010
    1UNL    C10   16  -0.289  -0.212  -0.093
    1UNL     O7   17  -0.407  -0.275  -0.143
    1UNL    C11   18   0.014   0.349  -0.314
    1UNL    C12   19   0.156   0.293  -0.347
    1UNL    C13   20   0.268   0.307  -0.237
    1UNL    C14   21   0.376   0.194  -0.244
    1UNL     O8   22   0.459   0.191  -0.134
    1UNL    C15   23   0.430   0.077  -0.055
    1UNL     O9   24   0.340   0.003  -0.087
    1UNL    C16   25   0.516   0.056   0.061
    1UNL    C17   26   0.483  -0.016   0.168
    1UNL    C18   27   0.353  -0.076   0.198
    1UNL    C19   28   0.353  -0.189   0.271
    1UNL    C20   29   0.246  -0.258   0.305
    1UNL    C21   30   0.116  -0.218   0.261
    1UNL    O10   31   0.008  -0.296   0.297
    1UNL    C22   32   0.111  -0.104   0.190
    1UNL    C23   33   0.229  -0.035   0.152
    1UNL    C24   34   0.198   0.321  -0.102
    1UNL    C25   35   0.063   0.242  -0.074
    1UNL    O11   36   0.069   0.096  -0.067
    1UNL     H1   37  -0.205   0.405  -0.055
    1UNL     H2   38  -0.218   0.210  -0.308
    1UNL     H3   39  -0.136   0.070  -0.049
    1UNL     H4   40  -0.445  -0.073  -0.019
    1UNL     H5   41  -0.215  -0.120   0.264
    1UNL     H6   42  -0.521  -0.119   0.212
    1UNL     H7   43  -0.432   0.004   0.290
    1UNL     H8   44  -0.369  -0.233   0.409
    1UNL     H9   45  -0.422  -0.305   0.109
    1UNL    H10   46  -0.244  -0.453   0.219
    1UNL    H11   47  -0.119  -0.259   0.038
    1UNL    H12   48  -0.298  -0.472  -0.055
    1UNL    H13   49  -0.215  -0.192  -0.174
    1UNL    H14   50  -0.455  -0.216  -0.205
    1UNL    H15   51  -0.062   0.339  -0.394
    1UNL    H16   52   0.024   0.454  -0.289
    1UNL    H17   53   0.183   0.331  -0.448
    1UNL    H18   54   0.143   0.181  -0.369
    1UNL    H19   55   0.330   0.402  -0.270
    1UNL    H20   56   0.446   0.208  -0.331
    1UNL    H21   57   0.329   0.102  -0.260
    1UNL    H22   58   0.618   0.101   0.062
    1UNL    H23   59   0.555  -0.045   0.242
    1UNL    H24   60   0.444  -0.231   0.297
    1UNL    H25   61   0.255  -0.346   0.361
    1UNL    H26   62   0.037  -0.383   0.334
    1UNL    H27   63   0.014  -0.064   0.163
    1UNL    H28   64   0.222   0.058   0.092
    1UNL    H29   65   0.180   0.426  -0.084
    1UNL    H30   66   0.273   0.304  -0.020
    1UNL    H31   67   0.030   0.267   0.030
    1UNL    H32   68   0.160   0.065  -0.087
   0.00000   0.00000   0.00000   0.00000   0.00000   0.00000   0.00000   0.00000   0.00000
Generated with MDTraj, t= 91.0
 68
    1UNL     O1    1  -0.088   0.524  -0.076
    1UNL     C1    2  -0.131   0.420  -0.115
    1UNL     C2    3  -0.050   0.304  -0.169
    1UNL     C3    4  -0.148   0.194  -0.203
    1UNL     C4    5  -0.195   0.101  -0.116
    1UNL     O2    6  -0.287   0.010  -0.152
    1UNL     C5    7  -0.324  -0.084  -0.052
    1UNL     O3    8  -0.289  -0.028   0.074
    1UNL     C6    9  -0.300  -0.117   0.192
    1UNL     C7   10  -0.426  -0.080   0.277
    1UNL     O4   11  -0.457  -0.181   0.366
    1UNL     C8   12  -0.311  -0.264   0.147
    1UNL     O5   13  -0.274  -0.353   0.250
    1UNL     C9   14  -0.222  -0.300   0.024
    1UNL     O6   15  -0.224  -0.442   0.014
    1UNL    C10   16  -0.272  -0.227  -0.100
    1UNL     O7   17  -0.384  -0.293  -0.146
    1UNL    C11   18   0.022   0.348  -0.308
    1UNL    C12   19   0.151   0.262  -0.343
    1UNL    C13   20   0.252   0.298  -0.234
    1UNL    C14   21   0.379   0.206  -0.245
    1UNL     O8   22   0.453   0.186  -0.125
    1UNL    C15   23   0.415   0.071  -0.063
    1UNL     O9   24   0.321   0.003  -0.086
    1UNL    C16   25   0.509   0.037   0.048
    1UNL    C17   26   0.492  -0.049   0.149
    1UNL    C18   27   0.367  -0.100   0.200
    1UNL    C19   28   0.370  -0.224   0.271
    1UNL    C20   29   0.249  -0.283   0.296
    1UNL    C21   30   0.130  -0.213   0.257
    1UNL    O10   31   0.003  -0.260   0.284
    1UNL    C22   32   0.131  -0.085   0.203
    1UNL    C23   33   0.252  -0.032   0.168
    1UNL    C24   34   0.195   0.321  -0.089
    1UNL    C25   35   0.056   0.256  -0.058
    1UNL    O11   36   0.063   0.114  -0.063
    1UNL     H1   37  -0.239   0.413  -0.122
    1UNL     H2   38  -0.201   0.199  -0.294
    1UNL     H3   39  -0.169   0.094  -0.013
    1UNL     H4   40  -0.440  -0.081  -0.058
    1UNL     H5   41  -0.204  -0.100   0.245
    1UNL     H6   42  -0.512  -0.068   0.205
    1UNL     H7   43  -0.419   0.015   0.327
    1UNL     H8   44  -0.375  -0.208   0.421
    1UNL     H9   45  -0.419  -0.298   0.122
    1UNL    H10   46  -0.237  -0.440   0.218
    1UNL    H11   47  -0.117  -0.274   0.039
    1UNL    H12   48  -0.302  -0.464  -0.036
    1UNL    H13   49  -0.196  -0.231  -0.180
    1UNL    H14   50  -0.430  -0.244  -0.217
    1UNL    H15   51  -0.057   0.320  -0.380
    1UNL    H16   52   0.036   0.454  -0.307
    1UNL    H17   53   0.186   0.276  -0.448
    1UNL    H18   54   0.117   0.152  -0.343
    1UNL    H19   55   0.303   0.400  -0.263
    1UNL    H20   56   0.439   0.249  -0.325
    1UNL    H21   57   0.344   0.113  -0.275
    1UNL    H22   58   0.587   0.106   0.042
    1UNL    H23   59   0.577  -0.068   0.216
    1UNL    H24   60   0.466  -0.280   0.284
    1UNL    H25   61   0.244  -0.377   0.356
    1UNL    H26   62   0.001  -0.352   0.322
    1UNL    H27   63   0.038  -0.034   0.176
    1UNL    H28   64   0.261   0.061   0.120
    1UNL    H29   65   0.189   0.425  -0.066
    1UNL    H30   66   0.276   0.294  -0.009
    1UNL    H31   67   0.007   0.284   0.040
    1UNL    H32   68   0.156   0.076  -0.069
   0.00000   0.00000   0.00000   0.00000   0.00000   0.00000   0.00000   0.00000   0.00000
Generated with MDTraj, t= 92.0
 68
    1UNL     O1    1  -0.067   0.521  -0.081
    1UNL     C1    2  -0.127   0.417  -0.112
    1UNL     C2    3  -0.067   0.297  -0.180
    1UNL     C3    4  -0.161   0.190  -0.214
    1UNL     C4    5  -0.210   0.103  -0.122
    1UNL     O2    6  -0.305   0.010  -0.139
    1UNL     C5    7  -0.310  -0.083  -0.034
    1UNL     O3    8  -0.255  -0.044   0.089
    1UNL     C6    9  -0.309  -0.129   0.192
    1UNL     C7   10  -0.441  -0.066   0.250
    1UNL     O4   11  -0.482  -0.124   0.374
    1UNL     C8   12  -0.312  -0.281   0.151
    1UNL     O5   13  -0.300  -0.375   0.257
    1UNL     C9   14  -0.207  -0.314   0.035
    1UNL     O6   15  -0.207  -0.452   0.014
    1UNL    C10   16  -0.239  -0.218  -0.091
    1UNL     O7   17  -0.333  -0.290  -0.165
    1UNL    C11   18   0.016   0.370  -0.308
    1UNL    C12   19   0.146   0.295  -0.334
    1UNL    C13   20   0.245   0.306  -0.219
    1UNL    C14   21   0.348   0.184  -0.237
    1UNL     O8   22   0.448   0.186  -0.129
    1UNL    C15   23   0.432   0.069  -0.056
    1UNL     O9   24   0.347  -0.011  -0.080
    1UNL    C16   25   0.522   0.043   0.055
    1UNL    C17   26   0.502  -0.053   0.142
    1UNL    C18   27   0.369  -0.102   0.179
    1UNL    C19   28   0.362  -0.236   0.219
    1UNL    C20   29   0.234  -0.290   0.259
    1UNL    C21   30   0.119  -0.208   0.259
    1UNL    O10   31  -0.003  -0.242   0.308
    1UNL    C22   32   0.137  -0.072   0.222
    1UNL    C23   33   0.255  -0.023   0.176
    1UNL    C24   34   0.174   0.314  -0.081
    1UNL    C25   35   0.037   0.241  -0.070
    1UNL    O11   36   0.057   0.102  -0.074
    1UNL     H1   37  -0.235   0.421  -0.088
    1UNL     H2   38  -0.217   0.191  -0.306
    1UNL     H3   39  -0.179   0.106  -0.019
    1UNL     H4   40  -0.423  -0.103  -0.017
    1UNL     H5   41  -0.237  -0.116   0.273
    1UNL     H6   42  -0.522  -0.067   0.172
    1UNL     H7   43  -0.423   0.041   0.269
    1UNL     H8   44  -0.447  -0.209   0.383
    1UNL     H9   45  -0.419  -0.306   0.122
    1UNL    H10   46  -0.210  -0.411   0.272
    1UNL    H11   47  -0.112  -0.288   0.077
    1UNL    H12   48  -0.282  -0.465  -0.054
    1UNL    H13   49  -0.157  -0.188  -0.154
    1UNL    H14   50  -0.371  -0.229  -0.232
    1UNL    H15   51  -0.046   0.387  -0.397
    1UNL    H16   52   0.038   0.470  -0.274
    1UNL    H17   53   0.193   0.330  -0.429
    1UNL    H18   54   0.124   0.184  -0.353
    1UNL    H19   55   0.309   0.404  -0.225
    1UNL    H20   56   0.403   0.197  -0.330
    1UNL    H21   57   0.297   0.093  -0.236
    1UNL    H22   58   0.630   0.063   0.030
    1UNL    H23   59   0.590  -0.097   0.186
    1UNL    H24   60   0.443  -0.302   0.232
    1UNL    H25   61   0.240  -0.381   0.308
    1UNL    H26   62   0.004  -0.326   0.361
    1UNL    H27   63   0.056  -0.009   0.244
    1UNL    H28   64   0.262   0.080   0.139
    1UNL    H29   65   0.167   0.418  -0.056
    1UNL    H30   66   0.249   0.285   0.005
    1UNL    H31   67  -0.016   0.261   0.025
    1UNL    H32   68   0.149   0.073  -0.080
   0.00000   0.00000   0.00000   0.00000   0.00000   0.00000   0.00000   0.00000   0.00000
Generated with MDTraj, t= 93.0
 68
    1UNL     O1    1  -0.048   0.516  -0.065
    1UNL     C1    2  -0.101   0.410  -0.068
    1UNL     C2    3  -0.063   0.293  -0.157
    1UNL     C3    4  -0.176   0.207  -0.189
    1UNL     C4    5  -0.188   0.086  -0.132
    1UNL     O2    6  -0.295  -0.002  -0.143
    1UNL     C5    7  -0.304  -0.097  -0.039
    1UNL     O3    8  -0.279  -0.035   0.087
    1UNL     C6    9  -0.314  -0.119   0.195
    1UNL     C7   10  -0.450  -0.071   0.246
    1UNL     O4   11  -0.478  -0.125   0.374
    1UNL     C8   12  -0.319  -0.271   0.159
    1UNL     O5   13  -0.319  -0.350   0.272
    1UNL     C9   14  -0.205  -0.312   0.052
    1UNL     O6   15  -0.200  -0.448   0.018
    1UNL    C10   16  -0.215  -0.219  -0.074
    1UNL     O7   17  -0.270  -0.287  -0.182
    1UNL    C11   18  -0.005   0.360  -0.295
    1UNL    C12   19   0.132   0.298  -0.340
    1UNL    C13   20   0.250   0.309  -0.230
    1UNL    C14   21   0.350   0.195  -0.242
    1UNL     O8   22   0.441   0.188  -0.127
    1UNL    C15   23   0.412   0.067  -0.066
    1UNL     O9   24   0.315  -0.001  -0.077
    1UNL    C16   25   0.518   0.030   0.028
    1UNL    C17   26   0.489  -0.047   0.132
    1UNL    C18   27   0.362  -0.092   0.197
    1UNL    C19   28   0.346  -0.227   0.210
    1UNL    C20   29   0.224  -0.283   0.243
    1UNL    C21   30   0.113  -0.205   0.264
    1UNL    O10   31  -0.012  -0.264   0.302
    1UNL    C22   32   0.129  -0.072   0.250
    1UNL    C23   33   0.248  -0.010   0.219
    1UNL    C24   34   0.181   0.308  -0.088
    1UNL    C25   35   0.055   0.218  -0.093
    1UNL    O11   36   0.074   0.094  -0.158
    1UNL     H1   37  -0.156   0.387   0.019
    1UNL     H2   38  -0.270   0.240  -0.233
    1UNL     H3   39  -0.106   0.043  -0.073
    1UNL     H4   40  -0.416  -0.128  -0.037
    1UNL     H5   41  -0.240  -0.094   0.270
    1UNL     H6   42  -0.533  -0.108   0.179
    1UNL     H7   43  -0.461   0.041   0.247
    1UNL     H8   44  -0.443  -0.216   0.378
    1UNL     H9   45  -0.410  -0.302   0.101
    1UNL    H10   46  -0.225  -0.341   0.300
    1UNL    H11   47  -0.109  -0.302   0.096
    1UNL    H12   48  -0.229  -0.458  -0.072
    1UNL    H13   49  -0.117  -0.190  -0.103
    1UNL    H14   50  -0.308  -0.223  -0.246
    1UNL    H15   51  -0.078   0.347  -0.377
    1UNL    H16   52   0.004   0.467  -0.286
    1UNL    H17   53   0.167   0.337  -0.438
    1UNL    H18   54   0.120   0.186  -0.351
    1UNL    H19   55   0.296   0.415  -0.236
    1UNL    H20   56   0.413   0.214  -0.330
    1UNL    H21   57   0.304   0.101  -0.252
    1UNL    H22   58   0.616   0.055   0.011
    1UNL    H23   59   0.572  -0.077   0.195
    1UNL    H24   60   0.430  -0.294   0.197
    1UNL    H25   61   0.210  -0.394   0.242
    1UNL    H26   62   0.001  -0.361   0.320
    1UNL    H27   63   0.035  -0.014   0.258
    1UNL    H28   64   0.261   0.092   0.183
    1UNL    H29   65   0.162   0.408  -0.056
    1UNL    H30   66   0.263   0.285  -0.011
    1UNL    H31   67   0.025   0.190   0.007
    1UNL    H32   68   0.159   0.051  -0.123
   0.00000   0.00000   0.00000   0.00000   0.00000   0.00000   0.00000   0.00000   0.00000
Generated with MDTraj, t= 94.0
 68
    1UNL     O1    1  -0.016   0.477  -0.017
    1UNL     C1    2  -0.093   0.405  -0.068
    1UNL     C2    3  -0.057   0.296  -0.164
    1UNL     C3    4  -0.180   0.209  -0.185
    1UNL     C4    5  -0.203   0.085  -0.134
    1UNL     O2    6  -0.303  -0.003  -0.168
    1UNL     C5    7  -0.320  -0.096  -0.061
    1UNL     O3    8  -0.326  -0.020   0.066
    1UNL     C6    9  -0.325  -0.102   0.186
    1UNL     C7   10  -0.454  -0.070   0.268
    1UNL     O4   11  -0.494  -0.159   0.369
    1UNL     C8   12  -0.308  -0.257   0.163
    1UNL     O5   13  -0.278  -0.317   0.290
    1UNL     C9   14  -0.195  -0.297   0.062
    1UNL     O6   15  -0.204  -0.434   0.028
    1UNL    C10   16  -0.208  -0.200  -0.066
    1UNL     O7   17  -0.221  -0.288  -0.177
    1UNL    C11   18   0.008   0.363  -0.293
    1UNL    C12   19   0.148   0.311  -0.340
    1UNL    C13   20   0.255   0.302  -0.222
    1UNL    C14   21   0.343   0.190  -0.260
    1UNL     O8   22   0.445   0.174  -0.161
    1UNL    C15   23   0.406   0.076  -0.071
    1UNL     O9   24   0.317   0.004  -0.098
    1UNL    C16   25   0.495   0.071   0.050
    1UNL    C17   26   0.476  -0.014   0.154
    1UNL    C18   27   0.350  -0.092   0.177
    1UNL    C19   28   0.346  -0.235   0.202
    1UNL    C20   29   0.227  -0.291   0.234
    1UNL    C21   30   0.105  -0.222   0.265
    1UNL    O10   31  -0.005  -0.283   0.328
    1UNL    C22   32   0.112  -0.080   0.238
    1UNL    C23   33   0.237  -0.019   0.206
    1UNL    C24   34   0.186   0.282  -0.083
    1UNL    C25   35   0.050   0.205  -0.093
    1UNL    O11   36   0.058   0.078  -0.154
    1UNL     H1   37  -0.196   0.400  -0.036
    1UNL     H2   38  -0.258   0.248  -0.244
    1UNL     H3   39  -0.133   0.036  -0.065
    1UNL     H4   40  -0.424  -0.147  -0.073
    1UNL     H5   41  -0.243  -0.062   0.243
    1UNL     H6   42  -0.542  -0.057   0.198
    1UNL     H7   43  -0.451   0.027   0.329
    1UNL     H8   44  -0.438  -0.249   0.358
    1UNL     H9   45  -0.405  -0.302   0.140
    1UNL    H10   46  -0.186  -0.299   0.315
    1UNL    H11   47  -0.104  -0.283   0.115
    1UNL    H12   48  -0.283  -0.447  -0.035
    1UNL    H13   49  -0.115  -0.155  -0.078
    1UNL    H14   50  -0.236  -0.235  -0.260
    1UNL    H15   51  -0.057   0.346  -0.379
    1UNL    H16   52   0.022   0.470  -0.286
    1UNL    H17   53   0.196   0.388  -0.406
    1UNL    H18   54   0.135   0.213  -0.390
    1UNL    H19   55   0.312   0.402  -0.212
    1UNL    H20   56   0.402   0.221  -0.352
    1UNL    H21   57   0.293   0.098  -0.278
    1UNL    H22   58   0.583   0.142   0.048
    1UNL    H23   59   0.550  -0.034   0.230
    1UNL    H24   60   0.438  -0.293   0.193
    1UNL    H25   61   0.226  -0.393   0.257
    1UNL    H26   62   0.026  -0.374   0.340
    1UNL    H27   63   0.028  -0.018   0.233
    1UNL    H28   64   0.238   0.087   0.194
    1UNL    H29   65   0.184   0.377  -0.032
    1UNL    H30   66   0.258   0.225  -0.030
    1UNL    H31   67   0.026   0.174   0.008
    1UNL    H32   68   0.142   0.039  -0.131
   0.00000   0.00000   0.00000   0.00000   0.00000   0.00000   0.00000   0.00000   0.00000
Generated with MDTraj, t= 95.0
 68
    1UNL     O1    1  -0.070   0.430   0.022
    1UNL     C1    2  -0.126   0.366  -0.065
    1UNL     C2    3  -0.054   0.281  -0.163
    1UNL     C3    4  -0.158   0.186  -0.220
    1UNL     C4    5  -0.245   0.126  -0.137
    1UNL     O2    6  -0.324   0.020  -0.162
    1UNL     C5    7  -0.316  -0.070  -0.048
    1UNL     O3    8  -0.311  -0.004   0.082
    1UNL     C6    9  -0.335  -0.096   0.189
    1UNL     C7   10  -0.478  -0.093   0.239
    1UNL     O4   11  -0.492  -0.140   0.368
    1UNL     C8   12  -0.300  -0.242   0.158
    1UNL     O5   13  -0.275  -0.310   0.284
    1UNL     C9   14  -0.184  -0.265   0.064
    1UNL     O6   15  -0.184  -0.399   0.022
    1UNL    C10   16  -0.201  -0.169  -0.061
    1UNL     O7   17  -0.220  -0.249  -0.180
    1UNL    C11   18   0.016   0.354  -0.278
    1UNL    C12   19   0.134   0.274  -0.339
    1UNL    C13   20   0.248   0.279  -0.238
    1UNL    C14   21   0.350   0.173  -0.265
    1UNL     O8   22   0.446   0.180  -0.161
    1UNL    C15   23   0.422   0.071  -0.081
    1UNL     O9   24   0.348  -0.017  -0.108
    1UNL    C16   25   0.499   0.064   0.041
    1UNL    C17   26   0.456   0.007   0.156
    1UNL    C18   27   0.344  -0.080   0.187
    1UNL    C19   28   0.352  -0.215   0.215
    1UNL    C20   29   0.247  -0.295   0.253
    1UNL    C21   30   0.122  -0.234   0.270
    1UNL    O10   31   0.023  -0.318   0.321
    1UNL    C22   32   0.104  -0.101   0.230
    1UNL    C23   33   0.213  -0.027   0.196
    1UNL    C24   34   0.196   0.276  -0.093
    1UNL    C25   35   0.059   0.201  -0.090
    1UNL    O11   36   0.062   0.071  -0.130
    1UNL     H1   37  -0.231   0.395  -0.084
    1UNL     H2   38  -0.145   0.154  -0.327
    1UNL     H3   39  -0.248   0.151  -0.033
    1UNL     H4   40  -0.415  -0.130  -0.052
    1UNL     H5   41  -0.267  -0.053   0.263
    1UNL     H6   42  -0.548  -0.150   0.171
    1UNL     H7   43  -0.511   0.017   0.237
    1UNL     H8   44  -0.444  -0.219   0.376
    1UNL     H9   45  -0.384  -0.293   0.113
    1UNL    H10   46  -0.181  -0.297   0.312
    1UNL    H11   47  -0.092  -0.245   0.111
    1UNL    H12   48  -0.170  -0.398  -0.073
    1UNL    H13   49  -0.117  -0.112  -0.083
    1UNL    H14   50  -0.238  -0.183  -0.250
    1UNL    H15   51  -0.047   0.383  -0.362
    1UNL    H16   52   0.063   0.445  -0.243
    1UNL    H17   53   0.158   0.324  -0.437
    1UNL    H18   54   0.102   0.171  -0.353
    1UNL    H19   55   0.310   0.376  -0.245
    1UNL    H20   56   0.402   0.199  -0.365
    1UNL    H21   57   0.306   0.073  -0.278
    1UNL    H22   58   0.592   0.116   0.036
    1UNL    H23   59   0.535   0.011   0.230
    1UNL    H24   60   0.443  -0.265   0.196
    1UNL    H25   61   0.242  -0.404   0.267
    1UNL    H26   62   0.061  -0.396   0.363
    1UNL    H27   63   0.007  -0.059   0.193
    1UNL    H28   64   0.203   0.074   0.157
    1UNL    H29   65   0.178   0.379  -0.060
    1UNL    H30   66   0.267   0.232  -0.036
    1UNL    H31   67   0.033   0.189   0.016
    1UNL    H32   68   0.156   0.034  -0.119
   0.00000   0.00000   0.00000   0.00000   0.00000   0.00000   0.00000   0.00000   0.00000
Generated with MDTraj, t= 96.0
 68
    1UNL     O1    1  -0.114   0.373   0.028
    1UNL     C1    2  -0.106   0.392  -0.091
    1UNL     C2    3  -0.055   0.276  -0.177
    1UNL     C3    4  -0.165   0.187  -0.216
    1UNL     C4    5  -0.249   0.131  -0.134
    1UNL     O2    6  -0.344   0.034  -0.154
    1UNL     C5    7  -0.330  -0.061  -0.049
    1UNL     O3    8  -0.329   0.000   0.084
    1UNL     C6    9  -0.342  -0.086   0.195
    1UNL     C7   10  -0.481  -0.074   0.261
    1UNL     O4   11  -0.502  -0.168   0.365
    1UNL     C8   12  -0.306  -0.235   0.155
    1UNL     O5   13  -0.275  -0.319   0.273
    1UNL     C9   14  -0.180  -0.236   0.063
    1UNL     O6   15  -0.141  -0.367   0.025
    1UNL    C10   16  -0.205  -0.149  -0.065
    1UNL     O7   17  -0.224  -0.228  -0.186
    1UNL    C11   18   0.008   0.339  -0.305
    1UNL    C12   19   0.140   0.276  -0.348
    1UNL    C13   20   0.249   0.275  -0.238
    1UNL    C14   21   0.342   0.156  -0.256
    1UNL     O8   22   0.439   0.158  -0.156
    1UNL    C15   23   0.413   0.055  -0.069
    1UNL     O9   24   0.316  -0.014  -0.082
    1UNL    C16   25   0.507   0.054   0.047
    1UNL    C17   26   0.485  -0.009   0.164
    1UNL    C18   27   0.359  -0.076   0.197
    1UNL    C19   28   0.375  -0.207   0.238
    1UNL    C20   29   0.268  -0.288   0.270
    1UNL    C21   30   0.136  -0.251   0.252
    1UNL    O10   31   0.025  -0.327   0.285
    1UNL    C22   32   0.121  -0.108   0.225
    1UNL    C23   33   0.228  -0.024   0.201
    1UNL    C24   34   0.193   0.282  -0.097
    1UNL    C25   35   0.056   0.206  -0.096
    1UNL    O11   36   0.061   0.071  -0.127
    1UNL     H1   37  -0.131   0.487  -0.130
    1UNL     H2   38  -0.167   0.167  -0.317
    1UNL     H3   39  -0.237   0.159  -0.030
    1UNL     H4   40  -0.426  -0.128  -0.060
    1UNL     H5   41  -0.268  -0.045   0.266
    1UNL     H6   42  -0.550  -0.091   0.175
    1UNL     H7   43  -0.498   0.033   0.301
    1UNL     H8   44  -0.433  -0.246   0.358
    1UNL     H9   45  -0.382  -0.284   0.099
    1UNL    H10   46  -0.177  -0.318   0.289
    1UNL    H11   47  -0.096  -0.202   0.116
    1UNL    H12   48  -0.098  -0.362  -0.066
    1UNL    H13   49  -0.123  -0.092  -0.092
    1UNL    H14   50  -0.247  -0.162  -0.254
    1UNL    H15   51  -0.059   0.336  -0.390
    1UNL    H16   52   0.024   0.446  -0.293
    1UNL    H17   53   0.181   0.332  -0.438
    1UNL    H18   54   0.113   0.178  -0.385
    1UNL    H19   55   0.319   0.366  -0.252
    1UNL    H20   56   0.382   0.160  -0.365
    1UNL    H21   57   0.281   0.064  -0.257
    1UNL    H22   58   0.603   0.106   0.033
    1UNL    H23   59   0.569  -0.003   0.232
    1UNL    H24   60   0.481  -0.238   0.259
    1UNL    H25   61   0.294  -0.380   0.320
    1UNL    H26   62   0.061  -0.417   0.294
    1UNL    H27   63   0.021  -0.080   0.229
    1UNL    H28   64   0.216   0.075   0.166
    1UNL    H29   65   0.179   0.385  -0.073
    1UNL    H30   66   0.254   0.227  -0.029
    1UNL    H31   67   0.020   0.215   0.009
    1UNL    H32   68   0.151   0.039  -0.110
   0.00000   0.00000   0.00000   0.00000   0.00000   0.00000   0.00000   0.00000   0.00000
Generated with MDTraj, t= 97.0
 68
    1UNL     O1    1  -0.165   0.395   0.007
    1UNL     C1    2  -0.114   0.406  -0.097
    1UNL     C2    3  -0.060   0.296  -0.187
    1UNL     C3    4  -0.175   0.203  -0.221
    1UNL     C4    5  -0.249   0.138  -0.135
    1UNL     O2    6  -0.347   0.046  -0.153
    1UNL     C5    7  -0.342  -0.048  -0.047
    1UNL     O3    8  -0.338   0.004   0.090
    1UNL     C6    9  -0.352  -0.097   0.191
    1UNL     C7   10  -0.492  -0.113   0.258
    1UNL     O4   11  -0.487  -0.194   0.371
    1UNL     C8   12  -0.295  -0.234   0.149
    1UNL     O5   13  -0.264  -0.317   0.264
    1UNL     C9   14  -0.172  -0.222   0.053
    1UNL     O6   15  -0.131  -0.347   0.016
    1UNL    C10   16  -0.219  -0.142  -0.072
    1UNL     O7   17  -0.256  -0.226  -0.182
    1UNL    C11   18   0.016   0.359  -0.310
    1UNL    C12   19   0.137   0.267  -0.354
    1UNL    C13   20   0.249   0.250  -0.244
    1UNL    C14   21   0.355   0.136  -0.257
    1UNL     O8   22   0.448   0.145  -0.164
    1UNL    C15   23   0.410   0.065  -0.056
    1UNL     O9   24   0.313  -0.004  -0.053
    1UNL    C16   25   0.497   0.063   0.062
    1UNL    C17   26   0.504  -0.032   0.163
    1UNL    C18   27   0.391  -0.104   0.225
    1UNL    C19   28   0.395  -0.244   0.253
    1UNL    C20   29   0.276  -0.306   0.279
    1UNL    C21   30   0.153  -0.236   0.269
    1UNL    O10   31   0.026  -0.294   0.278
    1UNL    C22   32   0.153  -0.099   0.250
    1UNL    C23   33   0.266  -0.034   0.227
    1UNL    C24   34   0.186   0.269  -0.105
    1UNL    C25   35   0.040   0.207  -0.110
    1UNL    O11   36   0.054   0.079  -0.163
    1UNL     H1   37  -0.110   0.504  -0.144
    1UNL     H2   38  -0.195   0.196  -0.329
    1UNL     H3   39  -0.230   0.157  -0.029
    1UNL     H4   40  -0.447  -0.100  -0.050
    1UNL     H5   41  -0.291  -0.058   0.276
    1UNL     H6   42  -0.572  -0.147   0.190
    1UNL     H7   43  -0.529  -0.010   0.296
    1UNL     H8   44  -0.411  -0.263   0.366
    1UNL     H9   45  -0.376  -0.282   0.100
    1UNL    H10   46  -0.165  -0.324   0.266
    1UNL    H11   47  -0.092  -0.181   0.109
    1UNL    H12   48  -0.208  -0.402  -0.017
    1UNL    H13   49  -0.136  -0.089  -0.108
    1UNL    H14   50  -0.283  -0.167  -0.255
    1UNL    H15   51  -0.049   0.375  -0.395
    1UNL    H16   52   0.041   0.464  -0.292
    1UNL    H17   53   0.186   0.309  -0.446
    1UNL    H18   54   0.102   0.170  -0.390
    1UNL    H19   55   0.320   0.339  -0.257
    1UNL    H20   56   0.403   0.125  -0.362
    1UNL    H21   57   0.294   0.042  -0.258
    1UNL    H22   58   0.587   0.128   0.054
    1UNL    H23   59   0.595  -0.041   0.224
    1UNL    H24   60   0.482  -0.299   0.248
    1UNL    H25   61   0.267  -0.406   0.318
    1UNL    H26   62   0.027  -0.393   0.285
    1UNL    H27   63   0.058  -0.045   0.247
    1UNL    H28   64   0.261   0.066   0.180
    1UNL    H29   65   0.184   0.367  -0.074
    1UNL    H30   66   0.241   0.200  -0.034
    1UNL    H31   67  -0.004   0.203  -0.007
    1UNL    H32   68   0.132   0.033  -0.117
   0.00000   0.00000   0.00000   0.00000   0.00000   0.00000   0.00000   0.00000   0.00000
Generated with MDTraj, t= 98.0
 68
    1UNL     O1    1  -0.166   0.407  -0.014
    1UNL     C1    2  -0.105   0.414  -0.116
    1UNL     C2    3  -0.060   0.290  -0.187
    1UNL     C3    4  -0.182   0.200  -0.218
    1UNL     C4    5  -0.266   0.159  -0.123
    1UNL     O2    6  -0.355   0.059  -0.146
    1UNL     C5    7  -0.346  -0.046  -0.053
    1UNL     O3    8  -0.325   0.003   0.085
    1UNL     C6    9  -0.338  -0.098   0.187
    1UNL     C7   10  -0.480  -0.112   0.235
    1UNL     O4   11  -0.495  -0.188   0.350
    1UNL     C8   12  -0.294  -0.238   0.136
    1UNL     O5   13  -0.246  -0.308   0.242
    1UNL     C9   14  -0.176  -0.222   0.032
    1UNL     O6   15  -0.114  -0.339  -0.002
    1UNL    C10   16  -0.235  -0.150  -0.090
    1UNL     O7   17  -0.292  -0.245  -0.184
    1UNL    C11   18   0.010   0.319  -0.324
    1UNL    C12   19   0.138   0.252  -0.355
    1UNL    C13   20   0.237   0.266  -0.238
    1UNL    C14   21   0.346   0.155  -0.241
    1UNL     O8   22   0.437   0.149  -0.139
    1UNL    C15   23   0.416   0.047  -0.051
    1UNL     O9   24   0.308  -0.007  -0.046
    1UNL    C16   25   0.525   0.002   0.032
    1UNL    C17   26   0.511  -0.037   0.160
    1UNL    C18   27   0.390  -0.090   0.216
    1UNL    C19   28   0.383  -0.233   0.208
    1UNL    C20   29   0.273  -0.301   0.241
    1UNL    C21   30   0.156  -0.235   0.288
    1UNL    O10   31   0.057  -0.298   0.355
    1UNL    C22   32   0.162  -0.096   0.287
    1UNL    C23   33   0.273  -0.019   0.245
    1UNL    C24   34   0.175   0.278  -0.095
    1UNL    C25   35   0.034   0.216  -0.088
    1UNL    O11   36   0.039   0.081  -0.107
    1UNL     H1   37  -0.066   0.512  -0.148
    1UNL     H2   38  -0.199   0.174  -0.322
    1UNL     H3   39  -0.258   0.184  -0.016
    1UNL     H4   40  -0.449  -0.101  -0.045
    1UNL     H5   41  -0.268  -0.061   0.268
    1UNL     H6   42  -0.541  -0.157   0.158
    1UNL     H7   43  -0.531  -0.010   0.253
    1UNL     H8   44  -0.429  -0.256   0.343
    1UNL     H9   45  -0.364  -0.293   0.077
    1UNL    H10   46  -0.149  -0.299   0.254
    1UNL    H11   47  -0.097  -0.162   0.073
    1UNL    H12   48  -0.109  -0.345  -0.097
    1UNL    H13   49  -0.155  -0.099  -0.142
    1UNL    H14   50  -0.344  -0.199  -0.254
    1UNL    H15   51  -0.063   0.311  -0.401
    1UNL    H16   52   0.019   0.428  -0.328
    1UNL    H17   53   0.191   0.281  -0.449
    1UNL    H18   54   0.124   0.145  -0.369
    1UNL    H19   55   0.294   0.362  -0.263
    1UNL    H20   56   0.403   0.152  -0.342
    1UNL    H21   57   0.300   0.055  -0.248
    1UNL    H22   58   0.619   0.016  -0.004
    1UNL    H23   59   0.598  -0.070   0.212
    1UNL    H24   60   0.481  -0.279   0.174
    1UNL    H25   61   0.283  -0.411   0.257
    1UNL    H26   62   0.078  -0.395   0.371
    1UNL    H27   63   0.080  -0.047   0.334
    1UNL    H28   64   0.279   0.086   0.250
    1UNL    H29   65   0.170   0.374  -0.061
    1UNL    H30   66   0.238   0.216  -0.022
    1UNL    H31   67  -0.007   0.224   0.016
    1UNL    H32   68   0.130   0.049  -0.081
   0.00000   0.00000   0.00000   0.00000   0.00000   0.00000   0.00000   0.00000   0.00000
Generated with MDTraj, t= 99.0
 68
    1UNL     O1    1  -0.150   0.422  -0.006
    1UNL     C1    2  -0.140   0.412  -0.128
    1UNL     C2    3  -0.067   0.291  -0.189
    1UNL     C3    4  -0.168   0.191  -0.221
    1UNL     C4    5  -0.260   0.150  -0.137
    1UNL     O2    6  -0.355   0.057  -0.154
    1UNL     C5    7  -0.345  -0.038  -0.052
    1UNL     O3    8  -0.313   0.013   0.083
    1UNL     C6    9  -0.334  -0.091   0.183
    1UNL     C7   10  -0.468  -0.105   0.243
    1UNL     O4   11  -0.483  -0.223   0.325
    1UNL     C8   12  -0.275  -0.229   0.135
    1UNL     O5   13  -0.224  -0.302   0.240
    1UNL     C9   14  -0.162  -0.214   0.021
    1UNL     O6   15  -0.109  -0.337  -0.004
    1UNL    C10   16  -0.244  -0.148  -0.095
    1UNL     O7   17  -0.299  -0.252  -0.181
    1UNL    C11   18   0.008   0.339  -0.322
    1UNL    C12   19   0.122   0.246  -0.347
    1UNL    C13   20   0.237   0.253  -0.246
    1UNL    C14   21   0.334   0.137  -0.243
    1UNL     O8   22   0.433   0.155  -0.148
    1UNL    C15   23   0.414   0.064  -0.048
    1UNL     O9   24   0.311  -0.001  -0.051
    1UNL    C16   25   0.518   0.041   0.053
    1UNL    C17   26   0.507  -0.056   0.146
    1UNL    C18   27   0.385  -0.125   0.198
    1UNL    C19   28   0.365  -0.264   0.200
    1UNL    C20   29   0.250  -0.316   0.248
    1UNL    C21   30   0.159  -0.231   0.318
    1UNL    O10   31   0.034  -0.273   0.368
    1UNL    C22   32   0.184  -0.092   0.322
    1UNL    C23   33   0.295  -0.043   0.263
    1UNL    C24   34   0.182   0.284  -0.108
    1UNL    C25   35   0.037   0.224  -0.086
    1UNL    O11   36   0.032   0.079  -0.096
    1UNL     H1   37  -0.205   0.476  -0.184
    1UNL     H2   38  -0.179   0.160  -0.320
    1UNL     H3   39  -0.253   0.194  -0.038
    1UNL     H4   40  -0.450  -0.088  -0.035
    1UNL     H5   41  -0.271  -0.059   0.271
    1UNL     H6   42  -0.544  -0.100   0.170
    1UNL     H7   43  -0.499  -0.020   0.313
    1UNL     H8   44  -0.397  -0.282   0.307
    1UNL     H9   45  -0.355  -0.292   0.097
    1UNL    H10   46  -0.132  -0.278   0.256
    1UNL    H11   47  -0.089  -0.145   0.062
    1UNL    H12   48  -0.150  -0.363  -0.090
    1UNL    H13   49  -0.179  -0.090  -0.160
    1UNL    H14   50  -0.366  -0.211  -0.243
    1UNL    H15   51  -0.058   0.353  -0.405
    1UNL    H16   52   0.038   0.443  -0.307
    1UNL    H17   53   0.161   0.258  -0.447
    1UNL    H18   54   0.090   0.141  -0.331
    1UNL    H19   55   0.301   0.340  -0.285
    1UNL    H20   56   0.393   0.110  -0.336
    1UNL    H21   57   0.288   0.043  -0.221
    1UNL    H22   58   0.609   0.109   0.044
    1UNL    H23   59   0.602  -0.074   0.199
    1UNL    H24   60   0.432  -0.323   0.141
    1UNL    H25   61   0.222  -0.413   0.222
    1UNL    H26   62   0.016  -0.370   0.359
    1UNL    H27   63   0.112  -0.033   0.374
    1UNL    H28   64   0.303   0.067   0.272
    1UNL    H29   65   0.173   0.388  -0.084
    1UNL    H30   66   0.250   0.243  -0.029
    1UNL    H31   67   0.004   0.243   0.017
    1UNL    H32   68   0.120   0.042  -0.084
   0.00000   0.00000   0.00000   0.00000   0.00000   0.00000   0.00000   0.00000   0.00000
