1TPCN06149
33
    1res  C1    1   -0.177  -0.435   0.176
    1res  C2    2   -0.233  -0.142   0.221
    1res  C3    3    0.011  -0.240   0.133
    1res  C4    4   -0.192  -0.051  -0.072
    1res  C5    5   -0.427  -0.002  -0.094
    1res  C6    6   -0.652  -0.148   0.029
    1res  C7    7   -0.832  -0.367  -0.011
    1res  C8    8   -0.783  -0.661   0.015
    1res  C9    9   -0.890  -0.555  -0.252
    1res  C10   10   -0.879  -0.323  -0.324
    1res  C11   11   -1.009  -0.231  -0.140
    1res  C12   12   -0.693   0.123  -0.058
    1res  C13   13   -0.508   0.277  -0.053
    1res  C14   14   -0.737   0.435   0.059
    1res  C15   15   -1.032   0.531   0.057
    1res  C16   16   -0.813   0.721   0.059
    1res  C17   17   -0.610   0.708   0.161
    1res  C18   18   -0.495   0.552   0.021
    1res  C19   19   -0.411   0.203  -0.263
    1res  C20   20    0.060   0.123   0.123
    1res  C21   21    0.140   0.006  -0.118
    1res  C22   22    0.331  -0.276   0.037
    1res  C23   23    0.397   0.103   0.032
    1res  C24   24    0.635  -0.172   0.115
    1res  C25   25    0.731   0.091   0.165
    1res  C26   26    0.883   0.079  -0.036
    1res  C27   27    1.103   0.185   0.101
    1res  C28   28    1.361   0.128   0.102
    1res  C29   29    1.344   0.089  -0.108
    1res  C30   30    1.180   0.263  -0.178
    1res  C31   31    0.852  -0.099  -0.208
    1res  C32   32    0.932  -0.242   0.054
    1res  C33   33    0.495  -0.021  -0.200
  10.00000  10.00000  10.00000
