[ moleculetype ]
; name        nrexcl
res           1

[ atoms ]
;    nr  type resnr resid  atom  cgnr     charge       mass
      1 SC4       1 res   C1        1      0.000     54.000
      2 TC3       1 res   C2        2      0.000     36.000
      3 SC5       1 res   C3        3      0.000     54.000
      4 SN4a      1 res   C4        4      0.000     54.000
      5 SN4a      1 res   C5        5      0.000     54.000
      6 TN3r      1 res   C6        6      0.000     36.000
      7 SN4a      1 res   C7        7      0.000     54.000
      8 TP1       1 res   C8        8      0.000     36.000
      9 TN6       1 res   C9        9      0.000     36.000
     10 TN6       1 res   C10      10      0.000     36.000
     11 TN6       1 res   C11      11      0.000     36.000
     12 TN6       1 res   C12      12      0.000     36.000
     13 TN6       1 res   C13      13      0.000     36.000
     14 SN4a      1 res   C14      14      0.000     54.000
     15 TP1       1 res   C15      15      0.000     36.000
     16 TN6       1 res   C16      16      0.000     36.000
     17 TN6       1 res   C17      17      0.000     36.000
     18 TN6       1 res   C18      18      0.000     36.000
     19 TN6       1 res   C19      19      0.000     36.000
     20 TC3       1 res   C20      20      0.000     36.000
     21 SC4       1 res   C21      21      0.000     54.000
     22 TC5       1 res   C22      22      0.000     36.000
     23 SC4       1 res   C23      23      0.000     54.000
     24 SC4       1 res   C24      24      0.000     54.000
     25 TC3       1 res   C25      25      0.000     36.000
     26 TN6       1 res   C26      26      0.000     36.000
     27 SN4a      1 res   C27      27      0.000     54.000
     28 TN6       1 res   C28      28      0.000     36.000
     29 TN6       1 res   C29      29      0.000     36.000
     30 TN6       1 res   C30      30      0.000     36.000
     31 TC4       1 res   C31      31      0.000     36.000
     32 SP2       1 res   C32      32      0.000     54.000
     33 TC3       1 res   C33      33      0.000     36.000

[ bonds ]
;  ai    aj   funct      b0(nm)        k
    1     2     1      0.30126    20000
    1     3     1      0.27376    20000
    2     3     1      0.27761    20000
    3     4     1      0.34518    20000
    3    20     1      0.36640    20000
    3    21     1      0.37469    20000
    4     5     1      0.24148    20000
    5     6     1      0.29538    20000
    5    12     1      0.29553    20000
    5    19     1      0.26613    20000
    6     7     1      0.28611    20000
    7     8     1      0.29935    20000
    7     9     1      0.31172    20000
    7    11     1      0.25839    20000
    9    10     1      0.24361    20000
   10    11     1      0.24343    20000
   12    13     1      0.24026    20000
   13    14     1      0.30063    20000
   13    19     1      0.24287    20000
   14    15     1      0.30934    20000
   14    16     1      0.29502    20000
   14    18     1      0.27135    20000
   16    17     1      0.22776    20000
   17    18     1      0.23945    20000
   20    21     1      0.27981    20000
   21    22     1      0.37358    20000
   21    23     1      0.31232    20000
   22    23     1      0.38422    20000
   23    24     1      0.37347    20000
   23    33     1      0.28021    20000
   24    25     1      0.28377    20000
   24    31     1      0.39581    20000
   24    33     1      0.37632    20000
   25    26     1      0.25303    20000
   26    27     1      0.27998    20000
   26    31     1      0.24956    20000
   27    28     1      0.26423    20000
   27    30     1      0.30019    20000
   28    29     1      0.21463    20000
   29    30     1      0.24868    20000
   31    32     1      0.30875    20000
