Generated with MDTraj, t= 0.0
 54
    1UNL     C1    1  -0.667   0.201   0.147
    1UNL     C2    2  -0.520   0.182   0.126
    1UNL     O1    3  -0.468   0.078   0.160
    1UNL     O2    4  -0.454   0.286   0.068
    1UNL     C3    5  -0.316   0.256   0.056
    1UNL     C4    6  -0.275   0.225  -0.088
    1UNL     O3    7  -0.135   0.189  -0.092
    1UNL     C5    8  -0.107   0.056  -0.141
    1UNL     O4    9   0.031   0.021  -0.139
    1UNL     C6   10   0.065  -0.076  -0.236
    1UNL     C7   11   0.199  -0.135  -0.212
    1UNL     C8   12   0.233  -0.189  -0.095
    1UNL     C9   13   0.136  -0.196   0.017
    1UNL    C10   14   0.370  -0.245  -0.074
    1UNL    C11   15   0.431  -0.199   0.055
    1UNL     O5   16   0.399  -0.254   0.158
    1UNL    C12   17   0.523  -0.085   0.052
    1UNL    C13   18   0.575  -0.026   0.159
    1UNL    C14   19   0.541  -0.070   0.297
    1UNL    C15   20   0.666   0.090   0.142
    1UNL    C16   21  -0.193  -0.049  -0.065
    1UNL     O6   22  -0.160  -0.181  -0.103
    1UNL    C17   23  -0.346  -0.022  -0.091
    1UNL     O7   24  -0.398  -0.121  -0.176
    1UNL    C18   25  -0.367   0.118  -0.155
    1UNL     O8   26  -0.343   0.109  -0.294
    1UNL     H1   27  -0.700   0.295   0.104
    1UNL     H2   28  -0.690   0.202   0.254
    1UNL     H3   29  -0.723   0.120   0.101
    1UNL     H4   30  -0.260   0.342   0.094
    1UNL     H5   31  -0.293   0.171   0.121
    1UNL     H6   32  -0.283   0.317  -0.148
    1UNL     H7   33  -0.138   0.057  -0.246
    1UNL     H8   34   0.060  -0.028  -0.334
    1UNL     H9   35  -0.011  -0.155  -0.234
    1UNL    H10   36   0.273  -0.131  -0.291
    1UNL    H11   37   0.181  -0.240   0.105
    1UNL    H12   38   0.049  -0.256  -0.011
    1UNL    H13   39   0.101  -0.096   0.043
    1UNL    H14   40   0.365  -0.355  -0.073
    1UNL    H15   41   0.436  -0.219  -0.158
    1UNL    H16   42   0.550  -0.047  -0.045
    1UNL    H17   43   0.445  -0.030   0.328
    1UNL    H18   44   0.534  -0.179   0.302
    1UNL    H19   45   0.617  -0.039   0.369
    1UNL    H20   46   0.696   0.133   0.238
    1UNL    H21   47   0.617   0.169   0.084
    1UNL    H22   48   0.757   0.061   0.088
    1UNL    H23   49  -0.170  -0.040   0.042
    1UNL    H24   50  -0.241  -0.237  -0.096
    1UNL    H25   51  -0.403  -0.031   0.003
    1UNL    H26   52  -0.370  -0.098  -0.267
    1UNL    H27   53  -0.473   0.147  -0.142
    1UNL    H28   54  -0.349   0.198  -0.335
   0.00000   0.00000   0.00000   0.00000   0.00000   0.00000   0.00000   0.00000   0.00000
Generated with MDTraj, t= 1.0
 54
    1UNL     C1    1  -0.675   0.231   0.144
    1UNL     C2    2  -0.528   0.191   0.119
    1UNL     O1    3  -0.498   0.072   0.128
    1UNL     O2    4  -0.443   0.294   0.085
    1UNL     C3    5  -0.310   0.243   0.073
    1UNL     C4    6  -0.277   0.218  -0.080
    1UNL     O3    7  -0.141   0.180  -0.097
    1UNL     C5    8  -0.125   0.040  -0.143
    1UNL     O4    9   0.016  -0.001  -0.138
    1UNL     C6   10   0.064  -0.088  -0.240
    1UNL     C7   11   0.192  -0.154  -0.214
    1UNL     C8   12   0.235  -0.198  -0.095
    1UNL     C9   13   0.151  -0.211   0.027
    1UNL    C10   14   0.389  -0.203  -0.086
    1UNL    C11   15   0.447  -0.175   0.049
    1UNL     O5   16   0.407  -0.229   0.145
    1UNL    C12   17   0.567  -0.096   0.059
    1UNL    C13   18   0.608  -0.027   0.166
    1UNL    C14   19   0.526  -0.038   0.293
    1UNL    C15   20   0.730   0.058   0.163
    1UNL    C16   21  -0.216  -0.061  -0.064
    1UNL     O6   22  -0.188  -0.198  -0.086
    1UNL    C17   23  -0.361  -0.030  -0.097
    1UNL     O7   24  -0.409  -0.112  -0.198
    1UNL    C18   25  -0.380   0.120  -0.148
    1UNL     O8   26  -0.353   0.130  -0.283
    1UNL     H1   27  -0.727   0.164   0.205
    1UNL     H2   28  -0.724   0.231   0.045
    1UNL     H3   29  -0.678   0.332   0.184
    1UNL     H4   30  -0.248   0.319   0.117
    1UNL     H5   31  -0.309   0.148   0.123
    1UNL     H6   32  -0.274   0.310  -0.137
    1UNL     H7   33  -0.145   0.043  -0.252
    1UNL     H8   34   0.062  -0.028  -0.326
    1UNL     H9   35  -0.010  -0.167  -0.259
    1UNL    H10   36   0.261  -0.156  -0.292
    1UNL    H11   37   0.120  -0.117   0.066
    1UNL    H12   38   0.201  -0.261   0.115
    1UNL    H13   39   0.060  -0.262   0.023
    1UNL    H14   40   0.427  -0.300  -0.118
    1UNL    H15   41   0.431  -0.130  -0.157
    1UNL    H16   42   0.622  -0.091  -0.033
    1UNL    H17   43   0.520   0.055   0.361
    1UNL    H18   44   0.428  -0.060   0.271
    1UNL    H19   45   0.558  -0.124   0.358
    1UNL    H20   46   0.706   0.152   0.210
    1UNL    H21   47   0.773   0.078   0.069
    1UNL    H22   48   0.825   0.021   0.212
    1UNL    H23   49  -0.191  -0.051   0.040
    1UNL    H24   50  -0.233  -0.228  -0.169
    1UNL    H25   51  -0.424  -0.060  -0.013
    1UNL    H26   52  -0.454  -0.069  -0.276
    1UNL    H27   53  -0.484   0.166  -0.145
    1UNL    H28   54  -0.301   0.206  -0.295
   0.00000   0.00000   0.00000   0.00000   0.00000   0.00000   0.00000   0.00000   0.00000
Generated with MDTraj, t= 2.0
 54
    1UNL     C1    1  -0.663   0.268   0.146
    1UNL     C2    2  -0.538   0.202   0.121
    1UNL     O1    3  -0.526   0.080   0.116
    1UNL     O2    4  -0.437   0.290   0.101
    1UNL     C3    5  -0.313   0.222   0.080
    1UNL     C4    6  -0.282   0.200  -0.075
    1UNL     O3    7  -0.148   0.161  -0.097
    1UNL     C5    8  -0.132   0.025  -0.140
    1UNL     O4    9   0.013  -0.011  -0.119
    1UNL     C6   10   0.058  -0.110  -0.212
    1UNL     C7   11   0.197  -0.143  -0.200
    1UNL     C8   12   0.263  -0.182  -0.091
    1UNL     C9   13   0.176  -0.202   0.027
    1UNL    C10   14   0.411  -0.195  -0.094
    1UNL    C11   15   0.464  -0.173   0.049
    1UNL     O5   16   0.409  -0.217   0.146
    1UNL    C12   17   0.585  -0.093   0.060
    1UNL    C13   18   0.626  -0.030   0.172
    1UNL    C14   19   0.537   0.004   0.287
    1UNL    C15   20   0.764   0.014   0.169
    1UNL    C16   21  -0.228  -0.072  -0.068
    1UNL     O6   22  -0.210  -0.203  -0.094
    1UNL    C17   23  -0.376  -0.037  -0.120
    1UNL     O7   24  -0.400  -0.106  -0.242
    1UNL    C18   25  -0.398   0.120  -0.148
    1UNL     O8   26  -0.403   0.148  -0.286
    1UNL     H1   27  -0.678   0.342   0.070
    1UNL     H2   28  -0.658   0.316   0.242
    1UNL     H3   29  -0.743   0.196   0.141
    1UNL     H4   30  -0.239   0.294   0.107
    1UNL     H5   31  -0.321   0.134   0.139
    1UNL     H6   32  -0.269   0.301  -0.111
    1UNL     H7   33  -0.140   0.015  -0.251
    1UNL     H8   34   0.035  -0.084  -0.309
    1UNL     H9   35  -0.006  -0.193  -0.185
    1UNL    H10   36   0.261  -0.131  -0.295
    1UNL    H11   37   0.087  -0.149   0.011
    1UNL    H12   38   0.230  -0.158   0.115
    1UNL    H13   39   0.153  -0.303   0.044
    1UNL    H14   40   0.444  -0.290  -0.129
    1UNL    H15   41   0.451  -0.121  -0.165
    1UNL    H16   42   0.666  -0.111  -0.017
    1UNL    H17   43   0.589   0.019   0.387
    1UNL    H18   44   0.487   0.093   0.257
    1UNL    H19   45   0.458  -0.074   0.302
    1UNL    H20   46   0.758   0.122   0.166
    1UNL    H21   47   0.820  -0.031   0.093
    1UNL    H22   48   0.832  -0.016   0.255
    1UNL    H23   49  -0.222  -0.067   0.038
    1UNL    H24   50  -0.264  -0.218  -0.175
    1UNL    H25   51  -0.447  -0.070  -0.046
    1UNL    H26   52  -0.498  -0.096  -0.270
    1UNL    H27   53  -0.494   0.176  -0.118
    1UNL    H28   54  -0.317   0.127  -0.312
   0.00000   0.00000   0.00000   0.00000   0.00000   0.00000   0.00000   0.00000   0.00000
Generated with MDTraj, t= 3.0
 54
    1UNL     C1    1  -0.659   0.292   0.165
    1UNL     C2    2  -0.541   0.212   0.124
    1UNL     O1    3  -0.552   0.095   0.090
    1UNL     O2    4  -0.426   0.286   0.122
    1UNL     C3    5  -0.313   0.205   0.080
    1UNL     C4    6  -0.306   0.195  -0.077
    1UNL     O3    7  -0.168   0.161  -0.102
    1UNL     C5    8  -0.141   0.024  -0.150
    1UNL     O4    9   0.006  -0.010  -0.128
    1UNL     C6   10   0.048  -0.124  -0.201
    1UNL     C7   11   0.195  -0.124  -0.184
    1UNL     C8   12   0.256  -0.162  -0.069
    1UNL     C9   13   0.166  -0.195   0.045
    1UNL    C10   14   0.406  -0.167  -0.066
    1UNL    C11   15   0.475  -0.170   0.067
    1UNL     O5   16   0.429  -0.223   0.167
    1UNL    C12   17   0.613  -0.126   0.072
    1UNL    C13   18   0.662  -0.044   0.168
    1UNL    C14   19   0.568   0.002   0.272
    1UNL    C15   20   0.799   0.019   0.154
    1UNL    C16   21  -0.237  -0.083  -0.090
    1UNL     O6   22  -0.211  -0.212  -0.127
    1UNL    C17   23  -0.378  -0.042  -0.142
    1UNL     O7   24  -0.403  -0.112  -0.260
    1UNL    C18   25  -0.416   0.115  -0.149
    1UNL     O8   26  -0.420   0.145  -0.281
    1UNL     H1   27  -0.678   0.271   0.270
    1UNL     H2   28  -0.749   0.269   0.118
    1UNL     H3   29  -0.638   0.397   0.154
    1UNL     H4   30  -0.229   0.262   0.112
    1UNL     H5   31  -0.320   0.105   0.116
    1UNL     H6   32  -0.302   0.301  -0.102
    1UNL     H7   33  -0.144   0.016  -0.261
    1UNL     H8   34   0.020  -0.103  -0.297
    1UNL     H9   35   0.010  -0.219  -0.166
    1UNL    H10   36   0.254  -0.085  -0.258
    1UNL    H11   37   0.102  -0.271   0.003
    1UNL    H12   38   0.115  -0.102   0.066
    1UNL    H13   39   0.216  -0.235   0.131
    1UNL    H14   40   0.439  -0.235  -0.141
    1UNL    H15   41   0.448  -0.068  -0.094
    1UNL    H16   42   0.681  -0.162   0.004
    1UNL    H17   43   0.619   0.007   0.368
    1UNL    H18   44   0.539   0.110   0.234
    1UNL    H19   45   0.474  -0.059   0.281
    1UNL    H20   46   0.778   0.095   0.079
    1UNL    H21   47   0.866  -0.061   0.134
    1UNL    H22   48   0.832   0.071   0.248
    1UNL    H23   49  -0.227  -0.090   0.015
    1UNL    H24   50  -0.284  -0.244  -0.188
    1UNL    H25   51  -0.446  -0.091  -0.075
    1UNL    H26   52  -0.460  -0.054  -0.306
    1UNL    H27   53  -0.525   0.139  -0.115
    1UNL    H28   54  -0.335   0.180  -0.315
   0.00000   0.00000   0.00000   0.00000   0.00000   0.00000   0.00000   0.00000   0.00000
Generated with MDTraj, t= 4.0
 54
    1UNL     C1    1  -0.647   0.308   0.190
    1UNL     C2    2  -0.549   0.206   0.131
    1UNL     O1    3  -0.584   0.103   0.075
    1UNL     O2    4  -0.420   0.256   0.142
    1UNL     C3    5  -0.322   0.177   0.072
    1UNL     C4    6  -0.316   0.194  -0.086
    1UNL     O3    7  -0.179   0.174  -0.128
    1UNL     C5    8  -0.147   0.033  -0.158
    1UNL     O4    9  -0.011  -0.003  -0.110
    1UNL     C6   10   0.048  -0.116  -0.187
    1UNL     C7   11   0.196  -0.130  -0.165
    1UNL     C8   12   0.260  -0.151  -0.048
    1UNL     C9   13   0.174  -0.144   0.068
    1UNL    C10   14   0.403  -0.195  -0.059
    1UNL    C11   15   0.484  -0.176   0.068
    1UNL     O5   16   0.444  -0.210   0.180
    1UNL    C12   17   0.614  -0.115   0.054
    1UNL    C13   18   0.677  -0.050   0.157
    1UNL    C14   19   0.602  -0.010   0.276
    1UNL    C15   20   0.825   0.001   0.156
    1UNL    C16   21  -0.241  -0.081  -0.108
    1UNL     O6   22  -0.209  -0.203  -0.160
    1UNL    C17   23  -0.388  -0.045  -0.144
    1UNL     O7   24  -0.415  -0.116  -0.259
    1UNL    C18   25  -0.416   0.111  -0.162
    1UNL     O8   26  -0.420   0.145  -0.293
    1UNL     H1   27  -0.710   0.353   0.115
    1UNL     H2   28  -0.599   0.390   0.238
    1UNL     H3   29  -0.705   0.266   0.267
    1UNL     H4   30  -0.227   0.207   0.110
    1UNL     H5   31  -0.352   0.075   0.094
    1UNL     H6   32  -0.328   0.303  -0.101
    1UNL     H7   33  -0.141   0.029  -0.271
    1UNL     H8   34   0.029  -0.110  -0.288
    1UNL     H9   35   0.001  -0.204  -0.146
    1UNL    H10   36   0.257  -0.149  -0.255
    1UNL    H11   37   0.222  -0.152   0.167
    1UNL    H12   38   0.103  -0.218   0.061
    1UNL    H13   39   0.103  -0.060   0.069
    1UNL    H14   40   0.406  -0.302  -0.063
    1UNL    H15   41   0.442  -0.151  -0.153
    1UNL    H16   42   0.680  -0.150  -0.029
    1UNL    H17   43   0.660   0.040   0.351
    1UNL    H18   44   0.520   0.065   0.235
    1UNL    H19   45   0.543  -0.091   0.330
    1UNL    H20   46   0.851   0.011   0.051
    1UNL    H21   47   0.885  -0.070   0.213
    1UNL    H22   48   0.829   0.099   0.197
    1UNL    H23   49  -0.229  -0.085  -0.005
    1UNL    H24   50  -0.287  -0.235  -0.210
    1UNL    H25   51  -0.456  -0.091  -0.070
    1UNL    H26   52  -0.475  -0.052  -0.318
    1UNL    H27   53  -0.526   0.126  -0.130
    1UNL    H28   54  -0.335   0.111  -0.344
   0.00000   0.00000   0.00000   0.00000   0.00000   0.00000   0.00000   0.00000   0.00000
Generated with MDTraj, t= 5.0
 54
    1UNL     C1    1  -0.643   0.288   0.202
    1UNL     C2    2  -0.544   0.208   0.130
    1UNL     O1    3  -0.583   0.121   0.060
    1UNL     O2    4  -0.417   0.246   0.150
    1UNL     C3    5  -0.324   0.166   0.084
    1UNL     C4    6  -0.314   0.187  -0.073
    1UNL     O3    7  -0.180   0.163  -0.123
    1UNL     C5    8  -0.143   0.028  -0.172
    1UNL     O4    9  -0.009   0.002  -0.130
    1UNL     C6   10   0.043  -0.126  -0.187
    1UNL     C7   11   0.189  -0.143  -0.161
    1UNL     C8   12   0.253  -0.143  -0.041
    1UNL     C9   13   0.196  -0.099   0.089
    1UNL    C10   14   0.391  -0.202  -0.039
    1UNL    C11   15   0.461  -0.160   0.086
    1UNL     O5   16   0.418  -0.188   0.197
    1UNL    C12   17   0.595  -0.105   0.064
    1UNL    C13   18   0.682  -0.048   0.149
    1UNL    C14   19   0.645  -0.028   0.293
    1UNL    C15   20   0.819  -0.010   0.107
    1UNL    C16   21  -0.239  -0.082  -0.118
    1UNL     O6   22  -0.210  -0.205  -0.182
    1UNL    C17   23  -0.396  -0.048  -0.147
    1UNL     O7   24  -0.426  -0.114  -0.269
    1UNL    C18   25  -0.414   0.108  -0.163
    1UNL     O8   26  -0.399   0.146  -0.299
    1UNL     H1   27  -0.612   0.316   0.299
    1UNL     H2   28  -0.740   0.239   0.193
    1UNL     H3   29  -0.654   0.373   0.143
    1UNL     H4   30  -0.231   0.200   0.134
    1UNL     H5   31  -0.351   0.063   0.109
    1UNL     H6   32  -0.323   0.297  -0.093
    1UNL     H7   33  -0.164   0.033  -0.282
    1UNL     H8   34   0.029  -0.120  -0.289
    1UNL     H9   35  -0.019  -0.206  -0.148
    1UNL    H10   36   0.258  -0.187  -0.237
    1UNL    H11   37   0.238  -0.011   0.141
    1UNL    H12   38   0.206  -0.179   0.155
    1UNL    H13   39   0.087  -0.102   0.094
    1UNL    H14   40   0.380  -0.309  -0.040
    1UNL    H15   41   0.444  -0.170  -0.129
    1UNL    H16   42   0.637  -0.127  -0.032
    1UNL    H17   43   0.695   0.062   0.343
    1UNL    H18   44   0.536  -0.019   0.300
    1UNL    H19   45   0.666  -0.119   0.361
    1UNL    H20   46   0.849  -0.065   0.018
    1UNL    H21   47   0.899  -0.030   0.183
    1UNL    H22   48   0.816   0.091   0.081
    1UNL    H23   49  -0.226  -0.095  -0.016
    1UNL    H24   50  -0.294  -0.241  -0.221
    1UNL    H25   51  -0.454  -0.094  -0.063
    1UNL    H26   52  -0.401  -0.049  -0.331
    1UNL    H27   53  -0.521   0.130  -0.129
    1UNL    H28   54  -0.419   0.246  -0.309
   0.00000   0.00000   0.00000   0.00000   0.00000   0.00000   0.00000   0.00000   0.00000
Generated with MDTraj, t= 6.0
 54
    1UNL     C1    1  -0.648   0.278   0.201
    1UNL     C2    2  -0.539   0.199   0.125
    1UNL     O1    3  -0.568   0.105   0.056
    1UNL     O2    4  -0.410   0.237   0.140
    1UNL     C3    5  -0.324   0.147   0.082
    1UNL     C4    6  -0.306   0.183  -0.061
    1UNL     O3    7  -0.168   0.160  -0.110
    1UNL     C5    8  -0.137   0.022  -0.166
    1UNL     O4    9  -0.002  -0.017  -0.134
    1UNL     C6   10   0.035  -0.142  -0.192
    1UNL     C7   11   0.170  -0.181  -0.143
    1UNL     C8   12   0.237  -0.148  -0.031
    1UNL     C9   13   0.182  -0.059   0.074
    1UNL    C10   14   0.370  -0.211  -0.016
    1UNL    C11   15   0.457  -0.146   0.091
    1UNL     O5   16   0.415  -0.126   0.200
    1UNL    C12   17   0.591  -0.097   0.055
    1UNL    C13   18   0.682  -0.049   0.142
    1UNL    C14   19   0.663  -0.072   0.287
    1UNL    C15   20   0.814   0.005   0.099
    1UNL    C16   21  -0.244  -0.080  -0.116
    1UNL     O6   22  -0.222  -0.204  -0.188
    1UNL    C17   23  -0.395  -0.034  -0.153
    1UNL     O7   24  -0.436  -0.103  -0.270
    1UNL    C18   25  -0.403   0.116  -0.164
    1UNL     O8   26  -0.379   0.168  -0.294
    1UNL     H1   27  -0.740   0.273   0.152
    1UNL     H2   28  -0.607   0.377   0.199
    1UNL     H3   29  -0.660   0.244   0.300
    1UNL     H4   30  -0.227   0.164   0.138
    1UNL     H5   31  -0.360   0.045   0.099
    1UNL     H6   32  -0.322   0.292  -0.083
    1UNL     H7   33  -0.146   0.030  -0.276
    1UNL     H8   34   0.026  -0.127  -0.297
    1UNL     H9   35  -0.033  -0.220  -0.155
    1UNL    H10   36   0.226  -0.242  -0.203
    1UNL    H11   37   0.164   0.044   0.043
    1UNL    H12   38   0.255  -0.058   0.153
    1UNL    H13   39   0.104  -0.117   0.119
    1UNL    H14   40   0.352  -0.313   0.013
    1UNL    H15   41   0.430  -0.207  -0.106
    1UNL    H16   42   0.627  -0.116  -0.044
    1UNL    H17   43   0.624   0.022   0.347
    1UNL    H18   44   0.602  -0.158   0.302
    1UNL    H19   45   0.763  -0.104   0.336
    1UNL    H20   46   0.898  -0.060   0.070
    1UNL    H21   47   0.868   0.074   0.169
    1UNL    H22   48   0.794   0.071   0.022
    1UNL    H23   49  -0.214  -0.100  -0.018
    1UNL    H24   50  -0.269  -0.211  -0.273
    1UNL    H25   51  -0.458  -0.075  -0.068
    1UNL    H26   52  -0.476  -0.027  -0.328
    1UNL    H27   53  -0.511   0.141  -0.141
    1UNL    H28   54  -0.284   0.164  -0.305
   0.00000   0.00000   0.00000   0.00000   0.00000   0.00000   0.00000   0.00000   0.00000
Generated with MDTraj, t= 7.0
 54
    1UNL     C1    1  -0.649   0.258   0.175
    1UNL     C2    2  -0.528   0.181   0.124
    1UNL     O1    3  -0.551   0.074   0.068
    1UNL     O2    4  -0.404   0.241   0.134
    1UNL     C3    5  -0.307   0.153   0.076
    1UNL     C4    6  -0.278   0.186  -0.057
    1UNL     O3    7  -0.151   0.142  -0.110
    1UNL     C5    8  -0.146   0.004  -0.159
    1UNL     O4    9  -0.021  -0.054  -0.117
    1UNL     C6   10   0.026  -0.170  -0.180
    1UNL     C7   11   0.172  -0.197  -0.134
    1UNL     C8   12   0.238  -0.140  -0.031
    1UNL     C9   13   0.164  -0.047   0.057
    1UNL    C10   14   0.371  -0.198  -0.003
    1UNL    C11   15   0.441  -0.117   0.108
    1UNL     O5   16   0.393  -0.094   0.216
    1UNL    C12   17   0.573  -0.067   0.066
    1UNL    C13   18   0.682  -0.046   0.139
    1UNL    C14   19   0.704  -0.100   0.279
    1UNL    C15   20   0.809  -0.002   0.071
    1UNL    C16   21  -0.258  -0.082  -0.126
    1UNL     O6   22  -0.240  -0.205  -0.192
    1UNL    C17   23  -0.396  -0.018  -0.160
    1UNL     O7   24  -0.439  -0.075  -0.282
    1UNL    C18   25  -0.395   0.136  -0.153
    1UNL     O8   26  -0.374   0.192  -0.291
    1UNL     H1   27  -0.611   0.325   0.246
    1UNL     H2   28  -0.712   0.193   0.224
    1UNL     H3   29  -0.700   0.316   0.100
    1UNL     H4   30  -0.213   0.147   0.143
    1UNL     H5   31  -0.360   0.058   0.079
    1UNL     H6   32  -0.277   0.297  -0.072
    1UNL     H7   33  -0.148   0.011  -0.269
    1UNL     H8   34   0.032  -0.140  -0.284
    1UNL     H9   35  -0.048  -0.251  -0.157
    1UNL    H10   36   0.234  -0.274  -0.194
    1UNL    H11   37   0.091   0.008   0.008
    1UNL    H12   38   0.227   0.037   0.096
    1UNL    H13   39   0.128  -0.106   0.138
    1UNL    H14   40   0.369  -0.296   0.046
    1UNL    H15   41   0.432  -0.206  -0.091
    1UNL    H16   42   0.585  -0.055  -0.045
    1UNL    H17   43   0.609  -0.093   0.342
    1UNL    H18   44   0.744  -0.204   0.273
    1UNL    H19   45   0.783  -0.048   0.342
    1UNL    H20   46   0.894  -0.068   0.087
    1UNL    H21   47   0.840   0.098   0.100
    1UNL    H22   48   0.780   0.007  -0.034
    1UNL    H23   49  -0.261  -0.096  -0.022
    1UNL    H24   50  -0.330  -0.238  -0.220
    1UNL    H25   51  -0.477  -0.052  -0.090
    1UNL    H26   52  -0.370  -0.045  -0.345
    1UNL    H27   53  -0.493   0.172  -0.120
    1UNL    H28   54  -0.347   0.278  -0.274
   0.00000   0.00000   0.00000   0.00000   0.00000   0.00000   0.00000   0.00000   0.00000
Generated with MDTraj, t= 8.0
 54
    1UNL     C1    1  -0.652   0.226   0.157
    1UNL     C2    2  -0.521   0.166   0.124
    1UNL     O1    3  -0.520   0.049   0.091
    1UNL     O2    4  -0.409   0.242   0.129
    1UNL     C3    5  -0.299   0.165   0.075
    1UNL     C4    6  -0.279   0.192  -0.068
    1UNL     O3    7  -0.153   0.144  -0.124
    1UNL     C5    8  -0.150  -0.002  -0.151
    1UNL     O4    9  -0.035  -0.066  -0.088
    1UNL     C6   10   0.015  -0.180  -0.153
    1UNL     C7   11   0.158  -0.214  -0.101
    1UNL     C8   12   0.231  -0.152  -0.005
    1UNL     C9   13   0.180  -0.029   0.063
    1UNL    C10   14   0.367  -0.204   0.025
    1UNL    C11   15   0.456  -0.110   0.104
    1UNL     O5   16   0.429  -0.099   0.222
    1UNL    C12   17   0.571  -0.036   0.050
    1UNL    C13   18   0.684  -0.044   0.121
    1UNL    C14   19   0.682  -0.118   0.254
    1UNL    C15   20   0.813   0.010   0.061
    1UNL    C16   21  -0.275  -0.078  -0.119
    1UNL     O6   22  -0.266  -0.201  -0.196
    1UNL    C17   23  -0.408  -0.003  -0.169
    1UNL     O7   24  -0.440  -0.050  -0.304
    1UNL    C18   25  -0.391   0.150  -0.170
    1UNL     O8   26  -0.357   0.199  -0.300
    1UNL     H1   27  -0.726   0.157   0.129
    1UNL     H2   28  -0.674   0.317   0.114
    1UNL     H3   29  -0.666   0.235   0.263
    1UNL     H4   30  -0.211   0.206   0.141
    1UNL     H5   31  -0.316   0.059   0.099
    1UNL     H6   32  -0.285   0.303  -0.073
    1UNL     H7   33  -0.130  -0.022  -0.256
    1UNL     H8   34   0.014  -0.161  -0.264
    1UNL     H9   35  -0.060  -0.260  -0.124
    1UNL    H10   36   0.214  -0.286  -0.151
    1UNL    H11   37   0.238   0.056   0.040
    1UNL    H12   38   0.188  -0.035   0.173
    1UNL    H13   39   0.075  -0.020   0.049
    1UNL    H14   40   0.346  -0.296   0.081
    1UNL    H15   41   0.425  -0.232  -0.061
    1UNL    H16   42   0.569  -0.005  -0.047
    1UNL    H17   43   0.583  -0.154   0.272
    1UNL    H18   44   0.758  -0.211   0.253
    1UNL    H19   45   0.703  -0.063   0.347
    1UNL    H20   46   0.888  -0.011   0.134
    1UNL    H21   47   0.807   0.114   0.039
    1UNL    H22   48   0.821  -0.045  -0.038
    1UNL    H23   49  -0.277  -0.107  -0.017
    1UNL    H24   50  -0.258  -0.177  -0.291
    1UNL    H25   51  -0.500  -0.032  -0.116
    1UNL    H26   52  -0.401   0.010  -0.366
    1UNL    H27   53  -0.492   0.186  -0.151
    1UNL    H28   54  -0.286   0.264  -0.284
   0.00000   0.00000   0.00000   0.00000   0.00000   0.00000   0.00000   0.00000   0.00000
Generated with MDTraj, t= 9.0
 54
    1UNL     C1    1  -0.655   0.181   0.164
    1UNL     C2    2  -0.520   0.139   0.114
    1UNL     O1    3  -0.504   0.022   0.087
    1UNL     O2    4  -0.425   0.232   0.100
    1UNL     C3    5  -0.300   0.177   0.058
    1UNL     C4    6  -0.273   0.208  -0.088
    1UNL     O3    7  -0.145   0.153  -0.134
    1UNL     C5    8  -0.144   0.009  -0.144
    1UNL     O4    9  -0.043  -0.054  -0.063
    1UNL     C6   10  -0.010  -0.190  -0.099
    1UNL     C7   11   0.132  -0.222  -0.068
    1UNL     C8   12   0.218  -0.149   0.007
    1UNL     C9   13   0.194  -0.012   0.067
    1UNL    C10   14   0.355  -0.208   0.025
    1UNL    C11   15   0.448  -0.128   0.108
    1UNL     O5   16   0.431  -0.103   0.227
    1UNL    C12   17   0.575  -0.072   0.053
    1UNL    C13   18   0.697  -0.061   0.111
    1UNL    C14   19   0.739  -0.118   0.245
    1UNL    C15   20   0.791   0.033   0.045
    1UNL    C16   21  -0.276  -0.061  -0.124
    1UNL     O6   22  -0.260  -0.189  -0.193
    1UNL    C17   23  -0.407   0.016  -0.173
    1UNL     O7   24  -0.444  -0.033  -0.300
    1UNL    C18   25  -0.388   0.171  -0.184
    1UNL     O8   26  -0.357   0.208  -0.310
    1UNL     H1   27  -0.660   0.283   0.195
    1UNL     H2   28  -0.696   0.125   0.243
    1UNL     H3   29  -0.723   0.177   0.087
    1UNL     H4   30  -0.218   0.235   0.118
    1UNL     H5   31  -0.291   0.071   0.083
    1UNL     H6   32  -0.255   0.316  -0.086
    1UNL     H7   33  -0.114  -0.024  -0.242
    1UNL     H8   34  -0.030  -0.187  -0.211
    1UNL     H9   35  -0.078  -0.272  -0.053
    1UNL    H10   36   0.181  -0.314  -0.102
    1UNL    H11   37   0.283   0.048   0.053
    1UNL    H12   38   0.186  -0.019   0.173
    1UNL    H13   39   0.102   0.037   0.032
    1UNL    H14   40   0.347  -0.306   0.071
    1UNL    H15   41   0.388  -0.224  -0.075
    1UNL    H16   42   0.563  -0.034  -0.053
    1UNL    H17   43   0.688  -0.214   0.256
    1UNL    H18   44   0.854  -0.126   0.252
    1UNL    H19   45   0.700  -0.063   0.333
    1UNL    H20   46   0.819   0.108   0.113
    1UNL    H21   47   0.762   0.080  -0.048
    1UNL    H22   48   0.878  -0.032   0.006
    1UNL    H23   49  -0.286  -0.086  -0.020
    1UNL    H24   50  -0.346  -0.208  -0.238
    1UNL    H25   51  -0.491  -0.006  -0.109
    1UNL    H26   52  -0.488   0.043  -0.356
    1UNL    H27   53  -0.478   0.224  -0.162
    1UNL    H28   54  -0.255   0.189  -0.334
   0.00000   0.00000   0.00000   0.00000   0.00000   0.00000   0.00000   0.00000   0.00000
Generated with MDTraj, t= 10.0
 54
    1UNL     C1    1  -0.645   0.139   0.160
    1UNL     C2    2  -0.508   0.120   0.116
    1UNL     O1    3  -0.466   0.008   0.092
    1UNL     O2    4  -0.432   0.239   0.101
    1UNL     C3    5  -0.305   0.198   0.055
    1UNL     C4    6  -0.278   0.221  -0.093
    1UNL     O3    7  -0.155   0.165  -0.138
    1UNL     C5    8  -0.147   0.022  -0.139
    1UNL     O4    9  -0.046  -0.026  -0.046
    1UNL     C6   10  -0.025  -0.170  -0.039
    1UNL     C7   11   0.113  -0.214  -0.019
    1UNL     C8   12   0.216  -0.143   0.026
    1UNL     C9   13   0.217  -0.004   0.070
    1UNL    C10   14   0.349  -0.217   0.018
    1UNL    C11   15   0.448  -0.146   0.111
    1UNL     O5   16   0.451  -0.154   0.232
    1UNL    C12   17   0.552  -0.070   0.047
    1UNL    C13   18   0.673  -0.050   0.097
    1UNL    C14   19   0.720  -0.081   0.235
    1UNL    C15   20   0.781   0.009   0.016
    1UNL    C16   21  -0.277  -0.064  -0.135
    1UNL     O6   22  -0.253  -0.183  -0.203
    1UNL    C17   23  -0.397   0.009  -0.196
    1UNL     O7   24  -0.438  -0.027  -0.322
    1UNL    C18   25  -0.389   0.167  -0.193
    1UNL     O8   26  -0.350   0.207  -0.318
    1UNL     H1   27  -0.695   0.047   0.166
    1UNL     H2   28  -0.690   0.193   0.082
    1UNL     H3   29  -0.645   0.192   0.250
    1UNL     H4   30  -0.218   0.250   0.112
    1UNL     H5   31  -0.296   0.094   0.078
    1UNL     H6   32  -0.266   0.329  -0.094
    1UNL     H7   33  -0.104  -0.006  -0.233
    1UNL     H8   34  -0.063  -0.236  -0.124
    1UNL     H9   35  -0.081  -0.193   0.059
    1UNL    H10   36   0.139  -0.316  -0.054
    1UNL    H11   37   0.308   0.013   0.130
    1UNL    H12   38   0.147   0.017   0.142
    1UNL    H13   39   0.204   0.074  -0.007
    1UNL    H14   40   0.336  -0.321   0.045
    1UNL    H15   41   0.384  -0.219  -0.082
    1UNL    H16   42   0.531  -0.054  -0.055
    1UNL    H17   43   0.740  -0.191   0.243
    1UNL    H18   44   0.809  -0.032   0.246
    1UNL    H19   45   0.644  -0.055   0.315
    1UNL    H20   46   0.785   0.115   0.009
    1UNL    H21   47   0.781  -0.028  -0.087
    1UNL    H22   48   0.880  -0.036   0.044
    1UNL    H23   49  -0.297  -0.091  -0.031
    1UNL    H24   50  -0.337  -0.236  -0.205
    1UNL    H25   51  -0.476  -0.016  -0.130
    1UNL    H26   52  -0.418   0.038  -0.386
    1UNL    H27   53  -0.480   0.220  -0.176
    1UNL    H28   54  -0.264   0.179  -0.342
   0.00000   0.00000   0.00000   0.00000   0.00000   0.00000   0.00000   0.00000   0.00000
Generated with MDTraj, t= 11.0
 54
    1UNL     C1    1  -0.632   0.119   0.155
    1UNL     C2    2  -0.489   0.099   0.107
    1UNL     O1    3  -0.445  -0.013   0.096
    1UNL     O2    4  -0.423   0.212   0.079
    1UNL     C3    5  -0.288   0.187   0.040
    1UNL     C4    6  -0.265   0.222  -0.105
    1UNL     O3    7  -0.150   0.165  -0.154
    1UNL     C5    8  -0.136   0.025  -0.132
    1UNL     O4    9  -0.069   0.002  -0.005
    1UNL     C6   10  -0.054  -0.139   0.029
    1UNL     C7   11   0.082  -0.187   0.004
    1UNL     C8   12   0.203  -0.137   0.039
    1UNL     C9   13   0.220  -0.001   0.100
    1UNL    C10   14   0.324  -0.219   0.023
    1UNL    C11   15   0.449  -0.163   0.097
    1UNL     O5   16   0.451  -0.166   0.217
    1UNL    C12   17   0.562  -0.107   0.024
    1UNL    C13   18   0.669  -0.057   0.084
    1UNL    C14   19   0.688  -0.055   0.231
    1UNL    C15   20   0.767   0.016  -0.010
    1UNL    C16   21  -0.270  -0.062  -0.140
    1UNL     O6   22  -0.231  -0.179  -0.206
    1UNL    C17   23  -0.392   0.018  -0.198
    1UNL     O7   24  -0.425  -0.023  -0.322
    1UNL    C18   25  -0.382   0.178  -0.194
    1UNL     O8   26  -0.358   0.212  -0.325
    1UNL     H1   27  -0.654   0.217   0.134
    1UNL     H2   28  -0.628   0.110   0.260
    1UNL     H3   29  -0.699   0.048   0.116
    1UNL     H4   30  -0.221   0.254   0.104
    1UNL     H5   31  -0.255   0.090   0.064
    1UNL     H6   32  -0.257   0.332  -0.109
    1UNL     H7   33  -0.077  -0.002  -0.219
    1UNL     H8   34  -0.137  -0.200  -0.023
    1UNL     H9   35  -0.067  -0.154   0.140
    1UNL    H10   36   0.083  -0.282  -0.037
    1UNL    H11   37   0.220  -0.029   0.208
    1UNL    H12   38   0.139   0.065   0.083
    1UNL    H13   39   0.314   0.047   0.070
    1UNL    H14   40   0.305  -0.315   0.065
    1UNL    H15   41   0.351  -0.236  -0.080
    1UNL    H16   42   0.555  -0.115  -0.083
    1UNL    H17   43   0.789  -0.097   0.252
    1UNL    H18   44   0.686   0.045   0.257
    1UNL    H19   45   0.616  -0.113   0.293
    1UNL    H20   46   0.719   0.078  -0.087
    1UNL    H21   47   0.817  -0.066  -0.064
    1UNL    H22   48   0.850   0.059   0.041
    1UNL    H23   49  -0.298  -0.100  -0.039
    1UNL    H24   50  -0.243  -0.164  -0.302
    1UNL    H25   51  -0.471  -0.015  -0.135
    1UNL    H26   52  -0.442   0.052  -0.394
    1UNL    H27   53  -0.470   0.235  -0.171
    1UNL    H28   54  -0.268   0.181  -0.363
   0.00000   0.00000   0.00000   0.00000   0.00000   0.00000   0.00000   0.00000   0.00000
Generated with MDTraj, t= 12.0
 54
    1UNL     C1    1  -0.609   0.099   0.151
    1UNL     C2    2  -0.467   0.096   0.103
    1UNL     O1    3  -0.409  -0.009   0.082
    1UNL     O2    4  -0.411   0.217   0.076
    1UNL     C3    5  -0.276   0.202   0.040
    1UNL     C4    6  -0.250   0.217  -0.114
    1UNL     O3    7  -0.130   0.149  -0.154
    1UNL     C5    8  -0.129   0.014  -0.109
    1UNL     O4    9  -0.104   0.010   0.036
    1UNL     C6   10  -0.071  -0.120   0.087
    1UNL     C7   11   0.058  -0.170   0.037
    1UNL     C8   12   0.181  -0.128   0.063
    1UNL     C9   13   0.199  -0.013   0.160
    1UNL    C10   14   0.304  -0.191  -0.003
    1UNL    C11   15   0.433  -0.161   0.075
    1UNL     O5   16   0.433  -0.190   0.193
    1UNL    C12   17   0.552  -0.108   0.005
    1UNL    C13   18   0.656  -0.052   0.066
    1UNL    C14   19   0.665  -0.022   0.215
    1UNL    C15   20   0.766  -0.006  -0.028
    1UNL    C16   21  -0.255  -0.072  -0.151
    1UNL     O6   22  -0.212  -0.175  -0.234
    1UNL    C17   23  -0.381   0.009  -0.202
    1UNL     O7   24  -0.407  -0.024  -0.331
    1UNL    C18   25  -0.370   0.166  -0.198
    1UNL     O8   26  -0.364   0.211  -0.326
    1UNL     H1   27  -0.613   0.027   0.225
    1UNL     H2   28  -0.673   0.070   0.073
    1UNL     H3   29  -0.634   0.194   0.186
    1UNL     H4   30  -0.214   0.278   0.091
    1UNL     H5   31  -0.246   0.113   0.089
    1UNL     H6   32  -0.233   0.324  -0.136
    1UNL     H7   33  -0.042  -0.024  -0.166
    1UNL     H8   34  -0.155  -0.190   0.059
    1UNL     H9   35  -0.077  -0.114   0.197
    1UNL    H10   36   0.056  -0.263  -0.028
    1UNL    H11   37   0.181  -0.064   0.254
    1UNL    H12   38   0.110   0.054   0.150
    1UNL    H13   39   0.292   0.039   0.151
    1UNL    H14   40   0.303  -0.297   0.002
    1UNL    H15   41   0.315  -0.168  -0.109
    1UNL    H16   42   0.561  -0.133  -0.104
    1UNL    H17   43   0.647   0.084   0.235
    1UNL    H18   44   0.588  -0.080   0.270
    1UNL    H19   45   0.762  -0.038   0.248
    1UNL    H20   46   0.730  -0.021  -0.134
    1UNL    H21   47   0.855  -0.071  -0.021
    1UNL    H22   48   0.797   0.090  -0.006
    1UNL    H23   49  -0.283  -0.122  -0.053
    1UNL    H24   50  -0.264  -0.172  -0.318
    1UNL    H25   51  -0.465  -0.021  -0.141
    1UNL    H26   52  -0.456   0.044  -0.377
    1UNL    H27   53  -0.464   0.207  -0.159
    1UNL    H28   54  -0.264   0.223  -0.356
   0.00000   0.00000   0.00000   0.00000   0.00000   0.00000   0.00000   0.00000   0.00000
Generated with MDTraj, t= 13.0
 54
    1UNL     C1    1  -0.609   0.101   0.143
    1UNL     C2    2  -0.464   0.110   0.104
    1UNL     O1    3  -0.409   0.002   0.091
    1UNL     O2    4  -0.416   0.238   0.079
    1UNL     C3    5  -0.278   0.220   0.042
    1UNL     C4    6  -0.244   0.214  -0.111
    1UNL     O3    7  -0.116   0.148  -0.136
    1UNL     C5    8  -0.114   0.018  -0.079
    1UNL     O4    9  -0.109  -0.013   0.064
    1UNL     C6   10  -0.069  -0.146   0.095
    1UNL     C7   11   0.060  -0.183   0.042
    1UNL     C8   12   0.169  -0.117   0.075
    1UNL     C9   13   0.166  -0.019   0.183
    1UNL    C10   14   0.287  -0.123  -0.011
    1UNL    C11   15   0.411  -0.149   0.060
    1UNL     O5   16   0.414  -0.194   0.172
    1UNL    C12   17   0.531  -0.123  -0.012
    1UNL    C13   18   0.633  -0.062   0.048
    1UNL    C14   19   0.625  -0.009   0.182
    1UNL    C15   20   0.755  -0.022  -0.036
    1UNL    C16   21  -0.218  -0.076  -0.145
    1UNL     O6   22  -0.175  -0.163  -0.246
    1UNL    C17   23  -0.351  -0.006  -0.199
    1UNL     O7   24  -0.384  -0.042  -0.337
    1UNL    C18   25  -0.353   0.147  -0.201
    1UNL     O8   26  -0.346   0.201  -0.328
    1UNL     H1   27  -0.664   0.132   0.058
    1UNL     H2   28  -0.643   0.159   0.220
    1UNL     H3   29  -0.638   0.002   0.160
    1UNL     H4   30  -0.223   0.290   0.099
    1UNL     H5   31  -0.242   0.125   0.082
    1UNL     H6   32  -0.220   0.314  -0.157
    1UNL     H7   33  -0.015  -0.015  -0.115
    1UNL     H8   34  -0.154  -0.215   0.077
    1UNL     H9   35  -0.058  -0.151   0.202
    1UNL    H10   36   0.056  -0.256  -0.030
    1UNL    H11   37   0.173  -0.072   0.276
    1UNL    H12   38   0.069   0.038   0.202
    1UNL    H13   39   0.240   0.054   0.181
    1UNL    H14   40   0.265  -0.198  -0.082
    1UNL    H15   41   0.296  -0.028  -0.066
    1UNL    H16   42   0.540  -0.163  -0.107
    1UNL    H17   43   0.536  -0.030   0.237
    1UNL    H18   44   0.707  -0.060   0.241
    1UNL    H19   45   0.638   0.092   0.174
    1UNL    H20   46   0.757  -0.090  -0.126
    1UNL    H21   47   0.857  -0.033   0.001
    1UNL    H22   48   0.743   0.077  -0.069
    1UNL    H23   49  -0.254  -0.146  -0.062
    1UNL    H24   50  -0.244  -0.170  -0.316
    1UNL    H25   51  -0.439  -0.038  -0.138
    1UNL    H26   52  -0.419   0.040  -0.384
    1UNL    H27   53  -0.455   0.175  -0.165
    1UNL    H28   54  -0.259   0.168  -0.361
   0.00000   0.00000   0.00000   0.00000   0.00000   0.00000   0.00000   0.00000   0.00000
Generated with MDTraj, t= 14.0
 54
    1UNL     C1    1  -0.651   0.144   0.131
    1UNL     C2    2  -0.508   0.118   0.099
    1UNL     O1    3  -0.472   0.004   0.094
    1UNL     O2    4  -0.420   0.225   0.072
    1UNL     C3    5  -0.284   0.192   0.055
    1UNL     C4    6  -0.236   0.207  -0.086
    1UNL     O3    7  -0.107   0.144  -0.099
    1UNL     C5    8  -0.105   0.002  -0.068
    1UNL     O4    9  -0.119  -0.023   0.079
    1UNL     C6   10  -0.062  -0.146   0.126
    1UNL     C7   11   0.052  -0.186   0.047
    1UNL     C8   12   0.158  -0.113   0.064
    1UNL     C9   13   0.170   0.007   0.154
    1UNL    C10   14   0.278  -0.131  -0.031
    1UNL    C11   15   0.407  -0.148   0.044
    1UNL     O5   16   0.415  -0.182   0.161
    1UNL    C12   17   0.526  -0.108  -0.029
    1UNL    C13   18   0.633  -0.056   0.034
    1UNL    C14   19   0.620  -0.001   0.170
    1UNL    C15   20   0.766  -0.049  -0.033
    1UNL    C16   21  -0.205  -0.079  -0.159
    1UNL     O6   22  -0.134  -0.121  -0.278
    1UNL    C17   23  -0.345  -0.005  -0.178
    1UNL     O7   24  -0.390  -0.058  -0.306
    1UNL    C18   25  -0.330   0.144  -0.196
    1UNL     O8   26  -0.281   0.167  -0.330
    1UNL     H1   27  -0.674   0.164   0.232
    1UNL     H2   28  -0.708   0.064   0.101
    1UNL     H3   29  -0.686   0.220   0.069
    1UNL     H4   30  -0.229   0.249   0.122
    1UNL     H5   31  -0.272   0.087   0.084
    1UNL     H6   32  -0.215   0.311  -0.118
    1UNL     H7   33  -0.004  -0.031  -0.101
    1UNL     H8   34  -0.134  -0.223   0.109
    1UNL     H9   35  -0.041  -0.140   0.231
    1UNL    H10   36   0.044  -0.264  -0.033
    1UNL    H11   37   0.135  -0.017   0.252
    1UNL    H12   38   0.097   0.089   0.132
    1UNL    H13   39   0.268   0.051   0.160
    1UNL    H14   40   0.264  -0.214  -0.095
    1UNL    H15   41   0.276  -0.045  -0.097
    1UNL    H16   42   0.528  -0.139  -0.137
    1UNL    H17   43   0.658  -0.064   0.242
    1UNL    H18   44   0.678   0.093   0.182
    1UNL    H19   45   0.517   0.024   0.190
    1UNL    H20   46   0.823  -0.144  -0.030
    1UNL    H21   47   0.839   0.016   0.011
    1UNL    H22   48   0.749  -0.007  -0.133
    1UNL    H23   49  -0.232  -0.179  -0.109
    1UNL    H24   50  -0.190  -0.122  -0.359
    1UNL    H25   51  -0.428  -0.025  -0.101
    1UNL    H26   52  -0.395   0.022  -0.366
    1UNL    H27   53  -0.437   0.186  -0.198
    1UNL    H28   54  -0.188   0.161  -0.321
   0.00000   0.00000   0.00000   0.00000   0.00000   0.00000   0.00000   0.00000   0.00000
Generated with MDTraj, t= 15.0
 54
    1UNL     C1    1  -0.686   0.201   0.097
    1UNL     C2    2  -0.549   0.135   0.087
    1UNL     O1    3  -0.533   0.017   0.086
    1UNL     O2    4  -0.450   0.225   0.068
    1UNL     C3    5  -0.317   0.177   0.071
    1UNL     C4    6  -0.240   0.192  -0.060
    1UNL     O3    7  -0.106   0.145  -0.071
    1UNL     C5    8  -0.093   0.003  -0.059
    1UNL     O4    9  -0.129  -0.041   0.071
    1UNL     C6   10  -0.073  -0.170   0.108
    1UNL     C7   11   0.060  -0.197   0.047
    1UNL     C8   12   0.167  -0.120   0.032
    1UNL     C9   13   0.162   0.029   0.079
    1UNL    C10   14   0.295  -0.172  -0.026
    1UNL    C11   15   0.419  -0.152   0.060
    1UNL     O5   16   0.419  -0.159   0.181
    1UNL    C12   17   0.541  -0.121  -0.021
    1UNL    C13   18   0.654  -0.066   0.030
    1UNL    C14   19   0.658  -0.006   0.164
    1UNL    C15   20   0.772  -0.036  -0.058
    1UNL    C16   21  -0.176  -0.075  -0.161
    1UNL     O6   22  -0.112  -0.066  -0.290
    1UNL    C17   23  -0.326  -0.020  -0.157
    1UNL     O7   24  -0.399  -0.091  -0.262
    1UNL    C18   25  -0.323   0.133  -0.182
    1UNL     O8   26  -0.250   0.171  -0.308
    1UNL     H1   27  -0.752   0.164   0.027
    1UNL     H2   28  -0.671   0.306   0.084
    1UNL     H3   29  -0.725   0.192   0.190
    1UNL     H4   30  -0.273   0.230   0.148
    1UNL     H5   31  -0.328   0.074   0.101
    1UNL     H6   32  -0.238   0.300  -0.074
    1UNL     H7   33   0.015  -0.013  -0.077
    1UNL     H8   34  -0.145  -0.249   0.112
    1UNL     H9   35  -0.038  -0.160   0.207
    1UNL    H10   36   0.063  -0.298   0.006
    1UNL    H11   37   0.212   0.028   0.174
    1UNL    H12   38   0.061   0.056   0.103
    1UNL    H13   39   0.213   0.089   0.000
    1UNL    H14   40   0.279  -0.276  -0.051
    1UNL    H15   41   0.314  -0.127  -0.122
    1UNL    H16   42   0.532  -0.129  -0.126
    1UNL    H17   43   0.756  -0.001   0.196
    1UNL    H18   44   0.611   0.088   0.172
    1UNL    H19   45   0.601  -0.076   0.231
    1UNL    H20   46   0.869  -0.056  -0.014
    1UNL    H21   47   0.774   0.071  -0.066
    1UNL    H22   48   0.746  -0.067  -0.164
    1UNL    H23   49  -0.177  -0.185  -0.124
    1UNL    H24   50  -0.181  -0.062  -0.359
    1UNL    H25   51  -0.366  -0.045  -0.051
    1UNL    H26   52  -0.419  -0.031  -0.329
    1UNL    H27   53  -0.429   0.173  -0.177
    1UNL    H28   54  -0.161   0.121  -0.294
   0.00000   0.00000   0.00000   0.00000   0.00000   0.00000   0.00000   0.00000   0.00000
Generated with MDTraj, t= 16.0
 54
    1UNL     C1    1  -0.684   0.227   0.053
    1UNL     C2    2  -0.552   0.163   0.080
    1UNL     O1    3  -0.545   0.043   0.067
    1UNL     O2    4  -0.450   0.250   0.098
    1UNL     C3    5  -0.328   0.188   0.085
    1UNL     C4    6  -0.274   0.187  -0.059
    1UNL     O3    7  -0.138   0.146  -0.067
    1UNL     C5    8  -0.108   0.005  -0.049
    1UNL     O4    9  -0.105  -0.039   0.087
    1UNL     C6   10  -0.060  -0.177   0.103
    1UNL     C7   11   0.075  -0.216   0.045
    1UNL     C8   12   0.183  -0.142   0.050
    1UNL     C9   13   0.193  -0.006   0.116
    1UNL    C10   14   0.316  -0.204  -0.006
    1UNL    C11   15   0.439  -0.148   0.055
    1UNL     O5   16   0.435  -0.128   0.173
    1UNL    C12   17   0.560  -0.126  -0.027
    1UNL    C13   18   0.666  -0.059   0.022
    1UNL    C14   19   0.678  -0.027   0.168
    1UNL    C15   20   0.780  -0.022  -0.066
    1UNL    C16   21  -0.185  -0.082  -0.156
    1UNL     O6   22  -0.119  -0.052  -0.279
    1UNL    C17   23  -0.332  -0.042  -0.176
    1UNL     O7   24  -0.363  -0.086  -0.313
    1UNL    C18   25  -0.351   0.107  -0.167
    1UNL     O8   26  -0.333   0.174  -0.295
    1UNL     H1   27  -0.676   0.324   0.088
    1UNL     H2   28  -0.760   0.170   0.101
    1UNL     H3   29  -0.699   0.236  -0.048
    1UNL     H4   30  -0.264   0.231   0.154
    1UNL     H5   31  -0.355   0.085   0.109
    1UNL     H6   32  -0.273   0.290  -0.090
    1UNL     H7   33  -0.004  -0.004  -0.088
    1UNL     H8   34  -0.129  -0.247   0.059
    1UNL     H9   35  -0.067  -0.200   0.205
    1UNL    H10   36   0.081  -0.312   0.004
    1UNL    H11   37   0.278   0.058   0.084
    1UNL    H12   38   0.217  -0.022   0.217
    1UNL    H13   39   0.101   0.054   0.102
    1UNL    H14   40   0.329  -0.312   0.007
    1UNL    H15   41   0.327  -0.193  -0.110
    1UNL    H16   42   0.550  -0.142  -0.132
    1UNL    H17   43   0.736   0.061   0.185
    1UNL    H18   44   0.591  -0.024   0.220
    1UNL    H19   45   0.735  -0.113   0.214
    1UNL    H20   46   0.843   0.044  -0.014
    1UNL    H21   47   0.741   0.041  -0.147
    1UNL    H22   48   0.826  -0.113  -0.118
    1UNL    H23   49  -0.180  -0.196  -0.140
    1UNL    H24   50  -0.169  -0.095  -0.351
    1UNL    H25   51  -0.398  -0.107  -0.103
    1UNL    H26   52  -0.454  -0.068  -0.337
    1UNL    H27   53  -0.460   0.124  -0.145
    1UNL    H28   54  -0.290   0.116  -0.362
   0.00000   0.00000   0.00000   0.00000   0.00000   0.00000   0.00000   0.00000   0.00000
Generated with MDTraj, t= 17.0
 54
    1UNL     C1    1  -0.685   0.257   0.069
    1UNL     C2    2  -0.559   0.174   0.065
    1UNL     O1    3  -0.562   0.061   0.017
    1UNL     O2    4  -0.440   0.229   0.103
    1UNL     C3    5  -0.320   0.160   0.080
    1UNL     C4    6  -0.273   0.172  -0.061
    1UNL     O3    7  -0.132   0.146  -0.082
    1UNL     C5    8  -0.100   0.016  -0.067
    1UNL     O4    9  -0.107  -0.030   0.067
    1UNL     C6   10  -0.056  -0.160   0.085
    1UNL     C7   11   0.077  -0.185   0.026
    1UNL     C8   12   0.186  -0.134   0.069
    1UNL     C9   13   0.192  -0.050   0.185
    1UNL    C10   14   0.314  -0.171   0.006
    1UNL    C11   15   0.446  -0.136   0.076
    1UNL     O5   16   0.448  -0.156   0.195
    1UNL    C12   17   0.546  -0.090  -0.015
    1UNL    C13   18   0.667  -0.047   0.019
    1UNL    C14   19   0.715  -0.033   0.160
    1UNL    C15   20   0.765  -0.046  -0.090
    1UNL    C16   21  -0.172  -0.069  -0.175
    1UNL     O6   22  -0.118  -0.061  -0.308
    1UNL    C17   23  -0.323  -0.049  -0.169
    1UNL     O7   24  -0.389  -0.121  -0.272
    1UNL    C18   25  -0.364   0.101  -0.160
    1UNL     O8   26  -0.358   0.166  -0.286
    1UNL     H1   27  -0.767   0.195   0.064
    1UNL     H2   28  -0.688   0.318  -0.015
    1UNL     H3   29  -0.691   0.310   0.161
    1UNL     H4   30  -0.253   0.207   0.146
    1UNL     H5   31  -0.334   0.053   0.105
    1UNL     H6   32  -0.268   0.279  -0.080
    1UNL     H7   33   0.009   0.005  -0.097
    1UNL     H8   34  -0.139  -0.227   0.058
    1UNL     H9   35  -0.047  -0.179   0.190
    1UNL    H10   36   0.073  -0.251  -0.067
    1UNL    H11   37   0.097  -0.007   0.222
    1UNL    H12   38   0.256   0.033   0.171
    1UNL    H13   39   0.225  -0.106   0.272
    1UNL    H14   40   0.311  -0.280  -0.003
    1UNL    H15   41   0.310  -0.139  -0.095
    1UNL    H16   42   0.520  -0.110  -0.122
    1UNL    H17   43   0.778   0.057   0.173
    1UNL    H18   44   0.630  -0.030   0.225
    1UNL    H19   45   0.766  -0.123   0.187
    1UNL    H20   46   0.792   0.053  -0.115
    1UNL    H21   47   0.734  -0.089  -0.188
    1UNL    H22   48   0.859  -0.099  -0.060
    1UNL    H23   49  -0.156  -0.179  -0.151
    1UNL    H24   50  -0.131   0.029  -0.347
    1UNL    H25   51  -0.358  -0.097  -0.068
    1UNL    H26   52  -0.391  -0.057  -0.353
    1UNL    H27   53  -0.473   0.123  -0.135
    1UNL    H28   54  -0.273   0.194  -0.308
   0.00000   0.00000   0.00000   0.00000   0.00000   0.00000   0.00000   0.00000   0.00000
Generated with MDTraj, t= 18.0
 54
    1UNL     C1    1  -0.664   0.253   0.132
    1UNL     C2    2  -0.542   0.180   0.081
    1UNL     O1    3  -0.566   0.077   0.019
    1UNL     O2    4  -0.423   0.236   0.111
    1UNL     C3    5  -0.325   0.152   0.062
    1UNL     C4    6  -0.290   0.177  -0.084
    1UNL     O3    7  -0.150   0.164  -0.099
    1UNL     C5    8  -0.109   0.024  -0.076
    1UNL     O4    9  -0.134  -0.027   0.058
    1UNL     C6   10  -0.079  -0.152   0.099
    1UNL     C7   11   0.056  -0.185   0.043
    1UNL     C8   12   0.167  -0.141   0.094
    1UNL     C9   13   0.172  -0.073   0.228
    1UNL    C10   14   0.303  -0.153   0.019
    1UNL    C11   15   0.444  -0.129   0.071
    1UNL     O5   16   0.464  -0.126   0.189
    1UNL    C12   17   0.560  -0.108  -0.022
    1UNL    C13   18   0.682  -0.061   0.012
    1UNL    C14   19   0.737  -0.070   0.152
    1UNL    C15   20   0.782  -0.014  -0.087
    1UNL    C16   21  -0.168  -0.071  -0.183
    1UNL     O6   22  -0.116  -0.035  -0.307
    1UNL    C17   23  -0.315  -0.057  -0.185
    1UNL     O7   24  -0.383  -0.142  -0.280
    1UNL    C18   25  -0.357   0.090  -0.192
    1UNL     O8   26  -0.352   0.138  -0.321
    1UNL     H1   27  -0.658   0.353   0.111
    1UNL     H2   28  -0.676   0.251   0.233
    1UNL     H3   29  -0.752   0.216   0.083
    1UNL     H4   30  -0.237   0.168   0.122
    1UNL     H5   31  -0.358   0.044   0.078
    1UNL     H6   32  -0.312   0.283  -0.100
    1UNL     H7   33   0.004   0.027  -0.084
    1UNL     H8   34  -0.155  -0.232   0.075
    1UNL     H9   35  -0.092  -0.152   0.208
    1UNL    H10   36   0.064  -0.231  -0.048
    1UNL    H11   37   0.163  -0.154   0.300
    1UNL    H12   38   0.082  -0.010   0.235
    1UNL    H13   39   0.265  -0.028   0.252
    1UNL    H14   40   0.297  -0.249  -0.032
    1UNL    H15   41   0.292  -0.088  -0.063
    1UNL    H16   42   0.535  -0.100  -0.121
    1UNL    H17   43   0.829  -0.012   0.162
    1UNL    H18   44   0.662  -0.033   0.231
    1UNL    H19   45   0.751  -0.168   0.172
    1UNL    H20   46   0.743   0.047  -0.168
    1UNL    H21   47   0.835  -0.099  -0.137
    1UNL    H22   48   0.856   0.046  -0.036
    1UNL    H23   49  -0.140  -0.176  -0.152
    1UNL    H24   50  -0.063  -0.109  -0.342
    1UNL    H25   51  -0.354  -0.094  -0.081
    1UNL    H26   52  -0.396  -0.090  -0.365
    1UNL    H27   53  -0.469   0.100  -0.172
    1UNL    H28   54  -0.262   0.104  -0.351
   0.00000   0.00000   0.00000   0.00000   0.00000   0.00000   0.00000   0.00000   0.00000
Generated with MDTraj, t= 19.0
 54
    1UNL     C1    1  -0.654   0.247   0.171
    1UNL     C2    2  -0.551   0.183   0.094
    1UNL     O1    3  -0.561   0.079   0.033
    1UNL     O2    4  -0.433   0.252   0.095
    1UNL     C3    5  -0.321   0.168   0.057
    1UNL     C4    6  -0.282   0.166  -0.086
    1UNL     O3    7  -0.141   0.151  -0.112
    1UNL     C5    8  -0.097   0.017  -0.083
    1UNL     O4    9  -0.107  -0.015   0.055
    1UNL     C6   10  -0.059  -0.142   0.084
    1UNL     C7   11   0.078  -0.165   0.025
    1UNL     C8   12   0.189  -0.131   0.083
    1UNL     C9   13   0.181  -0.063   0.217
    1UNL    C10   14   0.315  -0.171   0.019
    1UNL    C11   15   0.437  -0.110   0.082
    1UNL     O5   16   0.454  -0.116   0.202
    1UNL    C12   17   0.528  -0.042  -0.009
    1UNL    C13   18   0.656  -0.055   0.021
    1UNL    C14   19   0.690  -0.117   0.150
    1UNL    C15   20   0.759  -0.031  -0.085
    1UNL    C16   21  -0.166  -0.082  -0.179
    1UNL     O6   22  -0.101  -0.085  -0.302
    1UNL    C17   23  -0.318  -0.065  -0.193
    1UNL     O7   24  -0.354  -0.122  -0.320
    1UNL    C18   25  -0.373   0.078  -0.180
    1UNL     O8   26  -0.376   0.133  -0.303
    1UNL     H1   27  -0.682   0.188   0.253
    1UNL     H2   28  -0.738   0.260   0.113
    1UNL     H3   29  -0.623   0.344   0.195
    1UNL     H4   30  -0.235   0.207   0.114
    1UNL     H5   31  -0.337   0.061   0.099
    1UNL     H6   32  -0.300   0.270  -0.121
    1UNL     H7   33   0.014   0.019  -0.106
    1UNL     H8   34  -0.132  -0.225   0.055
    1UNL     H9   35  -0.052  -0.159   0.196
    1UNL    H10   36   0.079  -0.227  -0.069
    1UNL    H11   37   0.205  -0.135   0.292
    1UNL    H12   38   0.077  -0.027   0.239
    1UNL    H13   39   0.258   0.009   0.231
    1UNL    H14   40   0.329  -0.277   0.027
    1UNL    H15   41   0.318  -0.154  -0.086
    1UNL    H16   42   0.497   0.022  -0.096
    1UNL    H17   43   0.797  -0.117   0.164
    1UNL    H18   44   0.653  -0.059   0.241
    1UNL    H19   45   0.649  -0.215   0.166
    1UNL    H20   46   0.742  -0.113  -0.161
    1UNL    H21   47   0.859  -0.054  -0.043
    1UNL    H22   48   0.747   0.068  -0.124
    1UNL    H23   49  -0.138  -0.180  -0.136
    1UNL    H24   50  -0.143  -0.021  -0.364
    1UNL    H25   51  -0.376  -0.135  -0.122
    1UNL    H26   52  -0.433  -0.083  -0.351
    1UNL    H27   53  -0.483   0.078  -0.154
    1UNL    H28   54  -0.273   0.143  -0.327
   0.00000   0.00000   0.00000   0.00000   0.00000   0.00000   0.00000   0.00000   0.00000
Generated with MDTraj, t= 20.0
 54
    1UNL     C1    1  -0.649   0.247   0.140
    1UNL     C2    2  -0.529   0.161   0.106
    1UNL     O1    3  -0.542   0.046   0.075
    1UNL     O2    4  -0.411   0.234   0.100
    1UNL     C3    5  -0.303   0.151   0.055
    1UNL     C4    6  -0.276   0.177  -0.089
    1UNL     O3    7  -0.142   0.147  -0.117
    1UNL     C5    8  -0.103   0.012  -0.088
    1UNL     O4    9  -0.117  -0.018   0.046
    1UNL     C6   10  -0.076  -0.150   0.084
    1UNL     C7   11   0.065  -0.192   0.044
    1UNL     C8   12   0.167  -0.126   0.095
    1UNL     C9   13   0.155  -0.000   0.175
    1UNL    C10   14   0.305  -0.171   0.047
    1UNL    C11   15   0.437  -0.106   0.098
    1UNL     O5   16   0.439  -0.086   0.218
    1UNL    C12   17   0.545  -0.073   0.001
    1UNL    C13   18   0.676  -0.082   0.018
    1UNL    C14   19   0.743  -0.163   0.121
    1UNL    C15   20   0.750   0.019  -0.066
    1UNL    C16   21  -0.174  -0.085  -0.193
    1UNL     O6   22  -0.133  -0.061  -0.326
    1UNL    C17   23  -0.328  -0.057  -0.187
    1UNL     O7   24  -0.385  -0.123  -0.294
    1UNL    C18   25  -0.361   0.095  -0.193
    1UNL     O8   26  -0.352   0.143  -0.323
    1UNL     H1   27  -0.687   0.293   0.051
    1UNL     H2   28  -0.618   0.317   0.210
    1UNL     H3   29  -0.721   0.192   0.187
    1UNL     H4   30  -0.213   0.179   0.118
    1UNL     H5   31  -0.319   0.039   0.087
    1UNL     H6   32  -0.291   0.288  -0.104
    1UNL     H7   33   0.005   0.013  -0.116
    1UNL     H8   34  -0.152  -0.230   0.048
    1UNL     H9   35  -0.077  -0.163   0.198
    1UNL    H10   36   0.077  -0.286  -0.008
    1UNL    H11   37   0.108  -0.022   0.267
    1UNL    H12   38   0.085   0.075   0.131
    1UNL    H13   39   0.246   0.042   0.214
    1UNL    H14   40   0.316  -0.276   0.070
    1UNL    H15   41   0.299  -0.167  -0.061
    1UNL    H16   42   0.515  -0.006  -0.076
    1UNL    H17   43   0.847  -0.141   0.115
    1UNL    H18   44   0.712  -0.134   0.221
    1UNL    H19   45   0.721  -0.278   0.116
    1UNL    H20   46   0.862  -0.005  -0.060
    1UNL    H21   47   0.743   0.119  -0.029
    1UNL    H22   48   0.710   0.019  -0.167
    1UNL    H23   49  -0.142  -0.186  -0.167
    1UNL    H24   50  -0.213  -0.045  -0.384
    1UNL    H25   51  -0.375  -0.095  -0.092
    1UNL    H26   52  -0.399  -0.053  -0.371
    1UNL    H27   53  -0.469   0.111  -0.170
    1UNL    H28   54  -0.255   0.131  -0.360
   0.00000   0.00000   0.00000   0.00000   0.00000   0.00000   0.00000   0.00000   0.00000
Generated with MDTraj, t= 21.0
 54
    1UNL     C1    1  -0.650   0.212   0.110
    1UNL     C2    2  -0.511   0.146   0.098
    1UNL     O1    3  -0.504   0.027   0.077
    1UNL     O2    4  -0.410   0.236   0.095
    1UNL     C3    5  -0.285   0.180   0.062
    1UNL     C4    6  -0.252   0.196  -0.087
    1UNL     O3    7  -0.111   0.140  -0.118
    1UNL     C5    8  -0.089   0.001  -0.093
    1UNL     O4    9  -0.118  -0.039   0.037
    1UNL     C6   10  -0.071  -0.173   0.073
    1UNL     C7   11   0.072  -0.206   0.046
    1UNL     C8   12   0.175  -0.128   0.072
    1UNL     C9   13   0.171   0.021   0.112
    1UNL    C10   14   0.320  -0.181   0.049
    1UNL    C11   15   0.425  -0.101   0.117
    1UNL     O5   16   0.438  -0.103   0.237
    1UNL    C12   17   0.513  -0.022   0.030
    1UNL    C13   18   0.642  -0.049   0.027
    1UNL    C14   19   0.692  -0.155   0.118
    1UNL    C15   20   0.737  -0.004  -0.070
    1UNL    C16   21  -0.180  -0.082  -0.196
    1UNL     O6   22  -0.156  -0.079  -0.334
    1UNL    C17   23  -0.330  -0.041  -0.163
    1UNL     O7   24  -0.417  -0.103  -0.251
    1UNL    C18   25  -0.354   0.117  -0.180
    1UNL     O8   26  -0.347   0.155  -0.317
    1UNL     H1   27  -0.660   0.265   0.200
    1UNL     H2   28  -0.719   0.136   0.097
    1UNL     H3   29  -0.662   0.282   0.034
    1UNL     H4   30  -0.207   0.221   0.131
    1UNL     H5   31  -0.283   0.067   0.092
    1UNL     H6   32  -0.246   0.306  -0.111
    1UNL     H7   33   0.017  -0.018  -0.115
    1UNL     H8   34  -0.147  -0.246   0.026
    1UNL     H9   35  -0.098  -0.191   0.182
    1UNL    H10   36   0.097  -0.304   0.014
    1UNL    H11   37   0.072   0.041   0.142
    1UNL    H12   38   0.187   0.090   0.029
    1UNL    H13   39   0.228   0.039   0.203
    1UNL    H14   40   0.317  -0.283   0.078
    1UNL    H15   41   0.331  -0.181  -0.060
    1UNL    H16   42   0.467   0.058  -0.024
    1UNL    H17   43   0.803  -0.144   0.115
    1UNL    H18   44   0.659  -0.138   0.217
    1UNL    H19   45   0.652  -0.262   0.088
    1UNL    H20   46   0.794   0.082  -0.026
    1UNL    H21   47   0.704   0.032  -0.165
    1UNL    H22   48   0.803  -0.087  -0.101
    1UNL    H23   49  -0.166  -0.186  -0.169
    1UNL    H24   50  -0.222  -0.143  -0.367
    1UNL    H25   51  -0.361  -0.077  -0.064
    1UNL    H26   52  -0.432  -0.044  -0.325
    1UNL    H27   53  -0.460   0.136  -0.158
    1UNL    H28   54  -0.261   0.180  -0.342
   0.00000   0.00000   0.00000   0.00000   0.00000   0.00000   0.00000   0.00000   0.00000
Generated with MDTraj, t= 22.0
 54
    1UNL     C1    1  -0.625   0.173   0.106
    1UNL     C2    2  -0.480   0.140   0.096
    1UNL     O1    3  -0.437   0.026   0.093
    1UNL     O2    4  -0.397   0.251   0.084
    1UNL     C3    5  -0.265   0.208   0.056
    1UNL     C4    6  -0.236   0.188  -0.095
    1UNL     O3    7  -0.111   0.118  -0.111
    1UNL     C5    8  -0.113  -0.018  -0.083
    1UNL     O4    9  -0.132  -0.049   0.050
    1UNL     C6   10  -0.072  -0.172   0.087
    1UNL     C7   11   0.066  -0.196   0.043
    1UNL     C8   12   0.176  -0.124   0.049
    1UNL     C9   13   0.171   0.022   0.104
    1UNL    C10   14   0.318  -0.181   0.037
    1UNL    C11   15   0.410  -0.103   0.119
    1UNL     O5   16   0.390  -0.092   0.238
    1UNL    C12   17   0.512  -0.032   0.036
    1UNL    C13   18   0.644  -0.048   0.037
    1UNL    C14   19   0.708  -0.155   0.111
    1UNL    C15   20   0.726   0.025  -0.061
    1UNL    C16   21  -0.212  -0.098  -0.183
    1UNL     O6   22  -0.178  -0.087  -0.320
    1UNL    C17   23  -0.360  -0.034  -0.167
    1UNL     O7   24  -0.425  -0.080  -0.280
    1UNL    C18   25  -0.347   0.125  -0.181
    1UNL     O8   26  -0.331   0.155  -0.317
    1UNL     H1   27  -0.672   0.097   0.058
    1UNL     H2   28  -0.640   0.259   0.047
    1UNL     H3   29  -0.664   0.181   0.204
    1UNL     H4   30  -0.193   0.269   0.112
    1UNL     H5   31  -0.244   0.104   0.101
    1UNL     H6   32  -0.211   0.290  -0.132
    1UNL     H7   33  -0.010  -0.046  -0.105
    1UNL     H8   34  -0.141  -0.263   0.071
    1UNL     H9   35  -0.074  -0.169   0.199
    1UNL    H10   36   0.076  -0.303   0.009
    1UNL    H11   37   0.084   0.081   0.069
    1UNL    H12   38   0.254   0.077   0.072
    1UNL    H13   39   0.161   0.012   0.213
    1UNL    H14   40   0.310  -0.276   0.083
    1UNL    H15   41   0.355  -0.189  -0.067
    1UNL    H16   42   0.473   0.047  -0.033
    1UNL    H17   43   0.816  -0.171   0.070
    1UNL    H18   44   0.714  -0.125   0.215
    1UNL    H19   45   0.647  -0.246   0.109
    1UNL    H20   46   0.682   0.120  -0.083
    1UNL    H21   47   0.753  -0.025  -0.156
    1UNL    H22   48   0.830   0.035  -0.017
    1UNL    H23   49  -0.201  -0.202  -0.153
    1UNL    H24   50  -0.260  -0.101  -0.373
    1UNL    H25   51  -0.414  -0.066  -0.080
    1UNL    H26   52  -0.515  -0.048  -0.290
    1UNL    H27   53  -0.444   0.168  -0.158
    1UNL    H28   54  -0.267   0.094  -0.356
   0.00000   0.00000   0.00000   0.00000   0.00000   0.00000   0.00000   0.00000   0.00000
Generated with MDTraj, t= 23.0
 54
    1UNL     C1    1  -0.612   0.175   0.146
    1UNL     C2    2  -0.473   0.133   0.120
    1UNL     O1    3  -0.440   0.022   0.152
    1UNL     O2    4  -0.392   0.218   0.051
    1UNL     C3    5  -0.260   0.173   0.034
    1UNL     C4    6  -0.212   0.187  -0.111
    1UNL     O3    7  -0.093   0.109  -0.141
    1UNL     C5    8  -0.111  -0.032  -0.104
    1UNL     O4    9  -0.121  -0.048   0.036
    1UNL     C6   10  -0.097  -0.175   0.084
    1UNL     C7   11   0.048  -0.202   0.085
    1UNL     C8   12   0.143  -0.111   0.096
    1UNL     C9   13   0.136   0.030   0.141
    1UNL    C10   14   0.281  -0.152   0.030
    1UNL    C11   15   0.414  -0.098   0.086
    1UNL     O5   16   0.423  -0.122   0.205
    1UNL    C12   17   0.516  -0.023   0.009
    1UNL    C13   18   0.648  -0.039   0.031
    1UNL    C14   19   0.688  -0.152   0.116
    1UNL    C15   20   0.749   0.057  -0.026
    1UNL    C16   21  -0.230  -0.092  -0.193
    1UNL     O6   22  -0.190  -0.099  -0.320
    1UNL    C17   23  -0.360  -0.012  -0.170
    1UNL     O7   24  -0.454  -0.053  -0.261
    1UNL    C18   25  -0.322   0.134  -0.203
    1UNL     O8   26  -0.291   0.141  -0.345
    1UNL     H1   27  -0.624   0.276   0.127
    1UNL     H2   28  -0.643   0.159   0.245
    1UNL     H3   29  -0.675   0.123   0.081
    1UNL     H4   30  -0.194   0.227   0.100
    1UNL     H5   31  -0.258   0.066   0.069
    1UNL     H6   32  -0.197   0.295  -0.127
    1UNL     H7   33  -0.018  -0.075  -0.135
    1UNL     H8   34  -0.146  -0.247   0.013
    1UNL     H9   35  -0.138  -0.198   0.184
    1UNL    H10   36   0.073  -0.298   0.059
    1UNL    H11   37   0.029   0.064   0.150
    1UNL    H12   38   0.179   0.094   0.071
    1UNL    H13   39   0.172   0.034   0.245
    1UNL    H14   40   0.304  -0.255   0.033
    1UNL    H15   41   0.276  -0.120  -0.075
    1UNL    H16   42   0.478   0.061  -0.037
    1UNL    H17   43   0.801  -0.173   0.120
    1UNL    H18   44   0.656  -0.127   0.223
    1UNL    H19   45   0.637  -0.244   0.104
    1UNL    H20   46   0.718   0.079  -0.124
    1UNL    H21   47   0.855   0.020  -0.010
    1UNL    H22   48   0.747   0.147   0.041
    1UNL    H23   49  -0.247  -0.195  -0.159
    1UNL    H24   50  -0.225  -0.181  -0.363
    1UNL    H25   51  -0.406  -0.014  -0.074
    1UNL    H26   52  -0.438  -0.006  -0.351
    1UNL    H27   53  -0.412   0.193  -0.189
    1UNL    H28   54  -0.200   0.098  -0.354
   0.00000   0.00000   0.00000   0.00000   0.00000   0.00000   0.00000   0.00000   0.00000
Generated with MDTraj, t= 24.0
 54
    1UNL     C1    1  -0.596   0.184   0.181
    1UNL     C2    2  -0.455   0.157   0.137
    1UNL     O1    3  -0.408   0.051   0.178
    1UNL     O2    4  -0.395   0.236   0.042
    1UNL     C3    5  -0.265   0.182   0.023
    1UNL     C4    6  -0.213   0.174  -0.119
    1UNL     O3    7  -0.096   0.099  -0.133
    1UNL     C5    8  -0.128  -0.034  -0.089
    1UNL     O4    9  -0.140  -0.061   0.046
    1UNL     C6   10  -0.084  -0.190   0.076
    1UNL     C7   11   0.059  -0.193   0.024
    1UNL     C8   12   0.158  -0.114   0.058
    1UNL     C9   13   0.127  -0.002   0.147
    1UNL    C10   14   0.289  -0.130  -0.004
    1UNL    C11   15   0.404  -0.099   0.088
    1UNL     O5   16   0.403  -0.152   0.196
    1UNL    C12   17   0.500   0.004   0.045
    1UNL    C13   18   0.634  -0.018   0.052
    1UNL    C14   19   0.690  -0.130   0.135
    1UNL    C15   20   0.733   0.053  -0.032
    1UNL    C16   21  -0.240  -0.102  -0.174
    1UNL     O6   22  -0.188  -0.146  -0.288
    1UNL    C17   23  -0.367  -0.010  -0.190
    1UNL     O7   24  -0.442  -0.057  -0.297
    1UNL    C18   25  -0.323   0.134  -0.214
    1UNL     O8   26  -0.270   0.148  -0.346
    1UNL     H1   27  -0.619   0.128   0.268
    1UNL     H2   28  -0.665   0.157   0.111
    1UNL     H3   29  -0.607   0.287   0.200
    1UNL     H4   30  -0.202   0.243   0.084
    1UNL     H5   31  -0.276   0.081   0.069
    1UNL     H6   32  -0.189   0.274  -0.153
    1UNL     H7   33  -0.040  -0.078  -0.131
    1UNL     H8   34  -0.143  -0.278   0.045
    1UNL     H9   35  -0.087  -0.205   0.184
    1UNL    H10   36   0.072  -0.283  -0.043
    1UNL    H11   37   0.047  -0.031   0.218
    1UNL    H12   38   0.092   0.083   0.093
    1UNL    H13   39   0.208   0.017   0.217
    1UNL    H14   40   0.292  -0.233  -0.034
    1UNL    H15   41   0.299  -0.066  -0.092
    1UNL    H16   42   0.455   0.100   0.007
    1UNL    H17   43   0.771  -0.093   0.201
    1UNL    H18   44   0.600  -0.164   0.203
    1UNL    H19   45   0.722  -0.220   0.088
    1UNL    H20   46   0.768  -0.013  -0.110
    1UNL    H21   47   0.816   0.097   0.031
    1UNL    H22   48   0.691   0.144  -0.076
    1UNL    H23   49  -0.270  -0.193  -0.120
    1UNL    H24   50  -0.262  -0.175  -0.345
    1UNL    H25   51  -0.432  -0.005  -0.108
    1UNL    H26   52  -0.418  -0.021  -0.383
    1UNL    H27   53  -0.404   0.205  -0.216
    1UNL    H28   54  -0.200   0.088  -0.355
   0.00000   0.00000   0.00000   0.00000   0.00000   0.00000   0.00000   0.00000   0.00000
Generated with MDTraj, t= 25.0
 54
    1UNL     C1    1  -0.604   0.220   0.188
    1UNL     C2    2  -0.463   0.187   0.155
    1UNL     O1    3  -0.414   0.095   0.220
    1UNL     O2    4  -0.393   0.240   0.054
    1UNL     C3    5  -0.271   0.170   0.037
    1UNL     C4    6  -0.215   0.174  -0.112
    1UNL     O3    7  -0.100   0.093  -0.141
    1UNL     C5    8  -0.135  -0.047  -0.106
    1UNL     O4    9  -0.129  -0.077   0.031
    1UNL     C6   10  -0.075  -0.203   0.072
    1UNL     C7   11   0.064  -0.227   0.023
    1UNL     C8   12   0.155  -0.134   0.047
    1UNL     C9   13   0.119  -0.015   0.134
    1UNL    C10   14   0.294  -0.134  -0.022
    1UNL    C11   15   0.402  -0.101   0.070
    1UNL     O5   16   0.398  -0.136   0.186
    1UNL    C12   17   0.521  -0.038   0.003
    1UNL    C13   18   0.647  -0.022   0.057
    1UNL    C14   19   0.706  -0.105   0.161
    1UNL    C15   20   0.733   0.093   0.025
    1UNL    C16   21  -0.251  -0.111  -0.190
    1UNL     O6   22  -0.199  -0.155  -0.312
    1UNL    C17   23  -0.371  -0.012  -0.190
    1UNL     O7   24  -0.454  -0.056  -0.300
    1UNL    C18   25  -0.319   0.131  -0.218
    1UNL     O8   26  -0.261   0.138  -0.342
    1UNL     H1   27  -0.665   0.205   0.104
    1UNL     H2   28  -0.616   0.316   0.226
    1UNL     H3   29  -0.629   0.154   0.266
    1UNL     H4   30  -0.201   0.214   0.103
    1UNL     H5   31  -0.285   0.061   0.062
    1UNL     H6   32  -0.185   0.276  -0.127
    1UNL     H7   33  -0.052  -0.098  -0.150
    1UNL     H8   34  -0.143  -0.280   0.041
    1UNL     H9   35  -0.086  -0.219   0.179
    1UNL    H10   36   0.095  -0.318  -0.018
    1UNL    H11   37   0.091  -0.054   0.230
    1UNL    H12   38   0.030   0.033   0.089
    1UNL    H13   39   0.206   0.045   0.158
    1UNL    H14   40   0.317  -0.234  -0.057
    1UNL    H15   41   0.289  -0.068  -0.107
    1UNL    H16   42   0.492   0.035  -0.067
    1UNL    H17   43   0.738  -0.036   0.240
    1UNL    H18   44   0.623  -0.175   0.190
    1UNL    H19   45   0.795  -0.166   0.131
    1UNL    H20   46   0.834   0.076  -0.020
    1UNL    H21   47   0.743   0.162   0.111
    1UNL    H22   48   0.684   0.158  -0.045
    1UNL    H23   49  -0.276  -0.204  -0.135
    1UNL    H24   50  -0.272  -0.195  -0.363
    1UNL    H25   51  -0.419  -0.002  -0.098
    1UNL    H26   52  -0.432  -0.017  -0.389
    1UNL    H27   53  -0.402   0.200  -0.213
    1UNL    H28   54  -0.172   0.085  -0.336
   0.00000   0.00000   0.00000   0.00000   0.00000   0.00000   0.00000   0.00000   0.00000
Generated with MDTraj, t= 26.0
 54
    1UNL     C1    1  -0.574   0.288   0.166
    1UNL     C2    2  -0.452   0.195   0.159
    1UNL     O1    3  -0.415   0.139   0.262
    1UNL     O2    4  -0.398   0.180   0.036
    1UNL     C3    5  -0.266   0.148   0.042
    1UNL     C4    6  -0.223   0.152  -0.109
    1UNL     O3    7  -0.102   0.072  -0.134
    1UNL     C5    8  -0.127  -0.068  -0.114
    1UNL     O4    9  -0.130  -0.112   0.023
    1UNL     C6   10  -0.055  -0.222   0.067
    1UNL     C7   11   0.081  -0.233   0.012
    1UNL     C8   12   0.171  -0.137   0.028
    1UNL     C9   13   0.143  -0.012   0.101
    1UNL    C10   14   0.313  -0.160  -0.023
    1UNL    C11   15   0.418  -0.113   0.070
    1UNL     O5   16   0.410  -0.156   0.184
    1UNL    C12   17   0.507  -0.006   0.019
    1UNL    C13   18   0.632   0.002   0.075
    1UNL    C14   19   0.658  -0.075   0.197
    1UNL    C15   20   0.741   0.092   0.023
    1UNL    C16   21  -0.250  -0.111  -0.205
    1UNL     O6   22  -0.206  -0.098  -0.338
    1UNL    C17   23  -0.381  -0.022  -0.180
    1UNL     O7   24  -0.477  -0.064  -0.283
    1UNL    C18   25  -0.338   0.126  -0.208
    1UNL     O8   26  -0.283   0.151  -0.334
    1UNL     H1   27  -0.553   0.380   0.209
    1UNL     H2   28  -0.652   0.238   0.221
    1UNL     H3   29  -0.615   0.297   0.072
    1UNL     H4   30  -0.209   0.220   0.094
    1UNL     H5   31  -0.254   0.043   0.073
    1UNL     H6   32  -0.190   0.253  -0.126
    1UNL     H7   33  -0.039  -0.113  -0.156
    1UNL     H8   34  -0.110  -0.313   0.064
    1UNL     H9   35  -0.046  -0.216   0.174
    1UNL    H10   36   0.105  -0.320  -0.049
    1UNL    H11   37   0.147  -0.025   0.205
    1UNL    H12   38   0.042   0.031   0.075
    1UNL    H13   39   0.226   0.055   0.090
    1UNL    H14   40   0.323  -0.267  -0.041
    1UNL    H15   41   0.323  -0.108  -0.117
    1UNL    H16   42   0.465   0.058  -0.059
    1UNL    H17   43   0.621  -0.014   0.277
    1UNL    H18   44   0.614  -0.172   0.187
    1UNL    H19   45   0.773  -0.089   0.223
    1UNL    H20   46   0.845   0.077   0.069
    1UNL    H21   47   0.706   0.192   0.036
    1UNL    H22   48   0.741   0.078  -0.084
    1UNL    H23   49  -0.269  -0.216  -0.181
    1UNL    H24   50  -0.289  -0.102  -0.393
    1UNL    H25   51  -0.416  -0.037  -0.083
    1UNL    H26   52  -0.489  -0.003  -0.362
    1UNL    H27   53  -0.428   0.190  -0.199
    1UNL    H28   54  -0.200   0.103  -0.343
   0.00000   0.00000   0.00000   0.00000   0.00000   0.00000   0.00000   0.00000   0.00000
Generated with MDTraj, t= 27.0
 54
    1UNL     C1    1  -0.570   0.292   0.203
    1UNL     C2    2  -0.435   0.239   0.194
    1UNL     O1    3  -0.370   0.200   0.288
    1UNL     O2    4  -0.396   0.224   0.062
    1UNL     C3    5  -0.270   0.162   0.047
    1UNL     C4    6  -0.231   0.155  -0.097
    1UNL     O3    7  -0.111   0.078  -0.124
    1UNL     C5    8  -0.123  -0.069  -0.128
    1UNL     O4    9  -0.141  -0.135  -0.003
    1UNL     C6   10  -0.068  -0.256   0.008
    1UNL     C7   11   0.082  -0.245  -0.018
    1UNL     C8   12   0.157  -0.139   0.020
    1UNL     C9   13   0.106  -0.004   0.067
    1UNL    C10   14   0.305  -0.156  -0.020
    1UNL    C11   15   0.414  -0.120   0.077
    1UNL     O5   16   0.399  -0.159   0.191
    1UNL    C12   17   0.521  -0.037   0.021
    1UNL    C13   18   0.632   0.006   0.088
    1UNL    C14   19   0.656  -0.035   0.226
    1UNL    C15   20   0.732   0.103   0.032
    1UNL    C16   21  -0.234  -0.130  -0.224
    1UNL     O6   22  -0.192  -0.129  -0.358
    1UNL    C17   23  -0.368  -0.059  -0.196
    1UNL     O7   24  -0.460  -0.084  -0.308
    1UNL    C18   25  -0.340   0.103  -0.190
    1UNL     O8   26  -0.302   0.147  -0.318
    1UNL     H1   27  -0.629   0.211   0.228
    1UNL     H2   28  -0.597   0.332   0.107
    1UNL     H3   29  -0.579   0.368   0.273
    1UNL     H4   30  -0.191   0.206   0.101
    1UNL     H5   31  -0.285   0.056   0.075
    1UNL     H6   32  -0.217   0.258  -0.133
    1UNL     H7   33  -0.027  -0.091  -0.176
    1UNL     H8   34  -0.107  -0.334  -0.052
    1UNL     H9   35  -0.081  -0.298   0.104
    1UNL    H10   36   0.131  -0.333  -0.063
    1UNL    H11   37   0.151   0.027   0.157
    1UNL    H12   38  -0.004  -0.003   0.088
    1UNL    H13   39   0.136   0.080   0.006
    1UNL    H14   40   0.325  -0.260  -0.049
    1UNL    H15   41   0.323  -0.097  -0.107
    1UNL    H16   42   0.494   0.002  -0.079
    1UNL    H17   43   0.623  -0.138   0.237
    1UNL    H18   44   0.760  -0.025   0.254
    1UNL    H19   45   0.587   0.016   0.302
    1UNL    H20   46   0.774   0.175   0.110
    1UNL    H21   47   0.681   0.155  -0.045
    1UNL    H22   48   0.811   0.043  -0.016
    1UNL    H23   49  -0.247  -0.234  -0.196
    1UNL    H24   50  -0.265  -0.170  -0.408
    1UNL    H25   51  -0.403  -0.083  -0.099
    1UNL    H26   52  -0.443  -0.017  -0.373
    1UNL    H27   53  -0.435   0.155  -0.169
    1UNL    H28   54  -0.218   0.098  -0.348
   0.00000   0.00000   0.00000   0.00000   0.00000   0.00000   0.00000   0.00000   0.00000
Generated with MDTraj, t= 28.0
 54
    1UNL     C1    1  -0.525   0.297   0.256
    1UNL     C2    2  -0.393   0.250   0.196
    1UNL     O1    3  -0.299   0.231   0.267
    1UNL     O2    4  -0.404   0.214   0.064
    1UNL     C3    5  -0.295   0.132   0.037
    1UNL     C4    6  -0.248   0.141  -0.105
    1UNL     O3    7  -0.124   0.070  -0.131
    1UNL     C5    8  -0.116  -0.072  -0.123
    1UNL     O4    9  -0.134  -0.125   0.005
    1UNL     C6   10  -0.064  -0.247   0.023
    1UNL     C7   11   0.076  -0.264  -0.027
    1UNL     C8   12   0.165  -0.166  -0.003
    1UNL     C9   13   0.123  -0.056   0.093
    1UNL    C10   14   0.309  -0.165  -0.050
    1UNL    C11   15   0.396  -0.110   0.060
    1UNL     O5   16   0.360  -0.139   0.172
    1UNL    C12   17   0.514  -0.023   0.025
    1UNL    C13   18   0.612   0.021   0.110
    1UNL    C14   19   0.605  -0.003   0.256
    1UNL    C15   20   0.729   0.096   0.058
    1UNL    C16   21  -0.221  -0.119  -0.228
    1UNL     O6   22  -0.179  -0.104  -0.363
    1UNL    C17   23  -0.358  -0.056  -0.205
    1UNL     O7   24  -0.451  -0.100  -0.306
    1UNL    C18   25  -0.355   0.102  -0.211
    1UNL     O8   26  -0.333   0.144  -0.343
    1UNL     H1   27  -0.561   0.379   0.203
    1UNL     H2   28  -0.513   0.322   0.356
    1UNL     H3   29  -0.602   0.222   0.248
    1UNL     H4   30  -0.215   0.157   0.100
    1UNL     H5   31  -0.321   0.027   0.062
    1UNL     H6   32  -0.232   0.251  -0.121
    1UNL     H7   33  -0.016  -0.094  -0.167
    1UNL     H8   34  -0.127  -0.330  -0.002
    1UNL     H9   35  -0.056  -0.259   0.128
    1UNL    H10   36   0.114  -0.349  -0.070
    1UNL    H11   37   0.197   0.021   0.086
    1UNL    H12   38   0.122  -0.105   0.191
    1UNL    H13   39   0.030  -0.008   0.066
    1UNL    H14   40   0.350  -0.266  -0.069
    1UNL    H15   41   0.323  -0.108  -0.139
    1UNL    H16   42   0.519   0.014  -0.071
    1UNL    H17   43   0.706  -0.049   0.282
    1UNL    H18   44   0.588   0.088   0.314
    1UNL    H19   45   0.544  -0.085   0.270
    1UNL    H20   46   0.726   0.204   0.074
    1UNL    H21   47   0.747   0.077  -0.048
    1UNL    H22   48   0.825   0.062   0.105
    1UNL    H23   49  -0.230  -0.225  -0.214
    1UNL    H24   50  -0.257  -0.122  -0.419
    1UNL    H25   51  -0.400  -0.088  -0.111
    1UNL    H26   52  -0.471  -0.020  -0.368
    1UNL    H27   53  -0.457   0.141  -0.186
    1UNL    H28   54  -0.242   0.119  -0.366
   0.00000   0.00000   0.00000   0.00000   0.00000   0.00000   0.00000   0.00000   0.00000
Generated with MDTraj, t= 29.0
 54
    1UNL     C1    1  -0.465   0.323   0.249
    1UNL     C2    2  -0.348   0.239   0.206
    1UNL     O1    3  -0.235   0.259   0.242
    1UNL     O2    4  -0.389   0.137   0.123
    1UNL     C3    5  -0.283   0.090   0.044
    1UNL     C4    6  -0.267   0.137  -0.102
    1UNL     O3    7  -0.144   0.095  -0.154
    1UNL     C5    8  -0.119  -0.047  -0.153
    1UNL     O4    9  -0.127  -0.103  -0.024
    1UNL     C6   10  -0.073  -0.237  -0.011
    1UNL     C7   11   0.069  -0.239  -0.031
    1UNL     C8   12   0.152  -0.147   0.020
    1UNL     C9   13   0.107  -0.044   0.119
    1UNL    C10   14   0.291  -0.149  -0.025
    1UNL    C11   15   0.398  -0.124   0.080
    1UNL     O5   16   0.372  -0.160   0.191
    1UNL    C12   17   0.520  -0.053   0.035
    1UNL    C13   18   0.593   0.025   0.115
    1UNL    C14   19   0.557   0.029   0.257
    1UNL    C15   20   0.708   0.101   0.058
    1UNL    C16   21  -0.220  -0.118  -0.248
    1UNL     O6   22  -0.191  -0.090  -0.385
    1UNL    C17   23  -0.362  -0.071  -0.212
    1UNL     O7   24  -0.455  -0.106  -0.315
    1UNL    C18   25  -0.370   0.083  -0.208
    1UNL     O8   26  -0.335   0.121  -0.332
    1UNL     H1   27  -0.459   0.333   0.352
    1UNL     H2   28  -0.556   0.279   0.225
    1UNL     H3   29  -0.457   0.423   0.209
    1UNL     H4   30  -0.195   0.104   0.100
    1UNL     H5   31  -0.295  -0.019   0.049
    1UNL     H6   32  -0.260   0.249  -0.104
    1UNL     H7   33  -0.015  -0.061  -0.194
    1UNL     H8   34  -0.120  -0.315  -0.071
    1UNL     H9   35  -0.103  -0.275   0.086
    1UNL    H10   36   0.121  -0.331  -0.074
    1UNL    H11   37   0.086   0.055   0.070
    1UNL    H12   38   0.185  -0.036   0.191
    1UNL    H13   39   0.013  -0.064   0.169
    1UNL    H14   40   0.307  -0.249  -0.067
    1UNL    H15   41   0.310  -0.081  -0.106
    1UNL    H16   42   0.545  -0.054  -0.076
    1UNL    H17   43   0.591   0.123   0.309
    1UNL    H18   44   0.451   0.022   0.277
    1UNL    H19   45   0.617  -0.045   0.300
    1UNL    H20   46   0.685   0.180  -0.009
    1UNL    H21   47   0.782   0.029   0.011
    1UNL    H22   48   0.765   0.146   0.141
    1UNL    H23   49  -0.210  -0.225  -0.234
    1UNL    H24   50  -0.273  -0.115  -0.437
    1UNL    H25   51  -0.399  -0.123  -0.123
    1UNL    H26   52  -0.459  -0.038  -0.379
    1UNL    H27   53  -0.474   0.120  -0.193
    1UNL    H28   54  -0.237   0.109  -0.347
   0.00000   0.00000   0.00000   0.00000   0.00000   0.00000   0.00000   0.00000   0.00000
Generated with MDTraj, t= 30.0
 54
    1UNL     C1    1  -0.408   0.336   0.273
    1UNL     C2    2  -0.323   0.250   0.182
    1UNL     O1    3  -0.204   0.266   0.186
    1UNL     O2    4  -0.381   0.152   0.107
    1UNL     C3    5  -0.283   0.076   0.039
    1UNL     C4    6  -0.263   0.124  -0.101
    1UNL     O3    7  -0.137   0.079  -0.152
    1UNL     C5    8  -0.125  -0.068  -0.161
    1UNL     O4    9  -0.147  -0.141  -0.040
    1UNL     C6   10  -0.069  -0.260  -0.032
    1UNL     C7   11   0.076  -0.240  -0.045
    1UNL     C8   12   0.153  -0.148   0.018
    1UNL     C9   13   0.107  -0.043   0.108
    1UNL    C10   14   0.302  -0.165  -0.010
    1UNL    C11   15   0.405  -0.130   0.098
    1UNL     O5   16   0.380  -0.170   0.208
    1UNL    C12   17   0.522  -0.055   0.058
    1UNL    C13   18   0.589   0.037   0.131
    1UNL    C14   19   0.543   0.080   0.267
    1UNL    C15   20   0.713   0.105   0.081
    1UNL    C16   21  -0.228  -0.119  -0.271
    1UNL     O6   22  -0.204  -0.050  -0.390
    1UNL    C17   23  -0.368  -0.085  -0.224
    1UNL     O7   24  -0.464  -0.098  -0.323
    1UNL    C18   25  -0.385   0.063  -0.180
    1UNL     O8   26  -0.405   0.139  -0.290
    1UNL     H1   27  -0.511   0.322   0.252
    1UNL     H2   28  -0.391   0.440   0.266
    1UNL     H3   29  -0.389   0.300   0.370
    1UNL     H4   30  -0.191   0.083   0.093
    1UNL     H5   31  -0.306  -0.032   0.050
    1UNL     H6   32  -0.250   0.235  -0.109
    1UNL     H7   33  -0.019  -0.096  -0.191
    1UNL     H8   34  -0.111  -0.331  -0.107
    1UNL     H9   35  -0.090  -0.323   0.056
    1UNL    H10   36   0.136  -0.310  -0.092
    1UNL    H11   37   0.011   0.008   0.077
    1UNL    H12   38   0.178   0.028   0.136
    1UNL    H13   39   0.069  -0.082   0.201
    1UNL    H14   40   0.327  -0.266  -0.041
    1UNL    H15   41   0.323  -0.106  -0.098
    1UNL    H16   42   0.557  -0.081  -0.037
    1UNL    H17   43   0.449   0.128   0.268
    1UNL    H18   44   0.522  -0.004   0.331
    1UNL    H19   45   0.616   0.145   0.312
    1UNL    H20   46   0.716   0.132  -0.023
    1UNL    H21   47   0.799   0.036   0.115
    1UNL    H22   48   0.721   0.195   0.142
    1UNL    H23   49  -0.221  -0.227  -0.282
    1UNL    H24   50  -0.270  -0.079  -0.453
    1UNL    H25   51  -0.393  -0.157  -0.143
    1UNL    H26   52  -0.477  -0.003  -0.356
    1UNL    H27   53  -0.473   0.080  -0.114
    1UNL    H28   54  -0.323   0.160  -0.334
   0.00000   0.00000   0.00000   0.00000   0.00000   0.00000   0.00000   0.00000   0.00000
Generated with MDTraj, t= 31.0
 54
    1UNL     C1    1  -0.372   0.358   0.272
    1UNL     C2    2  -0.301   0.264   0.181
    1UNL     O1    3  -0.188   0.299   0.150
    1UNL     O2    4  -0.357   0.143   0.147
    1UNL     C3    5  -0.272   0.063   0.070
    1UNL     C4    6  -0.272   0.102  -0.084
    1UNL     O3    7  -0.148   0.073  -0.151
    1UNL     C5    8  -0.128  -0.067  -0.173
    1UNL     O4    9  -0.129  -0.149  -0.057
    1UNL     C6   10  -0.060  -0.273  -0.063
    1UNL     C7   11   0.085  -0.260  -0.075
    1UNL     C8   12   0.171  -0.180  -0.007
    1UNL     C9   13   0.109  -0.087   0.094
    1UNL    C10   14   0.318  -0.187  -0.023
    1UNL    C11   15   0.393  -0.120   0.092
    1UNL     O5   16   0.338  -0.123   0.200
    1UNL    C12   17   0.518  -0.044   0.072
    1UNL    C13   18   0.574   0.046   0.155
    1UNL    C14   19   0.512   0.102   0.279
    1UNL    C15   20   0.708   0.108   0.122
    1UNL    C16   21  -0.241  -0.114  -0.273
    1UNL     O6   22  -0.227  -0.045  -0.397
    1UNL    C17   23  -0.380  -0.085  -0.217
    1UNL     O7   24  -0.474  -0.109  -0.317
    1UNL    C18   25  -0.395   0.068  -0.174
    1UNL     O8   26  -0.387   0.145  -0.294
    1UNL     H1   27  -0.328   0.457   0.271
    1UNL     H2   28  -0.355   0.324   0.371
    1UNL     H3   29  -0.473   0.357   0.257
    1UNL     H4   30  -0.172   0.090   0.108
    1UNL     H5   31  -0.281  -0.046   0.092
    1UNL     H6   32  -0.263   0.212  -0.084
    1UNL     H7   33  -0.025  -0.077  -0.222
    1UNL     H8   34  -0.098  -0.346  -0.140
    1UNL     H9   35  -0.085  -0.327   0.032
    1UNL    H10   36   0.141  -0.328  -0.144
    1UNL    H11   37  -0.003  -0.088   0.089
    1UNL    H12   38   0.152   0.011   0.094
    1UNL    H13   39   0.120  -0.121   0.196
    1UNL    H14   40   0.351  -0.289  -0.028
    1UNL    H15   41   0.350  -0.142  -0.117
    1UNL    H16   42   0.578  -0.078  -0.011
    1UNL    H17   43   0.414   0.080   0.280
    1UNL    H18   44   0.551   0.053   0.366
    1UNL    H19   45   0.532   0.212   0.282
    1UNL    H20   46   0.749   0.096   0.020
    1UNL    H21   47   0.783   0.074   0.199
    1UNL    H22   48   0.701   0.214   0.138
    1UNL    H23   49  -0.230  -0.221  -0.299
    1UNL    H24   50  -0.317  -0.028  -0.433
    1UNL    H25   51  -0.401  -0.166  -0.140
    1UNL    H26   52  -0.561  -0.067  -0.282
    1UNL    H27   53  -0.486   0.093  -0.118
    1UNL    H28   54  -0.296   0.134  -0.329
   0.00000   0.00000   0.00000   0.00000   0.00000   0.00000   0.00000   0.00000   0.00000
Generated with MDTraj, t= 32.0
 54
    1UNL     C1    1  -0.363   0.348   0.249
    1UNL     C2    2  -0.285   0.254   0.164
    1UNL     O1    3  -0.180   0.292   0.112
    1UNL     O2    4  -0.329   0.126   0.154
    1UNL     C3    5  -0.247   0.057   0.070
    1UNL     C4    6  -0.236   0.113  -0.079
    1UNL     O3    7  -0.127   0.057  -0.152
    1UNL     C5    8  -0.131  -0.079  -0.186
    1UNL     O4    9  -0.106  -0.169  -0.076
    1UNL     C6   10  -0.031  -0.278  -0.108
    1UNL     C7   11   0.111  -0.249  -0.109
    1UNL     C8   12   0.164  -0.176  -0.008
    1UNL     C9   13   0.076  -0.096   0.097
    1UNL    C10   14   0.311  -0.171  -0.017
    1UNL    C11   15   0.373  -0.107   0.099
    1UNL     O5   16   0.323  -0.116   0.207
    1UNL    C12   17   0.501  -0.033   0.083
    1UNL    C13   18   0.553   0.056   0.167
    1UNL    C14   19   0.475   0.105   0.282
    1UNL    C15   20   0.689   0.103   0.131
    1UNL    C16   21  -0.265  -0.119  -0.262
    1UNL     O6   22  -0.250  -0.070  -0.400
    1UNL    C17   23  -0.384  -0.065  -0.188
    1UNL     O7   24  -0.502  -0.094  -0.259
    1UNL    C18   25  -0.368   0.086  -0.157
    1UNL     O8   26  -0.379   0.164  -0.276
    1UNL     H1   27  -0.346   0.322   0.351
    1UNL     H2   28  -0.466   0.340   0.228
    1UNL     H3   29  -0.336   0.447   0.227
    1UNL     H4   30  -0.144   0.063   0.116
    1UNL     H5   31  -0.285  -0.047   0.074
    1UNL     H6   32  -0.225   0.220  -0.069
    1UNL     H7   33  -0.042  -0.081  -0.256
    1UNL     H8   34  -0.063  -0.320  -0.206
    1UNL     H9   35  -0.045  -0.366  -0.038
    1UNL    H10   36   0.188  -0.287  -0.176
    1UNL    H11   37   0.017  -0.173   0.139
    1UNL    H12   38   0.022  -0.018   0.044
    1UNL    H13   39   0.134  -0.051   0.176
    1UNL    H14   40   0.351  -0.270  -0.020
    1UNL    H15   41   0.355  -0.119  -0.106
    1UNL    H16   42   0.562  -0.077   0.002
    1UNL    H17   43   0.373   0.067   0.286
    1UNL    H18   44   0.519   0.074   0.371
    1UNL    H19   45   0.481   0.214   0.281
    1UNL    H20   46   0.739   0.044   0.048
    1UNL    H21   47   0.759   0.105   0.213
    1UNL    H22   48   0.688   0.206   0.095
    1UNL    H23   49  -0.286  -0.228  -0.279
    1UNL    H24   50  -0.335  -0.070  -0.450
    1UNL    H25   51  -0.397  -0.132  -0.094
    1UNL    H26   52  -0.497  -0.042  -0.342
    1UNL    H27   53  -0.450   0.115  -0.090
    1UNL    H28   54  -0.285   0.158  -0.315
   0.00000   0.00000   0.00000   0.00000   0.00000   0.00000   0.00000   0.00000   0.00000
Generated with MDTraj, t= 33.0
 54
    1UNL     C1    1  -0.383   0.324   0.235
    1UNL     C2    2  -0.274   0.257   0.157
    1UNL     O1    3  -0.169   0.308   0.123
    1UNL     O2    4  -0.292   0.124   0.137
    1UNL     C3    5  -0.196   0.060   0.052
    1UNL     C4    6  -0.203   0.095  -0.103
    1UNL     O3    7  -0.112   0.018  -0.184
    1UNL     C5    8  -0.145  -0.113  -0.205
    1UNL     O4    9  -0.132  -0.205  -0.094
    1UNL     C6   10  -0.031  -0.302  -0.103
    1UNL     C7   11   0.114  -0.261  -0.094
    1UNL     C8   12   0.177  -0.178  -0.007
    1UNL     C9   13   0.085  -0.107   0.091
    1UNL    C10   14   0.323  -0.165  -0.023
    1UNL    C11   15   0.382  -0.101   0.103
    1UNL     O5   16   0.326  -0.119   0.207
    1UNL    C12   17   0.505  -0.022   0.093
    1UNL    C13   18   0.546   0.066   0.186
    1UNL    C14   19   0.469   0.113   0.298
    1UNL    C15   20   0.675   0.139   0.155
    1UNL    C16   21  -0.291  -0.122  -0.265
    1UNL     O6   22  -0.307  -0.061  -0.397
    1UNL    C17   23  -0.398  -0.052  -0.179
    1UNL     O7   24  -0.523  -0.047  -0.250
    1UNL    C18   25  -0.352   0.088  -0.150
    1UNL     O8   26  -0.373   0.191  -0.252
    1UNL     H1   27  -0.470   0.287   0.196
    1UNL     H2   28  -0.379   0.430   0.223
    1UNL     H3   29  -0.378   0.304   0.340
    1UNL     H4   30  -0.093   0.097   0.088
    1UNL     H5   31  -0.208  -0.050   0.063
    1UNL     H6   32  -0.182   0.201  -0.122
    1UNL     H7   33  -0.062  -0.144  -0.273
    1UNL     H8   34  -0.050  -0.367  -0.193
    1UNL     H9   35  -0.053  -0.378  -0.022
    1UNL    H10   36   0.186  -0.303  -0.160
    1UNL    H11   37   0.101  -0.149   0.184
    1UNL    H12   38  -0.022  -0.121   0.068
    1UNL    H13   39   0.087   0.003   0.099
    1UNL    H14   40   0.373  -0.261  -0.024
    1UNL    H15   41   0.354  -0.114  -0.116
    1UNL    H16   42   0.559  -0.050   0.009
    1UNL    H17   43   0.357   0.097   0.276
    1UNL    H18   44   0.488   0.059   0.383
    1UNL    H19   45   0.493   0.213   0.320
    1UNL    H20   46   0.755   0.062   0.129
    1UNL    H21   47   0.708   0.204   0.230
    1UNL    H22   48   0.659   0.204   0.066
    1UNL    H23   49  -0.311  -0.234  -0.272
    1UNL    H24   50  -0.394  -0.020  -0.403
    1UNL    H25   51  -0.406  -0.116  -0.082
    1UNL    H26   52  -0.582  -0.004  -0.193
    1UNL    H27   53  -0.417   0.129  -0.072
    1UNL    H28   54  -0.318   0.166  -0.324
   0.00000   0.00000   0.00000   0.00000   0.00000   0.00000   0.00000   0.00000   0.00000
Generated with MDTraj, t= 34.0
 54
    1UNL     C1    1  -0.367   0.304   0.211
    1UNL     C2    2  -0.259   0.231   0.143
    1UNL     O1    3  -0.161   0.299   0.113
    1UNL     O2    4  -0.276   0.097   0.127
    1UNL     C3    5  -0.174   0.049   0.044
    1UNL     C4    6  -0.189   0.111  -0.098
    1UNL     O3    7  -0.109   0.035  -0.187
    1UNL     C5    8  -0.152  -0.100  -0.200
    1UNL     O4    9  -0.123  -0.175  -0.081
    1UNL     C6   10  -0.044  -0.292  -0.095
    1UNL     C7   11   0.096  -0.252  -0.110
    1UNL     C8   12   0.157  -0.181  -0.015
    1UNL     C9   13   0.083  -0.145   0.108
    1UNL    C10   14   0.301  -0.153  -0.035
    1UNL    C11   15   0.369  -0.095   0.091
    1UNL     O5   16   0.343  -0.142   0.199
    1UNL    C12   17   0.481   0.006   0.086
    1UNL    C13   18   0.529   0.082   0.186
    1UNL    C14   19   0.457   0.104   0.318
    1UNL    C15   20   0.654   0.164   0.166
    1UNL    C16   21  -0.302  -0.120  -0.244
    1UNL     O6   22  -0.317  -0.092  -0.386
    1UNL    C17   23  -0.390  -0.030  -0.154
    1UNL     O7   24  -0.522  -0.024  -0.219
    1UNL    C18   25  -0.334   0.106  -0.150
    1UNL     O8   26  -0.347   0.162  -0.282
    1UNL     H1   27  -0.345   0.405   0.195
    1UNL     H2   28  -0.374   0.280   0.314
    1UNL     H3   29  -0.462   0.282   0.167
    1UNL     H4   30  -0.071   0.083   0.088
    1UNL     H5   31  -0.173  -0.060   0.042
    1UNL     H6   32  -0.141   0.212  -0.105
    1UNL     H7   33  -0.098  -0.151  -0.278
    1UNL     H8   34  -0.083  -0.345  -0.186
    1UNL     H9   35  -0.066  -0.375  -0.023
    1UNL    H10   36   0.165  -0.279  -0.197
    1UNL    H11   37   0.131  -0.187   0.193
    1UNL    H12   38  -0.017  -0.186   0.116
    1UNL    H13   39   0.067  -0.040   0.134
    1UNL    H14   40   0.354  -0.244  -0.058
    1UNL    H15   41   0.321  -0.085  -0.120
    1UNL    H16   42   0.533  -0.007  -0.014
    1UNL    H17   43   0.353   0.138   0.284
    1UNL    H18   44   0.440   0.012   0.369
    1UNL    H19   45   0.513   0.166   0.378
    1UNL    H20   46   0.734   0.107   0.217
    1UNL    H21   47   0.644   0.263   0.206
    1UNL    H22   48   0.675   0.178   0.056
    1UNL    H23   49  -0.333  -0.230  -0.229
    1UNL    H24   50  -0.408  -0.108  -0.415
    1UNL    H25   51  -0.401  -0.077  -0.048
    1UNL    H26   52  -0.510   0.036  -0.300
    1UNL    H27   53  -0.400   0.160  -0.080
    1UNL    H28   54  -0.271   0.139  -0.333
   0.00000   0.00000   0.00000   0.00000   0.00000   0.00000   0.00000   0.00000   0.00000
Generated with MDTraj, t= 35.0
 54
    1UNL     C1    1  -0.351   0.319   0.248
    1UNL     C2    2  -0.261   0.254   0.146
    1UNL     O1    3  -0.165   0.314   0.103
    1UNL     O2    4  -0.299   0.131   0.112
    1UNL     C3    5  -0.190   0.064   0.041
    1UNL     C4    6  -0.182   0.103  -0.108
    1UNL     O3    7  -0.100   0.015  -0.188
    1UNL     C5    8  -0.156  -0.119  -0.196
    1UNL     O4    9  -0.130  -0.205  -0.081
    1UNL     C6   10  -0.031  -0.298  -0.112
    1UNL     C7   11   0.098  -0.232  -0.110
    1UNL     C8   12   0.159  -0.183  -0.001
    1UNL     C9   13   0.095  -0.212   0.128
    1UNL    C10   14   0.291  -0.122  -0.024
    1UNL    C11   15   0.379  -0.103   0.091
    1UNL     O5   16   0.377  -0.172   0.192
    1UNL    C12   17   0.482   0.007   0.081
    1UNL    C13   18   0.517   0.090   0.180
    1UNL    C14   19   0.459   0.074   0.318
    1UNL    C15   20   0.596   0.215   0.155
    1UNL    C16   21  -0.304  -0.125  -0.242
    1UNL     O6   22  -0.312  -0.113  -0.384
    1UNL    C17   23  -0.392  -0.020  -0.159
    1UNL     O7   24  -0.529  -0.005  -0.207
    1UNL    C18   25  -0.329   0.114  -0.160
    1UNL     O8   26  -0.321   0.162  -0.294
    1UNL     H1   27  -0.326   0.278   0.347
    1UNL     H2   28  -0.453   0.316   0.230
    1UNL     H3   29  -0.321   0.420   0.253
    1UNL     H4   30  -0.094   0.080   0.105
    1UNL     H5   31  -0.214  -0.040   0.054
    1UNL     H6   32  -0.127   0.201  -0.113
    1UNL     H7   33  -0.098  -0.166  -0.273
    1UNL     H8   34  -0.053  -0.350  -0.208
    1UNL     H9   35  -0.047  -0.383  -0.046
    1UNL    H10   36   0.159  -0.221  -0.191
    1UNL    H11   37   0.074  -0.319   0.134
    1UNL    H12   38   0.005  -0.156   0.144
    1UNL    H13   39   0.164  -0.187   0.207
    1UNL    H14   40   0.346  -0.183  -0.098
    1UNL    H15   41   0.277  -0.023  -0.070
    1UNL    H16   42   0.521   0.017  -0.015
    1UNL    H17   43   0.408   0.168   0.341
    1UNL    H18   44   0.374   0.002   0.313
    1UNL    H19   45   0.535   0.036   0.381
    1UNL    H20   46   0.646   0.236   0.247
    1UNL    H21   47   0.531   0.302   0.127
    1UNL    H22   48   0.670   0.209   0.073
    1UNL    H23   49  -0.354  -0.223  -0.214
    1UNL    H24   50  -0.407  -0.087  -0.406
    1UNL    H25   51  -0.407  -0.067  -0.054
    1UNL    H26   52  -0.523   0.059  -0.289
    1UNL    H27   53  -0.390   0.178  -0.092
    1UNL    H28   54  -0.268   0.090  -0.348
   0.00000   0.00000   0.00000   0.00000   0.00000   0.00000   0.00000   0.00000   0.00000
Generated with MDTraj, t= 36.0
 54
    1UNL     C1    1  -0.343   0.344   0.237
    1UNL     C2    2  -0.238   0.269   0.154
    1UNL     O1    3  -0.144   0.320   0.100
    1UNL     O2    4  -0.272   0.134   0.138
    1UNL     C3    5  -0.187   0.055   0.052
    1UNL     C4    6  -0.191   0.085  -0.099
    1UNL     O3    7  -0.119  -0.001  -0.181
    1UNL     C5    8  -0.176  -0.138  -0.199
    1UNL     O4    9  -0.157  -0.221  -0.083
    1UNL     C6   10  -0.043  -0.304  -0.091
    1UNL     C7   11   0.092  -0.242  -0.101
    1UNL     C8   12   0.171  -0.200  -0.000
    1UNL     C9   13   0.144  -0.239   0.141
    1UNL    C10   14   0.293  -0.127  -0.037
    1UNL    C11   15   0.386  -0.089   0.079
    1UNL     O5   16   0.412  -0.172   0.163
    1UNL    C12   17   0.444   0.047   0.085
    1UNL    C13   18   0.488   0.111   0.194
    1UNL    C14   19   0.475   0.050   0.330
    1UNL    C15   20   0.570   0.240   0.179
    1UNL    C16   21  -0.323  -0.134  -0.250
    1UNL     O6   22  -0.318  -0.100  -0.382
    1UNL    C17   23  -0.414  -0.022  -0.179
    1UNL     O7   24  -0.533   0.008  -0.251
    1UNL    C18   25  -0.329   0.110  -0.162
    1UNL     O8   26  -0.305   0.167  -0.298
    1UNL     H1   27  -0.448   0.328   0.212
    1UNL     H2   28  -0.319   0.446   0.244
    1UNL     H3   29  -0.332   0.305   0.335
    1UNL     H4   30  -0.084   0.070   0.101
    1UNL     H5   31  -0.222  -0.043   0.076
    1UNL     H6   32  -0.138   0.184  -0.114
    1UNL     H7   33  -0.114  -0.186  -0.272
    1UNL     H8   34  -0.059  -0.368  -0.178
    1UNL     H9   35  -0.038  -0.369  -0.005
    1UNL    H10   36   0.141  -0.229  -0.202
    1UNL    H11   37   0.095  -0.339   0.150
    1UNL    H12   38   0.083  -0.170   0.194
    1UNL    H13   39   0.241  -0.245   0.184
    1UNL    H14   40   0.356  -0.190  -0.103
    1UNL    H15   41   0.264  -0.040  -0.096
    1UNL    H16   42   0.462   0.084  -0.015
    1UNL    H17   43   0.467   0.120   0.406
    1UNL    H18   44   0.379  -0.003   0.337
    1UNL    H19   45   0.556  -0.027   0.342
    1UNL    H20   46   0.535   0.311   0.251
    1UNL    H21   47   0.558   0.283   0.073
    1UNL    H22   48   0.677   0.233   0.190
    1UNL    H23   49  -0.372  -0.234  -0.243
    1UNL    H24   50  -0.405  -0.089  -0.423
    1UNL    H25   51  -0.442  -0.069  -0.077
    1UNL    H26   52  -0.532   0.101  -0.260
    1UNL    H27   53  -0.380   0.191  -0.103
    1UNL    H28   54  -0.259   0.100  -0.343
   0.00000   0.00000   0.00000   0.00000   0.00000   0.00000   0.00000   0.00000   0.00000
Generated with MDTraj, t= 37.0
 54
    1UNL     C1    1  -0.291   0.349   0.188
    1UNL     C2    2  -0.216   0.237   0.126
    1UNL     O1    3  -0.107   0.259   0.085
    1UNL     O2    4  -0.283   0.115   0.115
    1UNL     C3    5  -0.202   0.028   0.045
    1UNL     C4    6  -0.182   0.085  -0.099
    1UNL     O3    7  -0.111  -0.008  -0.184
    1UNL     C5    8  -0.171  -0.138  -0.193
    1UNL     O4    9  -0.175  -0.203  -0.063
    1UNL     C6   10  -0.061  -0.280  -0.034
    1UNL     C7   11   0.063  -0.201  -0.071
    1UNL     C8   12   0.170  -0.187   0.008
    1UNL     C9   13   0.170  -0.252   0.135
    1UNL    C10   14   0.286  -0.111  -0.047
    1UNL    C11   15   0.377  -0.083   0.069
    1UNL     O5   16   0.423  -0.174   0.133
    1UNL    C12   17   0.410   0.057   0.091
    1UNL    C13   18   0.467   0.111   0.201
    1UNL    C14   19   0.507   0.022   0.311
    1UNL    C15   20   0.492   0.260   0.204
    1UNL    C16   21  -0.317  -0.119  -0.251
    1UNL     O6   22  -0.308  -0.089  -0.388
    1UNL    C17   23  -0.401  -0.014  -0.172
    1UNL     O7   24  -0.527  -0.008  -0.236
    1UNL    C18   25  -0.321   0.120  -0.155
    1UNL     O8   26  -0.310   0.185  -0.277
    1UNL     H1   27  -0.248   0.444   0.177
    1UNL     H2   28  -0.303   0.323   0.294
    1UNL     H3   29  -0.388   0.356   0.146
    1UNL     H4   30  -0.106   0.014   0.104
    1UNL     H5   31  -0.266  -0.057   0.041
    1UNL     H6   32  -0.120   0.178  -0.098
    1UNL     H7   33  -0.116  -0.200  -0.263
    1UNL     H8   34  -0.057  -0.369  -0.095
    1UNL     H9   35  -0.059  -0.298   0.071
    1UNL    H10   36   0.069  -0.153  -0.164
    1UNL    H11   37   0.151  -0.363   0.128
    1UNL    H12   38   0.090  -0.231   0.201
    1UNL    H13   39   0.259  -0.243   0.190
    1UNL    H14   40   0.344  -0.171  -0.122
    1UNL    H15   41   0.260  -0.017  -0.094
    1UNL    H16   42   0.377   0.118   0.005
    1UNL    H17   43   0.578   0.066   0.373
    1UNL    H18   44   0.424   0.003   0.378
    1UNL    H19   45   0.547  -0.077   0.268
    1UNL    H20   46   0.392   0.307   0.215
    1UNL    H21   47   0.541   0.285   0.105
    1UNL    H22   48   0.555   0.301   0.280
    1UNL    H23   49  -0.371  -0.212  -0.258
    1UNL    H24   50  -0.389  -0.046  -0.424
    1UNL    H25   51  -0.421  -0.051  -0.067
    1UNL    H26   52  -0.540   0.085  -0.257
    1UNL    H27   53  -0.378   0.194  -0.092
    1UNL    H28   54  -0.276   0.108  -0.340
   0.00000   0.00000   0.00000   0.00000   0.00000   0.00000   0.00000   0.00000   0.00000
Generated with MDTraj, t= 38.0
 54
    1UNL     C1    1  -0.253   0.361   0.192
    1UNL     C2    2  -0.176   0.247   0.133
    1UNL     O1    3  -0.059   0.265   0.117
    1UNL     O2    4  -0.246   0.130   0.114
    1UNL     C3    5  -0.180   0.028   0.040
    1UNL     C4    6  -0.183   0.068  -0.112
    1UNL     O3    7  -0.129  -0.040  -0.193
    1UNL     C5    8  -0.199  -0.154  -0.208
    1UNL     O4    9  -0.210  -0.233  -0.086
    1UNL     C6   10  -0.084  -0.271  -0.022
    1UNL     C7   11   0.039  -0.184  -0.035
    1UNL     C8   12   0.156  -0.196   0.028
    1UNL     C9   13   0.174  -0.291   0.146
    1UNL    C10   14   0.282  -0.128  -0.023
    1UNL    C11   15   0.388  -0.072   0.066
    1UNL     O5   16   0.488  -0.136   0.088
    1UNL    C12   17   0.374   0.070   0.111
    1UNL    C13   18   0.444   0.122   0.213
    1UNL    C14   19   0.551   0.050   0.285
    1UNL    C15   20   0.423   0.260   0.259
    1UNL    C16   21  -0.339  -0.134  -0.274
    1UNL     O6   22  -0.335  -0.081  -0.404
    1UNL    C17   23  -0.409  -0.023  -0.188
    1UNL     O7   24  -0.531   0.015  -0.254
    1UNL    C18   25  -0.320   0.101  -0.164
    1UNL     O8   26  -0.303   0.179  -0.273
    1UNL     H1   27  -0.292   0.343   0.287
    1UNL     H2   28  -0.339   0.366   0.124
    1UNL     H3   29  -0.199   0.453   0.191
    1UNL     H4   30  -0.076   0.024   0.079
    1UNL     H5   31  -0.246  -0.054   0.044
    1UNL     H6   32  -0.112   0.151  -0.121
    1UNL     H7   33  -0.135  -0.213  -0.276
    1UNL     H8   34  -0.061  -0.368  -0.071
    1UNL     H9   35  -0.107  -0.269   0.082
    1UNL    H10   36   0.045  -0.111  -0.112
    1UNL    H11   37   0.168  -0.398   0.122
    1UNL    H12   38   0.095  -0.284   0.217
    1UNL    H13   39   0.268  -0.265   0.197
    1UNL    H14   40   0.327  -0.210  -0.085
    1UNL    H15   41   0.250  -0.055  -0.096
    1UNL    H16   42   0.318   0.136   0.055
    1UNL    H17   43   0.652   0.076   0.245
    1UNL    H18   44   0.545   0.073   0.389
    1UNL    H19   45   0.530  -0.057   0.265
    1UNL    H20   46   0.331   0.302   0.208
    1UNL    H21   47   0.512   0.317   0.242
    1UNL    H22   48   0.398   0.273   0.365
    1UNL    H23   49  -0.395  -0.224  -0.284
    1UNL    H24   50  -0.430  -0.048  -0.423
    1UNL    H25   51  -0.443  -0.074  -0.095
    1UNL    H26   52  -0.509   0.105  -0.302
    1UNL    H27   53  -0.373   0.170  -0.093
    1UNL    H28   54  -0.253   0.123  -0.329
   0.00000   0.00000   0.00000   0.00000   0.00000   0.00000   0.00000   0.00000   0.00000
Generated with MDTraj, t= 39.0
 54
    1UNL     C1    1  -0.185   0.353   0.219
    1UNL     C2    2  -0.133   0.239   0.134
    1UNL     O1    3  -0.015   0.222   0.103
    1UNL     O2    4  -0.230   0.150   0.105
    1UNL     C3    5  -0.179   0.046   0.025
    1UNL     C4    6  -0.182   0.083  -0.125
    1UNL     O3    7  -0.125  -0.030  -0.203
    1UNL     C5    8  -0.194  -0.151  -0.187
    1UNL     O4    9  -0.200  -0.201  -0.050
    1UNL     C6   10  -0.080  -0.272  -0.015
    1UNL     C7   11   0.043  -0.193  -0.053
    1UNL     C8   12   0.163  -0.199   0.002
    1UNL     C9   13   0.193  -0.293   0.114
    1UNL    C10   14   0.270  -0.102  -0.045
    1UNL    C11   15   0.357  -0.068   0.072
    1UNL     O5   16   0.456  -0.133   0.095
    1UNL    C12   17   0.314   0.036   0.165
    1UNL    C13   18   0.399   0.117   0.230
    1UNL    C14   19   0.545   0.095   0.211
    1UNL    C15   20   0.353   0.232   0.310
    1UNL    C16   21  -0.336  -0.136  -0.237
    1UNL     O6   22  -0.324  -0.135  -0.373
    1UNL    C17   23  -0.409  -0.009  -0.184
    1UNL     O7   24  -0.518   0.005  -0.274
    1UNL    C18   25  -0.320   0.114  -0.180
    1UNL     O8   26  -0.316   0.185  -0.301
    1UNL     H1   27  -0.265   0.396   0.163
    1UNL     H2   28  -0.111   0.429   0.218
    1UNL     H3   29  -0.216   0.326   0.321
    1UNL     H4   30  -0.073   0.042   0.047
    1UNL     H5   31  -0.238  -0.039   0.046
    1UNL     H6   32  -0.118   0.169  -0.133
    1UNL     H7   33  -0.141  -0.232  -0.242
    1UNL     H8   34  -0.084  -0.369  -0.071
    1UNL     H9   35  -0.093  -0.276   0.092
    1UNL    H10   36   0.033  -0.109  -0.125
    1UNL    H11   37   0.156  -0.391   0.101
    1UNL    H12   38   0.138  -0.257   0.200
    1UNL    H13   39   0.302  -0.286   0.136
    1UNL    H14   40   0.338  -0.136  -0.128
    1UNL    H15   41   0.222  -0.011  -0.084
    1UNL    H16   42   0.206   0.069   0.152
    1UNL    H17   43   0.573   0.071   0.100
    1UNL    H18   44   0.608   0.177   0.243
    1UNL    H19   45   0.580   0.009   0.262
    1UNL    H20   46   0.301   0.310   0.247
    1UNL    H21   47   0.432   0.268   0.368
    1UNL    H22   48   0.273   0.202   0.382
    1UNL    H23   49  -0.392  -0.222  -0.205
    1UNL    H24   50  -0.410  -0.104  -0.403
    1UNL    H25   51  -0.436  -0.038  -0.082
    1UNL    H26   52  -0.526   0.098  -0.290
    1UNL    H27   53  -0.360   0.193  -0.113
    1UNL    H28   54  -0.255   0.141  -0.355
   0.00000   0.00000   0.00000   0.00000   0.00000   0.00000   0.00000   0.00000   0.00000
Generated with MDTraj, t= 40.0
 54
    1UNL     C1    1  -0.086   0.354   0.237
    1UNL     C2    2  -0.087   0.239   0.142
    1UNL     O1    3   0.020   0.185   0.112
    1UNL     O2    4  -0.208   0.199   0.100
    1UNL     C3    5  -0.197   0.078   0.024
    1UNL     C4    6  -0.185   0.080  -0.127
    1UNL     O3    7  -0.132  -0.032  -0.199
    1UNL     C5    8  -0.211  -0.148  -0.186
    1UNL     O4    9  -0.202  -0.223  -0.064
    1UNL     C6   10  -0.071  -0.275  -0.038
    1UNL     C7   11   0.046  -0.179  -0.051
    1UNL     C8   12   0.168  -0.206  -0.010
    1UNL     C9   13   0.209  -0.330   0.062
    1UNL    C10   14   0.279  -0.112  -0.042
    1UNL    C11   15   0.354  -0.066   0.087
    1UNL     O5   16   0.461  -0.113   0.118
    1UNL    C12   17   0.296   0.031   0.180
    1UNL    C13   18   0.365   0.135   0.237
    1UNL    C14   19   0.501   0.177   0.195
    1UNL    C15   20   0.305   0.211   0.356
    1UNL    C16   21  -0.356  -0.135  -0.233
    1UNL     O6   22  -0.357  -0.139  -0.376
    1UNL    C17   23  -0.420  -0.005  -0.176
    1UNL     O7   24  -0.534   0.022  -0.255
    1UNL    C18   25  -0.322   0.112  -0.194
    1UNL     O8   26  -0.298   0.118  -0.335
    1UNL     H1   27   0.017   0.388   0.233
    1UNL     H2   28  -0.106   0.325   0.334
    1UNL     H3   29  -0.156   0.435   0.210
    1UNL     H4   30  -0.113   0.027   0.065
    1UNL     H5   31  -0.285   0.025   0.045
    1UNL     H6   32  -0.115   0.159  -0.152
    1UNL     H7   33  -0.169  -0.218  -0.263
    1UNL     H8   34  -0.068  -0.363  -0.110
    1UNL     H9   35  -0.076  -0.307   0.067
    1UNL    H10   36   0.012  -0.086  -0.084
    1UNL    H11   37   0.151  -0.415   0.051
    1UNL    H12   38   0.204  -0.312   0.171
    1UNL    H13   39   0.316  -0.352   0.048
    1UNL    H14   40   0.351  -0.159  -0.111
    1UNL    H15   41   0.251  -0.019  -0.095
    1UNL    H16   42   0.196   0.020   0.203
    1UNL    H17   43   0.531   0.121   0.101
    1UNL    H18   44   0.510   0.286   0.171
    1UNL    H19   45   0.581   0.161   0.261
    1UNL    H20   46   0.291   0.319   0.345
    1UNL    H21   47   0.365   0.190   0.443
    1UNL    H22   48   0.203   0.171   0.379
    1UNL    H23   49  -0.416  -0.226  -0.213
    1UNL    H24   50  -0.440  -0.094  -0.411
    1UNL    H25   51  -0.459  -0.022  -0.078
    1UNL    H26   52  -0.504   0.054  -0.349
    1UNL    H27   53  -0.362   0.210  -0.171
    1UNL    H28   54  -0.238   0.037  -0.362
   0.00000   0.00000   0.00000   0.00000   0.00000   0.00000   0.00000   0.00000   0.00000
Generated with MDTraj, t= 41.0
 54
    1UNL     C1    1  -0.016   0.345   0.182
    1UNL     C2    2  -0.053   0.210   0.128
    1UNL     O1    3   0.036   0.126   0.138
    1UNL     O2    4  -0.173   0.192   0.073
    1UNL     C3    5  -0.173   0.068   0.003
    1UNL     C4    6  -0.179   0.081  -0.146
    1UNL     O3    7  -0.133  -0.033  -0.221
    1UNL     C5    8  -0.209  -0.151  -0.183
    1UNL     O4    9  -0.201  -0.203  -0.047
    1UNL     C6   10  -0.076  -0.268  -0.024
    1UNL     C7   11   0.049  -0.182  -0.033
    1UNL     C8   12   0.174  -0.210  -0.006
    1UNL     C9   13   0.228  -0.345   0.013
    1UNL    C10   14   0.279  -0.103  -0.025
    1UNL    C11   15   0.349  -0.060   0.098
    1UNL     O5   16   0.469  -0.075   0.103
    1UNL    C12   17   0.283   0.011   0.211
    1UNL    C13   18   0.328   0.132   0.259
    1UNL    C14   19   0.455   0.198   0.211
    1UNL    C15   20   0.239   0.215   0.345
    1UNL    C16   21  -0.358  -0.133  -0.217
    1UNL     O6   22  -0.374  -0.140  -0.356
    1UNL    C17   23  -0.416  -0.000  -0.161
    1UNL     O7   24  -0.530   0.031  -0.237
    1UNL    C18   25  -0.327   0.114  -0.199
    1UNL     O8   26  -0.324   0.142  -0.338
    1UNL     H1   27  -0.055   0.349   0.284
    1UNL     H2   28  -0.052   0.428   0.125
    1UNL     H3   29   0.090   0.363   0.190
    1UNL     H4   30  -0.097   0.004   0.045
    1UNL     H5   31  -0.262   0.021   0.036
    1UNL     H6   32  -0.114   0.166  -0.168
    1UNL     H7   33  -0.175  -0.236  -0.246
    1UNL     H8   34  -0.076  -0.361  -0.091
    1UNL     H9   35  -0.103  -0.306   0.076
    1UNL    H10   36   0.025  -0.084  -0.056
    1UNL    H11   37   0.253  -0.394  -0.076
    1UNL    H12   38   0.149  -0.398   0.070
    1UNL    H13   39   0.313  -0.334   0.080
    1UNL    H14   40   0.359  -0.140  -0.092
    1UNL    H15   41   0.237  -0.010  -0.072
    1UNL    H16   42   0.175  -0.005   0.230
    1UNL    H17   43   0.521   0.123   0.174
    1UNL    H18   44   0.427   0.275   0.132
    1UNL    H19   45   0.500   0.262   0.290
    1UNL    H20   46   0.247   0.322   0.338
    1UNL    H21   47   0.255   0.186   0.453
    1UNL    H22   48   0.136   0.188   0.319
    1UNL    H23   49  -0.415  -0.222  -0.177
    1UNL    H24   50  -0.472  -0.136  -0.377
    1UNL    H25   51  -0.447   0.003  -0.058
    1UNL    H26   52  -0.495   0.087  -0.309
    1UNL    H27   53  -0.372   0.196  -0.144
    1UNL    H28   54  -0.256   0.089  -0.372
   0.00000   0.00000   0.00000   0.00000   0.00000   0.00000   0.00000   0.00000   0.00000
Generated with MDTraj, t= 42.0
 54
    1UNL     C1    1   0.023   0.366   0.119
    1UNL     C2    2  -0.035   0.231   0.117
    1UNL     O1    3   0.025   0.138   0.166
    1UNL     O2    4  -0.155   0.206   0.049
    1UNL     C3    5  -0.170   0.071   0.004
    1UNL     C4    6  -0.178   0.067  -0.148
    1UNL     O3    7  -0.143  -0.057  -0.219
    1UNL     C5    8  -0.218  -0.164  -0.179
    1UNL     O4    9  -0.188  -0.205  -0.044
    1UNL     C6   10  -0.051  -0.254  -0.026
    1UNL     C7   11   0.056  -0.158  -0.062
    1UNL     C8   12   0.179  -0.181  -0.032
    1UNL     C9   13   0.218  -0.305   0.045
    1UNL    C10   14   0.298  -0.093  -0.057
    1UNL    C11   15   0.351  -0.054   0.082
    1UNL     O5   16   0.466  -0.075   0.114
    1UNL    C12   17   0.266   0.006   0.182
    1UNL    C13   18   0.305   0.106   0.268
    1UNL    C14   19   0.428   0.187   0.238
    1UNL    C15   20   0.222   0.144   0.388
    1UNL    C16   21  -0.365  -0.140  -0.211
    1UNL     O6   22  -0.379  -0.146  -0.355
    1UNL    C17   23  -0.418  -0.001  -0.147
    1UNL     O7   24  -0.539   0.027  -0.216
    1UNL    C18   25  -0.322   0.112  -0.193
    1UNL     O8   26  -0.329   0.140  -0.332
    1UNL     H1   27  -0.056   0.439   0.103
    1UNL     H2   28   0.109   0.377   0.051
    1UNL     H3   29   0.054   0.387   0.218
    1UNL     H4   30  -0.083   0.016   0.036
    1UNL     H5   31  -0.246   0.016   0.057
    1UNL     H6   32  -0.110   0.144  -0.188
    1UNL     H7   33  -0.183  -0.252  -0.236
    1UNL     H8   34  -0.057  -0.348  -0.089
    1UNL     H9   35  -0.043  -0.294   0.074
    1UNL    H10   36   0.020  -0.060  -0.107
    1UNL    H11   37   0.324  -0.310   0.066
    1UNL    H12   38   0.172  -0.392  -0.004
    1UNL    H13   39   0.168  -0.294   0.138
    1UNL    H14   40   0.365  -0.152  -0.121
    1UNL    H15   41   0.252  -0.004  -0.109
    1UNL    H16   42   0.165  -0.033   0.192
    1UNL    H17   43   0.509   0.146   0.289
    1UNL    H18   44   0.448   0.188   0.128
    1UNL    H19   45   0.414   0.301   0.257
    1UNL    H20   46   0.230   0.245   0.425
    1UNL    H21   47   0.247   0.075   0.478
    1UNL    H22   48   0.121   0.128   0.358
    1UNL    H23   49  -0.423  -0.229  -0.169
    1UNL    H24   50  -0.430  -0.072  -0.389
    1UNL    H25   51  -0.434  -0.013  -0.044
    1UNL    H26   52  -0.569   0.116  -0.197
    1UNL    H27   53  -0.345   0.209  -0.152
    1UNL    H28   54  -0.278   0.077  -0.391
   0.00000   0.00000   0.00000   0.00000   0.00000   0.00000   0.00000   0.00000   0.00000
Generated with MDTraj, t= 43.0
 54
    1UNL     C1    1   0.011   0.407   0.130
    1UNL     C2    2  -0.029   0.259   0.111
    1UNL     O1    3   0.025   0.178   0.180
    1UNL     O2    4  -0.121   0.238   0.011
    1UNL     C3    5  -0.152   0.108  -0.022
    1UNL     C4    6  -0.184   0.090  -0.173
    1UNL     O3    7  -0.142  -0.037  -0.236
    1UNL     C5    8  -0.213  -0.151  -0.193
    1UNL     O4    9  -0.181  -0.203  -0.062
    1UNL     C6   10  -0.061  -0.284  -0.053
    1UNL     C7   11   0.057  -0.196  -0.071
    1UNL     C8   12   0.173  -0.199  -0.010
    1UNL     C9   13   0.216  -0.306   0.085
    1UNL    C10   14   0.275  -0.088  -0.044
    1UNL    C11   15   0.355  -0.041   0.070
    1UNL     O5   16   0.473  -0.021   0.057
    1UNL    C12   17   0.287  -0.015   0.199
    1UNL    C13   18   0.327   0.062   0.305
    1UNL    C14   19   0.446   0.149   0.302
    1UNL    C15   20   0.222   0.105   0.405
    1UNL    C16   21  -0.365  -0.147  -0.209
    1UNL     O6   22  -0.400  -0.162  -0.346
    1UNL    C17   23  -0.416  -0.013  -0.146
    1UNL     O7   24  -0.555   0.005  -0.179
    1UNL    C18   25  -0.335   0.104  -0.208
    1UNL     O8   26  -0.354   0.114  -0.343
    1UNL     H1   27   0.019   0.466   0.039
    1UNL     H2   28   0.103   0.413   0.189
    1UNL     H3   29  -0.070   0.452   0.182
    1UNL     H4   30  -0.069   0.039   0.005
    1UNL     H5   31  -0.233   0.076   0.044
    1UNL     H6   32  -0.132   0.173  -0.226
    1UNL     H7   33  -0.179  -0.229  -0.262
    1UNL     H8   34  -0.053  -0.373  -0.121
    1UNL     H9   35  -0.069  -0.327   0.045
    1UNL    H10   36   0.039  -0.135  -0.155
    1UNL    H11   37   0.317  -0.287   0.125
    1UNL    H12   38   0.209  -0.409   0.051
    1UNL    H13   39   0.151  -0.310   0.168
    1UNL    H14   40   0.341  -0.129  -0.121
    1UNL    H15   41   0.208  -0.002  -0.075
    1UNL    H16   42   0.186  -0.043   0.201
    1UNL    H17   43   0.487   0.161   0.402
    1UNL    H18   44   0.527   0.114   0.238
    1UNL    H19   45   0.428   0.250   0.249
    1UNL    H20   46   0.259   0.171   0.484
    1UNL    H21   47   0.175   0.019   0.461
    1UNL    H22   48   0.148   0.159   0.348
    1UNL    H23   49  -0.417  -0.230  -0.152
    1UNL    H24   50  -0.494  -0.136  -0.371
    1UNL    H25   51  -0.410  -0.013  -0.041
    1UNL    H26   52  -0.557   0.080  -0.247
    1UNL    H27   53  -0.369   0.198  -0.165
    1UNL    H28   54  -0.299   0.051  -0.398
   0.00000   0.00000   0.00000   0.00000   0.00000   0.00000   0.00000   0.00000   0.00000
Generated with MDTraj, t= 44.0
 54
    1UNL     C1    1  -0.046   0.404   0.131
    1UNL     C2    2  -0.045   0.267   0.080
    1UNL     O1    3   0.009   0.178   0.137
    1UNL     O2    4  -0.108   0.255  -0.042
    1UNL     C3    5  -0.102   0.121  -0.073
    1UNL     C4    6  -0.181   0.075  -0.192
    1UNL     O3    7  -0.143  -0.055  -0.244
    1UNL     C5    8  -0.213  -0.167  -0.186
    1UNL     O4    9  -0.182  -0.200  -0.052
    1UNL     C6   10  -0.054  -0.256  -0.042
    1UNL     C7   11   0.066  -0.170  -0.063
    1UNL     C8   12   0.180  -0.194  -0.006
    1UNL     C9   13   0.203  -0.298   0.090
    1UNL    C10   14   0.303  -0.106  -0.039
    1UNL    C11   15   0.349  -0.016   0.076
    1UNL     O5   16   0.460   0.028   0.058
    1UNL    C12   17   0.266   0.013   0.194
    1UNL    C13   18   0.321   0.049   0.311
    1UNL    C14   19   0.468   0.068   0.324
    1UNL    C15   20   0.246   0.062   0.434
    1UNL    C16   21  -0.367  -0.154  -0.199
    1UNL     O6   22  -0.402  -0.154  -0.330
    1UNL    C17   23  -0.417  -0.020  -0.139
    1UNL     O7   24  -0.553   0.005  -0.171
    1UNL    C18   25  -0.332   0.101  -0.189
    1UNL     O8   26  -0.370   0.133  -0.316
    1UNL     H1   27   0.043   0.459   0.107
    1UNL     H2   28  -0.058   0.391   0.238
    1UNL     H3   29  -0.133   0.455   0.085
    1UNL     H4   30   0.003   0.083  -0.082
    1UNL     H5   31  -0.146   0.064   0.013
    1UNL     H6   32  -0.148   0.146  -0.272
    1UNL     H7   33  -0.188  -0.255  -0.247
    1UNL     H8   34  -0.049  -0.330  -0.122
    1UNL     H9   35  -0.033  -0.313   0.045
    1UNL    H10   36   0.062  -0.117  -0.155
    1UNL    H11   37   0.314  -0.304   0.109
    1UNL    H12   38   0.163  -0.393   0.064
    1UNL    H13   39   0.152  -0.274   0.181
    1UNL    H14   40   0.388  -0.173  -0.057
    1UNL    H15   41   0.282  -0.037  -0.126
    1UNL    H16   42   0.153   0.013   0.183
    1UNL    H17   43   0.496   0.135   0.415
    1UNL    H18   44   0.518  -0.027   0.334
    1UNL    H19   45   0.512   0.100   0.229
    1UNL    H20   46   0.313   0.067   0.524
    1UNL    H21   47   0.184  -0.023   0.455
    1UNL    H22   48   0.186   0.155   0.427
    1UNL    H23   49  -0.423  -0.233  -0.147
    1UNL    H24   50  -0.486  -0.110  -0.346
    1UNL    H25   51  -0.417  -0.038  -0.036
    1UNL    H26   52  -0.565   0.081  -0.230
    1UNL    H27   53  -0.347   0.185  -0.120
    1UNL    H28   54  -0.354   0.061  -0.376
   0.00000   0.00000   0.00000   0.00000   0.00000   0.00000   0.00000   0.00000   0.00000
Generated with MDTraj, t= 45.0
 54
    1UNL     C1    1  -0.103   0.395   0.106
    1UNL     C2    2  -0.066   0.252   0.073
    1UNL     O1    3   0.016   0.184   0.127
    1UNL     O2    4  -0.137   0.215  -0.036
    1UNL     C3    5  -0.088   0.098  -0.088
    1UNL     C4    6  -0.163   0.070  -0.215
    1UNL     O3    7  -0.148  -0.063  -0.266
    1UNL     C5    8  -0.210  -0.168  -0.187
    1UNL     O4    9  -0.172  -0.169  -0.049
    1UNL     C6   10  -0.055  -0.233  -0.012
    1UNL     C7   11   0.074  -0.169  -0.056
    1UNL     C8   12   0.193  -0.174  -0.005
    1UNL     C9   13   0.220  -0.259   0.119
    1UNL    C10   14   0.304  -0.089  -0.051
    1UNL    C11   15   0.357  -0.003   0.063
    1UNL     O5   16   0.464   0.047   0.046
    1UNL    C12   17   0.275   0.024   0.184
    1UNL    C13   18   0.320   0.027   0.310
    1UNL    C14   19   0.457  -0.024   0.347
    1UNL    C15   20   0.224   0.046   0.426
    1UNL    C16   21  -0.366  -0.143  -0.196
    1UNL     O6   22  -0.418  -0.147  -0.326
    1UNL    C17   23  -0.395  -0.004  -0.128
    1UNL     O7   24  -0.525   0.025  -0.106
    1UNL    C18   25  -0.315   0.114  -0.206
    1UNL     O8   26  -0.378   0.117  -0.332
    1UNL     H1   27  -0.045   0.444   0.185
    1UNL     H2   28  -0.206   0.396   0.136
    1UNL     H3   29  -0.091   0.458   0.015
    1UNL     H4   30   0.020   0.110  -0.119
    1UNL     H5   31  -0.097   0.014  -0.013
    1UNL     H6   32  -0.125   0.136  -0.295
    1UNL     H7   33  -0.184  -0.268  -0.223
    1UNL     H8   34  -0.042  -0.339  -0.037
    1UNL     H9   35  -0.053  -0.230   0.093
    1UNL    H10   36   0.057  -0.126  -0.162
    1UNL    H11   37   0.324  -0.230   0.144
    1UNL    H12   38   0.207  -0.362   0.101
    1UNL    H13   39   0.149  -0.226   0.194
    1UNL    H14   40   0.389  -0.150  -0.083
    1UNL    H15   41   0.270  -0.017  -0.130
    1UNL    H16   42   0.175   0.041   0.169
    1UNL    H17   43   0.508   0.051   0.420
    1UNL    H18   44   0.451  -0.124   0.397
    1UNL    H19   45   0.513  -0.051   0.261
    1UNL    H20   46   0.272   0.026   0.525
    1UNL    H21   47   0.145  -0.022   0.423
    1UNL    H22   48   0.183   0.151   0.422
    1UNL    H23   49  -0.417  -0.214  -0.134
    1UNL    H24   50  -0.512  -0.126  -0.327
    1UNL    H25   51  -0.347  -0.019  -0.039
    1UNL    H26   52  -0.566   0.071  -0.182
    1UNL    H27   53  -0.317   0.213  -0.154
    1UNL    H28   54  -0.339   0.040  -0.391
   0.00000   0.00000   0.00000   0.00000   0.00000   0.00000   0.00000   0.00000   0.00000
Generated with MDTraj, t= 46.0
 54
    1UNL     C1    1  -0.120   0.377   0.158
    1UNL     C2    2  -0.071   0.263   0.080
    1UNL     O1    3   0.024   0.201   0.122
    1UNL     O2    4  -0.136   0.232  -0.037
    1UNL     C3    5  -0.089   0.116  -0.090
    1UNL     C4    6  -0.157   0.077  -0.223
    1UNL     O3    7  -0.142  -0.064  -0.239
    1UNL     C5    8  -0.217  -0.165  -0.162
    1UNL     O4    9  -0.163  -0.196  -0.037
    1UNL     C6   10  -0.032  -0.250  -0.042
    1UNL     C7   11   0.085  -0.161  -0.082
    1UNL     C8   12   0.191  -0.154  -0.008
    1UNL     C9   13   0.215  -0.233   0.118
    1UNL    C10   14   0.303  -0.060  -0.055
    1UNL    C11   15   0.373   0.012   0.056
    1UNL     O5   16   0.491   0.030   0.055
    1UNL    C12   17   0.297   0.066   0.176
    1UNL    C13   18   0.310   0.019   0.300
    1UNL    C14   19   0.401  -0.096   0.330
    1UNL    C15   20   0.208   0.053   0.402
    1UNL    C16   21  -0.368  -0.138  -0.155
    1UNL     O6   22  -0.435  -0.183  -0.276
    1UNL    C17   23  -0.396   0.014  -0.128
    1UNL     O7   24  -0.525   0.053  -0.143
    1UNL    C18   25  -0.310   0.107  -0.232
    1UNL     O8   26  -0.356   0.079  -0.355
    1UNL     H1   27  -0.177   0.348   0.248
    1UNL     H2   28  -0.191   0.437   0.100
    1UNL     H3   29  -0.035   0.436   0.191
    1UNL     H4   30   0.023   0.123  -0.091
    1UNL     H5   31  -0.126   0.039  -0.018
    1UNL     H6   32  -0.116   0.129  -0.311
    1UNL     H7   33  -0.209  -0.263  -0.213
    1UNL     H8   34  -0.034  -0.338  -0.107
    1UNL     H9   35  -0.011  -0.296   0.052
    1UNL    H10   36   0.064  -0.090  -0.153
    1UNL    H11   37   0.316  -0.238   0.151
    1UNL    H12   38   0.185  -0.335   0.103
    1UNL    H13   39   0.145  -0.193   0.195
    1UNL    H14   40   0.377  -0.113  -0.118
    1UNL    H15   41   0.254   0.021  -0.114
    1UNL    H16   42   0.203   0.121   0.155
    1UNL    H17   43   0.469  -0.069   0.411
    1UNL    H18   44   0.349  -0.196   0.356
    1UNL    H19   45   0.457  -0.125   0.244
    1UNL    H20   46   0.236   0.025   0.505
    1UNL    H21   47   0.121  -0.006   0.385
    1UNL    H22   48   0.178   0.161   0.391
    1UNL    H23   49  -0.411  -0.184  -0.071
    1UNL    H24   50  -0.535  -0.179  -0.266
    1UNL    H25   51  -0.370   0.040  -0.033
    1UNL    H26   52  -0.556   0.073  -0.240
    1UNL    H27   53  -0.335   0.213  -0.203
    1UNL    H28   54  -0.356  -0.014  -0.366
   0.00000   0.00000   0.00000   0.00000   0.00000   0.00000   0.00000   0.00000   0.00000
Generated with MDTraj, t= 47.0
 54
    1UNL     C1    1  -0.127   0.374   0.165
    1UNL     C2    2  -0.075   0.256   0.091
    1UNL     O1    3   0.027   0.196   0.127
    1UNL     O2    4  -0.151   0.220  -0.016
    1UNL     C3    5  -0.118   0.092  -0.059
    1UNL     C4    6  -0.152   0.064  -0.205
    1UNL     O3    7  -0.148  -0.074  -0.240
    1UNL     C5    8  -0.215  -0.162  -0.150
    1UNL     O4    9  -0.145  -0.177  -0.032
    1UNL     C6   10  -0.023  -0.245  -0.063
    1UNL     C7   11   0.088  -0.152  -0.106
    1UNL     C8   12   0.208  -0.155  -0.058
    1UNL     C9   13   0.247  -0.258   0.047
    1UNL    C10   14   0.296  -0.037  -0.064
    1UNL    C11   15   0.362   0.005   0.064
    1UNL     O5   16   0.477  -0.025   0.081
    1UNL    C12   17   0.289   0.063   0.173
    1UNL    C13   18   0.296   0.029   0.299
    1UNL    C14   19   0.395  -0.075   0.348
    1UNL    C15   20   0.200   0.097   0.393
    1UNL    C16   21  -0.361  -0.119  -0.123
    1UNL     O6   22  -0.447  -0.201  -0.207
    1UNL    C17   23  -0.401   0.035  -0.136
    1UNL     O7   24  -0.527   0.056  -0.192
    1UNL    C18   25  -0.297   0.108  -0.241
    1UNL     O8   26  -0.326   0.083  -0.371
    1UNL     H1   27  -0.230   0.394   0.131
    1UNL     H2   28  -0.075   0.466   0.130
    1UNL     H3   29  -0.118   0.363   0.272
    1UNL     H4   30  -0.009   0.086  -0.045
    1UNL     H5   31  -0.165   0.027   0.016
    1UNL     H6   32  -0.086   0.114  -0.278
    1UNL     H7   33  -0.224  -0.264  -0.191
    1UNL     H8   34  -0.043  -0.323  -0.139
    1UNL     H9   35  -0.000  -0.307   0.022
    1UNL    H10   36   0.047  -0.062  -0.155
    1UNL    H11   37   0.344  -0.272   0.081
    1UNL    H12   38   0.217  -0.360   0.024
    1UNL    H13   39   0.190  -0.238   0.139
    1UNL    H14   40   0.377  -0.071  -0.135
    1UNL    H15   41   0.237   0.044  -0.113
    1UNL    H16   42   0.218   0.138   0.140
    1UNL    H17   43   0.423  -0.059   0.448
    1UNL    H18   44   0.365  -0.183   0.322
    1UNL    H19   45   0.484  -0.063   0.283
    1UNL    H20   46   0.201   0.056   0.493
    1UNL    H21   47   0.096   0.074   0.361
    1UNL    H22   48   0.208   0.207   0.387
    1UNL    H23   49  -0.385  -0.146  -0.024
    1UNL    H24   50  -0.540  -0.164  -0.202
    1UNL    H25   51  -0.400   0.086  -0.047
    1UNL    H26   52  -0.527   0.046  -0.286
    1UNL    H27   53  -0.315   0.216  -0.224
    1UNL    H28   54  -0.294  -0.011  -0.398
   0.00000   0.00000   0.00000   0.00000   0.00000   0.00000   0.00000   0.00000   0.00000
Generated with MDTraj, t= 48.0
 54
    1UNL     C1    1  -0.117   0.395   0.154
    1UNL     C2    2  -0.088   0.259   0.109
    1UNL     O1    3   0.009   0.193   0.148
    1UNL     O2    4  -0.175   0.207   0.019
    1UNL     C3    5  -0.125   0.093  -0.042
    1UNL     C4    6  -0.154   0.072  -0.194
    1UNL     O3    7  -0.138  -0.065  -0.244
    1UNL     C5    8  -0.214  -0.155  -0.165
    1UNL     O4    9  -0.148  -0.199  -0.045
    1UNL     C6   10  -0.020  -0.263  -0.080
    1UNL     C7   11   0.090  -0.158  -0.079
    1UNL     C8   12   0.218  -0.172  -0.064
    1UNL     C9   13   0.294  -0.303  -0.041
    1UNL    C10   14   0.307  -0.047  -0.061
    1UNL    C11   15   0.363  -0.025   0.072
    1UNL     O5   16   0.466  -0.082   0.101
    1UNL    C12   17   0.277   0.048   0.170
    1UNL    C13   18   0.292   0.057   0.300
    1UNL    C14   19   0.407   0.002   0.382
    1UNL    C15   20   0.199   0.148   0.366
    1UNL    C16   21  -0.364  -0.108  -0.135
    1UNL     O6   22  -0.453  -0.187  -0.215
    1UNL    C17   23  -0.404   0.042  -0.135
    1UNL     O7   24  -0.525   0.062  -0.190
    1UNL    C18   25  -0.300   0.113  -0.232
    1UNL     O8   26  -0.328   0.068  -0.365
    1UNL     H1   27  -0.095   0.459   0.067
    1UNL     H2   28  -0.043   0.429   0.230
    1UNL     H3   29  -0.219   0.403   0.192
    1UNL     H4   30  -0.018   0.092  -0.022
    1UNL     H5   31  -0.170   0.007   0.006
    1UNL     H6   32  -0.088   0.137  -0.253
    1UNL     H7   33  -0.224  -0.246  -0.226
    1UNL     H8   34  -0.019  -0.326  -0.174
    1UNL     H9   35  -0.006  -0.336   0.000
    1UNL    H10   36   0.051  -0.050  -0.081
    1UNL    H11   37   0.399  -0.297  -0.046
    1UNL    H12   38   0.253  -0.375  -0.115
    1UNL    H13   39   0.266  -0.343   0.055
    1UNL    H14   40   0.387  -0.042  -0.142
    1UNL    H15   41   0.241   0.037  -0.085
    1UNL    H16   42   0.200   0.102   0.128
    1UNL    H17   43   0.400   0.027   0.484
    1UNL    H18   44   0.421  -0.105   0.364
    1UNL    H19   45   0.504   0.047   0.342
    1UNL    H20   46   0.141   0.093   0.440
    1UNL    H21   47   0.125   0.197   0.294
    1UNL    H22   48   0.252   0.232   0.407
    1UNL    H23   49  -0.382  -0.138  -0.033
    1UNL    H24   50  -0.544  -0.156  -0.198
    1UNL    H25   51  -0.396   0.085  -0.043
    1UNL    H26   52  -0.528   0.036  -0.291
    1UNL    H27   53  -0.313   0.222  -0.226
    1UNL    H28   54  -0.287  -0.018  -0.392
   0.00000   0.00000   0.00000   0.00000   0.00000   0.00000   0.00000   0.00000   0.00000
Generated with MDTraj, t= 49.0
 54
    1UNL     C1    1  -0.137   0.412   0.173
    1UNL     C2    2  -0.102   0.283   0.101
    1UNL     O1    3  -0.006   0.227   0.153
    1UNL     O2    4  -0.168   0.234  -0.006
    1UNL     C3    5  -0.119   0.109  -0.044
    1UNL     C4    6  -0.161   0.073  -0.185
    1UNL     O3    7  -0.130  -0.055  -0.233
    1UNL     C5    8  -0.200  -0.159  -0.169
    1UNL     O4    9  -0.147  -0.220  -0.051
    1UNL     C6   10  -0.016  -0.266  -0.078
    1UNL     C7   11   0.091  -0.166  -0.067
    1UNL     C8   12   0.215  -0.197  -0.064
    1UNL     C9   13   0.261  -0.339  -0.099
    1UNL    C10   14   0.318  -0.088  -0.052
    1UNL    C11   15   0.349  -0.058   0.093
    1UNL     O5   16   0.439  -0.113   0.154
    1UNL    C12   17   0.269   0.037   0.167
    1UNL    C13   18   0.304   0.086   0.283
    1UNL    C14   19   0.429   0.053   0.359
    1UNL    C15   20   0.226   0.188   0.359
    1UNL    C16   21  -0.357  -0.138  -0.161
    1UNL     O6   22  -0.423  -0.169  -0.287
    1UNL    C17   23  -0.394   0.002  -0.118
    1UNL     O7   24  -0.525   0.033  -0.154
    1UNL    C18   25  -0.307   0.106  -0.200
    1UNL     O8   26  -0.347   0.105  -0.339
    1UNL     H1   27  -0.045   0.454   0.212
    1UNL     H2   28  -0.202   0.394   0.260
    1UNL     H3   29  -0.194   0.484   0.108
    1UNL     H4   30  -0.012   0.106  -0.038
    1UNL     H5   31  -0.156   0.035   0.022
    1UNL     H6   32  -0.104   0.147  -0.244
    1UNL     H7   33  -0.185  -0.233  -0.250
    1UNL     H8   34  -0.020  -0.319  -0.179
    1UNL     H9   35   0.014  -0.345  -0.006
    1UNL    H10   36   0.059  -0.067  -0.036
    1UNL    H11   37   0.370  -0.337  -0.105
    1UNL    H12   38   0.220  -0.359  -0.200
    1UNL    H13   39   0.228  -0.413  -0.033
    1UNL    H14   40   0.415  -0.130  -0.096
    1UNL    H15   41   0.301   0.002  -0.112
    1UNL    H16   42   0.168   0.068   0.126
    1UNL    H17   43   0.408   0.037   0.466
    1UNL    H18   44   0.475  -0.033   0.325
    1UNL    H19   45   0.508   0.135   0.349
    1UNL    H20   46   0.129   0.147   0.393
    1UNL    H21   47   0.216   0.284   0.302
    1UNL    H22   48   0.286   0.215   0.444
    1UNL    H23   49  -0.392  -0.212  -0.086
    1UNL    H24   50  -0.524  -0.157  -0.270
    1UNL    H25   51  -0.383   0.017  -0.017
    1UNL    H26   52  -0.541   0.071  -0.240
    1UNL    H27   53  -0.326   0.201  -0.154
    1UNL    H28   54  -0.332   0.028  -0.390
   0.00000   0.00000   0.00000   0.00000   0.00000   0.00000   0.00000   0.00000   0.00000
Generated with MDTraj, t= 50.0
 54
    1UNL     C1    1  -0.162   0.408   0.173
    1UNL     C2    2  -0.097   0.292   0.110
    1UNL     O1    3   0.004   0.246   0.157
    1UNL     O2    4  -0.156   0.250  -0.010
    1UNL     C3    5  -0.109   0.126  -0.054
    1UNL     C4    6  -0.170   0.086  -0.186
    1UNL     O3    7  -0.124  -0.037  -0.246
    1UNL     C5    8  -0.185  -0.155  -0.193
    1UNL     O4    9  -0.156  -0.191  -0.057
    1UNL     C6   10  -0.040  -0.265  -0.038
    1UNL     C7   11   0.084  -0.179  -0.045
    1UNL     C8   12   0.208  -0.212  -0.069
    1UNL     C9   13   0.255  -0.343  -0.113
    1UNL    C10   14   0.319  -0.114  -0.035
    1UNL    C11   15   0.339  -0.090   0.115
    1UNL     O5   16   0.405  -0.170   0.176
    1UNL    C12   17   0.274   0.025   0.183
    1UNL    C13   18   0.322   0.106   0.273
    1UNL    C14   19   0.458   0.089   0.332
    1UNL    C15   20   0.239   0.219   0.323
    1UNL    C16   21  -0.336  -0.147  -0.204
    1UNL     O6   22  -0.370  -0.134  -0.343
    1UNL    C17   23  -0.386  -0.036  -0.121
    1UNL     O7   24  -0.529  -0.035  -0.121
    1UNL    C18   25  -0.328   0.098  -0.175
    1UNL     O8   26  -0.392   0.130  -0.297
    1UNL     H1   27  -0.162   0.389   0.282
    1UNL     H2   28  -0.265   0.423   0.138
    1UNL     H3   29  -0.109   0.504   0.146
    1UNL     H4   30  -0.002   0.138  -0.061
    1UNL     H5   31  -0.124   0.054   0.021
    1UNL     H6   32  -0.143   0.167  -0.256
    1UNL     H7   33  -0.143  -0.232  -0.259
    1UNL     H8   34  -0.027  -0.352  -0.109
    1UNL     H9   35  -0.051  -0.304   0.065
    1UNL    H10   36   0.062  -0.094   0.005
    1UNL    H11   37   0.360  -0.343  -0.078
    1UNL    H12   38   0.261  -0.350  -0.220
    1UNL    H13   39   0.213  -0.434  -0.079
    1UNL    H14   40   0.419  -0.136  -0.084
    1UNL    H15   41   0.292  -0.017  -0.079
    1UNL    H16   42   0.176   0.047   0.154
    1UNL    H17   43   0.455   0.099   0.444
    1UNL    H18   44   0.499  -0.007   0.316
    1UNL    H19   45   0.530   0.160   0.294
    1UNL    H20   46   0.130   0.191   0.328
    1UNL    H21   47   0.254   0.306   0.262
    1UNL    H22   48   0.271   0.254   0.423
    1UNL    H23   49  -0.380  -0.243  -0.162
    1UNL    H24   50  -0.467  -0.125  -0.351
    1UNL    H25   51  -0.356  -0.038  -0.022
    1UNL    H26   52  -0.569   0.014  -0.199
    1UNL    H27   53  -0.357   0.166  -0.097
    1UNL    H28   54  -0.368   0.067  -0.376
   0.00000   0.00000   0.00000   0.00000   0.00000   0.00000   0.00000   0.00000   0.00000
Generated with MDTraj, t= 51.0
 54
    1UNL     C1    1  -0.139   0.413   0.181
    1UNL     C2    2  -0.092   0.281   0.120
    1UNL     O1    3   0.009   0.227   0.148
    1UNL     O2    4  -0.172   0.240   0.020
    1UNL     C3    5  -0.124   0.128  -0.047
    1UNL     C4    6  -0.188   0.098  -0.179
    1UNL     O3    7  -0.132  -0.012  -0.252
    1UNL     C5    8  -0.180  -0.139  -0.213
    1UNL     O4    9  -0.155  -0.167  -0.076
    1UNL     C6   10  -0.045  -0.249  -0.041
    1UNL     C7   11   0.087  -0.169  -0.017
    1UNL     C8   12   0.208  -0.214  -0.040
    1UNL     C9   13   0.237  -0.349  -0.086
    1UNL    C10   14   0.327  -0.123  -0.013
    1UNL    C11   15   0.338  -0.092   0.132
    1UNL     O5   16   0.381  -0.174   0.208
    1UNL    C12   17   0.295   0.043   0.162
    1UNL    C13   18   0.350   0.125   0.250
    1UNL    C14   19   0.478   0.072   0.301
    1UNL    C15   20   0.270   0.235   0.312
    1UNL    C16   21  -0.328  -0.156  -0.233
    1UNL     O6   22  -0.355  -0.125  -0.368
    1UNL    C17   23  -0.395  -0.059  -0.135
    1UNL     O7   24  -0.536  -0.075  -0.154
    1UNL    C18   25  -0.348   0.086  -0.160
    1UNL     O8   26  -0.413   0.130  -0.275
    1UNL     H1   27  -0.246   0.403   0.214
    1UNL     H2   28  -0.129   0.497   0.111
    1UNL     H3   29  -0.075   0.446   0.265
    1UNL     H4   30  -0.018   0.149  -0.062
    1UNL     H5   31  -0.128   0.045   0.020
    1UNL     H6   32  -0.184   0.179  -0.253
    1UNL     H7   33  -0.131  -0.214  -0.277
    1UNL     H8   34  -0.035  -0.333  -0.115
    1UNL     H9   35  -0.064  -0.300   0.054
    1UNL    H10   36   0.070  -0.078   0.047
    1UNL    H11   37   0.346  -0.373  -0.075
    1UNL    H12   38   0.199  -0.363  -0.182
    1UNL    H13   39   0.185  -0.421  -0.024
    1UNL    H14   40   0.424  -0.172  -0.037
    1UNL    H15   41   0.327  -0.030  -0.075
    1UNL    H16   42   0.200   0.073   0.126
    1UNL    H17   43   0.520   0.141   0.378
    1UNL    H18   44   0.464  -0.028   0.349
    1UNL    H19   45   0.543   0.061   0.223
    1UNL    H20   46   0.197   0.196   0.388
    1UNL    H21   47   0.216   0.287   0.237
    1UNL    H22   48   0.334   0.317   0.356
    1UNL    H23   49  -0.361  -0.265  -0.214
    1UNL    H24   50  -0.448  -0.133  -0.380
    1UNL    H25   51  -0.372  -0.078  -0.036
    1UNL    H26   52  -0.572   0.001  -0.205
    1UNL    H27   53  -0.381   0.143  -0.075
    1UNL    H28   54  -0.385   0.077  -0.347
   0.00000   0.00000   0.00000   0.00000   0.00000   0.00000   0.00000   0.00000   0.00000
Generated with MDTraj, t= 52.0
 54
    1UNL     C1    1  -0.086   0.386   0.210
    1UNL     C2    2  -0.081   0.262   0.126
    1UNL     O1    3   0.020   0.201   0.120
    1UNL     O2    4  -0.194   0.226   0.051
    1UNL     C3    5  -0.172   0.106  -0.014
    1UNL     C4    6  -0.222   0.109  -0.154
    1UNL     O3    7  -0.155   0.014  -0.236
    1UNL     C5    8  -0.180  -0.123  -0.205
    1UNL     O4    9  -0.153  -0.166  -0.067
    1UNL     C6   10  -0.038  -0.247  -0.068
    1UNL     C7   11   0.088  -0.161  -0.062
    1UNL     C8   12   0.205  -0.212  -0.030
    1UNL     C9   13   0.237  -0.360  -0.048
    1UNL    C10   14   0.319  -0.126  -0.006
    1UNL    C11   15   0.349  -0.085   0.139
    1UNL     O5   16   0.396  -0.166   0.216
    1UNL    C12   17   0.298   0.053   0.169
    1UNL    C13   18   0.366   0.133   0.254
    1UNL    C14   19   0.484   0.079   0.328
    1UNL    C15   20   0.324   0.274   0.285
    1UNL    C16   21  -0.328  -0.159  -0.242
    1UNL     O6   22  -0.355  -0.143  -0.381
    1UNL    C17   23  -0.417  -0.057  -0.154
    1UNL     O7   24  -0.555  -0.067  -0.196
    1UNL    C18   25  -0.377   0.087  -0.175
    1UNL     O8   26  -0.402   0.124  -0.307
    1UNL     H1   27  -0.141   0.469   0.156
    1UNL     H2   28   0.017   0.415   0.241
    1UNL     H3   29  -0.137   0.371   0.306
    1UNL     H4   30  -0.062   0.100  -0.019
    1UNL     H5   31  -0.214   0.030   0.050
    1UNL     H6   32  -0.211   0.209  -0.197
    1UNL     H7   33  -0.113  -0.185  -0.268
    1UNL     H8   34  -0.033  -0.320  -0.152
    1UNL     H9   35  -0.048  -0.307   0.022
    1UNL    H10   36   0.065  -0.054  -0.063
    1UNL    H11   37   0.336  -0.366  -0.092
    1UNL    H12   38   0.157  -0.408  -0.097
    1UNL    H13   39   0.246  -0.402   0.053
    1UNL    H14   40   0.405  -0.173  -0.052
    1UNL    H15   41   0.296  -0.033  -0.067
    1UNL    H16   42   0.205   0.096   0.119
    1UNL    H17   43   0.575   0.108   0.279
    1UNL    H18   44   0.493   0.129   0.430
    1UNL    H19   45   0.477  -0.026   0.335
    1UNL    H20   46   0.329   0.290   0.395
    1UNL    H21   47   0.224   0.298   0.252
    1UNL    H22   48   0.392   0.344   0.229
    1UNL    H23   49  -0.344  -0.266  -0.207
    1UNL    H24   50  -0.437  -0.189  -0.402
    1UNL    H25   51  -0.406  -0.092  -0.058
    1UNL    H26   52  -0.576   0.010  -0.255
    1UNL    H27   53  -0.431   0.148  -0.103
    1UNL    H28   54  -0.352   0.053  -0.365
   0.00000   0.00000   0.00000   0.00000   0.00000   0.00000   0.00000   0.00000   0.00000
Generated with MDTraj, t= 53.0
 54
    1UNL     C1    1  -0.063   0.339   0.210
    1UNL     C2    2  -0.080   0.225   0.117
    1UNL     O1    3   0.021   0.177   0.076
    1UNL     O2    4  -0.211   0.190   0.094
    1UNL     C3    5  -0.214   0.073   0.017
    1UNL     C4    6  -0.232   0.106  -0.130
    1UNL     O3    7  -0.158   0.017  -0.213
    1UNL     C5    8  -0.189  -0.119  -0.202
    1UNL     O4    9  -0.153  -0.176  -0.071
    1UNL     C6   10  -0.030  -0.254  -0.072
    1UNL     C7   11   0.096  -0.162  -0.077
    1UNL     C8   12   0.209  -0.201  -0.023
    1UNL     C9   13   0.245  -0.337   0.036
    1UNL    C10   14   0.324  -0.101  -0.022
    1UNL    C11   15   0.348  -0.073   0.118
    1UNL     O5   16   0.383  -0.158   0.197
    1UNL    C12   17   0.323   0.068   0.155
    1UNL    C13   18   0.384   0.147   0.250
    1UNL    C14   19   0.486   0.085   0.339
    1UNL    C15   20   0.346   0.285   0.286
    1UNL    C16   21  -0.339  -0.150  -0.241
    1UNL     O6   22  -0.364  -0.147  -0.376
    1UNL    C17   23  -0.435  -0.043  -0.170
    1UNL     O7   24  -0.564  -0.039  -0.236
    1UNL    C18   25  -0.379   0.101  -0.187
    1UNL     O8   26  -0.378   0.133  -0.327
    1UNL     H1   27   0.020   0.403   0.172
    1UNL     H2   28  -0.057   0.308   0.319
    1UNL     H3   29  -0.153   0.403   0.200
    1UNL     H4   30  -0.114   0.019   0.024
    1UNL     H5   31  -0.299   0.013   0.051
    1UNL     H6   32  -0.194   0.207  -0.150
    1UNL     H7   33  -0.125  -0.180  -0.271
    1UNL     H8   34  -0.040  -0.327  -0.153
    1UNL     H9   35  -0.029  -0.312   0.018
    1UNL    H10   36   0.080  -0.067  -0.111
    1UNL    H11   37   0.330  -0.384  -0.006
    1UNL    H12   38   0.159  -0.403   0.042
    1UNL    H13   39   0.268  -0.327   0.144
    1UNL    H14   40   0.409  -0.147  -0.070
    1UNL    H15   41   0.300  -0.002  -0.073
    1UNL    H16   42   0.240   0.109   0.112
    1UNL    H17   43   0.470  -0.015   0.362
    1UNL    H18   44   0.585   0.083   0.286
    1UNL    H19   45   0.486   0.136   0.440
    1UNL    H20   46   0.424   0.324   0.351
    1UNL    H21   47   0.252   0.289   0.346
    1UNL    H22   48   0.334   0.350   0.196
    1UNL    H23   49  -0.368  -0.249  -0.204
    1UNL    H24   50  -0.467  -0.126  -0.380
    1UNL    H25   51  -0.459  -0.075  -0.075
    1UNL    H26   52  -0.576   0.053  -0.278
    1UNL    H27   53  -0.439   0.176  -0.135
    1UNL    H28   54  -0.334   0.062  -0.369
   0.00000   0.00000   0.00000   0.00000   0.00000   0.00000   0.00000   0.00000   0.00000
Generated with MDTraj, t= 54.0
 54
    1UNL     C1    1  -0.060   0.316   0.203
    1UNL     C2    2  -0.069   0.199   0.111
    1UNL     O1    3   0.016   0.152   0.038
    1UNL     O2    4  -0.191   0.142   0.121
    1UNL     C3    5  -0.204   0.033   0.033
    1UNL     C4    6  -0.205   0.078  -0.118
    1UNL     O3    7  -0.139  -0.018  -0.202
    1UNL     C5    8  -0.195  -0.143  -0.205
    1UNL     O4    9  -0.185  -0.218  -0.082
    1UNL     C6   10  -0.053  -0.262  -0.056
    1UNL     C7   11   0.056  -0.157  -0.045
    1UNL     C8   12   0.180  -0.185  -0.010
    1UNL     C9   13   0.205  -0.313   0.059
    1UNL    C10   14   0.287  -0.082  -0.028
    1UNL    C11   15   0.345  -0.035   0.104
    1UNL     O5   16   0.409  -0.124   0.158
    1UNL    C12   17   0.315   0.100   0.158
    1UNL    C13   18   0.387   0.164   0.254
    1UNL    C14   19   0.488   0.087   0.323
    1UNL    C15   20   0.356   0.301   0.302
    1UNL    C16   21  -0.345  -0.140  -0.251
    1UNL     O6   22  -0.354  -0.134  -0.390
    1UNL    C17   23  -0.431  -0.029  -0.182
    1UNL     O7   24  -0.552  -0.011  -0.257
    1UNL    C18   25  -0.350   0.103  -0.176
    1UNL     O8   26  -0.352   0.163  -0.301
    1UNL     H1   27   0.013   0.306   0.286
    1UNL     H2   28  -0.166   0.346   0.231
    1UNL     H3   29  -0.017   0.398   0.138
    1UNL     H4   30  -0.124  -0.046   0.047
    1UNL     H5   31  -0.305  -0.010   0.042
    1UNL     H6   32  -0.146   0.172  -0.119
    1UNL     H7   33  -0.141  -0.211  -0.276
    1UNL     H8   34  -0.032  -0.335  -0.133
    1UNL     H9   35  -0.071  -0.314   0.035
    1UNL    H10   36   0.021  -0.054  -0.075
    1UNL    H11   37   0.303  -0.310   0.097
    1UNL    H12   38   0.179  -0.411   0.011
    1UNL    H13   39   0.142  -0.309   0.149
    1UNL    H14   40   0.370  -0.129  -0.081
    1UNL    H15   41   0.252   0.002  -0.095
    1UNL    H16   42   0.226   0.156   0.116
    1UNL    H17   43   0.516   0.126   0.419
    1UNL    H18   44   0.444  -0.009   0.333
    1UNL    H19   45   0.591   0.089   0.269
    1UNL    H20   46   0.446   0.358   0.316
    1UNL    H21   47   0.310   0.300   0.407
    1UNL    H22   48   0.288   0.361   0.240
    1UNL    H23   49  -0.387  -0.236  -0.229
    1UNL    H24   50  -0.434  -0.089  -0.413
    1UNL    H25   51  -0.463  -0.056  -0.089
    1UNL    H26   52  -0.532   0.063  -0.315
    1UNL    H27   53  -0.393   0.181  -0.108
    1UNL    H28   54  -0.277   0.128  -0.358
   0.00000   0.00000   0.00000   0.00000   0.00000   0.00000   0.00000   0.00000   0.00000
Generated with MDTraj, t= 55.0
 54
    1UNL     C1    1  -0.054   0.310   0.203
    1UNL     C2    2  -0.065   0.186   0.116
    1UNL     O1    3   0.033   0.154   0.047
    1UNL     O2    4  -0.184   0.126   0.119
    1UNL     C3    5  -0.180   0.010   0.036
    1UNL     C4    6  -0.181   0.046  -0.115
    1UNL     O3    7  -0.131  -0.059  -0.198
    1UNL     C5    8  -0.213  -0.172  -0.211
    1UNL     O4    9  -0.216  -0.243  -0.090
    1UNL     C6   10  -0.088  -0.288  -0.050
    1UNL     C7   11   0.028  -0.193  -0.057
    1UNL     C8   12   0.148  -0.190  -0.004
    1UNL     C9   13   0.195  -0.297   0.091
    1UNL    C10   14   0.226  -0.061  -0.023
    1UNL    C11   15   0.320  -0.015   0.094
    1UNL     O5   16   0.412  -0.093   0.101
    1UNL    C12   17   0.303   0.114   0.170
    1UNL    C13   18   0.382   0.180   0.262
    1UNL    C14   19   0.513   0.116   0.304
    1UNL    C15   20   0.348   0.311   0.315
    1UNL    C16   21  -0.353  -0.134  -0.266
    1UNL     O6   22  -0.333  -0.082  -0.395
    1UNL    C17   23  -0.420  -0.025  -0.182
    1UNL     O7   24  -0.533   0.024  -0.254
    1UNL    C18   25  -0.319   0.089  -0.163
    1UNL     O8   26  -0.306   0.158  -0.279
    1UNL     H1   27  -0.108   0.310   0.301
    1UNL     H2   28  -0.087   0.398   0.141
    1UNL     H3   29   0.055   0.327   0.233
    1UNL     H4   30  -0.084  -0.047   0.054
    1UNL     H5   31  -0.268  -0.054   0.051
    1UNL     H6   32  -0.114   0.136  -0.125
    1UNL     H7   33  -0.167  -0.239  -0.286
    1UNL     H8   34  -0.074  -0.373  -0.118
    1UNL     H9   35  -0.109  -0.325   0.047
    1UNL    H10   36   0.007  -0.097  -0.102
    1UNL    H11   37   0.187  -0.246   0.185
    1UNL    H12   38   0.300  -0.328   0.071
    1UNL    H13   39   0.131  -0.383   0.088
    1UNL    H14   40   0.274  -0.063  -0.123
    1UNL    H15   41   0.155   0.023  -0.032
    1UNL    H16   42   0.203   0.157   0.154
    1UNL    H17   43   0.593   0.131   0.223
    1UNL    H18   44   0.538   0.153   0.398
    1UNL    H19   45   0.514   0.004   0.307
    1UNL    H20   46   0.439   0.367   0.340
    1UNL    H21   47   0.289   0.299   0.411
    1UNL    H22   48   0.286   0.366   0.243
    1UNL    H23   49  -0.408  -0.222  -0.287
    1UNL    H24   50  -0.420  -0.080  -0.444
    1UNL    H25   51  -0.456  -0.067  -0.097
    1UNL    H26   52  -0.490   0.058  -0.338
    1UNL    H27   53  -0.358   0.172  -0.097
    1UNL    H28   54  -0.252   0.111  -0.347
   0.00000   0.00000   0.00000   0.00000   0.00000   0.00000   0.00000   0.00000   0.00000
Generated with MDTraj, t= 56.0
 54
    1UNL     C1    1  -0.104   0.313   0.209
    1UNL     C2    2  -0.090   0.194   0.126
    1UNL     O1    3   0.021   0.186   0.070
    1UNL     O2    4  -0.198   0.111   0.110
    1UNL     C3    5  -0.161  -0.000   0.027
    1UNL     C4    6  -0.161   0.050  -0.118
    1UNL     O3    7  -0.115  -0.044  -0.213
    1UNL     C5    8  -0.200  -0.162  -0.218
    1UNL     O4    9  -0.186  -0.235  -0.096
    1UNL     C6   10  -0.062  -0.305  -0.072
    1UNL     C7   11   0.049  -0.210  -0.072
    1UNL     C8   12   0.145  -0.191   0.017
    1UNL     C9   13   0.154  -0.254   0.152
    1UNL    C10   14   0.226  -0.072  -0.026
    1UNL    C11   15   0.317  -0.033   0.080
    1UNL     O5   16   0.405  -0.108   0.113
    1UNL    C12   17   0.287   0.089   0.152
    1UNL    C13   18   0.373   0.153   0.236
    1UNL    C14   19   0.517   0.132   0.238
    1UNL    C15   20   0.334   0.282   0.318
    1UNL    C16   21  -0.343  -0.130  -0.253
    1UNL     O6   22  -0.359  -0.096  -0.385
    1UNL    C17   23  -0.395  -0.011  -0.166
    1UNL     O7   24  -0.518   0.026  -0.236
    1UNL    C18   25  -0.297   0.107  -0.161
    1UNL     O8   26  -0.297   0.169  -0.283
    1UNL     H1   27  -0.203   0.370   0.202
    1UNL     H2   28  -0.022   0.382   0.179
    1UNL     H3   29  -0.093   0.283   0.317
    1UNL     H4   30  -0.057  -0.032   0.058
    1UNL     H5   31  -0.232  -0.082   0.049
    1UNL     H6   32  -0.090   0.136  -0.115
    1UNL     H7   33  -0.151  -0.225  -0.292
    1UNL     H8   34  -0.050  -0.380  -0.151
    1UNL     H9   35  -0.080  -0.345   0.026
    1UNL    H10   36   0.052  -0.157  -0.159
    1UNL    H11   37   0.066  -0.316   0.171
    1UNL    H12   38   0.140  -0.168   0.223
    1UNL    H13   39   0.240  -0.303   0.188
    1UNL    H14   40   0.294  -0.102  -0.110
    1UNL    H15   41   0.168   0.013  -0.058
    1UNL    H16   42   0.191   0.121   0.155
    1UNL    H17   43   0.545   0.073   0.144
    1UNL    H18   44   0.566   0.232   0.249
    1UNL    H19   45   0.552   0.070   0.316
    1UNL    H20   46   0.418   0.298   0.392
    1UNL    H21   47   0.244   0.272   0.379
    1UNL    H22   48   0.320   0.372   0.256
    1UNL    H23   49  -0.400  -0.221  -0.244
    1UNL    H24   50  -0.459  -0.064  -0.391
    1UNL    H25   51  -0.423  -0.049  -0.076
    1UNL    H26   52  -0.503   0.122  -0.242
    1UNL    H27   53  -0.329   0.183  -0.083
    1UNL    H28   54  -0.288   0.103  -0.355
   0.00000   0.00000   0.00000   0.00000   0.00000   0.00000   0.00000   0.00000   0.00000
Generated with MDTraj, t= 57.0
 54
    1UNL     C1    1  -0.186   0.321   0.227
    1UNL     C2    2  -0.112   0.213   0.149
    1UNL     O1    3  -0.001   0.226   0.100
    1UNL     O2    4  -0.189   0.105   0.115
    1UNL     C3    5  -0.139   0.017   0.011
    1UNL     C4    6  -0.150   0.058  -0.133
    1UNL     O3    7  -0.112  -0.049  -0.225
    1UNL     C5    8  -0.199  -0.165  -0.203
    1UNL     O4    9  -0.169  -0.245  -0.087
    1UNL     C6   10  -0.045  -0.308  -0.111
    1UNL     C7   11   0.069  -0.221  -0.107
    1UNL     C8   12   0.128  -0.172   0.003
    1UNL     C9   13   0.069  -0.184   0.139
    1UNL    C10   14   0.266  -0.118  -0.020
    1UNL    C11   15   0.343  -0.066   0.099
    1UNL     O5   16   0.439  -0.129   0.134
    1UNL    C12   17   0.296   0.063   0.163
    1UNL    C13   18   0.378   0.147   0.229
    1UNL    C14   19   0.524   0.135   0.219
    1UNL    C15   20   0.332   0.269   0.286
    1UNL    C16   21  -0.347  -0.129  -0.235
    1UNL     O6   22  -0.358  -0.100  -0.374
    1UNL    C17   23  -0.391  -0.003  -0.153
    1UNL     O7   24  -0.525   0.036  -0.193
    1UNL    C18   25  -0.288   0.110  -0.173
    1UNL     O8   26  -0.286   0.150  -0.304
    1UNL     H1   27  -0.216   0.417   0.171
    1UNL     H2   28  -0.125   0.357   0.314
    1UNL     H3   29  -0.280   0.276   0.265
    1UNL     H4   30  -0.035  -0.005   0.041
    1UNL     H5   31  -0.192  -0.077   0.032
    1UNL     H6   32  -0.077   0.139  -0.158
    1UNL     H7   33  -0.169  -0.234  -0.281
    1UNL     H8   34  -0.052  -0.348  -0.215
    1UNL     H9   35  -0.028  -0.384  -0.035
    1UNL    H10   36   0.118  -0.212  -0.211
    1UNL    H11   37   0.138  -0.233   0.212
    1UNL    H12   38  -0.024  -0.240   0.138
    1UNL    H13   39   0.040  -0.091   0.179
    1UNL    H14   40   0.326  -0.188  -0.085
    1UNL    H15   41   0.248  -0.031  -0.079
    1UNL    H16   42   0.189   0.088   0.144
    1UNL    H17   43   0.557   0.044   0.163
    1UNL    H18   44   0.565   0.237   0.180
    1UNL    H19   45   0.575   0.125   0.310
    1UNL    H20   46   0.389   0.291   0.383
    1UNL    H21   47   0.229   0.260   0.311
    1UNL    H22   48   0.337   0.356   0.216
    1UNL    H23   49  -0.412  -0.216  -0.219
    1UNL    H24   50  -0.452  -0.089  -0.392
    1UNL    H25   51  -0.400  -0.033  -0.056
    1UNL    H26   52  -0.507   0.124  -0.243
    1UNL    H27   53  -0.310   0.196  -0.105
    1UNL    H28   54  -0.294   0.071  -0.366
   0.00000   0.00000   0.00000   0.00000   0.00000   0.00000   0.00000   0.00000   0.00000
Generated with MDTraj, t= 58.0
 54
    1UNL     C1    1  -0.218   0.315   0.227
    1UNL     C2    2  -0.134   0.215   0.152
    1UNL     O1    3  -0.014   0.235   0.155
    1UNL     O2    4  -0.207   0.127   0.080
    1UNL     C3    5  -0.120   0.051   0.001
    1UNL     C4    6  -0.143   0.074  -0.149
    1UNL     O3    7  -0.104  -0.037  -0.241
    1UNL     C5    8  -0.179  -0.153  -0.215
    1UNL     O4    9  -0.149  -0.209  -0.087
    1UNL     C6   10  -0.049  -0.314  -0.101
    1UNL     C7   11   0.082  -0.261  -0.111
    1UNL     C8   12   0.153  -0.216  -0.005
    1UNL     C9   13   0.111  -0.236   0.137
    1UNL    C10   14   0.275  -0.127  -0.026
    1UNL    C11   15   0.332  -0.068   0.102
    1UNL     O5   16   0.414  -0.137   0.156
    1UNL    C12   17   0.301   0.067   0.144
    1UNL    C13   18   0.380   0.149   0.214
    1UNL    C14   19   0.521   0.113   0.242
    1UNL    C15   20   0.321   0.288   0.249
    1UNL    C16   21  -0.335  -0.128  -0.223
    1UNL     O6   22  -0.383  -0.121  -0.358
    1UNL    C17   23  -0.375  -0.000  -0.142
    1UNL     O7   24  -0.511   0.037  -0.162
    1UNL    C18   25  -0.289   0.118  -0.186
    1UNL     O8   26  -0.315   0.171  -0.317
    1UNL     H1   27  -0.168   0.411   0.260
    1UNL     H2   28  -0.245   0.263   0.325
    1UNL     H3   29  -0.312   0.336   0.169
    1UNL     H4   30  -0.016   0.068   0.038
    1UNL     H5   31  -0.141  -0.052   0.034
    1UNL     H6   32  -0.081   0.156  -0.191
    1UNL     H7   33  -0.154  -0.231  -0.285
    1UNL     H8   34  -0.068  -0.376  -0.193
    1UNL     H9   35  -0.066  -0.372  -0.010
    1UNL    H10   36   0.129  -0.259  -0.203
    1UNL    H11   37   0.198  -0.241   0.208
    1UNL    H12   38   0.056  -0.325   0.145
    1UNL    H13   39   0.043  -0.155   0.158
    1UNL    H14   40   0.353  -0.198  -0.064
    1UNL    H15   41   0.261  -0.062  -0.109
    1UNL    H16   42   0.206   0.108   0.111
    1UNL    H17   43   0.522   0.015   0.287
    1UNL    H18   44   0.583   0.124   0.145
    1UNL    H19   45   0.572   0.181   0.312
    1UNL    H20   46   0.372   0.342   0.332
    1UNL    H21   47   0.217   0.280   0.278
    1UNL    H22   48   0.317   0.361   0.162
    1UNL    H23   49  -0.384  -0.219  -0.181
    1UNL    H24   50  -0.478  -0.124  -0.359
    1UNL    H25   51  -0.367  -0.021  -0.042
    1UNL    H26   52  -0.505   0.109  -0.224
    1UNL    H27   53  -0.306   0.207  -0.124
    1UNL    H28   54  -0.301   0.103  -0.383
   0.00000   0.00000   0.00000   0.00000   0.00000   0.00000   0.00000   0.00000   0.00000
Generated with MDTraj, t= 59.0
 54
    1UNL     C1    1  -0.209   0.318   0.256
    1UNL     C2    2  -0.126   0.229   0.173
    1UNL     O1    3  -0.007   0.216   0.185
    1UNL     O2    4  -0.190   0.174   0.061
    1UNL     C3    5  -0.103   0.089  -0.014
    1UNL     C4    6  -0.136   0.084  -0.163
    1UNL     O3    7  -0.104  -0.043  -0.223
    1UNL     C5    8  -0.193  -0.152  -0.208
    1UNL     O4    9  -0.169  -0.218  -0.084
    1UNL     C6   10  -0.046  -0.298  -0.098
    1UNL     C7   11   0.074  -0.220  -0.101
    1UNL     C8   12   0.169  -0.215  -0.004
    1UNL     C9   13   0.168  -0.309   0.109
    1UNL    C10   14   0.303  -0.148  -0.030
    1UNL    C11   15   0.334  -0.069   0.092
    1UNL     O5   16   0.386  -0.127   0.185
    1UNL    C12   17   0.293   0.071   0.117
    1UNL    C13   18   0.365   0.155   0.191
    1UNL    C14   19   0.480   0.103   0.280
    1UNL    C15   20   0.315   0.299   0.206
    1UNL    C16   21  -0.350  -0.130  -0.221
    1UNL     O6   22  -0.399  -0.123  -0.356
    1UNL    C17   23  -0.382  -0.005  -0.138
    1UNL     O7   24  -0.518   0.031  -0.163
    1UNL    C18   25  -0.289   0.111  -0.194
    1UNL     O8   26  -0.309   0.139  -0.330
    1UNL     H1   27  -0.172   0.324   0.360
    1UNL     H2   28  -0.309   0.263   0.269
    1UNL     H3   29  -0.227   0.420   0.207
    1UNL     H4   30   0.003   0.113   0.010
    1UNL     H5   31  -0.127  -0.008   0.032
    1UNL     H6   32  -0.080   0.164  -0.213
    1UNL     H7   33  -0.163  -0.229  -0.281
    1UNL     H8   34  -0.064  -0.358  -0.191
    1UNL     H9   35  -0.040  -0.367  -0.013
    1UNL    H10   36   0.082  -0.161  -0.191
    1UNL    H11   37   0.244  -0.297   0.187
    1UNL    H12   38   0.187  -0.405   0.072
    1UNL    H13   39   0.073  -0.314   0.163
    1UNL    H14   40   0.386  -0.220  -0.057
    1UNL    H15   41   0.284  -0.077  -0.109
    1UNL    H16   42   0.212   0.114   0.067
    1UNL    H17   43   0.433   0.070   0.371
    1UNL    H18   44   0.547   0.032   0.228
    1UNL    H19   45   0.550   0.190   0.313
    1UNL    H20   46   0.353   0.347   0.295
    1UNL    H21   47   0.203   0.294   0.208
    1UNL    H22   48   0.344   0.357   0.114
    1UNL    H23   49  -0.410  -0.213  -0.173
    1UNL    H24   50  -0.346  -0.047  -0.398
    1UNL    H25   51  -0.381  -0.029  -0.037
    1UNL    H26   52  -0.534   0.027  -0.261
    1UNL    H27   53  -0.305   0.203  -0.142
    1UNL    H28   54  -0.268   0.232  -0.350
   0.00000   0.00000   0.00000   0.00000   0.00000   0.00000   0.00000   0.00000   0.00000
Generated with MDTraj, t= 60.0
 54
    1UNL     C1    1  -0.168   0.308   0.246
    1UNL     C2    2  -0.095   0.212   0.155
    1UNL     O1    3   0.015   0.174   0.179
    1UNL     O2    4  -0.171   0.186   0.049
    1UNL     C3    5  -0.115   0.078  -0.014
    1UNL     C4    6  -0.151   0.082  -0.161
    1UNL     O3    7  -0.116  -0.045  -0.211
    1UNL     C5    8  -0.201  -0.154  -0.190
    1UNL     O4    9  -0.173  -0.221  -0.062
    1UNL     C6   10  -0.049  -0.291  -0.071
    1UNL     C7   11   0.069  -0.211  -0.064
    1UNL     C8   12   0.189  -0.239  -0.012
    1UNL     C9   13   0.224  -0.364   0.062
    1UNL    C10   14   0.302  -0.148  -0.029
    1UNL    C11   15   0.337  -0.071   0.100
    1UNL     O5   16   0.393  -0.118   0.196
    1UNL    C12   17   0.313   0.072   0.098
    1UNL    C13   18   0.341   0.161   0.191
    1UNL    C14   19   0.414   0.138   0.321
    1UNL    C15   20   0.300   0.304   0.180
    1UNL    C16   21  -0.352  -0.114  -0.219
    1UNL     O6   22  -0.381  -0.107  -0.361
    1UNL    C17   23  -0.403   0.013  -0.143
    1UNL     O7   24  -0.532   0.046  -0.196
    1UNL    C18   25  -0.305   0.123  -0.186
    1UNL     O8   26  -0.321   0.145  -0.322
    1UNL     H1   27  -0.239   0.252   0.313
    1UNL     H2   28  -0.239   0.375   0.188
    1UNL     H3   29  -0.099   0.379   0.303
    1UNL     H4   30  -0.006   0.082  -0.005
    1UNL     H5   31  -0.158  -0.013   0.029
    1UNL     H6   32  -0.086   0.154  -0.211
    1UNL     H7   33  -0.175  -0.236  -0.261
    1UNL     H8   34  -0.046  -0.350  -0.166
    1UNL     H9   35  -0.063  -0.361   0.014
    1UNL    H10   36   0.055  -0.103  -0.103
    1UNL    H11   37   0.328  -0.374   0.083
    1UNL    H12   38   0.197  -0.445  -0.004
    1UNL    H13   39   0.162  -0.368   0.154
    1UNL    H14   40   0.391  -0.209  -0.048
    1UNL    H15   41   0.303  -0.075  -0.109
    1UNL    H16   42   0.267   0.112   0.001
    1UNL    H17   43   0.343   0.155   0.406
    1UNL    H18   44   0.465   0.044   0.325
    1UNL    H19   45   0.497   0.216   0.344
    1UNL    H20   46   0.323   0.360   0.269
    1UNL    H21   47   0.187   0.311   0.158
    1UNL    H22   48   0.356   0.348   0.096
    1UNL    H23   49  -0.417  -0.201  -0.189
    1UNL    H24   50  -0.322  -0.041  -0.402
    1UNL    H25   51  -0.415  -0.008  -0.042
    1UNL    H26   52  -0.567  -0.018  -0.264
    1UNL    H27   53  -0.330   0.212  -0.133
    1UNL    H28   54  -0.417   0.160  -0.335
   0.00000   0.00000   0.00000   0.00000   0.00000   0.00000   0.00000   0.00000   0.00000
Generated with MDTraj, t= 61.0
 54
    1UNL     C1    1  -0.105   0.322   0.239
    1UNL     C2    2  -0.067   0.205   0.164
    1UNL     O1    3   0.027   0.132   0.183
    1UNL     O2    4  -0.152   0.192   0.053
    1UNL     C3    5  -0.115   0.076  -0.007
    1UNL     C4    6  -0.148   0.076  -0.157
    1UNL     O3    7  -0.106  -0.037  -0.220
    1UNL     C5    8  -0.187  -0.151  -0.182
    1UNL     O4    9  -0.189  -0.185  -0.044
    1UNL     C6   10  -0.063  -0.238  -0.005
    1UNL     C7   11   0.071  -0.182  -0.042
    1UNL     C8   12   0.198  -0.237  -0.037
    1UNL     C9   13   0.208  -0.371   0.025
    1UNL    C10   14   0.321  -0.148  -0.043
    1UNL    C11   15   0.336  -0.064   0.083
    1UNL     O5   16   0.375  -0.116   0.184
    1UNL    C12   17   0.303   0.080   0.079
    1UNL    C13   18   0.300   0.155   0.187
    1UNL    C14   19   0.335   0.120   0.325
    1UNL    C15   20   0.275   0.302   0.173
    1UNL    C16   21  -0.339  -0.140  -0.223
    1UNL     O6   22  -0.361  -0.144  -0.362
    1UNL    C17   23  -0.395  -0.007  -0.163
    1UNL     O7   24  -0.525   0.020  -0.205
    1UNL    C18   25  -0.303   0.115  -0.184
    1UNL     O8   26  -0.333   0.182  -0.304
    1UNL     H1   27  -0.206   0.366   0.202
    1UNL     H2   28  -0.027   0.402   0.224
    1UNL     H3   29  -0.104   0.296   0.349
    1UNL     H4   30  -0.007   0.069   0.005
    1UNL     H5   31  -0.177  -0.000   0.043
    1UNL     H6   32  -0.088   0.154  -0.204
    1UNL     H7   33  -0.140  -0.246  -0.222
    1UNL     H8   34  -0.079  -0.342  -0.041
    1UNL     H9   35  -0.072  -0.237   0.105
    1UNL    H10   36   0.066  -0.083  -0.066
    1UNL    H11   37   0.300  -0.415   0.004
    1UNL    H12   38   0.128  -0.434  -0.021
    1UNL    H13   39   0.183  -0.359   0.131
    1UNL    H14   40   0.417  -0.196  -0.053
    1UNL    H15   41   0.315  -0.079  -0.129
    1UNL    H16   42   0.295   0.126  -0.013
    1UNL    H17   43   0.257   0.160   0.402
    1UNL    H18   44   0.340   0.012   0.330
    1UNL    H19   45   0.434   0.148   0.367
    1UNL    H20   46   0.317   0.361   0.255
    1UNL    H21   47   0.166   0.333   0.166
    1UNL    H22   48   0.325   0.343   0.085
    1UNL    H23   49  -0.395  -0.231  -0.190
    1UNL    H24   50  -0.332  -0.063  -0.404
    1UNL    H25   51  -0.396  -0.027  -0.061
    1UNL    H26   52  -0.548  -0.013  -0.295
    1UNL    H27   53  -0.323   0.185  -0.103
    1UNL    H28   54  -0.422   0.217  -0.301
   0.00000   0.00000   0.00000   0.00000   0.00000   0.00000   0.00000   0.00000   0.00000
Generated with MDTraj, t= 62.0
 54
    1UNL     C1    1  -0.074   0.357   0.264
    1UNL     C2    2  -0.069   0.226   0.188
    1UNL     O1    3  -0.014   0.133   0.243
    1UNL     O2    4  -0.125   0.235   0.066
    1UNL     C3    5  -0.117   0.108  -0.001
    1UNL     C4    6  -0.160   0.087  -0.149
    1UNL     O3    7  -0.100  -0.030  -0.202
    1UNL     C5    8  -0.181  -0.143  -0.168
    1UNL     O4    9  -0.183  -0.187  -0.029
    1UNL     C6   10  -0.058  -0.260  -0.006
    1UNL     C7   11   0.059  -0.194  -0.057
    1UNL     C8   12   0.188  -0.233  -0.027
    1UNL     C9   13   0.228  -0.351   0.051
    1UNL    C10   14   0.308  -0.153  -0.066
    1UNL    C11   15   0.344  -0.069   0.055
    1UNL     O5   16   0.372  -0.133   0.152
    1UNL    C12   17   0.333   0.079   0.066
    1UNL    C13   18   0.290   0.154   0.167
    1UNL    C14   19   0.250   0.079   0.295
    1UNL    C15   20   0.284   0.300   0.150
    1UNL    C16   21  -0.320  -0.134  -0.230
    1UNL     O6   22  -0.318  -0.120  -0.369
    1UNL    C17   23  -0.398  -0.023  -0.162
    1UNL     O7   24  -0.532  -0.012  -0.214
    1UNL    C18   25  -0.317   0.105  -0.182
    1UNL     O8   26  -0.337   0.142  -0.314
    1UNL     H1   27  -0.034   0.438   0.192
    1UNL     H2   28  -0.006   0.358   0.355
    1UNL     H3   29  -0.176   0.385   0.303
    1UNL     H4   30  -0.010   0.093   0.000
    1UNL     H5   31  -0.172   0.044   0.068
    1UNL     H6   32  -0.113   0.160  -0.217
    1UNL     H7   33  -0.127  -0.231  -0.214
    1UNL     H8   34  -0.068  -0.356  -0.060
    1UNL     H9   35  -0.049  -0.275   0.103
    1UNL    H10   36   0.042  -0.107  -0.111
    1UNL    H11   37   0.328  -0.385   0.031
    1UNL    H12   38   0.167  -0.440   0.024
    1UNL    H13   39   0.215  -0.340   0.157
    1UNL    H14   40   0.388  -0.219  -0.092
    1UNL    H15   41   0.286  -0.085  -0.152
    1UNL    H16   42   0.381   0.128  -0.020
    1UNL    H17   43   0.240   0.151   0.385
    1UNL    H18   44   0.154   0.021   0.272
    1UNL    H19   45   0.316   0.002   0.329
    1UNL    H20   46   0.260   0.357   0.245
    1UNL    H21   47   0.212   0.326   0.075
    1UNL    H22   48   0.385   0.331   0.116
    1UNL    H23   49  -0.383  -0.223  -0.220
    1UNL    H24   50  -0.295  -0.021  -0.393
    1UNL    H25   51  -0.399  -0.043  -0.060
    1UNL    H26   52  -0.541  -0.017  -0.313
    1UNL    H27   53  -0.353   0.188  -0.118
    1UNL    H28   54  -0.430   0.186  -0.329
   0.00000   0.00000   0.00000   0.00000   0.00000   0.00000   0.00000   0.00000   0.00000
Generated with MDTraj, t= 63.0
 54
    1UNL     C1    1  -0.091   0.384   0.239
    1UNL     C2    2  -0.119   0.246   0.195
    1UNL     O1    3  -0.109   0.148   0.270
    1UNL     O2    4  -0.151   0.231   0.062
    1UNL     C3    5  -0.143   0.089   0.025
    1UNL     C4    6  -0.159   0.082  -0.126
    1UNL     O3    7  -0.093  -0.031  -0.182
    1UNL     C5    8  -0.172  -0.144  -0.174
    1UNL     O4    9  -0.169  -0.186  -0.038
    1UNL     C6   10  -0.049  -0.270  -0.022
    1UNL     C7   11   0.075  -0.202  -0.049
    1UNL     C8   12   0.201  -0.241  -0.017
    1UNL     C9   13   0.217  -0.356   0.077
    1UNL    C10   14   0.325  -0.163  -0.072
    1UNL    C11   15   0.373  -0.081   0.043
    1UNL     O5   16   0.423  -0.130   0.144
    1UNL    C12   17   0.358   0.067   0.034
    1UNL    C13   18   0.303   0.134   0.136
    1UNL    C14   19   0.217   0.071   0.244
    1UNL    C15   20   0.310   0.289   0.147
    1UNL    C16   21  -0.318  -0.133  -0.229
    1UNL     O6   22  -0.326  -0.095  -0.366
    1UNL    C17   23  -0.388  -0.022  -0.152
    1UNL     O7   24  -0.517  -0.007  -0.206
    1UNL    C18   25  -0.307   0.105  -0.175
    1UNL     O8   26  -0.322   0.163  -0.300
    1UNL     H1   27   0.020   0.390   0.251
    1UNL     H2   28  -0.144   0.418   0.336
    1UNL     H3   29  -0.124   0.455   0.157
    1UNL     H4   30  -0.044   0.068   0.061
    1UNL     H5   31  -0.220   0.041   0.082
    1UNL     H6   32  -0.103   0.166  -0.172
    1UNL     H7   33  -0.114  -0.221  -0.229
    1UNL     H8   34  -0.061  -0.361  -0.083
    1UNL     H9   35  -0.050  -0.292   0.086
    1UNL    H10   36   0.064  -0.111  -0.119
    1UNL    H11   37   0.321  -0.399   0.075
    1UNL    H12   38   0.150  -0.433   0.043
    1UNL    H13   39   0.183  -0.331   0.174
    1UNL    H14   40   0.393  -0.239  -0.098
    1UNL    H15   41   0.303  -0.098  -0.160
    1UNL    H16   42   0.390   0.122  -0.056
    1UNL    H17   43   0.226   0.130   0.337
    1UNL    H18   44   0.111   0.051   0.200
    1UNL    H19   45   0.253  -0.030   0.268
    1UNL    H20   46   0.217   0.323   0.201
    1UNL    H21   47   0.313   0.332   0.050
    1UNL    H22   48   0.400   0.316   0.208
    1UNL    H23   49  -0.382  -0.219  -0.214
    1UNL    H24   50  -0.284  -0.012  -0.378
    1UNL    H25   51  -0.388  -0.053  -0.052
    1UNL    H26   52  -0.507  -0.018  -0.300
    1UNL    H27   53  -0.350   0.175  -0.097
    1UNL    H28   54  -0.405   0.218  -0.296
   0.00000   0.00000   0.00000   0.00000   0.00000   0.00000   0.00000   0.00000   0.00000
Generated with MDTraj, t= 64.0
 54
    1UNL     C1    1  -0.177   0.382   0.255
    1UNL     C2    2  -0.147   0.246   0.198
    1UNL     O1    3  -0.124   0.157   0.281
    1UNL     O2    4  -0.150   0.230   0.066
    1UNL     C3    5  -0.134   0.089   0.025
    1UNL     C4    6  -0.148   0.089  -0.125
    1UNL     O3    7  -0.097  -0.034  -0.184
    1UNL     C5    8  -0.176  -0.144  -0.173
    1UNL     O4    9  -0.163  -0.186  -0.034
    1UNL     C6   10  -0.041  -0.257  -0.008
    1UNL     C7   11   0.077  -0.194  -0.047
    1UNL     C8   12   0.201  -0.246  -0.020
    1UNL     C9   13   0.223  -0.353   0.079
    1UNL    C10   14   0.322  -0.166  -0.057
    1UNL    C11   15   0.397  -0.096   0.050
    1UNL     O5   16   0.456  -0.154   0.141
    1UNL    C12   17   0.400   0.053   0.045
    1UNL    C13   18   0.322   0.130   0.123
    1UNL    C14   19   0.238   0.066   0.227
    1UNL    C15   20   0.289   0.270   0.098
    1UNL    C16   21  -0.324  -0.126  -0.228
    1UNL     O6   22  -0.341  -0.109  -0.373
    1UNL    C17   23  -0.388  -0.010  -0.149
    1UNL     O7   24  -0.509   0.016  -0.215
    1UNL    C18   25  -0.297   0.118  -0.169
    1UNL     O8   26  -0.319   0.178  -0.294
    1UNL     H1   27  -0.162   0.391   0.365
    1UNL     H2   28  -0.278   0.432   0.224
    1UNL     H3   29  -0.100   0.454   0.210
    1UNL     H4   30  -0.039   0.057   0.059
    1UNL     H5   31  -0.212   0.034   0.072
    1UNL     H6   32  -0.083   0.164  -0.176
    1UNL     H7   33  -0.129  -0.221  -0.235
    1UNL     H8   34  -0.054  -0.349  -0.064
    1UNL     H9   35  -0.041  -0.277   0.099
    1UNL    H10   36   0.068  -0.094  -0.085
    1UNL    H11   37   0.329  -0.337   0.119
    1UNL    H12   38   0.217  -0.446   0.031
    1UNL    H13   39   0.147  -0.347   0.155
    1UNL    H14   40   0.384  -0.229  -0.118
    1UNL    H15   41   0.280  -0.091  -0.126
    1UNL    H16   42   0.438   0.093  -0.041
    1UNL    H17   43   0.226   0.137   0.307
    1UNL    H18   44   0.145   0.018   0.185
    1UNL    H19   45   0.294  -0.020   0.280
    1UNL    H20   46   0.181   0.287   0.109
    1UNL    H21   47   0.312   0.291  -0.007
    1UNL    H22   48   0.341   0.340   0.169
    1UNL    H23   49  -0.390  -0.209  -0.206
    1UNL    H24   50  -0.309  -0.012  -0.394
    1UNL    H25   51  -0.403  -0.035  -0.047
    1UNL    H26   52  -0.557  -0.071  -0.234
    1UNL    H27   53  -0.331   0.191  -0.090
    1UNL    H28   54  -0.413   0.185  -0.304
   0.00000   0.00000   0.00000   0.00000   0.00000   0.00000   0.00000   0.00000   0.00000
Generated with MDTraj, t= 65.0
 54
    1UNL     C1    1  -0.251   0.318   0.276
    1UNL     C2    2  -0.166   0.222   0.199
    1UNL     O1    3  -0.095   0.140   0.259
    1UNL     O2    4  -0.178   0.230   0.061
    1UNL     C3    5  -0.101   0.127  -0.006
    1UNL     C4    6  -0.130   0.106  -0.155
    1UNL     O3    7  -0.083  -0.029  -0.192
    1UNL     C5    8  -0.171  -0.135  -0.150
    1UNL     O4    9  -0.167  -0.157  -0.008
    1UNL     C6   10  -0.055  -0.241   0.021
    1UNL     C7   11   0.075  -0.194  -0.035
    1UNL     C8   12   0.200  -0.245  -0.005
    1UNL     C9   13   0.210  -0.357   0.084
    1UNL    C10   14   0.330  -0.188  -0.067
    1UNL    C11   15   0.396  -0.096   0.032
    1UNL     O5   16   0.446  -0.152   0.126
    1UNL    C12   17   0.379   0.050   0.025
    1UNL    C13   18   0.307   0.124   0.114
    1UNL    C14   19   0.248   0.057   0.231
    1UNL    C15   20   0.295   0.270   0.088
    1UNL    C16   21  -0.314  -0.117  -0.206
    1UNL     O6   22  -0.314  -0.100  -0.348
    1UNL    C17   23  -0.376   0.008  -0.136
    1UNL     O7   24  -0.504   0.032  -0.190
    1UNL    C18   25  -0.286   0.126  -0.187
    1UNL     O8   26  -0.318   0.160  -0.324
    1UNL     H1   27  -0.344   0.270   0.319
    1UNL     H2   28  -0.271   0.415   0.221
    1UNL     H3   29  -0.191   0.349   0.369
    1UNL     H4   30   0.003   0.152   0.007
    1UNL     H5   31  -0.121   0.033   0.048
    1UNL     H6   32  -0.082   0.175  -0.228
    1UNL     H7   33  -0.134  -0.228  -0.190
    1UNL     H8   34  -0.075  -0.341  -0.016
    1UNL     H9   35  -0.057  -0.236   0.131
    1UNL    H10   36   0.069  -0.111  -0.097
    1UNL    H11   37   0.284  -0.338   0.167
    1UNL    H12   38   0.240  -0.445   0.033
    1UNL    H13   39   0.115  -0.387   0.127
    1UNL    H14   40   0.391  -0.277  -0.084
    1UNL    H15   41   0.321  -0.143  -0.166
    1UNL    H16   42   0.408   0.095  -0.074
    1UNL    H17   43   0.200   0.124   0.302
    1UNL    H18   44   0.191  -0.033   0.205
    1UNL    H19   45   0.335   0.015   0.298
    1UNL    H20   46   0.196   0.312   0.081
    1UNL    H21   47   0.340   0.298  -0.012
    1UNL    H22   48   0.342   0.334   0.167
    1UNL    H23   49  -0.372  -0.206  -0.186
    1UNL    H24   50  -0.272  -0.020  -0.365
    1UNL    H25   51  -0.374  -0.002  -0.030
    1UNL    H26   52  -0.547  -0.055  -0.223
    1UNL    H27   53  -0.312   0.218  -0.130
    1UNL    H28   54  -0.420   0.155  -0.345
   0.00000   0.00000   0.00000   0.00000   0.00000   0.00000   0.00000   0.00000   0.00000
Generated with MDTraj, t= 66.0
 54
    1UNL     C1    1  -0.279   0.244   0.278
    1UNL     C2    2  -0.166   0.195   0.196
    1UNL     O1    3  -0.061   0.150   0.243
    1UNL     O2    4  -0.191   0.209   0.063
    1UNL     C3    5  -0.088   0.141  -0.008
    1UNL     C4    6  -0.123   0.110  -0.161
    1UNL     O3    7  -0.074  -0.016  -0.206
    1UNL     C5    8  -0.157  -0.123  -0.149
    1UNL     O4    9  -0.150  -0.134  -0.005
    1UNL     C6   10  -0.045  -0.214   0.042
    1UNL     C7   11   0.085  -0.173  -0.015
    1UNL     C8   12   0.193  -0.256  -0.001
    1UNL     C9   13   0.202  -0.381   0.088
    1UNL    C10   14   0.319  -0.212  -0.057
    1UNL    C11   15   0.371  -0.098   0.025
    1UNL     O5   16   0.436  -0.122   0.123
    1UNL    C12   17   0.338   0.043  -0.000
    1UNL    C13   18   0.283   0.121   0.100
    1UNL    C14   19   0.243   0.059   0.230
    1UNL    C15   20   0.298   0.271   0.086
    1UNL    C16   21  -0.305  -0.108  -0.187
    1UNL     O6   22  -0.341  -0.132  -0.321
    1UNL    C17   23  -0.360   0.034  -0.142
    1UNL     O7   24  -0.494   0.049  -0.183
    1UNL    C18   25  -0.271   0.142  -0.202
    1UNL     O8   26  -0.300   0.161  -0.338
    1UNL     H1   27  -0.379   0.247   0.219
    1UNL     H2   28  -0.256   0.340   0.330
    1UNL     H3   29  -0.296   0.162   0.357
    1UNL     H4   30   0.009   0.190  -0.005
    1UNL     H5   31  -0.077   0.041   0.037
    1UNL     H6   32  -0.064   0.180  -0.223
    1UNL     H7   33  -0.117  -0.213  -0.188
    1UNL     H8   34  -0.077  -0.311   0.007
    1UNL     H9   35  -0.041  -0.207   0.153
    1UNL    H10   36   0.089  -0.072  -0.073
    1UNL    H11   37   0.265  -0.363   0.174
    1UNL    H12   38   0.248  -0.459   0.028
    1UNL    H13   39   0.102  -0.418   0.112
    1UNL    H14   40   0.397  -0.290  -0.051
    1UNL    H15   41   0.314  -0.190  -0.162
    1UNL    H16   42   0.372   0.092  -0.086
    1UNL    H17   43   0.198   0.128   0.307
    1UNL    H18   44   0.184  -0.030   0.211
    1UNL    H19   45   0.335   0.020   0.282
    1UNL    H20   46   0.209   0.330   0.101
    1UNL    H21   47   0.341   0.297  -0.017
    1UNL    H22   48   0.363   0.302   0.168
    1UNL    H23   49  -0.354  -0.194  -0.137
    1UNL    H24   50  -0.293  -0.067  -0.378
    1UNL    H25   51  -0.362   0.037  -0.033
    1UNL    H26   52  -0.530  -0.032  -0.229
    1UNL    H27   53  -0.298   0.231  -0.146
    1UNL    H28   54  -0.398   0.167  -0.354
   0.00000   0.00000   0.00000   0.00000   0.00000   0.00000   0.00000   0.00000   0.00000
Generated with MDTraj, t= 67.0
 54
    1UNL     C1    1  -0.262   0.194   0.283
    1UNL     C2    2  -0.154   0.172   0.184
    1UNL     O1    3  -0.036   0.168   0.216
    1UNL     O2    4  -0.200   0.171   0.056
    1UNL     C3    5  -0.081   0.152  -0.015
    1UNL     C4    6  -0.118   0.111  -0.158
    1UNL     O3    7  -0.087  -0.027  -0.175
    1UNL     C5    8  -0.184  -0.119  -0.118
    1UNL     O4    9  -0.162  -0.141   0.021
    1UNL     C6   10  -0.047  -0.228   0.044
    1UNL     C7   11   0.083  -0.194  -0.023
    1UNL     C8   12   0.201  -0.264  -0.014
    1UNL     C9   13   0.210  -0.383   0.073
    1UNL    C10   14   0.319  -0.188  -0.061
    1UNL    C11   15   0.387  -0.095   0.047
    1UNL     O5   16   0.433  -0.130   0.151
    1UNL    C12   17   0.353   0.046   0.011
    1UNL    C13   18   0.288   0.131   0.096
    1UNL    C14   19   0.239   0.087   0.229
    1UNL    C15   20   0.233   0.258   0.048
    1UNL    C16   21  -0.323  -0.091  -0.170
    1UNL     O6   22  -0.331  -0.115  -0.306
    1UNL    C17   23  -0.365   0.054  -0.148
    1UNL     O7   24  -0.497   0.076  -0.194
    1UNL    C18   25  -0.260   0.151  -0.213
    1UNL     O8   26  -0.268   0.154  -0.349
    1UNL     H1   27  -0.315   0.296   0.272
    1UNL     H2   28  -0.221   0.178   0.387
    1UNL     H3   29  -0.333   0.110   0.256
    1UNL     H4   30  -0.034   0.253  -0.023
    1UNL     H5   31  -0.016   0.072   0.034
    1UNL     H6   32  -0.049   0.164  -0.225
    1UNL     H7   33  -0.156  -0.212  -0.165
    1UNL     H8   34  -0.081  -0.326   0.015
    1UNL     H9   35  -0.046  -0.218   0.156
    1UNL    H10   36   0.084  -0.107  -0.081
    1UNL    H11   37   0.249  -0.354   0.165
    1UNL    H12   38   0.278  -0.457   0.025
    1UNL    H13   39   0.108  -0.428   0.071
    1UNL    H14   40   0.391  -0.246  -0.123
    1UNL    H15   41   0.290  -0.114  -0.131
    1UNL    H16   42   0.370   0.076  -0.092
    1UNL    H17   43   0.212   0.175   0.300
    1UNL    H18   44   0.153   0.019   0.211
    1UNL    H19   45   0.311   0.032   0.282
    1UNL    H20   46   0.167   0.310   0.119
    1UNL    H21   47   0.181   0.234  -0.050
    1UNL    H22   48   0.322   0.322   0.040
    1UNL    H23   49  -0.393  -0.167  -0.128
    1UNL    H24   50  -0.293  -0.037  -0.355
    1UNL    H25   51  -0.371   0.071  -0.040
    1UNL    H26   52  -0.529   0.012  -0.259
    1UNL    H27   53  -0.282   0.246  -0.170
    1UNL    H28   54  -0.349   0.186  -0.385
   0.00000   0.00000   0.00000   0.00000   0.00000   0.00000   0.00000   0.00000   0.00000
Generated with MDTraj, t= 68.0
 54
    1UNL     C1    1  -0.238   0.124   0.299
    1UNL     C2    2  -0.136   0.158   0.193
    1UNL     O1    3  -0.035   0.218   0.218
    1UNL     O2    4  -0.167   0.113   0.067
    1UNL     C3    5  -0.065   0.141  -0.023
    1UNL     C4    6  -0.106   0.110  -0.163
    1UNL     O3    7  -0.082  -0.026  -0.191
    1UNL     C5    8  -0.176  -0.110  -0.130
    1UNL     O4    9  -0.153  -0.133   0.011
    1UNL     C6   10  -0.053  -0.232   0.036
    1UNL     C7   11   0.074  -0.188  -0.018
    1UNL     C8   12   0.188  -0.259   0.004
    1UNL     C9   13   0.187  -0.381   0.085
    1UNL    C10   14   0.318  -0.202  -0.042
    1UNL    C11   15   0.358  -0.081   0.039
    1UNL     O5   16   0.414  -0.104   0.143
    1UNL    C12   17   0.332   0.058  -0.002
    1UNL    C13   18   0.272   0.141   0.088
    1UNL    C14   19   0.233   0.093   0.226
    1UNL    C15   20   0.242   0.287   0.053
    1UNL    C16   21  -0.328  -0.081  -0.169
    1UNL     O6   22  -0.371  -0.122  -0.297
    1UNL    C17   23  -0.364   0.070  -0.149
    1UNL     O7   24  -0.492   0.103  -0.200
    1UNL    C18   25  -0.246   0.150  -0.221
    1UNL     O8   26  -0.248   0.121  -0.350
    1UNL     H1   27  -0.220   0.168   0.403
    1UNL     H2   28  -0.236   0.009   0.312
    1UNL     H3   29  -0.339   0.145   0.254
    1UNL     H4   30  -0.049   0.254  -0.013
    1UNL     H5   31   0.024   0.076   0.004
    1UNL     H6   32  -0.037   0.158  -0.233
    1UNL     H7   33  -0.154  -0.206  -0.176
    1UNL     H8   34  -0.100  -0.320  -0.008
    1UNL     H9   35  -0.050  -0.239   0.149
    1UNL    H10   36   0.072  -0.104  -0.079
    1UNL    H11   37   0.210  -0.374   0.187
    1UNL    H12   38   0.271  -0.445   0.046
    1UNL    H13   39   0.104  -0.451   0.065
    1UNL    H14   40   0.398  -0.270  -0.005
    1UNL    H15   41   0.326  -0.187  -0.147
    1UNL    H16   42   0.361   0.097  -0.102
    1UNL    H17   43   0.277   0.157   0.309
    1UNL    H18   44   0.122   0.080   0.231
    1UNL    H19   45   0.273  -0.002   0.250
    1UNL    H20   46   0.165   0.342   0.117
    1UNL    H21   47   0.207   0.297  -0.050
    1UNL    H22   48   0.333   0.344   0.072
    1UNL    H23   49  -0.388  -0.141  -0.096
    1UNL    H24   50  -0.314  -0.079  -0.363
    1UNL    H25   51  -0.357   0.090  -0.043
    1UNL    H26   52  -0.535   0.029  -0.253
    1UNL    H27   53  -0.253   0.257  -0.205
    1UNL    H28   54  -0.338   0.143  -0.393
   0.00000   0.00000   0.00000   0.00000   0.00000   0.00000   0.00000   0.00000   0.00000
Generated with MDTraj, t= 69.0
 54
    1UNL     C1    1  -0.187   0.073   0.298
    1UNL     C2    2  -0.131   0.148   0.184
    1UNL     O1    3  -0.058   0.240   0.206
    1UNL     O2    4  -0.160   0.103   0.057
    1UNL     C3    5  -0.070   0.149  -0.039
    1UNL     C4    6  -0.094   0.101  -0.177
    1UNL     O3    7  -0.081  -0.048  -0.178
    1UNL     C5    8  -0.190  -0.128  -0.130
    1UNL     O4    9  -0.177  -0.171   0.007
    1UNL     C6   10  -0.065  -0.263   0.033
    1UNL     C7   11   0.064  -0.204  -0.004
    1UNL     C8   12   0.186  -0.258   0.013
    1UNL     C9   13   0.199  -0.369   0.104
    1UNL    C10   14   0.309  -0.191  -0.048
    1UNL    C11   15   0.344  -0.073   0.039
    1UNL     O5   16   0.408  -0.111   0.135
    1UNL    C12   17   0.299   0.062   0.013
    1UNL    C13   18   0.266   0.158   0.101
    1UNL    C14   19   0.248   0.132   0.245
    1UNL    C15   20   0.254   0.293   0.045
    1UNL    C16   21  -0.334  -0.076  -0.167
    1UNL     O6   22  -0.364  -0.109  -0.300
    1UNL    C17   23  -0.351   0.072  -0.144
    1UNL     O7   24  -0.473   0.135  -0.184
    1UNL    C18   25  -0.235   0.144  -0.232
    1UNL     O8   26  -0.258   0.144  -0.366
    1UNL     H1   27  -0.118  -0.008   0.336
    1UNL     H2   28  -0.285   0.020   0.264
    1UNL     H3   29  -0.225   0.145   0.377
    1UNL     H4   30  -0.078   0.262  -0.035
    1UNL     H5   31   0.031   0.111  -0.003
    1UNL     H6   32  -0.023   0.129  -0.255
    1UNL     H7   33  -0.182  -0.222  -0.191
    1UNL     H8   34  -0.084  -0.353  -0.025
    1UNL     H9   35  -0.077  -0.283   0.145
    1UNL    H10   36   0.063  -0.108  -0.067
    1UNL    H11   37   0.177  -0.345   0.209
    1UNL    H12   38   0.303  -0.407   0.102
    1UNL    H13   39   0.143  -0.453   0.067
    1UNL    H14   40   0.392  -0.264  -0.038
    1UNL    H15   41   0.301  -0.154  -0.149
    1UNL    H16   42   0.312   0.085  -0.086
    1UNL    H17   43   0.301   0.209   0.298
    1UNL    H18   44   0.141   0.122   0.273
    1UNL    H19   45   0.299   0.039   0.279
    1UNL    H20   46   0.149   0.339   0.046
    1UNL    H21   47   0.277   0.290  -0.058
    1UNL    H22   48   0.316   0.366   0.100
    1UNL    H23   49  -0.415  -0.120  -0.104
    1UNL    H24   50  -0.306  -0.046  -0.357
    1UNL    H25   51  -0.334   0.094  -0.040
    1UNL    H26   52  -0.514   0.081  -0.249
    1UNL    H27   53  -0.243   0.249  -0.198
    1UNL    H28   54  -0.346   0.196  -0.380
   0.00000   0.00000   0.00000   0.00000   0.00000   0.00000   0.00000   0.00000   0.00000
Generated with MDTraj, t= 70.0
 54
    1UNL     C1    1  -0.175   0.076   0.302
    1UNL     C2    2  -0.098   0.131   0.188
    1UNL     O1    3  -0.014   0.214   0.206
    1UNL     O2    4  -0.127   0.077   0.061
    1UNL     C3    5  -0.048   0.119  -0.043
    1UNL     C4    6  -0.095   0.081  -0.178
    1UNL     O3    7  -0.096  -0.064  -0.198
    1UNL     C5    8  -0.204  -0.143  -0.143
    1UNL     O4    9  -0.189  -0.168  -0.007
    1UNL     C6   10  -0.075  -0.248   0.018
    1UNL     C7   11   0.054  -0.197  -0.028
    1UNL     C8   12   0.171  -0.255   0.008
    1UNL     C9   13   0.177  -0.362   0.117
    1UNL    C10   14   0.281  -0.172  -0.041
    1UNL    C11   15   0.328  -0.066   0.055
    1UNL     O5   16   0.377  -0.094   0.164
    1UNL    C12   17   0.312   0.076   0.020
    1UNL    C13   18   0.288   0.175   0.105
    1UNL    C14   19   0.286   0.163   0.251
    1UNL    C15   20   0.242   0.305   0.054
    1UNL    C16   21  -0.340  -0.083  -0.178
    1UNL     O6   22  -0.370  -0.102  -0.318
    1UNL    C17   23  -0.350   0.071  -0.140
    1UNL     O7   24  -0.477   0.122  -0.184
    1UNL    C18   25  -0.235   0.146  -0.222
    1UNL     O8   26  -0.271   0.145  -0.354
    1UNL     H1   27  -0.224  -0.024   0.282
    1UNL     H2   28  -0.257   0.152   0.326
    1UNL     H3   29  -0.117   0.084   0.402
    1UNL     H4   30  -0.041   0.230  -0.034
    1UNL     H5   31   0.053   0.076  -0.019
    1UNL     H6   32  -0.024   0.114  -0.258
    1UNL     H7   33  -0.197  -0.244  -0.196
    1UNL     H8   34  -0.101  -0.343  -0.028
    1UNL     H9   35  -0.075  -0.253   0.132
    1UNL    H10   36   0.055  -0.116  -0.102
    1UNL    H11   37   0.079  -0.367   0.177
    1UNL    H12   38   0.255  -0.338   0.187
    1UNL    H13   39   0.198  -0.453   0.066
    1UNL    H14   40   0.370  -0.229  -0.064
    1UNL    H15   41   0.252  -0.126  -0.135
    1UNL    H16   42   0.322   0.097  -0.091
    1UNL    H17   43   0.309   0.259   0.285
    1UNL    H18   44   0.193   0.121   0.288
    1UNL    H19   45   0.374   0.098   0.288
    1UNL    H20   46   0.159   0.343   0.119
    1UNL    H21   47   0.199   0.291  -0.045
    1UNL    H22   48   0.321   0.385   0.058
    1UNL    H23   49  -0.425  -0.127  -0.124
    1UNL    H24   50  -0.313  -0.043  -0.362
    1UNL    H25   51  -0.340   0.082  -0.035
    1UNL    H26   52  -0.492   0.067  -0.269
    1UNL    H27   53  -0.224   0.252  -0.185
    1UNL    H28   54  -0.347   0.207  -0.370
   0.00000   0.00000   0.00000   0.00000   0.00000   0.00000   0.00000   0.00000   0.00000
Generated with MDTraj, t= 71.0
 54
    1UNL     C1    1  -0.163   0.103   0.307
    1UNL     C2    2  -0.084   0.116   0.179
    1UNL     O1    3   0.031   0.151   0.184
    1UNL     O2    4  -0.144   0.080   0.066
    1UNL     C3    5  -0.055   0.098  -0.039
    1UNL     C4    6  -0.102   0.070  -0.183
    1UNL     O3    7  -0.104  -0.069  -0.222
    1UNL     C5    8  -0.211  -0.149  -0.166
    1UNL     O4    9  -0.193  -0.168  -0.027
    1UNL     C6   10  -0.088  -0.259   0.008
    1UNL     C7   11   0.051  -0.213  -0.035
    1UNL     C8   12   0.171  -0.241   0.028
    1UNL     C9   13   0.185  -0.343   0.142
    1UNL    C10   14   0.295  -0.169  -0.023
    1UNL    C11   15   0.322  -0.053   0.072
    1UNL     O5   16   0.361  -0.077   0.184
    1UNL    C12   17   0.308   0.086   0.026
    1UNL    C13   18   0.308   0.189   0.108
    1UNL    C14   19   0.311   0.174   0.259
    1UNL    C15   20   0.283   0.330   0.046
    1UNL    C16   21  -0.350  -0.088  -0.197
    1UNL     O6   22  -0.387  -0.081  -0.334
    1UNL    C17   23  -0.368   0.055  -0.142
    1UNL     O7   24  -0.500   0.104  -0.182
    1UNL    C18   25  -0.249   0.142  -0.205
    1UNL     O8   26  -0.273   0.167  -0.338
    1UNL     H1   27  -0.271   0.135   0.285
    1UNL     H2   28  -0.120   0.166   0.390
    1UNL     H3   29  -0.164  -0.001   0.359
    1UNL     H4   30  -0.018   0.200  -0.033
    1UNL     H5   31   0.030   0.028  -0.020
    1UNL     H6   32  -0.038   0.118  -0.262
    1UNL     H7   33  -0.200  -0.253  -0.211
    1UNL     H8   34  -0.118  -0.347  -0.047
    1UNL     H9   35  -0.100  -0.274   0.121
    1UNL    H10   36   0.056  -0.162  -0.122
    1UNL    H11   37   0.131  -0.437   0.103
    1UNL    H12   38   0.135  -0.314   0.233
    1UNL    H13   39   0.287  -0.367   0.158
    1UNL    H14   40   0.376  -0.237  -0.029
    1UNL    H15   41   0.285  -0.129  -0.126
    1UNL    H16   42   0.296   0.099  -0.078
    1UNL    H17   43   0.306   0.268   0.312
    1UNL    H18   44   0.234   0.104   0.288
    1UNL    H19   45   0.409   0.127   0.291
    1UNL    H20   46   0.230   0.389   0.120
    1UNL    H21   47   0.215   0.322  -0.042
    1UNL    H22   48   0.378   0.388   0.029
    1UNL    H23   49  -0.429  -0.154  -0.156
    1UNL    H24   50  -0.320  -0.013  -0.374
    1UNL    H25   51  -0.362   0.054  -0.037
    1UNL    H26   52  -0.512   0.074  -0.273
    1UNL    H27   53  -0.243   0.240  -0.148
    1UNL    H28   54  -0.340   0.231  -0.350
   0.00000   0.00000   0.00000   0.00000   0.00000   0.00000   0.00000   0.00000   0.00000
Generated with MDTraj, t= 72.0
 54
    1UNL     C1    1  -0.180   0.102   0.290
    1UNL     C2    2  -0.088   0.105   0.178
    1UNL     O1    3   0.034   0.094   0.196
    1UNL     O2    4  -0.151   0.114   0.053
    1UNL     C3    5  -0.055   0.122  -0.044
    1UNL     C4    6  -0.114   0.081  -0.182
    1UNL     O3    7  -0.096  -0.058  -0.212
    1UNL     C5    8  -0.200  -0.152  -0.172
    1UNL     O4    9  -0.191  -0.193  -0.035
    1UNL     C6   10  -0.090  -0.288  -0.027
    1UNL     C7   11   0.042  -0.224  -0.055
    1UNL     C8   12   0.148  -0.216   0.030
    1UNL     C9   13   0.160  -0.278   0.157
    1UNL    C10   14   0.276  -0.157  -0.011
    1UNL    C11   15   0.323  -0.052   0.086
    1UNL     O5   16   0.351  -0.080   0.199
    1UNL    C12   17   0.324   0.088   0.036
    1UNL    C13   18   0.339   0.198   0.105
    1UNL    C14   19   0.331   0.179   0.254
    1UNL    C15   20   0.346   0.324   0.028
    1UNL    C16   21  -0.346  -0.096  -0.200
    1UNL     O6   22  -0.376  -0.086  -0.338
    1UNL    C17   23  -0.370   0.040  -0.137
    1UNL     O7   24  -0.506   0.088  -0.162
    1UNL    C18   25  -0.267   0.139  -0.195
    1UNL     O8   26  -0.289   0.172  -0.326
    1UNL     H1   27  -0.207   0.214   0.308
    1UNL     H2   28  -0.133   0.047   0.377
    1UNL     H3   29  -0.273   0.042   0.263
    1UNL     H4   30  -0.010   0.218  -0.043
    1UNL     H5   31   0.019   0.043  -0.023
    1UNL     H6   32  -0.061   0.134  -0.265
    1UNL     H7   33  -0.175  -0.246  -0.229
    1UNL     H8   34  -0.109  -0.362  -0.103
    1UNL     H9   35  -0.099  -0.336   0.075
    1UNL    H10   36   0.048  -0.176  -0.156
    1UNL    H11   37   0.254  -0.336   0.154
    1UNL    H12   38   0.084  -0.352   0.177
    1UNL    H13   39   0.170  -0.207   0.240
    1UNL    H14   40   0.347  -0.235  -0.018
    1UNL    H15   41   0.263  -0.117  -0.114
    1UNL    H16   42   0.347   0.089  -0.071
    1UNL    H17   43   0.347   0.276   0.309
    1UNL    H18   44   0.231   0.142   0.273
    1UNL    H19   45   0.399   0.110   0.293
    1UNL    H20   46   0.304   0.401   0.088
    1UNL    H21   47   0.285   0.315  -0.067
    1UNL    H22   48   0.452   0.357   0.013
    1UNL    H23   49  -0.417  -0.173  -0.169
    1UNL    H24   50  -0.315  -0.021  -0.366
    1UNL    H25   51  -0.360   0.040  -0.031
    1UNL    H26   52  -0.554   0.038  -0.228
    1UNL    H27   53  -0.273   0.228  -0.127
    1UNL    H28   54  -0.387   0.194  -0.334
   0.00000   0.00000   0.00000   0.00000   0.00000   0.00000   0.00000   0.00000   0.00000
Generated with MDTraj, t= 73.0
 54
    1UNL     C1    1  -0.192   0.083   0.308
    1UNL     C2    2  -0.103   0.090   0.185
    1UNL     O1    3   0.018   0.068   0.196
    1UNL     O2    4  -0.159   0.109   0.066
    1UNL     C3    5  -0.065   0.079  -0.038
    1UNL     C4    6  -0.117   0.079  -0.184
    1UNL     O3    7  -0.116  -0.052  -0.239
    1UNL     C5    8  -0.201  -0.146  -0.180
    1UNL     O4    9  -0.173  -0.170  -0.042
    1UNL     C6   10  -0.084  -0.288  -0.040
    1UNL     C7   11   0.058  -0.251  -0.057
    1UNL     C8   12   0.139  -0.193   0.033
    1UNL     C9   13   0.115  -0.200   0.177
    1UNL    C10   14   0.276  -0.148  -0.007
    1UNL    C11   15   0.333  -0.046   0.086
    1UNL     O5   16   0.372  -0.066   0.198
    1UNL    C12   17   0.359   0.080   0.022
    1UNL    C13   18   0.358   0.187   0.097
    1UNL    C14   19   0.315   0.184   0.234
    1UNL    C15   20   0.402   0.319   0.046
    1UNL    C16   21  -0.354  -0.098  -0.202
    1UNL     O6   22  -0.377  -0.097  -0.344
    1UNL    C17   23  -0.367   0.039  -0.137
    1UNL     O7   24  -0.501   0.088  -0.145
    1UNL    C18   25  -0.267   0.142  -0.196
    1UNL     O8   26  -0.306   0.173  -0.328
    1UNL     H1   27  -0.138   0.129   0.399
    1UNL     H2   28  -0.233  -0.024   0.318
    1UNL     H3   29  -0.280   0.148   0.287
    1UNL     H4   30   0.020   0.138  -0.032
    1UNL     H5   31  -0.030  -0.023  -0.020
    1UNL     H6   32  -0.058   0.144  -0.250
    1UNL     H7   33  -0.180  -0.239  -0.236
    1UNL     H8   34  -0.116  -0.359  -0.113
    1UNL     H9   35  -0.104  -0.344   0.055
    1UNL    H10   36   0.099  -0.257  -0.159
    1UNL    H11   37   0.165  -0.125   0.232
    1UNL    H12   38   0.151  -0.297   0.209
    1UNL    H13   39   0.004  -0.195   0.199
    1UNL    H14   40   0.333  -0.236  -0.002
    1UNL    H15   41   0.278  -0.119  -0.113
    1UNL    H16   42   0.401   0.080  -0.080
    1UNL    H17   43   0.329   0.286   0.283
    1UNL    H18   44   0.209   0.162   0.224
    1UNL    H19   45   0.361   0.112   0.291
    1UNL    H20   46   0.369   0.397   0.112
    1UNL    H21   47   0.361   0.342  -0.058
    1UNL    H22   48   0.512   0.331   0.049
    1UNL    H23   49  -0.429  -0.172  -0.173
    1UNL    H24   50  -0.328  -0.008  -0.368
    1UNL    H25   51  -0.347   0.025  -0.033
    1UNL    H26   52  -0.557   0.034  -0.211
    1UNL    H27   53  -0.266   0.227  -0.127
    1UNL    H28   54  -0.403   0.208  -0.327
   0.00000   0.00000   0.00000   0.00000   0.00000   0.00000   0.00000   0.00000   0.00000
Generated with MDTraj, t= 74.0
 54
    1UNL     C1    1  -0.225   0.097   0.297
    1UNL     C2    2  -0.120   0.093   0.191
    1UNL     O1    3  -0.001   0.118   0.220
    1UNL     O2    4  -0.167   0.058   0.066
    1UNL     C3    5  -0.070   0.087  -0.032
    1UNL     C4    6  -0.120   0.072  -0.173
    1UNL     O3    7  -0.119  -0.062  -0.222
    1UNL     C5    8  -0.212  -0.153  -0.177
    1UNL     O4    9  -0.186  -0.200  -0.046
    1UNL     C6   10  -0.068  -0.289  -0.051
    1UNL     C7   11   0.069  -0.233  -0.076
    1UNL     C8   12   0.156  -0.187   0.018
    1UNL     C9   13   0.112  -0.187   0.160
    1UNL    C10   14   0.292  -0.137  -0.017
    1UNL    C11   15   0.355  -0.056   0.091
    1UNL     O5   16   0.384  -0.087   0.205
    1UNL    C12   17   0.414   0.069   0.043
    1UNL    C13   18   0.372   0.185   0.094
    1UNL    C14   19   0.290   0.198   0.217
    1UNL    C15   20   0.422   0.309   0.034
    1UNL    C16   21  -0.363  -0.098  -0.202
    1UNL     O6   22  -0.396  -0.094  -0.338
    1UNL    C17   23  -0.368   0.040  -0.135
    1UNL     O7   24  -0.501   0.095  -0.156
    1UNL    C18   25  -0.265   0.138  -0.187
    1UNL     O8   26  -0.302   0.179  -0.317
    1UNL     H1   27  -0.190   0.029   0.382
    1UNL     H2   28  -0.330   0.072   0.253
    1UNL     H3   29  -0.230   0.197   0.349
    1UNL     H4   30  -0.033   0.183  -0.011
    1UNL     H5   31   0.015   0.021  -0.020
    1UNL     H6   32  -0.062   0.128  -0.245
    1UNL     H7   33  -0.190  -0.239  -0.237
    1UNL     H8   34  -0.091  -0.360  -0.127
    1UNL     H9   35  -0.072  -0.351   0.041
    1UNL    H10   36   0.100  -0.240  -0.172
    1UNL    H11   37   0.184  -0.150   0.226
    1UNL    H12   38   0.090  -0.291   0.181
    1UNL    H13   39   0.015  -0.130   0.173
    1UNL    H14   40   0.360  -0.220  -0.028
    1UNL    H15   41   0.288  -0.083  -0.112
    1UNL    H16   42   0.482   0.063  -0.033
    1UNL    H17   43   0.272   0.302   0.235
    1UNL    H18   44   0.194   0.150   0.204
    1UNL    H19   45   0.335   0.158   0.306
    1UNL    H20   46   0.382   0.400   0.081
    1UNL    H21   47   0.399   0.305  -0.076
    1UNL    H22   48   0.530   0.316   0.045
    1UNL    H23   49  -0.444  -0.155  -0.154
    1UNL    H24   50  -0.349  -0.021  -0.369
    1UNL    H25   51  -0.361   0.023  -0.029
    1UNL    H26   52  -0.532   0.057  -0.238
    1UNL    H27   53  -0.263   0.219  -0.117
    1UNL    H28   54  -0.371   0.249  -0.316
   0.00000   0.00000   0.00000   0.00000   0.00000   0.00000   0.00000   0.00000   0.00000
Generated with MDTraj, t= 75.0
 54
    1UNL     C1    1  -0.243   0.083   0.295
    1UNL     C2    2  -0.144   0.114   0.190
    1UNL     O1    3  -0.050   0.192   0.210
    1UNL     O2    4  -0.168   0.054   0.073
    1UNL     C3    5  -0.064   0.088  -0.016
    1UNL     C4    6  -0.113   0.085  -0.162
    1UNL     O3    7  -0.098  -0.044  -0.218
    1UNL     C5    8  -0.194  -0.142  -0.180
    1UNL     O4    9  -0.175  -0.204  -0.057
    1UNL     C6   10  -0.071  -0.294  -0.056
    1UNL     C7   11   0.062  -0.231  -0.073
    1UNL     C8   12   0.159  -0.213   0.015
    1UNL     C9   13   0.125  -0.226   0.160
    1UNL    C10   14   0.291  -0.147  -0.028
    1UNL    C11   15   0.356  -0.056   0.076
    1UNL     O5   16   0.369  -0.081   0.195
    1UNL    C12   17   0.408   0.071   0.035
    1UNL    C13   18   0.372   0.187   0.088
    1UNL    C14   19   0.273   0.180   0.197
    1UNL    C15   20   0.453   0.305   0.045
    1UNL    C16   21  -0.347  -0.098  -0.188
    1UNL     O6   22  -0.400  -0.088  -0.318
    1UNL    C17   23  -0.362   0.041  -0.120
    1UNL     O7   24  -0.497   0.089  -0.147
    1UNL    C18   25  -0.264   0.136  -0.186
    1UNL     O8   26  -0.298   0.155  -0.321
    1UNL     H1   27  -0.276  -0.024   0.292
    1UNL     H2   28  -0.336   0.151   0.304
    1UNL     H3   29  -0.185   0.086   0.393
    1UNL     H4   30  -0.025   0.185   0.004
    1UNL     H5   31   0.020   0.019   0.003
    1UNL     H6   32  -0.055   0.141  -0.233
    1UNL     H7   33  -0.174  -0.221  -0.248
    1UNL     H8   34  -0.085  -0.360  -0.138
    1UNL     H9   35  -0.081  -0.351   0.038
    1UNL    H10   36   0.070  -0.186  -0.178
    1UNL    H11   37   0.210  -0.195   0.225
    1UNL    H12   38   0.093  -0.326   0.184
    1UNL    H13   39   0.036  -0.168   0.187
    1UNL    H14   40   0.365  -0.222  -0.053
    1UNL    H15   41   0.281  -0.086  -0.116
    1UNL    H16   42   0.495   0.070  -0.038
    1UNL    H17   43   0.282   0.256   0.264
    1UNL    H18   44   0.171   0.173   0.165
    1UNL    H19   45   0.290   0.088   0.256
    1UNL    H20   46   0.418   0.405   0.085
    1UNL    H21   47   0.454   0.307  -0.064
    1UNL    H22   48   0.558   0.300   0.071
    1UNL    H23   49  -0.418  -0.161  -0.132
    1UNL    H24   50  -0.340  -0.021  -0.373
    1UNL    H25   51  -0.346   0.041  -0.015
    1UNL    H26   52  -0.524   0.046  -0.232
    1UNL    H27   53  -0.272   0.225  -0.129
    1UNL    H28   54  -0.389   0.173  -0.324
   0.00000   0.00000   0.00000   0.00000   0.00000   0.00000   0.00000   0.00000   0.00000
Generated with MDTraj, t= 76.0
 54
    1UNL     C1    1  -0.233   0.074   0.297
    1UNL     C2    2  -0.149   0.130   0.188
    1UNL     O1    3  -0.089   0.235   0.200
    1UNL     O2    4  -0.151   0.051   0.072
    1UNL     C3    5  -0.060   0.096  -0.027
    1UNL     C4    6  -0.112   0.082  -0.167
    1UNL     O3    7  -0.096  -0.052  -0.212
    1UNL     C5    8  -0.196  -0.142  -0.162
    1UNL     O4    9  -0.177  -0.205  -0.043
    1UNL     C6   10  -0.064  -0.300  -0.054
    1UNL     C7   11   0.076  -0.253  -0.089
    1UNL     C8   12   0.163  -0.230   0.005
    1UNL     C9   13   0.127  -0.259   0.151
    1UNL    C10   14   0.293  -0.157  -0.029
    1UNL    C11   15   0.348  -0.058   0.068
    1UNL     O5   16   0.351  -0.082   0.188
    1UNL    C12   17   0.388   0.073   0.024
    1UNL    C13   18   0.367   0.188   0.090
    1UNL    C14   19   0.274   0.190   0.208
    1UNL    C15   20   0.441   0.309   0.044
    1UNL    C16   21  -0.339  -0.088  -0.177
    1UNL     O6   22  -0.375  -0.087  -0.311
    1UNL    C17   23  -0.362   0.050  -0.113
    1UNL     O7   24  -0.498   0.078  -0.142
    1UNL    C18   25  -0.263   0.143  -0.181
    1UNL     O8   26  -0.286   0.168  -0.321
    1UNL     H1   27  -0.339   0.047   0.274
    1UNL     H2   28  -0.237   0.133   0.394
    1UNL     H3   29  -0.180  -0.026   0.323
    1UNL     H4   30  -0.025   0.199  -0.012
    1UNL     H5   31   0.028   0.029  -0.013
    1UNL     H6   32  -0.058   0.131  -0.249
    1UNL     H7   33  -0.193  -0.224  -0.231
    1UNL     H8   34  -0.097  -0.375  -0.121
    1UNL     H9   35  -0.064  -0.358   0.041
    1UNL    H10   36   0.092  -0.226  -0.187
    1UNL    H11   37   0.205  -0.215   0.223
    1UNL    H12   38   0.112  -0.365   0.172
    1UNL    H13   39   0.032  -0.220   0.178
    1UNL    H14   40   0.370  -0.228  -0.066
    1UNL    H15   41   0.264  -0.097  -0.112
    1UNL    H16   42   0.444   0.082  -0.063
    1UNL    H17   43   0.318   0.235   0.291
    1UNL    H18   44   0.178   0.225   0.189
    1UNL    H19   45   0.258   0.084   0.237
    1UNL    H20   46   0.387   0.403   0.082
    1UNL    H21   47   0.453   0.310  -0.062
    1UNL    H22   48   0.544   0.317   0.079
    1UNL    H23   49  -0.422  -0.151  -0.139
    1UNL    H24   50  -0.319  -0.041  -0.369
    1UNL    H25   51  -0.334   0.047  -0.013
    1UNL    H26   52  -0.509   0.063  -0.243
    1UNL    H27   53  -0.253   0.233  -0.121
    1UNL    H28   54  -0.367   0.219  -0.337
   0.00000   0.00000   0.00000   0.00000   0.00000   0.00000   0.00000   0.00000   0.00000
Generated with MDTraj, t= 77.0
 54
    1UNL     C1    1  -0.227   0.088   0.294
    1UNL     C2    2  -0.134   0.132   0.185
    1UNL     O1    3  -0.087   0.240   0.196
    1UNL     O2    4  -0.107   0.039   0.086
    1UNL     C3    5  -0.030   0.089  -0.017
    1UNL     C4    6  -0.099   0.071  -0.156
    1UNL     O3    7  -0.101  -0.060  -0.223
    1UNL     C5    8  -0.201  -0.150  -0.177
    1UNL     O4    9  -0.176  -0.214  -0.053
    1UNL     C6   10  -0.063  -0.305  -0.056
    1UNL     C7   11   0.070  -0.244  -0.083
    1UNL     C8   12   0.165  -0.240   0.006
    1UNL     C9   13   0.132  -0.273   0.150
    1UNL    C10   14   0.290  -0.160  -0.022
    1UNL    C11   15   0.338  -0.060   0.079
    1UNL     O5   16   0.336  -0.084   0.199
    1UNL    C12   17   0.369   0.074   0.015
    1UNL    C13   18   0.352   0.190   0.085
    1UNL    C14   19   0.284   0.201   0.225
    1UNL    C15   20   0.378   0.320   0.021
    1UNL    C16   21  -0.346  -0.093  -0.190
    1UNL     O6   22  -0.387  -0.095  -0.324
    1UNL    C17   23  -0.353   0.050  -0.121
    1UNL     O7   24  -0.494   0.096  -0.143
    1UNL    C18   25  -0.244   0.143  -0.177
    1UNL     O8   26  -0.280   0.190  -0.308
    1UNL     H1   27  -0.299   0.165   0.337
    1UNL     H2   28  -0.167   0.045   0.379
    1UNL     H3   29  -0.279  -0.005   0.251
    1UNL     H4   30  -0.007   0.197   0.000
    1UNL     H5   31   0.071   0.037  -0.017
    1UNL     H6   32  -0.036   0.118  -0.237
    1UNL     H7   33  -0.188  -0.238  -0.240
    1UNL     H8   34  -0.080  -0.391  -0.119
    1UNL     H9   35  -0.067  -0.350   0.046
    1UNL    H10   36   0.074  -0.179  -0.171
    1UNL    H11   37   0.215  -0.249   0.219
    1UNL    H12   38   0.090  -0.375   0.164
    1UNL    H13   39   0.048  -0.214   0.179
    1UNL    H14   40   0.369  -0.238  -0.034
    1UNL    H15   41   0.272  -0.114  -0.115
    1UNL    H16   42   0.397   0.083  -0.091
    1UNL    H17   43   0.351   0.243   0.300
    1UNL    H18   44   0.200   0.261   0.222
    1UNL    H19   45   0.247   0.108   0.255
    1UNL    H20   46   0.321   0.400   0.077
    1UNL    H21   47   0.363   0.313  -0.085
    1UNL    H22   48   0.487   0.342   0.030
    1UNL    H23   49  -0.419  -0.153  -0.134
    1UNL    H24   50  -0.364  -0.005  -0.372
    1UNL    H25   51  -0.338   0.031  -0.020
    1UNL    H26   52  -0.552   0.025  -0.112
    1UNL    H27   53  -0.239   0.231  -0.109
    1UNL    H28   54  -0.380   0.208  -0.315
   0.00000   0.00000   0.00000   0.00000   0.00000   0.00000   0.00000   0.00000   0.00000
Generated with MDTraj, t= 78.0
 54
    1UNL     C1    1  -0.201   0.100   0.296
    1UNL     C2    2  -0.118   0.123   0.172
    1UNL     O1    3  -0.046   0.216   0.168
    1UNL     O2    4  -0.125   0.025   0.073
    1UNL     C3    5  -0.033   0.040  -0.033
    1UNL     C4    6  -0.096   0.063  -0.171
    1UNL     O3    7  -0.098  -0.066  -0.236
    1UNL     C5    8  -0.194  -0.153  -0.183
    1UNL     O4    9  -0.174  -0.214  -0.054
    1UNL     C6   10  -0.067  -0.303  -0.060
    1UNL     C7   11   0.068  -0.240  -0.072
    1UNL     C8   12   0.156  -0.238   0.024
    1UNL     C9   13   0.131  -0.284   0.166
    1UNL    C10   14   0.293  -0.172  -0.000
    1UNL    C11   15   0.319  -0.048   0.078
    1UNL     O5   16   0.337  -0.070   0.195
    1UNL    C12   17   0.322   0.080   0.008
    1UNL    C13   18   0.302   0.196   0.078
    1UNL    C14   19   0.264   0.202   0.221
    1UNL    C15   20   0.315   0.332   0.012
    1UNL    C16   21  -0.337  -0.086  -0.188
    1UNL     O6   22  -0.369  -0.053  -0.320
    1UNL    C17   23  -0.336   0.044  -0.103
    1UNL     O7   24  -0.462   0.102  -0.114
    1UNL    C18   25  -0.236   0.141  -0.166
    1UNL     O8   26  -0.263   0.202  -0.289
    1UNL     H1   27  -0.161   0.173   0.377
    1UNL     H2   28  -0.185  -0.007   0.324
    1UNL     H3   29  -0.309   0.113   0.264
    1UNL     H4   30   0.037   0.124  -0.011
    1UNL     H5   31   0.029  -0.054  -0.023
    1UNL     H6   32  -0.030   0.124  -0.241
    1UNL     H7   33  -0.185  -0.241  -0.251
    1UNL     H8   34  -0.082  -0.367  -0.146
    1UNL     H9   35  -0.061  -0.371   0.030
    1UNL    H10   36   0.086  -0.189  -0.170
    1UNL    H11   37   0.197  -0.240   0.233
    1UNL    H12   38   0.131  -0.397   0.175
    1UNL    H13   39   0.028  -0.265   0.199
    1UNL    H14   40   0.375  -0.246   0.012
    1UNL    H15   41   0.294  -0.142  -0.103
    1UNL    H16   42   0.306   0.087  -0.101
    1UNL    H17   43   0.327   0.274   0.275
    1UNL    H18   44   0.165   0.234   0.232
    1UNL    H19   45   0.260   0.111   0.265
    1UNL    H20   46   0.311   0.415   0.082
    1UNL    H21   47   0.252   0.345  -0.077
    1UNL    H22   48   0.417   0.336  -0.038
    1UNL    H23   49  -0.423  -0.144  -0.151
    1UNL    H24   50  -0.295  -0.014  -0.363
    1UNL    H25   51  -0.318   0.026  -0.003
    1UNL    H26   52  -0.485   0.113  -0.206
    1UNL    H27   53  -0.225   0.220  -0.086
    1UNL    H28   54  -0.339   0.256  -0.290
   0.00000   0.00000   0.00000   0.00000   0.00000   0.00000   0.00000   0.00000   0.00000
Generated with MDTraj, t= 79.0
 54
    1UNL     C1    1  -0.201   0.099   0.282
    1UNL     C2    2  -0.095   0.128   0.173
    1UNL     O1    3  -0.023   0.225   0.173
    1UNL     O2    4  -0.092   0.024   0.084
    1UNL     C3    5  -0.006   0.050  -0.019
    1UNL     C4    6  -0.068   0.059  -0.161
    1UNL     O3    7  -0.092  -0.065  -0.232
    1UNL     C5    8  -0.189  -0.150  -0.186
    1UNL     O4    9  -0.168  -0.223  -0.065
    1UNL     C6   10  -0.068  -0.317  -0.077
    1UNL     C7   11   0.068  -0.260  -0.087
    1UNL     C8   12   0.139  -0.228   0.016
    1UNL     C9   13   0.108  -0.261   0.165
    1UNL    C10   14   0.280  -0.172  -0.005
    1UNL    C11   15   0.307  -0.052   0.080
    1UNL     O5   16   0.321  -0.078   0.196
    1UNL    C12   17   0.292   0.081   0.019
    1UNL    C13   18   0.261   0.200   0.073
    1UNL    C14   19   0.275   0.212   0.219
    1UNL    C15   20   0.230   0.320  -0.008
    1UNL    C16   21  -0.332  -0.078  -0.183
    1UNL     O6   22  -0.370  -0.048  -0.316
    1UNL    C17   23  -0.323   0.047  -0.097
    1UNL     O7   24  -0.442   0.112  -0.114
    1UNL    C18   25  -0.212   0.137  -0.154
    1UNL     O8   26  -0.253   0.190  -0.276
    1UNL     H1   27  -0.142   0.062   0.375
    1UNL     H2   28  -0.278   0.022   0.245
    1UNL     H3   29  -0.259   0.193   0.301
    1UNL     H4   30   0.048   0.142   0.012
    1UNL     H5   31   0.069  -0.033  -0.009
    1UNL     H6   32   0.006   0.120  -0.223
    1UNL     H7   33  -0.193  -0.233  -0.264
    1UNL     H8   34  -0.086  -0.386  -0.160
    1UNL     H9   35  -0.072  -0.381   0.016
    1UNL    H10   36   0.105  -0.252  -0.182
    1UNL    H11   37   0.190  -0.239   0.225
    1UNL    H12   38   0.077  -0.367   0.174
    1UNL    H13   39   0.019  -0.207   0.206
    1UNL    H14   40   0.350  -0.246   0.034
    1UNL    H15   41   0.307  -0.167  -0.110
    1UNL    H16   42   0.264   0.079  -0.081
    1UNL    H17   43   0.296   0.314   0.243
    1UNL    H18   44   0.187   0.182   0.274
    1UNL    H19   45   0.348   0.147   0.258
    1UNL    H20   46   0.276   0.409   0.028
    1UNL    H21   47   0.122   0.338  -0.034
    1UNL    H22   48   0.274   0.306  -0.112
    1UNL    H23   49  -0.414  -0.144  -0.154
    1UNL    H24   50  -0.293   0.002  -0.353
    1UNL    H25   51  -0.299   0.017  -0.002
    1UNL    H26   52  -0.490   0.087  -0.201
    1UNL    H27   53  -0.195   0.220  -0.079
    1UNL    H28   54  -0.351   0.165  -0.298
   0.00000   0.00000   0.00000   0.00000   0.00000   0.00000   0.00000   0.00000   0.00000
Generated with MDTraj, t= 80.0
 54
    1UNL     C1    1  -0.199   0.093   0.291
    1UNL     C2    2  -0.122   0.127   0.173
    1UNL     O1    3  -0.070   0.234   0.155
    1UNL     O2    4  -0.117   0.022   0.092
    1UNL     C3    5  -0.025   0.040  -0.010
    1UNL     C4    6  -0.077   0.055  -0.153
    1UNL     O3    7  -0.091  -0.064  -0.227
    1UNL     C5    8  -0.185  -0.159  -0.182
    1UNL     O4    9  -0.147  -0.231  -0.065
    1UNL     C6   10  -0.059  -0.342  -0.099
    1UNL     C7   11   0.086  -0.298  -0.090
    1UNL     C8   12   0.137  -0.234   0.011
    1UNL     C9   13   0.067  -0.219   0.146
    1UNL    C10   14   0.282  -0.187   0.005
    1UNL    C11   15   0.312  -0.049   0.074
    1UNL     O5   16   0.329  -0.059   0.194
    1UNL    C12   17   0.288   0.084   0.006
    1UNL    C13   18   0.272   0.200   0.070
    1UNL    C14   19   0.316   0.214   0.211
    1UNL    C15   20   0.234   0.327   0.010
    1UNL    C16   21  -0.324  -0.079  -0.182
    1UNL     O6   22  -0.373  -0.054  -0.311
    1UNL    C17   23  -0.315   0.055  -0.094
    1UNL     O7   24  -0.434   0.123  -0.093
    1UNL    C18   25  -0.204   0.146  -0.156
    1UNL     O8   26  -0.235   0.192  -0.283
    1UNL     H1   27  -0.171  -0.011   0.329
    1UNL     H2   28  -0.313   0.104   0.277
    1UNL     H3   29  -0.178   0.165   0.375
    1UNL     H4   30   0.036   0.126   0.032
    1UNL     H5   31   0.035  -0.051  -0.011
    1UNL     H6   32  -0.003   0.114  -0.213
    1UNL     H7   33  -0.193  -0.239  -0.263
    1UNL     H8   34  -0.092  -0.398  -0.189
    1UNL     H9   35  -0.078  -0.423  -0.021
    1UNL    H10   36   0.148  -0.312  -0.185
    1UNL    H11   37   0.109  -0.139   0.209
    1UNL    H12   38   0.073  -0.312   0.195
    1UNL    H13   39  -0.043  -0.207   0.133
    1UNL    H14   40   0.350  -0.263   0.040
    1UNL    H15   41   0.309  -0.176  -0.102
    1UNL    H16   42   0.250   0.086  -0.101
    1UNL    H17   43   0.318   0.307   0.250
    1UNL    H18   44   0.259   0.148   0.277
    1UNL    H19   45   0.411   0.162   0.220
    1UNL    H20   46   0.324   0.373  -0.026
    1UNL    H21   47   0.185   0.392   0.091
    1UNL    H22   48   0.158   0.318  -0.069
    1UNL    H23   49  -0.412  -0.135  -0.147
    1UNL    H24   50  -0.287  -0.018  -0.358
    1UNL    H25   51  -0.297   0.030   0.004
    1UNL    H26   52  -0.471   0.139  -0.187
    1UNL    H27   53  -0.199   0.237  -0.091
    1UNL    H28   54  -0.331   0.225  -0.282
   0.00000   0.00000   0.00000   0.00000   0.00000   0.00000   0.00000   0.00000   0.00000
Generated with MDTraj, t= 81.0
 54
    1UNL     C1    1  -0.225   0.091   0.284
    1UNL     C2    2  -0.140   0.123   0.168
    1UNL     O1    3  -0.110   0.240   0.141
    1UNL     O2    4  -0.100   0.014   0.096
    1UNL     C3    5  -0.010   0.056  -0.007
    1UNL     C4    6  -0.080   0.076  -0.150
    1UNL     O3    7  -0.083  -0.049  -0.212
    1UNL     C5    8  -0.187  -0.147  -0.176
    1UNL     O4    9  -0.165  -0.227  -0.065
    1UNL     C6   10  -0.057  -0.320  -0.090
    1UNL     C7   11   0.082  -0.261  -0.104
    1UNL     C8   12   0.146  -0.231   0.005
    1UNL     C9   13   0.080  -0.233   0.146
    1UNL    C10   14   0.288  -0.179   0.004
    1UNL    C11   15   0.316  -0.057   0.082
    1UNL     O5   16   0.344  -0.070   0.201
    1UNL    C12   17   0.305   0.067   0.009
    1UNL    C13   18   0.307   0.186   0.068
    1UNL    C14   19   0.319   0.212   0.220
    1UNL    C15   20   0.297   0.318  -0.008
    1UNL    C16   21  -0.330  -0.089  -0.180
    1UNL     O6   22  -0.381  -0.083  -0.308
    1UNL    C17   23  -0.333   0.049  -0.100
    1UNL     O7   24  -0.456   0.116  -0.110
    1UNL    C18   25  -0.222   0.143  -0.152
    1UNL     O8   26  -0.247   0.197  -0.277
    1UNL     H1   27  -0.283  -0.002   0.261
    1UNL     H2   28  -0.301   0.170   0.318
    1UNL     H3   29  -0.178   0.061   0.384
    1UNL     H4   30   0.040   0.146   0.037
    1UNL     H5   31   0.063  -0.019  -0.022
    1UNL     H6   32  -0.028   0.151  -0.209
    1UNL     H7   33  -0.182  -0.222  -0.260
    1UNL     H8   34  -0.077  -0.383  -0.179
    1UNL     H9   35  -0.059  -0.402  -0.012
    1UNL    H10   36   0.125  -0.260  -0.198
    1UNL    H11   37   0.105  -0.141   0.207
    1UNL    H12   38   0.105  -0.316   0.204
    1UNL    H13   39  -0.028  -0.238   0.141
    1UNL    H14   40   0.348  -0.249   0.057
    1UNL    H15   41   0.336  -0.174  -0.096
    1UNL    H16   42   0.277   0.066  -0.090
    1UNL    H17   43   0.315   0.313   0.246
    1UNL    H18   44   0.243   0.162   0.276
    1UNL    H19   45   0.407   0.165   0.263
    1UNL    H20   46   0.395   0.335  -0.056
    1UNL    H21   47   0.277   0.400   0.069
    1UNL    H22   48   0.217   0.332  -0.078
    1UNL    H23   49  -0.400  -0.157  -0.128
    1UNL    H24   50  -0.333  -0.013  -0.344
    1UNL    H25   51  -0.316   0.026  -0.002
    1UNL    H26   52  -0.522   0.069  -0.161
    1UNL    H27   53  -0.226   0.234  -0.092
    1UNL    H28   54  -0.325   0.249  -0.271
   0.00000   0.00000   0.00000   0.00000   0.00000   0.00000   0.00000   0.00000   0.00000
Generated with MDTraj, t= 82.0
 54
    1UNL     C1    1  -0.247   0.080   0.265
    1UNL     C2    2  -0.164   0.124   0.153
    1UNL     O1    3  -0.166   0.246   0.126
    1UNL     O2    4  -0.096   0.027   0.084
    1UNL     C3    5  -0.018   0.080  -0.019
    1UNL     C4    6  -0.093   0.081  -0.155
    1UNL     O3    7  -0.090  -0.049  -0.219
    1UNL     C5    8  -0.184  -0.144  -0.178
    1UNL     O4    9  -0.164  -0.221  -0.062
    1UNL     C6   10  -0.059  -0.311  -0.072
    1UNL     C7   11   0.083  -0.260  -0.082
    1UNL     C8   12   0.165  -0.246   0.020
    1UNL     C9   13   0.122  -0.249   0.165
    1UNL    C10   14   0.306  -0.185   0.003
    1UNL    C11   15   0.335  -0.061   0.083
    1UNL     O5   16   0.330  -0.080   0.203
    1UNL    C12   17   0.355   0.066   0.014
    1UNL    C13   18   0.347   0.187   0.068
    1UNL    C14   19   0.295   0.195   0.212
    1UNL    C15   20   0.363   0.309  -0.018
    1UNL    C16   21  -0.329  -0.086  -0.186
    1UNL     O6   22  -0.371  -0.054  -0.315
    1UNL    C17   23  -0.343   0.044  -0.093
    1UNL     O7   24  -0.479   0.095  -0.101
    1UNL    C18   25  -0.231   0.148  -0.139
    1UNL     O8   26  -0.283   0.204  -0.259
    1UNL     H1   27  -0.348   0.056   0.219
    1UNL     H2   28  -0.255   0.154   0.351
    1UNL     H3   29  -0.212  -0.021   0.308
    1UNL     H4   30   0.013   0.182   0.008
    1UNL     H5   31   0.068   0.020  -0.029
    1UNL     H6   32  -0.038   0.149  -0.218
    1UNL     H7   33  -0.183  -0.219  -0.258
    1UNL     H8   34  -0.072  -0.386  -0.152
    1UNL     H9   35  -0.061  -0.376   0.019
    1UNL    H10   36   0.111  -0.228  -0.180
    1UNL    H11   37   0.204  -0.299   0.224
    1UNL    H12   38   0.028  -0.301   0.175
    1UNL    H13   39   0.107  -0.153   0.206
    1UNL    H14   40   0.384  -0.256   0.008
    1UNL    H15   41   0.310  -0.152  -0.104
    1UNL    H16   42   0.361   0.067  -0.097
    1UNL    H17   43   0.311   0.301   0.243
    1UNL    H18   44   0.193   0.177   0.217
    1UNL    H19   45   0.338   0.125   0.279
    1UNL    H20   46   0.465   0.302  -0.068
    1UNL    H21   47   0.346   0.406   0.033
    1UNL    H22   48   0.292   0.315  -0.098
    1UNL    H23   49  -0.401  -0.167  -0.160
    1UNL    H24   50  -0.320   0.026  -0.358
    1UNL    H25   51  -0.315   0.018   0.002
    1UNL    H26   52  -0.538   0.029  -0.143
    1UNL    H27   53  -0.222   0.226  -0.067
    1UNL    H28   54  -0.380   0.202  -0.239
   0.00000   0.00000   0.00000   0.00000   0.00000   0.00000   0.00000   0.00000   0.00000
Generated with MDTraj, t= 83.0
 54
    1UNL     C1    1  -0.252   0.074   0.282
    1UNL     C2    2  -0.176   0.119   0.161
    1UNL     O1    3  -0.184   0.237   0.127
    1UNL     O2    4  -0.102   0.031   0.092
    1UNL     C3    5  -0.027   0.077  -0.020
    1UNL     C4    6  -0.101   0.091  -0.153
    1UNL     O3    7  -0.088  -0.040  -0.226
    1UNL     C5    8  -0.181  -0.138  -0.191
    1UNL     O4    9  -0.156  -0.187  -0.058
    1UNL     C6   10  -0.067  -0.288  -0.063
    1UNL     C7   11   0.074  -0.256  -0.074
    1UNL     C8   12   0.157  -0.236   0.028
    1UNL     C9   13   0.116  -0.265   0.171
    1UNL    C10   14   0.297  -0.179  -0.002
    1UNL    C11   15   0.352  -0.063   0.084
    1UNL     O5   16   0.343  -0.074   0.205
    1UNL    C12   17   0.390   0.066   0.013
    1UNL    C13   18   0.366   0.185   0.064
    1UNL    C14   19   0.272   0.195   0.177
    1UNL    C15   20   0.425   0.303  -0.006
    1UNL    C16   21  -0.328  -0.088  -0.195
    1UNL     O6   22  -0.361  -0.051  -0.319
    1UNL    C17   23  -0.348   0.029  -0.098
    1UNL     O7   24  -0.488   0.072  -0.099
    1UNL    C18   25  -0.247   0.137  -0.142
    1UNL     O8   26  -0.296   0.191  -0.264
    1UNL     H1   27  -0.333   0.154   0.296
    1UNL     H2   28  -0.183   0.058   0.369
    1UNL     H3   29  -0.308  -0.020   0.248
    1UNL     H4   30   0.002   0.179   0.007
    1UNL     H5   31   0.061   0.023  -0.036
    1UNL     H6   32  -0.036   0.155  -0.212
    1UNL     H7   33  -0.177  -0.226  -0.253
    1UNL     H8   34  -0.091  -0.362  -0.139
    1UNL     H9   35  -0.080  -0.350   0.029
    1UNL    H10   36   0.107  -0.225  -0.177
    1UNL    H11   37   0.115  -0.374   0.185
    1UNL    H12   38   0.013  -0.220   0.184
    1UNL    H13   39   0.175  -0.224   0.248
    1UNL    H14   40   0.365  -0.260  -0.022
    1UNL    H15   41   0.285  -0.145  -0.108
    1UNL    H16   42   0.430   0.067  -0.088
    1UNL    H17   43   0.311   0.269   0.252
    1UNL    H18   44   0.177   0.226   0.147
    1UNL    H19   45   0.249   0.103   0.223
    1UNL    H20   46   0.533   0.279  -0.035
    1UNL    H21   47   0.414   0.395   0.051
    1UNL    H22   48   0.372   0.323  -0.099
    1UNL    H23   49  -0.403  -0.161  -0.159
    1UNL    H24   50  -0.299   0.023  -0.356
    1UNL    H25   51  -0.325  -0.004  -0.002
    1UNL    H26   52  -0.552  -0.007  -0.098
    1UNL    H27   53  -0.247   0.215  -0.069
    1UNL    H28   54  -0.388   0.230  -0.244
   0.00000   0.00000   0.00000   0.00000   0.00000   0.00000   0.00000   0.00000   0.00000
Generated with MDTraj, t= 84.0
 54
    1UNL     C1    1  -0.251   0.065   0.289
    1UNL     C2    2  -0.167   0.118   0.175
    1UNL     O1    3  -0.171   0.239   0.150
    1UNL     O2    4  -0.103   0.026   0.097
    1UNL     C3    5  -0.045   0.089  -0.015
    1UNL     C4    6  -0.117   0.083  -0.150
    1UNL     O3    7  -0.095  -0.053  -0.211
    1UNL     C5    8  -0.189  -0.151  -0.179
    1UNL     O4    9  -0.163  -0.216  -0.056
    1UNL     C6   10  -0.054  -0.303  -0.073
    1UNL     C7   11   0.080  -0.240  -0.084
    1UNL     C8   12   0.160  -0.218   0.021
    1UNL     C9   13   0.119  -0.230   0.171
    1UNL    C10   14   0.298  -0.164  -0.011
    1UNL    C11   15   0.348  -0.063   0.085
    1UNL     O5   16   0.334  -0.064   0.203
    1UNL    C12   17   0.415   0.052   0.026
    1UNL    C13   18   0.378   0.174   0.058
    1UNL    C14   19   0.277   0.210   0.169
    1UNL    C15   20   0.455   0.285  -0.001
    1UNL    C16   21  -0.336  -0.101  -0.194
    1UNL     O6   22  -0.363  -0.061  -0.327
    1UNL    C17   23  -0.366   0.029  -0.108
    1UNL     O7   24  -0.501   0.072  -0.137
    1UNL    C18   25  -0.260   0.136  -0.141
    1UNL     O8   26  -0.301   0.207  -0.255
    1UNL     H1   27  -0.259   0.150   0.367
    1UNL     H2   28  -0.207  -0.032   0.330
    1UNL     H3   29  -0.356   0.055   0.245
    1UNL     H4   30  -0.032   0.197   0.007
    1UNL     H5   31   0.053   0.051  -0.023
    1UNL     H6   32  -0.056   0.145  -0.221
    1UNL     H7   33  -0.178  -0.236  -0.244
    1UNL     H8   34  -0.067  -0.377  -0.151
    1UNL     H9   35  -0.051  -0.375   0.011
    1UNL    H10   36   0.110  -0.214  -0.177
    1UNL    H11   37   0.027  -0.278   0.178
    1UNL    H12   38   0.106  -0.123   0.209
    1UNL    H13   39   0.181  -0.277   0.245
    1UNL    H14   40   0.369  -0.247  -0.022
    1UNL    H15   41   0.301  -0.127  -0.115
    1UNL    H16   42   0.476   0.042  -0.060
    1UNL    H17   43   0.328   0.225   0.264
    1UNL    H18   44   0.218   0.300   0.154
    1UNL    H19   45   0.197   0.139   0.180
    1UNL    H20   46   0.565   0.269   0.004
    1UNL    H21   47   0.419   0.373   0.048
    1UNL    H22   48   0.429   0.301  -0.111
    1UNL    H23   49  -0.410  -0.171  -0.155
    1UNL    H24   50  -0.345   0.029  -0.346
    1UNL    H25   51  -0.367   0.004  -0.008
    1UNL    H26   52  -0.501   0.115  -0.227
    1UNL    H27   53  -0.255   0.212  -0.065
    1UNL    H28   54  -0.303   0.300  -0.245
   0.00000   0.00000   0.00000   0.00000   0.00000   0.00000   0.00000   0.00000   0.00000
Generated with MDTraj, t= 85.0
 54
    1UNL     C1    1  -0.251   0.065   0.296
    1UNL     C2    2  -0.173   0.104   0.177
    1UNL     O1    3  -0.164   0.220   0.148
    1UNL     O2    4  -0.122   0.003   0.103
    1UNL     C3    5  -0.044   0.066  -0.000
    1UNL     C4    6  -0.105   0.079  -0.146
    1UNL     O3    7  -0.090  -0.042  -0.216
    1UNL     C5    8  -0.183  -0.144  -0.188
    1UNL     O4    9  -0.161  -0.209  -0.064
    1UNL     C6   10  -0.060  -0.313  -0.072
    1UNL     C7   11   0.075  -0.261  -0.081
    1UNL     C8   12   0.147  -0.205   0.017
    1UNL     C9   13   0.082  -0.191   0.155
    1UNL    C10   14   0.286  -0.159  -0.008
    1UNL    C11   15   0.333  -0.047   0.077
    1UNL     O5   16   0.322  -0.049   0.195
    1UNL    C12   17   0.401   0.060   0.020
    1UNL    C13   18   0.385   0.184   0.059
    1UNL    C14   19   0.305   0.233   0.182
    1UNL    C15   20   0.476   0.284   0.001
    1UNL    C16   21  -0.331  -0.106  -0.197
    1UNL     O6   22  -0.377  -0.058  -0.327
    1UNL    C17   23  -0.353   0.023  -0.106
    1UNL     O7   24  -0.483   0.072  -0.109
    1UNL    C18   25  -0.252   0.134  -0.145
    1UNL     O8   26  -0.293   0.186  -0.271
    1UNL     H1   27  -0.187   0.052   0.390
    1UNL     H2   28  -0.311  -0.033   0.285
    1UNL     H3   29  -0.320   0.151   0.321
    1UNL     H4   30  -0.005   0.164   0.040
    1UNL     H5   31   0.047   0.012  -0.007
    1UNL     H6   32  -0.041   0.147  -0.210
    1UNL     H7   33  -0.165  -0.223  -0.261
    1UNL     H8   34  -0.074  -0.376  -0.159
    1UNL     H9   35  -0.071  -0.387   0.007
    1UNL    H10   36   0.120  -0.263  -0.186
    1UNL    H11   37  -0.004  -0.134   0.140
    1UNL    H12   38   0.154  -0.146   0.224
    1UNL    H13   39   0.045  -0.283   0.200
    1UNL    H14   40   0.360  -0.243   0.006
    1UNL    H15   41   0.310  -0.143  -0.114
    1UNL    H16   42   0.471   0.046  -0.067
    1UNL    H17   43   0.335   0.179   0.265
    1UNL    H18   44   0.317   0.339   0.208
    1UNL    H19   45   0.198   0.223   0.155
    1UNL    H20   46   0.576   0.279   0.042
    1UNL    H21   47   0.429   0.382   0.014
    1UNL    H22   48   0.490   0.274  -0.112
    1UNL    H23   49  -0.396  -0.190  -0.172
    1UNL    H24   50  -0.362   0.043  -0.350
    1UNL    H25   51  -0.334  -0.018  -0.013
    1UNL    H26   52  -0.494   0.131  -0.183
    1UNL    H27   53  -0.254   0.222  -0.078
    1UNL    H28   54  -0.275   0.280  -0.286
   0.00000   0.00000   0.00000   0.00000   0.00000   0.00000   0.00000   0.00000   0.00000
Generated with MDTraj, t= 86.0
 54
    1UNL     C1    1  -0.270   0.056   0.269
    1UNL     C2    2  -0.177   0.115   0.167
    1UNL     O1    3  -0.166   0.232   0.149
    1UNL     O2    4  -0.117   0.016   0.090
    1UNL     C3    5  -0.033   0.073  -0.009
    1UNL     C4    6  -0.098   0.078  -0.147
    1UNL     O3    7  -0.086  -0.048  -0.207
    1UNL     C5    8  -0.192  -0.158  -0.182
    1UNL     O4    9  -0.159  -0.229  -0.063
    1UNL     C6   10  -0.055  -0.325  -0.092
    1UNL     C7   11   0.080  -0.272  -0.088
    1UNL     C8   12   0.140  -0.216   0.019
    1UNL     C9   13   0.087  -0.241   0.152
    1UNL    C10   14   0.279  -0.164   0.002
    1UNL    C11   15   0.312  -0.035   0.074
    1UNL     O5   16   0.272  -0.027   0.188
    1UNL    C12   17   0.386   0.078   0.017
    1UNL    C13   18   0.403   0.200   0.069
    1UNL    C14   19   0.355   0.238   0.203
    1UNL    C15   20   0.470   0.299  -0.016
    1UNL    C16   21  -0.336  -0.099  -0.186
    1UNL     O6   22  -0.378  -0.058  -0.318
    1UNL    C17   23  -0.343   0.029  -0.097
    1UNL     O7   24  -0.474   0.073  -0.085
    1UNL    C18   25  -0.245   0.135  -0.143
    1UNL     O8   26  -0.286   0.189  -0.272
    1UNL     H1   27  -0.246  -0.049   0.302
    1UNL     H2   28  -0.381   0.045   0.239
    1UNL     H3   29  -0.267   0.115   0.366
    1UNL     H4   30   0.009   0.170   0.035
    1UNL     H5   31   0.053   0.011  -0.009
    1UNL     H6   32  -0.038   0.144  -0.214
    1UNL     H7   33  -0.190  -0.234  -0.263
    1UNL     H8   34  -0.072  -0.380  -0.184
    1UNL     H9   35  -0.065  -0.406  -0.020
    1UNL    H10   36   0.129  -0.260  -0.181
    1UNL    H11   37   0.006  -0.168   0.166
    1UNL    H12   38   0.158  -0.235   0.227
    1UNL    H13   39   0.033  -0.337   0.161
    1UNL    H14   40   0.354  -0.244   0.032
    1UNL    H15   41   0.313  -0.160  -0.101
    1UNL    H16   42   0.435   0.059  -0.071
    1UNL    H17   43   0.335   0.154   0.262
    1UNL    H18   44   0.419   0.300   0.266
    1UNL    H19   45   0.262   0.296   0.183
    1UNL    H20   46   0.573   0.313   0.012
    1UNL    H21   47   0.412   0.395  -0.022
    1UNL    H22   48   0.472   0.263  -0.122
    1UNL    H23   49  -0.419  -0.157  -0.145
    1UNL    H24   50  -0.351   0.029  -0.330
    1UNL    H25   51  -0.318  -0.014  -0.003
    1UNL    H26   52  -0.498   0.146  -0.148
    1UNL    H27   53  -0.250   0.224  -0.073
    1UNL    H28   54  -0.215   0.245  -0.320
   0.00000   0.00000   0.00000   0.00000   0.00000   0.00000   0.00000   0.00000   0.00000
Generated with MDTraj, t= 87.0
 54
    1UNL     C1    1  -0.261   0.065   0.260
    1UNL     C2    2  -0.173   0.118   0.154
    1UNL     O1    3  -0.167   0.232   0.125
    1UNL     O2    4  -0.111   0.010   0.099
    1UNL     C3    5  -0.026   0.056  -0.002
    1UNL     C4    6  -0.091   0.071  -0.138
    1UNL     O3    7  -0.093  -0.050  -0.215
    1UNL     C5    8  -0.185  -0.145  -0.176
    1UNL     O4    9  -0.146  -0.229  -0.063
    1UNL     C6   10  -0.040  -0.311  -0.107
    1UNL     C7   11   0.085  -0.249  -0.094
    1UNL     C8   12   0.146  -0.222   0.024
    1UNL     C9   13   0.093  -0.271   0.153
    1UNL    C10   14   0.285  -0.167   0.024
    1UNL    C11   15   0.279  -0.027   0.074
    1UNL     O5   16   0.231  -0.012   0.185
    1UNL    C12   17   0.340   0.090  -0.001
    1UNL    C13   18   0.391   0.200   0.060
    1UNL    C14   19   0.383   0.217   0.209
    1UNL    C15   20   0.464   0.303  -0.024
    1UNL    C16   21  -0.332  -0.097  -0.170
    1UNL     O6   22  -0.390  -0.067  -0.298
    1UNL    C17   23  -0.346   0.030  -0.087
    1UNL     O7   24  -0.474   0.077  -0.110
    1UNL    C18   25  -0.233   0.137  -0.125
    1UNL     O8   26  -0.269   0.192  -0.257
    1UNL     H1   27  -0.313  -0.033   0.232
    1UNL     H2   28  -0.343   0.140   0.285
    1UNL     H3   29  -0.193   0.047   0.351
    1UNL     H4   30   0.026   0.150   0.039
    1UNL     H5   31   0.050  -0.016   0.011
    1UNL     H6   32  -0.022   0.133  -0.197
    1UNL     H7   33  -0.190  -0.214  -0.265
    1UNL     H8   34  -0.053  -0.344  -0.210
    1UNL     H9   35  -0.043  -0.404  -0.052
    1UNL    H10   36   0.130  -0.214  -0.183
    1UNL    H11   37  -0.013  -0.304   0.137
    1UNL    H12   38   0.096  -0.198   0.225
    1UNL    H13   39   0.147  -0.357   0.192
    1UNL    H14   40   0.359  -0.237   0.075
    1UNL    H15   41   0.330  -0.170  -0.074
    1UNL    H16   42   0.344   0.082  -0.113
    1UNL    H17   43   0.373   0.119   0.266
    1UNL    H18   44   0.463   0.267   0.257
    1UNL    H19   45   0.294   0.276   0.226
    1UNL    H20   46   0.572   0.298  -0.012
    1UNL    H21   47   0.434   0.412  -0.003
    1UNL    H22   48   0.438   0.284  -0.128
    1UNL    H23   49  -0.400  -0.169  -0.121
    1UNL    H24   50  -0.333   0.006  -0.343
    1UNL    H25   51  -0.345  -0.003   0.019
    1UNL    H26   52  -0.478   0.125  -0.196
    1UNL    H27   53  -0.230   0.217  -0.044
    1UNL    H28   54  -0.188   0.235  -0.306
   0.00000   0.00000   0.00000   0.00000   0.00000   0.00000   0.00000   0.00000   0.00000
Generated with MDTraj, t= 88.0
 54
    1UNL     C1    1  -0.243   0.083   0.309
    1UNL     C2    2  -0.176   0.121   0.175
    1UNL     O1    3  -0.149   0.235   0.141
    1UNL     O2    4  -0.150   0.006   0.101
    1UNL     C3    5  -0.046   0.026   0.007
    1UNL     C4    6  -0.090   0.068  -0.141
    1UNL     O3    7  -0.089  -0.047  -0.225
    1UNL     C5    8  -0.179  -0.149  -0.199
    1UNL     O4    9  -0.146  -0.233  -0.087
    1UNL     C6   10  -0.031  -0.312  -0.114
    1UNL     C7   11   0.098  -0.257  -0.090
    1UNL     C8   12   0.158  -0.236   0.031
    1UNL     C9   13   0.080  -0.256   0.160
    1UNL    C10   14   0.287  -0.160   0.029
    1UNL    C11   15   0.268  -0.027   0.082
    1UNL     O5   16   0.199  -0.001   0.176
    1UNL    C12   17   0.343   0.075   0.006
    1UNL    C13   18   0.387   0.196   0.055
    1UNL    C14   19   0.404   0.215   0.204
    1UNL    C15   20   0.432   0.312  -0.036
    1UNL    C16   21  -0.331  -0.095  -0.178
    1UNL     O6   22  -0.374  -0.057  -0.311
    1UNL    C17   23  -0.335   0.033  -0.090
    1UNL     O7   24  -0.461   0.085  -0.089
    1UNL    C18   25  -0.232   0.129  -0.146
    1UNL     O8   26  -0.269   0.181  -0.272
    1UNL     H1   27  -0.301  -0.016   0.297
    1UNL     H2   28  -0.313   0.164   0.343
    1UNL     H3   29  -0.154   0.070   0.380
    1UNL     H4   30   0.023   0.095   0.064
    1UNL     H5   31   0.011  -0.063   0.014
    1UNL     H6   32  -0.017   0.134  -0.188
    1UNL     H7   33  -0.179  -0.218  -0.287
    1UNL     H8   34  -0.034  -0.343  -0.221
    1UNL     H9   35  -0.037  -0.402  -0.054
    1UNL    H10   36   0.156  -0.225  -0.183
    1UNL    H11   37  -0.026  -0.237   0.134
    1UNL    H12   38   0.113  -0.185   0.234
    1UNL    H13   39   0.087  -0.351   0.204
    1UNL    H14   40   0.371  -0.215   0.082
    1UNL    H15   41   0.331  -0.155  -0.070
    1UNL    H16   42   0.354   0.054  -0.097
    1UNL    H17   43   0.488   0.146   0.242
    1UNL    H18   44   0.435   0.316   0.222
    1UNL    H19   45   0.309   0.199   0.250
    1UNL    H20   46   0.524   0.299  -0.098
    1UNL    H21   47   0.451   0.408   0.023
    1UNL    H22   48   0.348   0.333  -0.098
    1UNL    H23   49  -0.392  -0.175  -0.132
    1UNL    H24   50  -0.331   0.033  -0.330
    1UNL    H25   51  -0.311   0.008   0.020
    1UNL    H26   52  -0.481   0.128  -0.171
    1UNL    H27   53  -0.236   0.209  -0.066
    1UNL    H28   54  -0.193   0.232  -0.312
   0.00000   0.00000   0.00000   0.00000   0.00000   0.00000   0.00000   0.00000   0.00000
Generated with MDTraj, t= 89.0
 54
    1UNL     C1    1  -0.253   0.114   0.306
    1UNL     C2    2  -0.154   0.122   0.193
    1UNL     O1    3  -0.116   0.233   0.162
    1UNL     O2    4  -0.115   0.010   0.127
    1UNL     C3    5  -0.033   0.036   0.016
    1UNL     C4    6  -0.099   0.068  -0.125
    1UNL     O3    7  -0.079  -0.042  -0.207
    1UNL     C5    8  -0.169  -0.146  -0.194
    1UNL     O4    9  -0.146  -0.241  -0.093
    1UNL     C6   10  -0.034  -0.332  -0.127
    1UNL     C7   11   0.090  -0.260  -0.099
    1UNL     C8   12   0.142  -0.238   0.027
    1UNL     C9   13   0.065  -0.267   0.146
    1UNL    C10   14   0.269  -0.164   0.030
    1UNL    C11   15   0.261  -0.021   0.088
    1UNL     O5   16   0.215  -0.003   0.197
    1UNL    C12   17   0.316   0.083  -0.002
    1UNL    C13   18   0.380   0.195   0.041
    1UNL    C14   19   0.376   0.229   0.182
    1UNL    C15   20   0.436   0.298  -0.048
    1UNL    C16   21  -0.315  -0.096  -0.197
    1UNL     O6   22  -0.351  -0.063  -0.327
    1UNL    C17   23  -0.342   0.022  -0.098
    1UNL     O7   24  -0.472   0.074  -0.116
    1UNL    C18   25  -0.242   0.132  -0.126
    1UNL     O8   26  -0.278   0.190  -0.258
    1UNL     H1   27  -0.301   0.009   0.315
    1UNL     H2   28  -0.337   0.188   0.290
    1UNL     H3   29  -0.193   0.142   0.399
    1UNL     H4   30   0.038   0.113   0.044
    1UNL     H5   31   0.033  -0.052   0.005
    1UNL     H6   32  -0.041   0.149  -0.172
    1UNL     H7   33  -0.151  -0.208  -0.286
    1UNL     H8   34  -0.040  -0.365  -0.234
    1UNL     H9   35  -0.038  -0.418  -0.060
    1UNL    H10   36   0.142  -0.225  -0.179
    1UNL    H11   37  -0.035  -0.232   0.121
    1UNL    H12   38   0.097  -0.217   0.240
    1UNL    H13   39   0.055  -0.368   0.166
    1UNL    H14   40   0.346  -0.228   0.084
    1UNL    H15   41   0.313  -0.165  -0.070
    1UNL    H16   42   0.319   0.058  -0.105
    1UNL    H17   43   0.461   0.293   0.210
    1UNL    H18   44   0.280   0.279   0.210
    1UNL    H19   45   0.375   0.136   0.239
    1UNL    H20   46   0.439   0.283  -0.160
    1UNL    H21   47   0.542   0.323  -0.022
    1UNL    H22   48   0.370   0.380  -0.024
    1UNL    H23   49  -0.382  -0.182  -0.172
    1UNL    H24   50  -0.311   0.016  -0.352
    1UNL    H25   51  -0.337  -0.007   0.015
    1UNL    H26   52  -0.473   0.125  -0.204
    1UNL    H27   53  -0.252   0.206  -0.043
    1UNL    H28   54  -0.264   0.282  -0.262
   0.00000   0.00000   0.00000   0.00000   0.00000   0.00000   0.00000   0.00000   0.00000
Generated with MDTraj, t= 90.0
 54
    1UNL     C1    1  -0.271   0.128   0.301
    1UNL     C2    2  -0.168   0.139   0.196
    1UNL     O1    3  -0.117   0.252   0.180
    1UNL     O2    4  -0.135   0.029   0.121
    1UNL     C3    5  -0.033   0.045   0.024
    1UNL     C4    6  -0.082   0.065  -0.126
    1UNL     O3    7  -0.064  -0.041  -0.217
    1UNL     C5    8  -0.163  -0.147  -0.202
    1UNL     O4    9  -0.142  -0.232  -0.089
    1UNL     C6   10  -0.037  -0.332  -0.111
    1UNL     C7   11   0.094  -0.272  -0.103
    1UNL     C8   12   0.142  -0.231   0.019
    1UNL     C9   13   0.058  -0.255   0.142
    1UNL    C10   14   0.281  -0.189   0.040
    1UNL    C11   15   0.279  -0.042   0.083
    1UNL     O5   16   0.235  -0.023   0.195
    1UNL    C12   17   0.328   0.066  -0.008
    1UNL    C13   18   0.369   0.189   0.032
    1UNL    C14   19   0.327   0.231   0.171
    1UNL    C15   20   0.407   0.291  -0.070
    1UNL    C16   21  -0.308  -0.094  -0.211
    1UNL     O6   22  -0.342  -0.038  -0.335
    1UNL    C17   23  -0.330   0.007  -0.103
    1UNL     O7   24  -0.469   0.037  -0.099
    1UNL    C18   25  -0.228   0.121  -0.122
    1UNL     O8   26  -0.270   0.219  -0.227
    1UNL     H1   27  -0.283   0.025   0.347
    1UNL     H2   28  -0.378   0.152   0.265
    1UNL     H3   29  -0.248   0.201   0.385
    1UNL     H4   30   0.026   0.130   0.045
    1UNL     H5   31   0.035  -0.043   0.027
    1UNL     H6   32  -0.030   0.156  -0.165
    1UNL     H7   33  -0.145  -0.215  -0.285
    1UNL     H8   34  -0.054  -0.381  -0.213
    1UNL     H9   35  -0.058  -0.405  -0.034
    1UNL    H10   36   0.159  -0.279  -0.195
    1UNL    H11   37  -0.044  -0.250   0.116
    1UNL    H12   38   0.078  -0.181   0.224
    1UNL    H13   39   0.081  -0.353   0.180
    1UNL    H14   40   0.330  -0.250   0.121
    1UNL    H15   41   0.345  -0.204  -0.049
    1UNL    H16   42   0.338   0.035  -0.115
    1UNL    H17   43   0.273   0.323   0.167
    1UNL    H18   44   0.260   0.154   0.223
    1UNL    H19   45   0.409   0.241   0.245
    1UNL    H20   46   0.332   0.312  -0.154
    1UNL    H21   47   0.494   0.257  -0.124
    1UNL    H22   48   0.413   0.384  -0.011
    1UNL    H23   49  -0.385  -0.176  -0.201
    1UNL    H24   50  -0.288   0.051  -0.352
    1UNL    H25   51  -0.304  -0.036   0.002
    1UNL    H26   52  -0.489   0.092  -0.177
    1UNL    H27   53  -0.225   0.184  -0.034
    1UNL    H28   54  -0.251   0.306  -0.194
   0.00000   0.00000   0.00000   0.00000   0.00000   0.00000   0.00000   0.00000   0.00000
Generated with MDTraj, t= 91.0
 54
    1UNL     C1    1  -0.280   0.131   0.282
    1UNL     C2    2  -0.171   0.132   0.185
    1UNL     O1    3  -0.121   0.242   0.153
    1UNL     O2    4  -0.132   0.013   0.129
    1UNL     C3    5  -0.038   0.036   0.032
    1UNL     C4    6  -0.089   0.088  -0.110
    1UNL     O3    7  -0.058  -0.017  -0.202
    1UNL     C5    8  -0.151  -0.125  -0.190
    1UNL     O4    9  -0.125  -0.214  -0.084
    1UNL     C6   10  -0.037  -0.319  -0.105
    1UNL     C7   11   0.102  -0.287  -0.100
    1UNL     C8   12   0.154  -0.247   0.020
    1UNL     C9   13   0.072  -0.260   0.144
    1UNL    C10   14   0.296  -0.198   0.038
    1UNL    C11   15   0.295  -0.061   0.094
    1UNL     O5   16   0.265  -0.041   0.211
    1UNL    C12   17   0.333   0.044   0.001
    1UNL    C13   18   0.334   0.179   0.023
    1UNL    C14   19   0.268   0.231   0.139
    1UNL    C15   20   0.371   0.276  -0.089
    1UNL    C16   21  -0.298  -0.076  -0.203
    1UNL     O6   22  -0.331  -0.021  -0.327
    1UNL    C17   23  -0.331   0.022  -0.093
    1UNL     O7   24  -0.472   0.048  -0.101
    1UNL    C18   25  -0.236   0.142  -0.111
    1UNL     O8   26  -0.255   0.213  -0.236
    1UNL     H1   27  -0.285   0.040   0.349
    1UNL     H2   28  -0.383   0.128   0.230
    1UNL     H3   29  -0.280   0.223   0.351
    1UNL     H4   30   0.031   0.105   0.071
    1UNL     H5   31   0.018  -0.056  -0.003
    1UNL     H6   32  -0.032   0.173  -0.156
    1UNL     H7   33  -0.136  -0.188  -0.277
    1UNL     H8   34  -0.074  -0.359  -0.206
    1UNL     H9   35  -0.067  -0.390  -0.028
    1UNL    H10   36   0.159  -0.297  -0.191
    1UNL    H11   37  -0.026  -0.229   0.130
    1UNL    H12   38   0.121  -0.199   0.223
    1UNL    H13   39   0.079  -0.366   0.176
    1UNL    H14   40   0.351  -0.266   0.106
    1UNL    H15   41   0.355  -0.184  -0.058
    1UNL    H16   42   0.385   0.014  -0.083
    1UNL    H17   43   0.166   0.195   0.142
    1UNL    H18   44   0.329   0.203   0.229
    1UNL    H19   45   0.264   0.344   0.132
    1UNL    H20   46   0.309   0.372  -0.098
    1UNL    H21   47   0.360   0.226  -0.182
    1UNL    H22   48   0.470   0.325  -0.071
    1UNL    H23   49  -0.366  -0.164  -0.189
    1UNL    H24   50  -0.265   0.046  -0.351
    1UNL    H25   51  -0.311  -0.027   0.010
    1UNL    H26   52  -0.494   0.018  -0.189
    1UNL    H27   53  -0.254   0.214  -0.034
    1UNL    H28   54  -0.354   0.187  -0.260
   0.00000   0.00000   0.00000   0.00000   0.00000   0.00000   0.00000   0.00000   0.00000
Generated with MDTraj, t= 92.0
 54
    1UNL     C1    1  -0.287   0.119   0.281
    1UNL     C2    2  -0.178   0.132   0.182
    1UNL     O1    3  -0.126   0.239   0.155
    1UNL     O2    4  -0.144   0.018   0.123
    1UNL     C3    5  -0.038   0.038   0.035
    1UNL     C4    6  -0.080   0.084  -0.110
    1UNL     O3    7  -0.064  -0.024  -0.205
    1UNL     C5    8  -0.154  -0.131  -0.197
    1UNL     O4    9  -0.130  -0.225  -0.094
    1UNL     C6   10  -0.020  -0.318  -0.115
    1UNL     C7   11   0.111  -0.261  -0.078
    1UNL     C8   12   0.177  -0.267   0.044
    1UNL     C9   13   0.100  -0.293   0.168
    1UNL    C10   14   0.315  -0.205   0.056
    1UNL    C11   15   0.304  -0.062   0.097
    1UNL     O5   16   0.292  -0.034   0.215
    1UNL    C12   17   0.317   0.036  -0.011
    1UNL    C13   18   0.306   0.169   0.008
    1UNL    C14   19   0.270   0.222   0.137
    1UNL    C15   20   0.315   0.272  -0.095
    1UNL    C16   21  -0.310  -0.080  -0.203
    1UNL     O6   22  -0.351  -0.035  -0.333
    1UNL    C17   23  -0.330   0.035  -0.102
    1UNL     O7   24  -0.460   0.100  -0.113
    1UNL    C18   25  -0.221   0.150  -0.118
    1UNL     O8   26  -0.248   0.233  -0.228
    1UNL     H1   27  -0.289   0.011   0.319
    1UNL     H2   28  -0.385   0.129   0.223
    1UNL     H3   29  -0.279   0.195   0.366
    1UNL     H4   30   0.032   0.112   0.071
    1UNL     H5   31   0.020  -0.058   0.034
    1UNL     H6   32  -0.008   0.161  -0.145
    1UNL     H7   33  -0.140  -0.180  -0.292
    1UNL     H8   34  -0.017  -0.350  -0.225
    1UNL     H9   35  -0.052  -0.402  -0.055
    1UNL    H10   36   0.150  -0.208  -0.161
    1UNL    H11   37  -0.003  -0.281   0.154
    1UNL    H12   38   0.126  -0.230   0.252
    1UNL    H13   39   0.115  -0.399   0.203
    1UNL    H14   40   0.372  -0.259   0.131
    1UNL    H15   41   0.366  -0.200  -0.047
    1UNL    H16   42   0.365  -0.003  -0.107
    1UNL    H17   43   0.302   0.156   0.227
    1UNL    H18   44   0.321   0.318   0.147
    1UNL    H19   45   0.158   0.242   0.154
    1UNL    H20   46   0.328   0.378  -0.060
    1UNL    H21   47   0.224   0.262  -0.150
    1UNL    H22   48   0.406   0.260  -0.160
    1UNL    H23   49  -0.377  -0.164  -0.176
    1UNL    H24   50  -0.276   0.011  -0.379
    1UNL    H25   51  -0.323  -0.011   0.005
    1UNL    H26   52  -0.483   0.096  -0.211
    1UNL    H27   53  -0.217   0.223  -0.038
    1UNL    H28   54  -0.336   0.282  -0.209
   0.00000   0.00000   0.00000   0.00000   0.00000   0.00000   0.00000   0.00000   0.00000
Generated with MDTraj, t= 93.0
 54
    1UNL     C1    1  -0.285   0.111   0.286
    1UNL     C2    2  -0.175   0.128   0.186
    1UNL     O1    3  -0.108   0.228   0.174
    1UNL     O2    4  -0.158   0.012   0.110
    1UNL     C3    5  -0.044   0.029   0.038
    1UNL     C4    6  -0.068   0.077  -0.106
    1UNL     O3    7  -0.056  -0.035  -0.198
    1UNL     C5    8  -0.160  -0.135  -0.188
    1UNL     O4    9  -0.148  -0.210  -0.074
    1UNL     C6   10  -0.031  -0.304  -0.099
    1UNL     C7   11   0.106  -0.244  -0.085
    1UNL     C8   12   0.165  -0.250   0.037
    1UNL     C9   13   0.102  -0.332   0.141
    1UNL    C10   14   0.301  -0.201   0.056
    1UNL    C11   15   0.301  -0.052   0.101
    1UNL     O5   16   0.314  -0.027   0.217
    1UNL    C12   17   0.281   0.045  -0.007
    1UNL    C13   18   0.270   0.180   0.014
    1UNL    C14   19   0.294   0.243   0.150
    1UNL    C15   20   0.257   0.273  -0.110
    1UNL    C16   21  -0.305  -0.070  -0.201
    1UNL     O6   22  -0.330  -0.036  -0.335
    1UNL    C17   23  -0.316   0.044  -0.101
    1UNL     O7   24  -0.439   0.118  -0.118
    1UNL    C18   25  -0.205   0.145  -0.130
    1UNL     O8   26  -0.220   0.193  -0.254
    1UNL     H1   27  -0.322   0.002   0.272
    1UNL     H2   28  -0.371   0.175   0.247
    1UNL     H3   29  -0.249   0.134   0.392
    1UNL     H4   30   0.024   0.088   0.099
    1UNL     H5   31   0.010  -0.069   0.039
    1UNL     H6   32   0.014   0.143  -0.133
    1UNL     H7   33  -0.158  -0.198  -0.279
    1UNL     H8   34  -0.044  -0.341  -0.206
    1UNL     H9   35  -0.041  -0.393  -0.041
    1UNL    H10   36   0.152  -0.204  -0.182
    1UNL    H11   37   0.003  -0.288   0.160
    1UNL    H12   38   0.155  -0.341   0.232
    1UNL    H13   39   0.085  -0.433   0.097
    1UNL    H14   40   0.338  -0.258   0.142
    1UNL    H15   41   0.365  -0.215  -0.039
    1UNL    H16   42   0.295   0.011  -0.105
    1UNL    H17   43   0.391   0.306   0.147
    1UNL    H18   44   0.211   0.306   0.182
    1UNL    H19   45   0.321   0.166   0.232
    1UNL    H20   46   0.340   0.342  -0.122
    1UNL    H21   47   0.165   0.328  -0.091
    1UNL    H22   48   0.243   0.215  -0.207
    1UNL    H23   49  -0.376  -0.147  -0.168
    1UNL    H24   50  -0.266   0.042  -0.349
    1UNL    H25   51  -0.325  -0.001   0.007
    1UNL    H26   52  -0.453   0.160  -0.204
    1UNL    H27   53  -0.211   0.230  -0.060
    1UNL    H28   54  -0.302   0.241  -0.262
   0.00000   0.00000   0.00000   0.00000   0.00000   0.00000   0.00000   0.00000   0.00000
Generated with MDTraj, t= 94.0
 54
    1UNL     C1    1  -0.282   0.127   0.283
    1UNL     C2    2  -0.168   0.132   0.188
    1UNL     O1    3  -0.098   0.225   0.184
    1UNL     O2    4  -0.156   0.019   0.116
    1UNL     C3    5  -0.036   0.014   0.046
    1UNL     C4    6  -0.056   0.058  -0.097
    1UNL     O3    7  -0.052  -0.047  -0.194
    1UNL     C5    8  -0.157  -0.144  -0.187
    1UNL     O4    9  -0.152  -0.237  -0.085
    1UNL     C6   10  -0.042  -0.332  -0.090
    1UNL     C7   11   0.090  -0.273  -0.076
    1UNL     C8   12   0.165  -0.260   0.037
    1UNL     C9   13   0.130  -0.319   0.164
    1UNL    C10   14   0.294  -0.193   0.035
    1UNL    C11   15   0.282  -0.047   0.079
    1UNL     O5   16   0.302  -0.024   0.194
    1UNL    C12   17   0.257   0.062  -0.016
    1UNL    C13   18   0.248   0.194   0.016
    1UNL    C14   19   0.295   0.231   0.153
    1UNL    C15   20   0.222   0.296  -0.095
    1UNL    C16   21  -0.302  -0.071  -0.208
    1UNL     O6   22  -0.331  -0.023  -0.339
    1UNL    C17   23  -0.311   0.049  -0.106
    1UNL     O7   24  -0.425   0.134  -0.146
    1UNL    C18   25  -0.187   0.144  -0.116
    1UNL     O8   26  -0.193   0.207  -0.235
    1UNL     H1   27  -0.358   0.051   0.243
    1UNL     H2   28  -0.342   0.225   0.276
    1UNL     H3   29  -0.251   0.101   0.389
    1UNL     H4   30   0.042   0.064   0.101
    1UNL     H5   31  -0.006  -0.091   0.057
    1UNL     H6   32   0.029   0.118  -0.128
    1UNL     H7   33  -0.149  -0.197  -0.286
    1UNL     H8   34  -0.050  -0.386  -0.188
    1UNL     H9   35  -0.071  -0.405  -0.019
    1UNL    H10   36   0.123  -0.237  -0.165
    1UNL    H11   37   0.017  -0.319   0.174
    1UNL    H12   38   0.174  -0.263   0.241
    1UNL    H13   39   0.168  -0.420   0.161
    1UNL    H14   40   0.367  -0.241   0.104
    1UNL    H15   41   0.325  -0.183  -0.074
    1UNL    H16   42   0.247   0.035  -0.122
    1UNL    H17   43   0.272   0.339   0.179
    1UNL    H18   44   0.238   0.163   0.226
    1UNL    H19   45   0.407   0.219   0.155
    1UNL    H20   46   0.315   0.338  -0.125
    1UNL    H21   47   0.157   0.380  -0.060
    1UNL    H22   48   0.166   0.249  -0.182
    1UNL    H23   49  -0.368  -0.154  -0.185
    1UNL    H24   50  -0.267   0.044  -0.354
    1UNL    H25   51  -0.335   0.002  -0.001
    1UNL    H26   52  -0.446   0.137  -0.242
    1UNL    H27   53  -0.195   0.221  -0.034
    1UNL    H28   54  -0.277   0.249  -0.231
   0.00000   0.00000   0.00000   0.00000   0.00000   0.00000   0.00000   0.00000   0.00000
Generated with MDTraj, t= 95.0
 54
    1UNL     C1    1  -0.276   0.172   0.287
    1UNL     C2    2  -0.166   0.135   0.193
    1UNL     O1    3  -0.080   0.211   0.169
    1UNL     O2    4  -0.169   0.003   0.142
    1UNL     C3    5  -0.056  -0.015   0.066
    1UNL     C4    6  -0.059   0.049  -0.073
    1UNL     O3    7  -0.044  -0.056  -0.171
    1UNL     C5    8  -0.156  -0.153  -0.176
    1UNL     O4    9  -0.165  -0.240  -0.066
    1UNL     C6   10  -0.062  -0.336  -0.062
    1UNL     C7   11   0.071  -0.288  -0.081
    1UNL     C8   12   0.162  -0.256   0.010
    1UNL     C9   13   0.131  -0.283   0.146
    1UNL    C10   14   0.278  -0.170  -0.030
    1UNL    C11   15   0.277  -0.043   0.051
    1UNL     O5   16   0.279  -0.037   0.172
    1UNL    C12   17   0.283   0.078  -0.027
    1UNL    C13   18   0.265   0.201   0.018
    1UNL    C14   19   0.249   0.234   0.160
    1UNL    C15   20   0.238   0.306  -0.074
    1UNL    C16   21  -0.287  -0.070  -0.215
    1UNL     O6   22  -0.275  -0.010  -0.339
    1UNL    C17   23  -0.315   0.041  -0.113
    1UNL     O7   24  -0.433   0.113  -0.154
    1UNL    C18   25  -0.194   0.133  -0.107
    1UNL     O8   26  -0.165   0.198  -0.229
    1UNL     H1   27  -0.373   0.124   0.256
    1UNL     H2   28  -0.305   0.283   0.277
    1UNL     H3   29  -0.258   0.150   0.398
    1UNL     H4   30   0.026   0.019   0.129
    1UNL     H5   31  -0.040  -0.120   0.054
    1UNL     H6   32   0.022   0.119  -0.086
    1UNL     H7   33  -0.133  -0.207  -0.271
    1UNL     H8   34  -0.092  -0.398  -0.150
    1UNL     H9   35  -0.079  -0.397   0.022
    1UNL    H10   36   0.092  -0.265  -0.190
    1UNL    H11   37   0.024  -0.255   0.172
    1UNL    H12   38   0.198  -0.230   0.211
    1UNL    H13   39   0.137  -0.387   0.159
    1UNL    H14   40   0.368  -0.226   0.003
    1UNL    H15   41   0.280  -0.136  -0.137
    1UNL    H16   42   0.293   0.062  -0.135
    1UNL    H17   43   0.138   0.238   0.183
    1UNL    H18   44   0.282   0.144   0.230
    1UNL    H19   45   0.292   0.330   0.193
    1UNL    H20   46   0.240   0.399  -0.021
    1UNL    H21   47   0.135   0.302  -0.124
    1UNL    H22   48   0.302   0.302  -0.163
    1UNL    H23   49  -0.372  -0.136  -0.228
    1UNL    H24   50  -0.180   0.030  -0.356
    1UNL    H25   51  -0.332  -0.001  -0.004
    1UNL    H26   52  -0.443   0.122  -0.252
    1UNL    H27   53  -0.187   0.222  -0.037
    1UNL    H28   54  -0.236   0.267  -0.253
   0.00000   0.00000   0.00000   0.00000   0.00000   0.00000   0.00000   0.00000   0.00000
Generated with MDTraj, t= 96.0
 54
    1UNL     C1    1  -0.264   0.230   0.299
    1UNL     C2    2  -0.165   0.159   0.212
    1UNL     O1    3  -0.067   0.217   0.181
    1UNL     O2    4  -0.191   0.029   0.172
    1UNL     C3    5  -0.092  -0.030   0.091
    1UNL     C4    6  -0.072   0.023  -0.057
    1UNL     O3    7  -0.040  -0.074  -0.159
    1UNL     C5    8  -0.153  -0.160  -0.189
    1UNL     O4    9  -0.173  -0.255  -0.079
    1UNL     C6   10  -0.061  -0.347  -0.071
    1UNL     C7   11   0.067  -0.283  -0.092
    1UNL     C8   12   0.160  -0.252   0.001
    1UNL     C9   13   0.154  -0.294   0.143
    1UNL    C10   14   0.265  -0.163  -0.045
    1UNL    C11   15   0.265  -0.037   0.028
    1UNL     O5   16   0.285  -0.029   0.149
    1UNL    C12   17   0.275   0.088  -0.048
    1UNL    C13   18   0.251   0.202   0.014
    1UNL    C14   19   0.193   0.211   0.151
    1UNL    C15   20   0.282   0.334  -0.050
    1UNL    C16   21  -0.282  -0.080  -0.231
    1UNL     O6   22  -0.265  -0.026  -0.350
    1UNL    C17   23  -0.313   0.029  -0.120
    1UNL     O7   24  -0.420   0.104  -0.170
    1UNL    C18   25  -0.185   0.118  -0.098
    1UNL     O8   26  -0.142   0.209  -0.199
    1UNL     H1   27  -0.366   0.181   0.289
    1UNL     H2   28  -0.286   0.335   0.258
    1UNL     H3   29  -0.234   0.240   0.410
    1UNL     H4   30   0.007  -0.025   0.140
    1UNL     H5   31  -0.116  -0.133   0.078
    1UNL     H6   32   0.020   0.079  -0.064
    1UNL     H7   33  -0.117  -0.215  -0.279
    1UNL     H8   34  -0.079  -0.426  -0.145
    1UNL     H9   35  -0.067  -0.394   0.024
    1UNL    H10   36   0.086  -0.244  -0.190
    1UNL    H11   37   0.072  -0.250   0.198
    1UNL    H12   38   0.246  -0.273   0.201
    1UNL    H13   39   0.136  -0.398   0.145
    1UNL    H14   40   0.367  -0.209  -0.032
    1UNL    H15   41   0.241  -0.141  -0.149
    1UNL    H16   42   0.311   0.088  -0.146
    1UNL    H17   43   0.148   0.109   0.176
    1UNL    H18   44   0.269   0.225   0.234
    1UNL    H19   45   0.108   0.286   0.163
    1UNL    H20   46   0.191   0.397  -0.052
    1UNL    H21   47   0.319   0.327  -0.157
    1UNL    H22   48   0.368   0.388  -0.013
    1UNL    H23   49  -0.363  -0.154  -0.241
    1UNL    H24   50  -0.211   0.049  -0.342
    1UNL    H25   51  -0.350  -0.020  -0.020
    1UNL    H26   52  -0.422   0.100  -0.267
    1UNL    H27   53  -0.217   0.186  -0.013
    1UNL    H28   54  -0.232   0.245  -0.227
   0.00000   0.00000   0.00000   0.00000   0.00000   0.00000   0.00000   0.00000   0.00000
Generated with MDTraj, t= 97.0
 54
    1UNL     C1    1  -0.246   0.255   0.308
    1UNL     C2    2  -0.172   0.157   0.223
    1UNL     O1    3  -0.062   0.193   0.177
    1UNL     O2    4  -0.228   0.037   0.193
    1UNL     C3    5  -0.150  -0.040   0.102
    1UNL     C4    6  -0.106   0.038  -0.035
    1UNL     O3    7  -0.050  -0.045  -0.137
    1UNL     C5    8  -0.140  -0.144  -0.169
    1UNL     O4    9  -0.150  -0.255  -0.077
    1UNL     C6   10  -0.048  -0.352  -0.097
    1UNL     C7   11   0.081  -0.287  -0.111
    1UNL     C8   12   0.163  -0.245  -0.012
    1UNL     C9   13   0.150  -0.306   0.125
    1UNL    C10   14   0.285  -0.158  -0.047
    1UNL    C11   15   0.286  -0.035   0.036
    1UNL     O5   16   0.260  -0.039   0.154
    1UNL    C12   17   0.301   0.088  -0.032
    1UNL    C13   18   0.288   0.210   0.016
    1UNL    C14   19   0.256   0.226   0.167
    1UNL    C15   20   0.286   0.322  -0.084
    1UNL    C16   21  -0.275  -0.089  -0.224
    1UNL     O6   22  -0.252  -0.044  -0.353
    1UNL    C17   23  -0.336   0.025  -0.132
    1UNL     O7   24  -0.431   0.092  -0.202
    1UNL    C18   25  -0.220   0.125  -0.098
    1UNL     O8   26  -0.181   0.207  -0.204
    1UNL     H1   27  -0.339   0.200   0.349
    1UNL     H2   28  -0.288   0.335   0.240
    1UNL     H3   29  -0.176   0.299   0.388
    1UNL     H4   30  -0.059  -0.081   0.152
    1UNL     H5   31  -0.206  -0.124   0.067
    1UNL     H6   32  -0.025   0.105  -0.004
    1UNL     H7   33  -0.084  -0.178  -0.258
    1UNL     H8   34  -0.074  -0.414  -0.186
    1UNL     H9   35  -0.041  -0.412  -0.010
    1UNL    H10   36   0.108  -0.243  -0.202
    1UNL    H11   37   0.054  -0.306   0.159
    1UNL    H12   38   0.217  -0.257   0.202
    1UNL    H13   39   0.179  -0.410   0.114
    1UNL    H14   40   0.378  -0.221  -0.028
    1UNL    H15   41   0.281  -0.131  -0.150
    1UNL    H16   42   0.344   0.082  -0.137
    1UNL    H17   43   0.188   0.141   0.203
    1UNL    H18   44   0.346   0.227   0.230
    1UNL    H19   45   0.201   0.330   0.180
    1UNL    H20   46   0.234   0.269  -0.173
    1UNL    H21   47   0.391   0.351  -0.101
    1UNL    H22   48   0.233   0.412  -0.059
    1UNL    H23   49  -0.347  -0.173  -0.229
    1UNL    H24   50  -0.206   0.044  -0.347
    1UNL    H25   51  -0.386  -0.010  -0.031
    1UNL    H26   52  -0.385   0.133  -0.280
    1UNL    H27   53  -0.262   0.193  -0.022
    1UNL    H28   54  -0.097   0.179  -0.235
   0.00000   0.00000   0.00000   0.00000   0.00000   0.00000   0.00000   0.00000   0.00000
Generated with MDTraj, t= 98.0
 54
    1UNL     C1    1  -0.235   0.263   0.338
    1UNL     C2    2  -0.167   0.167   0.247
    1UNL     O1    3  -0.049   0.195   0.220
    1UNL     O2    4  -0.231   0.059   0.192
    1UNL     C3    5  -0.157  -0.016   0.096
    1UNL     C4    6  -0.123   0.058  -0.034
    1UNL     O3    7  -0.058  -0.024  -0.135
    1UNL     C5    8  -0.134  -0.138  -0.185
    1UNL     O4    9  -0.134  -0.253  -0.098
    1UNL     C6   10  -0.021  -0.338  -0.124
    1UNL     C7   11   0.109  -0.273  -0.119
    1UNL     C8   12   0.174  -0.256  -0.004
    1UNL     C9   13   0.115  -0.296   0.131
    1UNL    C10   14   0.306  -0.185  -0.010
    1UNL    C11   15   0.290  -0.045   0.046
    1UNL     O5   16   0.279  -0.031   0.165
    1UNL    C12   17   0.284   0.072  -0.043
    1UNL    C13   18   0.292   0.192   0.009
    1UNL    C14   19   0.283   0.227   0.152
    1UNL    C15   20   0.311   0.311  -0.087
    1UNL    C16   21  -0.274  -0.091  -0.238
    1UNL     O6   22  -0.272  -0.042  -0.368
    1UNL    C17   23  -0.351   0.001  -0.140
    1UNL     O7   24  -0.449   0.066  -0.212
    1UNL    C18   25  -0.250   0.111  -0.100
    1UNL     O8   26  -0.222   0.192  -0.211
    1UNL     H1   27  -0.309   0.206   0.406
    1UNL     H2   28  -0.299   0.333   0.275
    1UNL     H3   29  -0.153   0.318   0.395
    1UNL     H4   30  -0.060  -0.048   0.145
    1UNL     H5   31  -0.205  -0.111   0.070
    1UNL     H6   32  -0.062   0.149  -0.009
    1UNL     H7   33  -0.078  -0.155  -0.277
    1UNL     H8   34  -0.028  -0.390  -0.223
    1UNL     H9   35  -0.017  -0.408  -0.042
    1UNL    H10   36   0.152  -0.217  -0.208
    1UNL    H11   37   0.011  -0.282   0.137
    1UNL    H12   38   0.161  -0.243   0.216
    1UNL    H13   39   0.131  -0.403   0.145
    1UNL    H14   40   0.382  -0.242   0.052
    1UNL    H15   41   0.341  -0.189  -0.110
    1UNL    H16   42   0.321   0.071  -0.139
    1UNL    H17   43   0.177   0.246   0.194
    1UNL    H18   44   0.320   0.142   0.217
    1UNL    H19   45   0.352   0.313   0.182
    1UNL    H20   46   0.349   0.262  -0.183
    1UNL    H21   47   0.373   0.385  -0.039
    1UNL    H22   48   0.216   0.363  -0.110
    1UNL    H23   49  -0.344  -0.179  -0.254
    1UNL    H24   50  -0.229   0.053  -0.363
    1UNL    H25   51  -0.393  -0.049  -0.043
    1UNL    H26   52  -0.409   0.093  -0.296
    1UNL    H27   53  -0.302   0.180  -0.033
    1UNL    H28   54  -0.131   0.183  -0.258
   0.00000   0.00000   0.00000   0.00000   0.00000   0.00000   0.00000   0.00000   0.00000
Generated with MDTraj, t= 99.0
 54
    1UNL     C1    1  -0.220   0.231   0.351
    1UNL     C2    2  -0.147   0.162   0.244
    1UNL     O1    3  -0.029   0.198   0.227
    1UNL     O2    4  -0.213   0.072   0.170
    1UNL     C3    5  -0.133   0.006   0.075
    1UNL     C4    6  -0.123   0.074  -0.059
    1UNL     O3    7  -0.057  -0.001  -0.164
    1UNL     C5    8  -0.122  -0.122  -0.193
    1UNL     O4    9  -0.122  -0.224  -0.096
    1UNL     C6   10  -0.031  -0.331  -0.126
    1UNL     C7   11   0.103  -0.279  -0.117
    1UNL     C8   12   0.161  -0.248  -0.001
    1UNL     C9   13   0.080  -0.271   0.123
    1UNL    C10   14   0.303  -0.196   0.011
    1UNL    C11   15   0.304  -0.063   0.077
    1UNL     O5   16   0.296  -0.047   0.194
    1UNL    C12   17   0.324   0.056  -0.010
    1UNL    C13   18   0.294   0.181   0.012
    1UNL    C14   19   0.258   0.245   0.143
    1UNL    C15   20   0.296   0.278  -0.096
    1UNL    C16   21  -0.260  -0.097  -0.246
    1UNL     O6   22  -0.273  -0.032  -0.370
    1UNL    C17   23  -0.345  -0.018  -0.140
    1UNL     O7   24  -0.470   0.019  -0.192
    1UNL    C18   25  -0.264   0.118  -0.107
    1UNL     O8   26  -0.266   0.208  -0.219
    1UNL     H1   27  -0.299   0.166   0.403
    1UNL     H2   28  -0.285   0.319   0.317
    1UNL     H3   29  -0.144   0.266   0.429
    1UNL     H4   30  -0.029  -0.012   0.115
    1UNL     H5   31  -0.178  -0.094   0.070
    1UNL     H6   32  -0.064   0.170  -0.046
    1UNL     H7   33  -0.068  -0.160  -0.280
    1UNL     H8   34  -0.051  -0.364  -0.231
    1UNL     H9   35  -0.044  -0.413  -0.055
    1UNL    H10   36   0.155  -0.257  -0.201
    1UNL    H11   37  -0.030  -0.263   0.107
    1UNL    H12   38   0.101  -0.208   0.206
    1UNL    H13   39   0.094  -0.374   0.153
    1UNL    H14   40   0.371  -0.267   0.066
    1UNL    H15   41   0.353  -0.192  -0.084
    1UNL    H16   42   0.368   0.042  -0.114
    1UNL    H17   43   0.148   0.254   0.178
    1UNL    H18   44   0.312   0.195   0.233
    1UNL    H19   45   0.302   0.346   0.146
    1UNL    H20   46   0.397   0.283  -0.140
    1UNL    H21   47   0.254   0.374  -0.070
    1UNL    H22   48   0.229   0.248  -0.184
    1UNL    H23   49  -0.305  -0.199  -0.269
    1UNL    H24   50  -0.238   0.058  -0.355
    1UNL    H25   51  -0.353  -0.086  -0.047
    1UNL    H26   52  -0.464   0.021  -0.291
    1UNL    H27   53  -0.310   0.164  -0.020
    1UNL    H28   54  -0.266   0.307  -0.189
   0.00000   0.00000   0.00000   0.00000   0.00000   0.00000   0.00000   0.00000   0.00000
