1TPCN05470
38
    1res  C1    1    1.389   0.289   0.262
    1res  C2    2    1.253   0.065   0.128
    1res  C3    3    1.085  -0.051   0.052
    1res  C4    4    0.830  -0.055  -0.006
    1res  C5    5    0.843  -0.005   0.232
    1res  C6    6    0.622  -0.242  -0.210
    1res  C7    7    0.460  -0.016  -0.103
    1res  C8    8    0.237   0.139  -0.035
    1res  C9    9    0.062  -0.081  -0.182
    1res  C10   10    0.080   0.188  -0.306
    1res  C11   11    0.000  -0.034  -0.472
    1res  C12   12    0.017  -0.093   0.136
    1res  C13   13   -0.312  -0.088  -0.091
    1res  C14   14   -0.200  -0.275   0.178
    1res  C15   15   -0.482  -0.292   0.216
    1res  C16   16   -0.680  -0.218   0.069
    1res  C17   17   -0.790  -0.098   0.254
    1res  C18   18   -0.940   0.154   0.313
    1res  C19   19   -0.937   0.467   0.330
    1res  C20   20   -1.159   0.317   0.209
    1res  C21   21   -1.206   0.090   0.155
    1res  C22   22   -0.981   0.026   0.087
    1res  C23   23   -0.979  -0.012  -0.117
    1res  C24   24   -0.702  -0.032  -0.279
    1res  C25   25   -0.898  -0.010  -0.459
    1res  C26   26   -1.114   0.068  -0.377
    1res  C27   27   -1.042   0.227  -0.208
    1res  C28   28   -0.658  -0.153   0.456
    1res  C29   29   -0.305  -0.103   0.381
    1res  C30   30   -0.104   0.163   0.072
    1res  C31   31    0.477   0.273  -0.171
    1res  C32   32    0.595   0.174  -0.328
    1res  C33   33    0.553  -0.019  -0.382
    1res  C34   34    0.898  -0.334  -0.083
    1res  C35   35    1.075  -0.174  -0.156
    1res  C36   36    1.424  -0.074   0.004
    1res  C37   37    1.452   0.130  -0.125
    1res  C38   38    1.562   0.198   0.098
  10.00000  10.00000  10.00000
