[ moleculetype ]
; name        nrexcl
res           1

[ atoms ]
;    nr  type resnr resid  atom  cgnr     charge       mass
      1 SC4       1 res   C1        1      0.000     54.000
      2 TP1       1 res   C2        2      0.000     36.000
      3 TC3       1 res   C3        3      0.000     36.000
      4 TC5       1 res   C4        4      0.000     36.000
      5 SN4a      1 res   C5        5      0.000     54.000
      6 SN4a      1 res   C6        6      0.000     54.000
      7 TP1       1 res   C7        7      0.000     36.000
      8 TN6       1 res   C8        8      0.000     36.000
      9 TN6       1 res   C9        9      0.000     36.000
     10 TN6       1 res   C10      10      0.000     36.000
     11 TC3       1 res   C11      11      0.000     36.000
     12 SC4       1 res   C12      12      0.000     54.000
     13 TC3       1 res   C13      13      0.000     36.000
     14 SC4       1 res   C14      14      0.000     54.000
     15 SC4       1 res   C15      15      0.000     54.000
     16 TC3       1 res   C16      16      0.000     36.000
     17 TN6       1 res   C17      17      0.000     36.000
     18 SN4a      1 res   C18      18      0.000     54.000
     19 TN6       1 res   C19      19      0.000     36.000
     20 TN6       1 res   C20      20      0.000     36.000
     21 SN4a      1 res   C21      21      0.000     54.000
     22 TP1       1 res   C22      22      0.000     36.000
     23 TN6       1 res   C23      23      0.000     36.000
     24 TN6       1 res   C24      24      0.000     36.000
     25 TN6       1 res   C25      25      0.000     36.000
     26 TN6       1 res   C26      26      0.000     36.000
     27 TC4       1 res   C27      27      0.000     36.000
     28 SP2       1 res   C28      28      0.000     54.000
     29 TC3       1 res   C29      29      0.000     36.000

[ bonds ]
;  ai    aj   funct      b0(nm)        k
    1     2     1      0.28166    20000
    1     3     1      0.38881    20000
    1     4     1      0.26867    20000
    3     4     1      0.29713    20000
    4     5     1      0.24763    20000
    4    11     1      0.25642    20000
    4    12     1      0.33713    20000
    5     6     1      0.32641    20000
    6     7     1      0.31136    20000
    6     8     1      0.31033    20000
    6    10     1      0.24966    20000
    8     9     1      0.23857    20000
    9    10     1      0.26269    20000
   11    12     1      0.26608    20000
   12    13     1      0.29900    20000
   12    14     1      0.34038    20000
   13    14     1      0.31867    20000
   14    15     1      0.40791    20000
   14    29     1      0.27396    20000
   15    16     1      0.28361    20000
   15    27     1      0.40233    20000
   15    29     1      0.35703    20000
   16    17     1      0.24766    20000
   17    18     1      0.30712    20000
   17    27     1      0.24897    20000
   18    19     1      0.27275    20000
   18    26     1      0.28258    20000
   19    20     1      0.23133    20000
   20    21     1      0.28044    20000
   20    26     1      0.21312    20000
   21    22     1      0.25226    20000
   21    23     1      0.26159    20000
   21    25     1      0.30425    20000
   23    24     1      0.25067    20000
   24    25     1      0.25738    20000
   27    28     1      0.30772    20000
