[ moleculetype ]
; name        nrexcl
res           1

[ atoms ]
;    nr  type  resnr resid  atom  cgnr     charge       mass
      1 SN1       1 res   C1        1      0.000     54.000
      2 TC5       1 res   C2        2      0.000     36.000
      3 TC5       1 res   C3        3      0.000     36.000
      4 TC5       1 res   C4        4      0.000     36.000

[ bonds ]
;  ai    aj   funct      b0(nm)          k(kJ/mol/nm^2)
    1     2     1      0.27857          49324.1
    2     3     1      0.25593         160272.0
    2     4     1      0.29858         184236.2
    3     4     1      0.28740         246755.2

[ angles ]
;  ai    aj    ak  funct     th0(deg)        k(kJ/mol/rad^2)
    1     2     3     1    148.80657           894.09
    1     2     4     1     88.05378          1149.34
    2     3     4     1     66.38061          5538.99
    2     4     3     1     51.74841          7985.23
    3     2     4     1     61.87096          6988.80

[ dihedrals ]
;  ai    aj    ak    al  funct   phi0(deg)        k(kJ/mol)   mult
    1     2     3     4     1   -179.35668       23.548      1
    1     2     3     4     1   -178.41950       19.578      2
    1     2     3     4     1   -176.71448       13.943      3
    1     2     4     3     1      0.83410       14.395      1
    1     2     4     3     1   -178.31182       13.604      2
    1     2     4     3     1      2.58558       12.347      3
