1TPCN06185
12
    1res  C1    1   -0.208   0.144  -0.198
    1res  C2    2   -0.122  -0.015   0.124
    1res  C3    3   -0.457  -0.004  -0.007
    1res  C4    4   -0.700  -0.218   0.198
    1res  C5    5   -0.896  -0.023   0.033
    1res  C6    6    0.029   0.272   0.103
    1res  C7    7    0.121   0.094  -0.098
    1res  C8    8    0.325   0.000   0.189
    1res  C9    9    0.371   0.085  -0.168
    1res  C10   10    0.660   0.032  -0.020
    1res  C11   11    0.597  -0.237  -0.026
    1res  C12   12    0.382  -0.198  -0.184
  10.00000  10.00000  10.00000
