[ moleculetype ]
; name        nrexcl
res           1

[ atoms ]
;    nr  type resnr resid  atom  cgnr     charge       mass
      1 N4a       1 res   C1        1      0.000     72.000
      2 SC4       1 res   C2        2      0.000     54.000
      3 SN6a      1 res   C3        3      0.000     54.000
      4 TC5       1 res   C4        4      0.000     36.000
      5 SN6       1 res   C5        5      0.000     54.000
      6 N4a       1 res   C6        6      0.000     72.000
      7 TC5       1 res   C7        7      0.000     36.000
      8 TC5       1 res   C8        8      0.000     36.000
      9 TC5       1 res   C9        9      0.000     36.000
     10 TN6       1 res   C10      10      0.000     36.000
     11 SC4       1 res   C11      11      0.000     54.000
     12 SC3       1 res   C12      12      0.000     54.000
     13 TC4       1 res   C13      13      0.000     36.000

[ bonds ]
;  ai    aj   funct      b0(nm)        k
    1     2     1      0.45840    20000
    2     3     1      0.36550    20000
    2     4     1      0.27416    20000
    3     4     1      0.24152    20000
    4     5     1      0.27025    20000
    4    13     1      0.28197    20000
    5     6     1      0.38288    20000
    5    10     1      0.36326    20000
    6     7     1      0.32370    20000
    7     8     1      0.25771    20000
    7     9     1      0.30194    20000
    8     9     1      0.29071    20000
   10    11     1      0.28456    20000
   10    13     1      0.25633    20000
   11    12     1      0.33614    20000
   12    13     1      0.35158    20000
