[ moleculetype ]
; name        nrexcl
res           1

[ atoms ]
;    nr  type resnr resid  atom  cgnr     charge       mass
      1 SN4a      1 res   C1        1      0.000     54.000
      2 TC3       1 res   C2        2      0.000     36.000
      3 TN6       1 res   C3        3      0.000     36.000
      4 SN6       1 res   C4        4      0.000     54.000
      5 SC4       1 res   C5        5      0.000     54.000
      6 TN4a      1 res   C6        6      0.000     36.000
      7 TN6a      1 res   C7        7      0.000     36.000
      8 SC4       1 res   C8        8      0.000     54.000
      9 TN6       1 res   C9        9      0.000     36.000
     10 SP1       1 res   C10      10      0.000     54.000
     11 SN6       1 res   C11      11      0.000     54.000

[ bonds ]
;  ai    aj   funct      b0(nm)        k
    1     2     1      0.28875    20000
    2     3     1      0.26604    20000
    2     5     1      0.33520    20000
    3     4     1      0.32146    20000
    4     5     1      0.24916    20000
    4    11     1      0.29589    20000
    5     6     1      0.23135    20000
    5    11     1      0.35583    20000
    6     7     1      0.26200    20000
    6     9     1      0.27294    20000
    7     8     1      0.23881    20000
    8     9     1      0.27605    20000
    9    10     1      0.25089    20000
