1TPCN01044
10
    1res  C1    1    0.059   0.297  -0.070
    1res  C2    2   -0.141   0.438  -0.124
    1res  C3    3   -0.196   0.191  -0.168
    1res  C4    4    0.052  -0.018  -0.163
    1res  C5    5    0.334  -0.017   0.097
    1res  C6    6    0.610  -0.119   0.109
    1res  C7    7   -0.094  -0.281  -0.044
    1res  C8    8   -0.232  -0.010  -0.034
    1res  C9    9   -0.329  -0.172   0.158
    1res  C10   10   -0.487   0.115  -0.004
  10.00000  10.00000  10.00000
