1TPCN00183
11
    1res  C1    1   -0.569  -0.007   0.030
    1res  C2    2   -0.328   0.018  -0.008
    1res  C3    3   -0.344   0.173  -0.266
    1res  C4    4   -0.012   0.199  -0.230
    1res  C5    5   -0.098   0.033  -0.031
    1res  C6    6    0.082  -0.106   0.150
    1res  C7    7    0.430   0.077   0.141
    1res  C8    8    0.656   0.287   0.040
    1res  C9    9    0.280  -0.286   0.045
    1res  C10   10    0.121  -0.219  -0.153
    1res  C11   11   -0.047  -0.307  -0.002
  10.00000  10.00000  10.00000
