1TPCN06350
17
    1res  C1    1   -0.290   0.565   0.008
    1res  C2    2   -0.091   0.314   0.048
    1res  C3    3   -0.103   0.079  -0.165
    1res  C4    4    0.189   0.141  -0.138
    1res  C5    5    0.164   0.303  -0.029
    1res  C6    6    0.388   0.215   0.023
    1res  C7    7    0.222  -0.039   0.165
    1res  C8    8    0.488   0.107   0.433
    1res  C9    9    0.168  -0.436   0.095
    1res  C10   10    0.228  -0.151  -0.126
    1res  C11   11   -0.013  -0.141  -0.489
    1res  C12   12   -0.200   0.015   0.148
    1res  C13   13   -0.301  -0.246  -0.005
    1res  C14   14   -0.174  -0.259   0.274
    1res  C15   15   -0.383  -0.349   0.403
    1res  C16   16   -0.181  -0.345   0.417
    1res  C17   17   -0.383  -0.220  -0.292
  10.00000  10.00000  10.00000
