[ moleculetype ]
; name        nrexcl
res           1

[ atoms ]
;    nr  type  resnr resid  atom  cgnr     charge       mass
      1 TC3       1 res   C1        1      0.000     36.000
      2 TC5       1 res   C2        2      0.000     36.000
      3 TC3       1 res   C3        3      0.000     36.000
      4 TN6d      1 res   C4        4      0.000     36.000
      5 TC3       1 res   C5        5      0.000     36.000
      6 TN6d      1 res   C6        6      0.000     36.000
      7 TN6a      1 res   C7        7      0.000     36.000
      8 TC5       1 res   C8        8      0.000     36.000
      9 TC5       1 res   C9        9      0.000     36.000
     10 TC5       1 res   C10      10      0.000     36.000
     11 SN6a      1 res   C11      11      0.000     54.000

[ constraints ]
;  ai    aj   funct      b0(nm)
    1     2     1      0.33499
    2     3     1      0.26250
    4     5     1      0.32704
    2     6     1      0.21941
    6     8     1      0.19033
    3     4     1      0.25159
    7     8     1      0.23584
    5     6     1      0.27314
    6    11     1      0.26329
    8    10     1      0.24835
    6     7     1      0.23791
    2    11     1      0.26418
    9    10     1      0.29016
    2     4     1      0.26396
    8     9     1      0.24856

[ bonds ]
;  ai    aj   funct      b0(nm)          k(kJ/mol/nm^2)

[ angles ]
;  ai    aj    ak  funct     th0(deg)        k(kJ/mol/rad^2)
    1     2     3     1     63.49517          1127.75
    1     2     4     1     94.17067           569.39
    1     2     6     1     87.71342           724.54
    1     2    11     1     64.02337           718.31
    2     3     4     1     61.75066          2191.40
    2     4     3     1     61.15650          3514.50
    2     4     5     1     62.45718          3442.33
    2     6     5     1     77.52887          3315.34
    2     6     7     1     86.07634          1380.54
    2     6     8     1    138.29822           653.82
    2     6    11     1     65.62128          2888.31
    2    11     6     1     49.15944          5019.96
    3     2     4     1     57.09276          3369.37
    3     2     6     1    150.81634           611.09
    3     2    11     1    102.24051          1251.66
    3     4     5     1    106.97159           664.16
    4     2     6     1    126.28264          1647.09
    4     2    11     1    156.03336           822.51
    4     5     6     1     91.53061          2059.84
    5     6     7     1     76.38892           738.61
    5     6     8     1    120.74941          1122.72
    5     6    11     1    127.33719           760.59
    6     2    11     1     65.21938          2723.51
    6     7     8     1     47.37316          8311.72
    6     8     7     1     66.87981          5520.65
    6     8     9     1    161.58424          1461.88
    6     8    10     1    125.56911          2203.47
    7     6     8     1     65.74703          4864.28
    7     6    11     1    133.02253           349.86
    7     8     9     1     95.81051          2499.10
    7     8    10     1    165.82012          1023.31
    8     6    11     1    111.53206           651.45
    8     9    10     1     54.23678          9996.22
    8    10     9     1     54.30593          8845.43
    9     8    10     1     71.45730          6123.72

[ dihedrals ]
;  ai    aj    ak    al  funct   phi0(deg)        k(kJ/mol)   mult
    1     2     3     4     1    -64.87430        8.561      1
    1     2     4     3     1    124.10058        7.765      1
    1     2     4     5     1   -102.03883        6.314      1
    1     2     6     5     1     98.18987        7.761      1
    1     2     6     7     1     23.98526        9.347      1
    1     2     6     8     1    -21.99314       10.719      1
    1     2     6    11     1   -117.96952        6.301      1
    1     2    11     6     1     79.99338        7.756      1
    2     3     4     5     1    138.09764        7.742      1
    2     4     5     6     1   -171.06498        5.555      1
    2     6     5     4     1    171.00066        5.588      1
    2     6     7     8     1     31.97538        7.811      1
    2     6     8     7     1   -128.97229        8.522      1
    2     6     8     9     1   -120.27382       25.329      1
    2     6     8    10     1     56.04687       10.730      1
    2    11     6     5     1   -131.91038        7.802      1
    2    11     6     7     1    122.02945        7.804      1
    2    11     6     8     1     43.69009        7.754      1
    3     2     4     5     1    -46.10879       10.697      1
    3     2     6     5     1    107.56814       12.157      1
    3     2     6     7     1     30.70816       14.297      1
    3     2     6     8     1    -14.26580       12.184      1
    3     2     6    11     1   -110.16342       10.722      1
    3     2    11     6     1     27.98017        6.369      1
    3     4     2     6     1     35.92763        9.309      1
    3     4     2    11     1    149.11299       15.657      1
    3     4     5     6     1   -131.23437       11.411      1
    4     2     6     5     1   -165.97821        9.325      1
    4     2     6     7     1    117.03994       11.520      1
    4     2     6     8     1     70.75838       10.058      1
    4     2     6    11     1    -23.99594        9.321      1
    4     2    11     6     1     54.09306       14.983      1
    4     3     2     6     1    -73.60150       10.728      1
    4     3     2    11     1    -13.12651        8.561      1
    4     5     6     7     1    -99.11007        7.037      1
    4     5     6     8     1    -49.98542        7.784      1
    4     5     6    11     1    127.04914       11.431      1
    5     4     2     6     1    167.00421        8.595      1
    5     4     2    11     1    -78.20427       14.955      1
    5     6     2    11     1     37.08315        8.561      1
    5     6     7     8     1    -46.97677        7.036      1
    5     6     8     7     1    124.03135        9.277      1
    5     6     8     9     1    133.19905       26.731      1
    5     6     8    10     1    -50.91253       11.451      1
    6     7     8     9     1      2.20935       12.209      1
    6     7     8    10     1    -15.02601       25.542      1
    6     8     9    10     1     -1.81104       27.626      1
    6     8    10     9     1     -0.93899       15.711      1
    7     6     2    11     1    -38.00489        9.330      1
    7     6     8     9     1   -173.05493       25.511      1
    7     6     8    10     1      5.04427       11.525      1
    7     8     6    11     1    -49.60169        9.292      1
    7     8     9    10     1      4.99919        8.608      1
    7     8    10     9     1   -164.43009       23.881      1
    8     6     2    11     1    -83.05095       10.012      1
    8     7     6    11     1     83.91935        9.295      1
    9     8     6    11     1    -46.90656       28.987      1
   10     8     6    11     1    134.21146       12.152      1
