[ moleculetype ]
; name        nrexcl
res           1

[ atoms ]
;    nr  type  resnr resid  atom  cgnr     charge       mass
      1 TN1       1 res   C1        1      0.000     36.000
      2 TC5       1 res   C2        2      0.000     36.000
      3 TC5       1 res   C3        3      0.000     36.000
      4 TC5       1 res   C4        4      0.000     36.000
      5 TN6a      1 res   C5        5      0.000     36.000

[ bonds ]
;  ai    aj   funct      b0(nm)          k(kJ/mol/nm^2)
    1     2     1      0.29835          72654.7
    1     5     1      0.34102          61110.5
    2     3     1      0.25001         162441.5
    2     4     1      0.24990         118633.5
    2     5     1      0.20526         230928.5
    3     4     1      0.29148         199245.4

[ angles ]
;  ai    aj    ak  funct     th0(deg)        k(kJ/mol/rad^2)
    1     2     3     1     92.18238          2234.51
    1     2     4     1    162.62752          1496.51
    1     2     5     1     83.05122          1971.75
    1     5     2     1     60.27004          2771.59
    2     1     5     1     36.67881          9907.58
    2     3     4     1     54.31624          4044.31
    2     4     3     1     54.34311          6335.47
    3     2     4     1     71.34060          3499.52
    3     2     5     1    169.42007           361.04
    4     2     5     1    112.54321          1483.06

[ dihedrals ]
;  ai    aj    ak    al  funct   phi0(deg)        k(kJ/mol)   mult
    1     2     3     4     1      0.93450       11.451      1
    1     2     3     4     1   -178.13357       11.036      2
    1     2     3     4     1      2.79287       10.365      3
    1     2     4     3     1    179.87770       26.163      1
    1     2     4     3     1   -179.87345       19.897      2
    1     2     4     3     1   -178.78308       11.957      3
    1     5     2     3     1   -174.39335       23.141      1
    1     5     2     3     1      0.52108       10.343      2
    1     5     2     3     1      8.44563       18.429      3
    1     5     2     4     1      1.05539       14.290      1
    1     5     2     4     1   -177.91323       13.507      2
    1     5     2     4     1      3.06614       12.261      3
    3     2     1     5     1      0.07314       15.133      1
    3     2     1     5     1   -179.87806       14.208      2
    3     2     1     5     1      0.11734       12.744      3
    3     4     2     5     1     -0.03419       16.506      1
    3     4     2     5     1    179.93061       15.319      2
    3     4     2     5     1     -0.10699       13.455      3
    4     2     1     5     1      0.12513       26.038      1
    4     2     1     5     1   -179.55395       16.044      2
    4     2     1     5     1      4.81595        4.899      3
    4     3     2     5     1     -1.45164       19.764      1
    4     3     2     5     1     -0.29399       16.183      2
    4     3     2     5     1    179.78459       21.025      3
