1TPCN05695
38
    1res  C1    1    1.565   0.258  -0.111
    1res  C2    2    1.401   0.161   0.064
    1res  C3    3    1.223   0.111   0.003
    1res  C4    4    1.133  -0.107   0.026
    1res  C5    5    1.026  -0.064  -0.175
    1res  C6    6    0.916   0.172  -0.136
    1res  C7    7    0.691   0.164  -0.245
    1res  C8    8    0.647   0.109   0.105
    1res  C9    9    0.492   0.006  -0.057
    1res  C10   10    0.306  -0.073  -0.093
    1res  C11   11    0.122  -0.015  -0.186
    1res  C12   12    0.018  -0.024   0.032
    1res  C13   13   -0.155  -0.316   0.118
    1res  C14   14    0.066  -0.223   0.268
    1res  C15   15    0.023  -0.509   0.242
    1res  C16   16   -0.371  -0.233   0.275
    1res  C17   17   -0.402  -0.121  -0.111
    1res  C18   18   -0.609  -0.257   0.095
    1res  C19   19   -0.677   0.092   0.020
    1res  C20   20   -0.837   0.019  -0.227
    1res  C21   21   -0.983   0.164  -0.103
    1res  C22   22   -1.226   0.289  -0.041
    1res  C23   23   -1.434   0.448   0.004
    1res  C24   24   -1.447   0.112  -0.130
    1res  C25   25   -1.408   0.219  -0.320
    1res  C26   26   -1.193   0.324  -0.335
    1res  C27   27   -0.940   0.212   0.148
    1res  C28   28   -1.091  -0.038   0.150
    1res  C29   29   -0.701  -0.028   0.284
    1res  C30   30   -0.285   0.022   0.235
    1res  C31   31    0.050  -0.225  -0.419
    1res  C32   32    0.261  -0.330  -0.343
    1res  C33   33    0.324  -0.294  -0.093
    1res  C34   34    0.629  -0.102  -0.250
    1res  C35   35    1.071   0.274   0.013
    1res  C36   36    1.388   0.182   0.292
    1res  C37   37    1.570   0.300   0.274
    1res  C38   38    1.721   0.233   0.114
  10.00000  10.00000  10.00000
