[ moleculetype ]
; name        nrexcl
res           1

[ atoms ]
;    nr  type  resnr resid  atom  cgnr     charge       mass
      1 TC5       1 res   C1        1      0.000     36.000
      2 TC5       1 res   C2        2      0.000     36.000
      3 TC5       1 res   C3        3      0.000     36.000
      4 TC5       1 res   C4        4      0.000     36.000

[ constraints ]
;  ai    aj   funct      b0(nm)
    1     2     1      0.28818
    1     3     1      0.29869
    2     3     1      0.25635

[ bonds ]
;  ai    aj   funct      b0(nm)          k(kJ/mol/nm^2)
    3     4     1      0.26639           8156.2

[ angles ]
;  ai    aj    ak  funct     th0(deg)        k(kJ/mol/rad^2)
    1     2     3     1     66.23506          8079.02
    1     3     2     1     62.00437          9195.58
    1     3     4     1     91.70955           124.72
    2     1     3     1     51.76058         11747.84
    2     3     4     1    150.55818           112.38

[ dihedrals ]
;  ai    aj    ak    al  funct   phi0(deg)        k(kJ/mol)   mult
    1     2     3     4     1    179.74809       31.542      1
    2     1     3     4     1     -0.09945       19.164      1
