1TPCN02926
9
    1res  C1    1    0.533   0.063   0.004
    1res  C2    2    0.289   0.109  -0.014
    1res  C3    3    0.213  -0.178   0.040
    1res  C4    4    0.078   0.031  -0.007
    1res  C5    5   -0.070   0.245   0.005
    1res  C6    6   -0.140  -0.099  -0.103
    1res  C7    7   -0.410   0.191  -0.051
    1res  C8    8   -0.460  -0.090  -0.160
    1res  C9    9   -0.280  -0.074   0.161
  10.00000  10.00000  10.00000
