1TPCN01420
8
    1res  C1    1   -0.012  -0.267  -0.001
    1res  C2    2    0.201  -0.132  -0.075
    1res  C3    3    0.327   0.083   0.032
    1res  C4    4    0.238   0.266  -0.107
    1res  C5    5    0.034   0.165   0.023
    1res  C6    6   -0.188  -0.066   0.055
    1res  C7    7   -0.238   0.231  -0.077
    1res  C8    8   -0.412   0.060   0.064
  10.00000  10.00000  10.00000
