1TPCN04434
13
    1res  C1    1    0.732  -0.214   0.153
    1res  C2    2    0.638   0.054   0.159
    1res  C3    3    0.391  -0.021  -0.151
    1res  C4    4    0.202   0.171  -0.134
    1res  C5    5    0.008   0.113  -0.092
    1res  C6    6   -0.205   0.053   0.012
    1res  C7    7   -0.345   0.187  -0.129
    1res  C8    8   -0.380  -0.021   0.090
    1res  C9    9   -0.466  -0.244   0.162
    1res  C10   10   -0.624  -0.044   0.268
    1res  C11   11   -0.684   0.023   0.002
    1res  C12   12   -0.247  -0.178  -0.153
    1res  C13   13   -0.012  -0.142   0.076
  10.00000  10.00000  10.00000
