1TPCN05538
40
    1res  C1    1    0.431  -0.481   0.056
    1res  C2    2    0.402  -0.241   0.109
    1res  C3    3    0.368  -0.045   0.237
    1res  C4    4    0.191   0.242   0.164
    1res  C5    5    0.319   0.226   0.409
    1res  C6    6    0.366   0.452   0.216
    1res  C7    7   -0.113   0.105   0.155
    1res  C8    8   -0.033   0.234  -0.111
    1res  C9    9   -0.023  -0.094  -0.111
    1res  C10   10   -0.252  -0.009  -0.333
    1res  C11   11   -0.449   0.221  -0.257
    1res  C12   12   -0.621   0.031  -0.220
    1res  C13   13   -0.744   0.124   0.043
    1res  C14   14   -0.915   0.018   0.188
    1res  C15   15   -0.987  -0.112   0.457
    1res  C16   16   -1.149  -0.341   0.516
    1res  C17   17   -1.284  -0.165   0.388
    1res  C18   18   -1.147  -0.147   0.203
    1res  C19   19   -0.866  -0.164   0.062
    1res  C20   20   -0.891  -0.026  -0.136
    1res  C21   21   -1.026   0.177  -0.358
    1res  C22   22   -1.263   0.269  -0.295
    1res  C23   23   -1.330   0.054  -0.278
    1res  C24   24   -1.153  -0.089  -0.344
    1res  C25   25   -0.531  -0.181  -0.320
    1res  C26   26   -0.305  -0.135   0.011
    1res  C27   27    0.056  -0.061   0.279
    1res  C28   28    0.603  -0.149   0.067
    1res  C29   29    0.855  -0.060   0.084
    1res  C30   30    1.067  -0.063  -0.115
    1res  C31   31    1.375  -0.146  -0.170
    1res  C32   32    1.457  -0.105   0.099
    1res  C33   33    1.607   0.048  -0.151
    1res  C34   34    1.468   0.114  -0.309
    1res  C35   35    1.278   0.133  -0.196
    1res  C36   36    1.070   0.099   0.118
    1res  C37   37    0.908   0.134   0.299
    1res  C38   38    0.730   0.168   0.127
    1res  C39   39    0.614  -0.186  -0.171
    1res  C40   40    0.579  -0.401  -0.129
  10.00000  10.00000  10.00000
