1TPCN02396
14
    1res  C1    1    0.551   0.269   0.017
    1res  C2    2    0.295  -0.050   0.122
    1res  C3    3    0.012  -0.008   0.059
    1res  C4    4   -0.110  -0.245   0.095
    1res  C5    5    0.163  -0.473   0.202
    1res  C6    6   -0.357  -0.144   0.095
    1res  C7    7   -0.238   0.018  -0.113
    1res  C8    8   -0.304   0.179   0.145
    1res  C9    9   -0.544   0.160  -0.022
    1res  C10   10   -0.648   0.234  -0.206
    1res  C11   11   -0.411   0.364  -0.109
    1res  C12   12    0.046   0.140  -0.156
    1res  C13   13    0.141  -0.082  -0.257
    1res  C14   14    0.074  -0.307  -0.183
  10.00000  10.00000  10.00000
