[ moleculetype ]
; name        nrexcl
res           1

[ atoms ]
;    nr  type resnr resid  atom  cgnr     charge       mass
      1 C4        1 res   C1        1      0.000     72.000
      2 SN4a      1 res   C2        2      0.000     54.000
      3 TC3       1 res   C3        3      0.000     36.000
      4 TC4       1 res   C4        4      0.000     36.000
      5 TC4       1 res   C5        5      0.000     36.000
      6 TC3       1 res   C6        6      0.000     36.000
      7 SN4a      1 res   C7        7      0.000     54.000
      8 TC5       1 res   C8        8      0.000     36.000
      9 N4a       1 res   C9        9      0.000     72.000
     10 TC3       1 res   C10      10      0.000     36.000
     11 SN4a      1 res   C11      11      0.000     54.000
     12 TC3       1 res   C12      12      0.000     36.000
     13 TN3r      1 res   C13      13      0.000     36.000
     14 TC5       1 res   C14      14      0.000     36.000
     15 TN6a      1 res   C15      15      0.000     36.000
     16 TN4a      1 res   C16      16      0.000     36.000

[ bonds ]
;  ai    aj   funct      b0(nm)        k
    1     2     1      0.32255    20000
    2     3     1      0.28911    20000
    3     4     1      0.26113    20000
    3    14     1      0.29262    20000
    4     5     1      0.30373    20000
    4     8     1      0.29921    20000
    5     6     1      0.25826    20000
    6     7     1      0.37863    20000
    6     8     1      0.24943    20000
    8     9     1      0.41508    20000
    8    10     1      0.24998    20000
    8    12     1      0.28613    20000
   10    11     1      0.33650    20000
   10    12     1      0.22893    20000
   12    13     1      0.24683    20000
   14    15     1      0.22463    20000
   14    16     1      0.25890    20000
   15    16     1      0.28802    20000
