[ moleculetype ]
; name        nrexcl
res           1

[ atoms ]
;    nr  type  resnr resid  atom  cgnr     charge       mass
      1 TC5       1 res   C1        1      0.000     36.000
      2 TC6       1 res   C2        2      0.000     36.000
      3 TN1a      1 res   C3        3      0.000     36.000
      4 TC5       1 res   C4        4      0.000     36.000
      5 TC6       1 res   C5        5      0.000     36.000

[ constraints ]
;  ai    aj   funct      b0(nm)
    1     4     1      0.21758
    3     4     1      0.25129
    1     3     1      0.25125

[ bonds ]
;  ai    aj   funct      b0(nm)          k(kJ/mol/nm^2)
    1     2     1      0.34280          12975.8
    4     5     1      0.34567          13236.8

[ angles ]
;  ai    aj    ak  funct     th0(deg)        k(kJ/mol/rad^2)
    1     3     4     1     51.29106         12792.72
    1     4     3     1     64.34113          2947.55
    1     4     5     1    129.92942           542.11
    2     1     3     1     69.56001           284.62
    2     1     4     1    130.02815           495.26
    3     1     4     1     64.36785          2772.17
    3     4     5     1     68.68127           355.60

[ dihedrals ]
;  ai    aj    ak    al  funct   phi0(deg)        k(kJ/mol)   mult
    1     3     4     5     1     -2.65905       24.671      1
    2     1     3     4     1     -2.59294       23.910      1
    2     1     4     3     1   -179.65992       28.487      1
    2     1     4     5     1    173.50790       29.534      1
    3     1     4     5     1    175.10134       28.190      1
