1TPCN05123
33
    1res  C1    1   -1.181  -0.055   0.062
    1res  C2    2   -0.939  -0.060  -0.005
    1res  C3    3   -0.775  -0.164   0.003
    1res  C4    4   -0.610  -0.114   0.123
    1res  C5    5   -0.588   0.039   0.380
    1res  C6    6   -0.425   0.121   0.157
    1res  C7    7   -0.171   0.155  -0.002
    1res  C8    8   -0.021  -0.083   0.050
    1res  C9    9    0.181  -0.047   0.285
    1res  C10   10    0.279   0.121   0.113
    1res  C11   11    0.272   0.180  -0.144
    1res  C12   12    0.429  -0.125  -0.010
    1res  C13   13    0.664   0.152  -0.104
    1res  C14   14    0.788   0.090  -0.426
    1res  C15   15    0.953   0.162  -0.207
    1res  C16   16    0.882  -0.008  -0.075
    1res  C17   17    1.128  -0.163  -0.086
    1res  C18   18    1.253  -0.377  -0.039
    1res  C19   19    1.067  -0.450  -0.211
    1res  C20   20    0.900  -0.377  -0.026
    1res  C21   21    0.630  -0.031   0.151
    1res  C22   22   -0.028   0.285   0.242
    1res  C23   23   -0.162   0.161   0.431
    1res  C24   24   -0.559   0.327   0.271
    1res  C25   25   -0.693   0.386   0.049
    1res  C26   26   -0.778   0.258   0.337
    1res  C27   27   -0.447  -0.165  -0.065
    1res  C28   28   -0.494  -0.135  -0.291
    1res  C29   29   -0.524  -0.407  -0.115
    1res  C30   30   -0.759  -0.345  -0.114
    1res  C31   31   -0.909   0.155  -0.150
    1res  C32   32   -1.037   0.016  -0.315
    1res  C33   33   -1.243   0.021  -0.199
  10.00000  10.00000  10.00000
