[ moleculetype ]
; name        nrexcl
res           1

[ atoms ]
;    nr  type  resnr resid  atom  cgnr     charge       mass
      1 C4        1 res   C1        1      0.000     72.000
      2 SN4a      1 res   C2        2      0.000     54.000
      3 SC3       1 res   C3        3      0.000     54.000
      4 TN6a      1 res   C4        4      0.000     36.000
      5 SC4       1 res   C5        5      0.000     54.000
      6 SC4       1 res   C6        6      0.000     54.000

[ bonds ]
;  ai    aj   funct      b0(nm)          k(kJ/mol/nm^2)
    2     3     1      0.29595          32891.0
    3     4     1      0.26725          69527.1
    3     5     1      0.35121          71544.8
    3     6     1      0.27136         100180.5
    4     5     1      0.35871         105447.9

[ angles ]
;  ai    aj    ak  funct     th0(deg)        k(kJ/mol/rad^2)
    2     3     4     1    127.35401           769.23
    2     3     5     1     58.22390           880.42
    2     3     6     1     89.33025          1092.00
    3     4     5     1     66.40277          3195.91
    3     5     4     1     44.20369          5772.02
    4     3     5     1     69.39351          2817.70
    4     3     6     1     85.44697           913.40
    5     3     6     1     81.61249           828.87

[ dihedrals ]
;  ai    aj    ak    al  funct   phi0(deg)        k(kJ/mol)   mult
    2     3     4     5     1   -178.90572       10.022      1
    2     3     4     5     1   -177.80843        9.772      2
    2     3     4     5     1   -176.70478        9.364      3
    2     3     5     4     1      1.10561       10.017      1
    2     3     5     4     1   -177.78586        9.768      2
    2     3     5     4     1      3.32881        9.362      3
    4     5     3     6     1    -91.97246        7.762      1
    4     5     3     6     1     -3.94447        7.649      2
    4     5     3     6     1     84.08448        7.464      3
    5     4     3     6     1     97.96437        7.776      1
    5     4     3     6     1     15.92823        7.663      2
    5     4     3     6     1    -66.10893        7.477      3
