[ moleculetype ]
; name        nrexcl
res           1

[ atoms ]
;    nr  type resnr resid  atom  cgnr     charge       mass
      1 SC3       1 res   C1        1      0.000     54.000
      2 TN6a      1 res   C2        2      0.000     36.000
      3 TN6a      1 res   C3        3      0.000     36.000
      4 SC3       1 res   C4        4      0.000     54.000
      5 SN6a      1 res   C5        5      0.000     54.000

[ bonds ]
;  ai    aj   funct      b0(nm)        k
    1     2     1      0.23227    20000
    1     3     1      0.23282    20000
    1     4     1      0.24049    20000
    4     5     1      0.17005    20000
