1TPCN06359
19
    1res  C1    1    0.124   0.050   0.396
    1res  C2    2    0.041   0.077   0.073
    1res  C3    3   -0.077   0.062  -0.159
    1res  C4    4   -0.251  -0.125  -0.229
    1res  C5    5   -0.269   0.221  -0.051
    1res  C6    6   -0.545   0.007  -0.068
    1res  C7    7   -0.812  -0.083  -0.071
    1res  C8    8   -0.646  -0.074   0.188
    1res  C9    9   -0.644   0.285   0.116
    1res  C10   10   -0.306   0.114   0.192
    1res  C11   11    0.045  -0.275  -0.030
    1res  C12   12    0.197  -0.097  -0.245
    1res  C13   13    0.388  -0.035  -0.080
    1res  C14   14    0.605   0.120  -0.147
    1res  C15   15    0.584   0.324  -0.005
    1res  C16   16    0.846   0.157  -0.254
    1res  C17   17    0.889  -0.008  -0.044
    1res  C18   18    0.729  -0.155  -0.083
    1res  C19   19    0.355  -0.205   0.092
  10.00000  10.00000  10.00000
