[ moleculetype ]
; name        nrexcl
res           1

[ atoms ]
;    nr  type resnr resid  atom  cgnr     charge       mass
      1 SC4       1 res   C1        1      0.000     54.000
      2 TC3       1 res   C2        2      0.000     36.000
      3 TC5       1 res   C3        3      0.000     36.000
      4 SN4a      1 res   C4        4      0.000     54.000
      5 SN4a      1 res   C5        5      0.000     54.000
      6 TN3r      1 res   C6        6      0.000     36.000
      7 SN4a      1 res   C7        7      0.000     54.000
      8 TP1       1 res   C8        8      0.000     36.000
      9 TN6       1 res   C9        9      0.000     36.000
     10 TN6       1 res   C10      10      0.000     36.000
     11 TN6       1 res   C11      11      0.000     36.000
     12 TN6       1 res   C12      12      0.000     36.000
     13 TN6       1 res   C13      13      0.000     36.000
     14 TN6       1 res   C14      14      0.000     36.000
     15 TC3       1 res   C15      15      0.000     36.000
     16 SC4       1 res   C16      16      0.000     54.000
     17 TC3       1 res   C17      17      0.000     36.000
     18 SC4       1 res   C18      18      0.000     54.000
     19 SC4       1 res   C19      19      0.000     54.000
     20 TC3       1 res   C20      20      0.000     36.000
     21 TN6       1 res   C21      21      0.000     36.000
     22 SN4a      1 res   C22      22      0.000     54.000
     23 TN6       1 res   C23      23      0.000     36.000
     24 TN6       1 res   C24      24      0.000     36.000
     25 TN6       1 res   C25      25      0.000     36.000
     26 TN4a      1 res   C26      26      0.000     36.000
     27 TC4       1 res   C27      27      0.000     36.000
     28 TN6       1 res   C28      28      0.000     36.000
     29 TN6       1 res   C29      29      0.000     36.000
     30 TN6       1 res   C30      30      0.000     36.000
     31 SC4       1 res   C31      31      0.000     54.000
     32 TC3       1 res   C32      32      0.000     36.000

[ bonds ]
;  ai    aj   funct      b0(nm)        k
    1     2     1      0.30162    20000
    1     3     1      0.31341    20000
    2     3     1      0.28082    20000
    3     4     1      0.23840    20000
    3    15     1      0.30190    20000
    3    16     1      0.31475    20000
    4     5     1      0.32239    20000
    5     6     1      0.26450    20000
    5    12     1      0.28975    20000
    5    14     1      0.30007    20000
    6     7     1      0.29081    20000
    7     8     1      0.23776    20000
    7     9     1      0.24563    20000
    7    11     1      0.30634    20000
    9    10     1      0.24669    20000
   10    11     1      0.26117    20000
   12    13     1      0.23766    20000
   13    14     1      0.21325    20000
   15    16     1      0.26706    20000
   16    17     1      0.40065    20000
   16    18     1      0.34934    20000
   17    18     1      0.31798    20000
   18    19     1      0.41510    20000
   18    32     1      0.30276    20000
   19    20     1      0.30971    20000
   19    31     1      0.39809    20000
   19    32     1      0.32326    20000
   20    21     1      0.26357    20000
   21    22     1      0.24204    20000
   21    31     1      0.24744    20000
   22    23     1      0.24488    20000
   22    25     1      0.27438    20000
   23    24     1      0.26740    20000
   24    25     1      0.22440    20000
   25    26     1      0.19633    20000
   26    27     1      0.29638    20000
   26    30     1      0.23999    20000
   27    28     1      0.24921    20000
   28    29     1      0.24510    20000
   29    30     1      0.23525    20000
