1TPCN05001
24
    1res  C1    1   -0.966  -0.235  -0.174
    1res  C2    2   -1.005  -0.036   0.038
    1res  C3    3   -0.749  -0.117  -0.045
    1res  C4    4   -0.749  -0.114   0.273
    1res  C5    5   -0.677   0.188   0.144
    1res  C6    6   -0.518   0.146  -0.072
    1res  C7    7   -0.390  -0.193  -0.027
    1res  C8    8   -0.334   0.013   0.150
    1res  C9    9   -0.064  -0.027   0.081
    1res  C10   10    0.007  -0.054  -0.186
    1res  C11   11    0.215   0.032  -0.073
    1res  C12   12    0.465   0.139  -0.101
    1res  C13   13    0.653   0.384  -0.125
    1res  C14   14    0.695   0.112  -0.253
    1res  C15   15    0.657  -0.063  -0.120
    1res  C16   16    0.921  -0.056   0.041
    1res  C17   17    1.139   0.030  -0.061
    1res  C18   18    1.098  -0.234   0.040
    1res  C19   19    0.920  -0.270   0.252
    1res  C20   20    0.730  -0.270   0.134
    1res  C21   21    0.429  -0.112  -0.166
    1res  C22   22    0.128   0.288  -0.030
    1res  C23   23    0.175   0.174   0.241
    1res  C24   24   -0.208   0.241   0.140
  10.00000  10.00000  10.00000
