1TPCN00897
7
    1res  C1    1   -0.234  -0.255  -0.023
    1res  C2    2   -0.314   0.068   0.097
    1res  C3    3   -0.131  -0.012  -0.095
    1res  C4    4   -0.018   0.251  -0.025
    1res  C5    5    0.277  -0.027   0.066
    1res  C6    6    0.211  -0.252   0.108
    1res  C7    7    0.074  -0.121  -0.072
  10.00000  10.00000  10.00000
