[ moleculetype ]
; name        nrexcl
res           1

[ atoms ]
;    nr  type resnr resid  atom  cgnr     charge       mass
      1 N4a       1 res   C1        1      0.000     72.000
      2 TC5       1 res   C2        2      0.000     36.000
      3 TN6       1 res   C3        3      0.000     36.000
      4 TN6       1 res   C4        4      0.000     36.000
      5 TN4a      1 res   C5        5      0.000     36.000
      6 TN6       1 res   C6        6      0.000     36.000
      7 SN6       1 res   C7        7      0.000     54.000
      8 SC4       1 res   C8        8      0.000     54.000
      9 TC3       1 res   C9        9      0.000     36.000
     10 SC4       1 res   C10      10      0.000     54.000
     11 TC3       1 res   C11      11      0.000     36.000
     12 SC4       1 res   C12      12      0.000     54.000
     13 SC5       1 res   C13      13      0.000     54.000
     14 SC4       1 res   C14      14      0.000     54.000
     15 TC3       1 res   C15      15      0.000     36.000
     16 SN4a      1 res   C16      16      0.000     54.000
     17 SN4a      1 res   C17      17      0.000     54.000
     18 TP1       1 res   C18      18      0.000     36.000
     19 TN6       1 res   C19      19      0.000     36.000
     20 TN6       1 res   C20      20      0.000     36.000
     21 TN6       1 res   C21      21      0.000     36.000
     22 TC3       1 res   C22      22      0.000     36.000
     23 TC4       1 res   C23      23      0.000     36.000
     24 TP1       1 res   C24      24      0.000     36.000

[ bonds ]
;  ai    aj   funct      b0(nm)        k
    1     2     1      0.33472    20000
    2     3     1      0.22672    20000
    2     5     1      0.30660    20000
    3     4     1      0.21542    20000
    4     5     1      0.24960    20000
    5     6     1      0.20879    20000
    6     7     1      0.26882    20000
    6    23     1      0.28431    20000
    7     8     1      0.30246    20000
    8     9     1      0.36685    20000
    8    10     1      0.24803    20000
    8    23     1      0.41077    20000
    9    10     1      0.30256    20000
   10    11     1      0.37819    20000
   10    12     1      0.26704    20000
   11    12     1      0.34639    20000
   12    13     1      0.30527    20000
   12    22     1      0.31610    20000
   13    14     1      0.27845    20000
   13    15     1      0.28314    20000
   13    16     1      0.35396    20000
   13    22     1      0.31418    20000
   14    15     1      0.29115    20000
   16    17     1      0.29044    20000
   17    18     1      0.31935    20000
   17    19     1      0.30673    20000
   17    21     1      0.26614    20000
   19    20     1      0.23790    20000
   20    21     1      0.23442    20000
   23    24     1      0.28613    20000
