Generated with MDTraj, t= 0.0
 63
    1UNL     C1    1  -0.190  -0.266  -0.252
    1UNL     C2    2  -0.065  -0.224  -0.177
    1UNL     C3    3   0.042  -0.338  -0.169
    1UNL     C4    4   0.159  -0.288  -0.080
    1UNL     O1    5   0.254  -0.391  -0.052
    1UNL     O2    6   0.212  -0.171  -0.149
    1UNL     C5    7   0.107  -0.074  -0.145
    1UNL     O3    8   0.003  -0.111  -0.238
    1UNL     C6    9   0.042  -0.090  -0.001
    1UNL     C7   10   0.046   0.028   0.096
    1UNL     O4   11   0.175   0.045   0.150
    1UNL     C8   12   0.253   0.118   0.064
    1UNL     O5   13   0.209   0.171  -0.036
    1UNL     C9   14   0.396   0.127   0.101
    1UNL    C10   15   0.436   0.071   0.221
    1UNL    C11   16   0.568   0.073   0.260
    1UNL    C12   17   0.663   0.131   0.179
    1UNL    C13   18   0.626   0.186   0.059
    1UNL    C14   19   0.493   0.186   0.016
    1UNL     O6   20   0.459   0.241  -0.104
    1UNL    C15   21   0.098  -0.226   0.053
    1UNL    C16   22  -0.048  -0.266   0.085
    1UNL    C17   23  -0.092  -0.170  -0.029
    1UNL     O7   24  -0.216  -0.102  -0.008
    1UNL    C18   25  -0.229   0.019  -0.084
    1UNL     O8   26  -0.162   0.133  -0.028
    1UNL    C19   27  -0.238   0.216   0.065
    1UNL    C20   28  -0.283   0.346  -0.001
    1UNL     O9   29  -0.336   0.436   0.094
    1UNL    C21   30  -0.355   0.141   0.133
    1UNL    O10   31  -0.306   0.053   0.232
    1UNL    C22   32  -0.447   0.066   0.031
    1UNL    O11   33  -0.479  -0.061   0.082
    1UNL    C23   34  -0.379   0.050  -0.108
    1UNL    O12   35  -0.396   0.164  -0.191
    1UNL     H1   36  -0.240  -0.348  -0.201
    1UNL     H2   37  -0.260  -0.183  -0.259
    1UNL     H3   38  -0.165  -0.298  -0.353
    1UNL     H4   39  -0.001  -0.431  -0.131
    1UNL     H5   40   0.081  -0.358  -0.269
    1UNL     H6   41   0.211  -0.463  -0.001
    1UNL     H7   42   0.144   0.028  -0.166
    1UNL     H8   43   0.018   0.120   0.045
    1UNL     H9   44  -0.023   0.012   0.180
    1UNL    H10   45   0.361   0.026   0.284
    1UNL    H11   46   0.597   0.030   0.355
    1UNL    H12   47   0.766   0.132   0.209
    1UNL    H13   48   0.701   0.231  -0.005
    1UNL    H14   49   0.539   0.276  -0.151
    1UNL    H15   50   0.168  -0.215   0.137
    1UNL    H16   51  -0.072  -0.372   0.066
    1UNL    H17   52  -0.084  -0.234   0.183
    1UNL    H18   53  -0.179   0.002  -0.180
    1UNL    H19   54  -0.165   0.240   0.144
    1UNL    H20   55  -0.360   0.324  -0.074
    1UNL    H21   56  -0.199   0.393  -0.052
    1UNL    H22   57  -0.362   0.521   0.052
    1UNL    H23   58  -0.415   0.217   0.187
    1UNL    H24   59  -0.381  -0.002   0.265
    1UNL    H25   60  -0.542   0.120   0.018
    1UNL    H26   61  -0.395  -0.113   0.078
    1UNL    H27   62  -0.426  -0.035  -0.159
    1UNL    H28   63  -0.338   0.158  -0.270
   0.00000   0.00000   0.00000   0.00000   0.00000   0.00000   0.00000   0.00000   0.00000
Generated with MDTraj, t= 1.0
 63
    1UNL     C1    1  -0.198  -0.256  -0.258
    1UNL     C2    2  -0.068  -0.224  -0.178
    1UNL     C3    3   0.023  -0.342  -0.164
    1UNL     C4    4   0.152  -0.295  -0.076
    1UNL     O1    5   0.253  -0.402  -0.065
    1UNL     O2    6   0.203  -0.181  -0.140
    1UNL     C5    7   0.102  -0.082  -0.134
    1UNL     O3    8   0.006  -0.110  -0.231
    1UNL     C6    9   0.036  -0.099   0.005
    1UNL     C7   10   0.052   0.019   0.106
    1UNL     O4   11   0.186   0.029   0.140
    1UNL     C8   12   0.258   0.118   0.062
    1UNL     O5   13   0.206   0.184  -0.028
    1UNL     C9   14   0.395   0.143   0.109
    1UNL    C10   15   0.442   0.118   0.235
    1UNL    C11   16   0.573   0.120   0.265
    1UNL    C12   17   0.669   0.157   0.175
    1UNL    C13   18   0.622   0.193   0.046
    1UNL    C14   19   0.485   0.186   0.010
    1UNL     O6   20   0.465   0.230  -0.119
    1UNL    C15   21   0.092  -0.238   0.060
    1UNL    C16   22  -0.060  -0.286   0.077
    1UNL    C17   23  -0.099  -0.176  -0.032
    1UNL     O7   24  -0.227  -0.113  -0.012
    1UNL    C18   25  -0.229   0.018  -0.075
    1UNL     O8   26  -0.155   0.120  -0.005
    1UNL    C19   27  -0.231   0.203   0.078
    1UNL    C20   28  -0.275   0.333   0.012
    1UNL     O9   29  -0.319   0.429   0.100
    1UNL    C21   30  -0.352   0.134   0.136
    1UNL    O10   31  -0.310   0.022   0.207
    1UNL    C22   32  -0.450   0.086   0.028
    1UNL    O11   33  -0.514  -0.035   0.059
    1UNL    C23   34  -0.370   0.064  -0.113
    1UNL    O12   35  -0.362   0.174  -0.201
    1UNL     H1   36  -0.252  -0.337  -0.209
    1UNL     H2   37  -0.263  -0.173  -0.254
    1UNL     H3   38  -0.189  -0.298  -0.359
    1UNL     H4   39  -0.029  -0.430  -0.129
    1UNL     H5   40   0.056  -0.370  -0.264
    1UNL     H6   41   0.295  -0.401   0.025
    1UNL     H7   42   0.155   0.012  -0.144
    1UNL     H8   43   0.028   0.116   0.069
    1UNL     H9   44  -0.003  -0.003   0.200
    1UNL    H10   45   0.364   0.080   0.300
    1UNL    H11   46   0.615   0.094   0.362
    1UNL    H12   47   0.773   0.142   0.202
    1UNL    H13   48   0.693   0.201  -0.036
    1UNL    H14   49   0.548   0.240  -0.172
    1UNL    H15   50   0.147  -0.237   0.156
    1UNL    H16   51  -0.053  -0.398   0.059
    1UNL    H17   52  -0.096  -0.259   0.170
    1UNL    H18   53  -0.164   0.012  -0.166
    1UNL    H19   54  -0.164   0.225   0.161
    1UNL    H20   55  -0.354   0.307  -0.062
    1UNL    H21   56  -0.180   0.367  -0.033
    1UNL    H22   57  -0.349   0.519   0.063
    1UNL    H23   58  -0.407   0.201   0.207
    1UNL    H24   59  -0.210   0.015   0.183
    1UNL    H25   60  -0.531   0.157   0.000
    1UNL    H26   61  -0.454  -0.084   0.117
    1UNL    H27   62  -0.424  -0.018  -0.160
    1UNL    H28   63  -0.427   0.166  -0.277
   0.00000   0.00000   0.00000   0.00000   0.00000   0.00000   0.00000   0.00000   0.00000
Generated with MDTraj, t= 2.0
 63
    1UNL     C1    1  -0.182  -0.249  -0.250
    1UNL     C2    2  -0.056  -0.225  -0.175
    1UNL     C3    3   0.030  -0.355  -0.163
    1UNL     C4    4   0.162  -0.312  -0.083
    1UNL     O1    5   0.238  -0.425  -0.071
    1UNL     O2    6   0.221  -0.188  -0.148
    1UNL     C5    7   0.121  -0.089  -0.139
    1UNL     O3    8   0.024  -0.116  -0.236
    1UNL     C6    9   0.052  -0.110  -0.003
    1UNL     C7   10   0.051  -0.003   0.099
    1UNL     O4   11   0.183   0.017   0.154
    1UNL     C8   12   0.253   0.107   0.080
    1UNL     O5   13   0.200   0.175  -0.006
    1UNL     C9   14   0.396   0.140   0.103
    1UNL    C10   15   0.445   0.117   0.233
    1UNL    C11   16   0.572   0.151   0.263
    1UNL    C12   17   0.657   0.208   0.167
    1UNL    C13   18   0.612   0.220   0.040
    1UNL    C14   19   0.481   0.185   0.003
    1UNL     O6   20   0.458   0.183  -0.131
    1UNL    C15   21   0.096  -0.255   0.049
    1UNL    C16   22  -0.058  -0.280   0.081
    1UNL    C17   23  -0.089  -0.170  -0.027
    1UNL     O7   24  -0.209  -0.097  -0.000
    1UNL    C18   25  -0.224   0.027  -0.074
    1UNL     O8   26  -0.160   0.137  -0.014
    1UNL    C19   27  -0.233   0.205   0.087
    1UNL    C20   28  -0.251   0.353   0.041
    1UNL     O9   29  -0.317   0.427   0.139
    1UNL    C21   30  -0.365   0.134   0.133
    1UNL    O10   31  -0.336   0.019   0.216
    1UNL    C22   32  -0.448   0.100   0.012
    1UNL    O11   33  -0.542   0.010   0.045
    1UNL    C23   34  -0.371   0.057  -0.117
    1UNL    O12   35  -0.378   0.150  -0.220
    1UNL     H1   36  -0.244  -0.327  -0.207
    1UNL     H2   37  -0.241  -0.163  -0.267
    1UNL     H3   38  -0.156  -0.297  -0.346
    1UNL     H4   39  -0.013  -0.439  -0.113
    1UNL     H5   40   0.041  -0.395  -0.262
    1UNL     H6   41   0.261  -0.463  -0.160
    1UNL     H7   42   0.152   0.015  -0.153
    1UNL     H8   43   0.025   0.085   0.050
    1UNL     H9   44  -0.024  -0.032   0.180
    1UNL    H10   45   0.370   0.078   0.302
    1UNL    H11   46   0.597   0.126   0.366
    1UNL    H12   47   0.761   0.234   0.187
    1UNL    H13   48   0.691   0.259  -0.022
    1UNL    H14   49   0.534   0.190  -0.194
    1UNL    H15   50   0.165  -0.236   0.133
    1UNL    H16   51  -0.106  -0.380   0.059
    1UNL    H17   52  -0.092  -0.244   0.171
    1UNL    H18   53  -0.172   0.016  -0.173
    1UNL    H19   54  -0.171   0.204   0.174
    1UNL    H20   55  -0.304   0.351  -0.059
    1UNL    H21   56  -0.148   0.391   0.027
    1UNL    H22   57  -0.349   0.516   0.107
    1UNL    H23   58  -0.426   0.211   0.194
    1UNL    H24   59  -0.301  -0.034   0.145
    1UNL    H25   60  -0.495   0.199  -0.020
    1UNL    H26   61  -0.538  -0.007   0.137
    1UNL    H27   62  -0.416  -0.039  -0.146
    1UNL    H28   63  -0.450   0.123  -0.283
   0.00000   0.00000   0.00000   0.00000   0.00000   0.00000   0.00000   0.00000   0.00000
Generated with MDTraj, t= 3.0
 63
    1UNL     C1    1  -0.190  -0.244  -0.265
    1UNL     C2    2  -0.063  -0.228  -0.183
    1UNL     C3    3   0.037  -0.343  -0.190
    1UNL     C4    4   0.153  -0.313  -0.095
    1UNL     O1    5   0.231  -0.428  -0.067
    1UNL     O2    6   0.221  -0.197  -0.145
    1UNL     C5    7   0.124  -0.091  -0.132
    1UNL     O3    8   0.021  -0.116  -0.229
    1UNL     C6    9   0.047  -0.114   0.003
    1UNL     C7   10   0.055  -0.008   0.110
    1UNL     O4   11   0.188   0.005   0.155
    1UNL     C8   12   0.257   0.100   0.077
    1UNL     O5   13   0.198   0.151  -0.021
    1UNL     C9   14   0.391   0.142   0.104
    1UNL    C10   15   0.438   0.156   0.237
    1UNL    C11   16   0.572   0.196   0.266
    1UNL    C12   17   0.656   0.222   0.160
    1UNL    C13   18   0.612   0.217   0.030
    1UNL    C14   19   0.484   0.182  -0.004
    1UNL     O6   20   0.456   0.170  -0.134
    1UNL    C15   21   0.088  -0.256   0.045
    1UNL    C16   22  -0.055  -0.297   0.070
    1UNL    C17   23  -0.092  -0.180  -0.029
    1UNL     O7   24  -0.208  -0.101   0.012
    1UNL    C18   25  -0.212   0.020  -0.059
    1UNL     O8   26  -0.158   0.141  -0.000
    1UNL    C19   27  -0.223   0.203   0.109
    1UNL    C20   28  -0.238   0.351   0.077
    1UNL     O9   29  -0.319   0.429   0.165
    1UNL    C21   30  -0.363   0.139   0.132
    1UNL    O10   31  -0.343   0.016   0.207
    1UNL    C22   32  -0.446   0.121  -0.001
    1UNL    O11   33  -0.570   0.058   0.016
    1UNL    C23   34  -0.363   0.041  -0.114
    1UNL    O12   35  -0.364   0.110  -0.233
    1UNL     H1   36  -0.257  -0.319  -0.229
    1UNL     H2   37  -0.239  -0.145  -0.264
    1UNL     H3   38  -0.171  -0.273  -0.367
    1UNL     H4   39  -0.008  -0.438  -0.179
    1UNL     H5   40   0.086  -0.359  -0.285
    1UNL     H6   41   0.314  -0.418  -0.016
    1UNL     H7   42   0.173   0.006  -0.139
    1UNL     H8   43   0.018   0.080   0.069
    1UNL     H9   44  -0.010  -0.048   0.197
    1UNL    H10   45   0.363   0.136   0.310
    1UNL    H11   46   0.604   0.209   0.369
    1UNL    H12   47   0.748   0.266   0.187
    1UNL    H13   48   0.683   0.263  -0.038
    1UNL    H14   49   0.531   0.161  -0.199
    1UNL    H15   50   0.154  -0.252   0.135
    1UNL    H16   51  -0.104  -0.392   0.043
    1UNL    H17   52  -0.093  -0.272   0.165
    1UNL    H18   53  -0.148   0.009  -0.154
    1UNL    H19   54  -0.167   0.183   0.196
    1UNL    H20   55  -0.274   0.364  -0.033
    1UNL    H21   56  -0.137   0.397   0.074
    1UNL    H22   57  -0.317   0.515   0.127
    1UNL    H23   58  -0.422   0.210   0.205
    1UNL    H24   59  -0.257  -0.025   0.170
    1UNL    H25   60  -0.479   0.223  -0.038
    1UNL    H26   61  -0.555  -0.041   0.039
    1UNL    H27   62  -0.405  -0.061  -0.121
    1UNL    H28   63  -0.452   0.109  -0.275
   0.00000   0.00000   0.00000   0.00000   0.00000   0.00000   0.00000   0.00000   0.00000
Generated with MDTraj, t= 4.0
 63
    1UNL     C1    1  -0.205  -0.233  -0.252
    1UNL     C2    2  -0.067  -0.214  -0.175
    1UNL     C3    3   0.026  -0.336  -0.190
    1UNL     C4    4   0.154  -0.326  -0.091
    1UNL     O1    5   0.245  -0.441  -0.089
    1UNL     O2    6   0.220  -0.203  -0.145
    1UNL     C5    7   0.123  -0.095  -0.127
    1UNL     O3    8   0.015  -0.112  -0.229
    1UNL     C6    9   0.060  -0.121   0.015
    1UNL     C7   10   0.072  -0.010   0.120
    1UNL     O4   11   0.203   0.019   0.147
    1UNL     C8   12   0.253   0.116   0.066
    1UNL     O5   13   0.189   0.175  -0.025
    1UNL     C9   14   0.391   0.155   0.099
    1UNL    C10   15   0.421   0.184   0.231
    1UNL    C11   16   0.552   0.218   0.261
    1UNL    C12   17   0.649   0.232   0.165
    1UNL    C13   18   0.616   0.212   0.030
    1UNL    C14   19   0.483   0.170  -0.004
    1UNL     O6   20   0.459   0.141  -0.135
    1UNL    C15   21   0.109  -0.267   0.049
    1UNL    C16   22  -0.035  -0.300   0.085
    1UNL    C17   23  -0.079  -0.189  -0.016
    1UNL     O7   24  -0.204  -0.111   0.017
    1UNL    C18   25  -0.215   0.006  -0.059
    1UNL     O8   26  -0.154   0.117   0.006
    1UNL    C19   27  -0.225   0.184   0.116
    1UNL    C20   28  -0.214   0.336   0.100
    1UNL     O9   29  -0.303   0.400   0.189
    1UNL    C21   30  -0.377   0.145   0.124
    1UNL    O10   31  -0.390   0.016   0.184
    1UNL    C22   32  -0.441   0.146  -0.012
    1UNL    O11   33  -0.576   0.105  -0.001
    1UNL    C23   34  -0.362   0.052  -0.110
    1UNL    O12   35  -0.362   0.094  -0.251
    1UNL     H1   36  -0.263  -0.310  -0.207
    1UNL     H2   37  -0.264  -0.139  -0.256
    1UNL     H3   38  -0.188  -0.263  -0.353
    1UNL     H4   39  -0.012  -0.434  -0.183
    1UNL     H5   40   0.067  -0.328  -0.288
    1UNL     H6   41   0.304  -0.449  -0.166
    1UNL     H7   42   0.176  -0.005  -0.155
    1UNL     H8   43   0.027   0.075   0.083
    1UNL     H9   44   0.019  -0.044   0.217
    1UNL    H10   45   0.346   0.161   0.308
    1UNL    H11   46   0.577   0.241   0.365
    1UNL    H12   47   0.743   0.287   0.193
    1UNL    H13   48   0.689   0.234  -0.048
    1UNL    H14   49   0.536   0.120  -0.194
    1UNL    H15   50   0.177  -0.283   0.135
    1UNL    H16   51  -0.063  -0.400   0.067
    1UNL    H17   52  -0.057  -0.260   0.186
    1UNL    H18   53  -0.150  -0.013  -0.153
    1UNL    H19   54  -0.187   0.162   0.211
    1UNL    H20   55  -0.255   0.368  -0.004
    1UNL    H21   56  -0.114   0.387   0.107
    1UNL    H22   57  -0.303   0.497   0.181
    1UNL    H23   58  -0.440   0.228   0.182
    1UNL    H24   59  -0.315  -0.038   0.155
    1UNL    H25   60  -0.446   0.246  -0.063
    1UNL    H26   61  -0.580   0.014   0.038
    1UNL    H27   62  -0.418  -0.046  -0.100
    1UNL    H28   63  -0.450   0.110  -0.287
   0.00000   0.00000   0.00000   0.00000   0.00000   0.00000   0.00000   0.00000   0.00000
Generated with MDTraj, t= 5.0
 63
    1UNL     C1    1  -0.204  -0.257  -0.259
    1UNL     C2    2  -0.073  -0.242  -0.173
    1UNL     C3    3   0.034  -0.357  -0.185
    1UNL     C4    4   0.155  -0.315  -0.097
    1UNL     O1    5   0.243  -0.423  -0.078
    1UNL     O2    6   0.211  -0.202  -0.164
    1UNL     C5    7   0.109  -0.100  -0.153
    1UNL     O3    8  -0.006  -0.124  -0.238
    1UNL     C6    9   0.050  -0.120  -0.003
    1UNL     C7   10   0.071  -0.008   0.098
    1UNL     O4   11   0.194   0.033   0.152
    1UNL     C8   12   0.253   0.123   0.076
    1UNL     O5   13   0.196   0.190  -0.014
    1UNL     C9   14   0.396   0.168   0.108
    1UNL    C10   15   0.428   0.205   0.233
    1UNL    C11   16   0.552   0.253   0.256
    1UNL    C12   17   0.653   0.254   0.157
    1UNL    C13   18   0.621   0.197   0.033
    1UNL    C14   19   0.486   0.162  -0.000
    1UNL     O6   20   0.445   0.116  -0.129
    1UNL    C15   21   0.107  -0.256   0.041
    1UNL    C16   22  -0.047  -0.299   0.083
    1UNL    C17   23  -0.092  -0.192  -0.023
    1UNL     O7   24  -0.199  -0.106   0.012
    1UNL    C18   25  -0.201   0.014  -0.053
    1UNL     O8   26  -0.154   0.126   0.022
    1UNL    C19   27  -0.230   0.180   0.136
    1UNL    C20   28  -0.201   0.329   0.139
    1UNL     O9   29  -0.275   0.386   0.247
    1UNL    C21   30  -0.379   0.148   0.112
    1UNL    O10   31  -0.410   0.022   0.172
    1UNL    C22   32  -0.423   0.152  -0.033
    1UNL    O11   33  -0.561   0.141  -0.039
    1UNL    C23   34  -0.352   0.032  -0.106
    1UNL    O12   35  -0.367   0.042  -0.253
    1UNL     H1   36  -0.269  -0.328  -0.207
    1UNL     H2   37  -0.256  -0.162  -0.274
    1UNL     H3   38  -0.180  -0.299  -0.355
    1UNL     H4   39  -0.004  -0.454  -0.161
    1UNL     H5   40   0.078  -0.358  -0.280
    1UNL     H6   41   0.329  -0.382  -0.110
    1UNL     H7   42   0.145   0.002  -0.169
    1UNL     H8   43   0.025   0.079   0.063
    1UNL     H9   44   0.006  -0.043   0.188
    1UNL    H10   45   0.359   0.191   0.314
    1UNL    H11   46   0.572   0.274   0.360
    1UNL    H12   47   0.751   0.284   0.170
    1UNL    H13   48   0.697   0.190  -0.041
    1UNL    H14   49   0.521   0.113  -0.188
    1UNL    H15   50   0.181  -0.259   0.125
    1UNL    H16   51  -0.084  -0.392   0.056
    1UNL    H17   52  -0.062  -0.262   0.189
    1UNL    H18   53  -0.136   0.017  -0.150
    1UNL    H19   54  -0.195   0.123   0.215
    1UNL    H20   55  -0.216   0.389   0.041
    1UNL    H21   56  -0.097   0.343   0.173
    1UNL    H22   57  -0.251   0.481   0.277
    1UNL    H23   58  -0.444   0.234   0.170
    1UNL    H24   59  -0.371  -0.054   0.118
    1UNL    H25   60  -0.390   0.241  -0.091
    1UNL    H26   61  -0.581   0.055  -0.005
    1UNL    H27   62  -0.411  -0.057  -0.075
    1UNL    H28   63  -0.461   0.058  -0.277
   0.00000   0.00000   0.00000   0.00000   0.00000   0.00000   0.00000   0.00000   0.00000
Generated with MDTraj, t= 6.0
 63
    1UNL     C1    1  -0.203  -0.272  -0.232
    1UNL     C2    2  -0.070  -0.235  -0.161
    1UNL     C3    3   0.029  -0.357  -0.183
    1UNL     C4    4   0.156  -0.314  -0.104
    1UNL     O1    5   0.247  -0.423  -0.088
    1UNL     O2    6   0.207  -0.194  -0.162
    1UNL     C5    7   0.112  -0.086  -0.143
    1UNL     O3    8  -0.006  -0.121  -0.218
    1UNL     C6    9   0.064  -0.108   0.006
    1UNL     C7   10   0.082   0.003   0.111
    1UNL     O4   11   0.213   0.032   0.147
    1UNL     C8   12   0.254   0.133   0.067
    1UNL     O5   13   0.175   0.194  -0.006
    1UNL     C9   14   0.391   0.168   0.089
    1UNL    C10   15   0.421   0.216   0.220
    1UNL    C11   16   0.548   0.266   0.251
    1UNL    C12   17   0.642   0.253   0.151
    1UNL    C13   18   0.620   0.194   0.031
    1UNL    C14   19   0.496   0.148  -0.003
    1UNL     O6   20   0.461   0.091  -0.123
    1UNL    C15   21   0.115  -0.256   0.040
    1UNL    C16   22  -0.030  -0.290   0.088
    1UNL    C17   23  -0.080  -0.182  -0.010
    1UNL     O7   24  -0.188  -0.093   0.025
    1UNL    C18   25  -0.217   0.011  -0.064
    1UNL     O8   26  -0.169   0.134  -0.012
    1UNL    C19   27  -0.237   0.164   0.114
    1UNL    C20   28  -0.188   0.293   0.172
    1UNL     O9   29  -0.242   0.323   0.298
    1UNL    C21   30  -0.394   0.150   0.091
    1UNL    O10   31  -0.446   0.044   0.175
    1UNL    C22   32  -0.430   0.154  -0.057
    1UNL    O11   33  -0.566   0.175  -0.080
    1UNL    C23   34  -0.367   0.026  -0.116
    1UNL    O12   35  -0.372   0.040  -0.260
    1UNL     H1   36  -0.250  -0.366  -0.195
    1UNL     H2   37  -0.269  -0.191  -0.217
    1UNL     H3   38  -0.195  -0.275  -0.341
    1UNL     H4   39  -0.009  -0.447  -0.142
    1UNL     H5   40   0.056  -0.370  -0.283
    1UNL     H6   41   0.306  -0.388  -0.015
    1UNL     H7   42   0.156   0.014  -0.160
    1UNL     H8   43   0.034   0.087   0.070
    1UNL     H9   44   0.021  -0.018   0.207
    1UNL    H10   45   0.338   0.216   0.291
    1UNL    H11   46   0.581   0.297   0.350
    1UNL    H12   47   0.745   0.278   0.187
    1UNL    H13   48   0.693   0.180  -0.050
    1UNL    H14   49   0.547   0.079  -0.166
    1UNL    H15   50   0.202  -0.265   0.110
    1UNL    H16   51  -0.060  -0.386   0.064
    1UNL    H17   52  -0.037  -0.265   0.198
    1UNL    H18   53  -0.151  -0.014  -0.157
    1UNL    H19   54  -0.208   0.085   0.174
    1UNL    H20   55  -0.223   0.377   0.099
    1UNL    H21   56  -0.080   0.295   0.171
    1UNL    H22   57  -0.187   0.390   0.348
    1UNL    H23   58  -0.438   0.254   0.137
    1UNL    H24   59  -0.377  -0.021   0.181
    1UNL    H25   60  -0.381   0.239  -0.107
    1UNL    H26   61  -0.620   0.106  -0.047
    1UNL    H27   62  -0.421  -0.063  -0.078
    1UNL    H28   63  -0.464   0.067  -0.288
   0.00000   0.00000   0.00000   0.00000   0.00000   0.00000   0.00000   0.00000   0.00000
Generated with MDTraj, t= 7.0
 63
    1UNL     C1    1  -0.192  -0.266  -0.255
    1UNL     C2    2  -0.071  -0.226  -0.177
    1UNL     C3    3   0.033  -0.341  -0.165
    1UNL     C4    4   0.156  -0.304  -0.075
    1UNL     O1    5   0.247  -0.413  -0.060
    1UNL     O2    6   0.211  -0.184  -0.151
    1UNL     C5    7   0.108  -0.085  -0.142
    1UNL     O3    8   0.001  -0.114  -0.240
    1UNL     C6    9   0.052  -0.107   0.007
    1UNL     C7   10   0.063   0.021   0.102
    1UNL     O4   11   0.198   0.051   0.147
    1UNL     C8   12   0.259   0.138   0.060
    1UNL     O5   13   0.201   0.186  -0.036
    1UNL     C9   14   0.395   0.176   0.087
    1UNL    C10   15   0.427   0.243   0.209
    1UNL    C11   16   0.555   0.282   0.239
    1UNL    C12   17   0.652   0.250   0.141
    1UNL    C13   18   0.628   0.178   0.031
    1UNL    C14   19   0.497   0.143   0.003
    1UNL     O6   20   0.455   0.087  -0.119
    1UNL    C15   21   0.095  -0.247   0.063
    1UNL    C16   22  -0.046  -0.285   0.086
    1UNL    C17   23  -0.089  -0.180  -0.021
    1UNL     O7   24  -0.213  -0.116   0.005
    1UNL    C18   25  -0.219   0.004  -0.070
    1UNL     O8   26  -0.160   0.116   0.009
    1UNL    C19   27  -0.236   0.152   0.129
    1UNL    C20   28  -0.176   0.268   0.209
    1UNL     O9   29  -0.207   0.269   0.346
    1UNL    C21   30  -0.388   0.172   0.085
    1UNL    O10   31  -0.473   0.077   0.151
    1UNL    C22   32  -0.425   0.164  -0.067
    1UNL    O11   33  -0.568   0.159  -0.080
    1UNL    C23   34  -0.364   0.030  -0.125
    1UNL    O12   35  -0.370   0.012  -0.263
    1UNL     H1   36  -0.260  -0.325  -0.193
    1UNL     H2   37  -0.241  -0.182  -0.305
    1UNL     H3   38  -0.163  -0.329  -0.342
    1UNL     H4   39  -0.008  -0.433  -0.132
    1UNL     H5   40   0.076  -0.355  -0.260
    1UNL     H6   41   0.262  -0.443  -0.152
    1UNL     H7   42   0.155   0.014  -0.169
    1UNL     H8   43   0.023   0.109   0.060
    1UNL     H9   44   0.012   0.006   0.204
    1UNL    H10   45   0.358   0.259   0.288
    1UNL    H11   46   0.585   0.340   0.326
    1UNL    H12   47   0.752   0.273   0.154
    1UNL    H13   48   0.698   0.145  -0.042
    1UNL    H14   49   0.532   0.064  -0.173
    1UNL    H15   50   0.164  -0.247   0.152
    1UNL    H16   51  -0.071  -0.388   0.063
    1UNL    H17   52  -0.094  -0.273   0.183
    1UNL    H18   53  -0.154  -0.014  -0.166
    1UNL    H19   54  -0.235   0.071   0.195
    1UNL    H20   55  -0.218   0.361   0.159
    1UNL    H21   56  -0.071   0.272   0.193
    1UNL    H22   57  -0.159   0.344   0.381
    1UNL    H23   58  -0.429   0.276   0.130
    1UNL    H24   59  -0.428  -0.004   0.169
    1UNL    H25   60  -0.408   0.255  -0.125
    1UNL    H26   61  -0.614   0.090  -0.019
    1UNL    H27   62  -0.418  -0.054  -0.080
    1UNL    H28   63  -0.461   0.027  -0.300
   0.00000   0.00000   0.00000   0.00000   0.00000   0.00000   0.00000   0.00000   0.00000
Generated with MDTraj, t= 8.0
 63
    1UNL     C1    1  -0.185  -0.256  -0.243
    1UNL     C2    2  -0.045  -0.232  -0.173
    1UNL     C3    3   0.054  -0.354  -0.156
    1UNL     C4    4   0.176  -0.304  -0.075
    1UNL     O1    5   0.273  -0.411  -0.030
    1UNL     O2    6   0.237  -0.192  -0.143
    1UNL     C5    7   0.137  -0.090  -0.138
    1UNL     O3    8   0.030  -0.121  -0.230
    1UNL     C6    9   0.063  -0.098   0.001
    1UNL     C7   10   0.050   0.020   0.096
    1UNL     O4   11   0.187   0.052   0.138
    1UNL     C8   12   0.250   0.128   0.043
    1UNL     O5   13   0.194   0.179  -0.052
    1UNL     C9   14   0.389   0.170   0.076
    1UNL    C10   15   0.414   0.227   0.196
    1UNL    C11   16   0.536   0.274   0.225
    1UNL    C12   17   0.646   0.249   0.141
    1UNL    C13   18   0.621   0.178   0.021
    1UNL    C14   19   0.492   0.135  -0.015
    1UNL     O6   20   0.468   0.051  -0.125
    1UNL    C15   21   0.110  -0.235   0.058
    1UNL    C16   22  -0.037  -0.270   0.086
    1UNL    C17   23  -0.077  -0.171  -0.030
    1UNL     O7   24  -0.207  -0.103  -0.004
    1UNL    C18   25  -0.225   0.021  -0.075
    1UNL     O8   26  -0.175   0.131   0.005
    1UNL    C19   27  -0.253   0.140   0.119
    1UNL    C20   28  -0.187   0.239   0.217
    1UNL     O9   29  -0.232   0.211   0.353
    1UNL    C21   30  -0.399   0.184   0.094
    1UNL    O10   31  -0.494   0.109   0.163
    1UNL    C22   32  -0.434   0.172  -0.056
    1UNL    O11   33  -0.567   0.187  -0.084
    1UNL    C23   34  -0.377   0.035  -0.116
    1UNL    O12   35  -0.401   0.041  -0.254
    1UNL     H1   36  -0.220  -0.358  -0.231
    1UNL     H2   37  -0.263  -0.183  -0.215
    1UNL     H3   38  -0.176  -0.236  -0.351
    1UNL     H4   39   0.014  -0.434  -0.103
    1UNL     H5   40   0.090  -0.389  -0.250
    1UNL     H6   41   0.361  -0.382  -0.059
    1UNL     H7   42   0.170   0.014  -0.172
    1UNL     H8   43   0.016   0.117   0.063
    1UNL     H9   44  -0.005  -0.007   0.190
    1UNL    H10   45   0.341   0.243   0.277
    1UNL    H11   46   0.558   0.339   0.309
    1UNL    H12   47   0.749   0.292   0.149
    1UNL    H13   48   0.699   0.159  -0.053
    1UNL    H14   49   0.559   0.046  -0.164
    1UNL    H15   50   0.183  -0.214   0.140
    1UNL    H16   51  -0.068  -0.372   0.054
    1UNL    H17   52  -0.082  -0.248   0.178
    1UNL    H18   53  -0.163   0.011  -0.175
    1UNL    H19   54  -0.250   0.051   0.175
    1UNL    H20   55  -0.213   0.341   0.185
    1UNL    H21   56  -0.085   0.227   0.204
    1UNL    H22   57  -0.211   0.282   0.415
    1UNL    H23   58  -0.405   0.296   0.127
    1UNL    H24   59  -0.452   0.034   0.208
    1UNL    H25   60  -0.391   0.258  -0.106
    1UNL    H26   61  -0.617   0.134  -0.016
    1UNL    H27   62  -0.424  -0.059  -0.087
    1UNL    H28   63  -0.488   0.081  -0.261
   0.00000   0.00000   0.00000   0.00000   0.00000   0.00000   0.00000   0.00000   0.00000
Generated with MDTraj, t= 9.0
 63
    1UNL     C1    1  -0.164  -0.273  -0.262
    1UNL     C2    2  -0.043  -0.234  -0.183
    1UNL     C3    3   0.054  -0.352  -0.164
    1UNL     C4    4   0.160  -0.304  -0.065
    1UNL     O1    5   0.258  -0.386  -0.020
    1UNL     O2    6   0.228  -0.192  -0.130
    1UNL     C5    7   0.129  -0.089  -0.148
    1UNL     O3    8   0.040  -0.127  -0.246
    1UNL     C6    9   0.057  -0.092  -0.009
    1UNL     C7   10   0.051   0.024   0.087
    1UNL     O4   11   0.180   0.070   0.139
    1UNL     C8   12   0.247   0.134   0.042
    1UNL     O5   13   0.205   0.167  -0.067
    1UNL     C9   14   0.393   0.174   0.079
    1UNL    C10   15   0.426   0.255   0.186
    1UNL    C11   16   0.562   0.272   0.213
    1UNL    C12   17   0.664   0.231   0.135
    1UNL    C13   18   0.632   0.164   0.017
    1UNL    C14   19   0.496   0.137  -0.009
    1UNL     O6   20   0.469   0.066  -0.128
    1UNL    C15   21   0.098  -0.228   0.063
    1UNL    C16   22  -0.050  -0.265   0.086
    1UNL    C17   23  -0.083  -0.169  -0.037
    1UNL     O7   24  -0.210  -0.106  -0.009
    1UNL    C18   25  -0.226   0.021  -0.070
    1UNL     O8   26  -0.171   0.128   0.013
    1UNL    C19   27  -0.257   0.128   0.127
    1UNL    C20   28  -0.192   0.202   0.249
    1UNL     O9   29  -0.287   0.196   0.358
    1UNL    C21   30  -0.392   0.191   0.099
    1UNL    O10   31  -0.499   0.136   0.177
    1UNL    C22   32  -0.420   0.179  -0.056
    1UNL    O11   33  -0.551   0.180  -0.088
    1UNL    C23   34  -0.374   0.034  -0.105
    1UNL    O12   35  -0.388   0.020  -0.249
    1UNL     H1   36  -0.239  -0.315  -0.195
    1UNL     H2   37  -0.195  -0.189  -0.328
    1UNL     H3   38  -0.131  -0.350  -0.329
    1UNL     H4   39   0.010  -0.442  -0.131
    1UNL     H5   40   0.105  -0.369  -0.257
    1UNL     H6   41   0.344  -0.340  -0.018
    1UNL     H7   42   0.178   0.009  -0.164
    1UNL     H8   43   0.010   0.114   0.038
    1UNL     H9   44  -0.013   0.001   0.174
    1UNL    H10   45   0.343   0.294   0.241
    1UNL    H11   46   0.584   0.332   0.298
    1UNL    H12   47   0.758   0.274   0.150
    1UNL    H13   48   0.692   0.157  -0.072
    1UNL    H14   49   0.561   0.054  -0.166
    1UNL    H15   50   0.165  -0.221   0.153
    1UNL    H16   51  -0.064  -0.374   0.054
    1UNL    H17   52  -0.087  -0.236   0.179
    1UNL    H18   53  -0.162   0.014  -0.168
    1UNL    H19   54  -0.278   0.026   0.153
    1UNL    H20   55  -0.176   0.304   0.217
    1UNL    H21   56  -0.104   0.156   0.280
    1UNL    H22   57  -0.266   0.247   0.444
    1UNL    H23   58  -0.386   0.303   0.120
    1UNL    H24   59  -0.463   0.086   0.257
    1UNL    H25   60  -0.371   0.258  -0.112
    1UNL    H26   61  -0.598   0.139  -0.014
    1UNL    H27   62  -0.434  -0.045  -0.060
    1UNL    H28   63  -0.471   0.070  -0.266
   0.00000   0.00000   0.00000   0.00000   0.00000   0.00000   0.00000   0.00000   0.00000
Generated with MDTraj, t= 10.0
 63
    1UNL     C1    1  -0.173  -0.289  -0.245
    1UNL     C2    2  -0.047  -0.232  -0.175
    1UNL     C3    3   0.054  -0.346  -0.152
    1UNL     C4    4   0.174  -0.303  -0.065
    1UNL     O1    5   0.262  -0.413  -0.051
    1UNL     O2    6   0.239  -0.193  -0.136
    1UNL     C5    7   0.141  -0.088  -0.145
    1UNL     O3    8   0.031  -0.119  -0.236
    1UNL     C6    9   0.064  -0.094  -0.007
    1UNL     C7   10   0.065   0.031   0.088
    1UNL     O4   11   0.202   0.054   0.118
    1UNL     C8   12   0.259   0.148   0.035
    1UNL     O5   13   0.203   0.212  -0.050
    1UNL     C9   14   0.404   0.174   0.064
    1UNL    C10   15   0.441   0.242   0.183
    1UNL    C11   16   0.575   0.270   0.222
    1UNL    C12   17   0.670   0.228   0.128
    1UNL    C13   18   0.636   0.168   0.010
    1UNL    C14   19   0.507   0.140  -0.024
    1UNL     O6   20   0.479   0.057  -0.132
    1UNL    C15   21   0.112  -0.225   0.058
    1UNL    C16   22  -0.034  -0.248   0.098
    1UNL    C17   23  -0.077  -0.174  -0.031
    1UNL     O7   24  -0.210  -0.123  -0.004
    1UNL    C18   25  -0.222   0.006  -0.056
    1UNL     O8   26  -0.185   0.111   0.033
    1UNL    C19   27  -0.289   0.127   0.138
    1UNL    C20   28  -0.227   0.181   0.269
    1UNL     O9   29  -0.324   0.201   0.363
    1UNL    C21   30  -0.410   0.208   0.087
    1UNL    O10   31  -0.528   0.173   0.160
    1UNL    C22   32  -0.422   0.177  -0.067
    1UNL    O11   33  -0.561   0.183  -0.100
    1UNL    C23   34  -0.365   0.035  -0.106
    1UNL    O12   35  -0.385   0.024  -0.250
    1UNL     H1   36  -0.192  -0.390  -0.206
    1UNL     H2   37  -0.258  -0.223  -0.227
    1UNL     H3   38  -0.161  -0.291  -0.352
    1UNL     H4   39   0.011  -0.434  -0.107
    1UNL     H5   40   0.093  -0.377  -0.247
    1UNL     H6   41   0.345  -0.413  -0.104
    1UNL     H7   42   0.190   0.013  -0.164
    1UNL     H8   43   0.027   0.123   0.042
    1UNL     H9   44   0.005   0.009   0.176
    1UNL    H10   45   0.368   0.261   0.261
    1UNL    H11   46   0.596   0.306   0.323
    1UNL    H12   47   0.775   0.259   0.150
    1UNL    H13   48   0.722   0.142  -0.051
    1UNL    H14   49   0.558   0.050  -0.193
    1UNL    H15   50   0.188  -0.221   0.140
    1UNL    H16   51  -0.076  -0.351   0.099
    1UNL    H17   52  -0.063  -0.199   0.189
    1UNL    H18   53  -0.150   0.006  -0.149
    1UNL    H19   54  -0.331   0.026   0.147
    1UNL    H20   55  -0.181   0.277   0.259
    1UNL    H21   56  -0.159   0.113   0.308
    1UNL    H22   57  -0.284   0.217   0.454
    1UNL    H23   58  -0.384   0.315   0.109
    1UNL    H24   59  -0.499   0.122   0.234
    1UNL    H25   60  -0.367   0.254  -0.123
    1UNL    H26   61  -0.613   0.153  -0.018
    1UNL    H27   62  -0.437  -0.036  -0.062
    1UNL    H28   63  -0.471   0.071  -0.273
   0.00000   0.00000   0.00000   0.00000   0.00000   0.00000   0.00000   0.00000   0.00000
Generated with MDTraj, t= 11.0
 63
    1UNL     C1    1  -0.187  -0.265  -0.222
    1UNL     C2    2  -0.055  -0.223  -0.165
    1UNL     C3    3   0.050  -0.337  -0.160
    1UNL     C4    4   0.173  -0.296  -0.082
    1UNL     O1    5   0.278  -0.397  -0.066
    1UNL     O2    6   0.225  -0.185  -0.155
    1UNL     C5    7   0.124  -0.085  -0.151
    1UNL     O3    8   0.014  -0.121  -0.241
    1UNL     C6    9   0.061  -0.094  -0.003
    1UNL     C7   10   0.074   0.027   0.093
    1UNL     O4   11   0.208   0.043   0.123
    1UNL     C8   12   0.272   0.134   0.040
    1UNL     O5   13   0.215   0.190  -0.049
    1UNL     C9   14   0.408   0.170   0.075
    1UNL    C10   15   0.451   0.243   0.186
    1UNL    C11   16   0.584   0.270   0.208
    1UNL    C12   17   0.679   0.222   0.116
    1UNL    C13   18   0.645   0.160   0.001
    1UNL    C14   19   0.508   0.135  -0.023
    1UNL     O6   20   0.468   0.085  -0.137
    1UNL    C15   21   0.120  -0.228   0.054
    1UNL    C16   22  -0.023  -0.270   0.098
    1UNL    C17   23  -0.073  -0.178  -0.012
    1UNL     O7   24  -0.204  -0.119   0.010
    1UNL    C18   25  -0.222   0.009  -0.039
    1UNL     O8   26  -0.187   0.109   0.056
    1UNL    C19   27  -0.295   0.135   0.153
    1UNL    C20   28  -0.259   0.201   0.284
    1UNL     O9   29  -0.378   0.191   0.364
    1UNL    C21   30  -0.404   0.212   0.074
    1UNL    O10   31  -0.529   0.179   0.126
    1UNL    C22   32  -0.404   0.171  -0.076
    1UNL    O11   33  -0.540   0.181  -0.122
    1UNL    C23   34  -0.358   0.032  -0.092
    1UNL    O12   35  -0.362  -0.004  -0.233
    1UNL     H1   36  -0.239  -0.328  -0.150
    1UNL     H2   37  -0.252  -0.187  -0.255
    1UNL     H3   38  -0.170  -0.328  -0.309
    1UNL     H4   39   0.014  -0.432  -0.117
    1UNL     H5   40   0.092  -0.357  -0.256
    1UNL     H6   41   0.366  -0.351  -0.071
    1UNL     H7   42   0.168   0.017  -0.180
    1UNL     H8   43   0.026   0.110   0.045
    1UNL     H9   44   0.032   0.003   0.189
    1UNL    H10   45   0.382   0.265   0.264
    1UNL    H11   46   0.620   0.311   0.299
    1UNL    H12   47   0.785   0.224   0.132
    1UNL    H13   48   0.717   0.116  -0.066
    1UNL    H14   49   0.529   0.084  -0.215
    1UNL    H15   50   0.195  -0.223   0.135
    1UNL    H16   51  -0.051  -0.372   0.082
    1UNL    H17   52  -0.039  -0.240   0.204
    1UNL    H18   53  -0.148   0.015  -0.131
    1UNL    H19   54  -0.347   0.036   0.166
    1UNL    H20   55  -0.240   0.304   0.271
    1UNL    H21   56  -0.179   0.163   0.337
    1UNL    H22   57  -0.355   0.221   0.451
    1UNL    H23   58  -0.391   0.318   0.093
    1UNL    H24   59  -0.515   0.174   0.228
    1UNL    H25   60  -0.340   0.235  -0.142
    1UNL    H26   61  -0.603   0.178  -0.050
    1UNL    H27   62  -0.430  -0.037  -0.042
    1UNL    H28   63  -0.451  -0.008  -0.275
   0.00000   0.00000   0.00000   0.00000   0.00000   0.00000   0.00000   0.00000   0.00000
Generated with MDTraj, t= 12.0
 63
    1UNL     C1    1  -0.193  -0.266  -0.207
    1UNL     C2    2  -0.056  -0.229  -0.155
    1UNL     C3    3   0.048  -0.342  -0.172
    1UNL     C4    4   0.178  -0.285  -0.104
    1UNL     O1    5   0.286  -0.384  -0.094
    1UNL     O2    6   0.217  -0.162  -0.171
    1UNL     C5    7   0.111  -0.066  -0.137
    1UNL     O3    8  -0.005  -0.100  -0.211
    1UNL     C6    9   0.070  -0.097   0.015
    1UNL     C7   10   0.072   0.020   0.113
    1UNL     O4   11   0.197   0.065   0.144
    1UNL     C8   12   0.263   0.126   0.043
    1UNL     O5   13   0.197   0.165  -0.049
    1UNL     C9   14   0.411   0.158   0.069
    1UNL    C10   15   0.455   0.207   0.190
    1UNL    C11   16   0.588   0.232   0.209
    1UNL    C12   17   0.680   0.234   0.104
    1UNL    C13   18   0.635   0.186  -0.016
    1UNL    C14   19   0.501   0.130  -0.035
    1UNL     O6   20   0.478   0.068  -0.153
    1UNL    C15   21   0.133  -0.234   0.044
    1UNL    C16   22  -0.005  -0.285   0.095
    1UNL    C17   23  -0.069  -0.183  -0.004
    1UNL     O7   24  -0.183  -0.112   0.043
    1UNL    C18   25  -0.212   0.014  -0.020
    1UNL     O8   26  -0.183   0.125   0.073
    1UNL    C19   27  -0.306   0.140   0.155
    1UNL    C20   28  -0.278   0.201   0.285
    1UNL     O9   29  -0.400   0.213   0.370
    1UNL    C21   30  -0.415   0.209   0.062
    1UNL    O10   31  -0.548   0.178   0.102
    1UNL    C22   32  -0.393   0.160  -0.082
    1UNL    O11   33  -0.512   0.192  -0.157
    1UNL    C23   34  -0.349   0.018  -0.084
    1UNL    O12   35  -0.338  -0.027  -0.218
    1UNL     H1   36  -0.221  -0.369  -0.192
    1UNL     H2   37  -0.271  -0.206  -0.160
    1UNL     H3   38  -0.203  -0.246  -0.313
    1UNL     H4   39   0.018  -0.434  -0.119
    1UNL     H5   40   0.060  -0.363  -0.278
    1UNL     H6   41   0.358  -0.332  -0.139
    1UNL     H7   42   0.142   0.039  -0.165
    1UNL     H8   43   0.011   0.094   0.070
    1UNL     H9   44   0.023  -0.020   0.200
    1UNL    H10   45   0.374   0.223   0.263
    1UNL    H11   46   0.625   0.266   0.306
    1UNL    H12   47   0.786   0.256   0.129
    1UNL    H13   48   0.702   0.190  -0.101
    1UNL    H14   49   0.549   0.069  -0.221
    1UNL    H15   50   0.213  -0.231   0.120
    1UNL    H16   51  -0.038  -0.377   0.057
    1UNL    H17   52  -0.034  -0.256   0.202
    1UNL    H18   53  -0.135   0.023  -0.108
    1UNL    H19   54  -0.342   0.032   0.174
    1UNL    H20   55  -0.232   0.297   0.271
    1UNL    H21   56  -0.205   0.143   0.336
    1UNL    H22   57  -0.388   0.242   0.461
    1UNL    H23   58  -0.405   0.313   0.066
    1UNL    H24   59  -0.583   0.228   0.176
    1UNL    H25   60  -0.313   0.224  -0.130
    1UNL    H26   61  -0.599   0.167  -0.109
    1UNL    H27   62  -0.420  -0.045  -0.024
    1UNL    H28   63  -0.307   0.037  -0.284
   0.00000   0.00000   0.00000   0.00000   0.00000   0.00000   0.00000   0.00000   0.00000
Generated with MDTraj, t= 13.0
 63
    1UNL     C1    1  -0.195  -0.295  -0.199
    1UNL     C2    2  -0.064  -0.236  -0.150
    1UNL     C3    3   0.051  -0.335  -0.171
    1UNL     C4    4   0.180  -0.270  -0.109
    1UNL     O1    5   0.291  -0.363  -0.098
    1UNL     O2    6   0.194  -0.147  -0.184
    1UNL     C5    7   0.085  -0.063  -0.150
    1UNL     O3    8  -0.035  -0.110  -0.213
    1UNL     C6    9   0.068  -0.097   0.005
    1UNL     C7   10   0.081   0.003   0.117
    1UNL     O4   11   0.213   0.029   0.152
    1UNL     C8   12   0.265   0.114   0.060
    1UNL     O5   13   0.201   0.167  -0.026
    1UNL     C9   14   0.413   0.154   0.070
    1UNL    C10   15   0.464   0.186   0.191
    1UNL    C11   16   0.593   0.230   0.203
    1UNL    C12   17   0.684   0.219   0.096
    1UNL    C13   18   0.635   0.175  -0.023
    1UNL    C14   19   0.502   0.147  -0.041
    1UNL     O6   20   0.455   0.099  -0.159
    1UNL    C15   21   0.149  -0.224   0.044
    1UNL    C16   22   0.011  -0.287   0.096
    1UNL    C17   23  -0.064  -0.187   0.002
    1UNL     O7   24  -0.186  -0.129   0.047
    1UNL    C18   25  -0.207   0.007  -0.005
    1UNL     O8   26  -0.180   0.116   0.091
    1UNL    C19   27  -0.307   0.139   0.166
    1UNL    C20   28  -0.296   0.238   0.291
    1UNL     O9   29  -0.424   0.247   0.349
    1UNL    C21   30  -0.421   0.197   0.064
    1UNL    O10   31  -0.552   0.169   0.094
    1UNL    C22   32  -0.385   0.163  -0.082
    1UNL    O11   33  -0.498   0.189  -0.163
    1UNL    C23   34  -0.335   0.020  -0.093
    1UNL    O12   35  -0.308  -0.009  -0.230
    1UNL     H1   36  -0.223  -0.382  -0.144
    1UNL     H2   37  -0.274  -0.218  -0.191
    1UNL     H3   38  -0.183  -0.322  -0.304
    1UNL     H4   39   0.035  -0.435  -0.128
    1UNL     H5   40   0.073  -0.349  -0.278
    1UNL     H6   41   0.368  -0.304  -0.092
    1UNL     H7   42   0.096   0.047  -0.170
    1UNL     H8   43   0.025   0.090   0.091
    1UNL     H9   44   0.028  -0.043   0.200
    1UNL    H10   45   0.390   0.191   0.268
    1UNL    H11   46   0.610   0.275   0.299
    1UNL    H12   47   0.781   0.260   0.121
    1UNL    H13   48   0.713   0.162  -0.094
    1UNL    H14   49   0.510   0.124  -0.235
    1UNL    H15   50   0.229  -0.207   0.118
    1UNL    H16   51   0.001  -0.392   0.074
    1UNL    H17   52  -0.007  -0.271   0.207
    1UNL    H18   53  -0.126   0.011  -0.092
    1UNL    H19   54  -0.335   0.034   0.205
    1UNL    H20   55  -0.251   0.335   0.270
    1UNL    H21   56  -0.232   0.190   0.365
    1UNL    H22   57  -0.435   0.308   0.430
    1UNL    H23   58  -0.412   0.298   0.071
    1UNL    H24   59  -0.571   0.213   0.180
    1UNL    H25   60  -0.298   0.228  -0.113
    1UNL    H26   61  -0.578   0.173  -0.115
    1UNL    H27   62  -0.396  -0.064  -0.051
    1UNL    H28   63  -0.277   0.070  -0.277
   0.00000   0.00000   0.00000   0.00000   0.00000   0.00000   0.00000   0.00000   0.00000
Generated with MDTraj, t= 14.0
 63
    1UNL     C1    1  -0.197  -0.279  -0.204
    1UNL     C2    2  -0.063  -0.225  -0.148
    1UNL     C3    3   0.048  -0.332  -0.179
    1UNL     C4    4   0.178  -0.287  -0.106
    1UNL     O1    5   0.288  -0.383  -0.116
    1UNL     O2    6   0.205  -0.160  -0.170
    1UNL     C5    7   0.103  -0.070  -0.129
    1UNL     O3    8  -0.012  -0.100  -0.209
    1UNL     C6    9   0.068  -0.100   0.016
    1UNL     C7   10   0.080   0.023   0.116
    1UNL     O4   11   0.217   0.045   0.144
    1UNL     C8   12   0.265   0.143   0.051
    1UNL     O5   13   0.200   0.198  -0.034
    1UNL     C9   14   0.408   0.152   0.068
    1UNL    C10   15   0.470   0.172   0.195
    1UNL    C11   16   0.605   0.197   0.213
    1UNL    C12   17   0.681   0.204   0.101
    1UNL    C13   18   0.629   0.174  -0.024
    1UNL    C14   19   0.491   0.154  -0.045
    1UNL     O6   20   0.430   0.126  -0.163
    1UNL    C15   21   0.144  -0.232   0.044
    1UNL    C16   22   0.015  -0.292   0.101
    1UNL    C17   23  -0.061  -0.187   0.004
    1UNL     O7   24  -0.186  -0.129   0.047
    1UNL    C18   25  -0.202   0.007  -0.005
    1UNL     O8   26  -0.193   0.103   0.102
    1UNL    C19   27  -0.319   0.130   0.169
    1UNL    C20   28  -0.300   0.226   0.301
    1UNL     O9   29  -0.420   0.281   0.333
    1UNL    C21   30  -0.418   0.199   0.069
    1UNL    O10   31  -0.551   0.151   0.086
    1UNL    C22   32  -0.378   0.161  -0.080
    1UNL    O11   33  -0.491   0.181  -0.167
    1UNL    C23   34  -0.327   0.014  -0.090
    1UNL    O12   35  -0.325  -0.019  -0.225
    1UNL     H1   36  -0.217  -0.374  -0.153
    1UNL     H2   37  -0.278  -0.211  -0.180
    1UNL     H3   38  -0.188  -0.300  -0.311
    1UNL     H4   39   0.028  -0.437  -0.153
    1UNL     H5   40   0.067  -0.327  -0.289
    1UNL     H6   41   0.361  -0.361  -0.176
    1UNL     H7   42   0.134   0.036  -0.151
    1UNL     H8   43   0.031   0.112   0.075
    1UNL     H9   44   0.026   0.008   0.209
    1UNL    H10   45   0.399   0.174   0.279
    1UNL    H11   46   0.641   0.228   0.310
    1UNL    H12   47   0.777   0.249   0.099
    1UNL    H13   48   0.693   0.176  -0.111
    1UNL    H14   49   0.469   0.159  -0.246
    1UNL    H15   50   0.228  -0.211   0.111
    1UNL    H16   51   0.002  -0.403   0.089
    1UNL    H17   52   0.011  -0.277   0.209
    1UNL    H18   53  -0.118   0.034  -0.083
    1UNL    H19   54  -0.373   0.032   0.188
    1UNL    H20   55  -0.221   0.299   0.277
    1UNL    H21   56  -0.265   0.174   0.396
    1UNL    H22   57  -0.403   0.352   0.402
    1UNL    H23   58  -0.422   0.299   0.078
    1UNL    H24   59  -0.595   0.210   0.154
    1UNL    H25   60  -0.307   0.240  -0.118
    1UNL    H26   61  -0.578   0.163  -0.118
    1UNL    H27   62  -0.403  -0.054  -0.049
    1UNL    H28   63  -0.237   0.010  -0.259
   0.00000   0.00000   0.00000   0.00000   0.00000   0.00000   0.00000   0.00000   0.00000
Generated with MDTraj, t= 15.0
 63
    1UNL     C1    1  -0.184  -0.269  -0.221
    1UNL     C2    2  -0.054  -0.234  -0.154
    1UNL     C3    3   0.063  -0.333  -0.171
    1UNL     C4    4   0.188  -0.281  -0.093
    1UNL     O1    5   0.288  -0.381  -0.085
    1UNL     O2    6   0.226  -0.161  -0.159
    1UNL     C5    7   0.116  -0.072  -0.133
    1UNL     O3    8   0.004  -0.108  -0.209
    1UNL     C6    9   0.074  -0.102   0.018
    1UNL     C7   10   0.085   0.008   0.120
    1UNL     O4   11   0.220   0.047   0.154
    1UNL     C8   12   0.257   0.138   0.052
    1UNL     O5   13   0.177   0.188  -0.026
    1UNL     C9   14   0.405   0.153   0.062
    1UNL    C10   15   0.458   0.160   0.190
    1UNL    C11   16   0.597   0.171   0.205
    1UNL    C12   17   0.680   0.181   0.094
    1UNL    C13   18   0.624   0.180  -0.035
    1UNL    C14   19   0.486   0.167  -0.051
    1UNL     O6   20   0.429   0.165  -0.175
    1UNL    C15   21   0.136  -0.243   0.050
    1UNL    C16   22  -0.004  -0.286   0.103
    1UNL    C17   23  -0.061  -0.192   0.001
    1UNL     O7   24  -0.186  -0.127   0.039
    1UNL    C18   25  -0.202   0.012  -0.017
    1UNL     O8   26  -0.191   0.113   0.090
    1UNL    C19   27  -0.314   0.141   0.157
    1UNL    C20   28  -0.298   0.236   0.280
    1UNL     O9   29  -0.419   0.265   0.349
    1UNL    C21   30  -0.419   0.206   0.068
    1UNL    O10   31  -0.547   0.153   0.105
    1UNL    C22   32  -0.383   0.168  -0.080
    1UNL    O11   33  -0.498   0.179  -0.165
    1UNL    C23   34  -0.334   0.020  -0.094
    1UNL    O12   35  -0.340  -0.024  -0.221
    1UNL     H1   36  -0.214  -0.374  -0.205
    1UNL     H2   37  -0.259  -0.207  -0.175
    1UNL     H3   38  -0.177  -0.252  -0.329
    1UNL     H4   39   0.050  -0.441  -0.150
    1UNL     H5   40   0.089  -0.325  -0.280
    1UNL     H6   41   0.360  -0.364  -0.148
    1UNL     H7   42   0.148   0.035  -0.150
    1UNL     H8   43   0.029   0.101   0.089
    1UNL     H9   44   0.035  -0.023   0.211
    1UNL    H10   45   0.407   0.165   0.282
    1UNL    H11   46   0.654   0.165   0.297
    1UNL    H12   47   0.790   0.197   0.096
    1UNL    H13   48   0.693   0.182  -0.119
    1UNL    H14   49   0.489   0.187  -0.251
    1UNL    H15   50   0.215  -0.234   0.125
    1UNL    H16   51  -0.034  -0.397   0.088
    1UNL    H17   52  -0.032  -0.251   0.200
    1UNL    H18   53  -0.117   0.037  -0.095
    1UNL    H19   54  -0.360   0.045   0.189
    1UNL    H20   55  -0.266   0.340   0.248
    1UNL    H21   56  -0.210   0.196   0.345
    1UNL    H22   57  -0.404   0.333   0.417
    1UNL    H23   58  -0.411   0.305   0.085
    1UNL    H24   59  -0.582   0.205   0.179
    1UNL    H25   60  -0.298   0.229  -0.114
    1UNL    H26   61  -0.575   0.178  -0.098
    1UNL    H27   62  -0.390  -0.057  -0.038
    1UNL    H28   63  -0.340   0.061  -0.275
   0.00000   0.00000   0.00000   0.00000   0.00000   0.00000   0.00000   0.00000   0.00000
Generated with MDTraj, t= 16.0
 63
    1UNL     C1    1  -0.173  -0.271  -0.230
    1UNL     C2    2  -0.045  -0.232  -0.161
    1UNL     C3    3   0.071  -0.338  -0.164
    1UNL     C4    4   0.188  -0.288  -0.071
    1UNL     O1    5   0.286  -0.386  -0.047
    1UNL     O2    6   0.227  -0.166  -0.133
    1UNL     C5    7   0.117  -0.072  -0.133
    1UNL     O3    8   0.011  -0.113  -0.218
    1UNL     C6    9   0.064  -0.091   0.018
    1UNL     C7   10   0.068   0.008   0.127
    1UNL     O4   11   0.198   0.050   0.168
    1UNL     C8   12   0.254   0.125   0.069
    1UNL     O5   13   0.182   0.179  -0.013
    1UNL     C9   14   0.409   0.152   0.066
    1UNL    C10   15   0.473   0.131   0.185
    1UNL    C11   16   0.609   0.148   0.192
    1UNL    C12   17   0.681   0.189   0.082
    1UNL    C13   18   0.619   0.202  -0.042
    1UNL    C14   19   0.481   0.190  -0.052
    1UNL     O6   20   0.412   0.194  -0.177
    1UNL    C15   21   0.130  -0.230   0.065
    1UNL    C16   22  -0.012  -0.276   0.099
    1UNL    C17   23  -0.067  -0.183  -0.010
    1UNL     O7   24  -0.190  -0.120   0.026
    1UNL    C18   25  -0.208   0.015  -0.038
    1UNL     O8   26  -0.178   0.122   0.058
    1UNL    C19   27  -0.298   0.135   0.135
    1UNL    C20   28  -0.270   0.214   0.260
    1UNL     O9   29  -0.384   0.221   0.356
    1UNL    C21   30  -0.411   0.208   0.062
    1UNL    O10   31  -0.537   0.192   0.124
    1UNL    C22   32  -0.401   0.171  -0.085
    1UNL    O11   33  -0.535   0.168  -0.150
    1UNL    C23   34  -0.348   0.022  -0.105
    1UNL    O12   35  -0.340  -0.023  -0.235
    1UNL     H1   36  -0.234  -0.332  -0.161
    1UNL     H2   37  -0.236  -0.185  -0.255
    1UNL     H3   38  -0.160  -0.335  -0.318
    1UNL     H4   39   0.036  -0.444  -0.149
    1UNL     H5   40   0.105  -0.337  -0.271
    1UNL     H6   41   0.369  -0.335  -0.027
    1UNL     H7   42   0.148   0.035  -0.146
    1UNL     H8   43   0.013   0.106   0.099
    1UNL     H9   44   0.021  -0.031   0.217
    1UNL    H10   45   0.411   0.090   0.267
    1UNL    H11   46   0.651   0.118   0.288
    1UNL    H12   47   0.784   0.178   0.083
    1UNL    H13   48   0.674   0.210  -0.134
    1UNL    H14   49   0.486   0.212  -0.241
    1UNL    H15   50   0.200  -0.230   0.149
    1UNL    H16   51  -0.029  -0.389   0.079
    1UNL    H17   52  -0.036  -0.244   0.199
    1UNL    H18   53  -0.138   0.041  -0.130
    1UNL    H19   54  -0.335   0.035   0.152
    1UNL    H20   55  -0.247   0.318   0.219
    1UNL    H21   56  -0.177   0.177   0.323
    1UNL    H22   57  -0.371   0.261   0.442
    1UNL    H23   58  -0.399   0.308   0.062
    1UNL    H24   59  -0.529   0.176   0.222
    1UNL    H25   60  -0.339   0.240  -0.140
    1UNL    H26   61  -0.589   0.213  -0.086
    1UNL    H27   62  -0.419  -0.044  -0.057
    1UNL    H28   63  -0.388   0.049  -0.283
   0.00000   0.00000   0.00000   0.00000   0.00000   0.00000   0.00000   0.00000   0.00000
Generated with MDTraj, t= 17.0
 63
    1UNL     C1    1  -0.165  -0.260  -0.240
    1UNL     C2    2  -0.039  -0.228  -0.154
    1UNL     C3    3   0.067  -0.340  -0.147
    1UNL     C4    4   0.182  -0.289  -0.051
    1UNL     O1    5   0.279  -0.393  -0.025
    1UNL     O2    6   0.238  -0.173  -0.112
    1UNL     C5    7   0.130  -0.077  -0.112
    1UNL     O3    8   0.030  -0.114  -0.214
    1UNL     C6    9   0.056  -0.097   0.027
    1UNL     C7   10   0.058   0.023   0.124
    1UNL     O4   11   0.192   0.054   0.151
    1UNL     C8   12   0.254   0.141   0.070
    1UNL     O5   13   0.189   0.209  -0.005
    1UNL     C9   14   0.403   0.154   0.067
    1UNL    C10   15   0.475   0.108   0.178
    1UNL    C11   16   0.612   0.126   0.184
    1UNL    C12   17   0.675   0.184   0.075
    1UNL    C13   18   0.608   0.218  -0.038
    1UNL    C14   19   0.472   0.195  -0.048
    1UNL     O6   20   0.404   0.223  -0.165
    1UNL    C15   21   0.116  -0.225   0.082
    1UNL    C16   22  -0.032  -0.279   0.109
    1UNL    C17   23  -0.073  -0.182  -0.007
    1UNL     O7   24  -0.200  -0.122   0.005
    1UNL    C18   25  -0.212   0.005  -0.057
    1UNL     O8   26  -0.175   0.116   0.023
    1UNL    C19   27  -0.287   0.128   0.119
    1UNL    C20   28  -0.228   0.181   0.248
    1UNL     O9   29  -0.335   0.191   0.338
    1UNL    C21   30  -0.402   0.219   0.054
    1UNL    O10   31  -0.514   0.204   0.130
    1UNL    C22   32  -0.420   0.167  -0.089
    1UNL    O11   33  -0.567   0.164  -0.124
    1UNL    C23   34  -0.359   0.023  -0.114
    1UNL    O12   35  -0.367  -0.013  -0.252
    1UNL     H1   36  -0.214  -0.352  -0.208
    1UNL     H2   37  -0.240  -0.180  -0.234
    1UNL     H3   38  -0.141  -0.279  -0.346
    1UNL     H4   39   0.020  -0.438  -0.116
    1UNL     H5   40   0.104  -0.366  -0.250
    1UNL     H6   41   0.368  -0.348  -0.018
    1UNL     H7   42   0.165   0.029  -0.133
    1UNL     H8   43   0.027   0.128   0.081
    1UNL     H9   44   0.011   0.011   0.223
    1UNL    H10   45   0.419   0.066   0.257
    1UNL    H11   46   0.666   0.092   0.271
    1UNL    H12   47   0.785   0.197   0.090
    1UNL    H13   48   0.644   0.258  -0.132
    1UNL    H14   49   0.479   0.249  -0.225
    1UNL    H15   50   0.181  -0.197   0.164
    1UNL    H16   51  -0.041  -0.387   0.091
    1UNL    H17   52  -0.059  -0.254   0.217
    1UNL    H18   53  -0.132   0.010  -0.144
    1UNL    H19   54  -0.324   0.029   0.136
    1UNL    H20   55  -0.178   0.283   0.248
    1UNL    H21   56  -0.152   0.101   0.287
    1UNL    H22   57  -0.305   0.212   0.432
    1UNL    H23   58  -0.371   0.316   0.061
    1UNL    H24   59  -0.488   0.223   0.222
    1UNL    H25   60  -0.366   0.227  -0.158
    1UNL    H26   61  -0.604   0.214  -0.044
    1UNL    H27   62  -0.411  -0.055  -0.061
    1UNL    H28   63  -0.438   0.036  -0.299
   0.00000   0.00000   0.00000   0.00000   0.00000   0.00000   0.00000   0.00000   0.00000
Generated with MDTraj, t= 18.0
 63
    1UNL     C1    1  -0.143  -0.269  -0.249
    1UNL     C2    2  -0.027  -0.237  -0.162
    1UNL     C3    3   0.074  -0.348  -0.142
    1UNL     C4    4   0.184  -0.291  -0.043
    1UNL     O1    5   0.268  -0.397  -0.002
    1UNL     O2    6   0.247  -0.170  -0.103
    1UNL     C5    7   0.132  -0.078  -0.111
    1UNL     O3    8   0.047  -0.126  -0.218
    1UNL     C6    9   0.053  -0.100   0.023
    1UNL     C7   10   0.057   0.019   0.119
    1UNL     O4   11   0.195   0.043   0.139
    1UNL     C8   12   0.246   0.145   0.065
    1UNL     O5   13   0.179   0.203  -0.019
    1UNL     C9   14   0.388   0.165   0.072
    1UNL    C10   15   0.459   0.122   0.181
    1UNL    C11   16   0.598   0.120   0.188
    1UNL    C12   17   0.666   0.157   0.068
    1UNL    C13   18   0.595   0.204  -0.035
    1UNL    C14   19   0.458   0.209  -0.037
    1UNL     O6   20   0.404   0.270  -0.145
    1UNL    C15   21   0.103  -0.234   0.086
    1UNL    C16   22  -0.044  -0.280   0.103
    1UNL    C17   23  -0.075  -0.185  -0.015
    1UNL     O7   24  -0.205  -0.124  -0.026
    1UNL    C18   25  -0.215   0.002  -0.072
    1UNL     O8   26  -0.168   0.099   0.018
    1UNL    C19   27  -0.267   0.139   0.121
    1UNL    C20   28  -0.204   0.224   0.240
    1UNL     O9   29  -0.291   0.198   0.345
    1UNL    C21   30  -0.396   0.218   0.062
    1UNL    O10   31  -0.508   0.177   0.132
    1UNL    C22   32  -0.421   0.171  -0.088
    1UNL    O11   33  -0.567   0.168  -0.115
    1UNL    C23   34  -0.366   0.034  -0.112
    1UNL    O12   35  -0.396  -0.007  -0.245
    1UNL     H1   36  -0.195  -0.359  -0.215
    1UNL     H2   37  -0.208  -0.182  -0.250
    1UNL     H3   38  -0.104  -0.289  -0.351
    1UNL     H4   39   0.027  -0.436  -0.089
    1UNL     H5   40   0.114  -0.395  -0.235
    1UNL     H6   41   0.359  -0.362   0.019
    1UNL     H7   42   0.164   0.028  -0.139
    1UNL     H8   43   0.019   0.119   0.068
    1UNL     H9   44   0.028   0.008   0.225
    1UNL    H10   45   0.418   0.081   0.274
    1UNL    H11   46   0.664   0.109   0.273
    1UNL    H12   47   0.769   0.166   0.057
    1UNL    H13   48   0.639   0.262  -0.115
    1UNL    H14   49   0.475   0.284  -0.212
    1UNL    H15   50   0.155  -0.223   0.180
    1UNL    H16   51  -0.063  -0.382   0.081
    1UNL    H17   52  -0.110  -0.252   0.196
    1UNL    H18   53  -0.152   0.023  -0.170
    1UNL    H19   54  -0.313   0.052   0.162
    1UNL    H20   55  -0.187   0.332   0.216
    1UNL    H21   56  -0.105   0.182   0.282
    1UNL    H22   57  -0.246   0.238   0.427
    1UNL    H23   58  -0.405   0.321   0.078
    1UNL    H24   59  -0.489   0.188   0.228
    1UNL    H25   60  -0.386   0.239  -0.163
    1UNL    H26   61  -0.609   0.140  -0.034
    1UNL    H27   62  -0.425  -0.029  -0.046
    1UNL    H28   63  -0.478   0.038  -0.277
   0.00000   0.00000   0.00000   0.00000   0.00000   0.00000   0.00000   0.00000   0.00000
Generated with MDTraj, t= 19.0
 63
    1UNL     C1    1  -0.147  -0.273  -0.250
    1UNL     C2    2  -0.026  -0.238  -0.163
    1UNL     C3    3   0.071  -0.357  -0.140
    1UNL     C4    4   0.185  -0.306  -0.048
    1UNL     O1    5   0.273  -0.416  -0.018
    1UNL     O2    6   0.247  -0.187  -0.110
    1UNL     C5    7   0.142  -0.087  -0.122
    1UNL     O3    8   0.046  -0.126  -0.218
    1UNL     C6    9   0.055  -0.098   0.018
    1UNL     C7   10   0.044   0.014   0.120
    1UNL     O4   11   0.169   0.064   0.156
    1UNL     C8   12   0.230   0.148   0.061
    1UNL     O5   13   0.173   0.205  -0.030
    1UNL     C9   14   0.376   0.164   0.068
    1UNL    C10   15   0.442   0.092   0.169
    1UNL    C11   16   0.577   0.098   0.183
    1UNL    C12   17   0.660   0.167   0.094
    1UNL    C13   18   0.595   0.230  -0.007
    1UNL    C14   19   0.454   0.225  -0.030
    1UNL     O6   20   0.398   0.276  -0.147
    1UNL    C15   21   0.118  -0.233   0.081
    1UNL    C16   22  -0.025  -0.280   0.100
    1UNL    C17   23  -0.073  -0.187  -0.020
    1UNL     O7   24  -0.201  -0.122  -0.011
    1UNL    C18   25  -0.222   0.007  -0.066
    1UNL     O8   26  -0.169   0.121   0.005
    1UNL    C19   27  -0.255   0.142   0.122
    1UNL    C20   28  -0.187   0.236   0.220
    1UNL     O9   29  -0.267   0.253   0.335
    1UNL    C21   30  -0.400   0.195   0.075
    1UNL    O10   31  -0.500   0.133   0.155
    1UNL    C22   32  -0.418   0.163  -0.084
    1UNL    O11   33  -0.548   0.197  -0.124
    1UNL    C23   34  -0.376   0.028  -0.108
    1UNL    O12   35  -0.395  -0.015  -0.237
    1UNL     H1   36  -0.210  -0.340  -0.189
    1UNL     H2   37  -0.200  -0.183  -0.274
    1UNL     H3   38  -0.119  -0.329  -0.340
    1UNL     H4   39   0.018  -0.447  -0.099
    1UNL     H5   40   0.123  -0.388  -0.235
    1UNL     H6   41   0.348  -0.391   0.041
    1UNL     H7   42   0.181   0.020  -0.133
    1UNL     H8   43  -0.010   0.105   0.070
    1UNL     H9   44  -0.013  -0.024   0.207
    1UNL    H10   45   0.381   0.036   0.235
    1UNL    H11   46   0.623   0.037   0.261
    1UNL    H12   47   0.771   0.179   0.090
    1UNL    H13   48   0.641   0.294  -0.081
    1UNL    H14   49   0.475   0.300  -0.202
    1UNL    H15   50   0.182  -0.228   0.168
    1UNL    H16   51  -0.051  -0.380   0.071
    1UNL    H17   52  -0.090  -0.246   0.190
    1UNL    H18   53  -0.162   0.006  -0.169
    1UNL    H19   54  -0.252   0.047   0.175
    1UNL    H20   55  -0.166   0.334   0.177
    1UNL    H21   56  -0.087   0.187   0.240
    1UNL    H22   57  -0.224   0.315   0.395
    1UNL    H23   58  -0.411   0.299   0.097
    1UNL    H24   59  -0.496   0.166   0.251
    1UNL    H25   60  -0.346   0.225  -0.141
    1UNL    H26   61  -0.616   0.142  -0.073
    1UNL    H27   62  -0.434  -0.031  -0.036
    1UNL    H28   63  -0.416   0.062  -0.295
   0.00000   0.00000   0.00000   0.00000   0.00000   0.00000   0.00000   0.00000   0.00000
Generated with MDTraj, t= 20.0
 63
    1UNL     C1    1  -0.178  -0.274  -0.246
    1UNL     C2    2  -0.055  -0.245  -0.158
    1UNL     C3    3   0.060  -0.350  -0.149
    1UNL     C4    4   0.174  -0.302  -0.060
    1UNL     O1    5   0.276  -0.393  -0.032
    1UNL     O2    6   0.223  -0.176  -0.127
    1UNL     C5    7   0.116  -0.090  -0.123
    1UNL     O3    8   0.009  -0.128  -0.216
    1UNL     C6    9   0.049  -0.109   0.017
    1UNL     C7   10   0.061   0.003   0.122
    1UNL     O4   11   0.187   0.042   0.159
    1UNL     C8   12   0.240   0.126   0.057
    1UNL     O5   13   0.176   0.179  -0.031
    1UNL     C9   14   0.392   0.149   0.068
    1UNL    C10   15   0.448   0.089   0.179
    1UNL    C11   16   0.584   0.106   0.196
    1UNL    C12   17   0.663   0.186   0.111
    1UNL    C13   18   0.601   0.247  -0.001
    1UNL    C14   19   0.467   0.233  -0.018
    1UNL     O6   20   0.405   0.310  -0.122
    1UNL    C15   21   0.111  -0.248   0.072
    1UNL    C16   22  -0.038  -0.288   0.105
    1UNL    C17   23  -0.078  -0.189  -0.008
    1UNL     O7   24  -0.199  -0.119   0.010
    1UNL    C18   25  -0.214   0.000  -0.063
    1UNL     O8   26  -0.170   0.126  -0.004
    1UNL    C19   27  -0.247   0.156   0.112
    1UNL    C20   28  -0.186   0.262   0.200
    1UNL     O9   29  -0.275   0.309   0.307
    1UNL    C21   30  -0.392   0.180   0.081
    1UNL    O10   31  -0.477   0.097   0.155
    1UNL    C22   32  -0.410   0.161  -0.077
    1UNL    O11   33  -0.544   0.178  -0.115
    1UNL    C23   34  -0.366   0.020  -0.110
    1UNL    O12   35  -0.368  -0.018  -0.244
    1UNL     H1   36  -0.215  -0.376  -0.228
    1UNL     H2   37  -0.260  -0.203  -0.232
    1UNL     H3   38  -0.154  -0.273  -0.352
    1UNL     H4   39   0.030  -0.448  -0.107
    1UNL     H5   40   0.106  -0.361  -0.253
    1UNL     H6   41   0.351  -0.355  -0.080
    1UNL     H7   42   0.161   0.014  -0.135
    1UNL     H8   43   0.004   0.088   0.074
    1UNL     H9   44   0.008  -0.029   0.212
    1UNL    H10   45   0.383   0.019   0.234
    1UNL    H11   46   0.636   0.041   0.263
    1UNL    H12   47   0.765   0.173   0.129
    1UNL    H13   48   0.655   0.302  -0.077
    1UNL    H14   49   0.478   0.344  -0.176
    1UNL    H15   50   0.182  -0.236   0.154
    1UNL    H16   51  -0.058  -0.398   0.085
    1UNL    H17   52  -0.070  -0.258   0.206
    1UNL    H18   53  -0.152  -0.016  -0.162
    1UNL    H19   54  -0.233   0.058   0.163
    1UNL    H20   55  -0.160   0.332   0.123
    1UNL    H21   56  -0.090   0.228   0.240
    1UNL    H22   57  -0.262   0.398   0.340
    1UNL    H23   58  -0.430   0.280   0.105
    1UNL    H24   59  -0.471   0.112   0.255
    1UNL    H25   60  -0.343   0.223  -0.144
    1UNL    H26   61  -0.606   0.148  -0.046
    1UNL    H27   62  -0.428  -0.052  -0.053
    1UNL    H28   63  -0.460  -0.043  -0.266
   0.00000   0.00000   0.00000   0.00000   0.00000   0.00000   0.00000   0.00000   0.00000
Generated with MDTraj, t= 21.0
 63
    1UNL     C1    1  -0.209  -0.281  -0.201
    1UNL     C2    2  -0.065  -0.244  -0.144
    1UNL     C3    3   0.041  -0.356  -0.169
    1UNL     C4    4   0.164  -0.305  -0.085
    1UNL     O1    5   0.266  -0.407  -0.068
    1UNL     O2    6   0.206  -0.185  -0.157
    1UNL     C5    7   0.105  -0.087  -0.135
    1UNL     O3    8  -0.007  -0.131  -0.216
    1UNL     C6    9   0.055  -0.109   0.013
    1UNL     C7   10   0.079   0.014   0.119
    1UNL     O4   11   0.209   0.032   0.162
    1UNL     C8   12   0.264   0.119   0.066
    1UNL     O5   13   0.196   0.162  -0.025
    1UNL     C9   14   0.410   0.151   0.089
    1UNL    C10   15   0.483   0.083   0.191
    1UNL    C11   16   0.620   0.108   0.210
    1UNL    C12   17   0.679   0.200   0.122
    1UNL    C13   18   0.608   0.269   0.023
    1UNL    C14   19   0.472   0.250   0.007
    1UNL     O6   20   0.403   0.322  -0.092
    1UNL    C15   21   0.120  -0.249   0.052
    1UNL    C16   22  -0.015  -0.285   0.111
    1UNL    C17   23  -0.075  -0.193   0.001
    1UNL     O7   24  -0.204  -0.129   0.021
    1UNL    C18   25  -0.215  -0.015  -0.059
    1UNL     O8   26  -0.176   0.114   0.007
    1UNL    C19   27  -0.263   0.165   0.107
    1UNL    C20   28  -0.196   0.295   0.164
    1UNL     O9   29  -0.269   0.345   0.274
    1UNL    C21   30  -0.406   0.184   0.074
    1UNL    O10   31  -0.498   0.105   0.142
    1UNL    C22   32  -0.429   0.147  -0.075
    1UNL    O11   33  -0.567   0.143  -0.096
    1UNL    C23   34  -0.362   0.004  -0.113
    1UNL    O12   35  -0.365  -0.011  -0.253
    1UNL     H1   36  -0.274  -0.335  -0.132
    1UNL     H2   37  -0.265  -0.188  -0.225
    1UNL     H3   38  -0.214  -0.339  -0.292
    1UNL     H4   39   0.006  -0.456  -0.133
    1UNL     H5   40   0.077  -0.364  -0.277
    1UNL     H6   41   0.294  -0.431  -0.156
    1UNL     H7   42   0.135   0.018  -0.165
    1UNL     H8   43   0.046   0.111   0.073
    1UNL     H9   44   0.008  -0.006   0.201
    1UNL    H10   45   0.432   0.007   0.246
    1UNL    H11   46   0.680   0.046   0.277
    1UNL    H12   47   0.787   0.225   0.122
    1UNL    H13   48   0.661   0.334  -0.046
    1UNL    H14   49   0.461   0.376  -0.149
    1UNL    H15   50   0.202  -0.228   0.120
    1UNL    H16   51  -0.037  -0.400   0.101
    1UNL    H17   52  -0.038  -0.249   0.209
    1UNL    H18   53  -0.144  -0.016  -0.152
    1UNL    H19   54  -0.254   0.081   0.183
    1UNL    H20   55  -0.201   0.374   0.094
    1UNL    H21   56  -0.093   0.272   0.178
    1UNL    H22   57  -0.226   0.429   0.309
    1UNL    H23   58  -0.435   0.287   0.107
    1UNL    H24   59  -0.489   0.114   0.237
    1UNL    H25   60  -0.383   0.231  -0.136
    1UNL    H26   61  -0.614   0.091  -0.031
    1UNL    H27   62  -0.438  -0.067  -0.070
    1UNL    H28   63  -0.288   0.036  -0.289
   0.00000   0.00000   0.00000   0.00000   0.00000   0.00000   0.00000   0.00000   0.00000
Generated with MDTraj, t= 22.0
 63
    1UNL     C1    1  -0.215  -0.288  -0.208
    1UNL     C2    2  -0.079  -0.252  -0.150
    1UNL     C3    3   0.027  -0.364  -0.163
    1UNL     C4    4   0.160  -0.321  -0.083
    1UNL     O1    5   0.261  -0.416  -0.088
    1UNL     O2    6   0.200  -0.200  -0.167
    1UNL     C5    7   0.095  -0.099  -0.149
    1UNL     O3    8  -0.018  -0.137  -0.219
    1UNL     C6    9   0.058  -0.118   0.003
    1UNL     C7   10   0.081   0.006   0.093
    1UNL     O4   11   0.217   0.021   0.126
    1UNL     C8   12   0.276   0.121   0.046
    1UNL     O5   13   0.219   0.169  -0.049
    1UNL     C9   14   0.414   0.154   0.080
    1UNL    C10   15   0.474   0.065   0.168
    1UNL    C11   16   0.604   0.094   0.207
    1UNL    C12   17   0.675   0.204   0.158
    1UNL    C13   18   0.614   0.288   0.067
    1UNL    C14   19   0.484   0.266   0.022
    1UNL     O6   20   0.416   0.335  -0.066
    1UNL    C15   21   0.124  -0.254   0.057
    1UNL    C16   22  -0.019  -0.290   0.108
    1UNL    C17   23  -0.078  -0.194   0.000
    1UNL     O7   24  -0.185  -0.103   0.034
    1UNL    C18   25  -0.201   0.008  -0.055
    1UNL     O8   26  -0.168   0.144  -0.002
    1UNL    C19   27  -0.252   0.181   0.111
    1UNL    C20   28  -0.211   0.329   0.162
    1UNL     O9   29  -0.300   0.367   0.267
    1UNL    C21   30  -0.402   0.184   0.073
    1UNL    O10   31  -0.487   0.111   0.160
    1UNL    C22   32  -0.428   0.137  -0.073
    1UNL    O11   33  -0.560   0.110  -0.099
    1UNL    C23   34  -0.351   0.001  -0.092
    1UNL    O12   35  -0.376  -0.040  -0.229
    1UNL     H1   36  -0.252  -0.382  -0.166
    1UNL     H2   37  -0.281  -0.205  -0.182
    1UNL     H3   38  -0.211  -0.295  -0.316
    1UNL     H4   39  -0.017  -0.466  -0.146
    1UNL     H5   40   0.071  -0.362  -0.268
    1UNL     H6   41   0.347  -0.373  -0.085
    1UNL     H7   42   0.124   0.010  -0.171
    1UNL     H8   43   0.044   0.093   0.032
    1UNL     H9   44   0.027  -0.000   0.189
    1UNL    H10   45   0.420  -0.018   0.215
    1UNL    H11   46   0.641   0.038   0.292
    1UNL    H12   47   0.766   0.248   0.191
    1UNL    H13   48   0.661   0.382   0.043
    1UNL    H14   49   0.462   0.411  -0.107
    1UNL    H15   50   0.197  -0.231   0.135
    1UNL    H16   51  -0.030  -0.404   0.090
    1UNL    H17   52  -0.051  -0.257   0.207
    1UNL    H18   53  -0.139   0.005  -0.154
    1UNL    H19   54  -0.237   0.098   0.187
    1UNL    H20   55  -0.232   0.396   0.084
    1UNL    H21   56  -0.112   0.348   0.194
    1UNL    H22   57  -0.244   0.410   0.338
    1UNL    H23   58  -0.443   0.290   0.089
    1UNL    H24   59  -0.474   0.141   0.249
    1UNL    H25   60  -0.385   0.215  -0.143
    1UNL    H26   61  -0.593   0.049  -0.026
    1UNL    H27   62  -0.397  -0.076  -0.025
    1UNL    H28   63  -0.472  -0.049  -0.246
   0.00000   0.00000   0.00000   0.00000   0.00000   0.00000   0.00000   0.00000   0.00000
Generated with MDTraj, t= 23.0
 63
    1UNL     C1    1  -0.214  -0.292  -0.209
    1UNL     C2    2  -0.071  -0.247  -0.153
    1UNL     C3    3   0.027  -0.369  -0.150
    1UNL     C4    4   0.166  -0.325  -0.093
    1UNL     O1    5   0.248  -0.440  -0.070
    1UNL     O2    6   0.210  -0.213  -0.178
    1UNL     C5    7   0.117  -0.112  -0.164
    1UNL     O3    8  -0.008  -0.150  -0.234
    1UNL     C6    9   0.075  -0.109  -0.014
    1UNL     C7   10   0.085   0.016   0.063
    1UNL     O4   11   0.206   0.052   0.117
    1UNL     C8   12   0.285   0.121   0.025
    1UNL     O5   13   0.241   0.144  -0.085
    1UNL     C9   14   0.419   0.156   0.072
    1UNL    C10   15   0.478   0.063   0.150
    1UNL    C11   16   0.603   0.081   0.215
    1UNL    C12   17   0.668   0.200   0.186
    1UNL    C13   18   0.609   0.289   0.097
    1UNL    C14   19   0.484   0.272   0.038
    1UNL     O6   20   0.427   0.371  -0.045
    1UNL    C15   21   0.137  -0.243   0.047
    1UNL    C16   22  -0.003  -0.270   0.107
    1UNL    C17   23  -0.065  -0.179  -0.007
    1UNL     O7   24  -0.181  -0.108   0.038
    1UNL    C18   25  -0.224   0.005  -0.050
    1UNL     O8   26  -0.180   0.131  -0.012
    1UNL    C19   27  -0.262   0.176   0.112
    1UNL    C20   28  -0.208   0.310   0.157
    1UNL     O9   29  -0.290   0.376   0.259
    1UNL    C21   30  -0.413   0.187   0.085
    1UNL    O10   31  -0.501   0.124   0.182
    1UNL    C22   32  -0.436   0.133  -0.062
    1UNL    O11   33  -0.570   0.138  -0.095
    1UNL    C23   34  -0.372  -0.003  -0.080
    1UNL    O12   35  -0.401  -0.056  -0.209
    1UNL     H1   36  -0.266  -0.363  -0.145
    1UNL     H2   37  -0.274  -0.206  -0.230
    1UNL     H3   38  -0.194  -0.340  -0.307
    1UNL     H4   39  -0.017  -0.447  -0.082
    1UNL     H5   40   0.028  -0.416  -0.252
    1UNL     H6   41   0.343  -0.427  -0.088
    1UNL     H7   42   0.170  -0.010  -0.188
    1UNL     H8   43   0.051   0.105   0.003
    1UNL     H9   44   0.022  -0.001   0.152
    1UNL    H10   45   0.415  -0.021   0.166
    1UNL    H11   46   0.638   0.019   0.297
    1UNL    H12   47   0.757   0.215   0.248
    1UNL    H13   48   0.662   0.381   0.083
    1UNL    H14   49   0.477   0.455  -0.059
    1UNL    H15   50   0.228  -0.220   0.105
    1UNL    H16   51  -0.034  -0.375   0.102
    1UNL    H17   52  -0.025  -0.229   0.212
    1UNL    H18   53  -0.167  -0.004  -0.152
    1UNL    H19   54  -0.241   0.098   0.191
    1UNL    H20   55  -0.190   0.386   0.085
    1UNL    H21   56  -0.120   0.295   0.214
    1UNL    H22   57  -0.337   0.313   0.314
    1UNL    H23   58  -0.448   0.295   0.070
    1UNL    H24   59  -0.494   0.163   0.270
    1UNL    H25   60  -0.386   0.202  -0.135
    1UNL    H26   61  -0.625   0.107  -0.021
    1UNL    H27   62  -0.408  -0.077  -0.005
    1UNL    H28   63  -0.500  -0.051  -0.219
   0.00000   0.00000   0.00000   0.00000   0.00000   0.00000   0.00000   0.00000   0.00000
Generated with MDTraj, t= 24.0
 63
    1UNL     C1    1  -0.202  -0.311  -0.196
    1UNL     C2    2  -0.067  -0.267  -0.153
    1UNL     C3    3   0.036  -0.376  -0.139
    1UNL     C4    4   0.163  -0.303  -0.081
    1UNL     O1    5   0.258  -0.403  -0.039
    1UNL     O2    6   0.206  -0.208  -0.183
    1UNL     C5    7   0.103  -0.110  -0.177
    1UNL     O3    8  -0.011  -0.169  -0.247
    1UNL     C6    9   0.051  -0.090  -0.030
    1UNL     C7   10   0.078   0.048   0.036
    1UNL     O4   11   0.201   0.061   0.101
    1UNL     C8   12   0.297   0.103   0.018
    1UNL     O5   13   0.276   0.122  -0.101
    1UNL     C9   14   0.428   0.144   0.074
    1UNL    C10   15   0.494   0.052   0.149
    1UNL    C11   16   0.612   0.086   0.206
    1UNL    C12   17   0.672   0.211   0.192
    1UNL    C13   18   0.608   0.301   0.111
    1UNL    C14   19   0.480   0.277   0.056
    1UNL     O6   20   0.422   0.375  -0.005
    1UNL    C15   21   0.123  -0.214   0.043
    1UNL    C16   22  -0.012  -0.257   0.105
    1UNL    C17   23  -0.079  -0.180  -0.013
    1UNL     O7   24  -0.205  -0.128   0.017
    1UNL    C18   25  -0.239  -0.004  -0.060
    1UNL     O8   26  -0.184   0.110  -0.006
    1UNL    C19   27  -0.258   0.170   0.111
    1UNL    C20   28  -0.186   0.288   0.169
    1UNL     O9   29  -0.259   0.343   0.278
    1UNL    C21   30  -0.405   0.203   0.067
    1UNL    O10   31  -0.491   0.140   0.161
    1UNL    C22   32  -0.442   0.141  -0.072
    1UNL    O11   33  -0.584   0.146  -0.077
    1UNL    C23   34  -0.390  -0.003  -0.080
    1UNL    O12   35  -0.427  -0.069  -0.202
    1UNL     H1   36  -0.227  -0.386  -0.120
    1UNL     H2   37  -0.279  -0.235  -0.197
    1UNL     H3   38  -0.201  -0.360  -0.295
    1UNL     H4   39  -0.005  -0.466  -0.084
    1UNL     H5   40   0.063  -0.413  -0.241
    1UNL     H6   41   0.349  -0.364  -0.044
    1UNL     H7   42   0.148  -0.019  -0.236
    1UNL     H8   43   0.078   0.136  -0.032
    1UNL     H9   44   0.005   0.067   0.117
    1UNL    H10   45   0.442  -0.044   0.153
    1UNL    H11   46   0.649  -0.004   0.254
    1UNL    H12   47   0.771   0.218   0.237
    1UNL    H13   48   0.659   0.388   0.071
    1UNL    H14   49   0.478   0.457  -0.009
    1UNL    H15   50   0.206  -0.191   0.112
    1UNL    H16   51  -0.043  -0.359   0.100
    1UNL    H17   52  -0.048  -0.216   0.210
    1UNL    H18   53  -0.197  -0.009  -0.169
    1UNL    H19   54  -0.259   0.102   0.200
    1UNL    H20   55  -0.179   0.367   0.095
    1UNL    H21   56  -0.085   0.277   0.209
    1UNL    H22   57  -0.211   0.416   0.322
    1UNL    H23   58  -0.423   0.318   0.061
    1UNL    H24   59  -0.472   0.185   0.249
    1UNL    H25   60  -0.398   0.203  -0.153
    1UNL    H26   61  -0.624   0.098  -0.002
    1UNL    H27   62  -0.428  -0.068   0.001
    1UNL    H28   63  -0.522  -0.049  -0.213
   0.00000   0.00000   0.00000   0.00000   0.00000   0.00000   0.00000   0.00000   0.00000
Generated with MDTraj, t= 25.0
 63
    1UNL     C1    1  -0.204  -0.321  -0.171
    1UNL     C2    2  -0.067  -0.265  -0.141
    1UNL     C3    3   0.047  -0.378  -0.118
    1UNL     C4    4   0.177  -0.294  -0.070
    1UNL     O1    5   0.296  -0.375  -0.048
    1UNL     O2    6   0.208  -0.198  -0.171
    1UNL     C5    7   0.097  -0.105  -0.179
    1UNL     O3    8  -0.017  -0.173  -0.239
    1UNL     C6    9   0.055  -0.089  -0.031
    1UNL     C7   10   0.065   0.055   0.029
    1UNL     O4   11   0.183   0.073   0.100
    1UNL     C8   12   0.290   0.099   0.018
    1UNL     O5   13   0.274   0.120  -0.101
    1UNL     C9   14   0.424   0.130   0.070
    1UNL    C10   15   0.498   0.036   0.134
    1UNL    C11   16   0.619   0.065   0.193
    1UNL    C12   17   0.662   0.201   0.190
    1UNL    C13   18   0.588   0.295   0.124
    1UNL    C14   19   0.461   0.266   0.067
    1UNL     O6   20   0.389   0.371   0.006
    1UNL    C15   21   0.131  -0.208   0.049
    1UNL    C16   22  -0.004  -0.246   0.112
    1UNL    C17   23  -0.074  -0.179  -0.009
    1UNL     O7   24  -0.199  -0.111   0.020
    1UNL    C18   25  -0.238  -0.007  -0.074
    1UNL     O8   26  -0.186   0.117  -0.040
    1UNL    C19   27  -0.247   0.163   0.082
    1UNL    C20   28  -0.165   0.255   0.174
    1UNL     O9   29  -0.240   0.277   0.293
    1UNL    C21   30  -0.389   0.218   0.044
    1UNL    O10   31  -0.472   0.191   0.157
    1UNL    C22   32  -0.449   0.150  -0.083
    1UNL    O11   33  -0.595   0.143  -0.068
    1UNL    C23   34  -0.400  -0.004  -0.083
    1UNL    O12   35  -0.448  -0.060  -0.205
    1UNL     H1   36  -0.244  -0.380  -0.088
    1UNL     H2   37  -0.274  -0.239  -0.190
    1UNL     H3   38  -0.205  -0.378  -0.262
    1UNL     H4   39   0.013  -0.456  -0.045
    1UNL     H5   40   0.069  -0.429  -0.214
    1UNL     H6   41   0.370  -0.332  -0.100
    1UNL     H7   42   0.124  -0.007  -0.238
    1UNL     H8   43   0.069   0.138  -0.044
    1UNL     H9   44  -0.013   0.086   0.103
    1UNL    H10   45   0.451  -0.059   0.136
    1UNL    H11   46   0.685  -0.012   0.229
    1UNL    H12   47   0.760   0.232   0.220
    1UNL    H13   48   0.642   0.387   0.113
    1UNL    H14   49   0.434   0.458  -0.008
    1UNL    H15   50   0.205  -0.189   0.129
    1UNL    H16   51  -0.022  -0.354   0.127
    1UNL    H17   52  -0.044  -0.186   0.204
    1UNL    H18   53  -0.190  -0.036  -0.178
    1UNL    H19   54  -0.279   0.079   0.145
    1UNL    H20   55  -0.134   0.354   0.128
    1UNL    H21   56  -0.062   0.217   0.194
    1UNL    H22   57  -0.261   0.376   0.300
    1UNL    H23   58  -0.393   0.335   0.033
    1UNL    H24   59  -0.412   0.206   0.233
    1UNL    H25   60  -0.425   0.211  -0.170
    1UNL    H26   61  -0.612   0.107   0.024
    1UNL    H27   62  -0.441  -0.065  -0.002
    1UNL    H28   63  -0.526  -0.009  -0.233
   0.00000   0.00000   0.00000   0.00000   0.00000   0.00000   0.00000   0.00000   0.00000
Generated with MDTraj, t= 26.0
 63
    1UNL     C1    1  -0.199  -0.337  -0.186
    1UNL     C2    2  -0.070  -0.265  -0.140
    1UNL     C3    3   0.053  -0.363  -0.123
    1UNL     C4    4   0.179  -0.295  -0.070
    1UNL     O1    5   0.279  -0.384  -0.034
    1UNL     O2    6   0.213  -0.201  -0.175
    1UNL     C5    7   0.097  -0.111  -0.185
    1UNL     O3    8  -0.019  -0.169  -0.243
    1UNL     C6    9   0.060  -0.089  -0.031
    1UNL     C7   10   0.059   0.044   0.042
    1UNL     O4   11   0.177   0.083   0.110
    1UNL     C8   12   0.267   0.113   0.012
    1UNL     O5   13   0.247   0.121  -0.109
    1UNL     C9   14   0.401   0.142   0.058
    1UNL    C10   15   0.479   0.030   0.101
    1UNL    C11   16   0.601   0.052   0.165
    1UNL    C12   17   0.652   0.182   0.182
    1UNL    C13   18   0.581   0.293   0.128
    1UNL    C14   19   0.456   0.276   0.074
    1UNL     O6   20   0.384   0.383   0.037
    1UNL    C15   21   0.131  -0.203   0.050
    1UNL    C16   22  -0.003  -0.244   0.117
    1UNL    C17   23  -0.071  -0.175  -0.008
    1UNL     O7   24  -0.193  -0.112   0.030
    1UNL    C18   25  -0.224  -0.012  -0.060
    1UNL     O8   26  -0.168   0.118  -0.031
    1UNL    C19   27  -0.244   0.171   0.078
    1UNL    C20   28  -0.170   0.270   0.173
    1UNL     O9   29  -0.218   0.280   0.307
    1UNL    C21   30  -0.386   0.214   0.041
    1UNL    O10   31  -0.472   0.232   0.151
    1UNL    C22   32  -0.440   0.138  -0.079
    1UNL    O11   33  -0.584   0.125  -0.084
    1UNL    C23   34  -0.384  -0.011  -0.078
    1UNL    O12   35  -0.414  -0.071  -0.199
    1UNL     H1   36  -0.228  -0.410  -0.112
    1UNL     H2   37  -0.278  -0.262  -0.198
    1UNL     H3   38  -0.184  -0.382  -0.282
    1UNL     H4   39   0.015  -0.433  -0.046
    1UNL     H5   40   0.071  -0.416  -0.219
    1UNL     H6   41   0.316  -0.415  -0.120
    1UNL     H7   42   0.122  -0.004  -0.227
    1UNL     H8   43   0.042   0.129  -0.024
    1UNL     H9   44  -0.025   0.042   0.119
    1UNL    H10   45   0.438  -0.071   0.101
    1UNL    H11   46   0.663  -0.023   0.211
    1UNL    H12   47   0.745   0.192   0.240
    1UNL    H13   48   0.632   0.388   0.122
    1UNL    H14   49   0.419   0.476   0.050
    1UNL    H15   50   0.216  -0.156   0.104
    1UNL    H16   51  -0.017  -0.356   0.141
    1UNL    H17   52  -0.016  -0.186   0.209
    1UNL    H18   53  -0.170  -0.034  -0.163
    1UNL    H19   54  -0.267   0.090   0.143
    1UNL    H20   55  -0.161   0.374   0.123
    1UNL    H21   56  -0.059   0.252   0.169
    1UNL    H22   57  -0.241   0.190   0.344
    1UNL    H23   58  -0.364   0.326   0.006
    1UNL    H24   59  -0.416   0.274   0.220
    1UNL    H25   60  -0.414   0.182  -0.174
    1UNL    H26   61  -0.616   0.118   0.006
    1UNL    H27   62  -0.436  -0.071  -0.005
    1UNL    H28   63  -0.493  -0.029  -0.242
   0.00000   0.00000   0.00000   0.00000   0.00000   0.00000   0.00000   0.00000   0.00000
Generated with MDTraj, t= 27.0
 63
    1UNL     C1    1  -0.195  -0.327  -0.184
    1UNL     C2    2  -0.058  -0.268  -0.144
    1UNL     C3    3   0.045  -0.383  -0.138
    1UNL     C4    4   0.171  -0.314  -0.074
    1UNL     O1    5   0.273  -0.411  -0.051
    1UNL     O2    6   0.213  -0.207  -0.166
    1UNL     C5    7   0.109  -0.112  -0.165
    1UNL     O3    8  -0.003  -0.159  -0.230
    1UNL     C6    9   0.063  -0.101  -0.007
    1UNL     C7   10   0.065   0.031   0.073
    1UNL     O4   11   0.201   0.062   0.112
    1UNL     C8   12   0.266   0.135   0.010
    1UNL     O5   13   0.225   0.172  -0.102
    1UNL     C9   14   0.409   0.151   0.048
    1UNL    C10   15   0.490   0.041   0.064
    1UNL    C11   16   0.611   0.051   0.128
    1UNL    C12   17   0.662   0.172   0.165
    1UNL    C13   18   0.593   0.290   0.134
    1UNL    C14   19   0.461   0.281   0.083
    1UNL     O6   20   0.373   0.391   0.062
    1UNL    C15   21   0.127  -0.231   0.055
    1UNL    C16   22  -0.007  -0.258   0.115
    1UNL    C17   23  -0.068  -0.183  -0.001
    1UNL     O7   24  -0.191  -0.116   0.029
    1UNL    C18   25  -0.230  -0.011  -0.061
    1UNL     O8   26  -0.171   0.119  -0.011
    1UNL    C19   27  -0.251   0.167   0.096
    1UNL    C20   28  -0.181   0.285   0.165
    1UNL     O9   29  -0.242   0.315   0.288
    1UNL    C21   30  -0.386   0.217   0.040
    1UNL    O10   31  -0.480   0.223   0.145
    1UNL    C22   32  -0.441   0.133  -0.086
    1UNL    O11   33  -0.576   0.133  -0.116
    1UNL    C23   34  -0.389  -0.009  -0.077
    1UNL    O12   35  -0.423  -0.075  -0.191
    1UNL     H1   36  -0.228  -0.394  -0.104
    1UNL     H2   37  -0.267  -0.246  -0.194
    1UNL     H3   38  -0.186  -0.380  -0.277
    1UNL     H4   39   0.015  -0.477  -0.089
    1UNL     H5   40   0.062  -0.410  -0.245
    1UNL     H6   41   0.353  -0.358  -0.070
    1UNL     H7   42   0.143  -0.002  -0.193
    1UNL     H8   43   0.027   0.112   0.014
    1UNL     H9   44   0.003   0.015   0.166
    1UNL    H10   45   0.435  -0.047   0.036
    1UNL    H11   46   0.640  -0.046   0.166
    1UNL    H12   47   0.745   0.178   0.231
    1UNL    H13   48   0.636   0.385   0.161
    1UNL    H14   49   0.417   0.468   0.105
    1UNL    H15   50   0.214  -0.193   0.115
    1UNL    H16   51  -0.037  -0.372   0.124
    1UNL    H17   52  -0.019  -0.201   0.207
    1UNL    H18   53  -0.180  -0.024  -0.167
    1UNL    H19   54  -0.266   0.090   0.167
    1UNL    H20   55  -0.174   0.380   0.099
    1UNL    H21   56  -0.067   0.266   0.167
    1UNL    H22   57  -0.186   0.354   0.355
    1UNL    H23   58  -0.356   0.329   0.007
    1UNL    H24   59  -0.461   0.278   0.227
    1UNL    H25   60  -0.395   0.170  -0.176
    1UNL    H26   61  -0.625   0.143  -0.028
    1UNL    H27   62  -0.436  -0.051   0.010
    1UNL    H28   63  -0.522  -0.080  -0.199
   0.00000   0.00000   0.00000   0.00000   0.00000   0.00000   0.00000   0.00000   0.00000
Generated with MDTraj, t= 28.0
 63
    1UNL     C1    1  -0.201  -0.304  -0.204
    1UNL     C2    2  -0.069  -0.256  -0.144
    1UNL     C3    3   0.038  -0.371  -0.145
    1UNL     C4    4   0.167  -0.315  -0.074
    1UNL     O1    5   0.278  -0.409  -0.051
    1UNL     O2    6   0.207  -0.203  -0.159
    1UNL     C5    7   0.106  -0.110  -0.145
    1UNL     O3    8  -0.010  -0.150  -0.226
    1UNL     C6    9   0.060  -0.116   0.002
    1UNL     C7   10   0.074   0.011   0.090
    1UNL     O4   11   0.215   0.041   0.118
    1UNL     C8   12   0.270   0.132   0.036
    1UNL     O5   13   0.222   0.190  -0.063
    1UNL     C9   14   0.419   0.155   0.071
    1UNL    C10   15   0.503   0.049   0.044
    1UNL    C11   16   0.637   0.063   0.065
    1UNL    C12   17   0.688   0.186   0.111
    1UNL    C13   18   0.602   0.298   0.127
    1UNL    C14   19   0.465   0.281   0.100
    1UNL     O6   20   0.372   0.386   0.099
    1UNL    C15   21   0.116  -0.248   0.068
    1UNL    C16   22  -0.029  -0.278   0.117
    1UNL    C17   23  -0.078  -0.194  -0.000
    1UNL     O7   24  -0.201  -0.123   0.033
    1UNL    C18   25  -0.221  -0.015  -0.053
    1UNL     O8   26  -0.165   0.108   0.002
    1UNL    C19   27  -0.254   0.163   0.102
    1UNL    C20   28  -0.185   0.281   0.166
    1UNL     O9   29  -0.280   0.359   0.227
    1UNL    C21   30  -0.388   0.213   0.036
    1UNL    O10   31  -0.489   0.187   0.132
    1UNL    C22   32  -0.425   0.135  -0.093
    1UNL    O11   33  -0.559   0.157  -0.122
    1UNL    C23   34  -0.377  -0.006  -0.078
    1UNL    O12   35  -0.431  -0.096  -0.178
    1UNL     H1   36  -0.240  -0.387  -0.145
    1UNL     H2   37  -0.276  -0.230  -0.189
    1UNL     H3   38  -0.197  -0.331  -0.310
    1UNL     H4   39   0.000  -0.459  -0.094
    1UNL     H5   40   0.067  -0.403  -0.249
    1UNL     H6   41   0.362  -0.364  -0.063
    1UNL     H7   42   0.150  -0.012  -0.194
    1UNL     H8   43   0.034   0.100   0.050
    1UNL     H9   44   0.018  -0.015   0.184
    1UNL    H10   45   0.468  -0.051   0.018
    1UNL    H11   46   0.696  -0.027   0.056
    1UNL    H12   47   0.795   0.189   0.141
    1UNL    H13   48   0.642   0.394   0.159
    1UNL    H14   49   0.420   0.471   0.099
    1UNL    H15   50   0.186  -0.238   0.155
    1UNL    H16   51  -0.050  -0.391   0.115
    1UNL    H17   52  -0.062  -0.226   0.210
    1UNL    H18   53  -0.173  -0.024  -0.161
    1UNL    H19   54  -0.281   0.084   0.169
    1UNL    H20   55  -0.131   0.339   0.082
    1UNL    H21   56  -0.096   0.254   0.232
    1UNL    H22   57  -0.245   0.430   0.284
    1UNL    H23   58  -0.384   0.334   0.021
    1UNL    H24   59  -0.479   0.220   0.223
    1UNL    H25   60  -0.373   0.167  -0.184
    1UNL    H26   61  -0.608   0.160  -0.037
    1UNL    H27   62  -0.419  -0.042   0.016
    1UNL    H28   63  -0.490  -0.055  -0.244
   0.00000   0.00000   0.00000   0.00000   0.00000   0.00000   0.00000   0.00000   0.00000
Generated with MDTraj, t= 29.0
 63
    1UNL     C1    1  -0.200  -0.302  -0.208
    1UNL     C2    2  -0.070  -0.252  -0.146
    1UNL     C3    3   0.040  -0.365  -0.146
    1UNL     C4    4   0.171  -0.320  -0.074
    1UNL     O1    5   0.276  -0.411  -0.048
    1UNL     O2    6   0.214  -0.201  -0.153
    1UNL     C5    7   0.106  -0.102  -0.136
    1UNL     O3    8  -0.012  -0.140  -0.216
    1UNL     C6    9   0.062  -0.118   0.011
    1UNL     C7   10   0.080  -0.003   0.112
    1UNL     O4   11   0.216   0.027   0.144
    1UNL     C8   12   0.273   0.117   0.060
    1UNL     O5   13   0.207   0.172  -0.028
    1UNL     C9   14   0.412   0.143   0.077
    1UNL    C10   15   0.499   0.045   0.036
    1UNL    C11   16   0.637   0.076   0.021
    1UNL    C12   17   0.677   0.205   0.044
    1UNL    C13   18   0.596   0.306   0.084
    1UNL    C14   19   0.461   0.272   0.110
    1UNL     O6   20   0.376   0.366   0.165
    1UNL    C15   21   0.127  -0.249   0.060
    1UNL    C16   22  -0.019  -0.295   0.112
    1UNL    C17   23  -0.074  -0.192   0.007
    1UNL     O7   24  -0.199  -0.126   0.048
    1UNL    C18   25  -0.229  -0.022  -0.035
    1UNL     O8   26  -0.175   0.093   0.013
    1UNL    C19   27  -0.260   0.173   0.107
    1UNL    C20   28  -0.192   0.301   0.139
    1UNL     O9   29  -0.265   0.383   0.222
    1UNL    C21   30  -0.399   0.214   0.037
    1UNL    O10   31  -0.515   0.197   0.115
    1UNL    C22   32  -0.417   0.144  -0.103
    1UNL    O11   33  -0.557   0.156  -0.134
    1UNL    C23   34  -0.375  -0.006  -0.084
    1UNL    O12   35  -0.404  -0.088  -0.201
    1UNL     H1   36  -0.246  -0.381  -0.149
    1UNL     H2   37  -0.276  -0.225  -0.208
    1UNL     H3   38  -0.184  -0.335  -0.311
    1UNL     H4   39   0.009  -0.461  -0.108
    1UNL     H5   40   0.071  -0.379  -0.251
    1UNL     H6   41   0.357  -0.396  -0.099
    1UNL     H7   42   0.141   0.007  -0.166
    1UNL     H8   43   0.027   0.082   0.078
    1UNL     H9   44   0.039  -0.043   0.206
    1UNL    H10   45   0.459  -0.049   0.003
    1UNL    H11   46   0.717   0.014  -0.015
    1UNL    H12   47   0.773   0.236   0.014
    1UNL    H13   48   0.619   0.408   0.104
    1UNL    H14   49   0.410   0.455   0.148
    1UNL    H15   50   0.206  -0.238   0.139
    1UNL    H16   51  -0.049  -0.398   0.086
    1UNL    H17   52  -0.055  -0.272   0.220
    1UNL    H18   53  -0.166  -0.027  -0.136
    1UNL    H19   54  -0.282   0.104   0.188
    1UNL    H20   55  -0.154   0.357   0.046
    1UNL    H21   56  -0.097   0.274   0.192
    1UNL    H22   57  -0.239   0.480   0.214
    1UNL    H23   58  -0.382   0.334   0.035
    1UNL    H24   59  -0.493   0.205   0.214
    1UNL    H25   60  -0.358   0.190  -0.186
    1UNL    H26   61  -0.609   0.164  -0.055
    1UNL    H27   62  -0.435  -0.036   0.004
    1UNL    H28   63  -0.377  -0.046  -0.285
   0.00000   0.00000   0.00000   0.00000   0.00000   0.00000   0.00000   0.00000   0.00000
Generated with MDTraj, t= 30.0
 63
    1UNL     C1    1  -0.185  -0.309  -0.201
    1UNL     C2    2  -0.056  -0.257  -0.137
    1UNL     C3    3   0.054  -0.364  -0.151
    1UNL     C4    4   0.174  -0.307  -0.069
    1UNL     O1    5   0.277  -0.403  -0.054
    1UNL     O2    6   0.214  -0.190  -0.139
    1UNL     C5    7   0.107  -0.094  -0.115
    1UNL     O3    8   0.000  -0.138  -0.193
    1UNL     C6    9   0.054  -0.119   0.037
    1UNL     C7   10   0.069  -0.004   0.136
    1UNL     O4   11   0.198   0.030   0.168
    1UNL     C8   12   0.251   0.107   0.074
    1UNL     O5   13   0.173   0.157  -0.006
    1UNL     C9   14   0.391   0.137   0.057
    1UNL    C10   15   0.481   0.052  -0.015
    1UNL    C11   16   0.615   0.081  -0.034
    1UNL    C12   17   0.660   0.206   0.017
    1UNL    C13   18   0.577   0.282   0.087
    1UNL    C14   19   0.441   0.258   0.108
    1UNL     O6   20   0.362   0.344   0.183
    1UNL    C15   21   0.122  -0.260   0.072
    1UNL    C16   22  -0.014  -0.310   0.110
    1UNL    C17   23  -0.079  -0.205   0.014
    1UNL     O7   24  -0.189  -0.117   0.047
    1UNL    C18   25  -0.207  -0.004  -0.045
    1UNL     O8   26  -0.158   0.123  -0.002
    1UNL    C19   27  -0.247   0.187   0.091
    1UNL    C20   28  -0.184   0.312   0.148
    1UNL     O9   29  -0.267   0.381   0.237
    1UNL    C21   30  -0.388   0.212   0.024
    1UNL    O10   31  -0.486   0.198   0.117
    1UNL    C22   32  -0.407   0.142  -0.112
    1UNL    O11   33  -0.541   0.143  -0.151
    1UNL    C23   34  -0.360  -0.003  -0.091
    1UNL    O12   35  -0.391  -0.075  -0.216
    1UNL     H1   36  -0.213  -0.404  -0.156
    1UNL     H2   37  -0.276  -0.245  -0.198
    1UNL     H3   38  -0.150  -0.326  -0.302
    1UNL     H4   39   0.026  -0.462  -0.111
    1UNL     H5   40   0.078  -0.377  -0.255
    1UNL     H6   41   0.323  -0.422  -0.139
    1UNL     H7   42   0.139   0.019  -0.129
    1UNL     H8   43   0.010   0.069   0.083
    1UNL     H9   44   0.012  -0.028   0.228
    1UNL    H10   45   0.451  -0.036  -0.072
    1UNL    H11   46   0.671   0.024  -0.105
    1UNL    H12   47   0.762   0.251  -0.001
    1UNL    H13   48   0.605   0.380   0.124
    1UNL    H14   49   0.400   0.434   0.171
    1UNL    H15   50   0.206  -0.261   0.147
    1UNL    H16   51  -0.053  -0.406   0.077
    1UNL    H17   52  -0.046  -0.295   0.222
    1UNL    H18   53  -0.152  -0.022  -0.148
    1UNL    H19   54  -0.267   0.112   0.172
    1UNL    H20   55  -0.162   0.382   0.063
    1UNL    H21   56  -0.088   0.296   0.195
    1UNL    H22   57  -0.230   0.471   0.261
    1UNL    H23   58  -0.403   0.332   0.005
    1UNL    H24   59  -0.455   0.237   0.205
    1UNL    H25   60  -0.345   0.188  -0.196
    1UNL    H26   61  -0.593   0.128  -0.065
    1UNL    H27   62  -0.408  -0.046   0.001
    1UNL    H28   63  -0.477  -0.038  -0.251
   0.00000   0.00000   0.00000   0.00000   0.00000   0.00000   0.00000   0.00000   0.00000
Generated with MDTraj, t= 31.0
 63
    1UNL     C1    1  -0.169  -0.293  -0.220
    1UNL     C2    2  -0.045  -0.253  -0.141
    1UNL     C3    3   0.063  -0.362  -0.132
    1UNL     C4    4   0.184  -0.312  -0.047
    1UNL     O1    5   0.281  -0.417  -0.029
    1UNL     O2    6   0.226  -0.192  -0.119
    1UNL     C5    7   0.121  -0.098  -0.107
    1UNL     O3    8   0.017  -0.138  -0.205
    1UNL     C6    9   0.063  -0.119   0.038
    1UNL     C7   10   0.061   0.006   0.127
    1UNL     O4   11   0.184   0.046   0.153
    1UNL     C8   12   0.221   0.135   0.057
    1UNL     O5   13   0.142   0.187  -0.023
    1UNL     C9   14   0.366   0.153   0.035
    1UNL    C10   15   0.441   0.073  -0.050
    1UNL    C11   16   0.577   0.087  -0.063
    1UNL    C12   17   0.647   0.185   0.014
    1UNL    C13   18   0.575   0.265   0.097
    1UNL    C14   19   0.435   0.246   0.105
    1UNL     O6   20   0.371   0.325   0.204
    1UNL    C15   21   0.127  -0.256   0.088
    1UNL    C16   22  -0.020  -0.297   0.120
    1UNL    C17   23  -0.068  -0.200   0.004
    1UNL     O7   24  -0.188  -0.133   0.033
    1UNL    C18   25  -0.211  -0.021  -0.055
    1UNL     O8   26  -0.158   0.102  -0.004
    1UNL    C19   27  -0.240   0.173   0.090
    1UNL    C20   28  -0.166   0.282   0.172
    1UNL     O9   29  -0.262   0.360   0.256
    1UNL    C21   30  -0.365   0.226   0.024
    1UNL    O10   31  -0.468   0.216   0.117
    1UNL    C22   32  -0.399   0.145  -0.115
    1UNL    O11   33  -0.531   0.158  -0.158
    1UNL    C23   34  -0.363  -0.006  -0.091
    1UNL    O12   35  -0.401  -0.077  -0.209
    1UNL     H1   36  -0.244  -0.333  -0.149
    1UNL     H2   37  -0.215  -0.204  -0.262
    1UNL     H3   38  -0.140  -0.362  -0.299
    1UNL     H4   39   0.017  -0.455  -0.097
    1UNL     H5   40   0.106  -0.379  -0.227
    1UNL     H6   41   0.359  -0.372   0.014
    1UNL     H7   42   0.155   0.012  -0.135
    1UNL     H8   43   0.004   0.079   0.075
    1UNL     H9   44   0.003  -0.004   0.220
    1UNL    H10   45   0.391   0.002  -0.113
    1UNL    H11   46   0.636   0.030  -0.134
    1UNL    H12   47   0.750   0.190  -0.004
    1UNL    H13   48   0.623   0.334   0.164
    1UNL    H14   49   0.443   0.390   0.225
    1UNL    H15   50   0.188  -0.254   0.183
    1UNL    H16   51  -0.047  -0.404   0.109
    1UNL    H17   52  -0.043  -0.262   0.227
    1UNL    H18   53  -0.157  -0.036  -0.157
    1UNL    H19   54  -0.270   0.102   0.174
    1UNL    H20   55  -0.121   0.362   0.113
    1UNL    H21   56  -0.092   0.245   0.236
    1UNL    H22   57  -0.218   0.427   0.309
    1UNL    H23   58  -0.347   0.339  -0.010
    1UNL    H24   59  -0.475   0.288   0.178
    1UNL    H25   60  -0.341   0.178  -0.208
    1UNL    H26   61  -0.590   0.137  -0.083
    1UNL    H27   62  -0.412  -0.047   0.001
    1UNL    H28   63  -0.486  -0.037  -0.239
   0.00000   0.00000   0.00000   0.00000   0.00000   0.00000   0.00000   0.00000   0.00000
Generated with MDTraj, t= 32.0
 63
    1UNL     C1    1  -0.155  -0.316  -0.227
    1UNL     C2    2  -0.035  -0.260  -0.142
    1UNL     C3    3   0.077  -0.371  -0.115
    1UNL     C4    4   0.189  -0.312  -0.027
    1UNL     O1    5   0.291  -0.411   0.006
    1UNL     O2    6   0.240  -0.203  -0.100
    1UNL     C5    7   0.132  -0.109  -0.111
    1UNL     O3    8   0.031  -0.152  -0.209
    1UNL     C6    9   0.053  -0.117   0.024
    1UNL     C7   10   0.051   0.009   0.105
    1UNL     O4   11   0.186   0.051   0.129
    1UNL     C8   12   0.223   0.154   0.047
    1UNL     O5   13   0.138   0.209  -0.025
    1UNL     C9   14   0.375   0.172   0.037
    1UNL    C10   15   0.438   0.108  -0.070
    1UNL    C11   16   0.569   0.101  -0.090
    1UNL    C12   17   0.647   0.173  -0.004
    1UNL    C13   18   0.592   0.247   0.105
    1UNL    C14   19   0.454   0.250   0.126
    1UNL     O6   20   0.399   0.327   0.227
    1UNL    C15   21   0.118  -0.237   0.092
    1UNL    C16   22  -0.033  -0.283   0.126
    1UNL    C17   23  -0.076  -0.207  -0.000
    1UNL     O7   24  -0.210  -0.153   0.006
    1UNL    C18   25  -0.230  -0.028  -0.065
    1UNL     O8   26  -0.168   0.085   0.003
    1UNL    C19   27  -0.253   0.159   0.093
    1UNL    C20   28  -0.167   0.250   0.184
    1UNL     O9   29  -0.243   0.327   0.282
    1UNL    C21   30  -0.360   0.232   0.018
    1UNL    O10   31  -0.477   0.251   0.093
    1UNL    C22   32  -0.412   0.148  -0.112
    1UNL    O11   33  -0.541   0.179  -0.147
    1UNL    C23   34  -0.380  -0.000  -0.094
    1UNL    O12   35  -0.420  -0.065  -0.211
    1UNL     H1   36  -0.179  -0.424  -0.217
    1UNL     H2   37  -0.244  -0.270  -0.194
    1UNL     H3   38  -0.144  -0.285  -0.332
    1UNL     H4   39   0.044  -0.463  -0.068
    1UNL     H5   40   0.120  -0.398  -0.208
    1UNL     H6   41   0.377  -0.364  -0.009
    1UNL     H7   42   0.170  -0.001  -0.140
    1UNL     H8   43   0.003   0.079   0.048
    1UNL     H9   44  -0.009   0.008   0.196
    1UNL    H10   45   0.368   0.061  -0.136
    1UNL    H11   46   0.615   0.040  -0.165
    1UNL    H12   47   0.756   0.169  -0.015
    1UNL    H13   48   0.643   0.289   0.192
    1UNL    H14   49   0.474   0.375   0.271
    1UNL    H15   50   0.181  -0.190   0.173
    1UNL    H16   51  -0.040  -0.398   0.129
    1UNL    H17   52  -0.074  -0.242   0.220
    1UNL    H18   53  -0.176  -0.039  -0.168
    1UNL    H19   54  -0.306   0.083   0.163
    1UNL    H20   55  -0.122   0.320   0.116
    1UNL    H21   56  -0.096   0.198   0.241
    1UNL    H22   57  -0.179   0.380   0.330
    1UNL    H23   58  -0.321   0.335  -0.025
    1UNL    H24   59  -0.451   0.235   0.186
    1UNL    H25   60  -0.363   0.186  -0.207
    1UNL    H26   61  -0.592   0.207  -0.067
    1UNL    H27   62  -0.439  -0.038  -0.006
    1UNL    H28   63  -0.513  -0.051  -0.226
   0.00000   0.00000   0.00000   0.00000   0.00000   0.00000   0.00000   0.00000   0.00000
Generated with MDTraj, t= 33.0
 63
    1UNL     C1    1  -0.161  -0.336  -0.200
    1UNL     C2    2  -0.045  -0.273  -0.132
    1UNL     C3    3   0.074  -0.373  -0.122
    1UNL     C4    4   0.177  -0.304  -0.027
    1UNL     O1    5   0.275  -0.393   0.025
    1UNL     O2    6   0.234  -0.189  -0.104
    1UNL     C5    7   0.112  -0.105  -0.118
    1UNL     O3    8   0.019  -0.156  -0.204
    1UNL     C6    9   0.047  -0.105   0.029
    1UNL     C7   10   0.052   0.020   0.101
    1UNL     O4   11   0.195   0.045   0.124
    1UNL     C8   12   0.239   0.152   0.046
    1UNL     O5   13   0.163   0.231  -0.015
    1UNL     C9   14   0.390   0.161   0.031
    1UNL    C10   15   0.453   0.110  -0.085
    1UNL    C11   16   0.589   0.135  -0.103
    1UNL    C12   17   0.662   0.205  -0.006
    1UNL    C13   18   0.608   0.252   0.113
    1UNL    C14   19   0.470   0.235   0.126
    1UNL     O6   20   0.396   0.278   0.233
    1UNL    C15   21   0.106  -0.235   0.099
    1UNL    C16   22  -0.037  -0.275   0.126
    1UNL    C17   23  -0.083  -0.197   0.005
    1UNL     O7   24  -0.213  -0.142   0.003
    1UNL    C18   25  -0.226  -0.023  -0.069
    1UNL     O8   26  -0.158   0.093  -0.021
    1UNL    C19   27  -0.245   0.154   0.080
    1UNL    C20   28  -0.175   0.240   0.188
    1UNL     O9   29  -0.273   0.283   0.277
    1UNL    C21   30  -0.358   0.233   0.010
    1UNL    O10   31  -0.473   0.250   0.089
    1UNL    C22   32  -0.414   0.154  -0.119
    1UNL    O11   33  -0.549   0.168  -0.127
    1UNL    C23   34  -0.380   0.006  -0.097
    1UNL    O12   35  -0.416  -0.072  -0.211
    1UNL     H1   36  -0.233  -0.357  -0.120
    1UNL     H2   37  -0.213  -0.274  -0.269
    1UNL     H3   38  -0.133  -0.428  -0.252
    1UNL     H4   39   0.037  -0.463  -0.081
    1UNL     H5   40   0.114  -0.389  -0.220
    1UNL     H6   41   0.353  -0.338   0.048
    1UNL     H7   42   0.140   0.006  -0.144
    1UNL     H8   43   0.006   0.103   0.063
    1UNL     H9   44   0.005  -0.004   0.196
    1UNL    H10   45   0.395   0.060  -0.162
    1UNL    H11   46   0.639   0.090  -0.188
    1UNL    H12   47   0.768   0.204   0.006
    1UNL    H13   48   0.680   0.284   0.187
    1UNL    H14   49   0.459   0.315   0.300
    1UNL    H15   50   0.169  -0.209   0.189
    1UNL    H16   51  -0.049  -0.392   0.123
    1UNL    H17   52  -0.085  -0.240   0.216
    1UNL    H18   53  -0.185  -0.050  -0.176
    1UNL    H19   54  -0.301   0.072   0.137
    1UNL    H20   55  -0.138   0.327   0.139
    1UNL    H21   56  -0.106   0.178   0.234
    1UNL    H22   57  -0.228   0.358   0.327
    1UNL    H23   58  -0.317   0.336  -0.023
    1UNL    H24   59  -0.425   0.293   0.164
    1UNL    H25   60  -0.372   0.198  -0.211
    1UNL    H26   61  -0.580   0.230  -0.056
    1UNL    H27   62  -0.438  -0.039  -0.013
    1UNL    H28   63  -0.514  -0.091  -0.227
   0.00000   0.00000   0.00000   0.00000   0.00000   0.00000   0.00000   0.00000   0.00000
Generated with MDTraj, t= 34.0
 63
    1UNL     C1    1  -0.188  -0.317  -0.185
    1UNL     C2    2  -0.059  -0.262  -0.126
    1UNL     C3    3   0.048  -0.379  -0.106
    1UNL     C4    4   0.171  -0.318  -0.036
    1UNL     O1    5   0.275  -0.410   0.009
    1UNL     O2    6   0.216  -0.212  -0.131
    1UNL     C5    7   0.115  -0.115  -0.132
    1UNL     O3    8  -0.000  -0.160  -0.205
    1UNL     C6    9   0.062  -0.103   0.021
    1UNL     C7   10   0.063   0.026   0.107
    1UNL     O4   11   0.204   0.068   0.144
    1UNL     C8   12   0.255   0.149   0.045
    1UNL     O5   13   0.184   0.184  -0.052
    1UNL     C9   14   0.400   0.170   0.036
    1UNL    C10   15   0.463   0.135  -0.088
    1UNL    C11   16   0.603   0.164  -0.104
    1UNL    C12   17   0.673   0.224  -0.004
    1UNL    C13   18   0.610   0.250   0.118
    1UNL    C14   19   0.478   0.223   0.141
    1UNL     O6   20   0.415   0.252   0.262
    1UNL    C15   21   0.126  -0.233   0.094
    1UNL    C16   22  -0.023  -0.263   0.141
    1UNL    C17   23  -0.076  -0.190   0.014
    1UNL     O7   24  -0.205  -0.125   0.031
    1UNL    C18   25  -0.223  -0.017  -0.055
    1UNL     O8   26  -0.168   0.107  -0.021
    1UNL    C19   27  -0.262   0.167   0.078
    1UNL    C20   28  -0.186   0.260   0.171
    1UNL     O9   29  -0.268   0.285   0.283
    1UNL    C21   30  -0.388   0.232   0.010
    1UNL    O10   31  -0.508   0.234   0.092
    1UNL    C22   32  -0.419   0.145  -0.119
    1UNL    O11   33  -0.554   0.144  -0.149
    1UNL    C23   34  -0.372  -0.008  -0.099
    1UNL    O12   35  -0.392  -0.068  -0.229
    1UNL     H1   36  -0.210  -0.419  -0.161
    1UNL     H2   37  -0.270  -0.258  -0.143
    1UNL     H3   38  -0.188  -0.291  -0.290
    1UNL     H4   39   0.008  -0.456  -0.048
    1UNL     H5   40   0.069  -0.412  -0.207
    1UNL     H6   41   0.363  -0.370   0.021
    1UNL     H7   42   0.148  -0.008  -0.167
    1UNL     H8   43   0.020   0.107   0.059
    1UNL     H9   44   0.013   0.019   0.205
    1UNL    H10   45   0.404   0.108  -0.173
    1UNL    H11   46   0.655   0.142  -0.195
    1UNL    H12   47   0.782   0.244  -0.019
    1UNL    H13   48   0.671   0.282   0.200
    1UNL    H14   49   0.468   0.236   0.343
    1UNL    H15   50   0.210  -0.197   0.159
    1UNL    H16   51  -0.061  -0.372   0.152
    1UNL    H17   52  -0.052  -0.211   0.232
    1UNL    H18   53  -0.158  -0.045  -0.149
    1UNL    H19   54  -0.307   0.091   0.149
    1UNL    H20   55  -0.160   0.345   0.110
    1UNL    H21   56  -0.106   0.205   0.207
    1UNL    H22   57  -0.244   0.371   0.332
    1UNL    H23   58  -0.367   0.336  -0.026
    1UNL    H24   59  -0.494   0.310   0.152
    1UNL    H25   60  -0.370   0.190  -0.204
    1UNL    H26   61  -0.605   0.173  -0.072
    1UNL    H27   62  -0.438  -0.055  -0.024
    1UNL    H28   63  -0.489  -0.061  -0.246
   0.00000   0.00000   0.00000   0.00000   0.00000   0.00000   0.00000   0.00000   0.00000
Generated with MDTraj, t= 35.0
 63
    1UNL     C1    1  -0.207  -0.307  -0.176
    1UNL     C2    2  -0.076  -0.258  -0.120
    1UNL     C3    3   0.033  -0.376  -0.099
    1UNL     C4    4   0.161  -0.320  -0.039
    1UNL     O1    5   0.272  -0.413  -0.018
    1UNL     O2    6   0.206  -0.224  -0.136
    1UNL     C5    7   0.109  -0.117  -0.124
    1UNL     O3    8  -0.011  -0.157  -0.205
    1UNL     C6    9   0.064  -0.106   0.023
    1UNL     C7   10   0.082   0.026   0.101
    1UNL     O4   11   0.218   0.066   0.121
    1UNL     C8   12   0.270   0.132   0.014
    1UNL     O5   13   0.212   0.138  -0.094
    1UNL     C9   14   0.408   0.167   0.015
    1UNL    C10   15   0.484   0.174  -0.097
    1UNL    C11   16   0.618   0.210  -0.096
    1UNL    C12   17   0.676   0.230   0.027
    1UNL    C13   18   0.599   0.226   0.141
    1UNL    C14   19   0.461   0.199   0.140
    1UNL     O6   20   0.395   0.212   0.257
    1UNL    C15   21   0.121  -0.232   0.088
    1UNL    C16   22  -0.023  -0.267   0.145
    1UNL    C17   23  -0.074  -0.179   0.021
    1UNL     O7   24  -0.185  -0.102   0.053
    1UNL    C18   25  -0.205   0.002  -0.048
    1UNL     O8   26  -0.171   0.133  -0.005
    1UNL    C19   27  -0.269   0.189   0.095
    1UNL    C20   28  -0.211   0.309   0.167
    1UNL     O9   29  -0.304   0.333   0.273
    1UNL    C21   30  -0.405   0.216   0.022
    1UNL    O10   31  -0.513   0.173   0.107
    1UNL    C22   32  -0.410   0.143  -0.111
    1UNL    O11   33  -0.534   0.122  -0.169
    1UNL    C23   34  -0.352  -0.005  -0.091
    1UNL    O12   35  -0.370  -0.074  -0.214
    1UNL     H1   36  -0.271  -0.334  -0.094
    1UNL     H2   37  -0.253  -0.230  -0.244
    1UNL     H3   38  -0.178  -0.386  -0.242
    1UNL     H4   39  -0.003  -0.451  -0.035
    1UNL     H5   40   0.059  -0.409  -0.196
    1UNL     H6   41   0.353  -0.365  -0.041
    1UNL     H7   42   0.156  -0.021  -0.174
    1UNL     H8   43   0.038   0.113   0.060
    1UNL     H9   44   0.046   0.017   0.208
    1UNL    H10   45   0.423   0.164  -0.187
    1UNL    H11   46   0.660   0.248  -0.190
    1UNL    H12   47   0.779   0.253   0.031
    1UNL    H13   48   0.642   0.242   0.238
    1UNL    H14   49   0.456   0.205   0.333
    1UNL    H15   50   0.192  -0.222   0.172
    1UNL    H16   51  -0.048  -0.374   0.142
    1UNL    H17   52  -0.051  -0.229   0.249
    1UNL    H18   53  -0.141  -0.024  -0.142
    1UNL    H19   54  -0.283   0.113   0.174
    1UNL    H20   55  -0.217   0.393   0.097
    1UNL    H21   56  -0.113   0.286   0.200
    1UNL    H22   57  -0.286   0.411   0.328
    1UNL    H23   58  -0.416   0.322  -0.005
    1UNL    H24   59  -0.546   0.254   0.158
    1UNL    H25   60  -0.347   0.187  -0.186
    1UNL    H26   61  -0.599   0.112  -0.093
    1UNL    H27   62  -0.405  -0.065  -0.016
    1UNL    H28   63  -0.461  -0.053  -0.238
   0.00000   0.00000   0.00000   0.00000   0.00000   0.00000   0.00000   0.00000   0.00000
Generated with MDTraj, t= 36.0
 63
    1UNL     C1    1  -0.208  -0.327  -0.127
    1UNL     C2    2  -0.067  -0.269  -0.109
    1UNL     C3    3   0.029  -0.385  -0.092
    1UNL     C4    4   0.158  -0.321  -0.044
    1UNL     O1    5   0.261  -0.423  -0.011
    1UNL     O2    6   0.206  -0.234  -0.144
    1UNL     C5    7   0.110  -0.123  -0.147
    1UNL     O3    8  -0.010  -0.180  -0.204
    1UNL     C6    9   0.074  -0.102   0.003
    1UNL     C7   10   0.092   0.042   0.059
    1UNL     O4   11   0.223   0.066   0.082
    1UNL     C8   12   0.282   0.129  -0.012
    1UNL     O5   13   0.236   0.157  -0.123
    1UNL     C9   14   0.425   0.156   0.015
    1UNL    C10   15   0.505   0.181  -0.089
    1UNL    C11   16   0.626   0.238  -0.079
    1UNL    C12   17   0.672   0.263   0.054
    1UNL    C13   18   0.596   0.227   0.162
    1UNL    C14   19   0.467   0.172   0.146
    1UNL     O6   20   0.395   0.151   0.259
    1UNL    C15   21   0.131  -0.231   0.076
    1UNL    C16   22  -0.007  -0.249   0.142
    1UNL    C17   23  -0.067  -0.179   0.025
    1UNL     O7   24  -0.188  -0.105   0.049
    1UNL    C18   25  -0.213   0.008  -0.040
    1UNL     O8   26  -0.180   0.136   0.024
    1UNL    C19   27  -0.279   0.190   0.118
    1UNL    C20   28  -0.235   0.323   0.170
    1UNL     O9   29  -0.343   0.394   0.232
    1UNL    C21   30  -0.414   0.199   0.041
    1UNL    O10   31  -0.520   0.137   0.122
    1UNL    C22   32  -0.414   0.144  -0.100
    1UNL    O11   33  -0.540   0.144  -0.161
    1UNL    C23   34  -0.356   0.001  -0.094
    1UNL    O12   35  -0.361  -0.053  -0.223
    1UNL     H1   36  -0.232  -0.382  -0.036
    1UNL     H2   37  -0.278  -0.247  -0.142
    1UNL     H3   38  -0.211  -0.381  -0.220
    1UNL     H4   39  -0.016  -0.447  -0.017
    1UNL     H5   40   0.042  -0.435  -0.182
    1UNL     H6   41   0.288  -0.474  -0.089
    1UNL     H7   42   0.148  -0.033  -0.214
    1UNL     H8   43   0.059   0.121  -0.008
    1UNL     H9   44   0.040   0.047   0.163
    1UNL    H10   45   0.453   0.185  -0.183
    1UNL    H11   46   0.669   0.271  -0.171
    1UNL    H12   47   0.774   0.302   0.065
    1UNL    H13   48   0.640   0.236   0.260
    1UNL    H14   49   0.450   0.144   0.340
    1UNL    H15   50   0.225  -0.223   0.135
    1UNL    H16   51  -0.050  -0.347   0.153
    1UNL    H17   52  -0.021  -0.185   0.238
    1UNL    H18   53  -0.149  -0.011  -0.136
    1UNL    H19   54  -0.292   0.119   0.197
    1UNL    H20   55  -0.195   0.383   0.083
    1UNL    H21   56  -0.150   0.317   0.239
    1UNL    H22   57  -0.307   0.462   0.289
    1UNL    H23   58  -0.442   0.301   0.040
    1UNL    H24   59  -0.501   0.044   0.152
    1UNL    H25   60  -0.357   0.217  -0.155
    1UNL    H26   61  -0.602   0.122  -0.090
    1UNL    H27   62  -0.414  -0.058  -0.024
    1UNL    H28   63  -0.450  -0.026  -0.261
   0.00000   0.00000   0.00000   0.00000   0.00000   0.00000   0.00000   0.00000   0.00000
Generated with MDTraj, t= 37.0
 63
    1UNL     C1    1  -0.218  -0.334  -0.130
    1UNL     C2    2  -0.084  -0.280  -0.100
    1UNL     C3    3   0.026  -0.393  -0.067
    1UNL     C4    4   0.157  -0.319  -0.037
    1UNL     O1    5   0.260  -0.404  -0.002
    1UNL     O2    6   0.190  -0.242  -0.161
    1UNL     C5    7   0.087  -0.139  -0.169
    1UNL     O3    8  -0.033  -0.196  -0.215
    1UNL     C6    9   0.059  -0.098  -0.015
    1UNL     C7   10   0.092   0.049   0.031
    1UNL     O4   11   0.217   0.076   0.073
    1UNL     C8   12   0.301   0.127  -0.014
    1UNL     O5   13   0.272   0.119  -0.134
    1UNL     C9   14   0.431   0.180   0.025
    1UNL    C10   15   0.504   0.228  -0.082
    1UNL    C11   16   0.635   0.270  -0.063
    1UNL    C12   17   0.689   0.269   0.067
    1UNL    C13   18   0.619   0.215   0.170
    1UNL    C14   19   0.483   0.173   0.158
    1UNL     O6   20   0.421   0.121   0.269
    1UNL    C15   21   0.125  -0.206   0.073
    1UNL    C16   22  -0.008  -0.225   0.147
    1UNL    C17   23  -0.080  -0.175   0.019
    1UNL     O7   24  -0.200  -0.109   0.052
    1UNL    C18   25  -0.224   0.003  -0.028
    1UNL     O8   26  -0.181   0.126   0.028
    1UNL    C19   27  -0.279   0.184   0.115
    1UNL    C20   28  -0.238   0.330   0.152
    1UNL     O9   29  -0.342   0.412   0.208
    1UNL    C21   30  -0.420   0.184   0.054
    1UNL    O10   31  -0.510   0.095   0.134
    1UNL    C22   32  -0.420   0.144  -0.091
    1UNL    O11   33  -0.556   0.148  -0.135
    1UNL    C23   34  -0.357   0.001  -0.103
    1UNL    O12   35  -0.341  -0.032  -0.239
    1UNL     H1   36  -0.267  -0.375  -0.040
    1UNL     H2   37  -0.278  -0.271  -0.187
    1UNL     H3   38  -0.194  -0.408  -0.207
    1UNL     H4   39  -0.015  -0.458   0.010
    1UNL     H5   40   0.034  -0.440  -0.159
    1UNL     H6   41   0.313  -0.411  -0.084
    1UNL     H7   42   0.129  -0.048  -0.231
    1UNL     H8   43   0.053   0.114  -0.050
    1UNL     H9   44   0.029   0.071   0.127
    1UNL    H10   45   0.441   0.234  -0.171
    1UNL    H11   46   0.701   0.293  -0.148
    1UNL    H12   47   0.797   0.282   0.062
    1UNL    H13   48   0.676   0.181   0.257
    1UNL    H14   49   0.481   0.110   0.346
    1UNL    H15   50   0.208  -0.186   0.142
    1UNL    H16   51  -0.033  -0.330   0.168
    1UNL    H17   52  -0.014  -0.164   0.241
    1UNL    H18   53  -0.148  -0.018  -0.116
    1UNL    H19   54  -0.276   0.124   0.202
    1UNL    H20   55  -0.193   0.392   0.065
    1UNL    H21   56  -0.145   0.328   0.216
    1UNL    H22   57  -0.301   0.493   0.249
    1UNL    H23   58  -0.453   0.282   0.065
    1UNL    H24   59  -0.478   0.004   0.140
    1UNL    H25   60  -0.374   0.216  -0.158
    1UNL    H26   61  -0.613   0.135  -0.052
    1UNL    H27   62  -0.414  -0.077  -0.052
    1UNL    H28   63  -0.427  -0.025  -0.286
   0.00000   0.00000   0.00000   0.00000   0.00000   0.00000   0.00000   0.00000   0.00000
Generated with MDTraj, t= 38.0
 63
    1UNL     C1    1  -0.229  -0.328  -0.117
    1UNL     C2    2  -0.086  -0.268  -0.096
    1UNL     C3    3   0.021  -0.379  -0.064
    1UNL     C4    4   0.160  -0.311  -0.033
    1UNL     O1    5   0.273  -0.402   0.009
    1UNL     O2    6   0.184  -0.238  -0.150
    1UNL     C5    7   0.090  -0.133  -0.158
    1UNL     O3    8  -0.034  -0.189  -0.203
    1UNL     C6    9   0.066  -0.089  -0.007
    1UNL     C7   10   0.080   0.059   0.051
    1UNL     O4   11   0.214   0.090   0.086
    1UNL     C8   12   0.292   0.121  -0.019
    1UNL     O5   13   0.265   0.100  -0.137
    1UNL     C9   14   0.428   0.162   0.011
    1UNL    C10   15   0.508   0.231  -0.085
    1UNL    C11   16   0.626   0.290  -0.044
    1UNL    C12   17   0.672   0.275   0.088
    1UNL    C13   18   0.601   0.200   0.177
    1UNL    C14   19   0.479   0.142   0.147
    1UNL     O6   20   0.418   0.069   0.240
    1UNL    C15   21   0.134  -0.199   0.077
    1UNL    C16   22  -0.001  -0.213   0.161
    1UNL    C17   23  -0.071  -0.163   0.032
    1UNL     O7   24  -0.185  -0.071   0.052
    1UNL    C18   25  -0.214   0.008  -0.065
    1UNL     O8   26  -0.181   0.150  -0.027
    1UNL    C19   27  -0.260   0.194   0.092
    1UNL    C20   28  -0.240   0.344   0.121
    1UNL     O9   29  -0.321   0.384   0.222
    1UNL    C21   30  -0.414   0.169   0.064
    1UNL    O10   31  -0.471   0.066   0.143
    1UNL    C22   32  -0.435   0.130  -0.076
    1UNL    O11   33  -0.573   0.121  -0.115
    1UNL    C23   34  -0.358   0.002  -0.120
    1UNL    O12   35  -0.363  -0.012  -0.261
    1UNL     H1   36  -0.255  -0.399  -0.039
    1UNL     H2   37  -0.304  -0.254  -0.121
    1UNL     H3   38  -0.241  -0.369  -0.218
    1UNL     H4   39  -0.018  -0.423   0.025
    1UNL     H5   40   0.024  -0.449  -0.143
    1UNL     H6   41   0.312  -0.439  -0.073
    1UNL     H7   42   0.127  -0.051  -0.234
    1UNL     H8   43   0.039   0.132  -0.023
    1UNL     H9   44   0.007   0.057   0.141
    1UNL    H10   45   0.472   0.248  -0.184
    1UNL    H11   46   0.682   0.350  -0.111
    1UNL    H12   47   0.769   0.311   0.116
    1UNL    H13   48   0.652   0.162   0.261
    1UNL    H14   49   0.454   0.061   0.333
    1UNL    H15   50   0.226  -0.158   0.121
    1UNL    H16   51  -0.033  -0.321   0.174
    1UNL    H17   52  -0.005  -0.154   0.252
    1UNL    H18   53  -0.145  -0.030  -0.151
    1UNL    H19   54  -0.228   0.135   0.172
    1UNL    H20   55  -0.254   0.404   0.022
    1UNL    H21   56  -0.134   0.376   0.147
    1UNL    H22   57  -0.311   0.480   0.257
    1UNL    H23   58  -0.462   0.257   0.081
    1UNL    H24   59  -0.429  -0.017   0.120
    1UNL    H25   60  -0.402   0.204  -0.151
    1UNL    H26   61  -0.621   0.103  -0.030
    1UNL    H27   62  -0.410  -0.083  -0.077
    1UNL    H28   63  -0.454  -0.014  -0.289
   0.00000   0.00000   0.00000   0.00000   0.00000   0.00000   0.00000   0.00000   0.00000
Generated with MDTraj, t= 39.0
 63
    1UNL     C1    1  -0.220  -0.306  -0.134
    1UNL     C2    2  -0.082  -0.258  -0.099
    1UNL     C3    3   0.022  -0.372  -0.066
    1UNL     C4    4   0.152  -0.296  -0.017
    1UNL     O1    5   0.250  -0.381   0.047
    1UNL     O2    6   0.206  -0.220  -0.134
    1UNL     C5    7   0.103  -0.121  -0.148
    1UNL     O3    8  -0.014  -0.182  -0.212
    1UNL     C6    9   0.061  -0.079  -0.005
    1UNL     C7   10   0.063   0.072   0.042
    1UNL     O4   11   0.191   0.107   0.090
    1UNL     C8   12   0.278   0.124  -0.024
    1UNL     O5   13   0.249   0.110  -0.148
    1UNL     C9   14   0.422   0.150   0.015
    1UNL    C10   15   0.492   0.232  -0.068
    1UNL    C11   16   0.612   0.291  -0.035
    1UNL    C12   17   0.664   0.266   0.091
    1UNL    C13   18   0.601   0.172   0.175
    1UNL    C14   19   0.481   0.106   0.136
    1UNL     O6   20   0.415   0.018   0.223
    1UNL    C15   21   0.116  -0.187   0.092
    1UNL    C16   22  -0.023  -0.197   0.160
    1UNL    C17   23  -0.077  -0.150   0.019
    1UNL     O7   24  -0.194  -0.067   0.036
    1UNL    C18   25  -0.208   0.016  -0.076
    1UNL     O8   26  -0.184   0.160  -0.049
    1UNL    C19   27  -0.251   0.198   0.069
    1UNL    C20   28  -0.234   0.349   0.098
    1UNL     O9   29  -0.270   0.391   0.231
    1UNL    C21   30  -0.404   0.157   0.065
    1UNL    O10   31  -0.413   0.042   0.154
    1UNL    C22   32  -0.444   0.109  -0.074
    1UNL    O11   33  -0.580   0.071  -0.075
    1UNL    C23   34  -0.353  -0.006  -0.128
    1UNL    O12   35  -0.375  -0.016  -0.270
    1UNL     H1   36  -0.282  -0.303  -0.048
    1UNL     H2   37  -0.264  -0.255  -0.225
    1UNL     H3   38  -0.210  -0.406  -0.172
    1UNL     H4   39  -0.008  -0.451  -0.001
    1UNL     H5   40   0.051  -0.413  -0.162
    1UNL     H6   41   0.334  -0.329   0.049
    1UNL     H7   42   0.134  -0.027  -0.212
    1UNL     H8   43   0.036   0.133  -0.047
    1UNL     H9   44  -0.016   0.090   0.123
    1UNL    H10   45   0.433   0.271  -0.151
    1UNL    H11   46   0.649   0.375  -0.096
    1UNL    H12   47   0.751   0.311   0.137
    1UNL    H13   48   0.651   0.164   0.272
    1UNL    H14   49   0.468   0.002   0.306
    1UNL    H15   50   0.192  -0.150   0.161
    1UNL    H16   51  -0.037  -0.308   0.179
    1UNL    H17   52  -0.046  -0.137   0.245
    1UNL    H18   53  -0.131  -0.013  -0.160
    1UNL    H19   54  -0.204   0.144   0.145
    1UNL    H20   55  -0.288   0.416   0.021
    1UNL    H21   56  -0.128   0.377   0.068
    1UNL    H22   57  -0.271   0.488   0.250
    1UNL    H23   58  -0.457   0.232   0.104
    1UNL    H24   59  -0.336  -0.023   0.156
    1UNL    H25   60  -0.439   0.195  -0.144
    1UNL    H26   61  -0.593   0.051   0.019
    1UNL    H27   62  -0.395  -0.095  -0.079
    1UNL    H28   63  -0.469  -0.025  -0.287
   0.00000   0.00000   0.00000   0.00000   0.00000   0.00000   0.00000   0.00000   0.00000
Generated with MDTraj, t= 40.0
 63
    1UNL     C1    1  -0.189  -0.322  -0.155
    1UNL     C2    2  -0.058  -0.262  -0.101
    1UNL     C3    3   0.046  -0.369  -0.058
    1UNL     C4    4   0.160  -0.290   0.008
    1UNL     O1    5   0.253  -0.385   0.061
    1UNL     O2    6   0.217  -0.208  -0.096
    1UNL     C5    7   0.119  -0.116  -0.140
    1UNL     O3    8   0.009  -0.180  -0.202
    1UNL     C6    9   0.055  -0.072  -0.001
    1UNL     C7   10   0.060   0.079   0.034
    1UNL     O4   11   0.184   0.115   0.087
    1UNL     C8   12   0.274   0.149  -0.016
    1UNL     O5   13   0.251   0.145  -0.140
    1UNL     C9   14   0.421   0.172   0.025
    1UNL    C10   15   0.488   0.270  -0.045
    1UNL    C11   16   0.617   0.295  -0.007
    1UNL    C12   17   0.690   0.223   0.083
    1UNL    C13   18   0.618   0.125   0.163
    1UNL    C14   19   0.487   0.097   0.128
    1UNL     O6   20   0.413  -0.004   0.184
    1UNL    C15   21   0.118  -0.176   0.106
    1UNL    C16   22  -0.032  -0.196   0.157
    1UNL    C17   23  -0.084  -0.161   0.012
    1UNL     O7   24  -0.213  -0.088   0.021
    1UNL    C18   25  -0.242  -0.002  -0.087
    1UNL     O8   26  -0.195   0.135  -0.062
    1UNL    C19   27  -0.255   0.193   0.052
    1UNL    C20   28  -0.237   0.347   0.060
    1UNL     O9   29  -0.236   0.395   0.195
    1UNL    C21   30  -0.406   0.151   0.069
    1UNL    O10   31  -0.408   0.049   0.165
    1UNL    C22   32  -0.476   0.108  -0.058
    1UNL    O11   33  -0.606   0.055  -0.027
    1UNL    C23   34  -0.394  -0.000  -0.138
    1UNL    O12   35  -0.393   0.034  -0.274
    1UNL     H1   36  -0.225  -0.399  -0.092
    1UNL     H2   37  -0.266  -0.241  -0.161
    1UNL     H3   38  -0.177  -0.344  -0.260
    1UNL     H4   39   0.009  -0.437   0.011
    1UNL     H5   40   0.081  -0.426  -0.146
    1UNL     H6   41   0.342  -0.345   0.044
    1UNL     H7   42   0.164  -0.025  -0.201
    1UNL     H8   43   0.050   0.140  -0.057
    1UNL     H9   44  -0.026   0.098   0.105
    1UNL    H10   45   0.431   0.329  -0.113
    1UNL    H11   46   0.658   0.381  -0.053
    1UNL    H12   47   0.798   0.238   0.077
    1UNL    H13   48   0.658   0.067   0.243
    1UNL    H14   49   0.462  -0.052   0.255
    1UNL    H15   50   0.196  -0.132   0.167
    1UNL    H16   51  -0.055  -0.299   0.189
    1UNL    H17   52  -0.074  -0.132   0.232
    1UNL    H18   53  -0.184  -0.039  -0.183
    1UNL    H19   54  -0.205   0.153   0.134
    1UNL    H20   55  -0.308   0.399  -0.013
    1UNL    H21   56  -0.145   0.381   0.010
    1UNL    H22   57  -0.237   0.489   0.200
    1UNL    H23   58  -0.449   0.232   0.111
    1UNL    H24   59  -0.348  -0.021   0.134
    1UNL    H25   60  -0.502   0.198  -0.120
    1UNL    H26   61  -0.604   0.039   0.073
    1UNL    H27   62  -0.439  -0.101  -0.124
    1UNL    H28   63  -0.481   0.035  -0.320
   0.00000   0.00000   0.00000   0.00000   0.00000   0.00000   0.00000   0.00000   0.00000
Generated with MDTraj, t= 41.0
 63
    1UNL     C1    1  -0.174  -0.339  -0.166
    1UNL     C2    2  -0.056  -0.264  -0.107
    1UNL     C3    3   0.057  -0.351  -0.041
    1UNL     C4    4   0.174  -0.266   0.016
    1UNL     O1    5   0.276  -0.348   0.080
    1UNL     O2    6   0.226  -0.188  -0.093
    1UNL     C5    7   0.111  -0.109  -0.133
    1UNL     O3    8   0.019  -0.189  -0.207
    1UNL     C6    9   0.034  -0.057  -0.006
    1UNL     C7   10   0.065   0.079   0.046
    1UNL     O4   11   0.191   0.089   0.094
    1UNL     C8   12   0.272   0.156   0.002
    1UNL     O5   13   0.217   0.194  -0.101
    1UNL     C9   14   0.420   0.166   0.020
    1UNL    C10   15   0.487   0.283  -0.019
    1UNL    C11   16   0.624   0.295   0.005
    1UNL    C12   17   0.689   0.198   0.087
    1UNL    C13   18   0.622   0.091   0.135
    1UNL    C14   19   0.486   0.067   0.103
    1UNL     O6   20   0.405  -0.040   0.157
    1UNL    C15   21   0.101  -0.161   0.106
    1UNL    C16   22  -0.044  -0.190   0.151
    1UNL    C17   23  -0.094  -0.151   0.004
    1UNL     O7   24  -0.222  -0.103  -0.003
    1UNL    C18   25  -0.247  -0.004  -0.101
    1UNL     O8   26  -0.185   0.120  -0.069
    1UNL    C19   27  -0.242   0.187   0.050
    1UNL    C20   28  -0.223   0.340   0.038
    1UNL     O9   29  -0.261   0.414   0.148
    1UNL    C21   30  -0.394   0.146   0.084
    1UNL    O10   31  -0.394   0.032   0.171
    1UNL    C22   32  -0.471   0.115  -0.043
    1UNL    O11   33  -0.604   0.071  -0.009
    1UNL    C23   34  -0.398   0.008  -0.134
    1UNL    O12   35  -0.420   0.021  -0.270
    1UNL     H1   36  -0.244  -0.354  -0.084
    1UNL     H2   37  -0.215  -0.282  -0.248
    1UNL     H3   38  -0.140  -0.429  -0.215
    1UNL     H4   39   0.027  -0.421   0.033
    1UNL     H5   40   0.099  -0.419  -0.117
    1UNL     H6   41   0.343  -0.284   0.112
    1UNL     H7   42   0.142  -0.014  -0.194
    1UNL     H8   43   0.055   0.159  -0.023
    1UNL     H9   44   0.001   0.095   0.135
    1UNL    H10   45   0.424   0.354  -0.073
    1UNL    H11   46   0.683   0.366  -0.053
    1UNL    H12   47   0.795   0.196   0.098
    1UNL    H13   48   0.687   0.012   0.174
    1UNL    H14   49   0.464  -0.079   0.224
    1UNL    H15   50   0.162  -0.109   0.178
    1UNL    H16   51  -0.058  -0.292   0.174
    1UNL    H17   52  -0.072  -0.138   0.244
    1UNL    H18   53  -0.196  -0.046  -0.199
    1UNL    H19   54  -0.184   0.147   0.127
    1UNL    H20   55  -0.267   0.378  -0.055
    1UNL    H21   56  -0.121   0.360   0.016
    1UNL    H22   57  -0.259   0.509   0.127
    1UNL    H23   58  -0.447   0.218   0.132
    1UNL    H24   59  -0.335  -0.039   0.135
    1UNL    H25   60  -0.479   0.201  -0.116
    1UNL    H26   61  -0.598   0.039   0.081
    1UNL    H27   62  -0.433  -0.094  -0.103
    1UNL    H28   63  -0.522   0.031  -0.279
   0.00000   0.00000   0.00000   0.00000   0.00000   0.00000   0.00000   0.00000   0.00000
Generated with MDTraj, t= 42.0
 63
    1UNL     C1    1  -0.160  -0.336  -0.162
    1UNL     C2    2  -0.044  -0.261  -0.099
    1UNL     C3    3   0.075  -0.351  -0.058
    1UNL     C4    4   0.182  -0.253   0.005
    1UNL     O1    5   0.286  -0.335   0.068
    1UNL     O2    6   0.223  -0.164  -0.095
    1UNL     C5    7   0.108  -0.087  -0.125
    1UNL     O3    8   0.017  -0.171  -0.199
    1UNL     C6    9   0.039  -0.061   0.020
    1UNL     C7   10   0.041   0.085   0.069
    1UNL     O4   11   0.170   0.114   0.111
    1UNL     C8   12   0.257   0.166   0.022
    1UNL     O5   13   0.214   0.202  -0.088
    1UNL     C9   14   0.409   0.152   0.031
    1UNL    C10   15   0.478   0.271  -0.011
    1UNL    C11   16   0.611   0.277   0.010
    1UNL    C12   17   0.686   0.175   0.077
    1UNL    C13   18   0.617   0.066   0.114
    1UNL    C14   19   0.482   0.050   0.092
    1UNL     O6   20   0.429  -0.068   0.125
    1UNL    C15   21   0.111  -0.171   0.116
    1UNL    C16   22  -0.039  -0.216   0.155
    1UNL    C17   23  -0.082  -0.160   0.013
    1UNL     O7   24  -0.212  -0.102   0.014
    1UNL    C18   25  -0.236  -0.010  -0.092
    1UNL     O8   26  -0.184   0.123  -0.070
    1UNL    C19   27  -0.236   0.193   0.044
    1UNL    C20   28  -0.232   0.340   0.014
    1UNL     O9   29  -0.303   0.406   0.113
    1UNL    C21   30  -0.381   0.156   0.081
    1UNL    O10   31  -0.392   0.051   0.178
    1UNL    C22   32  -0.460   0.122  -0.048
    1UNL    O11   33  -0.600   0.096  -0.026
    1UNL    C23   34  -0.396  -0.006  -0.124
    1UNL    O12   35  -0.421  -0.003  -0.261
    1UNL     H1   36  -0.181  -0.427  -0.102
    1UNL     H2   37  -0.247  -0.279  -0.170
    1UNL     H3   38  -0.136  -0.357  -0.267
    1UNL     H4   39   0.052  -0.431   0.015
    1UNL     H5   40   0.111  -0.413  -0.141
    1UNL     H6   41   0.364  -0.278   0.079
    1UNL     H7   42   0.138   0.006  -0.190
    1UNL     H8   43   0.020   0.151  -0.010
    1UNL     H9   44  -0.014   0.113   0.158
    1UNL    H10   45   0.435   0.359  -0.053
    1UNL    H11   46   0.667   0.356  -0.033
    1UNL    H12   47   0.795   0.168   0.079
    1UNL    H13   48   0.663  -0.024   0.147
    1UNL    H14   49   0.478  -0.116   0.194
    1UNL    H15   50   0.170  -0.114   0.186
    1UNL    H16   51  -0.070  -0.314   0.163
    1UNL    H17   52  -0.101  -0.160   0.227
    1UNL    H18   53  -0.185  -0.049  -0.190
    1UNL    H19   54  -0.172   0.180   0.127
    1UNL    H20   55  -0.281   0.357  -0.079
    1UNL    H21   56  -0.136   0.380   0.008
    1UNL    H22   57  -0.301   0.508   0.107
    1UNL    H23   58  -0.425   0.239   0.125
    1UNL    H24   59  -0.353  -0.031   0.132
    1UNL    H25   60  -0.449   0.207  -0.123
    1UNL    H26   61  -0.616   0.068   0.066
    1UNL    H27   62  -0.443  -0.098  -0.080
    1UNL    H28   63  -0.520   0.007  -0.261
   0.00000   0.00000   0.00000   0.00000   0.00000   0.00000   0.00000   0.00000   0.00000
Generated with MDTraj, t= 43.0
 63
    1UNL     C1    1  -0.174  -0.300  -0.156
    1UNL     C2    2  -0.046  -0.244  -0.105
    1UNL     C3    3   0.065  -0.347  -0.087
    1UNL     C4    4   0.185  -0.269  -0.017
    1UNL     O1    5   0.296  -0.349   0.016
    1UNL     O2    6   0.226  -0.161  -0.107
    1UNL     C5    7   0.106  -0.072  -0.113
    1UNL     O3    8   0.005  -0.145  -0.192
    1UNL     C6    9   0.050  -0.064   0.031
    1UNL     C7   10   0.054   0.067   0.103
    1UNL     O4   11   0.183   0.105   0.140
    1UNL     C8   12   0.261   0.149   0.031
    1UNL     O5   13   0.203   0.170  -0.076
    1UNL     C9   14   0.407   0.149   0.045
    1UNL    C10   15   0.472   0.260  -0.004
    1UNL    C11   16   0.611   0.283   0.008
    1UNL    C12   17   0.689   0.177   0.051
    1UNL    C13   18   0.628   0.062   0.087
    1UNL    C14   19   0.488   0.042   0.093
    1UNL     O6   20   0.423  -0.070   0.146
    1UNL    C15   21   0.128  -0.183   0.108
    1UNL    C16   22  -0.010  -0.231   0.159
    1UNL    C17   23  -0.073  -0.158   0.031
    1UNL     O7   24  -0.198  -0.090   0.048
    1UNL    C18   25  -0.227   0.001  -0.056
    1UNL     O8   26  -0.188   0.133  -0.039
    1UNL    C19   27  -0.270   0.210   0.046
    1UNL    C20   28  -0.249   0.351  -0.006
    1UNL     O9   29  -0.310   0.450   0.082
    1UNL    C21   30  -0.416   0.167   0.058
    1UNL    O10   31  -0.422   0.071   0.162
    1UNL    C22   32  -0.463   0.111  -0.074
    1UNL    O11   33  -0.602   0.073  -0.056
    1UNL    C23   34  -0.380  -0.013  -0.108
    1UNL    O12   35  -0.390  -0.045  -0.242
    1UNL     H1   36  -0.219  -0.349  -0.068
    1UNL     H2   37  -0.240  -0.227  -0.190
    1UNL     H3   38  -0.172  -0.366  -0.243
    1UNL     H4   39   0.034  -0.442  -0.034
    1UNL     H5   40   0.087  -0.385  -0.185
    1UNL     H6   41   0.359  -0.299   0.072
    1UNL     H7   42   0.119   0.034  -0.164
    1UNL     H8   43   0.015   0.147   0.050
    1UNL     H9   44   0.011   0.067   0.202
    1UNL    H10   45   0.402   0.344  -0.013
    1UNL    H11   46   0.673   0.374  -0.004
    1UNL    H12   47   0.797   0.185   0.043
    1UNL    H13   48   0.684  -0.027   0.116
    1UNL    H14   49   0.490  -0.111   0.205
    1UNL    H15   50   0.192  -0.160   0.193
    1UNL    H16   51  -0.010  -0.334   0.178
    1UNL    H17   52  -0.045  -0.182   0.248
    1UNL    H18   53  -0.165  -0.032  -0.150
    1UNL    H19   54  -0.226   0.202   0.142
    1UNL    H20   55  -0.296   0.360  -0.101
    1UNL    H21   56  -0.148   0.367  -0.014
    1UNL    H22   57  -0.269   0.541   0.070
    1UNL    H23   58  -0.481   0.244   0.092
    1UNL    H24   59  -0.355   0.004   0.148
    1UNL    H25   60  -0.453   0.196  -0.145
    1UNL    H26   61  -0.623   0.047   0.039
    1UNL    H27   62  -0.415  -0.101  -0.047
    1UNL    H28   63  -0.480  -0.046  -0.275
   0.00000   0.00000   0.00000   0.00000   0.00000   0.00000   0.00000   0.00000   0.00000
Generated with MDTraj, t= 44.0
 63
    1UNL     C1    1  -0.200  -0.300  -0.154
    1UNL     C2    2  -0.068  -0.239  -0.097
    1UNL     C3    3   0.050  -0.343  -0.097
    1UNL     C4    4   0.179  -0.272  -0.039
    1UNL     O1    5   0.277  -0.365  -0.017
    1UNL     O2    6   0.213  -0.169  -0.131
    1UNL     C5    7   0.097  -0.079  -0.127
    1UNL     O3    8  -0.018  -0.140  -0.192
    1UNL     C6    9   0.058  -0.072   0.028
    1UNL     C7   10   0.068   0.046   0.114
    1UNL     O4   11   0.203   0.071   0.153
    1UNL     C8   12   0.265   0.145   0.058
    1UNL     O5   13   0.209   0.201  -0.037
    1UNL     C9   14   0.416   0.159   0.056
    1UNL    C10   15   0.475   0.265  -0.011
    1UNL    C11   16   0.611   0.265  -0.022
    1UNL    C12   17   0.692   0.174   0.045
    1UNL    C13   18   0.631   0.071   0.111
    1UNL    C14   19   0.493   0.055   0.102
    1UNL     O6   20   0.430  -0.051   0.162
    1UNL    C15   21   0.142  -0.190   0.094
    1UNL    C16   22   0.003  -0.230   0.160
    1UNL    C17   23  -0.070  -0.162   0.045
    1UNL     O7   24  -0.180  -0.077   0.071
    1UNL    C18   25  -0.221   0.003  -0.036
    1UNL     O8   26  -0.184   0.148  -0.028
    1UNL    C19   27  -0.279   0.233   0.043
    1UNL    C20   28  -0.267   0.378  -0.016
    1UNL     O9   29  -0.340   0.464   0.076
    1UNL    C21   30  -0.425   0.177   0.046
    1UNL    O10   31  -0.422   0.086   0.158
    1UNL    C22   32  -0.456   0.096  -0.085
    1UNL    O11   33  -0.593   0.055  -0.097
    1UNL    C23   34  -0.365  -0.028  -0.088
    1UNL    O12   35  -0.357  -0.082  -0.218
    1UNL     H1   36  -0.265  -0.326  -0.073
    1UNL     H2   37  -0.251  -0.234  -0.227
    1UNL     H3   38  -0.185  -0.388  -0.214
    1UNL     H4   39   0.015  -0.430  -0.033
    1UNL     H5   40   0.059  -0.392  -0.194
    1UNL     H6   41   0.306  -0.410  -0.099
    1UNL     H7   42   0.128   0.026  -0.173
    1UNL     H8   43   0.045   0.138   0.066
    1UNL     H9   44  -0.001   0.033   0.198
    1UNL    H10   45   0.420   0.352  -0.044
    1UNL    H11   46   0.644   0.364  -0.040
    1UNL    H12   47   0.799   0.185   0.043
    1UNL    H13   48   0.682  -0.008   0.159
    1UNL    H14   49   0.493  -0.128   0.164
    1UNL    H15   50   0.229  -0.142   0.144
    1UNL    H16   51  -0.024  -0.331   0.181
    1UNL    H17   52  -0.027  -0.173   0.244
    1UNL    H18   53  -0.143  -0.021  -0.123
    1UNL    H19   54  -0.249   0.242   0.145
    1UNL    H20   55  -0.304   0.387  -0.117
    1UNL    H21   56  -0.167   0.403  -0.005
    1UNL    H22   57  -0.312   0.553   0.057
    1UNL    H23   58  -0.507   0.248   0.066
    1UNL    H24   59  -0.334   0.037   0.151
    1UNL    H25   60  -0.427   0.162  -0.168
    1UNL    H26   61  -0.628   0.032  -0.006
    1UNL    H27   62  -0.412  -0.102  -0.019
    1UNL    H28   63  -0.441  -0.088  -0.262
   0.00000   0.00000   0.00000   0.00000   0.00000   0.00000   0.00000   0.00000   0.00000
Generated with MDTraj, t= 45.0
 63
    1UNL     C1    1  -0.202  -0.301  -0.132
    1UNL     C2    2  -0.064  -0.244  -0.098
    1UNL     C3    3   0.047  -0.358  -0.091
    1UNL     C4    4   0.181  -0.292  -0.039
    1UNL     O1    5   0.284  -0.388  -0.024
    1UNL     O2    6   0.214  -0.182  -0.132
    1UNL     C5    7   0.104  -0.094  -0.124
    1UNL     O3    8  -0.011  -0.151  -0.193
    1UNL     C6    9   0.059  -0.084   0.028
    1UNL     C7   10   0.067   0.055   0.093
    1UNL     O4   11   0.202   0.081   0.135
    1UNL     C8   12   0.273   0.157   0.042
    1UNL     O5   13   0.222   0.225  -0.049
    1UNL     C9   14   0.428   0.164   0.055
    1UNL    C10   15   0.489   0.260  -0.017
    1UNL    C11   16   0.625   0.274  -0.021
    1UNL    C12   17   0.700   0.180   0.043
    1UNL    C13   18   0.642   0.074   0.114
    1UNL    C14   19   0.500   0.067   0.127
    1UNL     O6   20   0.431  -0.041   0.196
    1UNL    C15   21   0.136  -0.207   0.091
    1UNL    C16   22   0.001  -0.235   0.158
    1UNL    C17   23  -0.067  -0.164   0.040
    1UNL     O7   24  -0.187  -0.085   0.059
    1UNL    C18   25  -0.218   0.006  -0.042
    1UNL     O8   26  -0.177   0.146  -0.027
    1UNL    C19   27  -0.275   0.225   0.053
    1UNL    C20   28  -0.274   0.373   0.005
    1UNL     O9   29  -0.380   0.448   0.058
    1UNL    C21   30  -0.421   0.178   0.057
    1UNL    O10   31  -0.435   0.077   0.157
    1UNL    C22   32  -0.464   0.113  -0.076
    1UNL    O11   33  -0.602   0.085  -0.087
    1UNL    C23   34  -0.368  -0.013  -0.096
    1UNL    O12   35  -0.374  -0.054  -0.233
    1UNL     H1   36  -0.215  -0.389  -0.074
    1UNL     H2   37  -0.276  -0.222  -0.100
    1UNL     H3   38  -0.217  -0.315  -0.238
    1UNL     H4   39   0.011  -0.451  -0.039
    1UNL     H5   40   0.066  -0.393  -0.194
    1UNL     H6   41   0.369  -0.357  -0.063
    1UNL     H7   42   0.147   0.009  -0.160
    1UNL     H8   43   0.032   0.139   0.033
    1UNL     H9   44   0.013   0.055   0.192
    1UNL    H10   45   0.426   0.329  -0.072
    1UNL    H11   46   0.666   0.368  -0.065
    1UNL    H12   47   0.808   0.174   0.025
    1UNL    H13   48   0.708  -0.012   0.130
    1UNL    H14   49   0.504  -0.105   0.216
    1UNL    H15   50   0.213  -0.173   0.164
    1UNL    H16   51  -0.035  -0.337   0.167
    1UNL    H17   52  -0.006  -0.175   0.243
    1UNL    H18   53  -0.155  -0.016  -0.141
    1UNL    H19   54  -0.236   0.222   0.153
    1UNL    H20   55  -0.307   0.361  -0.100
    1UNL    H21   56  -0.184   0.427   0.020
    1UNL    H22   57  -0.397   0.419   0.148
    1UNL    H23   58  -0.497   0.260   0.072
    1UNL    H24   59  -0.353   0.024   0.145
    1UNL    H25   60  -0.435   0.176  -0.160
    1UNL    H26   61  -0.633   0.056   0.001
    1UNL    H27   62  -0.426  -0.094  -0.051
    1UNL    H28   63  -0.466  -0.048  -0.267
   0.00000   0.00000   0.00000   0.00000   0.00000   0.00000   0.00000   0.00000   0.00000
Generated with MDTraj, t= 46.0
 63
    1UNL     C1    1  -0.195  -0.307  -0.164
    1UNL     C2    2  -0.062  -0.252  -0.110
    1UNL     C3    3   0.049  -0.354  -0.080
    1UNL     C4    4   0.166  -0.279  -0.018
    1UNL     O1    5   0.262  -0.366   0.036
    1UNL     O2    6   0.209  -0.186  -0.121
    1UNL     C5    7   0.103  -0.096  -0.136
    1UNL     O3    8  -0.005  -0.164  -0.204
    1UNL     C6    9   0.047  -0.071   0.010
    1UNL     C7   10   0.061   0.070   0.075
    1UNL     O4   11   0.199   0.083   0.112
    1UNL     C8   12   0.276   0.152   0.021
    1UNL     O5   13   0.237   0.201  -0.082
    1UNL     C9   14   0.422   0.158   0.037
    1UNL    C10   15   0.492   0.253  -0.040
    1UNL    C11   16   0.628   0.266  -0.018
    1UNL    C12   17   0.699   0.191   0.067
    1UNL    C13   18   0.641   0.081   0.133
    1UNL    C14   19   0.504   0.074   0.128
    1UNL     O6   20   0.441  -0.022   0.202
    1UNL    C15   21   0.112  -0.182   0.096
    1UNL    C16   22  -0.025  -0.223   0.145
    1UNL    C17   23  -0.077  -0.161   0.017
    1UNL     O7   24  -0.204  -0.087   0.034
    1UNL    C18   25  -0.218   0.010  -0.062
    1UNL     O8   26  -0.173   0.141  -0.020
    1UNL    C19   27  -0.269   0.210   0.070
    1UNL    C20   28  -0.268   0.357   0.023
    1UNL     O9   29  -0.357   0.442   0.084
    1UNL    C21   30  -0.408   0.153   0.080
    1UNL    O10   31  -0.423   0.044   0.175
    1UNL    C22   32  -0.459   0.112  -0.060
    1UNL    O11   33  -0.592   0.073  -0.065
    1UNL    C23   34  -0.368  -0.001  -0.112
    1UNL    O12   35  -0.378  -0.026  -0.249
    1UNL     H1   36  -0.260  -0.326  -0.078
    1UNL     H2   37  -0.235  -0.229  -0.226
    1UNL     H3   38  -0.185  -0.397  -0.225
    1UNL     H4   39   0.007  -0.431  -0.015
    1UNL     H5   40   0.086  -0.404  -0.177
    1UNL     H6   41   0.345  -0.314   0.040
    1UNL     H7   42   0.132  -0.003  -0.201
    1UNL     H8   43   0.048   0.150  -0.001
    1UNL     H9   44  -0.004   0.089   0.167
    1UNL    H10   45   0.438   0.330  -0.093
    1UNL    H11   46   0.686   0.321  -0.086
    1UNL    H12   47   0.804   0.210   0.077
    1UNL    H13   48   0.690   0.002   0.188
    1UNL    H14   49   0.505  -0.084   0.244
    1UNL    H15   50   0.186  -0.145   0.172
    1UNL    H16   51  -0.034  -0.331   0.159
    1UNL    H17   52  -0.062  -0.160   0.219
    1UNL    H18   53  -0.146  -0.011  -0.154
    1UNL    H19   54  -0.226   0.199   0.170
    1UNL    H20   55  -0.291   0.362  -0.088
    1UNL    H21   56  -0.166   0.389   0.048
    1UNL    H22   57  -0.320   0.514   0.145
    1UNL    H23   58  -0.477   0.239   0.116
    1UNL    H24   59  -0.355  -0.023   0.149
    1UNL    H25   60  -0.448   0.197  -0.125
    1UNL    H26   61  -0.619   0.022   0.011
    1UNL    H27   62  -0.413  -0.092  -0.072
    1UNL    H28   63  -0.471  -0.027  -0.287
   0.00000   0.00000   0.00000   0.00000   0.00000   0.00000   0.00000   0.00000   0.00000
Generated with MDTraj, t= 47.0
 63
    1UNL     C1    1  -0.178  -0.321  -0.168
    1UNL     C2    2  -0.053  -0.255  -0.104
    1UNL     C3    3   0.055  -0.357  -0.056
    1UNL     C4    4   0.178  -0.283  -0.003
    1UNL     O1    5   0.269  -0.373   0.056
    1UNL     O2    6   0.229  -0.191  -0.109
    1UNL     C5    7   0.112  -0.101  -0.128
    1UNL     O3    8   0.009  -0.164  -0.202
    1UNL     C6    9   0.057  -0.072   0.014
    1UNL     C7   10   0.068   0.070   0.074
    1UNL     O4   11   0.196   0.117   0.105
    1UNL     C8   12   0.271   0.145  -0.005
    1UNL     O5   13   0.236   0.128  -0.120
    1UNL     C9   14   0.414   0.154   0.022
    1UNL    C10   15   0.499   0.240  -0.058
    1UNL    C11   16   0.633   0.265  -0.025
    1UNL    C12   17   0.683   0.198   0.086
    1UNL    C13   18   0.612   0.108   0.158
    1UNL    C14   19   0.474   0.084   0.130
    1UNL     O6   20   0.406  -0.027   0.192
    1UNL    C15   21   0.127  -0.176   0.106
    1UNL    C16   22  -0.016  -0.211   0.157
    1UNL    C17   23  -0.073  -0.154   0.019
    1UNL     O7   24  -0.203  -0.080   0.019
    1UNL    C18   25  -0.234   0.011  -0.088
    1UNL     O8   26  -0.201   0.149  -0.073
    1UNL    C19   27  -0.262   0.201   0.048
    1UNL    C20   28  -0.264   0.355   0.038
    1UNL     O9   29  -0.312   0.421   0.160
    1UNL    C21   30  -0.408   0.151   0.074
    1UNL    O10   31  -0.411   0.048   0.173
    1UNL    C22   32  -0.476   0.105  -0.058
    1UNL    O11   33  -0.603   0.064  -0.030
    1UNL    C23   34  -0.386   0.011  -0.138
    1UNL    O12   35  -0.383   0.043  -0.269
    1UNL     H1   36  -0.206  -0.420  -0.125
    1UNL     H2   37  -0.258  -0.256  -0.177
    1UNL     H3   38  -0.149  -0.344  -0.272
    1UNL     H4   39   0.011  -0.421   0.022
    1UNL     H5   40   0.087  -0.420  -0.148
    1UNL     H6   41   0.349  -0.317   0.046
    1UNL     H7   42   0.130   0.003  -0.180
    1UNL     H8   43   0.027   0.140  -0.004
    1UNL     H9   44   0.007   0.075   0.171
    1UNL    H10   45   0.459   0.297  -0.142
    1UNL    H11   46   0.699   0.332  -0.083
    1UNL    H12   47   0.783   0.218   0.123
    1UNL    H13   48   0.671   0.072   0.241
    1UNL    H14   49   0.470  -0.091   0.229
    1UNL    H15   50   0.207  -0.129   0.169
    1UNL    H16   51  -0.028  -0.317   0.175
    1UNL    H17   52  -0.057  -0.146   0.232
    1UNL    H18   53  -0.160  -0.019  -0.175
    1UNL    H19   54  -0.203   0.169   0.137
    1UNL    H20   55  -0.327   0.376  -0.055
    1UNL    H21   56  -0.158   0.385   0.019
    1UNL    H22   57  -0.346   0.353   0.227
    1UNL    H23   58  -0.461   0.247   0.119
    1UNL    H24   59  -0.354  -0.025   0.144
    1UNL    H25   60  -0.491   0.196  -0.112
    1UNL    H26   61  -0.613   0.010   0.053
    1UNL    H27   62  -0.427  -0.088  -0.125
    1UNL    H28   63  -0.472   0.043  -0.318
   0.00000   0.00000   0.00000   0.00000   0.00000   0.00000   0.00000   0.00000   0.00000
Generated with MDTraj, t= 48.0
 63
    1UNL     C1    1  -0.190  -0.322  -0.158
    1UNL     C2    2  -0.056  -0.264  -0.107
    1UNL     C3    3   0.050  -0.360  -0.050
    1UNL     C4    4   0.164  -0.270   0.010
    1UNL     O1    5   0.259  -0.348   0.089
    1UNL     O2    6   0.216  -0.201  -0.108
    1UNL     C5    7   0.108  -0.118  -0.149
    1UNL     O3    8   0.005  -0.193  -0.205
    1UNL     C6    9   0.045  -0.059  -0.015
    1UNL     C7   10   0.055   0.090   0.025
    1UNL     O4   11   0.182   0.115   0.074
    1UNL     C8   12   0.267   0.141  -0.029
    1UNL     O5   13   0.249   0.154  -0.147
    1UNL     C9   14   0.405   0.152   0.020
    1UNL    C10   15   0.487   0.236  -0.050
    1UNL    C11   16   0.610   0.263  -0.011
    1UNL    C12   17   0.674   0.193   0.094
    1UNL    C13   18   0.598   0.106   0.167
    1UNL    C14   19   0.465   0.079   0.130
    1UNL     O6   20   0.398  -0.005   0.217
    1UNL    C15   21   0.109  -0.147   0.099
    1UNL    C16   22  -0.027  -0.178   0.151
    1UNL    C17   23  -0.085  -0.145   0.004
    1UNL     O7   24  -0.210  -0.087  -0.006
    1UNL    C18   25  -0.219   0.015  -0.102
    1UNL     O8   26  -0.189   0.152  -0.057
    1UNL    C19   27  -0.252   0.199   0.070
    1UNL    C20   28  -0.234   0.351   0.086
    1UNL     O9   29  -0.255   0.406   0.219
    1UNL    C21   30  -0.401   0.153   0.081
    1UNL    O10   31  -0.401   0.034   0.159
    1UNL    C22   32  -0.460   0.105  -0.058
    1UNL    O11   33  -0.574   0.032  -0.024
    1UNL    C23   34  -0.371   0.015  -0.150
    1UNL    O12   35  -0.381   0.016  -0.290
    1UNL     H1   36  -0.271  -0.325  -0.083
    1UNL     H2   37  -0.221  -0.267  -0.243
    1UNL     H3   38  -0.183  -0.425  -0.191
    1UNL     H4   39  -0.000  -0.416   0.033
    1UNL     H5   40   0.097  -0.426  -0.130
    1UNL     H6   41   0.327  -0.281   0.111
    1UNL     H7   42   0.145  -0.030  -0.219
    1UNL     H8   43   0.025   0.144  -0.068
    1UNL     H9   44  -0.015   0.121   0.106
    1UNL    H10   45   0.449   0.289  -0.136
    1UNL    H11   46   0.659   0.346  -0.054
    1UNL    H12   47   0.777   0.220   0.115
    1UNL    H13   48   0.643   0.051   0.248
    1UNL    H14   49   0.456  -0.066   0.265
    1UNL    H15   50   0.183  -0.092   0.164
    1UNL    H16   51  -0.059  -0.280   0.161
    1UNL    H17   52  -0.069  -0.114   0.230
    1UNL    H18   53  -0.147  -0.009  -0.194
    1UNL    H19   54  -0.203   0.149   0.158
    1UNL    H20   55  -0.319   0.400   0.023
    1UNL    H21   56  -0.136   0.381   0.038
    1UNL    H22   57  -0.172   0.401   0.269
    1UNL    H23   58  -0.469   0.241   0.126
    1UNL    H24   59  -0.336  -0.031   0.115
    1UNL    H25   60  -0.488   0.190  -0.117
    1UNL    H26   61  -0.575  -0.009   0.068
    1UNL    H27   62  -0.407  -0.086  -0.129
    1UNL    H28   63  -0.472  -0.004  -0.326
   0.00000   0.00000   0.00000   0.00000   0.00000   0.00000   0.00000   0.00000   0.00000
Generated with MDTraj, t= 49.0
 63
    1UNL     C1    1  -0.189  -0.330  -0.114
    1UNL     C2    2  -0.056  -0.273  -0.080
    1UNL     C3    3   0.057  -0.372  -0.035
    1UNL     C4    4   0.174  -0.282   0.008
    1UNL     O1    5   0.275  -0.353   0.083
    1UNL     O2    6   0.217  -0.211  -0.119
    1UNL     C5    7   0.111  -0.125  -0.145
    1UNL     O3    8  -0.004  -0.206  -0.202
    1UNL     C6    9   0.057  -0.067  -0.014
    1UNL     C7   10   0.065   0.096   0.000
    1UNL     O4   11   0.185   0.143   0.053
    1UNL     C8   12   0.282   0.160  -0.041
    1UNL     O5   13   0.265   0.160  -0.159
    1UNL     C9   14   0.415   0.178   0.022
    1UNL    C10   15   0.513   0.252  -0.044
    1UNL    C11   16   0.643   0.255  -0.007
    1UNL    C12   17   0.681   0.195   0.109
    1UNL    C13   18   0.595   0.114   0.181
    1UNL    C14   19   0.459   0.096   0.132
    1UNL     O6   20   0.374   0.005   0.199
    1UNL    C15   21   0.125  -0.156   0.096
    1UNL    C16   22  -0.014  -0.162   0.159
    1UNL    C17   23  -0.080  -0.148   0.019
    1UNL     O7   24  -0.216  -0.090   0.005
    1UNL    C18   25  -0.241   0.003  -0.100
    1UNL     O8   26  -0.204   0.139  -0.066
    1UNL    C19   27  -0.257   0.174   0.062
    1UNL    C20   28  -0.229   0.321   0.094
    1UNL     O9   29  -0.242   0.348   0.228
    1UNL    C21   30  -0.403   0.140   0.080
    1UNL    O10   31  -0.427   0.022   0.158
    1UNL    C22   32  -0.468   0.119  -0.064
    1UNL    O11   33  -0.608   0.088  -0.060
    1UNL    C23   34  -0.393   0.016  -0.153
    1UNL    O12   35  -0.401   0.060  -0.286
    1UNL     H1   36  -0.219  -0.415  -0.056
    1UNL     H2   37  -0.268  -0.250  -0.116
    1UNL     H3   38  -0.184  -0.370  -0.213
    1UNL     H4   39   0.025  -0.446   0.048
    1UNL     H5   40   0.107  -0.429  -0.117
    1UNL     H6   41   0.362  -0.313   0.061
    1UNL     H7   42   0.156  -0.043  -0.219
    1UNL     H8   43   0.033   0.155  -0.085
    1UNL     H9   44  -0.012   0.121   0.073
    1UNL    H10   45   0.470   0.297  -0.132
    1UNL    H11   46   0.720   0.309  -0.065
    1UNL    H12   47   0.789   0.182   0.115
    1UNL    H13   48   0.626   0.050   0.262
    1UNL    H14   49   0.423  -0.072   0.234
    1UNL    H15   50   0.201  -0.103   0.158
    1UNL    H16   51  -0.037  -0.253   0.212
    1UNL    H17   52  -0.051  -0.078   0.227
    1UNL    H18   53  -0.164  -0.027  -0.185
    1UNL    H19   54  -0.211   0.106   0.141
    1UNL    H20   55  -0.296   0.402   0.044
    1UNL    H21   56  -0.125   0.354   0.066
    1UNL    H22   57  -0.177   0.298   0.276
    1UNL    H23   58  -0.468   0.234   0.117
    1UNL    H24   59  -0.360  -0.040   0.129
    1UNL    H25   60  -0.457   0.209  -0.126
    1UNL    H26   61  -0.632   0.027   0.009
    1UNL    H27   62  -0.443  -0.080  -0.144
    1UNL    H28   63  -0.495   0.064  -0.302
   0.00000   0.00000   0.00000   0.00000   0.00000   0.00000   0.00000   0.00000   0.00000
Generated with MDTraj, t= 50.0
 63
    1UNL     C1    1  -0.196  -0.363  -0.125
    1UNL     C2    2  -0.064  -0.275  -0.086
    1UNL     C3    3   0.058  -0.351  -0.029
    1UNL     C4    4   0.172  -0.260   0.009
    1UNL     O1    5   0.274  -0.310   0.086
    1UNL     O2    6   0.215  -0.204  -0.125
    1UNL     C5    7   0.098  -0.133  -0.169
    1UNL     O3    8  -0.014  -0.220  -0.205
    1UNL     C6    9   0.043  -0.058  -0.040
    1UNL     C7   10   0.059   0.092  -0.011
    1UNL     O4   11   0.192   0.115   0.045
    1UNL     C8   12   0.291   0.138  -0.042
    1UNL     O5   13   0.273   0.146  -0.159
    1UNL     C9   14   0.433   0.154   0.009
    1UNL    C10   15   0.520   0.236  -0.061
    1UNL    C11   16   0.640   0.268  -0.001
    1UNL    C12   17   0.678   0.203   0.118
    1UNL    C13   18   0.590   0.123   0.184
    1UNL    C14   19   0.466   0.096   0.131
    1UNL     O6   20   0.381   0.017   0.207
    1UNL    C15   21   0.119  -0.134   0.077
    1UNL    C16   22  -0.021  -0.147   0.147
    1UNL    C17   23  -0.084  -0.145   0.008
    1UNL     O7   24  -0.219  -0.094  -0.001
    1UNL    C18   25  -0.234   0.011  -0.085
    1UNL     O8   26  -0.191   0.136  -0.036
    1UNL    C19   27  -0.256   0.171   0.086
    1UNL    C20   28  -0.218   0.313   0.137
    1UNL     O9   29  -0.275   0.344   0.263
    1UNL    C21   30  -0.412   0.146   0.077
    1UNL    O10   31  -0.442   0.026   0.153
    1UNL    C22   32  -0.449   0.135  -0.077
    1UNL    O11   33  -0.589   0.129  -0.091
    1UNL    C23   34  -0.383   0.014  -0.137
    1UNL    O12   35  -0.395  -0.000  -0.275
    1UNL     H1   36  -0.269  -0.369  -0.047
    1UNL     H2   37  -0.244  -0.313  -0.215
    1UNL     H3   38  -0.175  -0.464  -0.147
    1UNL     H4   39   0.030  -0.411   0.065
    1UNL     H5   40   0.103  -0.417  -0.106
    1UNL     H6   41   0.355  -0.258   0.067
    1UNL     H7   42   0.123  -0.066  -0.262
    1UNL     H8   43   0.044   0.141  -0.105
    1UNL     H9   44  -0.017   0.136   0.050
    1UNL    H10   45   0.497   0.290  -0.152
    1UNL    H11   46   0.705   0.328  -0.059
    1UNL    H12   47   0.784   0.191   0.137
    1UNL    H13   48   0.636   0.078   0.271
    1UNL    H14   49   0.429  -0.042   0.271
    1UNL    H15   50   0.199  -0.083   0.138
    1UNL    H16   51  -0.023  -0.246   0.198
    1UNL    H17   52  -0.047  -0.059   0.212
    1UNL    H18   53  -0.166  -0.011  -0.180
    1UNL    H19   54  -0.228   0.093   0.166
    1UNL    H20   55  -0.247   0.395   0.062
    1UNL    H21   56  -0.111   0.338   0.152
    1UNL    H22   57  -0.285   0.258   0.308
    1UNL    H23   58  -0.474   0.238   0.122
    1UNL    H24   59  -0.369  -0.037   0.122
    1UNL    H25   60  -0.398   0.222  -0.126
    1UNL    H26   61  -0.626   0.065  -0.025
    1UNL    H27   62  -0.429  -0.078  -0.094
    1UNL    H28   63  -0.487   0.015  -0.295
   0.00000   0.00000   0.00000   0.00000   0.00000   0.00000   0.00000   0.00000   0.00000
Generated with MDTraj, t= 51.0
 63
    1UNL     C1    1  -0.181  -0.351  -0.108
    1UNL     C2    2  -0.045  -0.272  -0.085
    1UNL     C3    3   0.069  -0.359  -0.028
    1UNL     C4    4   0.188  -0.269   0.005
    1UNL     O1    5   0.292  -0.341   0.069
    1UNL     O2    6   0.227  -0.207  -0.119
    1UNL     C5    7   0.106  -0.129  -0.163
    1UNL     O3    8   0.005  -0.211  -0.209
    1UNL     C6    9   0.055  -0.058  -0.026
    1UNL     C7   10   0.065   0.096  -0.019
    1UNL     O4   11   0.183   0.135   0.041
    1UNL     C8   12   0.284   0.129  -0.053
    1UNL     O5   13   0.270   0.097  -0.168
    1UNL     C9   14   0.420   0.147   0.007
    1UNL    C10   15   0.512   0.220  -0.067
    1UNL    C11   16   0.637   0.258  -0.014
    1UNL    C12   17   0.670   0.220   0.111
    1UNL    C13   18   0.594   0.129   0.184
    1UNL    C14   19   0.466   0.090   0.135
    1UNL     O6   20   0.384   0.006   0.200
    1UNL    C15   21   0.136  -0.140   0.079
    1UNL    C16   22   0.004  -0.153   0.155
    1UNL    C17   23  -0.068  -0.146   0.015
    1UNL     O7   24  -0.203  -0.087   0.012
    1UNL    C18   25  -0.227   0.015  -0.082
    1UNL     O8   26  -0.196   0.144  -0.023
    1UNL    C19   27  -0.270   0.165   0.099
    1UNL    C20   28  -0.238   0.303   0.150
    1UNL     O9   29  -0.315   0.339   0.266
    1UNL    C21   30  -0.425   0.159   0.069
    1UNL    O10   31  -0.483   0.048   0.132
    1UNL    C22   32  -0.455   0.153  -0.084
    1UNL    O11   33  -0.601   0.148  -0.095
    1UNL    C23   34  -0.384   0.026  -0.133
    1UNL    O12   35  -0.393   0.011  -0.270
    1UNL     H1   36  -0.185  -0.433  -0.040
    1UNL     H2   37  -0.269  -0.283  -0.100
    1UNL     H3   38  -0.176  -0.401  -0.204
    1UNL     H4   39   0.028  -0.410   0.062
    1UNL     H5   40   0.111  -0.438  -0.096
    1UNL     H6   41   0.378  -0.322   0.024
    1UNL     H7   42   0.132  -0.036  -0.229
    1UNL     H8   43   0.028   0.155  -0.101
    1UNL     H9   44  -0.007   0.114   0.057
    1UNL    H10   45   0.480   0.251  -0.166
    1UNL    H11   46   0.704   0.316  -0.080
    1UNL    H12   47   0.757   0.260   0.162
    1UNL    H13   48   0.628   0.089   0.276
    1UNL    H14   49   0.423  -0.026   0.286
    1UNL    H15   50   0.218  -0.090   0.135
    1UNL    H16   51  -0.013  -0.261   0.190
    1UNL    H17   52  -0.034  -0.071   0.222
    1UNL    H18   53  -0.166   0.000  -0.183
    1UNL    H19   54  -0.244   0.079   0.173
    1UNL    H20   55  -0.249   0.384   0.074
    1UNL    H21   56  -0.131   0.303   0.166
    1UNL    H22   57  -0.330   0.254   0.319
    1UNL    H23   58  -0.485   0.253   0.116
    1UNL    H24   59  -0.417  -0.023   0.131
    1UNL    H25   60  -0.414   0.250  -0.126
    1UNL    H26   61  -0.648   0.094  -0.023
    1UNL    H27   62  -0.438  -0.062  -0.088
    1UNL    H28   63  -0.487   0.021  -0.298
   0.00000   0.00000   0.00000   0.00000   0.00000   0.00000   0.00000   0.00000   0.00000
Generated with MDTraj, t= 52.0
 63
    1UNL     C1    1  -0.189  -0.332  -0.114
    1UNL     C2    2  -0.055  -0.273  -0.091
    1UNL     C3    3   0.054  -0.366  -0.034
    1UNL     C4    4   0.177  -0.270   0.002
    1UNL     O1    5   0.280  -0.342   0.062
    1UNL     O2    6   0.221  -0.205  -0.124
    1UNL     C5    7   0.113  -0.126  -0.158
    1UNL     O3    8  -0.000  -0.209  -0.207
    1UNL     C6    9   0.055  -0.063  -0.021
    1UNL     C7   10   0.058   0.088  -0.008
    1UNL     O4   11   0.185   0.122   0.040
    1UNL     C8   12   0.290   0.136  -0.052
    1UNL     O5   13   0.279   0.113  -0.169
    1UNL     C9   14   0.427   0.155   0.004
    1UNL    C10   15   0.520   0.223  -0.070
    1UNL    C11   16   0.649   0.257  -0.022
    1UNL    C12   17   0.691   0.210   0.096
    1UNL    C13   18   0.601   0.133   0.171
    1UNL    C14   19   0.470   0.102   0.126
    1UNL     O6   20   0.391   0.017   0.196
    1UNL    C15   21   0.122  -0.152   0.095
    1UNL    C16   22  -0.018  -0.178   0.152
    1UNL    C17   23  -0.071  -0.151   0.015
    1UNL     O7   24  -0.202  -0.082   0.025
    1UNL    C18   25  -0.216   0.021  -0.067
    1UNL     O8   26  -0.190   0.150  -0.005
    1UNL    C19   27  -0.282   0.180   0.101
    1UNL    C20   28  -0.248   0.315   0.161
    1UNL     O9   29  -0.337   0.340   0.272
    1UNL    C21   30  -0.437   0.159   0.068
    1UNL    O10   31  -0.496   0.067   0.153
    1UNL    C22   32  -0.455   0.132  -0.083
    1UNL    O11   33  -0.595   0.102  -0.121
    1UNL    C23   34  -0.355   0.022  -0.135
    1UNL    O12   35  -0.353   0.018  -0.274
    1UNL     H1   36  -0.260  -0.329  -0.032
    1UNL     H2   37  -0.226  -0.279  -0.201
    1UNL     H3   38  -0.169  -0.438  -0.139
    1UNL     H4   39   0.021  -0.423   0.051
    1UNL     H5   40   0.092  -0.447  -0.106
    1UNL     H6   41   0.363  -0.324   0.013
    1UNL     H7   42   0.149  -0.061  -0.250
    1UNL     H8   43   0.051   0.120  -0.113
    1UNL     H9   44  -0.017   0.145   0.045
    1UNL    H10   45   0.488   0.262  -0.165
    1UNL    H11   46   0.704   0.336  -0.068
    1UNL    H12   47   0.784   0.246   0.137
    1UNL    H13   48   0.627   0.086   0.266
    1UNL    H14   49   0.423  -0.007   0.287
    1UNL    H15   50   0.200  -0.093   0.151
    1UNL    H16   51  -0.035  -0.285   0.193
    1UNL    H17   52  -0.047  -0.107   0.234
    1UNL    H18   53  -0.128   0.006  -0.146
    1UNL    H19   54  -0.252   0.099   0.177
    1UNL    H20   55  -0.263   0.387   0.080
    1UNL    H21   56  -0.148   0.327   0.192
    1UNL    H22   57  -0.347   0.270   0.345
    1UNL    H23   58  -0.491   0.264   0.094
    1UNL    H24   59  -0.457  -0.017   0.135
    1UNL    H25   60  -0.423   0.224  -0.141
    1UNL    H26   61  -0.641   0.035  -0.069
    1UNL    H27   62  -0.392  -0.083  -0.107
    1UNL    H28   63  -0.448   0.030  -0.305
   0.00000   0.00000   0.00000   0.00000   0.00000   0.00000   0.00000   0.00000   0.00000
Generated with MDTraj, t= 53.0
 63
    1UNL     C1    1  -0.208  -0.318  -0.112
    1UNL     C2    2  -0.073  -0.256  -0.087
    1UNL     C3    3   0.032  -0.361  -0.035
    1UNL     C4    4   0.169  -0.281  -0.001
    1UNL     O1    5   0.265  -0.368   0.065
    1UNL     O2    6   0.215  -0.215  -0.123
    1UNL     C5    7   0.108  -0.125  -0.151
    1UNL     O3    8  -0.013  -0.198  -0.204
    1UNL     C6    9   0.062  -0.067  -0.014
    1UNL     C7   10   0.077   0.086   0.012
    1UNL     O4   11   0.195   0.107   0.072
    1UNL     C8   12   0.288   0.134  -0.028
    1UNL     O5   13   0.255   0.165  -0.139
    1UNL     C9   14   0.436   0.150   0.001
    1UNL    C10   15   0.517   0.227  -0.083
    1UNL    C11   16   0.650   0.253  -0.050
    1UNL    C12   17   0.702   0.207   0.078
    1UNL    C13   18   0.625   0.128   0.159
    1UNL    C14   19   0.490   0.102   0.123
    1UNL     O6   20   0.403   0.030   0.206
    1UNL    C15   21   0.134  -0.153   0.086
    1UNL    C16   22  -0.003  -0.175   0.162
    1UNL    C17   23  -0.078  -0.139   0.017
    1UNL     O7   24  -0.202  -0.067   0.031
    1UNL    C18   25  -0.218   0.031  -0.069
    1UNL     O8   26  -0.192   0.167  -0.010
    1UNL    C19   27  -0.280   0.179   0.098
    1UNL    C20   28  -0.260   0.317   0.163
    1UNL     O9   29  -0.354   0.337   0.260
    1UNL    C21   30  -0.433   0.150   0.055
    1UNL    O10   31  -0.482   0.043   0.131
    1UNL    C22   32  -0.456   0.124  -0.099
    1UNL    O11   33  -0.588   0.080  -0.127
    1UNL    C23   34  -0.356   0.013  -0.138
    1UNL    O12   35  -0.341   0.010  -0.276
    1UNL     H1   36  -0.231  -0.406  -0.049
    1UNL     H2   37  -0.280  -0.246  -0.100
    1UNL     H3   38  -0.214  -0.361  -0.214
    1UNL     H4   39  -0.013  -0.411   0.049
    1UNL     H5   40   0.051  -0.441  -0.110
    1UNL     H6   41   0.355  -0.356   0.028
    1UNL     H7   42   0.146  -0.044  -0.225
    1UNL     H8   43   0.060   0.167  -0.067
    1UNL     H9   44  -0.003   0.110   0.083
    1UNL    H10   45   0.474   0.288  -0.161
    1UNL    H11   46   0.706   0.320  -0.115
    1UNL    H12   47   0.806   0.221   0.099
    1UNL    H13   48   0.681   0.088   0.242
    1UNL    H14   49   0.448   0.008   0.290
    1UNL    H15   50   0.217  -0.104   0.143
    1UNL    H16   51  -0.026  -0.278   0.208
    1UNL    H17   52  -0.018  -0.099   0.245
    1UNL    H18   53  -0.132   0.032  -0.151
    1UNL    H19   54  -0.237   0.094   0.163
    1UNL    H20   55  -0.272   0.396   0.090
    1UNL    H21   56  -0.165   0.320   0.206
    1UNL    H22   57  -0.363   0.263   0.322
    1UNL    H23   58  -0.496   0.246   0.088
    1UNL    H24   59  -0.418  -0.028   0.132
    1UNL    H25   60  -0.434   0.217  -0.161
    1UNL    H26   61  -0.617   0.019  -0.054
    1UNL    H27   62  -0.399  -0.089  -0.112
    1UNL    H28   63  -0.436   0.013  -0.310
   0.00000   0.00000   0.00000   0.00000   0.00000   0.00000   0.00000   0.00000   0.00000
Generated with MDTraj, t= 54.0
 63
    1UNL     C1    1  -0.205  -0.317  -0.124
    1UNL     C2    2  -0.071  -0.257  -0.084
    1UNL     C3    3   0.043  -0.362  -0.053
    1UNL     C4    4   0.168  -0.280  -0.002
    1UNL     O1    5   0.267  -0.384   0.038
    1UNL     O2    6   0.208  -0.206  -0.114
    1UNL     C5    7   0.095  -0.111  -0.132
    1UNL     O3    8  -0.014  -0.172  -0.187
    1UNL     C6    9   0.056  -0.062   0.011
    1UNL     C7   10   0.070   0.079   0.064
    1UNL     O4   11   0.206   0.119   0.101
    1UNL     C8   12   0.293   0.142  -0.010
    1UNL     O5   13   0.245   0.155  -0.117
    1UNL     C9   14   0.440   0.169   0.014
    1UNL    C10   15   0.512   0.245  -0.081
    1UNL    C11   16   0.646   0.243  -0.071
    1UNL    C12   17   0.715   0.187   0.036
    1UNL    C13   18   0.645   0.123   0.135
    1UNL    C14   19   0.505   0.110   0.128
    1UNL     O6   20   0.422   0.038   0.211
    1UNL    C15   21   0.127  -0.171   0.105
    1UNL    C16   22  -0.017  -0.197   0.169
    1UNL    C17   23  -0.080  -0.145   0.038
    1UNL     O7   24  -0.201  -0.074   0.044
    1UNL    C18   25  -0.222   0.022  -0.071
    1UNL     O8   26  -0.196   0.152  -0.023
    1UNL    C19   27  -0.291   0.187   0.077
    1UNL    C20   28  -0.289   0.331   0.130
    1UNL     O9   29  -0.364   0.348   0.245
    1UNL    C21   30  -0.437   0.141   0.054
    1UNL    O10   31  -0.449   0.013   0.117
    1UNL    C22   32  -0.454   0.131  -0.098
    1UNL    O11   33  -0.589   0.102  -0.129
    1UNL    C23   34  -0.361   0.019  -0.145
    1UNL    O12   35  -0.340   0.012  -0.286
    1UNL     H1   36  -0.279  -0.320  -0.042
    1UNL     H2   37  -0.247  -0.267  -0.211
    1UNL     H3   38  -0.196  -0.424  -0.142
    1UNL     H4   39   0.018  -0.432   0.027
    1UNL     H5   40   0.065  -0.412  -0.144
    1UNL     H6   41   0.340  -0.379  -0.026
    1UNL     H7   42   0.123  -0.022  -0.200
    1UNL     H8   43   0.037   0.135  -0.033
    1UNL     H9   44  -0.001   0.119   0.140
    1UNL    H10   45   0.447   0.296  -0.150
    1UNL    H11   46   0.700   0.292  -0.152
    1UNL    H12   47   0.823   0.178   0.031
    1UNL    H13   48   0.687   0.056   0.209
    1UNL    H14   49   0.478  -0.004   0.278
    1UNL    H15   50   0.215  -0.141   0.165
    1UNL    H16   51  -0.037  -0.305   0.195
    1UNL    H17   52  -0.039  -0.120   0.253
    1UNL    H18   53  -0.142  -0.008  -0.154
    1UNL    H19   54  -0.247   0.117   0.156
    1UNL    H20   55  -0.337   0.399   0.060
    1UNL    H21   56  -0.190   0.359   0.150
    1UNL    H22   57  -0.340   0.279   0.306
    1UNL    H23   58  -0.513   0.214   0.111
    1UNL    H24   59  -0.363  -0.040   0.102
    1UNL    H25   60  -0.430   0.233  -0.140
    1UNL    H26   61  -0.623   0.039  -0.058
    1UNL    H27   62  -0.401  -0.083  -0.116
    1UNL    H28   63  -0.427   0.012  -0.332
   0.00000   0.00000   0.00000   0.00000   0.00000   0.00000   0.00000   0.00000   0.00000
Generated with MDTraj, t= 55.0
 63
    1UNL     C1    1  -0.178  -0.303  -0.169
    1UNL     C2    2  -0.057  -0.250  -0.102
    1UNL     C3    3   0.053  -0.352  -0.072
    1UNL     C4    4   0.170  -0.274  -0.002
    1UNL     O1    5   0.263  -0.366   0.053
    1UNL     O2    6   0.219  -0.183  -0.100
    1UNL     C5    7   0.109  -0.092  -0.121
    1UNL     O3    8   0.009  -0.152  -0.196
    1UNL     C6    9   0.054  -0.067   0.026
    1UNL     C7   10   0.069   0.077   0.074
    1UNL     O4   11   0.199   0.096   0.119
    1UNL     C8   12   0.271   0.131   0.003
    1UNL     O5   13   0.223   0.154  -0.105
    1UNL     C9   14   0.419   0.136   0.015
    1UNL    C10   15   0.475   0.215  -0.085
    1UNL    C11   16   0.609   0.243  -0.094
    1UNL    C12   17   0.691   0.188   0.009
    1UNL    C13   18   0.635   0.120   0.117
    1UNL    C14   19   0.500   0.095   0.121
    1UNL     O6   20   0.453   0.020   0.228
    1UNL    C15   21   0.117  -0.180   0.108
    1UNL    C16   22  -0.027  -0.206   0.164
    1UNL    C17   23  -0.081  -0.154   0.025
    1UNL     O7   24  -0.209  -0.089   0.037
    1UNL    C18   25  -0.213   0.026  -0.055
    1UNL     O8   26  -0.192   0.155   0.006
    1UNL    C19   27  -0.286   0.190   0.101
    1UNL    C20   28  -0.275   0.340   0.108
    1UNL     O9   29  -0.361   0.399   0.205
    1UNL    C21   30  -0.435   0.148   0.065
    1UNL    O10   31  -0.468   0.027   0.133
    1UNL    C22   32  -0.445   0.116  -0.087
    1UNL    O11   33  -0.577   0.068  -0.129
    1UNL    C23   34  -0.343   0.013  -0.133
    1UNL    O12   35  -0.324   0.010  -0.280
    1UNL     H1   36  -0.234  -0.379  -0.116
    1UNL     H2   37  -0.243  -0.210  -0.181
    1UNL     H3   38  -0.157  -0.347  -0.264
    1UNL     H4   39   0.024  -0.446  -0.025
    1UNL     H5   40   0.079  -0.373  -0.170
    1UNL     H6   41   0.313  -0.393  -0.026
    1UNL     H7   42   0.140   0.006  -0.175
    1UNL     H8   43   0.039   0.166   0.006
    1UNL     H9   44  -0.009   0.087   0.153
    1UNL    H10   45   0.407   0.251  -0.163
    1UNL    H11   46   0.662   0.314  -0.156
    1UNL    H12   47   0.796   0.212   0.012
    1UNL    H13   48   0.698   0.081   0.194
    1UNL    H14   49   0.517   0.010   0.300
    1UNL    H15   50   0.201  -0.160   0.176
    1UNL    H16   51  -0.053  -0.310   0.200
    1UNL    H17   52  -0.060  -0.125   0.241
    1UNL    H18   53  -0.126   0.010  -0.136
    1UNL    H19   54  -0.265   0.152   0.202
    1UNL    H20   55  -0.300   0.379   0.007
    1UNL    H21   56  -0.177   0.367   0.139
    1UNL    H22   57  -0.354   0.352   0.291
    1UNL    H23   58  -0.512   0.228   0.102
    1UNL    H24   59  -0.396  -0.033   0.107
    1UNL    H25   60  -0.434   0.207  -0.151
    1UNL    H26   61  -0.610  -0.003  -0.067
    1UNL    H27   62  -0.382  -0.088  -0.106
    1UNL    H28   63  -0.411  -0.000  -0.320
   0.00000   0.00000   0.00000   0.00000   0.00000   0.00000   0.00000   0.00000   0.00000
Generated with MDTraj, t= 56.0
 63
    1UNL     C1    1  -0.174  -0.304  -0.172
    1UNL     C2    2  -0.048  -0.247  -0.108
    1UNL     C3    3   0.069  -0.359  -0.085
    1UNL     C4    4   0.188  -0.293  -0.003
    1UNL     O1    5   0.293  -0.380   0.042
    1UNL     O2    6   0.231  -0.187  -0.089
    1UNL     C5    7   0.129  -0.099  -0.099
    1UNL     O3    8   0.023  -0.152  -0.181
    1UNL     C6    9   0.067  -0.087   0.040
    1UNL     C7   10   0.070   0.048   0.109
    1UNL     O4   11   0.204   0.092   0.134
    1UNL     C8   12   0.251   0.160   0.021
    1UNL     O5   13   0.186   0.197  -0.074
    1UNL     C9   14   0.401   0.161   0.019
    1UNL    C10   15   0.462   0.221  -0.092
    1UNL    C11   16   0.600   0.228  -0.102
    1UNL    C12   17   0.680   0.174  -0.000
    1UNL    C13   18   0.615   0.112   0.105
    1UNL    C14   19   0.478   0.093   0.113
    1UNL     O6   20   0.432   0.013   0.215
    1UNL    C15   21   0.119  -0.213   0.120
    1UNL    C16   22  -0.030  -0.244   0.148
    1UNL    C17   23  -0.070  -0.164   0.023
    1UNL     O7   24  -0.193  -0.084   0.027
    1UNL    C18   25  -0.208   0.024  -0.073
    1UNL     O8   26  -0.182   0.159  -0.021
    1UNL    C19   27  -0.278   0.203   0.080
    1UNL    C20   28  -0.278   0.356   0.080
    1UNL     O9   29  -0.380   0.409   0.169
    1UNL    C21   30  -0.428   0.153   0.067
    1UNL    O10   31  -0.452   0.043   0.154
    1UNL    C22   32  -0.449   0.122  -0.077
    1UNL    O11   33  -0.584   0.089  -0.101
    1UNL    C23   34  -0.352   0.016  -0.130
    1UNL    O12   35  -0.338   0.027  -0.279
    1UNL     H1   36  -0.225  -0.372  -0.104
    1UNL     H2   37  -0.241  -0.215  -0.191
    1UNL     H3   38  -0.150  -0.359  -0.261
    1UNL     H4   39   0.039  -0.452  -0.042
    1UNL     H5   40   0.104  -0.387  -0.180
    1UNL     H6   41   0.357  -0.391  -0.031
    1UNL     H7   42   0.167  -0.001  -0.153
    1UNL     H8   43   0.015   0.121   0.043
    1UNL     H9   44   0.014   0.057   0.201
    1UNL    H10   45   0.405   0.272  -0.166
    1UNL    H11   46   0.638   0.271  -0.193
    1UNL    H12   47   0.783   0.204   0.020
    1UNL    H13   48   0.674   0.089   0.193
    1UNL    H14   49   0.503   0.001   0.280
    1UNL    H15   50   0.189  -0.195   0.202
    1UNL    H16   51  -0.045  -0.355   0.171
    1UNL    H17   52  -0.048  -0.194   0.250
    1UNL    H18   53  -0.127  -0.008  -0.155
    1UNL    H19   54  -0.240   0.172   0.175
    1UNL    H20   55  -0.307   0.389  -0.023
    1UNL    H21   56  -0.174   0.384   0.100
    1UNL    H22   57  -0.361   0.375   0.262
    1UNL    H23   58  -0.506   0.234   0.093
    1UNL    H24   59  -0.372  -0.019   0.138
    1UNL    H25   60  -0.431   0.207  -0.145
    1UNL    H26   61  -0.599   0.014  -0.044
    1UNL    H27   62  -0.384  -0.086  -0.108
    1UNL    H28   63  -0.426   0.025  -0.315
   0.00000   0.00000   0.00000   0.00000   0.00000   0.00000   0.00000   0.00000   0.00000
Generated with MDTraj, t= 57.0
 63
    1UNL     C1    1  -0.175  -0.282  -0.195
    1UNL     C2    2  -0.046  -0.243  -0.120
    1UNL     C3    3   0.054  -0.358  -0.084
    1UNL     C4    4   0.170  -0.288  -0.000
    1UNL     O1    5   0.259  -0.388   0.051
    1UNL     O2    6   0.224  -0.199  -0.101
    1UNL     C5    7   0.120  -0.090  -0.114
    1UNL     O3    8   0.022  -0.136  -0.201
    1UNL     C6    9   0.061  -0.080   0.035
    1UNL     C7   10   0.061   0.061   0.108
    1UNL     O4   11   0.188   0.111   0.152
    1UNL     C8   12   0.245   0.177   0.045
    1UNL     O5   13   0.176   0.221  -0.043
    1UNL     C9   14   0.392   0.184   0.040
    1UNL    C10   15   0.443   0.253  -0.066
    1UNL    C11   16   0.582   0.241  -0.092
    1UNL    C12   17   0.664   0.154  -0.025
    1UNL    C13   18   0.611   0.080   0.080
    1UNL    C14   19   0.478   0.098   0.118
    1UNL     O6   20   0.434   0.024   0.231
    1UNL    C15   21   0.117  -0.195   0.116
    1UNL    C16   22  -0.030  -0.237   0.150
    1UNL    C17   23  -0.073  -0.165   0.018
    1UNL     O7   24  -0.196  -0.100   0.023
    1UNL    C18   25  -0.204   0.006  -0.068
    1UNL     O8   26  -0.164   0.134  -0.018
    1UNL    C19   27  -0.254   0.196   0.081
    1UNL    C20   28  -0.253   0.351   0.061
    1UNL     O9   29  -0.343   0.430   0.134
    1UNL    C21   30  -0.400   0.139   0.074
    1UNL    O10   31  -0.415   0.023   0.155
    1UNL    C22   32  -0.441   0.115  -0.075
    1UNL    O11   33  -0.580   0.089  -0.078
    1UNL    C23   34  -0.350  -0.004  -0.129
    1UNL    O12   35  -0.327  -0.017  -0.275
    1UNL     H1   36  -0.246  -0.328  -0.125
    1UNL     H2   37  -0.218  -0.194  -0.236
    1UNL     H3   38  -0.152  -0.358  -0.271
    1UNL     H4   39   0.007  -0.438  -0.039
    1UNL     H5   40   0.102  -0.394  -0.171
    1UNL     H6   41   0.301  -0.442  -0.018
    1UNL     H7   42   0.162   0.018  -0.142
    1UNL     H8   43   0.015   0.149   0.060
    1UNL     H9   44   0.008   0.041   0.197
    1UNL    H10   45   0.368   0.295  -0.133
    1UNL    H11   46   0.613   0.287  -0.184
    1UNL    H12   47   0.760   0.123  -0.063
    1UNL    H13   48   0.666   0.018   0.149
    1UNL    H14   49   0.513  -0.015   0.274
    1UNL    H15   50   0.188  -0.147   0.186
    1UNL    H16   51  -0.062  -0.348   0.144
    1UNL    H17   52  -0.073  -0.187   0.240
    1UNL    H18   53  -0.133  -0.018  -0.161
    1UNL    H19   54  -0.208   0.167   0.171
    1UNL    H20   55  -0.270   0.362  -0.050
    1UNL    H21   56  -0.151   0.392   0.081
    1UNL    H22   57  -0.343   0.406   0.233
    1UNL    H23   58  -0.466   0.218   0.123
    1UNL    H24   59  -0.343  -0.037   0.127
    1UNL    H25   60  -0.443   0.203  -0.136
    1UNL    H26   61  -0.589   0.017  -0.015
    1UNL    H27   62  -0.399  -0.095  -0.099
    1UNL    H28   63  -0.418  -0.010  -0.313
   0.00000   0.00000   0.00000   0.00000   0.00000   0.00000   0.00000   0.00000   0.00000
Generated with MDTraj, t= 58.0
 63
    1UNL     C1    1  -0.156  -0.306  -0.185
    1UNL     C2    2  -0.039  -0.246  -0.106
    1UNL     C3    3   0.061  -0.356  -0.089
    1UNL     C4    4   0.184  -0.294  -0.013
    1UNL     O1    5   0.292  -0.379   0.031
    1UNL     O2    6   0.232  -0.179  -0.094
    1UNL     C5    7   0.122  -0.082  -0.093
    1UNL     O3    8   0.020  -0.141  -0.179
    1UNL     C6    9   0.063  -0.085   0.050
    1UNL     C7   10   0.053   0.042   0.129
    1UNL     O4   11   0.194   0.084   0.146
    1UNL     C8   12   0.240   0.166   0.048
    1UNL     O5   13   0.165   0.240  -0.011
    1UNL     C9   14   0.392   0.170   0.035
    1UNL    C10   15   0.440   0.250  -0.065
    1UNL    C11   16   0.577   0.254  -0.091
    1UNL    C12   17   0.661   0.171  -0.014
    1UNL    C13   18   0.606   0.086   0.085
    1UNL    C14   19   0.470   0.085   0.111
    1UNL     O6   20   0.433   0.016   0.223
    1UNL    C15   21   0.121  -0.217   0.116
    1UNL    C16   22  -0.025  -0.255   0.154
    1UNL    C17   23  -0.072  -0.172   0.030
    1UNL     O7   24  -0.198  -0.097   0.024
    1UNL    C18   25  -0.222   0.000  -0.080
    1UNL     O8   26  -0.183   0.135  -0.058
    1UNL    C19   27  -0.251   0.208   0.048
    1UNL    C20   28  -0.231   0.358   0.044
    1UNL     O9   29  -0.293   0.426   0.145
    1UNL    C21   30  -0.404   0.164   0.051
    1UNL    O10   31  -0.424   0.072   0.156
    1UNL    C22   32  -0.459   0.108  -0.078
    1UNL    O11   33  -0.595   0.073  -0.070
    1UNL    C23   34  -0.366  -0.004  -0.135
    1UNL    O12   35  -0.371  -0.004  -0.278
    1UNL     H1   36  -0.195  -0.403  -0.149
    1UNL     H2   37  -0.234  -0.239  -0.193
    1UNL     H3   38  -0.122  -0.324  -0.290
    1UNL     H4   39   0.028  -0.424  -0.019
    1UNL     H5   40   0.071  -0.404  -0.184
    1UNL     H6   41   0.379  -0.346   0.004
    1UNL     H7   42   0.158   0.023  -0.135
    1UNL     H8   43   0.007   0.114   0.062
    1UNL     H9   44   0.010   0.035   0.224
    1UNL    H10   45   0.378   0.286  -0.146
    1UNL    H11   46   0.620   0.296  -0.183
    1UNL    H12   47   0.765   0.167  -0.044
    1UNL    H13   48   0.670   0.015   0.135
    1UNL    H14   49   0.514  -0.023   0.265
    1UNL    H15   50   0.179  -0.207   0.207
    1UNL    H16   51  -0.041  -0.366   0.132
    1UNL    H17   52  -0.071  -0.214   0.247
    1UNL    H18   53  -0.149  -0.036  -0.168
    1UNL    H19   54  -0.205   0.169   0.134
    1UNL    H20   55  -0.265   0.412  -0.051
    1UNL    H21   56  -0.121   0.380   0.055
    1UNL    H22   57  -0.291   0.385   0.233
    1UNL    H23   58  -0.456   0.250   0.101
    1UNL    H24   59  -0.366  -0.007   0.134
    1UNL    H25   60  -0.466   0.185  -0.150
    1UNL    H26   61  -0.605   0.023   0.018
    1UNL    H27   62  -0.397  -0.102  -0.105
    1UNL    H28   63  -0.465   0.004  -0.314
   0.00000   0.00000   0.00000   0.00000   0.00000   0.00000   0.00000   0.00000   0.00000
Generated with MDTraj, t= 59.0
 63
    1UNL     C1    1  -0.160  -0.304  -0.192
    1UNL     C2    2  -0.045  -0.241  -0.122
    1UNL     C3    3   0.064  -0.343  -0.087
    1UNL     C4    4   0.178  -0.271  -0.008
    1UNL     O1    5   0.272  -0.357   0.050
    1UNL     O2    6   0.228  -0.162  -0.094
    1UNL     C5    7   0.119  -0.076  -0.109
    1UNL     O3    8   0.011  -0.126  -0.196
    1UNL     C6    9   0.042  -0.078   0.030
    1UNL     C7   10   0.043   0.049   0.116
    1UNL     O4   11   0.174   0.079   0.150
    1UNL     C8   12   0.234   0.157   0.057
    1UNL     O5   13   0.177   0.222  -0.023
    1UNL     C9   14   0.380   0.160   0.055
    1UNL    C10   15   0.429   0.244  -0.046
    1UNL    C11   16   0.561   0.263  -0.085
    1UNL    C12   17   0.652   0.190  -0.008
    1UNL    C13   18   0.619   0.110   0.094
    1UNL    C14   19   0.481   0.083   0.118
    1UNL     O6   20   0.449  -0.015   0.208
    1UNL    C15   21   0.108  -0.190   0.114
    1UNL    C16   22  -0.035  -0.243   0.150
    1UNL    C17   23  -0.085  -0.179   0.019
    1UNL     O7   24  -0.204  -0.108   0.023
    1UNL    C18   25  -0.221  -0.011  -0.083
    1UNL     O8   26  -0.169   0.120  -0.053
    1UNL    C19   27  -0.239   0.200   0.053
    1UNL    C20   28  -0.211   0.341   0.027
    1UNL     O9   29  -0.243   0.420   0.139
    1UNL    C21   30  -0.390   0.157   0.059
    1UNL    O10   31  -0.408   0.056   0.154
    1UNL    C22   32  -0.443   0.120  -0.080
    1UNL    O11   33  -0.579   0.084  -0.070
    1UNL    C23   34  -0.369  -0.009  -0.124
    1UNL    O12   35  -0.397  -0.045  -0.259
    1UNL     H1   36  -0.211  -0.354  -0.109
    1UNL     H2   37  -0.235  -0.245  -0.244
    1UNL     H3   38  -0.131  -0.389  -0.257
    1UNL     H4   39   0.028  -0.435  -0.045
    1UNL     H5   40   0.114  -0.365  -0.177
    1UNL     H6   41   0.343  -0.298   0.083
    1UNL     H7   42   0.153   0.032  -0.144
    1UNL     H8   43   0.007   0.137   0.061
    1UNL     H9   44  -0.002   0.027   0.209
    1UNL    H10   45   0.347   0.278  -0.107
    1UNL    H11   46   0.581   0.333  -0.163
    1UNL    H12   47   0.759   0.204  -0.012
    1UNL    H13   48   0.689   0.080   0.171
    1UNL    H14   49   0.532  -0.067   0.228
    1UNL    H15   50   0.168  -0.149   0.195
    1UNL    H16   51  -0.051  -0.353   0.146
    1UNL    H17   52  -0.078  -0.206   0.246
    1UNL    H18   53  -0.154  -0.044  -0.176
    1UNL    H19   54  -0.188   0.175   0.141
    1UNL    H20   55  -0.277   0.375  -0.058
    1UNL    H21   56  -0.106   0.359  -0.007
    1UNL    H22   57  -0.189   0.390   0.211
    1UNL    H23   58  -0.440   0.247   0.103
    1UNL    H24   59  -0.346  -0.013   0.129
    1UNL    H25   60  -0.448   0.193  -0.158
    1UNL    H26   61  -0.594   0.057   0.020
    1UNL    H27   62  -0.406  -0.089  -0.061
    1UNL    H28   63  -0.496  -0.039  -0.279
   0.00000   0.00000   0.00000   0.00000   0.00000   0.00000   0.00000   0.00000   0.00000
Generated with MDTraj, t= 60.0
 63
    1UNL     C1    1  -0.157  -0.324  -0.178
    1UNL     C2    2  -0.039  -0.249  -0.112
    1UNL     C3    3   0.083  -0.344  -0.096
    1UNL     C4    4   0.189  -0.277  -0.009
    1UNL     O1    5   0.299  -0.361   0.035
    1UNL     O2    6   0.225  -0.166  -0.090
    1UNL     C5    7   0.112  -0.076  -0.105
    1UNL     O3    8   0.009  -0.134  -0.190
    1UNL     C6    9   0.046  -0.083   0.039
    1UNL     C7   10   0.049   0.050   0.119
    1UNL     O4   11   0.183   0.088   0.140
    1UNL     C8   12   0.240   0.151   0.034
    1UNL     O5   13   0.183   0.184  -0.064
    1UNL     C9   14   0.382   0.183   0.051
    1UNL    C10   15   0.443   0.282  -0.030
    1UNL    C11   16   0.581   0.293  -0.042
    1UNL    C12   17   0.669   0.192   0.011
    1UNL    C13   18   0.608   0.099   0.097
    1UNL    C14   19   0.468   0.091   0.119
    1UNL     O6   20   0.407  -0.007   0.190
    1UNL    C15   21   0.112  -0.203   0.110
    1UNL    C16   22  -0.023  -0.249   0.151
    1UNL    C17   23  -0.078  -0.178   0.024
    1UNL     O7   24  -0.207  -0.111   0.029
    1UNL    C18   25  -0.243  -0.024  -0.077
    1UNL     O8   26  -0.184   0.099  -0.063
    1UNL    C19   27  -0.236   0.182   0.045
    1UNL    C20   28  -0.194   0.323   0.020
    1UNL     O9   29  -0.233   0.406   0.130
    1UNL    C21   30  -0.388   0.166   0.062
    1UNL    O10   31  -0.416   0.067   0.158
    1UNL    C22   32  -0.451   0.139  -0.076
    1UNL    O11   33  -0.592   0.126  -0.068
    1UNL    C23   34  -0.398  -0.008  -0.111
    1UNL    O12   35  -0.411  -0.030  -0.254
    1UNL     H1   36  -0.178  -0.418  -0.132
    1UNL     H2   37  -0.252  -0.263  -0.186
    1UNL     H3   38  -0.127  -0.346  -0.279
    1UNL     H4   39   0.061  -0.439  -0.047
    1UNL     H5   40   0.126  -0.364  -0.188
    1UNL     H6   41   0.365  -0.290   0.052
    1UNL     H7   42   0.153   0.029  -0.140
    1UNL     H8   43   0.007   0.127   0.051
    1UNL     H9   44  -0.002   0.044   0.214
    1UNL    H10   45   0.382   0.349  -0.090
    1UNL    H11   46   0.626   0.366  -0.109
    1UNL    H12   47   0.774   0.211  -0.006
    1UNL    H13   48   0.668   0.047   0.170
    1UNL    H14   49   0.473  -0.075   0.218
    1UNL    H15   50   0.175  -0.165   0.191
    1UNL    H16   51  -0.045  -0.355   0.146
    1UNL    H17   52  -0.058  -0.213   0.251
    1UNL    H18   53  -0.196  -0.063  -0.179
    1UNL    H19   54  -0.180   0.153   0.128
    1UNL    H20   55  -0.251   0.353  -0.069
    1UNL    H21   56  -0.088   0.332  -0.008
    1UNL    H22   57  -0.198   0.366   0.214
    1UNL    H23   58  -0.433   0.257   0.107
    1UNL    H24   59  -0.350  -0.006   0.139
    1UNL    H25   60  -0.432   0.203  -0.160
    1UNL    H26   61  -0.604   0.116   0.026
    1UNL    H27   62  -0.454  -0.083  -0.055
    1UNL    H28   63  -0.504  -0.014  -0.278
   0.00000   0.00000   0.00000   0.00000   0.00000   0.00000   0.00000   0.00000   0.00000
Generated with MDTraj, t= 61.0
 63
    1UNL     C1    1  -0.172  -0.345  -0.168
    1UNL     C2    2  -0.048  -0.267  -0.106
    1UNL     C3    3   0.069  -0.355  -0.075
    1UNL     C4    4   0.186  -0.278  -0.016
    1UNL     O1    5   0.300  -0.348   0.038
    1UNL     O2    6   0.223  -0.188  -0.125
    1UNL     C5    7   0.104  -0.098  -0.140
    1UNL     O3    8   0.004  -0.177  -0.206
    1UNL     C6    9   0.047  -0.076   0.005
    1UNL     C7   10   0.043   0.064   0.071
    1UNL     O4   11   0.167   0.093   0.125
    1UNL     C8   12   0.242   0.154   0.026
    1UNL     O5   13   0.187   0.217  -0.059
    1UNL     C9   14   0.388   0.164   0.025
    1UNL    C10   15   0.447   0.278  -0.037
    1UNL    C11   16   0.579   0.306  -0.010
    1UNL    C12   17   0.654   0.228   0.082
    1UNL    C13   18   0.604   0.106   0.127
    1UNL    C14   19   0.463   0.081   0.104
    1UNL     O6   20   0.415  -0.037   0.167
    1UNL    C15   21   0.114  -0.190   0.098
    1UNL    C16   22  -0.025  -0.221   0.155
    1UNL    C17   23  -0.081  -0.174   0.020
    1UNL     O7   24  -0.215  -0.115   0.024
    1UNL    C18   25  -0.226  -0.013  -0.076
    1UNL     O8   26  -0.174   0.118  -0.054
    1UNL    C19   27  -0.230   0.190   0.056
    1UNL    C20   28  -0.177   0.338   0.045
    1UNL     O9   29  -0.238   0.421   0.136
    1UNL    C21   30  -0.386   0.172   0.062
    1UNL    O10   31  -0.408   0.086   0.166
    1UNL    C22   32  -0.446   0.125  -0.068
    1UNL    O11   33  -0.590   0.115  -0.066
    1UNL    C23   34  -0.382  -0.014  -0.101
    1UNL    O12   35  -0.403  -0.059  -0.237
    1UNL     H1   36  -0.230  -0.402  -0.098
    1UNL     H2   37  -0.238  -0.266  -0.215
    1UNL     H3   38  -0.135  -0.406  -0.248
    1UNL     H4   39   0.045  -0.434  -0.003
    1UNL     H5   40   0.101  -0.397  -0.165
    1UNL     H6   41   0.369  -0.282   0.012
    1UNL     H7   42   0.114   0.003  -0.201
    1UNL     H8   43   0.008   0.136  -0.008
    1UNL     H9   44  -0.024   0.067   0.158
    1UNL    H10   45   0.386   0.335  -0.105
    1UNL    H11   46   0.638   0.378  -0.062
    1UNL    H12   47   0.752   0.260   0.115
    1UNL    H13   48   0.668   0.043   0.189
    1UNL    H14   49   0.483  -0.086   0.217
    1UNL    H15   50   0.180  -0.144   0.172
    1UNL    H16   51  -0.047  -0.325   0.169
    1UNL    H17   52  -0.058  -0.149   0.232
    1UNL    H18   53  -0.181  -0.056  -0.176
    1UNL    H19   54  -0.192   0.154   0.145
    1UNL    H20   55  -0.190   0.384  -0.053
    1UNL    H21   56  -0.072   0.341   0.067
    1UNL    H22   57  -0.240   0.388   0.233
    1UNL    H23   58  -0.443   0.256   0.106
    1UNL    H24   59  -0.359   0.002   0.148
    1UNL    H25   60  -0.423   0.200  -0.144
    1UNL    H26   61  -0.610   0.105   0.031
    1UNL    H27   62  -0.424  -0.086  -0.027
    1UNL    H28   63  -0.492  -0.037  -0.261
   0.00000   0.00000   0.00000   0.00000   0.00000   0.00000   0.00000   0.00000   0.00000
Generated with MDTraj, t= 62.0
 63
    1UNL     C1    1  -0.208  -0.336  -0.123
    1UNL     C2    2  -0.067  -0.272  -0.097
    1UNL     C3    3   0.050  -0.380  -0.069
    1UNL     C4    4   0.173  -0.300  -0.024
    1UNL     O1    5   0.291  -0.379   0.007
    1UNL     O2    6   0.203  -0.204  -0.136
    1UNL     C5    7   0.099  -0.115  -0.149
    1UNL     O3    8  -0.020  -0.177  -0.201
    1UNL     C6    9   0.059  -0.084   0.005
    1UNL     C7   10   0.064   0.065   0.052
    1UNL     O4   11   0.188   0.111   0.106
    1UNL     C8   12   0.263   0.170   0.006
    1UNL     O5   13   0.212   0.209  -0.095
    1UNL     C9   14   0.406   0.190   0.036
    1UNL    C10   15   0.480   0.304  -0.004
    1UNL    C11   16   0.606   0.333   0.035
    1UNL    C12   17   0.668   0.233   0.110
    1UNL    C13   18   0.608   0.109   0.142
    1UNL    C14   19   0.474   0.090   0.116
    1UNL     O6   20   0.405  -0.024   0.145
    1UNL    C15   21   0.131  -0.191   0.097
    1UNL    C16   22  -0.009  -0.224   0.158
    1UNL    C17   23  -0.074  -0.170   0.024
    1UNL     O7   24  -0.198  -0.101   0.036
    1UNL    C18   25  -0.227  -0.011  -0.074
    1UNL     O8   26  -0.174   0.119  -0.060
    1UNL    C19   27  -0.236   0.194   0.045
    1UNL    C20   28  -0.213   0.350   0.032
    1UNL     O9   29  -0.256   0.409   0.151
    1UNL    C21   30  -0.392   0.174   0.064
    1UNL    O10   31  -0.415   0.079   0.170
    1UNL    C22   32  -0.453   0.121  -0.072
    1UNL    O11   33  -0.596   0.098  -0.068
    1UNL    C23   34  -0.380  -0.016  -0.104
    1UNL    O12   35  -0.406  -0.057  -0.244
    1UNL     H1   36  -0.217  -0.413  -0.045
    1UNL     H2   37  -0.291  -0.267  -0.112
    1UNL     H3   38  -0.218  -0.382  -0.221
    1UNL     H4   39   0.018  -0.463  -0.009
    1UNL     H5   40   0.090  -0.418  -0.165
    1UNL     H6   41   0.364  -0.316  -0.012
    1UNL     H7   42   0.118  -0.019  -0.214
    1UNL     H8   43   0.048   0.128  -0.043
    1UNL     H9   44  -0.024   0.081   0.119
    1UNL    H10   45   0.431   0.368  -0.077
    1UNL    H11   46   0.649   0.428   0.006
    1UNL    H12   47   0.763   0.248   0.157
    1UNL    H13   48   0.665   0.023   0.174
    1UNL    H14   49   0.459  -0.079   0.205
    1UNL    H15   50   0.204  -0.139   0.163
    1UNL    H16   51  -0.029  -0.329   0.175
    1UNL    H17   52  -0.035  -0.156   0.236
    1UNL    H18   53  -0.178  -0.061  -0.168
    1UNL    H19   54  -0.189   0.168   0.133
    1UNL    H20   55  -0.279   0.381  -0.047
    1UNL    H21   56  -0.116   0.382   0.009
    1UNL    H22   57  -0.201   0.373   0.226
    1UNL    H23   58  -0.440   0.262   0.103
    1UNL    H24   59  -0.358   0.001   0.142
    1UNL    H25   60  -0.433   0.200  -0.149
    1UNL    H26   61  -0.619   0.083   0.030
    1UNL    H27   62  -0.417  -0.091  -0.028
    1UNL    H28   63  -0.497  -0.040  -0.267
   0.00000   0.00000   0.00000   0.00000   0.00000   0.00000   0.00000   0.00000   0.00000
Generated with MDTraj, t= 63.0
 63
    1UNL     C1    1  -0.216  -0.319  -0.112
    1UNL     C2    2  -0.081  -0.259  -0.090
    1UNL     C3    3   0.025  -0.373  -0.071
    1UNL     C4    4   0.157  -0.298  -0.029
    1UNL     O1    5   0.263  -0.383   0.016
    1UNL     O2    6   0.187  -0.214  -0.148
    1UNL     C5    7   0.091  -0.119  -0.160
    1UNL     O3    8  -0.034  -0.181  -0.206
    1UNL     C6    9   0.061  -0.075  -0.014
    1UNL     C7   10   0.082   0.069   0.016
    1UNL     O4   11   0.198   0.094   0.092
    1UNL     C8   12   0.286   0.146  -0.001
    1UNL     O5   13   0.263   0.180  -0.116
    1UNL     C9   14   0.418   0.187   0.054
    1UNL    C10   15   0.469   0.310   0.022
    1UNL    C11   16   0.602   0.343   0.057
    1UNL    C12   17   0.676   0.247   0.125
    1UNL    C13   18   0.625   0.120   0.154
    1UNL    C14   19   0.495   0.092   0.118
    1UNL     O6   20   0.440  -0.030   0.142
    1UNL    C15   21   0.132  -0.176   0.074
    1UNL    C16   22   0.008  -0.205   0.153
    1UNL    C17   23  -0.071  -0.150   0.033
    1UNL     O7   24  -0.193  -0.078   0.050
    1UNL    C18   25  -0.228  -0.002  -0.071
    1UNL     O8   26  -0.183   0.131  -0.053
    1UNL    C19   27  -0.258   0.194   0.052
    1UNL    C20   28  -0.233   0.341   0.034
    1UNL     O9   29  -0.275   0.429   0.137
    1UNL    C21   30  -0.406   0.157   0.066
    1UNL    O10   31  -0.415   0.055   0.164
    1UNL    C22   32  -0.461   0.103  -0.065
    1UNL    O11   33  -0.600   0.072  -0.059
    1UNL    C23   34  -0.375  -0.021  -0.101
    1UNL    O12   35  -0.396  -0.053  -0.239
    1UNL     H1   36  -0.280  -0.333  -0.022
    1UNL     H2   37  -0.267  -0.252  -0.173
    1UNL     H3   38  -0.220  -0.410  -0.173
    1UNL     H4   39   0.007  -0.442   0.008
    1UNL     H5   40   0.034  -0.431  -0.168
    1UNL     H6   41   0.346  -0.354  -0.026
    1UNL     H7   42   0.150  -0.042  -0.224
    1UNL     H8   43   0.066   0.131  -0.079
    1UNL     H9   44  -0.000   0.098   0.086
    1UNL    H10   45   0.401   0.384  -0.015
    1UNL    H11   46   0.631   0.445   0.055
    1UNL    H12   47   0.769   0.279   0.170
    1UNL    H13   48   0.691   0.050   0.207
    1UNL    H14   49   0.510  -0.085   0.182
    1UNL    H15   50   0.218  -0.128   0.127
    1UNL    H16   51  -0.015  -0.309   0.174
    1UNL    H17   52  -0.013  -0.152   0.240
    1UNL    H18   53  -0.171  -0.049  -0.159
    1UNL    H19   54  -0.208   0.164   0.138
    1UNL    H20   55  -0.276   0.376  -0.058
    1UNL    H21   56  -0.129   0.347   0.015
    1UNL    H22   57  -0.235   0.396   0.216
    1UNL    H23   58  -0.466   0.239   0.097
    1UNL    H24   59  -0.342  -0.005   0.143
    1UNL    H25   60  -0.449   0.169  -0.156
    1UNL    H26   61  -0.625   0.052   0.036
    1UNL    H27   62  -0.407  -0.108  -0.035
    1UNL    H28   63  -0.491  -0.040  -0.257
   0.00000   0.00000   0.00000   0.00000   0.00000   0.00000   0.00000   0.00000   0.00000
Generated with MDTraj, t= 64.0
 63
    1UNL     C1    1  -0.211  -0.350  -0.122
    1UNL     C2    2  -0.077  -0.271  -0.090
    1UNL     C3    3   0.035  -0.376  -0.055
    1UNL     C4    4   0.163  -0.298  -0.034
    1UNL     O1    5   0.271  -0.380   0.018
    1UNL     O2    6   0.194  -0.229  -0.166
    1UNL     C5    7   0.085  -0.127  -0.171
    1UNL     O3    8  -0.033  -0.196  -0.207
    1UNL     C6    9   0.063  -0.078  -0.024
    1UNL     C7   10   0.082   0.066   0.005
    1UNL     O4   11   0.205   0.097   0.078
    1UNL     C8   12   0.303   0.123  -0.011
    1UNL     O5   13   0.276   0.143  -0.127
    1UNL     C9   14   0.433   0.165   0.047
    1UNL    C10   15   0.474   0.297   0.017
    1UNL    C11   16   0.595   0.346   0.074
    1UNL    C12   17   0.669   0.269   0.160
    1UNL    C13   18   0.629   0.138   0.176
    1UNL    C14   19   0.509   0.081   0.122
    1UNL     O6   20   0.488  -0.058   0.136
    1UNL    C15   21   0.137  -0.177   0.071
    1UNL    C16   22   0.003  -0.196   0.150
    1UNL    C17   23  -0.072  -0.151   0.025
    1UNL     O7   24  -0.181  -0.059   0.049
    1UNL    C18   25  -0.229   0.016  -0.073
    1UNL     O8   26  -0.201   0.161  -0.063
    1UNL    C19   27  -0.267   0.225   0.047
    1UNL    C20   28  -0.263   0.375   0.036
    1UNL     O9   29  -0.337   0.430   0.145
    1UNL    C21   30  -0.411   0.171   0.069
    1UNL    O10   31  -0.410   0.075   0.170
    1UNL    C22   32  -0.472   0.100  -0.053
    1UNL    O11   33  -0.606   0.062  -0.032
    1UNL    C23   34  -0.377  -0.015  -0.102
    1UNL    O12   35  -0.403  -0.044  -0.240
    1UNL     H1   36  -0.235  -0.407  -0.031
    1UNL     H2   37  -0.295  -0.286  -0.131
    1UNL     H3   38  -0.220  -0.418  -0.208
    1UNL     H4   39   0.000  -0.434   0.030
    1UNL     H5   40   0.064  -0.441  -0.142
    1UNL     H6   41   0.347  -0.383  -0.044
    1UNL     H7   42   0.097  -0.048  -0.252
    1UNL     H8   43   0.079   0.125  -0.089
    1UNL     H9   44  -0.007   0.096   0.063
    1UNL    H10   45   0.404   0.365  -0.033
    1UNL    H11   46   0.615   0.454   0.071
    1UNL    H12   47   0.759   0.305   0.208
    1UNL    H13   48   0.681   0.075   0.242
    1UNL    H14   49   0.555  -0.104   0.190
    1UNL    H15   50   0.233  -0.142   0.119
    1UNL    H16   51  -0.018  -0.292   0.191
    1UNL    H17   52  -0.008  -0.122   0.221
    1UNL    H18   53  -0.178  -0.026  -0.167
    1UNL    H19   54  -0.212   0.200   0.131
    1UNL    H20   55  -0.308   0.410  -0.057
    1UNL    H21   56  -0.166   0.423   0.035
    1UNL    H22   57  -0.315   0.401   0.236
    1UNL    H23   58  -0.473   0.248   0.107
    1UNL    H24   59  -0.339   0.009   0.140
    1UNL    H25   60  -0.479   0.171  -0.141
    1UNL    H26   61  -0.617   0.043   0.061
    1UNL    H27   62  -0.412  -0.107  -0.047
    1UNL    H28   63  -0.503  -0.051  -0.250
   0.00000   0.00000   0.00000   0.00000   0.00000   0.00000   0.00000   0.00000   0.00000
Generated with MDTraj, t= 65.0
 63
    1UNL     C1    1  -0.223  -0.304  -0.110
    1UNL     C2    2  -0.077  -0.251  -0.092
    1UNL     C3    3   0.030  -0.367  -0.059
    1UNL     C4    4   0.170  -0.300  -0.029
    1UNL     O1    5   0.272  -0.384   0.019
    1UNL     O2    6   0.193  -0.237  -0.163
    1UNL     C5    7   0.098  -0.128  -0.177
    1UNL     O3    8  -0.027  -0.192  -0.216
    1UNL     C6    9   0.073  -0.070  -0.024
    1UNL     C7   10   0.085   0.081   0.004
    1UNL     O4   11   0.210   0.125   0.058
    1UNL     C8   12   0.316   0.116  -0.030
    1UNL     O5   13   0.295   0.090  -0.144
    1UNL     C9   14   0.442   0.168   0.027
    1UNL    C10   15   0.478   0.299   0.026
    1UNL    C11   16   0.587   0.347   0.096
    1UNL    C12   17   0.663   0.253   0.171
    1UNL    C13   18   0.619   0.126   0.185
    1UNL    C14   19   0.509   0.079   0.119
    1UNL     O6   20   0.464  -0.043   0.139
    1UNL    C15   21   0.145  -0.177   0.061
    1UNL    C16   22   0.015  -0.192   0.150
    1UNL    C17   23  -0.064  -0.140   0.020
    1UNL     O7   24  -0.186  -0.071   0.046
    1UNL    C18   25  -0.228   0.012  -0.066
    1UNL     O8   26  -0.191   0.148  -0.041
    1UNL    C19   27  -0.270   0.218   0.059
    1UNL    C20   28  -0.284   0.367   0.026
    1UNL     O9   29  -0.361   0.444   0.121
    1UNL    C21   30  -0.413   0.160   0.087
    1UNL    O10   31  -0.404   0.055   0.186
    1UNL    C22   32  -0.475   0.101  -0.048
    1UNL    O11   33  -0.602   0.053  -0.025
    1UNL    C23   34  -0.380  -0.015  -0.104
    1UNL    O12   35  -0.405  -0.031  -0.244
    1UNL     H1   36  -0.289  -0.314  -0.025
    1UNL     H2   37  -0.266  -0.253  -0.201
    1UNL     H3   38  -0.212  -0.405  -0.148
    1UNL     H4   39  -0.003  -0.428   0.031
    1UNL     H5   40   0.037  -0.427  -0.152
    1UNL     H6   41   0.319  -0.419  -0.060
    1UNL     H7   42   0.119  -0.047  -0.251
    1UNL     H8   43   0.047   0.139  -0.078
    1UNL     H9   44   0.023   0.107   0.089
    1UNL    H10   45   0.422   0.368  -0.033
    1UNL    H11   46   0.616   0.447   0.084
    1UNL    H12   47   0.747   0.282   0.232
    1UNL    H13   48   0.681   0.049   0.232
    1UNL    H14   49   0.519  -0.079   0.212
    1UNL    H15   50   0.232  -0.142   0.121
    1UNL    H16   51   0.004  -0.289   0.191
    1UNL    H17   52   0.006  -0.106   0.210
    1UNL    H18   53  -0.159  -0.019  -0.151
    1UNL    H19   54  -0.210   0.190   0.138
    1UNL    H20   55  -0.342   0.378  -0.068
    1UNL    H21   56  -0.188   0.414   0.001
    1UNL    H22   57  -0.312   0.447   0.210
    1UNL    H23   58  -0.472   0.229   0.140
    1UNL    H24   59  -0.326   0.006   0.160
    1UNL    H25   60  -0.489   0.189  -0.119
    1UNL    H26   61  -0.599   0.027   0.069
    1UNL    H27   62  -0.411  -0.110  -0.052
    1UNL    H28   63  -0.503  -0.040  -0.269
   0.00000   0.00000   0.00000   0.00000   0.00000   0.00000   0.00000   0.00000   0.00000
Generated with MDTraj, t= 66.0
 63
    1UNL     C1    1  -0.214  -0.313  -0.114
    1UNL     C2    2  -0.074  -0.253  -0.094
    1UNL     C3    3   0.032  -0.363  -0.061
    1UNL     C4    4   0.171  -0.284  -0.032
    1UNL     O1    5   0.276  -0.370   0.017
    1UNL     O2    6   0.199  -0.226  -0.160
    1UNL     C5    7   0.100  -0.125  -0.176
    1UNL     O3    8  -0.026  -0.185  -0.209
    1UNL     C6    9   0.067  -0.062  -0.034
    1UNL     C7   10   0.071   0.085  -0.006
    1UNL     O4   11   0.189   0.125   0.057
    1UNL     C8   12   0.300   0.120  -0.022
    1UNL     O5   13   0.290   0.111  -0.141
    1UNL     C9   14   0.428   0.156   0.043
    1UNL    C10   15   0.476   0.287   0.025
    1UNL    C11   16   0.603   0.321   0.063
    1UNL    C12   17   0.658   0.234   0.159
    1UNL    C13   18   0.601   0.119   0.201
    1UNL    C14   19   0.487   0.076   0.133
    1UNL     O6   20   0.447  -0.053   0.146
    1UNL    C15   21   0.142  -0.167   0.060
    1UNL    C16   22   0.013  -0.180   0.148
    1UNL    C17   23  -0.066  -0.137   0.016
    1UNL     O7   24  -0.179  -0.066   0.044
    1UNL    C18   25  -0.225   0.014  -0.067
    1UNL     O8   26  -0.193   0.155  -0.045
    1UNL    C19   27  -0.265   0.219   0.065
    1UNL    C20   28  -0.289   0.367   0.027
    1UNL     O9   29  -0.360   0.444   0.115
    1UNL    C21   30  -0.402   0.147   0.087
    1UNL    O10   31  -0.388   0.063   0.193
    1UNL    C22   32  -0.463   0.091  -0.044
    1UNL    O11   33  -0.589   0.037  -0.015
    1UNL    C23   34  -0.372  -0.018  -0.103
    1UNL    O12   35  -0.388  -0.037  -0.246
    1UNL     H1   36  -0.242  -0.376  -0.033
    1UNL     H2   37  -0.273  -0.217  -0.124
    1UNL     H3   38  -0.228  -0.365  -0.208
    1UNL     H4   39  -0.001  -0.422   0.032
    1UNL     H5   40   0.058  -0.428  -0.146
    1UNL     H6   41   0.305  -0.429  -0.057
    1UNL     H7   42   0.151  -0.063  -0.251
    1UNL     H8   43   0.050   0.149  -0.087
    1UNL     H9   44  -0.005   0.105   0.067
    1UNL    H10   45   0.420   0.344  -0.049
    1UNL    H11   46   0.658   0.407   0.019
    1UNL    H12   47   0.754   0.262   0.199
    1UNL    H13   48   0.643   0.050   0.271
    1UNL    H14   49   0.508  -0.110   0.200
    1UNL    H15   50   0.241  -0.125   0.093
    1UNL    H16   51  -0.014  -0.275   0.181
    1UNL    H17   52   0.022  -0.102   0.221
    1UNL    H18   53  -0.160  -0.017  -0.156
    1UNL    H19   54  -0.199   0.226   0.144
    1UNL    H20   55  -0.344   0.371  -0.070
    1UNL    H21   56  -0.191   0.421   0.009
    1UNL    H22   57  -0.307   0.456   0.200
    1UNL    H23   58  -0.467   0.220   0.125
    1UNL    H24   59  -0.310   0.005   0.170
    1UNL    H25   60  -0.476   0.173  -0.123
    1UNL    H26   61  -0.597   0.015   0.083
    1UNL    H27   62  -0.406  -0.111  -0.052
    1UNL    H28   63  -0.481  -0.054  -0.274
   0.00000   0.00000   0.00000   0.00000   0.00000   0.00000   0.00000   0.00000   0.00000
Generated with MDTraj, t= 67.0
 63
    1UNL     C1    1  -0.192  -0.344  -0.097
    1UNL     C2    2  -0.064  -0.268  -0.089
    1UNL     C3    3   0.057  -0.373  -0.060
    1UNL     C4    4   0.186  -0.280  -0.041
    1UNL     O1    5   0.302  -0.350  -0.004
    1UNL     O2    6   0.206  -0.198  -0.165
    1UNL     C5    7   0.093  -0.119  -0.176
    1UNL     O3    8  -0.028  -0.191  -0.213
    1UNL     C6    9   0.059  -0.072  -0.026
    1UNL     C7   10   0.075   0.074   0.015
    1UNL     O4   11   0.198   0.108   0.073
    1UNL     C8   12   0.290   0.135  -0.022
    1UNL     O5   13   0.260   0.161  -0.136
    1UNL     C9   14   0.420   0.161   0.046
    1UNL    C10   15   0.492   0.273   0.010
    1UNL    C11   16   0.619   0.295   0.057
    1UNL    C12   17   0.683   0.203   0.140
    1UNL    C13   18   0.600   0.102   0.189
    1UNL    C14   19   0.467   0.075   0.145
    1UNL     O6   20   0.402  -0.038   0.183
    1UNL    C15   21   0.145  -0.169   0.066
    1UNL    C16   22   0.008  -0.184   0.153
    1UNL    C17   23  -0.069  -0.150   0.019
    1UNL     O7   24  -0.178  -0.066   0.039
    1UNL    C18   25  -0.229   0.012  -0.075
    1UNL     O8   26  -0.212   0.152  -0.074
    1UNL    C19   27  -0.266   0.224   0.041
    1UNL    C20   28  -0.274   0.374   0.021
    1UNL     O9   29  -0.340   0.438   0.127
    1UNL    C21   30  -0.405   0.163   0.080
    1UNL    O10   31  -0.387   0.074   0.192
    1UNL    C22   32  -0.470   0.092  -0.046
    1UNL    O11   33  -0.601   0.046   0.000
    1UNL    C23   34  -0.378  -0.019  -0.107
    1UNL    O12   35  -0.404  -0.034  -0.253
    1UNL     H1   36  -0.221  -0.367   0.004
    1UNL     H2   37  -0.266  -0.289  -0.157
    1UNL     H3   38  -0.171  -0.441  -0.144
    1UNL     H4   39   0.040  -0.433   0.035
    1UNL     H5   40   0.086  -0.444  -0.144
    1UNL     H6   41   0.377  -0.286   0.005
    1UNL     H7   42   0.113  -0.041  -0.249
    1UNL     H8   43   0.051   0.143  -0.062
    1UNL     H9   44   0.005   0.091   0.094
    1UNL    H10   45   0.443   0.340  -0.058
    1UNL    H11   46   0.678   0.375   0.020
    1UNL    H12   47   0.786   0.224   0.167
    1UNL    H13   48   0.639   0.043   0.272
    1UNL    H14   49   0.448  -0.072   0.264
    1UNL    H15   50   0.238  -0.134   0.119
    1UNL    H16   51   0.003  -0.278   0.194
    1UNL    H17   52  -0.014  -0.110   0.229
    1UNL    H18   53  -0.169  -0.020  -0.165
    1UNL    H19   54  -0.197   0.213   0.117
    1UNL    H20   55  -0.328   0.390  -0.077
    1UNL    H21   56  -0.168   0.416   0.014
    1UNL    H22   57  -0.289   0.429   0.210
    1UNL    H23   58  -0.475   0.228   0.122
    1UNL    H24   59  -0.337  -0.005   0.163
    1UNL    H25   60  -0.489   0.156  -0.136
    1UNL    H26   61  -0.600   0.033   0.098
    1UNL    H27   62  -0.414  -0.114  -0.066
    1UNL    H28   63  -0.497  -0.052  -0.265
   0.00000   0.00000   0.00000   0.00000   0.00000   0.00000   0.00000   0.00000   0.00000
Generated with MDTraj, t= 68.0
 63
    1UNL     C1    1  -0.184  -0.334  -0.129
    1UNL     C2    2  -0.062  -0.253  -0.097
    1UNL     C3    3   0.048  -0.349  -0.071
    1UNL     C4    4   0.179  -0.260  -0.034
    1UNL     O1    5   0.290  -0.343   0.002
    1UNL     O2    6   0.202  -0.187  -0.158
    1UNL     C5    7   0.089  -0.096  -0.178
    1UNL     O3    8  -0.028  -0.176  -0.209
    1UNL     C6    9   0.054  -0.049  -0.023
    1UNL     C7   10   0.062   0.102   0.017
    1UNL     O4   11   0.180   0.131   0.093
    1UNL     C8   12   0.276   0.165  -0.002
    1UNL     O5   13   0.257   0.211  -0.112
    1UNL     C9   14   0.418   0.170   0.044
    1UNL    C10   15   0.513   0.248  -0.016
    1UNL    C11   16   0.646   0.247   0.022
    1UNL    C12   17   0.695   0.171   0.126
    1UNL    C13   18   0.601   0.093   0.185
    1UNL    C14   19   0.469   0.081   0.143
    1UNL     O6   20   0.390  -0.008   0.213
    1UNL    C15   21   0.143  -0.142   0.066
    1UNL    C16   22   0.015  -0.174   0.154
    1UNL    C17   23  -0.067  -0.146   0.025
    1UNL     O7   24  -0.201  -0.098   0.041
    1UNL    C18   25  -0.239  -0.020  -0.070
    1UNL     O8   26  -0.196   0.110  -0.048
    1UNL    C19   27  -0.256   0.193   0.053
    1UNL    C20   28  -0.248   0.337   0.006
    1UNL     O9   29  -0.284   0.438   0.100
    1UNL    C21   30  -0.401   0.145   0.083
    1UNL    O10   31  -0.403   0.042   0.177
    1UNL    C22   32  -0.470   0.091  -0.047
    1UNL    O11   33  -0.608   0.059  -0.016
    1UNL    C23   34  -0.396  -0.035  -0.096
    1UNL    O12   35  -0.412  -0.054  -0.235
    1UNL     H1   36  -0.219  -0.404  -0.051
    1UNL     H2   37  -0.259  -0.267  -0.158
    1UNL     H3   38  -0.168  -0.397  -0.217
    1UNL     H4   39   0.022  -0.416   0.014
    1UNL     H5   40   0.068  -0.415  -0.163
    1UNL     H6   41   0.370  -0.294  -0.027
    1UNL     H7   42   0.093  -0.013  -0.247
    1UNL     H8   43   0.049   0.165  -0.070
    1UNL     H9   44  -0.018   0.121   0.087
    1UNL    H10   45   0.478   0.311  -0.097
    1UNL    H11   46   0.706   0.326  -0.023
    1UNL    H12   47   0.787   0.181   0.180
    1UNL    H13   48   0.618   0.064   0.287
    1UNL    H14   49   0.440  -0.054   0.285
    1UNL    H15   50   0.242  -0.112   0.109
    1UNL    H16   51   0.022  -0.276   0.180
    1UNL    H17   52  -0.030  -0.122   0.240
    1UNL    H18   53  -0.178  -0.059  -0.157
    1UNL    H19   54  -0.197   0.187   0.137
    1UNL    H20   55  -0.322   0.348  -0.077
    1UNL    H21   56  -0.145   0.352  -0.038
    1UNL    H22   57  -0.228   0.441   0.176
    1UNL    H23   58  -0.455   0.222   0.127
    1UNL    H24   59  -0.342  -0.030   0.145
    1UNL    H25   60  -0.471   0.173  -0.119
    1UNL    H26   61  -0.597   0.045   0.078
    1UNL    H27   62  -0.431  -0.118  -0.039
    1UNL    H28   63  -0.505  -0.054  -0.255
   0.00000   0.00000   0.00000   0.00000   0.00000   0.00000   0.00000   0.00000   0.00000
Generated with MDTraj, t= 69.0
 63
    1UNL     C1    1  -0.178  -0.340  -0.138
    1UNL     C2    2  -0.052  -0.262  -0.108
    1UNL     C3    3   0.077  -0.350  -0.086
    1UNL     C4    4   0.197  -0.249  -0.035
    1UNL     O1    5   0.320  -0.324   0.001
    1UNL     O2    6   0.217  -0.164  -0.150
    1UNL     C5    7   0.092  -0.076  -0.153
    1UNL     O3    8  -0.012  -0.159  -0.211
    1UNL     C6    9   0.049  -0.059  -0.005
    1UNL     C7   10   0.054   0.087   0.044
    1UNL     O4   11   0.184   0.118   0.102
    1UNL     C8   12   0.273   0.164   0.007
    1UNL     O5   13   0.226   0.210  -0.098
    1UNL     C9   14   0.419   0.163   0.048
    1UNL    C10   15   0.516   0.231  -0.036
    1UNL    C11   16   0.656   0.224  -0.007
    1UNL    C12   17   0.693   0.143   0.094
    1UNL    C13   18   0.603   0.079   0.179
    1UNL    C14   19   0.464   0.094   0.158
    1UNL     O6   20   0.379   0.040   0.247
    1UNL    C15   21   0.133  -0.161   0.081
    1UNL    C16   22   0.003  -0.208   0.146
    1UNL    C17   23  -0.070  -0.159   0.015
    1UNL     O7   24  -0.194  -0.099   0.037
    1UNL    C18   25  -0.242  -0.021  -0.078
    1UNL     O8   26  -0.205   0.118  -0.084
    1UNL    C19   27  -0.257   0.197   0.024
    1UNL    C20   28  -0.247   0.350   0.009
    1UNL     O9   29  -0.277   0.414   0.129
    1UNL    C21   30  -0.404   0.158   0.065
    1UNL    O10   31  -0.401   0.078   0.178
    1UNL    C22   32  -0.477   0.099  -0.056
    1UNL    O11   33  -0.614   0.065  -0.034
    1UNL    C23   34  -0.406  -0.034  -0.085
    1UNL    O12   35  -0.450  -0.076  -0.211
    1UNL     H1   36  -0.205  -0.417  -0.062
    1UNL     H2   37  -0.266  -0.284  -0.158
    1UNL     H3   38  -0.158  -0.403  -0.224
    1UNL     H4   39   0.054  -0.427  -0.010
    1UNL     H5   40   0.126  -0.399  -0.180
    1UNL     H6   41   0.395  -0.266  -0.022
    1UNL     H7   42   0.117   0.016  -0.199
    1UNL     H8   43   0.035   0.154  -0.042
    1UNL     H9   44  -0.022   0.101   0.123
    1UNL    H10   45   0.489   0.252  -0.137
    1UNL    H11   46   0.729   0.276  -0.066
    1UNL    H12   47   0.798   0.149   0.125
    1UNL    H13   48   0.644   0.024   0.263
    1UNL    H14   49   0.422   0.004   0.328
    1UNL    H15   50   0.216  -0.107   0.132
    1UNL    H16   51   0.001  -0.319   0.148
    1UNL    H17   52  -0.015  -0.160   0.241
    1UNL    H18   53  -0.199  -0.076  -0.166
    1UNL    H19   54  -0.202   0.168   0.106
    1UNL    H20   55  -0.319   0.385  -0.067
    1UNL    H21   56  -0.147   0.389  -0.022
    1UNL    H22   57  -0.226   0.376   0.202
    1UNL    H23   58  -0.455   0.238   0.105
    1UNL    H24   59  -0.333   0.006   0.169
    1UNL    H25   60  -0.485   0.164  -0.141
    1UNL    H26   61  -0.637   0.055   0.061
    1UNL    H27   62  -0.431  -0.108  -0.012
    1UNL    H28   63  -0.547  -0.066  -0.215
   0.00000   0.00000   0.00000   0.00000   0.00000   0.00000   0.00000   0.00000   0.00000
Generated with MDTraj, t= 70.0
 63
    1UNL     C1    1  -0.169  -0.302  -0.161
    1UNL     C2    2  -0.042  -0.229  -0.123
    1UNL     C3    3   0.081  -0.326  -0.099
    1UNL     C4    4   0.199  -0.244  -0.033
    1UNL     O1    5   0.303  -0.318   0.018
    1UNL     O2    6   0.225  -0.145  -0.138
    1UNL     C5    7   0.117  -0.063  -0.151
    1UNL     O3    8   0.012  -0.137  -0.217
    1UNL     C6    9   0.063  -0.057  -0.003
    1UNL     C7   10   0.042   0.086   0.057
    1UNL     O4   11   0.163   0.115   0.124
    1UNL     C8   12   0.255   0.143   0.025
    1UNL     O5   13   0.208   0.176  -0.082
    1UNL     C9   14   0.401   0.145   0.043
    1UNL    C10   15   0.477   0.175  -0.063
    1UNL    C11   16   0.616   0.179  -0.053
    1UNL    C12   17   0.675   0.147   0.069
    1UNL    C13   18   0.605   0.105   0.181
    1UNL    C14   19   0.470   0.105   0.167
    1UNL     O6   20   0.394   0.046   0.267
    1UNL    C15   21   0.140  -0.164   0.084
    1UNL    C16   22  -0.000  -0.213   0.140
    1UNL    C17   23  -0.065  -0.148   0.009
    1UNL     O7   24  -0.189  -0.089   0.036
    1UNL    C18   25  -0.238  -0.014  -0.072
    1UNL     O8   26  -0.202   0.119  -0.081
    1UNL    C19   27  -0.252   0.192   0.032
    1UNL    C20   28  -0.214   0.340   0.016
    1UNL     O9   29  -0.274   0.416   0.116
    1UNL    C21   30  -0.409   0.166   0.061
    1UNL    O10   31  -0.421   0.078   0.174
    1UNL    C22   32  -0.475   0.089  -0.060
    1UNL    O11   33  -0.608   0.059  -0.034
    1UNL    C23   34  -0.394  -0.039  -0.079
    1UNL    O12   35  -0.429  -0.100  -0.199
    1UNL     H1   36  -0.214  -0.367  -0.086
    1UNL     H2   37  -0.244  -0.234  -0.205
    1UNL     H3   38  -0.138  -0.373  -0.235
    1UNL     H4   39   0.057  -0.419  -0.039
    1UNL     H5   40   0.121  -0.357  -0.200
    1UNL     H6   41   0.385  -0.264   0.025
    1UNL     H7   42   0.136   0.021  -0.213
    1UNL     H8   43   0.018   0.165  -0.018
    1UNL     H9   44  -0.028   0.080   0.147
    1UNL    H10   45   0.430   0.178  -0.162
    1UNL    H11   46   0.675   0.168  -0.144
    1UNL    H12   47   0.780   0.164   0.074
    1UNL    H13   48   0.656   0.068   0.269
    1UNL    H14   49   0.451   0.019   0.342
    1UNL    H15   50   0.215  -0.110   0.144
    1UNL    H16   51  -0.008  -0.327   0.147
    1UNL    H17   52  -0.021  -0.155   0.228
    1UNL    H18   53  -0.204  -0.065  -0.165
    1UNL    H19   54  -0.204   0.156   0.116
    1UNL    H20   55  -0.236   0.388  -0.078
    1UNL    H21   56  -0.107   0.350   0.030
    1UNL    H22   57  -0.260   0.367   0.203
    1UNL    H23   58  -0.446   0.258   0.083
    1UNL    H24   59  -0.373  -0.007   0.156
    1UNL    H25   60  -0.475   0.129  -0.159
    1UNL    H26   61  -0.626   0.077   0.065
    1UNL    H27   62  -0.420  -0.114  -0.005
    1UNL    H28   63  -0.530  -0.092  -0.197
   0.00000   0.00000   0.00000   0.00000   0.00000   0.00000   0.00000   0.00000   0.00000
Generated with MDTraj, t= 71.0
 63
    1UNL     C1    1  -0.153  -0.319  -0.183
    1UNL     C2    2  -0.035  -0.242  -0.117
    1UNL     C3    3   0.085  -0.333  -0.100
    1UNL     C4    4   0.199  -0.257  -0.031
    1UNL     O1    5   0.320  -0.333  -0.014
    1UNL     O2    6   0.226  -0.142  -0.115
    1UNL     C5    7   0.109  -0.058  -0.116
    1UNL     O3    8   0.009  -0.122  -0.199
    1UNL     C6    9   0.050  -0.063   0.025
    1UNL     C7   10   0.045   0.073   0.089
    1UNL     O4   11   0.177   0.112   0.128
    1UNL     C8   12   0.254   0.154   0.023
    1UNL     O5   13   0.205   0.197  -0.079
    1UNL     C9   14   0.406   0.156   0.030
    1UNL    C10   15   0.493   0.171  -0.081
    1UNL    C11   16   0.628   0.155  -0.068
    1UNL    C12   17   0.691   0.126   0.052
    1UNL    C13   18   0.605   0.097   0.154
    1UNL    C14   19   0.459   0.118   0.153
    1UNL     O6   20   0.389   0.092   0.267
    1UNL    C15   21   0.131  -0.179   0.096
    1UNL    C16   22  -0.003  -0.233   0.144
    1UNL    C17   23  -0.072  -0.167   0.020
    1UNL     O7   24  -0.195  -0.109   0.045
    1UNL    C18   25  -0.235  -0.021  -0.066
    1UNL     O8   26  -0.194   0.118  -0.054
    1UNL    C19   27  -0.266   0.197   0.046
    1UNL    C20   28  -0.245   0.340   0.015
    1UNL     O9   29  -0.288   0.425   0.120
    1UNL    C21   30  -0.418   0.170   0.058
    1UNL    O10   31  -0.447   0.091   0.170
    1UNL    C22   32  -0.470   0.091  -0.066
    1UNL    O11   33  -0.607   0.063  -0.045
    1UNL    C23   34  -0.390  -0.032  -0.093
    1UNL    O12   35  -0.401  -0.074  -0.227
    1UNL     H1   36  -0.200  -0.387  -0.115
    1UNL     H2   37  -0.228  -0.238  -0.205
    1UNL     H3   38  -0.131  -0.383  -0.265
    1UNL     H4   39   0.057  -0.433  -0.051
    1UNL     H5   40   0.119  -0.356  -0.203
    1UNL     H6   41   0.399  -0.279  -0.027
    1UNL     H7   42   0.122   0.042  -0.157
    1UNL     H8   43   0.014   0.152   0.019
    1UNL     H9   44  -0.019   0.074   0.182
    1UNL    H10   45   0.454   0.192  -0.179
    1UNL    H11   46   0.680   0.152  -0.162
    1UNL    H12   47   0.800   0.116   0.067
    1UNL    H13   48   0.646   0.090   0.252
    1UNL    H14   49   0.448   0.046   0.328
    1UNL    H15   50   0.204  -0.165   0.176
    1UNL    H16   51   0.013  -0.347   0.144
    1UNL    H17   52  -0.036  -0.197   0.242
    1UNL    H18   53  -0.185  -0.061  -0.153
    1UNL    H19   54  -0.226   0.168   0.138
    1UNL    H20   55  -0.305   0.363  -0.071
    1UNL    H21   56  -0.145   0.362  -0.016
    1UNL    H22   57  -0.241   0.394   0.205
    1UNL    H23   58  -0.461   0.263   0.068
    1UNL    H24   59  -0.368   0.031   0.188
    1UNL    H25   60  -0.475   0.149  -0.155
    1UNL    H26   61  -0.629   0.096   0.046
    1UNL    H27   62  -0.428  -0.102  -0.017
    1UNL    H28   63  -0.498  -0.064  -0.254
   0.00000   0.00000   0.00000   0.00000   0.00000   0.00000   0.00000   0.00000   0.00000
Generated with MDTraj, t= 72.0
 63
    1UNL     C1    1  -0.169  -0.327  -0.164
    1UNL     C2    2  -0.043  -0.247  -0.112
    1UNL     C3    3   0.077  -0.343  -0.086
    1UNL     C4    4   0.193  -0.257  -0.029
    1UNL     O1    5   0.303  -0.344   0.001
    1UNL     O2    6   0.224  -0.165  -0.131
    1UNL     C5    7   0.104  -0.077  -0.145
    1UNL     O3    8   0.003  -0.144  -0.208
    1UNL     C6    9   0.061  -0.063   0.011
    1UNL     C7   10   0.059   0.068   0.082
    1UNL     O4   11   0.181   0.103   0.142
    1UNL     C8   12   0.252   0.163   0.043
    1UNL     O5   13   0.199   0.222  -0.051
    1UNL     C9   14   0.401   0.160   0.045
    1UNL    C10   15   0.467   0.171  -0.072
    1UNL    C11   16   0.605   0.156  -0.084
    1UNL    C12   17   0.679   0.100   0.021
    1UNL    C13   18   0.617   0.101   0.140
    1UNL    C14   19   0.478   0.130   0.154
    1UNL     O6   20   0.422   0.131   0.281
    1UNL    C15   21   0.136  -0.168   0.094
    1UNL    C16   22  -0.002  -0.216   0.152
    1UNL    C17   23  -0.064  -0.164   0.025
    1UNL     O7   24  -0.199  -0.112   0.031
    1UNL    C18   25  -0.226  -0.012  -0.070
    1UNL     O8   26  -0.190   0.124  -0.033
    1UNL    C19   27  -0.264   0.194   0.065
    1UNL    C20   28  -0.239   0.345   0.041
    1UNL     O9   29  -0.322   0.431   0.121
    1UNL    C21   30  -0.414   0.158   0.070
    1UNL    O10   31  -0.440   0.062   0.174
    1UNL    C22   32  -0.451   0.102  -0.073
    1UNL    O11   33  -0.590   0.070  -0.090
    1UNL    C23   34  -0.378  -0.021  -0.110
    1UNL    O12   35  -0.395  -0.062  -0.246
    1UNL     H1   36  -0.167  -0.423  -0.119
    1UNL     H2   37  -0.268  -0.283  -0.132
    1UNL     H3   38  -0.166  -0.350  -0.268
    1UNL     H4   39   0.067  -0.429  -0.012
    1UNL     H5   40   0.105  -0.393  -0.180
    1UNL     H6   41   0.345  -0.361  -0.085
    1UNL     H7   42   0.137   0.017  -0.190
    1UNL     H8   43   0.030   0.146   0.012
    1UNL     H9   44  -0.018   0.072   0.166
    1UNL    H10   45   0.405   0.191  -0.159
    1UNL    H11   46   0.667   0.191  -0.167
    1UNL    H12   47   0.783   0.084   0.003
    1UNL    H13   48   0.678   0.082   0.229
    1UNL    H14   49   0.468   0.068   0.341
    1UNL    H15   50   0.214  -0.115   0.148
    1UNL    H16   51  -0.015  -0.326   0.165
    1UNL    H17   52  -0.059  -0.168   0.239
    1UNL    H18   53  -0.171  -0.042  -0.158
    1UNL    H19   54  -0.228   0.166   0.158
    1UNL    H20   55  -0.264   0.370  -0.059
    1UNL    H21   56  -0.135   0.367   0.052
    1UNL    H22   57  -0.316   0.419   0.219
    1UNL    H23   58  -0.464   0.243   0.096
    1UNL    H24   59  -0.386  -0.018   0.152
    1UNL    H25   60  -0.434   0.172  -0.153
    1UNL    H26   61  -0.630   0.060  -0.004
    1UNL    H27   62  -0.414  -0.111  -0.054
    1UNL    H28   63  -0.481  -0.044  -0.287
   0.00000   0.00000   0.00000   0.00000   0.00000   0.00000   0.00000   0.00000   0.00000
Generated with MDTraj, t= 73.0
 63
    1UNL     C1    1  -0.186  -0.305  -0.147
    1UNL     C2    2  -0.055  -0.246  -0.103
    1UNL     C3    3   0.058  -0.354  -0.092
    1UNL     C4    4   0.189  -0.281  -0.028
    1UNL     O1    5   0.301  -0.358   0.018
    1UNL     O2    6   0.221  -0.172  -0.127
    1UNL     C5    7   0.113  -0.077  -0.128
    1UNL     O3    8  -0.002  -0.146  -0.194
    1UNL     C6    9   0.063  -0.069   0.023
    1UNL     C7   10   0.059   0.066   0.093
    1UNL     O4   11   0.190   0.098   0.133
    1UNL     C8   12   0.253   0.166   0.035
    1UNL     O5   13   0.197   0.236  -0.046
    1UNL     C9   14   0.400   0.161   0.035
    1UNL    C10   15   0.465   0.159  -0.090
    1UNL    C11   16   0.597   0.129  -0.104
    1UNL    C12   17   0.674   0.132   0.012
    1UNL    C13   18   0.619   0.129   0.136
    1UNL    C14   19   0.484   0.139   0.154
    1UNL     O6   20   0.423   0.139   0.277
    1UNL    C15   21   0.133  -0.190   0.097
    1UNL    C16   22  -0.000  -0.233   0.154
    1UNL    C17   23  -0.066  -0.159   0.029
    1UNL     O7   24  -0.199  -0.092   0.036
    1UNL    C18   25  -0.221  -0.002  -0.070
    1UNL     O8   26  -0.185   0.134  -0.044
    1UNL    C19   27  -0.260   0.193   0.062
    1UNL    C20   28  -0.259   0.352   0.064
    1UNL     O9   29  -0.348   0.407   0.156
    1UNL    C21   30  -0.412   0.146   0.062
    1UNL    O10   31  -0.421   0.030   0.150
    1UNL    C22   32  -0.444   0.108  -0.088
    1UNL    O11   33  -0.587   0.097  -0.101
    1UNL    C23   34  -0.364  -0.021  -0.124
    1UNL    O12   35  -0.363  -0.049  -0.265
    1UNL     H1   36  -0.257  -0.287  -0.068
    1UNL     H2   37  -0.231  -0.248  -0.227
    1UNL     H3   38  -0.182  -0.413  -0.164
    1UNL     H4   39   0.030  -0.441  -0.030
    1UNL     H5   40   0.074  -0.398  -0.193
    1UNL     H6   41   0.373  -0.335  -0.044
    1UNL     H7   42   0.130   0.021  -0.169
    1UNL     H8   43   0.015   0.149   0.041
    1UNL     H9   44  -0.001   0.062   0.189
    1UNL    H10   45   0.400   0.151  -0.175
    1UNL    H11   46   0.641   0.122  -0.203
    1UNL    H12   47   0.782   0.138  -0.003
    1UNL    H13   48   0.673   0.108   0.223
    1UNL    H14   49   0.456   0.069   0.339
    1UNL    H15   50   0.195  -0.150   0.177
    1UNL    H16   51  -0.033  -0.336   0.167
    1UNL    H17   52  -0.006  -0.177   0.256
    1UNL    H18   53  -0.157  -0.022  -0.150
    1UNL    H19   54  -0.215   0.160   0.151
    1UNL    H20   55  -0.286   0.391  -0.032
    1UNL    H21   56  -0.160   0.387   0.089
    1UNL    H22   57  -0.337   0.369   0.243
    1UNL    H23   58  -0.475   0.214   0.103
    1UNL    H24   59  -0.339  -0.023   0.149
    1UNL    H25   60  -0.414   0.181  -0.163
    1UNL    H26   61  -0.620   0.038  -0.032
    1UNL    H27   62  -0.424  -0.103  -0.073
    1UNL    H28   63  -0.448  -0.018  -0.292
   0.00000   0.00000   0.00000   0.00000   0.00000   0.00000   0.00000   0.00000   0.00000
Generated with MDTraj, t= 74.0
 63
    1UNL     C1    1  -0.174  -0.295  -0.184
    1UNL     C2    2  -0.053  -0.242  -0.106
    1UNL     C3    3   0.059  -0.353  -0.088
    1UNL     C4    4   0.176  -0.283  -0.016
    1UNL     O1    5   0.272  -0.376   0.041
    1UNL     O2    6   0.220  -0.187  -0.110
    1UNL     C5    7   0.121  -0.086  -0.115
    1UNL     O3    8   0.004  -0.133  -0.193
    1UNL     C6    9   0.055  -0.080   0.035
    1UNL     C7   10   0.063   0.053   0.104
    1UNL     O4   11   0.199   0.094   0.122
    1UNL     C8   12   0.265   0.149   0.013
    1UNL     O5   13   0.205   0.191  -0.087
    1UNL     C9   14   0.409   0.157   0.020
    1UNL    C10   15   0.468   0.150  -0.106
    1UNL    C11   16   0.604   0.158  -0.110
    1UNL    C12   17   0.682   0.146   0.005
    1UNL    C13   18   0.624   0.136   0.130
    1UNL    C14   19   0.482   0.163   0.142
    1UNL     O6   20   0.423   0.173   0.270
    1UNL    C15   21   0.114  -0.201   0.115
    1UNL    C16   22  -0.028  -0.244   0.156
    1UNL    C17   23  -0.078  -0.173   0.033
    1UNL     O7   24  -0.197  -0.089   0.048
    1UNL    C18   25  -0.210   0.010  -0.064
    1UNL     O8   26  -0.188   0.148  -0.027
    1UNL    C19   27  -0.276   0.196   0.079
    1UNL    C20   28  -0.271   0.351   0.085
    1UNL     O9   29  -0.324   0.409   0.195
    1UNL    C21   30  -0.426   0.143   0.054
    1UNL    O10   31  -0.453   0.037   0.130
    1UNL    C22   32  -0.453   0.104  -0.092
    1UNL    O11   33  -0.589   0.050  -0.094
    1UNL    C23   34  -0.348  -0.000  -0.138
    1UNL    O12   35  -0.325  -0.007  -0.277
    1UNL     H1   36  -0.211  -0.394  -0.153
    1UNL     H2   37  -0.256  -0.235  -0.164
    1UNL     H3   38  -0.151  -0.299  -0.293
    1UNL     H4   39   0.031  -0.443  -0.036
    1UNL     H5   40   0.099  -0.385  -0.188
    1UNL     H6   41   0.347  -0.320   0.072
    1UNL     H7   42   0.152   0.008  -0.156
    1UNL     H8   43   0.012   0.130   0.051
    1UNL     H9   44   0.013   0.061   0.205
    1UNL    H10   45   0.409   0.143  -0.197
    1UNL    H11   46   0.654   0.160  -0.205
    1UNL    H12   47   0.787   0.137   0.003
    1UNL    H13   48   0.693   0.122   0.215
    1UNL    H14   49   0.483   0.131   0.337
    1UNL    H15   50   0.174  -0.163   0.199
    1UNL    H16   51  -0.057  -0.349   0.164
    1UNL    H17   52  -0.067  -0.187   0.251
    1UNL    H18   53  -0.140  -0.009  -0.135
    1UNL    H19   54  -0.229   0.157   0.166
    1UNL    H20   55  -0.323   0.389  -0.002
    1UNL    H21   56  -0.166   0.381   0.079
    1UNL    H22   57  -0.290   0.357   0.269
    1UNL    H23   58  -0.493   0.216   0.077
    1UNL    H24   59  -0.381  -0.032   0.129
    1UNL    H25   60  -0.443   0.197  -0.152
    1UNL    H26   61  -0.579  -0.027  -0.027
    1UNL    H27   62  -0.387  -0.103  -0.113
    1UNL    H28   63  -0.406   0.007  -0.332
   0.00000   0.00000   0.00000   0.00000   0.00000   0.00000   0.00000   0.00000   0.00000
Generated with MDTraj, t= 75.0
 63
    1UNL     C1    1  -0.173  -0.313  -0.194
    1UNL     C2    2  -0.052  -0.251  -0.111
    1UNL     C3    3   0.046  -0.364  -0.064
    1UNL     C4    4   0.165  -0.306   0.006
    1UNL     O1    5   0.260  -0.396   0.068
    1UNL     O2    6   0.227  -0.212  -0.088
    1UNL     C5    7   0.121  -0.106  -0.116
    1UNL     O3    8   0.017  -0.159  -0.197
    1UNL     C6    9   0.063  -0.080   0.026
    1UNL     C7   10   0.073   0.054   0.090
    1UNL     O4   11   0.200   0.096   0.123
    1UNL     C8   12   0.262   0.141   0.012
    1UNL     O5   13   0.213   0.166  -0.098
    1UNL     C9   14   0.410   0.151   0.016
    1UNL    C10   15   0.474   0.137  -0.102
    1UNL    C11   16   0.608   0.167  -0.112
    1UNL    C12   17   0.690   0.186  -0.003
    1UNL    C13   18   0.626   0.180   0.125
    1UNL    C14   19   0.487   0.174   0.134
    1UNL     O6   20   0.422   0.178   0.259
    1UNL    C15   21   0.112  -0.204   0.110
    1UNL    C16   22  -0.033  -0.224   0.157
    1UNL    C17   23  -0.076  -0.158   0.022
    1UNL     O7   24  -0.196  -0.083   0.013
    1UNL    C18   25  -0.208   0.025  -0.082
    1UNL     O8   26  -0.187   0.144  -0.014
    1UNL    C19   27  -0.278   0.189   0.084
    1UNL    C20   28  -0.270   0.337   0.102
    1UNL     O9   29  -0.342   0.387   0.220
    1UNL    C21   30  -0.426   0.142   0.068
    1UNL    O10   31  -0.455   0.021   0.141
    1UNL    C22   32  -0.447   0.121  -0.085
    1UNL    O11   33  -0.579   0.071  -0.108
    1UNL    C23   34  -0.347   0.017  -0.152
    1UNL    O12   35  -0.345   0.043  -0.287
    1UNL     H1   36  -0.202  -0.405  -0.143
    1UNL     H2   37  -0.261  -0.256  -0.174
    1UNL     H3   38  -0.152  -0.328  -0.302
    1UNL     H4   39   0.011  -0.439   0.005
    1UNL     H5   40   0.079  -0.411  -0.159
    1UNL     H6   41   0.345  -0.349   0.055
    1UNL     H7   42   0.179  -0.020  -0.161
    1UNL     H8   43   0.026   0.130   0.033
    1UNL     H9   44   0.012   0.056   0.185
    1UNL    H10   45   0.417   0.138  -0.192
    1UNL    H11   46   0.656   0.167  -0.209
    1UNL    H12   47   0.794   0.220  -0.019
    1UNL    H13   48   0.679   0.208   0.212
    1UNL    H14   49   0.484   0.162   0.335
    1UNL    H15   50   0.182  -0.177   0.191
    1UNL    H16   51  -0.065  -0.332   0.162
    1UNL    H17   52  -0.075  -0.166   0.245
    1UNL    H18   53  -0.131   0.025  -0.147
    1UNL    H19   54  -0.236   0.147   0.174
    1UNL    H20   55  -0.312   0.390   0.016
    1UNL    H21   56  -0.163   0.371   0.113
    1UNL    H22   57  -0.312   0.354   0.310
    1UNL    H23   58  -0.494   0.207   0.106
    1UNL    H24   59  -0.393  -0.052   0.116
    1UNL    H25   60  -0.449   0.214  -0.149
    1UNL    H26   61  -0.582  -0.018  -0.068
    1UNL    H27   62  -0.387  -0.087  -0.133
    1UNL    H28   63  -0.437   0.059  -0.327
   0.00000   0.00000   0.00000   0.00000   0.00000   0.00000   0.00000   0.00000   0.00000
Generated with MDTraj, t= 76.0
 63
    1UNL     C1    1  -0.195  -0.325  -0.163
    1UNL     C2    2  -0.058  -0.269  -0.106
    1UNL     C3    3   0.039  -0.381  -0.052
    1UNL     C4    4   0.152  -0.312   0.016
    1UNL     O1    5   0.241  -0.395   0.083
    1UNL     O2    6   0.215  -0.228  -0.084
    1UNL     C5    7   0.127  -0.126  -0.118
    1UNL     O3    8   0.021  -0.185  -0.195
    1UNL     C6    9   0.051  -0.085   0.020
    1UNL     C7   10   0.079   0.058   0.075
    1UNL     O4   11   0.213   0.084   0.107
    1UNL     C8   12   0.272   0.145   0.000
    1UNL     O5   13   0.220   0.173  -0.108
    1UNL     C9   14   0.418   0.162   0.009
    1UNL    C10   15   0.496   0.160  -0.109
    1UNL    C11   16   0.634   0.179  -0.110
    1UNL    C12   17   0.690   0.219   0.007
    1UNL    C13   18   0.620   0.217   0.125
    1UNL    C14   19   0.482   0.187   0.131
    1UNL     O6   20   0.409   0.190   0.248
    1UNL    C15   21   0.095  -0.197   0.119
    1UNL    C16   22  -0.052  -0.220   0.151
    1UNL    C17   23  -0.093  -0.167   0.012
    1UNL     O7   24  -0.214  -0.102  -0.009
    1UNL    C18   25  -0.205   0.021  -0.089
    1UNL     O8   26  -0.172   0.143  -0.015
    1UNL    C19   27  -0.255   0.171   0.100
    1UNL    C20   28  -0.258   0.313   0.134
    1UNL     O9   29  -0.361   0.346   0.222
    1UNL    C21   30  -0.407   0.128   0.066
    1UNL    O10   31  -0.436   0.006   0.135
    1UNL    C22   32  -0.437   0.138  -0.082
    1UNL    O11   33  -0.576   0.127  -0.099
    1UNL    C23   34  -0.349   0.038  -0.160
    1UNL    O12   35  -0.335   0.067  -0.295
    1UNL     H1   36  -0.274  -0.303  -0.092
    1UNL     H2   37  -0.227  -0.269  -0.252
    1UNL     H3   38  -0.181  -0.430  -0.182
    1UNL     H4   39  -0.011  -0.451   0.015
    1UNL     H5   40   0.086  -0.432  -0.134
    1UNL     H6   41   0.331  -0.366   0.057
    1UNL     H7   42   0.178  -0.047  -0.183
    1UNL     H8   43   0.049   0.127  -0.002
    1UNL     H9   44   0.015   0.079   0.162
    1UNL    H10   45   0.435   0.129  -0.194
    1UNL    H11   46   0.678   0.176  -0.208
    1UNL    H12   47   0.783   0.269   0.005
    1UNL    H13   48   0.668   0.252   0.217
    1UNL    H14   49   0.471   0.161   0.319
    1UNL    H15   50   0.153  -0.162   0.207
    1UNL    H16   51  -0.078  -0.331   0.176
    1UNL    H17   52  -0.093  -0.154   0.230
    1UNL    H18   53  -0.134   0.011  -0.161
    1UNL    H19   54  -0.217   0.115   0.187
    1UNL    H20   55  -0.282   0.369   0.041
    1UNL    H21   56  -0.159   0.355   0.174
    1UNL    H22   57  -0.357   0.294   0.310
    1UNL    H23   58  -0.470   0.190   0.115
    1UNL    H24   59  -0.372  -0.056   0.087
    1UNL    H25   60  -0.399   0.238  -0.120
    1UNL    H26   61  -0.599   0.036  -0.084
    1UNL    H27   62  -0.401  -0.060  -0.151
    1UNL    H28   63  -0.425   0.099  -0.329
   0.00000   0.00000   0.00000   0.00000   0.00000   0.00000   0.00000   0.00000   0.00000
Generated with MDTraj, t= 77.0
 63
    1UNL     C1    1  -0.194  -0.326  -0.165
    1UNL     C2    2  -0.060  -0.276  -0.101
    1UNL     C3    3   0.030  -0.388  -0.050
    1UNL     C4    4   0.148  -0.318   0.024
    1UNL     O1    5   0.231  -0.406   0.103
    1UNL     O2    6   0.217  -0.237  -0.087
    1UNL     C5    7   0.121  -0.136  -0.121
    1UNL     O3    8   0.016  -0.204  -0.199
    1UNL     C6    9   0.055  -0.094   0.015
    1UNL     C7   10   0.073   0.057   0.045
    1UNL     O4   11   0.205   0.088   0.090
    1UNL     C8   12   0.280   0.127  -0.018
    1UNL     O5   13   0.238   0.129  -0.135
    1UNL     C9   14   0.418   0.181  -0.002
    1UNL    C10   15   0.495   0.189  -0.117
    1UNL    C11   16   0.628   0.222  -0.106
    1UNL    C12   17   0.684   0.220   0.026
    1UNL    C13   18   0.608   0.224   0.138
    1UNL    C14   19   0.472   0.211   0.125
    1UNL     O6   20   0.391   0.216   0.235
    1UNL    C15   21   0.090  -0.204   0.123
    1UNL    C16   22  -0.055  -0.217   0.153
    1UNL    C17   23  -0.089  -0.166   0.011
    1UNL     O7   24  -0.222  -0.106   0.005
    1UNL    C18   25  -0.213   0.012  -0.076
    1UNL     O8   26  -0.179   0.122  -0.004
    1UNL    C19   27  -0.266   0.164   0.107
    1UNL    C20   28  -0.229   0.303   0.164
    1UNL     O9   29  -0.304   0.350   0.272
    1UNL    C21   30  -0.418   0.141   0.065
    1UNL    O10   31  -0.463   0.013   0.104
    1UNL    C22   32  -0.441   0.152  -0.088
    1UNL    O11   33  -0.577   0.123  -0.116
    1UNL    C23   34  -0.345   0.049  -0.162
    1UNL    O12   35  -0.293   0.082  -0.289
    1UNL     H1   36  -0.223  -0.427  -0.144
    1UNL     H2   37  -0.278  -0.263  -0.122
    1UNL     H3   38  -0.186  -0.298  -0.268
    1UNL     H4   39  -0.027  -0.461   0.010
    1UNL     H5   40   0.078  -0.436  -0.132
    1UNL     H6   41   0.314  -0.356   0.123
    1UNL     H7   42   0.163  -0.056  -0.190
    1UNL     H8   43   0.051   0.108  -0.050
    1UNL     H9   44   0.002   0.091   0.123
    1UNL    H10   45   0.463   0.154  -0.213
    1UNL    H11   46   0.693   0.237  -0.191
    1UNL    H12   47   0.793   0.219   0.038
    1UNL    H13   48   0.656   0.211   0.231
    1UNL    H14   49   0.438   0.204   0.320
    1UNL    H15   50   0.162  -0.156   0.194
    1UNL    H16   51  -0.098  -0.325   0.166
    1UNL    H17   52  -0.087  -0.155   0.238
    1UNL    H18   53  -0.138  -0.004  -0.142
    1UNL    H19   54  -0.239   0.081   0.178
    1UNL    H20   55  -0.221   0.381   0.086
    1UNL    H21   56  -0.122   0.290   0.204
    1UNL    H22   57  -0.315   0.272   0.331
    1UNL    H23   58  -0.483   0.206   0.108
    1UNL    H24   59  -0.388  -0.038   0.072
    1UNL    H25   60  -0.422   0.257  -0.126
    1UNL    H26   61  -0.601   0.036  -0.080
    1UNL    H27   62  -0.407  -0.042  -0.166
    1UNL    H28   63  -0.367   0.102  -0.350
   0.00000   0.00000   0.00000   0.00000   0.00000   0.00000   0.00000   0.00000   0.00000
Generated with MDTraj, t= 78.0
 63
    1UNL     C1    1  -0.200  -0.340  -0.159
    1UNL     C2    2  -0.070  -0.283  -0.093
    1UNL     C3    3   0.029  -0.391  -0.036
    1UNL     C4    4   0.152  -0.323   0.030
    1UNL     O1    5   0.247  -0.416   0.095
    1UNL     O2    6   0.217  -0.251  -0.082
    1UNL     C5    7   0.116  -0.151  -0.125
    1UNL     O3    8   0.008  -0.217  -0.193
    1UNL     C6    9   0.050  -0.101   0.008
    1UNL     C7   10   0.069   0.050   0.032
    1UNL     O4   11   0.199   0.085   0.076
    1UNL     C8   12   0.280   0.116  -0.029
    1UNL     O5   13   0.226   0.114  -0.139
    1UNL     C9   14   0.413   0.163  -0.006
    1UNL    C10   15   0.500   0.165  -0.115
    1UNL    C11   16   0.625   0.216  -0.096
    1UNL    C12   17   0.657   0.280   0.025
    1UNL    C13   18   0.579   0.261   0.137
    1UNL    C14   19   0.449   0.200   0.130
    1UNL     O6   20   0.358   0.193   0.232
    1UNL    C15   21   0.098  -0.198   0.117
    1UNL    C16   22  -0.051  -0.212   0.157
    1UNL    C17   23  -0.091  -0.164   0.017
    1UNL     O7   24  -0.211  -0.077   0.005
    1UNL    C18   25  -0.191   0.036  -0.079
    1UNL     O8   26  -0.171   0.153  -0.013
    1UNL    C19   27  -0.251   0.169   0.097
    1UNL    C20   28  -0.232   0.300   0.171
    1UNL     O9   29  -0.288   0.298   0.301
    1UNL    C21   30  -0.404   0.155   0.063
    1UNL    O10   31  -0.454   0.033   0.112
    1UNL    C22   32  -0.422   0.159  -0.092
    1UNL    O11   33  -0.552   0.143  -0.135
    1UNL    C23   34  -0.330   0.049  -0.158
    1UNL    O12   35  -0.311   0.084  -0.294
    1UNL     H1   36  -0.157  -0.406  -0.234
    1UNL     H2   37  -0.265  -0.413  -0.101
    1UNL     H3   38  -0.259  -0.265  -0.204
    1UNL     H4   39  -0.017  -0.442   0.047
    1UNL     H5   40   0.059  -0.466  -0.105
    1UNL     H6   41   0.333  -0.369   0.090
    1UNL     H7   42   0.174  -0.067  -0.179
    1UNL     H8   43   0.045   0.115  -0.055
    1UNL     H9   44  -0.002   0.067   0.117
    1UNL    H10   45   0.464   0.134  -0.212
    1UNL    H11   46   0.708   0.214  -0.165
    1UNL    H12   47   0.758   0.316   0.039
    1UNL    H13   48   0.602   0.307   0.233
    1UNL    H14   49   0.399   0.199   0.321
    1UNL    H15   50   0.167  -0.141   0.186
    1UNL    H16   51  -0.074  -0.320   0.178
    1UNL    H17   52  -0.093  -0.146   0.240
    1UNL    H18   53  -0.113   0.024  -0.145
    1UNL    H19   54  -0.223   0.089   0.173
    1UNL    H20   55  -0.271   0.385   0.112
    1UNL    H21   56  -0.124   0.326   0.192
    1UNL    H22   57  -0.246   0.241   0.364
    1UNL    H23   58  -0.456   0.231   0.106
    1UNL    H24   59  -0.388  -0.043   0.094
    1UNL    H25   60  -0.383   0.255  -0.137
    1UNL    H26   61  -0.584   0.048  -0.114
    1UNL    H27   62  -0.379  -0.046  -0.155
    1UNL    H28   63  -0.391   0.107  -0.339
   0.00000   0.00000   0.00000   0.00000   0.00000   0.00000   0.00000   0.00000   0.00000
Generated with MDTraj, t= 79.0
 63
    1UNL     C1    1  -0.215  -0.334  -0.142
    1UNL     C2    2  -0.081  -0.281  -0.090
    1UNL     C3    3   0.016  -0.393  -0.033
    1UNL     C4    4   0.138  -0.322   0.023
    1UNL     O1    5   0.223  -0.409   0.087
    1UNL     O2    6   0.200  -0.252  -0.095
    1UNL     C5    7   0.109  -0.156  -0.131
    1UNL     O3    8  -0.006  -0.219  -0.197
    1UNL     C6    9   0.051  -0.093   0.002
    1UNL     C7   10   0.073   0.053   0.040
    1UNL     O4   11   0.203   0.077   0.089
    1UNL     C8   12   0.284   0.113  -0.015
    1UNL     O5   13   0.249   0.087  -0.131
    1UNL     C9   14   0.415   0.171   0.002
    1UNL    C10   15   0.505   0.176  -0.103
    1UNL    C11   16   0.624   0.241  -0.090
    1UNL    C12   17   0.663   0.296   0.033
    1UNL    C13   18   0.580   0.285   0.138
    1UNL    C14   19   0.455   0.226   0.123
    1UNL     O6   20   0.372   0.208   0.229
    1UNL    C15   21   0.098  -0.193   0.115
    1UNL    C16   22  -0.053  -0.201   0.158
    1UNL    C17   23  -0.092  -0.165   0.016
    1UNL     O7   24  -0.214  -0.093   0.002
    1UNL    C18   25  -0.195   0.015  -0.093
    1UNL     O8   26  -0.153   0.129  -0.011
    1UNL    C19   27  -0.240   0.148   0.103
    1UNL    C20   28  -0.206   0.279   0.170
    1UNL     O9   29  -0.276   0.288   0.288
    1UNL    C21   30  -0.394   0.148   0.062
    1UNL    O10   31  -0.464   0.034   0.109
    1UNL    C22   32  -0.406   0.164  -0.093
    1UNL    O11   33  -0.538   0.158  -0.130
    1UNL    C23   34  -0.336   0.050  -0.162
    1UNL    O12   35  -0.328   0.073  -0.303
    1UNL     H1   36  -0.226  -0.331  -0.250
    1UNL     H2   37  -0.233  -0.440  -0.118
    1UNL     H3   38  -0.292  -0.284  -0.084
    1UNL     H4   39  -0.040  -0.461   0.024
    1UNL     H5   40   0.057  -0.455  -0.111
    1UNL     H6   41   0.310  -0.365   0.093
    1UNL     H7   42   0.147  -0.071  -0.200
    1UNL     H8   43   0.056   0.118  -0.049
    1UNL     H9   44   0.004   0.074   0.126
    1UNL    H10   45   0.473   0.132  -0.195
    1UNL    H11   46   0.687   0.238  -0.178
    1UNL    H12   47   0.757   0.349   0.043
    1UNL    H13   48   0.605   0.327   0.235
    1UNL    H14   49   0.411   0.245   0.312
    1UNL    H15   50   0.179  -0.169   0.190
    1UNL    H16   51  -0.088  -0.302   0.178
    1UNL    H17   52  -0.090  -0.119   0.234
    1UNL    H18   53  -0.122   0.001  -0.163
    1UNL    H19   54  -0.214   0.070   0.185
    1UNL    H20   55  -0.238   0.362   0.108
    1UNL    H21   56  -0.097   0.291   0.185
    1UNL    H22   57  -0.353   0.229   0.284
    1UNL    H23   58  -0.448   0.229   0.098
    1UNL    H24   59  -0.410  -0.046   0.102
    1UNL    H25   60  -0.360   0.260  -0.124
    1UNL    H26   61  -0.580   0.079  -0.090
    1UNL    H27   62  -0.407  -0.028  -0.143
    1UNL    H28   63  -0.409   0.102  -0.344
   0.00000   0.00000   0.00000   0.00000   0.00000   0.00000   0.00000   0.00000   0.00000
Generated with MDTraj, t= 80.0
 63
    1UNL     C1    1  -0.210  -0.339  -0.148
    1UNL     C2    2  -0.077  -0.286  -0.107
    1UNL     C3    3   0.014  -0.399  -0.051
    1UNL     C4    4   0.139  -0.333   0.015
    1UNL     O1    5   0.223  -0.427   0.082
    1UNL     O2    6   0.207  -0.254  -0.092
    1UNL     C5    7   0.112  -0.159  -0.123
    1UNL     O3    8   0.006  -0.217  -0.201
    1UNL     C6    9   0.045  -0.110   0.009
    1UNL     C7   10   0.075   0.040   0.044
    1UNL     O4   11   0.210   0.071   0.085
    1UNL     C8   12   0.291   0.113  -0.016
    1UNL     O5   13   0.267   0.086  -0.135
    1UNL     C9   14   0.425   0.179   0.011
    1UNL    C10   15   0.512   0.200  -0.093
    1UNL    C11   16   0.635   0.267  -0.091
    1UNL    C12   17   0.681   0.295   0.036
    1UNL    C13   18   0.587   0.290   0.140
    1UNL    C14   19   0.461   0.236   0.131
    1UNL     O6   20   0.377   0.238   0.237
    1UNL    C15   21   0.088  -0.224   0.110
    1UNL    C16   22  -0.057  -0.224   0.159
    1UNL    C17   23  -0.102  -0.180   0.016
    1UNL     O7   24  -0.224  -0.102   0.013
    1UNL    C18   25  -0.219   0.011  -0.076
    1UNL     O8   26  -0.166   0.124  -0.017
    1UNL    C19   27  -0.254   0.168   0.090
    1UNL    C20   28  -0.197   0.282   0.163
    1UNL     O9   29  -0.246   0.295   0.296
    1UNL    C21   30  -0.405   0.170   0.054
    1UNL    O10   31  -0.477   0.060   0.110
    1UNL    C22   32  -0.427   0.166  -0.105
    1UNL    O11   33  -0.567   0.164  -0.130
    1UNL    C23   34  -0.350   0.045  -0.155
    1UNL    O12   35  -0.324   0.052  -0.293
    1UNL     H1   36  -0.196  -0.408  -0.233
    1UNL     H2   37  -0.264  -0.398  -0.076
    1UNL     H3   38  -0.281  -0.255  -0.159
    1UNL     H4   39  -0.037  -0.462   0.014
    1UNL     H5   40   0.045  -0.466  -0.129
    1UNL     H6   41   0.309  -0.385   0.101
    1UNL     H7   42   0.171  -0.076  -0.182
    1UNL     H8   43   0.057   0.103  -0.046
    1UNL     H9   44   0.013   0.078   0.131
    1UNL    H10   45   0.479   0.160  -0.188
    1UNL    H11   46   0.691   0.291  -0.180
    1UNL    H12   47   0.768   0.358   0.040
    1UNL    H13   48   0.629   0.319   0.233
    1UNL    H14   49   0.426   0.288   0.307
    1UNL    H15   50   0.165  -0.195   0.185
    1UNL    H16   51  -0.095  -0.318   0.199
    1UNL    H17   52  -0.082  -0.136   0.232
    1UNL    H18   53  -0.147  -0.006  -0.147
    1UNL    H19   54  -0.238   0.085   0.172
    1UNL    H20   55  -0.209   0.370   0.103
    1UNL    H21   56  -0.089   0.268   0.175
    1UNL    H22   57  -0.346   0.302   0.288
    1UNL    H23   58  -0.450   0.261   0.084
    1UNL    H24   59  -0.408  -0.011   0.130
    1UNL    H25   60  -0.380   0.253  -0.151
    1UNL    H26   61  -0.605   0.117  -0.057
    1UNL    H27   62  -0.415  -0.036  -0.137
    1UNL    H28   63  -0.399   0.080  -0.349
   0.00000   0.00000   0.00000   0.00000   0.00000   0.00000   0.00000   0.00000   0.00000
Generated with MDTraj, t= 81.0
 63
    1UNL     C1    1  -0.208  -0.308  -0.173
    1UNL     C2    2  -0.071  -0.272  -0.108
    1UNL     C3    3   0.017  -0.394  -0.055
    1UNL     C4    4   0.144  -0.334   0.015
    1UNL     O1    5   0.227  -0.440   0.074
    1UNL     O2    6   0.219  -0.274  -0.088
    1UNL     C5    7   0.127  -0.164  -0.125
    1UNL     O3    8   0.018  -0.210  -0.202
    1UNL     C6    9   0.065  -0.109   0.008
    1UNL     C7   10   0.074   0.033   0.060
    1UNL     O4   11   0.208   0.054   0.083
    1UNL     C8   12   0.272   0.113  -0.018
    1UNL     O5   13   0.225   0.130  -0.130
    1UNL     C9   14   0.408   0.163   0.007
    1UNL    C10   15   0.496   0.176  -0.099
    1UNL    C11   16   0.622   0.228  -0.074
    1UNL    C12   17   0.649   0.306   0.034
    1UNL    C13   18   0.563   0.297   0.143
    1UNL    C14   19   0.445   0.221   0.132
    1UNL     O6   20   0.361   0.216   0.240
    1UNL    C15   21   0.102  -0.221   0.110
    1UNL    C16   22  -0.050  -0.226   0.150
    1UNL    C17   23  -0.082  -0.166   0.010
    1UNL     O7   24  -0.193  -0.082   0.015
    1UNL    C18   25  -0.206   0.022  -0.082
    1UNL     O8   26  -0.165   0.148  -0.027
    1UNL    C19   27  -0.241   0.179   0.091
    1UNL    C20   28  -0.193   0.303   0.161
    1UNL     O9   29  -0.235   0.310   0.293
    1UNL    C21   30  -0.395   0.183   0.055
    1UNL    O10   31  -0.467   0.092   0.138
    1UNL    C22   32  -0.425   0.154  -0.102
    1UNL    O11   33  -0.559   0.149  -0.148
    1UNL    C23   34  -0.352   0.019  -0.141
    1UNL    O12   35  -0.344  -0.001  -0.280
    1UNL     H1   36  -0.201  -0.418  -0.189
    1UNL     H2   37  -0.299  -0.280  -0.129
    1UNL     H3   38  -0.218  -0.255  -0.270
    1UNL     H4   39  -0.040  -0.456   0.008
    1UNL     H5   40   0.055  -0.462  -0.128
    1UNL     H6   41   0.318  -0.408   0.072
    1UNL     H7   42   0.195  -0.085  -0.182
    1UNL     H8   43   0.050   0.117  -0.007
    1UNL     H9   44   0.017   0.041   0.157
    1UNL    H10   45   0.463   0.132  -0.192
    1UNL    H11   46   0.698   0.215  -0.150
    1UNL    H12   47   0.734   0.371   0.053
    1UNL    H13   48   0.570   0.353   0.237
    1UNL    H14   49   0.395   0.268   0.318
    1UNL    H15   50   0.174  -0.186   0.188
    1UNL    H16   51  -0.094  -0.328   0.170
    1UNL    H17   52  -0.081  -0.151   0.227
    1UNL    H18   53  -0.138   0.011  -0.158
    1UNL    H19   54  -0.231   0.086   0.162
    1UNL    H20   55  -0.225   0.394   0.116
    1UNL    H21   56  -0.085   0.306   0.170
    1UNL    H22   57  -0.333   0.287   0.310
    1UNL    H23   58  -0.446   0.272   0.079
    1UNL    H24   59  -0.420   0.004   0.125
    1UNL    H25   60  -0.375   0.225  -0.166
    1UNL    H26   61  -0.622   0.189  -0.082
    1UNL    H27   62  -0.407  -0.061  -0.100
    1UNL    H28   63  -0.428   0.033  -0.327
   0.00000   0.00000   0.00000   0.00000   0.00000   0.00000   0.00000   0.00000   0.00000
Generated with MDTraj, t= 82.0
 63
    1UNL     C1    1  -0.197  -0.308  -0.175
    1UNL     C2    2  -0.066  -0.267  -0.113
    1UNL     C3    3   0.016  -0.394  -0.075
    1UNL     C4    4   0.146  -0.343   0.001
    1UNL     O1    5   0.222  -0.455   0.043
    1UNL     O2    6   0.212  -0.248  -0.097
    1UNL     C5    7   0.119  -0.140  -0.114
    1UNL     O3    8   0.003  -0.176  -0.199
    1UNL     C6    9   0.061  -0.109   0.025
    1UNL     C7   10   0.077   0.026   0.092
    1UNL     O4   11   0.208   0.081   0.105
    1UNL     C8   12   0.269   0.123  -0.011
    1UNL     O5   13   0.205   0.119  -0.117
    1UNL     C9   14   0.400   0.190   0.007
    1UNL    C10   15   0.486   0.187  -0.102
    1UNL    C11   16   0.611   0.239  -0.086
    1UNL    C12   17   0.664   0.266   0.045
    1UNL    C13   18   0.577   0.274   0.151
    1UNL    C14   19   0.443   0.238   0.138
    1UNL     O6   20   0.359   0.248   0.249
    1UNL    C15   21   0.098  -0.239   0.110
    1UNL    C16   22  -0.054  -0.250   0.155
    1UNL    C17   23  -0.085  -0.179   0.020
    1UNL     O7   24  -0.200  -0.100   0.024
    1UNL    C18   25  -0.191   0.001  -0.086
    1UNL     O8   26  -0.148   0.129  -0.041
    1UNL    C19   27  -0.227   0.169   0.074
    1UNL    C20   28  -0.176   0.295   0.145
    1UNL     O9   29  -0.245   0.330   0.261
    1UNL    C21   30  -0.378   0.193   0.037
    1UNL    O10   31  -0.466   0.153   0.137
    1UNL    C22   32  -0.414   0.145  -0.106
    1UNL    O11   33  -0.547   0.121  -0.118
    1UNL    C23   34  -0.345   0.001  -0.136
    1UNL    O12   35  -0.363  -0.034  -0.270
    1UNL     H1   36  -0.191  -0.290  -0.284
    1UNL     H2   37  -0.225  -0.409  -0.164
    1UNL     H3   38  -0.279  -0.257  -0.122
    1UNL     H4   39  -0.052  -0.457  -0.021
    1UNL     H5   40   0.038  -0.445  -0.163
    1UNL     H6   41   0.315  -0.427   0.050
    1UNL     H7   42   0.153  -0.041  -0.173
    1UNL     H8   43   0.022   0.089   0.025
    1UNL     H9   44   0.042   0.038   0.196
    1UNL    H10   45   0.449   0.165  -0.202
    1UNL    H11   46   0.674   0.245  -0.173
    1UNL    H12   47   0.769   0.255   0.064
    1UNL    H13   48   0.622   0.304   0.243
    1UNL    H14   49   0.394   0.319   0.308
    1UNL    H15   50   0.179  -0.233   0.188
    1UNL    H16   51  -0.108  -0.353   0.165
    1UNL    H17   52  -0.073  -0.190   0.242
    1UNL    H18   53  -0.126  -0.027  -0.160
    1UNL    H19   54  -0.213   0.079   0.150
    1UNL    H20   55  -0.193   0.381   0.082
    1UNL    H21   56  -0.070   0.285   0.169
    1UNL    H22   57  -0.320   0.268   0.278
    1UNL    H23   58  -0.394   0.299   0.035
    1UNL    H24   59  -0.525   0.085   0.098
    1UNL    H25   60  -0.377   0.219  -0.173
    1UNL    H26   61  -0.599   0.203  -0.083
    1UNL    H27   62  -0.397  -0.068  -0.075
    1UNL    H28   63  -0.452   0.000  -0.306
   0.00000   0.00000   0.00000   0.00000   0.00000   0.00000   0.00000   0.00000   0.00000
Generated with MDTraj, t= 83.0
 63
    1UNL     C1    1  -0.198  -0.323  -0.170
    1UNL     C2    2  -0.068  -0.280  -0.112
    1UNL     C3    3   0.031  -0.400  -0.095
    1UNL     C4    4   0.161  -0.333  -0.024
    1UNL     O1    5   0.245  -0.438   0.021
    1UNL     O2    6   0.215  -0.243  -0.121
    1UNL     C5    7   0.119  -0.140  -0.125
    1UNL     O3    8   0.003  -0.185  -0.196
    1UNL     C6    9   0.068  -0.118   0.028
    1UNL     C7   10   0.074   0.018   0.095
    1UNL     O4   11   0.207   0.050   0.120
    1UNL     C8   12   0.255   0.134   0.018
    1UNL     O5   13   0.185   0.170  -0.078
    1UNL     C9   14   0.392   0.185   0.030
    1UNL    C10   15   0.475   0.172  -0.086
    1UNL    C11   16   0.608   0.212  -0.085
    1UNL    C12   17   0.657   0.267   0.035
    1UNL    C13   18   0.585   0.270   0.149
    1UNL    C14   19   0.451   0.230   0.149
    1UNL     O6   20   0.387   0.264   0.268
    1UNL    C15   21   0.118  -0.242   0.103
    1UNL    C16   22  -0.029  -0.272   0.147
    1UNL    C17   23  -0.073  -0.195   0.021
    1UNL     O7   24  -0.192  -0.117   0.030
    1UNL    C18   25  -0.216  -0.011  -0.071
    1UNL     O8   26  -0.167   0.109  -0.037
    1UNL    C19   27  -0.241   0.174   0.063
    1UNL    C20   28  -0.160   0.287   0.133
    1UNL     O9   29  -0.245   0.353   0.230
    1UNL    C21   30  -0.374   0.227   0.010
    1UNL    O10   31  -0.477   0.236   0.112
    1UNL    C22   32  -0.423   0.136  -0.109
    1UNL    O11   33  -0.560   0.126  -0.105
    1UNL    C23   34  -0.366  -0.012  -0.116
    1UNL    O12   35  -0.379  -0.058  -0.249
    1UNL     H1   36  -0.253  -0.233  -0.195
    1UNL     H2   37  -0.175  -0.365  -0.268
    1UNL     H3   38  -0.252  -0.398  -0.111
    1UNL     H4   39  -0.007  -0.477  -0.031
    1UNL     H5   40   0.058  -0.436  -0.189
    1UNL     H6   41   0.330  -0.402   0.054
    1UNL     H7   42   0.184  -0.047  -0.164
    1UNL     H8   43   0.035   0.096   0.036
    1UNL     H9   44   0.012   0.011   0.183
    1UNL    H10   45   0.433   0.131  -0.176
    1UNL    H11   46   0.664   0.228  -0.177
    1UNL    H12   47   0.758   0.305   0.026
    1UNL    H13   48   0.625   0.308   0.243
    1UNL    H14   49   0.439   0.329   0.322
    1UNL    H15   50   0.194  -0.226   0.184
    1UNL    H16   51  -0.049  -0.385   0.164
    1UNL    H17   52  -0.064  -0.216   0.232
    1UNL    H18   53  -0.164  -0.032  -0.158
    1UNL    H19   54  -0.257   0.090   0.142
    1UNL    H20   55  -0.124   0.350   0.049
    1UNL    H21   56  -0.078   0.237   0.188
    1UNL    H22   57  -0.337   0.345   0.193
    1UNL    H23   58  -0.362   0.327  -0.027
    1UNL    H24   59  -0.533   0.154   0.109
    1UNL    H25   60  -0.398   0.190  -0.196
    1UNL    H26   61  -0.605   0.216  -0.104
    1UNL    H27   62  -0.424  -0.071  -0.048
    1UNL    H28   63  -0.465  -0.031  -0.288
   0.00000   0.00000   0.00000   0.00000   0.00000   0.00000   0.00000   0.00000   0.00000
Generated with MDTraj, t= 84.0
 63
    1UNL     C1    1  -0.195  -0.332  -0.190
    1UNL     C2    2  -0.062  -0.278  -0.128
    1UNL     C3    3   0.047  -0.399  -0.104
    1UNL     C4    4   0.176  -0.325  -0.032
    1UNL     O1    5   0.291  -0.404   0.009
    1UNL     O2    6   0.219  -0.224  -0.128
    1UNL     C5    7   0.108  -0.128  -0.129
    1UNL     O3    8   0.009  -0.181  -0.213
    1UNL     C6    9   0.053  -0.121   0.020
    1UNL     C7   10   0.066   0.013   0.092
    1UNL     O4   11   0.206   0.036   0.119
    1UNL     C8   12   0.243   0.142   0.038
    1UNL     O5   13   0.167   0.203  -0.041
    1UNL     C9   14   0.395   0.162   0.039
    1UNL    C10   15   0.472   0.149  -0.076
    1UNL    C11   16   0.601   0.191  -0.079
    1UNL    C12   17   0.652   0.263   0.030
    1UNL    C13   18   0.579   0.275   0.144
    1UNL    C14   19   0.452   0.217   0.158
    1UNL     O6   20   0.386   0.235   0.276
    1UNL    C15   21   0.123  -0.241   0.086
    1UNL    C16   22  -0.017  -0.283   0.142
    1UNL    C17   23  -0.076  -0.205   0.018
    1UNL     O7   24  -0.199  -0.133   0.045
    1UNL    C18   25  -0.223  -0.022  -0.056
    1UNL     O8   26  -0.161   0.105  -0.028
    1UNL    C19   27  -0.242   0.184   0.057
    1UNL    C20   28  -0.161   0.296   0.131
    1UNL     O9   29  -0.240   0.374   0.221
    1UNL    C21   30  -0.365   0.240  -0.020
    1UNL    O10   31  -0.476   0.286   0.068
    1UNL    C22   32  -0.413   0.131  -0.125
    1UNL    O11   33  -0.553   0.142  -0.139
    1UNL    C23   34  -0.378  -0.013  -0.069
    1UNL    O12   35  -0.420  -0.115  -0.159
    1UNL     H1   36  -0.270  -0.271  -0.145
    1UNL     H2   37  -0.204  -0.336  -0.302
    1UNL     H3   38  -0.207  -0.428  -0.142
    1UNL     H4   39   0.005  -0.475  -0.044
    1UNL     H5   40   0.089  -0.431  -0.195
    1UNL     H6   41   0.348  -0.432  -0.066
    1UNL     H7   42   0.132  -0.021  -0.178
    1UNL     H8   43   0.025   0.088   0.031
    1UNL     H9   44   0.004   0.015   0.179
    1UNL    H10   45   0.425   0.099  -0.159
    1UNL    H11   46   0.652   0.195  -0.174
    1UNL    H12   47   0.744   0.323   0.024
    1UNL    H13   48   0.613   0.327   0.231
    1UNL    H14   49   0.445   0.286   0.336
    1UNL    H15   50   0.202  -0.205   0.156
    1UNL    H16   51  -0.040  -0.391   0.147
    1UNL    H17   52  -0.036  -0.227   0.238
    1UNL    H18   53  -0.187  -0.056  -0.147
    1UNL    H19   54  -0.280   0.112   0.140
    1UNL    H20   55  -0.117   0.367   0.056
    1UNL    H21   56  -0.080   0.247   0.190
    1UNL    H22   57  -0.333   0.370   0.190
    1UNL    H23   58  -0.335   0.329  -0.072
    1UNL    H24   59  -0.498   0.216   0.138
    1UNL    H25   60  -0.368   0.140  -0.221
    1UNL    H26   61  -0.594   0.216  -0.094
    1UNL    H27   62  -0.426  -0.033   0.028
    1UNL    H28   63  -0.509  -0.099  -0.189
   0.00000   0.00000   0.00000   0.00000   0.00000   0.00000   0.00000   0.00000   0.00000
Generated with MDTraj, t= 85.0
 63
    1UNL     C1    1  -0.194  -0.329  -0.167
    1UNL     C2    2  -0.059  -0.267  -0.119
    1UNL     C3    3   0.060  -0.371  -0.128
    1UNL     C4    4   0.182  -0.310  -0.055
    1UNL     O1    5   0.285  -0.403  -0.048
    1UNL     O2    6   0.215  -0.195  -0.141
    1UNL     C5    7   0.107  -0.103  -0.121
    1UNL     O3    8  -0.011  -0.155  -0.198
    1UNL     C6    9   0.063  -0.115   0.030
    1UNL     C7   10   0.064   0.003   0.123
    1UNL     O4   11   0.193   0.065   0.147
    1UNL     C8   12   0.237   0.149   0.047
    1UNL     O5   13   0.164   0.182  -0.048
    1UNL     C9   14   0.388   0.186   0.042
    1UNL    C10   15   0.459   0.177  -0.075
    1UNL    C11   16   0.596   0.205  -0.077
    1UNL    C12   17   0.669   0.218   0.042
    1UNL    C13   18   0.597   0.233   0.159
    1UNL    C14   19   0.454   0.227   0.160
    1UNL     O6   20   0.383   0.253   0.278
    1UNL    C15   21   0.131  -0.247   0.083
    1UNL    C16   22  -0.011  -0.297   0.129
    1UNL    C17   23  -0.068  -0.204   0.023
    1UNL     O7   24  -0.203  -0.163   0.055
    1UNL    C18   25  -0.236  -0.054  -0.035
    1UNL     O8   26  -0.163   0.067  -0.006
    1UNL    C19   27  -0.234   0.181   0.053
    1UNL    C20   28  -0.151   0.301   0.114
    1UNL     O9   29  -0.233   0.392   0.179
    1UNL    C21   30  -0.351   0.229  -0.043
    1UNL    O10   31  -0.452   0.287   0.033
    1UNL    C22   32  -0.407   0.113  -0.124
    1UNL    O11   33  -0.542   0.131  -0.161
    1UNL    C23   34  -0.388  -0.019  -0.039
    1UNL    O12   35  -0.466  -0.120  -0.104
    1UNL     H1   36  -0.245  -0.247  -0.207
    1UNL     H2   37  -0.177  -0.397  -0.256
    1UNL     H3   38  -0.259  -0.377  -0.096
    1UNL     H4   39   0.044  -0.455  -0.066
    1UNL     H5   40   0.073  -0.386  -0.233
    1UNL     H6   41   0.326  -0.413  -0.137
    1UNL     H7   42   0.127   0.008  -0.162
    1UNL     H8   43  -0.004   0.076   0.093
    1UNL     H9   44   0.032  -0.032   0.221
    1UNL    H10   45   0.407   0.157  -0.167
    1UNL    H11   46   0.654   0.188  -0.166
    1UNL    H12   47   0.775   0.213   0.042
    1UNL    H13   48   0.655   0.227   0.250
    1UNL    H14   49   0.418   0.191   0.345
    1UNL    H15   50   0.205  -0.228   0.163
    1UNL    H16   51  -0.024  -0.403   0.130
    1UNL    H17   52  -0.036  -0.253   0.233
    1UNL    H18   53  -0.207  -0.083  -0.129
    1UNL    H19   54  -0.292   0.137   0.142
    1UNL    H20   55  -0.104   0.366   0.035
    1UNL    H21   56  -0.067   0.281   0.186
    1UNL    H22   57  -0.325   0.380   0.147
    1UNL    H23   58  -0.305   0.306  -0.104
    1UNL    H24   59  -0.527   0.296  -0.027
    1UNL    H25   60  -0.345   0.103  -0.214
    1UNL    H26   61  -0.550   0.207  -0.228
    1UNL    H27   62  -0.430  -0.000   0.063
    1UNL    H28   63  -0.557  -0.082  -0.114
   0.00000   0.00000   0.00000   0.00000   0.00000   0.00000   0.00000   0.00000   0.00000
Generated with MDTraj, t= 86.0
 63
    1UNL     C1    1  -0.190  -0.328  -0.162
    1UNL     C2    2  -0.062  -0.266  -0.119
    1UNL     C3    3   0.058  -0.365  -0.135
    1UNL     C4    4   0.179  -0.291  -0.074
    1UNL     O1    5   0.295  -0.382  -0.069
    1UNL     O2    6   0.204  -0.163  -0.148
    1UNL     C5    7   0.083  -0.086  -0.127
    1UNL     O3    8  -0.026  -0.142  -0.194
    1UNL     C6    9   0.050  -0.111   0.029
    1UNL     C7   10   0.058   0.005   0.125
    1UNL     O4   11   0.192   0.044   0.143
    1UNL     C8   12   0.235   0.132   0.054
    1UNL     O5   13   0.162   0.168  -0.040
    1UNL     C9   14   0.374   0.169   0.052
    1UNL    C10   15   0.447   0.166  -0.069
    1UNL    C11   16   0.586   0.186  -0.067
    1UNL    C12   17   0.649   0.229   0.048
    1UNL    C13   18   0.582   0.215   0.168
    1UNL    C14   19   0.445   0.200   0.165
    1UNL     O6   20   0.367   0.208   0.279
    1UNL    C15   21   0.140  -0.232   0.065
    1UNL    C16   22   0.016  -0.289   0.133
    1UNL    C17   23  -0.077  -0.209   0.032
    1UNL     O7   24  -0.195  -0.145   0.073
    1UNL    C18   25  -0.226  -0.037  -0.007
    1UNL     O8   26  -0.158   0.090   0.006
    1UNL    C19   27  -0.234   0.200   0.057
    1UNL    C20   28  -0.145   0.312   0.093
    1UNL     O9   29  -0.215   0.430   0.125
    1UNL    C21   30  -0.342   0.224  -0.051
    1UNL    O10   31  -0.447   0.299   0.002
    1UNL    C22   32  -0.403   0.091  -0.113
    1UNL    O11   33  -0.543   0.097  -0.142
    1UNL    C23   34  -0.379  -0.028  -0.025
    1UNL    O12   35  -0.427  -0.147  -0.100
    1UNL     H1   36  -0.264  -0.313  -0.086
    1UNL     H2   37  -0.229  -0.303  -0.264
    1UNL     H3   38  -0.178  -0.434  -0.168
    1UNL     H4   39   0.041  -0.453  -0.078
    1UNL     H5   40   0.080  -0.374  -0.240
    1UNL     H6   41   0.351  -0.364  -0.148
    1UNL     H7   42   0.110   0.029  -0.145
    1UNL     H8   43   0.004   0.089   0.097
    1UNL     H9   44   0.019  -0.038   0.220
    1UNL    H10   45   0.395   0.149  -0.163
    1UNL    H11   46   0.635   0.162  -0.159
    1UNL    H12   47   0.759   0.236   0.049
    1UNL    H13   48   0.624   0.231   0.265
    1UNL    H14   49   0.409   0.163   0.357
    1UNL    H15   50   0.224  -0.195   0.126
    1UNL    H16   51   0.009  -0.395   0.144
    1UNL    H17   52   0.007  -0.245   0.238
    1UNL    H18   53  -0.192  -0.067  -0.099
    1UNL    H19   54  -0.298   0.160   0.143
    1UNL    H20   55  -0.066   0.334   0.018
    1UNL    H21   56  -0.087   0.281   0.183
    1UNL    H22   57  -0.298   0.435   0.069
    1UNL    H23   58  -0.289   0.282  -0.128
    1UNL    H24   59  -0.487   0.248   0.075
    1UNL    H25   60  -0.356   0.063  -0.212
    1UNL    H26   61  -0.582   0.174  -0.093
    1UNL    H27   62  -0.435  -0.023   0.073
    1UNL    H28   63  -0.519  -0.126  -0.132
   0.00000   0.00000   0.00000   0.00000   0.00000   0.00000   0.00000   0.00000   0.00000
Generated with MDTraj, t= 87.0
 63
    1UNL     C1    1  -0.187  -0.343  -0.159
    1UNL     C2    2  -0.062  -0.266  -0.114
    1UNL     C3    3   0.069  -0.357  -0.138
    1UNL     C4    4   0.194  -0.284  -0.083
    1UNL     O1    5   0.307  -0.371  -0.096
    1UNL     O2    6   0.206  -0.163  -0.158
    1UNL     C5    7   0.086  -0.092  -0.128
    1UNL     O3    8  -0.028  -0.150  -0.194
    1UNL     C6    9   0.063  -0.114   0.026
    1UNL     C7   10   0.060   0.002   0.119
    1UNL     O4   11   0.194   0.036   0.148
    1UNL     C8   12   0.242   0.124   0.060
    1UNL     O5   13   0.172   0.163  -0.033
    1UNL     C9   14   0.379   0.157   0.065
    1UNL    C10   15   0.453   0.153  -0.050
    1UNL    C11   16   0.584   0.195  -0.067
    1UNL    C12   17   0.654   0.230   0.047
    1UNL    C13   18   0.585   0.228   0.171
    1UNL    C14   19   0.453   0.184   0.188
    1UNL     O6   20   0.386   0.158   0.307
    1UNL    C15   21   0.156  -0.237   0.068
    1UNL    C16   22   0.026  -0.297   0.132
    1UNL    C17   23  -0.061  -0.214   0.036
    1UNL     O7   24  -0.179  -0.145   0.080
    1UNL    C18   25  -0.228  -0.040  -0.006
    1UNL     O8   26  -0.160   0.087   0.006
    1UNL    C19   27  -0.239   0.207   0.043
    1UNL    C20   28  -0.158   0.339   0.050
    1UNL     O9   29  -0.236   0.459   0.075
    1UNL    C21   30  -0.365   0.230  -0.055
    1UNL    O10   31  -0.468   0.304   0.005
    1UNL    C22   32  -0.426   0.097  -0.100
    1UNL    O11   33  -0.563   0.109  -0.110
    1UNL    C23   34  -0.388  -0.020  -0.018
    1UNL    O12   35  -0.440  -0.137  -0.085
    1UNL     H1   36  -0.269  -0.271  -0.171
    1UNL     H2   37  -0.171  -0.412  -0.243
    1UNL     H3   38  -0.225  -0.409  -0.082
    1UNL     H4   39   0.057  -0.452  -0.091
    1UNL     H5   40   0.085  -0.365  -0.243
    1UNL     H6   41   0.368  -0.318  -0.151
    1UNL     H7   42   0.096   0.023  -0.158
    1UNL     H8   43   0.001   0.079   0.071
    1UNL     H9   44   0.021  -0.017   0.224
    1UNL    H10   45   0.394   0.141  -0.139
    1UNL    H11   46   0.632   0.202  -0.163
    1UNL    H12   47   0.755   0.262   0.047
    1UNL    H13   48   0.645   0.249   0.260
    1UNL    H14   49   0.318   0.226   0.329
    1UNL    H15   50   0.239  -0.221   0.138
    1UNL    H16   51   0.004  -0.403   0.105
    1UNL    H17   52   0.010  -0.282   0.238
    1UNL    H18   53  -0.191  -0.065  -0.099
    1UNL    H19   54  -0.285   0.194   0.146
    1UNL    H20   55  -0.113   0.349  -0.049
    1UNL    H21   56  -0.070   0.326   0.114
    1UNL    H22   57  -0.327   0.434   0.061
    1UNL    H23   58  -0.326   0.288  -0.141
    1UNL    H24   59  -0.541   0.239   0.035
    1UNL    H25   60  -0.398   0.073  -0.209
    1UNL    H26   61  -0.586   0.159  -0.188
    1UNL    H27   62  -0.441  -0.015   0.083
    1UNL    H28   63  -0.518  -0.109  -0.131
   0.00000   0.00000   0.00000   0.00000   0.00000   0.00000   0.00000   0.00000   0.00000
Generated with MDTraj, t= 88.0
 63
    1UNL     C1    1  -0.206  -0.308  -0.176
    1UNL     C2    2  -0.067  -0.249  -0.136
    1UNL     C3    3   0.052  -0.352  -0.144
    1UNL     C4    4   0.178  -0.292  -0.076
    1UNL     O1    5   0.288  -0.382  -0.055
    1UNL     O2    6   0.206  -0.173  -0.154
    1UNL     C5    7   0.096  -0.082  -0.128
    1UNL     O3    8  -0.019  -0.136  -0.210
    1UNL     C6    9   0.057  -0.100   0.021
    1UNL     C7   10   0.068   0.027   0.112
    1UNL     O4   11   0.205   0.049   0.153
    1UNL     C8   12   0.263   0.131   0.064
    1UNL     O5   13   0.206   0.160  -0.043
    1UNL     C9   14   0.399   0.176   0.065
    1UNL    C10   15   0.464   0.208  -0.055
    1UNL    C11   16   0.602   0.222  -0.053
    1UNL    C12   17   0.674   0.221   0.069
    1UNL    C13   18   0.613   0.194   0.190
    1UNL    C14   19   0.471   0.171   0.183
    1UNL     O6   20   0.410   0.147   0.310
    1UNL    C15   21   0.137  -0.225   0.067
    1UNL    C16   22   0.004  -0.283   0.127
    1UNL    C17   23  -0.068  -0.199   0.019
    1UNL     O7   24  -0.189  -0.142   0.065
    1UNL    C18   25  -0.231  -0.043  -0.022
    1UNL     O8   26  -0.164   0.085  -0.026
    1UNL    C19   27  -0.244   0.192   0.025
    1UNL    C20   28  -0.155   0.322   0.027
    1UNL     O9   29  -0.232   0.434   0.064
    1UNL    C21   30  -0.378   0.217  -0.058
    1UNL    O10   31  -0.480   0.285   0.022
    1UNL    C22   32  -0.441   0.076  -0.104
    1UNL    O11   33  -0.585   0.087  -0.102
    1UNL    C23   34  -0.387  -0.032  -0.006
    1UNL    O12   35  -0.456  -0.154  -0.026
    1UNL     H1   36  -0.286  -0.248  -0.125
    1UNL     H2   37  -0.211  -0.318  -0.282
    1UNL     H3   38  -0.221  -0.411  -0.143
    1UNL     H4   39   0.024  -0.445  -0.094
    1UNL     H5   40   0.071  -0.370  -0.246
    1UNL     H6   41   0.360  -0.316  -0.050
    1UNL     H7   42   0.112   0.030  -0.162
    1UNL     H8   43   0.028   0.121   0.069
    1UNL     H9   44   0.004   0.011   0.204
    1UNL    H10   45   0.409   0.208  -0.148
    1UNL    H11   46   0.657   0.261  -0.136
    1UNL    H12   47   0.782   0.242   0.072
    1UNL    H13   48   0.666   0.181   0.283
    1UNL    H14   49   0.321   0.185   0.303
    1UNL    H15   50   0.216  -0.209   0.141
    1UNL    H16   51  -0.003  -0.395   0.109
    1UNL    H17   52  -0.022  -0.267   0.228
    1UNL    H18   53  -0.202  -0.072  -0.119
    1UNL    H19   54  -0.270   0.184   0.134
    1UNL    H20   55  -0.107   0.330  -0.069
    1UNL    H21   56  -0.072   0.315   0.096
    1UNL    H22   57  -0.329   0.412   0.042
    1UNL    H23   58  -0.348   0.281  -0.142
    1UNL    H24   59  -0.550   0.222   0.034
    1UNL    H25   60  -0.420   0.052  -0.214
    1UNL    H26   61  -0.624   0.142  -0.179
    1UNL    H27   62  -0.412  -0.013   0.106
    1UNL    H28   63  -0.547  -0.126  -0.064
   0.00000   0.00000   0.00000   0.00000   0.00000   0.00000   0.00000   0.00000   0.00000
Generated with MDTraj, t= 89.0
 63
    1UNL     C1    1  -0.195  -0.309  -0.171
    1UNL     C2    2  -0.059  -0.259  -0.119
    1UNL     C3    3   0.053  -0.365  -0.123
    1UNL     C4    4   0.176  -0.299  -0.062
    1UNL     O1    5   0.295  -0.385  -0.048
    1UNL     O2    6   0.215  -0.181  -0.146
    1UNL     C5    7   0.104  -0.090  -0.133
    1UNL     O3    8  -0.013  -0.148  -0.198
    1UNL     C6    9   0.071  -0.100   0.023
    1UNL     C7   10   0.067   0.039   0.097
    1UNL     O4   11   0.204   0.080   0.135
    1UNL     C8   12   0.269   0.149   0.037
    1UNL     O5   13   0.210   0.189  -0.064
    1UNL     C9   14   0.417   0.168   0.049
    1UNL    C10   15   0.499   0.220  -0.052
    1UNL    C11   16   0.628   0.257  -0.032
    1UNL    C12   17   0.681   0.236   0.101
    1UNL    C13   18   0.607   0.178   0.202
    1UNL    C14   19   0.474   0.140   0.179
    1UNL     O6   20   0.400   0.082   0.284
    1UNL    C15   21   0.144  -0.229   0.077
    1UNL    C16   22   0.013  -0.277   0.135
    1UNL    C17   23  -0.061  -0.192   0.024
    1UNL     O7   24  -0.185  -0.129   0.066
    1UNL    C18   25  -0.249  -0.043  -0.034
    1UNL     O8   26  -0.190   0.088  -0.048
    1UNL    C19   27  -0.262   0.198   0.008
    1UNL    C20   28  -0.176   0.325   0.000
    1UNL     O9   29  -0.230   0.424   0.073
    1UNL    C21   30  -0.401   0.221  -0.050
    1UNL    O10   31  -0.479   0.299   0.031
    1UNL    C22   32  -0.465   0.086  -0.090
    1UNL    O11   33  -0.602   0.088  -0.087
    1UNL    C23   34  -0.405  -0.035  -0.007
    1UNL    O12   35  -0.459  -0.159  -0.041
    1UNL     H1   36  -0.221  -0.399  -0.106
    1UNL     H2   37  -0.269  -0.241  -0.209
    1UNL     H3   38  -0.161  -0.349  -0.267
    1UNL     H4   39   0.023  -0.461  -0.080
    1UNL     H5   40   0.080  -0.382  -0.225
    1UNL     H6   41   0.371  -0.326  -0.059
    1UNL     H7   42   0.133   0.016  -0.171
    1UNL     H8   43   0.026   0.112   0.024
    1UNL     H9   44  -0.008   0.043   0.181
    1UNL    H10   45   0.446   0.253  -0.142
    1UNL    H11   46   0.682   0.305  -0.114
    1UNL    H12   47   0.785   0.251   0.100
    1UNL    H13   48   0.652   0.145   0.295
    1UNL    H14   49   0.323   0.026   0.260
    1UNL    H15   50   0.230  -0.195   0.136
    1UNL    H16   51  -0.004  -0.387   0.120
    1UNL    H17   52  -0.003  -0.246   0.235
    1UNL    H18   53  -0.233  -0.091  -0.133
    1UNL    H19   54  -0.277   0.170   0.114
    1UNL    H20   55  -0.166   0.357  -0.102
    1UNL    H21   56  -0.077   0.299   0.033
    1UNL    H22   57  -0.324   0.411   0.063
    1UNL    H23   58  -0.393   0.285  -0.141
    1UNL    H24   59  -0.492   0.248   0.115
    1UNL    H25   60  -0.450   0.076  -0.202
    1UNL    H26   61  -0.632   0.163  -0.031
    1UNL    H27   62  -0.427  -0.042   0.107
    1UNL    H28   63  -0.554  -0.150  -0.052
   0.00000   0.00000   0.00000   0.00000   0.00000   0.00000   0.00000   0.00000   0.00000
Generated with MDTraj, t= 90.0
 63
    1UNL     C1    1  -0.194  -0.346  -0.140
    1UNL     C2    2  -0.057  -0.286  -0.107
    1UNL     C3    3   0.071  -0.373  -0.090
    1UNL     C4    4   0.191  -0.287  -0.050
    1UNL     O1    5   0.307  -0.359  -0.013
    1UNL     O2    6   0.207  -0.192  -0.166
    1UNL     C5    7   0.088  -0.115  -0.163
    1UNL     O3    8  -0.025  -0.183  -0.207
    1UNL     C6    9   0.062  -0.088  -0.009
    1UNL     C7   10   0.068   0.051   0.062
    1UNL     O4   11   0.185   0.079   0.131
    1UNL     C8   12   0.263   0.133   0.034
    1UNL     O5   13   0.229   0.156  -0.085
    1UNL     C9   14   0.407   0.164   0.060
    1UNL    C10   15   0.473   0.256  -0.021
    1UNL    C11   16   0.604   0.294  -0.003
    1UNL    C12   17   0.671   0.230   0.104
    1UNL    C13   18   0.615   0.147   0.199
    1UNL    C14   19   0.476   0.113   0.175
    1UNL     O6   20   0.411   0.036   0.265
    1UNL    C15   21   0.146  -0.193   0.069
    1UNL    C16   22   0.020  -0.235   0.143
    1UNL    C17   23  -0.062  -0.186   0.019
    1UNL     O7   24  -0.184  -0.123   0.047
    1UNL    C18   25  -0.238  -0.032  -0.055
    1UNL     O8   26  -0.182   0.103  -0.066
    1UNL    C19   27  -0.249   0.204   0.013
    1UNL    C20   28  -0.183   0.337   0.010
    1UNL     O9   29  -0.255   0.443   0.076
    1UNL    C21   30  -0.395   0.227  -0.035
    1UNL    O10   31  -0.476   0.300   0.063
    1UNL    C22   32  -0.466   0.093  -0.090
    1UNL    O11   33  -0.593   0.086  -0.036
    1UNL    C23   34  -0.391  -0.035  -0.035
    1UNL    O12   35  -0.445  -0.147  -0.090
    1UNL     H1   36  -0.209  -0.444  -0.088
    1UNL     H2   37  -0.272  -0.273  -0.135
    1UNL     H3   38  -0.194  -0.367  -0.248
    1UNL     H4   39   0.053  -0.448  -0.014
    1UNL     H5   40   0.087  -0.430  -0.182
    1UNL     H6   41   0.381  -0.299   0.003
    1UNL     H7   42   0.104  -0.022  -0.228
    1UNL     H8   43   0.045   0.126  -0.016
    1UNL     H9   44  -0.010   0.059   0.141
    1UNL    H10   45   0.408   0.304  -0.091
    1UNL    H11   46   0.643   0.364  -0.077
    1UNL    H12   47   0.782   0.226   0.088
    1UNL    H13   48   0.676   0.101   0.275
    1UNL    H14   49   0.311   0.033   0.267
    1UNL    H15   50   0.228  -0.149   0.123
    1UNL    H16   51   0.010  -0.341   0.146
    1UNL    H17   52   0.007  -0.183   0.239
    1UNL    H18   53  -0.208  -0.083  -0.152
    1UNL    H19   54  -0.253   0.159   0.113
    1UNL    H20   55  -0.169   0.370  -0.092
    1UNL    H21   56  -0.083   0.336   0.052
    1UNL    H22   57  -0.342   0.412   0.119
    1UNL    H23   58  -0.384   0.305  -0.114
    1UNL    H24   59  -0.545   0.234   0.095
    1UNL    H25   60  -0.471   0.091  -0.201
    1UNL    H26   61  -0.642   0.163  -0.064
    1UNL    H27   62  -0.410  -0.041   0.079
    1UNL    H28   63  -0.534  -0.151  -0.055
   0.00000   0.00000   0.00000   0.00000   0.00000   0.00000   0.00000   0.00000   0.00000
Generated with MDTraj, t= 91.0
 63
    1UNL     C1    1  -0.188  -0.346  -0.099
    1UNL     C2    2  -0.058  -0.272  -0.084
    1UNL     C3    3   0.064  -0.369  -0.073
    1UNL     C4    4   0.187  -0.288  -0.045
    1UNL     O1    5   0.301  -0.371  -0.013
    1UNL     O2    6   0.202  -0.201  -0.157
    1UNL     C5    7   0.089  -0.114  -0.158
    1UNL     O3    8  -0.027  -0.185  -0.200
    1UNL     C6    9   0.058  -0.080  -0.005
    1UNL     C7   10   0.061   0.072   0.041
    1UNL     O4   11   0.184   0.104   0.098
    1UNL     C8   12   0.266   0.148   0.005
    1UNL     O5   13   0.258   0.138  -0.119
    1UNL     C9   14   0.400   0.178   0.055
    1UNL    C10   15   0.468   0.282  -0.001
    1UNL    C11   16   0.604   0.303   0.025
    1UNL    C12   17   0.669   0.236   0.127
    1UNL    C13   18   0.599   0.131   0.191
    1UNL    C14   19   0.462   0.103   0.152
    1UNL     O6   20   0.386   0.002   0.219
    1UNL    C15   21   0.154  -0.178   0.066
    1UNL    C16   22   0.027  -0.214   0.159
    1UNL    C17   23  -0.062  -0.169   0.041
    1UNL     O7   24  -0.186  -0.103   0.059
    1UNL    C18   25  -0.237  -0.032  -0.054
    1UNL     O8   26  -0.187   0.100  -0.066
    1UNL    C19   27  -0.250   0.196   0.022
    1UNL    C20   28  -0.163   0.321   0.026
    1UNL     O9   29  -0.225   0.434   0.094
    1UNL    C21   30  -0.400   0.223  -0.016
    1UNL    O10   31  -0.481   0.271   0.096
    1UNL    C22   32  -0.463   0.093  -0.090
    1UNL    O11   33  -0.597   0.075  -0.067
    1UNL    C23   34  -0.390  -0.039  -0.057
    1UNL    O12   35  -0.438  -0.146  -0.137
    1UNL     H1   36  -0.218  -0.399  -0.009
    1UNL     H2   37  -0.268  -0.285  -0.141
    1UNL     H3   38  -0.188  -0.427  -0.177
    1UNL     H4   39   0.045  -0.449  -0.003
    1UNL     H5   40   0.080  -0.423  -0.168
    1UNL     H6   41   0.332  -0.431  -0.084
    1UNL     H7   42   0.103  -0.026  -0.227
    1UNL     H8   43   0.063   0.137  -0.043
    1UNL     H9   44  -0.026   0.097   0.102
    1UNL    H10   45   0.431   0.351  -0.076
    1UNL    H11   46   0.660   0.382  -0.025
    1UNL    H12   47   0.766   0.257   0.156
    1UNL    H13   48   0.638   0.064   0.267
    1UNL    H14   49   0.293   0.028   0.210
    1UNL    H15   50   0.245  -0.144   0.112
    1UNL    H16   51   0.022  -0.314   0.179
    1UNL    H17   52   0.012  -0.152   0.251
    1UNL    H18   53  -0.205  -0.090  -0.146
    1UNL    H19   54  -0.248   0.142   0.117
    1UNL    H20   55  -0.147   0.358  -0.076
    1UNL    H21   56  -0.063   0.309   0.069
    1UNL    H22   57  -0.316   0.412   0.122
    1UNL    H23   58  -0.396   0.313  -0.082
    1UNL    H24   59  -0.493   0.198   0.154
    1UNL    H25   60  -0.453   0.094  -0.198
    1UNL    H26   61  -0.646   0.165  -0.053
    1UNL    H27   62  -0.422  -0.059   0.050
    1UNL    H28   63  -0.537  -0.137  -0.139
   0.00000   0.00000   0.00000   0.00000   0.00000   0.00000   0.00000   0.00000   0.00000
Generated with MDTraj, t= 92.0
 63
    1UNL     C1    1  -0.204  -0.350  -0.090
    1UNL     C2    2  -0.074  -0.275  -0.077
    1UNL     C3    3   0.045  -0.376  -0.059
    1UNL     C4    4   0.175  -0.293  -0.038
    1UNL     O1    5   0.283  -0.381  -0.004
    1UNL     O2    6   0.198  -0.216  -0.159
    1UNL     C5    7   0.086  -0.124  -0.156
    1UNL     O3    8  -0.037  -0.199  -0.192
    1UNL     C6    9   0.068  -0.086  -0.009
    1UNL     C7   10   0.064   0.068   0.012
    1UNL     O4   11   0.185   0.109   0.071
    1UNL     C8   12   0.280   0.167  -0.013
    1UNL     O5   13   0.262   0.179  -0.134
    1UNL     C9   14   0.411   0.185   0.033
    1UNL    C10   15   0.497   0.273  -0.029
    1UNL    C11   16   0.615   0.313   0.038
    1UNL    C12   17   0.667   0.241   0.141
    1UNL    C13   18   0.589   0.141   0.198
    1UNL    C14   19   0.461   0.111   0.151
    1UNL     O6   20   0.381   0.014   0.217
    1UNL    C15   21   0.146  -0.186   0.078
    1UNL    C16   22   0.018  -0.206   0.167
    1UNL    C17   23  -0.062  -0.168   0.039
    1UNL     O7   24  -0.182  -0.093   0.056
    1UNL    C18   25  -0.229  -0.028  -0.062
    1UNL     O8   26  -0.179   0.111  -0.072
    1UNL    C19   27  -0.244   0.196   0.026
    1UNL    C20   28  -0.172   0.332   0.044
    1UNL     O9   29  -0.234   0.390   0.151
    1UNL    C21   30  -0.391   0.217  -0.016
    1UNL    O10   31  -0.468   0.218   0.101
    1UNL    C22   32  -0.448   0.101  -0.105
    1UNL    O11   33  -0.589   0.097  -0.097
    1UNL    C23   34  -0.385  -0.031  -0.061
    1UNL    O12   35  -0.439  -0.148  -0.134
    1UNL     H1   36  -0.195  -0.440  -0.034
    1UNL     H2   37  -0.291  -0.287  -0.058
    1UNL     H3   38  -0.238  -0.376  -0.192
    1UNL     H4   39   0.022  -0.452   0.015
    1UNL     H5   40   0.061  -0.441  -0.148
    1UNL     H6   41   0.357  -0.321   0.021
    1UNL     H7   42   0.112  -0.030  -0.214
    1UNL     H8   43   0.043   0.117  -0.079
    1UNL     H9   44  -0.008   0.098   0.087
    1UNL    H10   45   0.463   0.335  -0.110
    1UNL    H11   46   0.673   0.401   0.011
    1UNL    H12   47   0.765   0.261   0.191
    1UNL    H13   48   0.628   0.081   0.278
    1UNL    H14   49   0.287   0.022   0.191
    1UNL    H15   50   0.235  -0.165   0.137
    1UNL    H16   51   0.006  -0.302   0.206
    1UNL    H17   52   0.003  -0.130   0.245
    1UNL    H18   53  -0.198  -0.095  -0.149
    1UNL    H19   54  -0.238   0.140   0.117
    1UNL    H20   55  -0.178   0.402  -0.043
    1UNL    H21   56  -0.067   0.313   0.074
    1UNL    H22   57  -0.334   0.385   0.144
    1UNL    H23   58  -0.408   0.320  -0.058
    1UNL    H24   59  -0.504   0.130   0.117
    1UNL    H25   60  -0.426   0.122  -0.207
    1UNL    H26   61  -0.624   0.185  -0.062
    1UNL    H27   62  -0.410  -0.038   0.048
    1UNL    H28   63  -0.535  -0.141  -0.167
   0.00000   0.00000   0.00000   0.00000   0.00000   0.00000   0.00000   0.00000   0.00000
Generated with MDTraj, t= 93.0
 63
    1UNL     C1    1  -0.215  -0.347  -0.098
    1UNL     C2    2  -0.074  -0.292  -0.087
    1UNL     C3    3   0.038  -0.393  -0.048
    1UNL     C4    4   0.175  -0.312  -0.028
    1UNL     O1    5   0.287  -0.394   0.022
    1UNL     O2    6   0.196  -0.253  -0.160
    1UNL     C5    7   0.090  -0.157  -0.179
    1UNL     O3    8  -0.032  -0.228  -0.209
    1UNL     C6    9   0.066  -0.094  -0.035
    1UNL     C7   10   0.071   0.055  -0.006
    1UNL     O4   11   0.191   0.083   0.070
    1UNL     C8   12   0.282   0.165   0.005
    1UNL     O5   13   0.250   0.198  -0.109
    1UNL     C9   14   0.422   0.187   0.048
    1UNL    C10   15   0.507   0.265  -0.042
    1UNL    C11   16   0.629   0.302   0.002
    1UNL    C12   17   0.676   0.262   0.126
    1UNL    C13   18   0.612   0.161   0.197
    1UNL    C14   19   0.478   0.139   0.167
    1UNL     O6   20   0.398   0.076   0.253
    1UNL    C15   21   0.147  -0.188   0.065
    1UNL    C16   22   0.017  -0.197   0.149
    1UNL    C17   23  -0.065  -0.171   0.018
    1UNL     O7   24  -0.185  -0.092   0.046
    1UNL    C18   25  -0.230  -0.016  -0.059
    1UNL     O8   26  -0.181   0.117  -0.064
    1UNL    C19   27  -0.257   0.191   0.040
    1UNL    C20   28  -0.187   0.323   0.084
    1UNL     O9   29  -0.245   0.385   0.198
    1UNL    C21   30  -0.401   0.218  -0.009
    1UNL    O10   31  -0.488   0.234   0.100
    1UNL    C22   32  -0.451   0.110  -0.108
    1UNL    O11   33  -0.593   0.109  -0.116
    1UNL    C23   34  -0.387  -0.024  -0.063
    1UNL    O12   35  -0.436  -0.125  -0.161
    1UNL     H1   36  -0.263  -0.346  -0.002
    1UNL     H2   37  -0.263  -0.297  -0.189
    1UNL     H3   38  -0.211  -0.453  -0.128
    1UNL     H4   39   0.010  -0.437   0.049
    1UNL     H5   40   0.036  -0.484  -0.111
    1UNL     H6   41   0.359  -0.353  -0.031
    1UNL     H7   42   0.116  -0.082  -0.255
    1UNL     H8   43   0.063   0.112  -0.095
    1UNL     H9   44  -0.015   0.077   0.057
    1UNL    H10   45   0.461   0.300  -0.133
    1UNL    H11   46   0.683   0.365  -0.067
    1UNL    H12   47   0.778   0.278   0.145
    1UNL    H13   48   0.663   0.118   0.283
    1UNL    H14   49   0.310   0.076   0.210
    1UNL    H15   50   0.239  -0.136   0.093
    1UNL    H16   51  -0.015  -0.285   0.206
    1UNL    H17   52   0.015  -0.112   0.211
    1UNL    H18   53  -0.190  -0.065  -0.154
    1UNL    H19   54  -0.255   0.126   0.123
    1UNL    H20   55  -0.193   0.386  -0.008
    1UNL    H21   56  -0.083   0.297   0.113
    1UNL    H22   57  -0.340   0.405   0.183
    1UNL    H23   58  -0.399   0.318  -0.060
    1UNL    H24   59  -0.493   0.147   0.149
    1UNL    H25   60  -0.416   0.136  -0.206
    1UNL    H26   61  -0.633   0.121  -0.030
    1UNL    H27   62  -0.423  -0.045   0.039
    1UNL    H28   63  -0.513  -0.096  -0.207
   0.00000   0.00000   0.00000   0.00000   0.00000   0.00000   0.00000   0.00000   0.00000
Generated with MDTraj, t= 94.0
 63
    1UNL     C1    1  -0.223  -0.352  -0.095
    1UNL     C2    2  -0.079  -0.294  -0.086
    1UNL     C3    3   0.028  -0.406  -0.057
    1UNL     C4    4   0.161  -0.330  -0.029
    1UNL     O1    5   0.268  -0.415   0.013
    1UNL     O2    6   0.193  -0.267  -0.153
    1UNL     C5    7   0.090  -0.169  -0.170
    1UNL     O3    8  -0.033  -0.225  -0.212
    1UNL     C6    9   0.062  -0.105  -0.023
    1UNL     C7   10   0.092   0.041   0.008
    1UNL     O4   11   0.224   0.064   0.060
    1UNL     C8   12   0.286   0.166  -0.005
    1UNL     O5   13   0.237   0.215  -0.106
    1UNL     C9   14   0.428   0.214   0.044
    1UNL    C10   15   0.521   0.247  -0.048
    1UNL    C11   16   0.652   0.273  -0.024
    1UNL    C12   17   0.693   0.264   0.110
    1UNL    C13   18   0.604   0.220   0.205
    1UNL    C14   19   0.477   0.185   0.171
    1UNL     O6   20   0.387   0.126   0.258
    1UNL    C15   21   0.140  -0.205   0.071
    1UNL    C16   22   0.006  -0.222   0.148
    1UNL    C17   23  -0.069  -0.174   0.017
    1UNL     O7   24  -0.185  -0.094   0.042
    1UNL    C18   25  -0.224  -0.014  -0.063
    1UNL     O8   26  -0.175   0.120  -0.046
    1UNL    C19   27  -0.258   0.182   0.058
    1UNL    C20   28  -0.190   0.305   0.123
    1UNL     O9   29  -0.278   0.383   0.210
    1UNL    C21   30  -0.396   0.219  -0.003
    1UNL    O10   31  -0.495   0.246   0.097
    1UNL    C22   32  -0.447   0.119  -0.107
    1UNL    O11   33  -0.584   0.101  -0.108
    1UNL    C23   34  -0.382  -0.020  -0.079
    1UNL    O12   35  -0.415  -0.100  -0.197
    1UNL     H1   36  -0.228  -0.440  -0.030
    1UNL     H2   37  -0.296  -0.267  -0.086
    1UNL     H3   38  -0.237  -0.380  -0.199
    1UNL     H4   39   0.001  -0.492   0.011
    1UNL     H5   40   0.046  -0.458  -0.152
    1UNL     H6   41   0.350  -0.384  -0.029
    1UNL     H7   42   0.110  -0.090  -0.242
    1UNL     H8   43   0.069   0.107  -0.074
    1UNL     H9   44   0.022   0.064   0.089
    1UNL    H10   45   0.468   0.275  -0.141
    1UNL    H11   46   0.727   0.299  -0.097
    1UNL    H12   47   0.803   0.264   0.127
    1UNL    H13   48   0.649   0.173   0.290
    1UNL    H14   49   0.311   0.097   0.204
    1UNL    H15   50   0.220  -0.156   0.129
    1UNL    H16   51  -0.025  -0.324   0.179
    1UNL    H17   52  -0.003  -0.157   0.227
    1UNL    H18   53  -0.176  -0.047  -0.160
    1UNL    H19   54  -0.274   0.112   0.134
    1UNL    H20   55  -0.170   0.374   0.039
    1UNL    H21   56  -0.097   0.272   0.172
    1UNL    H22   57  -0.365   0.338   0.215
    1UNL    H23   58  -0.387   0.318  -0.059
    1UNL    H24   59  -0.582   0.204   0.073
    1UNL    H25   60  -0.407   0.137  -0.207
    1UNL    H26   61  -0.640   0.184  -0.139
    1UNL    H27   62  -0.425  -0.066   0.008
    1UNL    H28   63  -0.505  -0.073  -0.229
   0.00000   0.00000   0.00000   0.00000   0.00000   0.00000   0.00000   0.00000   0.00000
Generated with MDTraj, t= 95.0
 63
    1UNL     C1    1  -0.232  -0.339  -0.115
    1UNL     C2    2  -0.084  -0.282  -0.098
    1UNL     C3    3   0.016  -0.393  -0.075
    1UNL     C4    4   0.151  -0.336  -0.037
    1UNL     O1    5   0.245  -0.435   0.009
    1UNL     O2    6   0.197  -0.250  -0.146
    1UNL     C5    7   0.095  -0.146  -0.153
    1UNL     O3    8  -0.029  -0.202  -0.203
    1UNL     C6    9   0.065  -0.110  -0.007
    1UNL     C7   10   0.099   0.031   0.031
    1UNL     O4   11   0.234   0.044   0.056
    1UNL     C8   12   0.281   0.155  -0.013
    1UNL     O5   13   0.225   0.214  -0.103
    1UNL     C9   14   0.425   0.186   0.019
    1UNL    C10   15   0.521   0.218  -0.074
    1UNL    C11   16   0.645   0.258  -0.032
    1UNL    C12   17   0.682   0.279   0.099
    1UNL    C13   18   0.584   0.252   0.192
    1UNL    C14   19   0.452   0.205   0.159
    1UNL     O6   20   0.366   0.170   0.255
    1UNL    C15   21   0.129  -0.227   0.074
    1UNL    C16   22  -0.006  -0.236   0.156
    1UNL    C17   23  -0.073  -0.183   0.027
    1UNL     O7   24  -0.188  -0.098   0.065
    1UNL    C18   25  -0.210  -0.017  -0.050
    1UNL     O8   26  -0.168   0.124  -0.017
    1UNL    C19   27  -0.253   0.191   0.073
    1UNL    C20   28  -0.186   0.314   0.133
    1UNL     O9   29  -0.275   0.352   0.234
    1UNL    C21   30  -0.382   0.221  -0.001
    1UNL    O10   31  -0.497   0.222   0.087
    1UNL    C22   32  -0.418   0.122  -0.118
    1UNL    O11   33  -0.555   0.114  -0.144
    1UNL    C23   34  -0.364  -0.021  -0.087
    1UNL    O12   35  -0.388  -0.105  -0.200
    1UNL     H1   36  -0.276  -0.324  -0.013
    1UNL     H2   37  -0.276  -0.276  -0.191
    1UNL     H3   38  -0.255  -0.441  -0.146
    1UNL     H4   39  -0.012  -0.461   0.011
    1UNL     H5   40   0.026  -0.453  -0.167
    1UNL     H6   41   0.336  -0.425  -0.026
    1UNL     H7   42   0.131  -0.081  -0.233
    1UNL     H8   43   0.071   0.096  -0.056
    1UNL     H9   44   0.051   0.067   0.125
    1UNL    H10   45   0.489   0.216  -0.174
    1UNL    H11   46   0.701   0.324  -0.100
    1UNL    H12   47   0.786   0.283   0.121
    1UNL    H13   48   0.607   0.248   0.298
    1UNL    H14   49   0.302   0.110   0.211
    1UNL    H15   50   0.209  -0.202   0.142
    1UNL    H16   51  -0.030  -0.339   0.189
    1UNL    H17   52  -0.024  -0.160   0.225
    1UNL    H18   53  -0.150  -0.039  -0.143
    1UNL    H19   54  -0.278   0.131   0.155
    1UNL    H20   55  -0.170   0.399   0.067
    1UNL    H21   56  -0.093   0.295   0.185
    1UNL    H22   57  -0.368   0.349   0.196
    1UNL    H23   58  -0.378   0.326  -0.045
    1UNL    H24   59  -0.522   0.133   0.114
    1UNL    H25   60  -0.367   0.164  -0.208
    1UNL    H26   61  -0.589   0.200  -0.107
    1UNL    H27   62  -0.416  -0.062  -0.003
    1UNL    H28   63  -0.485  -0.089  -0.227
   0.00000   0.00000   0.00000   0.00000   0.00000   0.00000   0.00000   0.00000   0.00000
Generated with MDTraj, t= 96.0
 63
    1UNL     C1    1  -0.212  -0.344  -0.129
    1UNL     C2    2  -0.080  -0.285  -0.094
    1UNL     C3    3   0.025  -0.403  -0.073
    1UNL     C4    4   0.163  -0.343  -0.033
    1UNL     O1    5   0.253  -0.449  -0.014
    1UNL     O2    6   0.202  -0.260  -0.145
    1UNL     C5    7   0.102  -0.153  -0.146
    1UNL     O3    8  -0.022  -0.211  -0.207
    1UNL     C6    9   0.068  -0.115   0.010
    1UNL     C7   10   0.076   0.027   0.059
    1UNL     O4   11   0.203   0.061   0.106
    1UNL     C8   12   0.273   0.133   0.004
    1UNL     O5   13   0.226   0.147  -0.108
    1UNL     C9   14   0.412   0.180   0.025
    1UNL    C10   15   0.495   0.204  -0.087
    1UNL    C11   16   0.622   0.258  -0.066
    1UNL    C12   17   0.661   0.291   0.064
    1UNL    C13   18   0.579   0.272   0.168
    1UNL    C14   19   0.451   0.214   0.158
    1UNL     O6   20   0.371   0.221   0.279
    1UNL    C15   21   0.127  -0.243   0.088
    1UNL    C16   22  -0.010  -0.254   0.155
    1UNL    C17   23  -0.071  -0.185   0.031
    1UNL     O7   24  -0.185  -0.098   0.054
    1UNL    C18   25  -0.204  -0.008  -0.053
    1UNL     O8   26  -0.161   0.128  -0.021
    1UNL    C19   27  -0.250   0.188   0.074
    1UNL    C20   28  -0.182   0.300   0.156
    1UNL     O9   29  -0.277   0.355   0.250
    1UNL    C21   30  -0.382   0.226   0.008
    1UNL    O10   31  -0.501   0.213   0.094
    1UNL    C22   32  -0.401   0.146  -0.122
    1UNL    O11   33  -0.529   0.154  -0.177
    1UNL    C23   34  -0.356   0.002  -0.098
    1UNL    O12   35  -0.392  -0.082  -0.204
    1UNL     H1   36  -0.226  -0.438  -0.070
    1UNL     H2   37  -0.295  -0.277  -0.124
    1UNL     H3   38  -0.215  -0.369  -0.235
    1UNL     H4   39  -0.008  -0.482  -0.001
    1UNL     H5   40   0.042  -0.441  -0.177
    1UNL     H6   41   0.288  -0.489  -0.096
    1UNL     H7   42   0.149  -0.069  -0.197
    1UNL     H8   43   0.053   0.101  -0.025
    1UNL     H9   44   0.001   0.034   0.144
    1UNL    H10   45   0.450   0.219  -0.189
    1UNL    H11   46   0.677   0.282  -0.157
    1UNL    H12   47   0.753   0.345   0.085
    1UNL    H13   48   0.617   0.285   0.268
    1UNL    H14   49   0.278   0.214   0.251
    1UNL    H15   50   0.211  -0.211   0.146
    1UNL    H16   51  -0.039  -0.354   0.182
    1UNL    H17   52  -0.025  -0.193   0.242
    1UNL    H18   53  -0.142  -0.030  -0.144
    1UNL    H19   54  -0.267   0.115   0.144
    1UNL    H20   55  -0.149   0.381   0.092
    1UNL    H21   56  -0.092   0.277   0.210
    1UNL    H22   57  -0.363   0.319   0.220
    1UNL    H23   58  -0.378   0.333  -0.031
    1UNL    H24   59  -0.525   0.117   0.099
    1UNL    H25   60  -0.338   0.193  -0.205
    1UNL    H26   61  -0.584   0.185  -0.109
    1UNL    H27   62  -0.405  -0.047  -0.018
    1UNL    H28   63  -0.466  -0.039  -0.244
   0.00000   0.00000   0.00000   0.00000   0.00000   0.00000   0.00000   0.00000   0.00000
Generated with MDTraj, t= 97.0
 63
    1UNL     C1    1  -0.208  -0.325  -0.173
    1UNL     C2    2  -0.071  -0.283  -0.116
    1UNL     C3    3   0.035  -0.402  -0.088
    1UNL     C4    4   0.165  -0.329  -0.022
    1UNL     O1    5   0.265  -0.420   0.014
    1UNL     O2    6   0.206  -0.235  -0.120
    1UNL     C5    7   0.108  -0.136  -0.134
    1UNL     O3    8  -0.005  -0.190  -0.202
    1UNL     C6    9   0.053  -0.113   0.021
    1UNL     C7   10   0.072   0.025   0.096
    1UNL     O4   11   0.206   0.065   0.126
    1UNL     C8   12   0.270   0.099   0.005
    1UNL     O5   13   0.230   0.062  -0.102
    1UNL     C9   14   0.402   0.167   0.023
    1UNL    C10   15   0.472   0.180  -0.095
    1UNL    C11   16   0.595   0.247  -0.087
    1UNL    C12   17   0.631   0.307   0.034
    1UNL    C13   18   0.554   0.310   0.149
    1UNL    C14   19   0.442   0.237   0.146
    1UNL     O6   20   0.377   0.210   0.262
    1UNL    C15   21   0.120  -0.235   0.098
    1UNL    C16   22  -0.026  -0.264   0.143
    1UNL    C17   23  -0.081  -0.193   0.022
    1UNL     O7   24  -0.201  -0.120   0.041
    1UNL    C18   25  -0.212  -0.016  -0.048
    1UNL     O8   26  -0.153   0.107   0.000
    1UNL    C19   27  -0.247   0.168   0.093
    1UNL    C20   28  -0.182   0.284   0.171
    1UNL     O9   29  -0.269   0.355   0.258
    1UNL    C21   30  -0.360   0.228   0.010
    1UNL    O10   31  -0.483   0.238   0.091
    1UNL    C22   32  -0.387   0.151  -0.123
    1UNL    O11   33  -0.520   0.151  -0.159
    1UNL    C23   34  -0.358  -0.001  -0.103
    1UNL    O12   35  -0.369  -0.056  -0.233
    1UNL     H1   36  -0.273  -0.359  -0.091
    1UNL     H2   37  -0.257  -0.245  -0.231
    1UNL     H3   38  -0.211  -0.403  -0.248
    1UNL     H4   39  -0.019  -0.463  -0.013
    1UNL     H5   40   0.064  -0.457  -0.183
    1UNL     H6   41   0.316  -0.440  -0.066
    1UNL     H7   42   0.135  -0.049  -0.184
    1UNL     H8   43   0.031   0.106   0.028
    1UNL     H9   44   0.016   0.021   0.195
    1UNL    H10   45   0.425   0.176  -0.191
    1UNL    H11   46   0.659   0.257  -0.174
    1UNL    H12   47   0.734   0.341   0.025
    1UNL    H13   48   0.583   0.357   0.242
    1UNL    H14   49   0.288   0.177   0.240
    1UNL    H15   50   0.193  -0.202   0.170
    1UNL    H16   51  -0.074  -0.357   0.150
    1UNL    H17   52  -0.037  -0.218   0.244
    1UNL    H18   53  -0.143  -0.032  -0.135
    1UNL    H19   54  -0.274   0.097   0.163
    1UNL    H20   55  -0.136   0.356   0.104
    1UNL    H21   56  -0.097   0.246   0.223
    1UNL    H22   57  -0.361   0.330   0.230
    1UNL    H23   58  -0.336   0.336  -0.020
    1UNL    H24   59  -0.571   0.225   0.044
    1UNL    H25   60  -0.330   0.193  -0.213
    1UNL    H26   61  -0.550   0.244  -0.178
    1UNL    H27   62  -0.421  -0.051  -0.035
    1UNL    H28   63  -0.459  -0.023  -0.259
   0.00000   0.00000   0.00000   0.00000   0.00000   0.00000   0.00000   0.00000   0.00000
Generated with MDTraj, t= 98.0
 63
    1UNL     C1    1  -0.203  -0.335  -0.160
    1UNL     C2    2  -0.066  -0.289  -0.110
    1UNL     C3    3   0.037  -0.405  -0.085
    1UNL     C4    4   0.162  -0.338  -0.016
    1UNL     O1    5   0.252  -0.430   0.038
    1UNL     O2    6   0.221  -0.246  -0.113
    1UNL     C5    7   0.111  -0.145  -0.126
    1UNL     O3    8   0.002  -0.201  -0.203
    1UNL     C6    9   0.062  -0.123   0.020
    1UNL     C7   10   0.089   0.008   0.091
    1UNL     O4   11   0.224   0.039   0.111
    1UNL     C8   12   0.274   0.113   0.007
    1UNL     O5   13   0.213   0.138  -0.092
    1UNL     C9   14   0.413   0.156   0.021
    1UNL    C10   15   0.500   0.173  -0.089
    1UNL    C11   16   0.602   0.264  -0.092
    1UNL    C12   17   0.624   0.336   0.021
    1UNL    C13   18   0.552   0.319   0.136
    1UNL    C14   19   0.446   0.224   0.139
    1UNL     O6   20   0.373   0.212   0.256
    1UNL    C15   21   0.110  -0.249   0.107
    1UNL    C16   22  -0.042  -0.271   0.146
    1UNL    C17   23  -0.080  -0.197   0.016
    1UNL     O7   24  -0.203  -0.120   0.029
    1UNL    C18   25  -0.213  -0.015  -0.059
    1UNL     O8   26  -0.158   0.105  -0.005
    1UNL    C19   27  -0.253   0.172   0.087
    1UNL    C20   28  -0.185   0.269   0.183
    1UNL     O9   29  -0.275   0.324   0.271
    1UNL    C21   30  -0.361   0.240   0.002
    1UNL    O10   31  -0.477   0.257   0.078
    1UNL    C22   32  -0.397   0.158  -0.121
    1UNL    O11   33  -0.526   0.180  -0.160
    1UNL    C23   34  -0.365   0.005  -0.107
    1UNL    O12   35  -0.386  -0.054  -0.236
    1UNL     H1   36  -0.235  -0.422  -0.107
    1UNL     H2   37  -0.272  -0.249  -0.146
    1UNL     H3   38  -0.209  -0.346  -0.268
    1UNL     H4   39  -0.006  -0.482  -0.018
    1UNL     H5   40   0.069  -0.439  -0.190
    1UNL     H6   41   0.305  -0.449  -0.043
    1UNL     H7   42   0.156  -0.065  -0.167
    1UNL     H8   43   0.039   0.094   0.034
    1UNL     H9   44   0.043   0.004   0.194
    1UNL    H10   45   0.460   0.122  -0.175
    1UNL    H11   46   0.645   0.294  -0.187
    1UNL    H12   47   0.714   0.390   0.041
    1UNL    H13   48   0.590   0.357   0.230
    1UNL    H14   49   0.315   0.135   0.239
    1UNL    H15   50   0.175  -0.235   0.192
    1UNL    H16   51  -0.051  -0.374   0.146
    1UNL    H17   52  -0.084  -0.227   0.241
    1UNL    H18   53  -0.157  -0.036  -0.152
    1UNL    H19   54  -0.292   0.098   0.148
    1UNL    H20   55  -0.133   0.342   0.123
    1UNL    H21   56  -0.109   0.223   0.243
    1UNL    H22   57  -0.361   0.345   0.228
    1UNL    H23   58  -0.339   0.348  -0.029
    1UNL    H24   59  -0.525   0.177   0.104
    1UNL    H25   60  -0.337   0.201  -0.208
    1UNL    H26   61  -0.566   0.268  -0.117
    1UNL    H27   62  -0.423  -0.048  -0.037
    1UNL    H28   63  -0.473  -0.008  -0.264
   0.00000   0.00000   0.00000   0.00000   0.00000   0.00000   0.00000   0.00000   0.00000
Generated with MDTraj, t= 99.0
 63
    1UNL     C1    1  -0.202  -0.325  -0.177
    1UNL     C2    2  -0.065  -0.288  -0.118
    1UNL     C3    3   0.019  -0.414  -0.083
    1UNL     C4    4   0.147  -0.359  -0.011
    1UNL     O1    5   0.233  -0.469   0.038
    1UNL     O2    6   0.213  -0.270  -0.101
    1UNL     C5    7   0.126  -0.157  -0.122
    1UNL     O3    8   0.013  -0.205  -0.207
    1UNL     C6    9   0.067  -0.129   0.025
    1UNL     C7   10   0.081   0.019   0.084
    1UNL     O4   11   0.213   0.071   0.101
    1UNL     C8   12   0.257   0.146   0.001
    1UNL     O5   13   0.212   0.157  -0.107
    1UNL     C9   14   0.387   0.211   0.018
    1UNL    C10   15   0.466   0.225  -0.096
    1UNL    C11   16   0.593   0.270  -0.089
    1UNL    C12   17   0.653   0.312   0.030
    1UNL    C13   18   0.575   0.273   0.142
    1UNL    C14   19   0.446   0.226   0.145
    1UNL     O6   20   0.374   0.236   0.258
    1UNL    C15   21   0.107  -0.261   0.102
    1UNL    C16   22  -0.041  -0.268   0.150
    1UNL    C17   23  -0.079  -0.193   0.017
    1UNL     O7   24  -0.194  -0.109   0.039
    1UNL    C18   25  -0.201  -0.010  -0.059
    1UNL     O8   26  -0.151   0.117  -0.015
    1UNL    C19   27  -0.243   0.172   0.087
    1UNL    C20   28  -0.175   0.255   0.194
    1UNL     O9   29  -0.269   0.304   0.286
    1UNL    C21   30  -0.359   0.237   0.003
    1UNL    O10   31  -0.479   0.256   0.069
    1UNL    C22   32  -0.391   0.157  -0.127
    1UNL    O11   33  -0.523   0.179  -0.174
    1UNL    C23   34  -0.354   0.005  -0.100
    1UNL    O12   35  -0.385  -0.081  -0.212
    1UNL     H1   36  -0.255  -0.355  -0.090
    1UNL     H2   37  -0.240  -0.237  -0.234
    1UNL     H3   38  -0.192  -0.405  -0.250
    1UNL     H4   39  -0.039  -0.477  -0.010
    1UNL     H5   40   0.044  -0.466  -0.180
    1UNL     H6   41   0.275  -0.512  -0.040
    1UNL     H7   42   0.167  -0.075  -0.166
    1UNL     H8   43   0.024   0.084   0.011
    1UNL     H9   44   0.033   0.032   0.182
    1UNL    H10   45   0.425   0.200  -0.193
    1UNL    H11   46   0.649   0.293  -0.178
    1UNL    H12   47   0.760   0.338   0.035
    1UNL    H13   48   0.636   0.261   0.230
    1UNL    H14   49   0.289   0.189   0.242
    1UNL    H15   50   0.191  -0.242   0.166
    1UNL    H16   51  -0.068  -0.370   0.157
    1UNL    H17   52  -0.089  -0.201   0.229
    1UNL    H18   53  -0.150  -0.041  -0.150
    1UNL    H19   54  -0.276   0.088   0.140
    1UNL    H20   55  -0.119   0.341   0.151
    1UNL    H21   56  -0.104   0.194   0.248
    1UNL    H22   57  -0.364   0.311   0.255
    1UNL    H23   58  -0.325   0.340  -0.031
    1UNL    H24   59  -0.502   0.168   0.113
    1UNL    H25   60  -0.324   0.194  -0.209
    1UNL    H26   61  -0.542   0.271  -0.175
    1UNL    H27   62  -0.401  -0.033  -0.014
    1UNL    H28   63  -0.453  -0.036  -0.259
   0.00000   0.00000   0.00000   0.00000   0.00000   0.00000   0.00000   0.00000   0.00000
