1TPCN00412
13
    1res  C1    1   -0.155  -0.301   0.105
    1res  C2    2    0.118  -0.345  -0.114
    1res  C3    3    0.163  -0.150   0.103
    1res  C4    4    0.030  -0.099  -0.177
    1res  C5    5    0.172   0.149   0.014
    1res  C6    6    0.555   0.217   0.139
    1res  C7    7    0.547   0.161  -0.217
    1res  C8    8    0.764   0.220  -0.033
    1res  C9    9   -0.111  -0.062  -0.009
    1res  C10   10   -0.378  -0.043   0.057
    1res  C11   11   -0.275   0.112   0.262
    1res  C12   12   -0.560   0.124  -0.052
    1res  C13   13   -0.322   0.068  -0.192
  10.00000  10.00000  10.00000
