[ moleculetype ]
; name        nrexcl
res           1

[ atoms ]
;    nr  type resnr resid  atom  cgnr     charge       mass
      1 SC4       1 res   C1        1      0.000     54.000
      2 TC3       1 res   C2        2      0.000     36.000
      3 TC5       1 res   C3        3      0.000     36.000
      4 SN4a      1 res   C4        4      0.000     54.000
      5 SN4a      1 res   C5        5      0.000     54.000
      6 TP1       1 res   C6        6      0.000     36.000
      7 TN6       1 res   C7        7      0.000     36.000
      8 TN6       1 res   C8        8      0.000     36.000
      9 TN6       1 res   C9        9      0.000     36.000
     10 TC3       1 res   C10      10      0.000     36.000
     11 SC4       1 res   C11      11      0.000     54.000
     12 TC3       1 res   C12      12      0.000     36.000
     13 SC4       1 res   C13      13      0.000     54.000
     14 SC4       1 res   C14      14      0.000     54.000
     15 TC3       1 res   C15      15      0.000     36.000
     16 TN6       1 res   C16      16      0.000     36.000
     17 TC4       1 res   C17      17      0.000     36.000
     18 TP1       1 res   C18      18      0.000     36.000
     19 TC3       1 res   C19      19      0.000     36.000
     20 TN6       1 res   C20      20      0.000     36.000

[ bonds ]
;  ai    aj   funct      b0(nm)        k
    1     2     1      0.29095    20000
    1    20     1      0.24988    20000
    2     3     1      0.26531    20000
    3     4     1      0.28808    20000
    3    10     1      0.25138    20000
    3    11     1      0.32695    20000
    3    20     1      0.26271    20000
    4     5     1      0.27054    20000
    5     6     1      0.30081    20000
    5     7     1      0.26395    20000
    5     9     1      0.31032    20000
    7     8     1      0.22670    20000
    8     9     1      0.24265    20000
   10    11     1      0.27486    20000
   11    12     1      0.31894    20000
   11    13     1      0.27502    20000
   12    13     1      0.38143    20000
   13    14     1      0.34835    20000
   13    19     1      0.30954    20000
   14    15     1      0.26957    20000
   14    17     1      0.28605    20000
   14    19     1      0.33005    20000
   15    16     1      0.27037    20000
   16    17     1      0.28714    20000
   17    18     1      0.29918    20000
