[ moleculetype ]
; name        nrexcl
res           1

[ atoms ]
;    nr  type resnr resid  atom  cgnr     charge       mass
      1 SP5       1 res   C1        1      0.000     54.000
      2 SN5       1 res   C2        2      0.000     54.000
      3 SN4a      1 res   C3        3      0.000     54.000
      4 SP2       1 res   C4        4      0.000     54.000

[ bonds ]
;  ai    aj   funct      b0(nm)        k
    1     2     1      0.28177    20000
    2     3     1      0.38323    20000
    2     4     1      0.26245    20000
