1TPCN01524
12
    1res  C1    1    0.505   0.073   0.211
    1res  C2    2    0.321   0.109   0.002
    1res  C3    3    0.171  -0.115   0.068
    1res  C4    4    0.143  -0.059  -0.203
    1res  C5    5    0.208   0.350  -0.193
    1res  C6    6   -0.066   0.180  -0.286
    1res  C7    7   -0.097   0.005  -0.101
    1res  C8    8   -0.298  -0.071   0.056
    1res  C9    9   -0.268  -0.055   0.338
    1res  C10   10   -0.458  -0.268   0.199
    1res  C11   11   -0.402  -0.368  -0.012
    1res  C12   12   -0.403  -0.177  -0.155
  10.00000  10.00000  10.00000
