[ moleculetype ]
; name        nrexcl
res           1

[ atoms ]
;    nr  type  resnr resid  atom  cgnr     charge       mass
      1 TC5       1 res   C1        1      0.000     36.000
      2 TP1d      1 res   C2        2      0.000     36.000
      3 SN4a      1 res   C3        3      0.000     54.000
      4 N4a       1 res   C4        4      0.000     72.000
      5 SP2       1 res   C5        5      0.000     54.000
      6 TN6       1 res   C6        6      0.000     36.000
      7 TN6       1 res   C7        7      0.000     36.000
      8 TN6       1 res   C8        8      0.000     36.000
      9 SN4a      1 res   C9        9      0.000     54.000
     10 N4a       1 res   C10      10      0.000     72.000
     11 SP2       1 res   C11      11      0.000     54.000
     12 TN6       1 res   C12      12      0.000     36.000
     13 TN6       1 res   C13      13      0.000     36.000
     14 TN6       1 res   C14      14      0.000     36.000
     15 TC3       1 res   C15      15      0.000     36.000
     16 SC4       1 res   C16      16      0.000     54.000
     17 TC3       1 res   C17      17      0.000     36.000

[ bonds ]
;  ai    aj   funct      b0(nm)          k(kJ/mol/nm^2)
    1     2     1      0.27175          47575.6
    1    15     1      0.29581          10366.1
    2     3     1      0.21486          13603.3
    3     4     1      0.39402           5489.8
    3     6     1      0.31385         105481.9
    3     8     1      0.25534          64544.3
    6     7     1      0.20936          51469.2
    7     8     1      0.24871         104348.4
    8     9     1      0.29661          60908.9
    9    10     1      0.35184          24842.4
    9    12     1      0.24868          15520.7
    9    14     1      0.27077           7808.6
   12    13     1      0.27063          43171.8
   13    14     1      0.25443           7220.3
   15    16     1      0.35541          25120.1
   15    17     1      0.28298          37311.6
   16    17     1      0.31157          34771.0

[ angles ]
;  ai    aj    ak  funct     th0(deg)        k(kJ/mol/rad^2)
    1     2     3     1    150.79294            34.76
    1    15    16     1    146.09826           101.25
    1    15    17     1     94.17647           116.55
    2     1    15     1     67.91954           265.26
    2     3     4     1    106.37573            54.13
    2     3     6     1    144.42124           174.24
    2     3     8     1    109.71181           210.32
    3     6     7     1     74.23682          1863.99
    3     8     7     1     80.73993          1805.76
    3     8     9     1    110.94115           475.14
    4     3     6     1     60.40938           154.36
    4     3     8     1    135.88345           125.99
    6     3     8     1     76.78898          2567.49
    6     7     8     1    101.95174           629.55
    7     8     9     1     61.23776          1627.08
    8     9    10     1    138.23936           415.88
    8     9    12     1    145.18483           152.11
    8     9    14     1     74.14789           206.64
    9    12    13     1     70.74508           148.65
    9    14    13     1     69.64936           891.35
   10     9    12     1     68.87764           743.11
   10     9    14     1    145.33445           234.11
   12     9    14     1     79.46889           119.58
   12    13    14     1     78.42653           131.82
   15    16    17     1     49.61493          4325.57
   15    17    16     1     73.28806           833.31
   16    15    17     1     57.09637          1156.36
