1TPCN00123
17
    1res  C1    1   -0.228  -0.143   0.172
    1res  C2    2   -0.235   0.051  -0.013
    1res  C3    3   -0.083   0.341  -0.002
    1res  C4    4   -0.305   0.491  -0.110
    1res  C5    5   -0.441   0.773   0.009
    1res  C6    6    0.167   0.464  -0.026
    1res  C7    7    0.160   0.261  -0.166
    1res  C8    8    0.066   0.116   0.008
    1res  C9    9    0.254  -0.081  -0.002
    1res  C10   10    0.689  -0.134   0.016
    1res  C11   11    1.066  -0.196   0.047
    1res  C12   12    0.378  -0.243   0.149
    1res  C13   13    0.202  -0.385   0.035
    1res  C14   14    0.054  -0.239  -0.086
    1res  C15   15   -0.516  -0.140   0.116
    1res  C16   16   -0.525  -0.503   0.171
    1res  C17   17   -0.458  -0.336  -0.076
  10.00000  10.00000  10.00000
