1TPCN04630
21
    1res  C1    1   -0.094  -0.491  -0.119
    1res  C2    2   -0.325  -0.361  -0.005
    1res  C3    3   -0.396  -0.188  -0.169
    1res  C4    4   -0.387   0.084  -0.100
    1res  C5    5   -0.426   0.130   0.137
    1res  C6    6   -0.362   0.009   0.342
    1res  C7    7   -0.402  -0.033   0.593
    1res  C8    8   -0.589   0.157   0.476
    1res  C9    9   -0.142   0.042  -0.152
    1res  C10   10    0.061  -0.113  -0.069
    1res  C11   11    0.274  -0.163  -0.152
    1res  C12   12    0.341  -0.285   0.049
    1res  C13   13    0.523  -0.444  -0.132
    1res  C14   14    0.581  -0.585   0.111
    1res  C15   15    0.332  -0.376   0.327
    1res  C16   16   -0.003   0.131   0.118
    1res  C17   17    0.216   0.230  -0.213
    1res  C18   18    0.410   0.267  -0.008
    1res  C19   19    0.409   0.548  -0.012
    1res  C20   20    0.247   0.567  -0.203
    1res  C21   21   -0.032   0.376  -0.000
  10.00000  10.00000  10.00000
