[ moleculetype ]
; name        nrexcl
res           1

[ atoms ]
;    nr  type  resnr resid  atom  cgnr     charge       mass
      1 SN6a      1 res   C1        1      0.000     54.000
      2 TC5       1 res   C2        2      0.000     36.000
      3 TC5       1 res   C3        3      0.000     36.000
      4 TN6d      1 res   C4        4      0.000     36.000
      5 TC6       1 res   C5        5      0.000     36.000
      6 TN6d      1 res   C6        6      0.000     36.000

[ constraints ]
;  ai    aj   funct      b0(nm)
    1     2     1      0.19243
    3     5     1      0.33949
    2     3     1      0.20151
    2     6     1      0.27484
    3     4     1      0.12292
    3     6     1      0.29381

[ bonds ]
;  ai    aj   funct      b0(nm)          k(kJ/mol/nm^2)

[ angles ]
;  ai    aj    ak  funct     th0(deg)        k(kJ/mol/rad^2)
    1     2     3     1    129.76531          1900.16
    1     2     6     1     57.00093          3117.35
    2     3     4     1    154.66354           846.82
    2     3     5     1    113.11883          3406.61
    2     3     6     1     64.27965          4392.55
    2     6     3     1     41.33872          7775.76
    3     2     6     1     74.38159          3698.10
    4     3     5     1     44.17673          1628.30
    4     3     6     1     92.11969          1109.63
    5     3     6     1     49.03824          5447.11

[ dihedrals ]
;  ai    aj    ak    al  funct   phi0(deg)        k(kJ/mol)   mult
    1     2     3     4     1    177.35340       23.461      1
    1     2     3     5     1    178.77359       20.419      1
    1     2     3     6     1    178.85297       17.760      1
    1     2     6     3     1     -1.14454       16.417      1
    2     6     3     4     1     -1.04913       15.760      1
    2     6     3     5     1     -0.99204       10.066      1
    4     3     2     6     1    178.14399       27.211      1
    5     3     2     6     1    179.01122        8.580      1
