1TPCN06075
25
    1res  C1    1    0.710  -0.001  -0.292
    1res  C2    2    0.616   0.258  -0.250
    1res  C3    3    0.609   0.162   0.030
    1res  C4    4    0.685   0.440   0.015
    1res  C5    5    0.383   0.265   0.092
    1res  C6    6    0.450   0.029   0.091
    1res  C7    7    0.493   0.002   0.358
    1res  C8    8    0.459  -0.203  -0.022
    1res  C9    9    0.218  -0.068   0.238
    1res  C10   10    0.170  -0.349  -0.024
    1res  C11   11   -0.056  -0.225   0.162
    1res  C12   12   -0.178  -0.119  -0.049
    1res  C13   13   -0.361  -0.073  -0.169
    1res  C14   14   -0.557  -0.303  -0.277
    1res  C15   15   -0.691  -0.226  -0.059
    1res  C16   16   -0.522  -0.163   0.114
    1res  C17   17   -0.449   0.023  -0.002
    1res  C18   18   -0.672   0.151   0.119
    1res  C19   19   -0.957   0.108   0.152
    1res  C20   20   -0.770   0.389   0.229
    1res  C21   21   -0.703   0.470   0.011
    1res  C22   22   -0.577   0.317  -0.088
    1res  C23   23   -0.074  -0.255  -0.224
    1res  C24   24    0.154   0.025  -0.053
    1res  C25   25    0.812  -0.022  -0.019
  10.00000  10.00000  10.00000
