[ moleculetype ]
; name        nrexcl
res           1

[ atoms ]
;    nr  type  resnr resid  atom  cgnr     charge       mass
      1 TC5       1 res   C1        1      0.000     36.000
      2 TC3       1 res   C2        2      0.000     36.000
      3 TN4a      1 res   C3        3      0.000     36.000
      4 SP4       1 res   C4        4      0.000     54.000
      5 TN4a      1 res   C5        5      0.000     36.000
      6 TP1       1 res   C6        6      0.000     36.000
      7 SP4       1 res   C7        7      0.000     54.000
      8 TC5       1 res   C8        8      0.000     36.000
      9 SP2       1 res   C9        9      0.000     54.000
     10 TC4       1 res   C10      10      0.000     36.000
     11 SN6d      1 res   C11      11      0.000     54.000
     12 TC5       1 res   C12      12      0.000     36.000
     13 TC5       1 res   C13      13      0.000     36.000
     14 TN2a      1 res   C14      14      0.000     36.000
     15 SN6       1 res   C15      15      0.000     54.000

[ constraints ]
;  ai    aj   funct      b0(nm)
    1     2     1      0.28445
   10    11     1      0.28884
    2     3     1      0.25675
   11    12     1      0.23295
    4     5     1      0.27886
    3     8     1      0.26476
    5     7     1      0.28098
    3     4     1      0.31628
   12    13     1      0.22147
    2     8     1      0.26647
    5     6     1      0.20462
   13    15     1      0.32626
    4     7     1      0.29565
   10    12     1      0.26112
   12    15     1      0.29075
    2    10     1      0.27352
    8     9     1      0.25588

[ bonds ]
;  ai    aj   funct      b0(nm)          k(kJ/mol/nm^2)
   13    14     1      0.31046           6245.4

[ angles ]
;  ai    aj    ak  funct     th0(deg)        k(kJ/mol/rad^2)
    1     2     3     1     77.38005           324.88
    1     2     8     1    135.92183           262.12
    1     2    10     1     95.20914           104.90
    2     3     4     1    107.10829           596.45
    2     3     8     1     61.42809          4652.80
    2     8     3     1     57.80627          4030.50
    2     8     9     1     93.78435           629.58
    2    10    11     1    147.48554            78.95
    2    10    12     1    111.50466           102.56
    3     2     8     1     60.76563          4806.39
    3     2    10     1     97.47938           478.32
    3     4     5     1     69.29934           373.86
    3     4     7     1    118.70116           276.48
    3     8     9     1    150.55823           604.76
    4     3     8     1    104.87258           115.99
    4     5     6     1    141.23148            17.42
    4     5     7     1     63.81090           766.65
    4     7     5     1     57.76807          1057.99
    5     4     7     1     58.42030          2050.76
    6     5     7     1    112.67958           128.37
    8     2    10     1     81.17714           645.01
   10    11    12     1     58.88425          3328.75
   10    12    11     1     71.27933          1540.22
   10    12    13     1    159.21621           301.02
   10    12    15     1     99.44765           460.07
   11    10    12     1     49.83616          2535.60
   11    12    13     1    115.07540          1526.55
   11    12    15     1    163.78344           871.91
   12    13    14     1    127.63129            99.69
   12    13    15     1     60.58955          8521.34
   12    15    13     1     41.57156         12667.05
   13    12    15     1     77.83889          4554.13
   14    13    15     1     68.79930            91.84

[ dihedrals ]
;  ai    aj    ak    al  funct   phi0(deg)        k(kJ/mol)   mult
    1     2     3     4     1   -108.47747       16.977      1
    1     2     3     8     1     -7.00218       15.750      1
    1     2     8     3     1    167.59312       19.614      1
    1     2     8     9     1    -14.46184       23.379      1
    1     2    10    11     1   -150.84958       19.644      1
    1     2    10    12     1   -101.25009       18.381      1
    2     3     4     5     1      8.14556       19.957      1
    2     3     4     7     1      2.46354       25.556      1
    2     3     8     9     1    173.59479       22.774      1
    2     8     3     4     1    -79.23148       11.423      1
    2    10    11    12     1   -112.82844       17.813      1
    2    10    12    11     1     29.00677       14.388      1
    2    10    12    13     1    144.22943       17.690      1
    2    10    12    15     1   -137.70584       17.771      1
    3     2     8     9     1     -2.60632       14.302      1
    3     2    10    11     1    -72.26554       16.922      1
    3     2    10    12     1    -22.97294       14.354      1
    3     4     5     6     1   -108.38360       30.095      1
    3     4     5     7     1     -0.26171       25.175      1
    3     4     7     5     1    177.33456       26.567      1
    3     8     2    10     1     76.96551        7.077      1
    4     3     2     8     1     82.99239       15.760      1
    4     3     2    10     1    157.06187       15.743      1
    4     3     8     9     1    -85.26462       22.181      1
    4     7     5     6     1    -51.53803       23.834      1
    5     4     3     8     1    -56.38326       19.243      1
    6     5     4     7     1     76.01223       19.698      1
    7     4     3     8     1    -59.86273       28.551      1
    8     2    10    11     1    -14.10328       16.943      1
    8     2    10    12     1     35.09392       12.961      1
    8     3     2    10     1   -105.19844        5.554      1
    9     8     2    10     1   -102.16769       16.365      1
   10    11    12    13     1     22.89835       12.846      1
   10    11    12    15     1   -132.36284       26.361      1
   10    12    13    14     1    -99.98130       24.754      1
   10    12    13    15     1    -96.42030       20.865      1
   10    12    15    13     1     22.97607       11.418      1
   11    10    12    13     1    -67.98936       17.666      1
   11    10    12    15     1     12.01435       10.771      1
   11    12    13    14     1      3.62405       23.171      1
   11    12    13    15     1      7.20306       11.505      1
   11    12    15    13     1    -24.16136       24.812      1
   12    15    13    14     1     -1.83244       19.696      1
   14    13    12    15     1    175.95742       22.053      1
