1TPCN03611
31
    1res  C1    1    1.325   0.120   0.082
    1res  C2    2    1.068   0.091   0.120
    1res  C3    3    0.823   0.165   0.023
    1res  C4    4    0.640  -0.097   0.027
    1res  C5    5    0.910  -0.060  -0.329
    1res  C6    6    0.479   0.208  -0.128
    1res  C7    7    0.463   0.076   0.172
    1res  C8    8    0.271  -0.154  -0.091
    1res  C9    9    0.193   0.182   0.064
    1res  C10   10   -0.044   0.141  -0.010
    1res  C11   11   -0.136  -0.074  -0.175
    1res  C12   12   -0.323  -0.018   0.003
    1res  C13   13   -0.549   0.103  -0.003
    1res  C14   14   -0.658   0.269   0.263
    1res  C15   15   -0.802   0.137  -0.007
    1res  C16   16   -0.915   0.411   0.032
    1res  C17   17   -0.954   0.613   0.229
    1res  C18   18   -1.163   0.502   0.031
    1res  C19   19   -1.094   0.400  -0.204
    1res  C20   20   -1.083   0.190  -0.048
    1res  C21   21   -0.835  -0.073   0.042
    1res  C22   22   -0.642  -0.142  -0.072
    1res  C23   23   -0.495  -0.398  -0.044
    1res  C24   24   -0.442  -0.687  -0.070
    1res  C25   25   -0.692  -0.569   0.102
    1res  C26   26   -0.768  -0.549  -0.106
    1res  C27   27   -0.714  -0.392  -0.245
    1res  C28   28   -0.259  -0.029   0.242
    1res  C29   29   -0.164  -0.289   0.113
    1res  C30   30    0.137  -0.063   0.234
    1res  C31   31    0.893  -0.181   0.105
  10.00000  10.00000  10.00000
