1TPCN00129
16
    1res  C1    1   -0.316  -0.255  -0.273
    1res  C2    2   -0.434  -0.508  -0.059
    1res  C3    3   -0.524  -0.235   0.010
    1res  C4    4   -0.261  -0.381   0.103
    1res  C5    5   -0.307  -0.060   0.258
    1res  C6    6   -0.192   0.281   0.247
    1res  C7    7   -0.127   0.516   0.069
    1res  C8    8   -0.265   0.257  -0.046
    1res  C9    9   -0.215  -0.198  -0.009
    1res  C10   10   -0.009   0.008  -0.112
    1res  C11   11    0.227   0.117   0.075
    1res  C12   12    0.529   0.194  -0.006
    1res  C13   13    0.824   0.291  -0.036
    1res  C14   14    0.574   0.513   0.120
    1res  C15   15    0.190  -0.074  -0.229
    1res  C16   16    0.037  -0.295  -0.103
  10.00000  10.00000  10.00000
