[ moleculetype ]
; name        nrexcl
res           1

[ atoms ]
;    nr  type resnr resid  atom  cgnr     charge       mass
      1 SC4       1 res   C1        1      0.000     54.000
      2 TC3       1 res   C2        2      0.000     36.000
      3 SC3       1 res   C3        3      0.000     54.000
      4 TC3       1 res   C4        4      0.000     36.000
      5 SC4       1 res   C5        5      0.000     54.000
      6 TC3       1 res   C6        6      0.000     36.000
      7 SC4       1 res   C7        7      0.000     54.000
      8 SC4       1 res   C8        8      0.000     54.000
      9 TC3       1 res   C9        9      0.000     36.000
     10 TN6       1 res   C10      10      0.000     36.000
     11 SN4a      1 res   C11      11      0.000     54.000
     12 N4a       1 res   C12      12      0.000     72.000
     13 C1        1 res   C13      13      0.000     72.000
     14 C1        1 res   C14      14      0.000     72.000
     15 C1        1 res   C15      15      0.000     72.000
     16 C1        1 res   C16      16      0.000     72.000
     17 TN6       1 res   C17      17      0.000     36.000
     18 TN6       1 res   C18      18      0.000     36.000
     19 TN6       1 res   C19      19      0.000     36.000
     20 SC4       1 res   C20      20      0.000     54.000
     21 TC3       1 res   C21      21      0.000     36.000

[ bonds ]
;  ai    aj   funct      b0(nm)        k
    1     2     1      0.29435    20000
    2     3     1      0.24286    20000
    3     4     1      0.28196    20000
    3     5     1      0.35163    20000
    4     5     1      0.27755    20000
    5     6     1      0.38279    20000
    5     7     1      0.27102    20000
    6     7     1      0.27580    20000
    7     8     1      0.36677    20000
    7    21     1      0.25571    20000
    8     9     1      0.28706    20000
    8    20     1      0.38593    20000
    8    21     1      0.35287    20000
    9    10     1      0.26349    20000
   10    11     1      0.26342    20000
   10    20     1      0.24388    20000
   11    12     1      0.40517    20000
   11    17     1      0.30743    20000
   11    19     1      0.25632    20000
   12    13     1      0.39916    20000
   13    14     1      0.38262    20000
   14    15     1      0.34920    20000
   15    16     1      0.44712    20000
   17    18     1      0.22116    20000
   18    19     1      0.23769    20000
