[ moleculetype ]
; name        nrexcl
res           1

[ atoms ]
;    nr  type resnr resid  atom  cgnr     charge       mass
      1 TN2a      1 res   C1        1      0.000     36.000
      2 SX1       1 res   C2        2      0.000     54.000
      3 SP1a      1 res   C3        3      0.000     54.000
      4 TC6       1 res   C4        4      0.000     36.000

[ bonds ]
;  ai    aj   funct      b0(nm)        k
    1     2     1      0.23698    20000
    1     4     1      0.21840    20000
    2     3     1      0.30953    20000
    3     4     1      0.30336    20000
