1TPCN01225
12
    1res  C1    1   -0.014   0.199  -0.306
    1res  C2    2   -0.261   0.099  -0.093
    1res  C3    3   -0.189   0.021   0.176
    1res  C4    4   -0.448  -0.138   0.141
    1res  C5    5   -0.265  -0.316   0.193
    1res  C6    6   -0.147  -0.280  -0.075
    1res  C7    7    0.010  -0.009  -0.041
    1res  C8    8    0.279   0.001  -0.016
    1res  C9    9    0.451  -0.184   0.018
    1res  C10   10    0.523   0.127   0.089
    1res  C11   11    0.367   0.278   0.144
    1res  C12   12    0.185   0.148   0.213
  10.00000  10.00000  10.00000
