[ moleculetype ]
; name        nrexcl
res           1

[ atoms ]
;    nr  type resnr resid  atom  cgnr     charge       mass
      1 P1        1 res   C1        1      0.000     72.000
      2 SC3       1 res   C2        2      0.000     54.000
      3 SC4       1 res   C3        3      0.000     54.000
      4 TN6       1 res   C4        4      0.000     36.000
      5 TC3       1 res   C5        5      0.000     36.000
      6 SN6       1 res   C6        6      0.000     54.000
      7 TN6       1 res   C7        7      0.000     36.000
      8 SN4a      1 res   C8        8      0.000     54.000
      9 TP1       1 res   C9        9      0.000     36.000
     10 TN6       1 res   C10      10      0.000     36.000
     11 TN6       1 res   C11      11      0.000     36.000
     12 TN6       1 res   C12      12      0.000     36.000

[ bonds ]
;  ai    aj   funct      b0(nm)        k
    1     2     1      0.34131    20000
    2     3     1      0.28939    20000
    2     7     1      0.29656    20000
    3     4     1      0.30614    20000
    3     6     1      0.39408    20000
    3     7     1      0.29537    20000
    4     5     1      0.26025    20000
    5     6     1      0.29463    20000
    7     8     1      0.27073    20000
    8     9     1      0.25504    20000
    8    10     1      0.29437    20000
    8    12     1      0.28864    20000
   10    11     1      0.22415    20000
   11    12     1      0.23443    20000
