[ moleculetype ]
; name        nrexcl
res           1

[ atoms ]
;    nr  type  resnr resid  atom  cgnr     charge       mass
      1 TN6a      1 res   C1        1      0.000     36.000
      2 TN4a      1 res   C2        2      0.000     36.000
      3 TC3       1 res   C3        3      0.000     36.000
      4 SC2       1 res   C4        4      0.000     54.000
      5 TP1       1 res   C5        5      0.000     36.000
      6 SP1       1 res   C6        6      0.000     54.000

[ constraints ]
;  ai    aj   funct      b0(nm)
    1     2     1      0.28678
    2     3     1      0.21612
    4     5     1      0.27786
    3     4     1      0.28165
    1     3     1      0.30075
    3     6     1      0.27894
    4     6     1      0.28667

[ bonds ]
;  ai    aj   funct      b0(nm)          k(kJ/mol/nm^2)

[ angles ]
;  ai    aj    ak  funct     th0(deg)        k(kJ/mol/rad^2)
    1     2     3     1     71.90803          3723.06
    1     3     2     1     65.00962          4004.02
    1     3     4     1     82.01322          1417.64
    1     3     6     1     68.39277          2509.12
    2     1     3     1     43.08237          6614.05
    2     3     4     1    137.46439           250.85
    2     3     6     1    121.27313           254.88
    3     4     5     1    134.22530           468.84
    3     4     6     1     58.77379          1471.01
    3     6     4     1     59.70389          1679.40
    4     3     6     1     61.52221          1365.24
    5     4     6     1     75.68607          1008.08

[ dihedrals ]
;  ai    aj    ak    al  funct   phi0(deg)        k(kJ/mol)   mult
    1     2     3     4     1    140.09453       17.803      1
    1     2     3     6     1   -141.98029       15.040      1
    1     3     4     5     1   -108.78039       11.462      1
    1     3     4     6     1   -110.02644        4.805      1
    1     3     6     4     1     86.09291        6.278      1
    2     1     3     4     1    -27.99250       15.096      1
    2     1     3     6     1     35.03547       15.767      1
    2     3     4     5     1    -73.30864       19.678      1
    2     3     4     6     1    -75.85211       16.446      1
    2     3     6     4     1     49.25907       12.956      1
    3     6     4     5     1      1.08417        8.540      1
    5     4     3     6     1   -178.85004       11.463      1
