[ moleculetype ]
; name        nrexcl
res           1

[ atoms ]
;    nr  type resnr resid  atom  cgnr     charge       mass
      1 C1        1 res   C1        1      0.000     72.000
      2 C4        1 res   C2        2      0.000     72.000
      3 C4        1 res   C3        3      0.000     72.000
      4 C1        1 res   C4        4      0.000     72.000
      5 SN4a      1 res   C5        5      0.000     54.000
      6 SC5       1 res   C6        6      0.000     54.000
      7 TN6       1 res   C7        7      0.000     36.000
      8 SN6       1 res   C8        8      0.000     54.000
      9 TN3r      1 res   C9        9      0.000     36.000
     10 SC4       1 res   C10      10      0.000     54.000
     11 SN4a      1 res   C11      11      0.000     54.000
     12 TC5       1 res   C12      12      0.000     36.000
     13 TC5       1 res   C13      13      0.000     36.000
     14 TC5       1 res   C14      14      0.000     36.000
     15 TC3       1 res   C15      15      0.000     36.000
     16 TN3r      1 res   C16      16      0.000     36.000
     17 TN6       1 res   C17      17      0.000     36.000
     18 TC5       1 res   C18      18      0.000     36.000
     19 SN3r      1 res   C19      19      0.000     54.000
     20 TN6d      1 res   C20      20      0.000     36.000
     21 TC3       1 res   C21      21      0.000     36.000
     22 SC4       1 res   C22      22      0.000     54.000
     23 TN3r      1 res   C23      23      0.000     36.000

[ bonds ]
;  ai    aj   funct      b0(nm)        k
    1     2     1      0.44163    20000
    2     3     1      0.40991    20000
    3     4     1      0.43442    20000
    4     5     1      0.35474    20000
    5     6     1      0.37377    20000
    6     7     1      0.31587    20000
    6     8     1      0.28799    20000
    6    10     1      0.26079    20000
    6    11     1      0.25390    20000
    6    22     1      0.34110    20000
    7     8     1      0.35374    20000
    8     9     1      0.28981    20000
    8    10     1      0.28986    20000
   10    15     1      0.30597    20000
   10    18     1      0.36238    20000
   10    22     1      0.36358    20000
   11    12     1      0.24710    20000
   12    13     1      0.25824    20000
   12    14     1      0.30229    20000
   13    14     1      0.29091    20000
   15    16     1      0.30395    20000
   15    17     1      0.26416    20000
   17    18     1      0.27531    20000
   18    19     1      0.36068    20000
   18    20     1      0.28172    20000
   18    22     1      0.26556    20000
   20    21     1      0.29551    20000
   20    22     1      0.28836    20000
   22    23     1      0.34461    20000
