1TPCN03139
13
    1res  C1    1    0.127   0.051  -0.275
    1res  C2    2    0.396   0.194  -0.214
    1res  C3    3    0.481  -0.052  -0.258
    1res  C4    4    0.681   0.070  -0.069
    1res  C5    5    0.288  -0.192   0.056
    1res  C6    6    0.057  -0.071  -0.043
    1res  C7    7   -0.079  -0.096   0.114
    1res  C8    8   -0.314  -0.017   0.154
    1res  C9    9   -0.514  -0.019   0.037
    1res  C10   10   -0.638   0.077  -0.145
    1res  C11   11   -0.706   0.039   0.150
    1res  C12   12   -0.605   0.058   0.338
    1res  C13   13   -0.400   0.138   0.320
  10.00000  10.00000  10.00000
