[ moleculetype ]
; name        nrexcl
res           1

[ atoms ]
;    nr  type  resnr resid  atom  cgnr     charge       mass
      1 SN4a      1 res   C1        1      0.000     54.000
      2 TC3       1 res   C2        2      0.000     36.000
      3 SC3       1 res   C3        3      0.000     54.000
      4 TN1       1 res   C4        4      0.000     36.000
      5 TC5       1 res   C5        5      0.000     36.000
      6 TC5       1 res   C6        6      0.000     36.000
      7 TC5       1 res   C7        7      0.000     36.000
      8 SC3       1 res   C8        8      0.000     54.000
      9 TN6       1 res   C9        9      0.000     36.000
     10 SC4       1 res   C10      10      0.000     54.000
     11 TN4a      1 res   C11      11      0.000     36.000

[ bonds ]
;  ai    aj   funct      b0(nm)          k(kJ/mol/nm^2)
    1     2     1      0.35492           8110.7
    2     3     1      0.29083         117232.4
    2     8     1      0.23252          97013.3
    3     4     1      0.33501          19929.3
    3     8     1      0.33518         120165.4
    3     9     1      0.27752         121324.3
    3    10     1      0.30289          50003.4
    4     5     1      0.23385         232098.1
    5     6     1      0.24822         292623.5
    5     7     1      0.24739         284364.7
    5     8     1      0.33645          53373.4
    6     7     1      0.29021         201168.8
    8     9     1      0.23348          86084.5
    9    10     1      0.24947         100946.6
   10    11     1      0.31849          36850.0

[ angles ]
;  ai    aj    ak  funct     th0(deg)        k(kJ/mol/rad^2)
    1     2     3     1     82.18888           345.31
    1     2     8     1    133.35385            84.81
    2     3     4     1     97.67942          2872.39
    2     3     8     1     42.87450          7422.96
    2     3     9     1     82.44257          3684.97
    2     3    10     1    103.84680          1573.37
    2     8     3     1     58.33261          4884.44
    2     8     5     1     83.65707          1023.75
    2     8     9     1    107.04750          1989.06
    3     2     8     1     78.79287          3783.94
    3     4     5     1     91.95358          1327.86
    3     8     5     1     76.32400          2791.46
    3     8     9     1     54.96395          5336.71
    3     9     8     1     81.49860          3058.50
    3     9    10     1     69.93890          2405.30
    3    10     9     1     59.38962          3893.09
    3    10    11     1     86.28019          1293.40
    4     3     8     1     75.99543           782.63
    4     3     9     1     81.95776           324.46
    4     3    10     1    123.11184           300.90
    4     5     6     1     95.27010          1598.71
    4     5     7     1    165.18492           871.89
    4     5     8     1     90.78681          1535.82
    5     6     7     1     54.02429          9640.20
    5     7     6     1     54.28931         10123.99
    5     8     9     1    105.43310          1794.79
    6     5     7     1     71.68638          5826.17
    6     5     8     1    160.63636           337.00
    7     5     8     1    101.86204           592.40
    8     3     9     1     43.53746          5936.76
    8     3    10     1     85.53107          2341.17
    8     9    10     1    127.88983          1599.31
    9     3    10     1     50.67148          6230.71
    9    10    11     1     98.91919           576.32
