1TPCN05766
37
    1res  C1    1   -0.729   0.316  -0.253
    1res  C2    2   -0.737   0.243  -0.003
    1res  C3    3   -0.742   0.050   0.057
    1res  C4    4   -0.607  -0.036   0.200
    1res  C5    5   -0.378   0.054  -0.026
    1res  C6    6   -0.260  -0.157   0.071
    1res  C7    7    0.005  -0.098   0.246
    1res  C8    8   -0.051  -0.311   0.074
    1res  C9    9    0.059  -0.025  -0.150
    1res  C10   10    0.148  -0.365  -0.094
    1res  C11   11    0.369  -0.209  -0.220
    1res  C12   12    0.529  -0.266  -0.443
    1res  C13   13    0.618  -0.343  -0.178
    1res  C14   14    0.521  -0.092   0.074
    1res  C15   15    0.777   0.025   0.077
    1res  C16   16    1.066   0.063   0.038
    1res  C17   17    1.274   0.252  -0.003
    1res  C18   18    1.288   0.489  -0.208
    1res  C19   19    1.377   0.486   0.073
    1res  C20   20    1.463   0.286   0.223
    1res  C21   21    1.209   0.303   0.250
    1res  C22   22    0.974  -0.099   0.267
    1res  C23   23    0.867   0.103   0.367
    1res  C24   24    0.637   0.094   0.295
    1res  C25   25    0.349  -0.367   0.089
    1res  C26   26   -0.316   0.079   0.316
    1res  C27   27   -0.701  -0.277   0.173
    1res  C28   28   -0.812  -0.268  -0.050
    1res  C29   29   -0.900  -0.071   0.020
    1res  C30   30   -1.097  -0.152  -0.216
    1res  C31   31   -1.305  -0.299  -0.234
    1res  C32   32   -1.258  -0.037  -0.414
    1res  C33   33   -1.294   0.116  -0.201
    1res  C34   34   -1.085   0.119  -0.084
    1res  C35   35   -0.786   0.360   0.187
    1res  C36   36   -0.772   0.558   0.090
    1res  C37   37   -0.598   0.493  -0.093
  10.00000  10.00000  10.00000
