[ moleculetype ]
; name        nrexcl
res           1

[ atoms ]
;    nr  type  resnr resid  atom  cgnr     charge       mass
      1 TN6d      1 res   C1        1      0.000     36.000
      2 TN6       1 res   C2        2      0.000     36.000
      3 TC3       1 res   C3        3      0.000     36.000
      4 SP2       1 res   C4        4      0.000     54.000

[ constraints ]
;  ai    aj   funct      b0(nm)
    1     3     1      0.26706
    3     4     1      0.28564

[ bonds ]
;  ai    aj   funct      b0(nm)          k(kJ/mol/nm^2)
    1     2     1      0.24757           9917.7
    2     3     1      0.26435          13474.0

[ angles ]
;  ai    aj    ak  funct     th0(deg)        k(kJ/mol/rad^2)
    1     2     3     1     62.79975           807.56
    1     3     2     1     55.50114           540.76
    1     3     4     1     85.34788           560.45
    2     1     3     1     61.69798           513.37
    2     3     4     1    124.27451           130.69

[ dihedrals ]
;  ai    aj    ak    al  funct   phi0(deg)        k(kJ/mol)   mult
    1     2     3     4     1   -129.90213       17.699      1
    2     1     3     4     1     41.95099       17.856      1
