[ moleculetype ]
; name        nrexcl
res           1

[ atoms ]
;    nr  type resnr resid  atom  cgnr     charge       mass
      1 SC4       1 res   C1        1      0.000     54.000
      2 TC3       1 res   C2        2      0.000     36.000
      3 SC5       1 res   C3        3      0.000     54.000
      4 SP2       1 res   C4        4      0.000     54.000
      5 SN6       1 res   C5        5      0.000     54.000
      6 SC4       1 res   C6        6      0.000     54.000
      7 TC3       1 res   C7        7      0.000     36.000
      8 SC4       1 res   C8        8      0.000     54.000
      9 SC4       1 res   C9        9      0.000     54.000
     10 TC3       1 res   C10      10      0.000     36.000
     11 TN6       1 res   C11      11      0.000     36.000
     12 SN4a      1 res   C12      12      0.000     54.000
     13 SP2       1 res   C13      13      0.000     54.000
     14 TN6       1 res   C14      14      0.000     36.000
     15 TN6       1 res   C15      15      0.000     36.000
     16 SN4a      1 res   C16      16      0.000     54.000
     17 TN6       1 res   C17      17      0.000     36.000
     18 TN6       1 res   C18      18      0.000     36.000
     19 TN6       1 res   C19      19      0.000     36.000
     20 TN6       1 res   C20      20      0.000     36.000
     21 SN4a      1 res   C21      21      0.000     54.000
     22 TP1       1 res   C22      22      0.000     36.000
     23 TN6       1 res   C23      23      0.000     36.000
     24 TN6       1 res   C24      24      0.000     36.000
     25 TN6       1 res   C25      25      0.000     36.000
     26 TC4       1 res   C26      26      0.000     36.000
     27 TN4a      1 res   C27      27      0.000     36.000
     28 TC3       1 res   C28      28      0.000     36.000

[ bonds ]
;  ai    aj   funct      b0(nm)        k
    1     2     1      0.29411    20000
    1     3     1      0.28120    20000
    2     3     1      0.27236    20000
    3     4     1      0.39586    20000
    3     5     1      0.33864    20000
    3     6     1      0.32878    20000
    5     6     1      0.27000    20000
    6     7     1      0.30425    20000
    6     8     1      0.34476    20000
    7     8     1      0.32305    20000
    8     9     1      0.40473    20000
    8    28     1      0.26772    20000
    9    10     1      0.31413    20000
    9    26     1      0.30469    20000
    9    28     1      0.33273    20000
   10    11     1      0.25731    20000
   11    12     1      0.29601    20000
   11    26     1      0.27754    20000
   12    13     1      0.26670    20000
   12    14     1      0.27391    20000
   12    20     1      0.26456    20000
   14    15     1      0.23749    20000
   15    16     1      0.31996    20000
   15    20     1      0.21406    20000
   16    17     1      0.26076    20000
   16    19     1      0.29984    20000
   17    18     1      0.21639    20000
   18    19     1      0.23573    20000
   20    21     1      0.29472    20000
   21    22     1      0.30539    20000
   21    23     1      0.25604    20000
   21    25     1      0.27000    20000
   23    24     1      0.25694    20000
   24    25     1      0.21621    20000
   26    27     1      0.26888    20000
