1TPCN00611
11
    1res  C1    1   -0.271   0.053   0.237
    1res  C2    2   -0.395  -0.066   0.048
    1res  C3    3   -0.207  -0.189  -0.081
    1res  C4    4   -0.050  -0.074   0.023
    1res  C5    5    0.088   0.102  -0.031
    1res  C6    6    0.212  -0.221   0.068
    1res  C7    7    0.304  -0.028   0.015
    1res  C8    8    0.537  -0.116   0.031
    1res  C9    9    0.460   0.157  -0.045
    1res  C10   10   -0.137   0.092  -0.085
    1res  C11   11   -0.307   0.167  -0.212
  10.00000  10.00000  10.00000
