1TECE
9
    1res  C1    1   -0.243  -0.006  -0.015
    1res  C2    2   -0.085   0.151  -0.003
    1res  C3    3    0.158   0.157   0.003
    1res  C4    4    0.446   0.156   0.009
    1res  C5    5    0.453  -0.135  -0.006
    1res  C6    6    0.166  -0.149  -0.013
    1res  C7    7   -0.077  -0.155  -0.019
    1res  C8    8   -0.446  -0.156  -0.027
    1res  C9    9   -0.453   0.135  -0.012
  10.00000  10.00000  10.00000
