1TPCN04981
28
    1res  C1    1   -1.046  -0.241   0.125
    1res  C2    2   -1.099  -0.061  -0.096
    1res  C3    3   -0.890   0.015   0.101
    1res  C4    4   -1.008   0.284  -0.091
    1res  C5    5   -0.769   0.033  -0.251
    1res  C6    6   -0.651  -0.189  -0.066
    1res  C7    7   -0.523   0.041   0.173
    1res  C8    8   -0.474   0.059  -0.085
    1res  C9    9   -0.230  -0.158  -0.036
    1res  C10   10   -0.117  -0.094   0.179
    1res  C11   11    0.056   0.044   0.087
    1res  C12   12    0.351   0.056   0.036
    1res  C13   13    0.536   0.005   0.194
    1res  C14   14    0.757   0.173   0.310
    1res  C15   15    0.631   0.427   0.330
    1res  C16   16    0.917   0.367   0.162
    1res  C17   17    0.751   0.248  -0.002
    1res  C18   18    0.830   0.060   0.097
    1res  C19   19    0.974  -0.039  -0.138
    1res  C20   20    0.985  -0.064  -0.446
    1res  C21   21    0.983  -0.270  -0.261
    1res  C22   22    1.106  -0.263  -0.053
    1res  C23   23    0.889  -0.242   0.062
    1res  C24   24    0.367  -0.058   0.331
    1res  C25   25    0.223   0.167   0.289
    1res  C26   26    0.043  -0.061  -0.169
    1res  C27   27   -0.034   0.213  -0.164
    1res  C28   28   -0.326  -0.069  -0.269
  10.00000  10.00000  10.00000
