[ moleculetype ]
; name        nrexcl
res           1

[ atoms ]
;    nr  type resnr resid  atom  cgnr     charge       mass
      1 TC4       1 res   C1        1      0.000     36.000
      2 TN4a      1 res   C2        2      0.000     36.000
      3 TN6       1 res   C3        3      0.000     36.000
      4 TN6       1 res   C4        4      0.000     36.000
      5 SC3       1 res   C5        5      0.000     54.000
      6 SC4       1 res   C6        6      0.000     54.000
      7 TC3       1 res   C7        7      0.000     36.000
      8 SC4       1 res   C8        8      0.000     54.000
      9 TC3       1 res   C9        9      0.000     36.000
     10 SC4       1 res   C10      10      0.000     54.000
     11 SC5       1 res   C11      11      0.000     54.000
     12 SC4       1 res   C12      12      0.000     54.000
     13 TC3       1 res   C13      13      0.000     36.000
     14 SN4a      1 res   C14      14      0.000     54.000
     15 SN4a      1 res   C15      15      0.000     54.000
     16 TN3r      1 res   C16      16      0.000     36.000
     17 SN4a      1 res   C17      17      0.000     54.000
     18 TN3r      1 res   C18      18      0.000     36.000
     19 SN4a      1 res   C19      19      0.000     54.000
     20 TN6       1 res   C20      20      0.000     36.000
     21 TN6       1 res   C21      21      0.000     36.000
     22 TN6       1 res   C22      22      0.000     36.000
     23 TN6       1 res   C23      23      0.000     36.000
     24 TN6       1 res   C24      24      0.000     36.000
     25 TN6       1 res   C25      25      0.000     36.000
     26 SN4a      1 res   C26      26      0.000     54.000
     27 TP1       1 res   C27      27      0.000     36.000
     28 TN6       1 res   C28      28      0.000     36.000
     29 TN6       1 res   C29      29      0.000     36.000
     30 TN6       1 res   C30      30      0.000     36.000
     31 TN6       1 res   C31      31      0.000     36.000
     32 TN6       1 res   C32      32      0.000     36.000
     33 TN6       1 res   C33      33      0.000     36.000
     34 TC3       1 res   C34      34      0.000     36.000
     35 SC4       1 res   C35      35      0.000     54.000
     36 TN4a      1 res   C36      36      0.000     36.000
     37 TN6       1 res   C37      37      0.000     36.000
     38 TN6       1 res   C38      38      0.000     36.000
     39 TN6       1 res   C39      39      0.000     36.000
     40 TN6       1 res   C40      40      0.000     36.000
     41 TN6       1 res   C41      41      0.000     36.000

[ bonds ]
;  ai    aj   funct      b0(nm)        k
    1     2     1      0.32165    20000
    1    41     1      0.27025    20000
    2     3     1      0.20002    20000
    2    39     1      0.24527    20000
    3     4     1      0.21244    20000
    3    38     1      0.22332    20000
    4     5     1      0.32760    20000
    4    36     1      0.28170    20000
    5     6     1      0.32465    20000
    5    35     1      0.34176    20000
    6     7     1      0.35649    20000
    6     8     1      0.40243    20000
    6    35     1      0.33833    20000
    7     8     1      0.27757    20000
    8     9     1      0.29900    20000
    8    10     1      0.34861    20000
    9    10     1      0.36092    20000
   10    11     1      0.30543    20000
   10    34     1      0.26588    20000
   11    12     1      0.28083    20000
   11    13     1      0.27228    20000
   11    14     1      0.35297    20000
   11    34     1      0.33423    20000
   12    13     1      0.29606    20000
   14    15     1      0.28197    20000
   15    16     1      0.29106    20000
   15    31     1      0.28590    20000
   15    33     1      0.28338    20000
   16    17     1      0.31475    20000
   17    18     1      0.29213    20000
   17    23     1      0.28570    20000
   17    25     1      0.23595    20000
   18    19     1      0.34947    20000
   19    20     1      0.25092    20000
   19    22     1      0.32316    20000
   20    21     1      0.21832    20000
   21    22     1      0.24106    20000
   23    24     1      0.24161    20000
   24    25     1      0.22831    20000
   25    26     1      0.26272    20000
   26    27     1      0.32773    20000
   26    28     1      0.29474    20000
   26    30     1      0.24534    20000
   28    29     1      0.24597    20000
   29    30     1      0.25551    20000
   31    32     1      0.23219    20000
   32    33     1      0.21534    20000
   36    37     1      0.22279    20000
   37    38     1      0.24153    20000
   39    40     1      0.23763    20000
   40    41     1      0.24541    20000
