1TPCN05950
41
    1res  C1    1    1.200  -0.103  -0.242
    1res  C2    2    1.325   0.142  -0.075
    1res  C3    3    1.213   0.183   0.086
    1res  C4    4    1.032   0.138   0.187
    1res  C5    5    0.809   0.051  -0.036
    1res  C6    6    0.599  -0.168   0.081
    1res  C7    7    0.465   0.151   0.169
    1res  C8    8    0.364   0.112  -0.086
    1res  C9    9    0.413  -0.144  -0.231
    1res  C10   10    0.278  -0.167   0.103
    1res  C11   11    0.098  -0.312  -0.096
    1res  C12   12    0.011  -0.570  -0.168
    1res  C13   13   -0.171  -0.354  -0.078
    1res  C14   14   -0.125  -0.048  -0.168
    1res  C15   15   -0.359   0.100  -0.222
    1res  C16   16   -0.642   0.048  -0.178
    1res  C17   17   -0.864  -0.001   0.040
    1res  C18   18   -0.939  -0.125   0.294
    1res  C19   19   -1.253  -0.124   0.140
    1res  C20   20   -1.494  -0.191   0.154
    1res  C21   21   -1.436  -0.337   0.305
    1res  C22   22   -1.249  -0.256   0.435
    1res  C23   23   -0.946   0.153   0.265
    1res  C24   24   -0.833   0.309   0.119
    1res  C25   25   -0.891   0.203  -0.075
    1res  C26   26   -1.138   0.245  -0.152
    1res  C27   27   -1.460   0.241  -0.092
    1res  C28   28   -1.345   0.163  -0.346
    1res  C29   29   -1.144   0.032  -0.403
    1res  C30   30   -1.031   0.259  -0.372
    1res  C31   31   -0.521   0.332  -0.261
    1res  C32   32   -0.423   0.333  -0.050
    1res  C33   33   -0.220   0.264  -0.037
    1res  C34   34    0.041  -0.049   0.101
    1res  C35   35    0.808  -0.015   0.299
    1res  C36   36    1.222   0.074   0.385
    1res  C37   37    1.303   0.279   0.414
    1res  C38   38    1.319   0.353   0.184
    1res  C39   39    1.530   0.064   0.034
    1res  C40   40    1.616   0.032  -0.185
    1res  C41   41    1.446  -0.050  -0.342
  10.00000  10.00000  10.00000
