[ moleculetype ]
; name        nrexcl
res           1

[ atoms ]
;    nr  type  resnr resid  atom  cgnr     charge       mass
      1 SX3       1 res   C1        1      0.000     54.000
      2 TC5       1 res   C2        2      0.000     36.000
      3 TN4a      1 res   C3        3      0.000     36.000
      4 TC5       1 res   C4        4      0.000     36.000

[ constraints ]
;  ai    aj   funct      b0(nm)
    1     2     1      0.30899
    2     3     1      0.24232
    1     4     1      0.30410
    2     4     1      0.25604

[ bonds ]
;  ai    aj   funct      b0(nm)          k(kJ/mol/nm^2)

[ angles ]
;  ai    aj    ak  funct     th0(deg)        k(kJ/mol/rad^2)
    1     2     3     1     82.92248          2333.12
    1     2     4     1     64.33014          5326.23
    1     4     2     1     66.31282          6632.01
    2     1     4     1     49.35705         11053.33
    3     2     4     1    146.43624          1303.77

[ dihedrals ]
;  ai    aj    ak    al  funct   phi0(deg)        k(kJ/mol)   mult
    1     4     2     3     1    178.08857       20.475      1
    3     2     1     4     1     -0.97944       12.963      1
