[ moleculetype ]
; name        nrexcl
res           1

[ atoms ]
;    nr  type resnr resid  atom  cgnr     charge       mass
      1 TC4       1 res   C1        1      0.000     36.000
      2 TN4a      1 res   C2        2      0.000     36.000
      3 TN6       1 res   C3        3      0.000     36.000
      4 TN6       1 res   C4        4      0.000     36.000
      5 SC3       1 res   C5        5      0.000     54.000
      6 SC4       1 res   C6        6      0.000     54.000
      7 TC3       1 res   C7        7      0.000     36.000
      8 SC4       1 res   C8        8      0.000     54.000
      9 TC3       1 res   C9        9      0.000     36.000
     10 SC4       1 res   C10      10      0.000     54.000
     11 TC5       1 res   C11      11      0.000     36.000
     12 SN4a      1 res   C12      12      0.000     54.000
     13 SN4a      1 res   C13      13      0.000     54.000
     14 TP1       1 res   C14      14      0.000     36.000
     15 TN6       1 res   C15      15      0.000     36.000
     16 TN6       1 res   C16      16      0.000     36.000
     17 TN6       1 res   C17      17      0.000     36.000
     18 TC3       1 res   C18      18      0.000     36.000
     19 TC4       1 res   C19      19      0.000     36.000
     20 SN6       1 res   C20      20      0.000     54.000
     21 TC3       1 res   C21      21      0.000     36.000
     22 SC4       1 res   C22      22      0.000     54.000
     23 TN4a      1 res   C23      23      0.000     36.000
     24 TN6       1 res   C24      24      0.000     36.000
     25 TN6       1 res   C25      25      0.000     36.000
     26 TN6       1 res   C26      26      0.000     36.000
     27 TN6       1 res   C27      27      0.000     36.000
     28 TN6       1 res   C28      28      0.000     36.000

[ bonds ]
;  ai    aj   funct      b0(nm)        k
    1     2     1      0.29993    20000
    1    28     1      0.24703    20000
    2     3     1      0.20041    20000
    2    26     1      0.25867    20000
    3     4     1      0.21346    20000
    3    25     1      0.20736    20000
    4     5     1      0.28714    20000
    4    23     1      0.28241    20000
    5     6     1      0.25660    20000
    5    22     1      0.35389    20000
    6     7     1      0.32721    20000
    6     8     1      0.34661    20000
    6    22     1      0.32289    20000
    7     8     1      0.30857    20000
    8     9     1      0.37930    20000
    8    10     1      0.31041    20000
    9    10     1      0.38801    20000
   10    11     1      0.26686    20000
   10    21     1      0.27693    20000
   11    12     1      0.29422    20000
   11    18     1      0.26044    20000
   11    20     1      0.28594    20000
   11    21     1      0.26637    20000
   12    13     1      0.27996    20000
   13    14     1      0.25769    20000
   13    15     1      0.27025    20000
   13    17     1      0.27707    20000
   15    16     1      0.23141    20000
   16    17     1      0.25800    20000
   18    19     1      0.30507    20000
   19    20     1      0.27390    20000
   23    24     1      0.23497    20000
   24    25     1      0.27964    20000
   26    27     1      0.22260    20000
   27    28     1      0.26941    20000
