1TPCN02378
14
    1res  C1    1    0.098  -0.203  -0.316
    1res  C2    2    0.261  -0.085  -0.136
    1res  C3    3    0.168  -0.042   0.106
    1res  C4    4    0.546  -0.130   0.152
    1res  C5    5    0.262   0.224  -0.050
    1res  C6    6    0.008   0.394  -0.194
    1res  C7    7   -0.002   0.024  -0.086
    1res  C8    8   -0.117   0.089   0.155
    1res  C9    9   -0.296   0.145   0.033
    1res  C10   10   -0.331  -0.109  -0.072
    1res  C11   11   -0.451  -0.034  -0.286
    1res  C12   12   -0.130  -0.187   0.074
    1res  C13   13   -0.362   0.128   0.373
    1res  C14   14    0.078  -0.263   0.299
  10.00000  10.00000  10.00000
