[ moleculetype ]
; name        nrexcl
res           1

[ atoms ]
;    nr  type  resnr resid  atom  cgnr     charge       mass
      1 TC5       1 res   C1        1      0.000     36.000
      2 SX3       1 res   C2        2      0.000     54.000
      3 TC5       1 res   C3        3      0.000     36.000
      4 SX3       1 res   C4        4      0.000     54.000
      5 TN6a      1 res   C5        5      0.000     36.000
      6 TX3       1 res   C6        6      0.000     36.000

[ constraints ]
;  ai    aj   funct      b0(nm)
    1     2     1      0.22819
    3     5     1      0.22047
    1     5     1      0.25038
    3     4     1      0.23174
    1     3     1      0.26718
    5     6     1      0.21416

[ bonds ]
;  ai    aj   funct      b0(nm)          k(kJ/mol/nm^2)

[ angles ]
;  ai    aj    ak  funct     th0(deg)        k(kJ/mol/rad^2)
    1     3     4     1     76.45843          1811.20
    1     3     5     1     60.89576          6296.95
    1     5     3     1     68.80963          5113.50
    1     5     6     1    156.30781           669.80
    2     1     3     1    134.57055           934.47
    2     1     5     1     85.47176          1872.65
    3     1     5     1     50.29459          7978.87
    3     5     6     1     89.38712          1088.38
    4     3     5     1    136.46911          1072.45

[ dihedrals ]
;  ai    aj    ak    al  funct   phi0(deg)        k(kJ/mol)   mult
    1     3     5     6     1      0.01560       16.434      1
    1     5     3     4     1   -178.00866       20.451      1
    2     1     3     4     1     -0.85486       23.413      1
    2     1     3     5     1    178.67941       21.511      1
    2     1     5     3     1     -0.99220       18.452      1
    2     1     5     6     1      1.88605       27.957      1
    3     1     5     6     1   -178.17709       26.931      1
    4     3     1     5     1      0.04375       15.062      1
    4     3     5     6     1      1.95966       23.198      1
