1TPCN02834
14
    1res  C1    1   -0.264  -0.365   0.025
    1res  C2    2   -0.091  -0.189   0.002
    1res  C3    3   -0.323  -0.098  -0.036
    1res  C4    4   -0.130  -0.060  -0.202
    1res  C5    5   -0.285   0.147  -0.192
    1res  C6    6   -0.134   0.111  -0.007
    1res  C7    7   -0.315   0.240   0.238
    1res  C8    8    0.031  -0.034   0.177
    1res  C9    9    0.128  -0.102  -0.188
    1res  C10   10    0.220   0.141  -0.190
    1res  C11   11    0.309   0.046   0.090
    1res  C12   12    0.487   0.222   0.129
    1res  C13   13    0.249  -0.213   0.046
    1res  C14   14    0.396  -0.082  -0.198
  10.00000  10.00000  10.00000
