1TPCN05664
38
    1res  C1    1   -0.365  -0.469  -0.559
    1res  C2    2   -0.448  -0.247  -0.420
    1res  C3    3   -0.410  -0.238  -0.205
    1res  C4    4   -0.300  -0.107  -0.057
    1res  C5    5   -0.026  -0.131  -0.153
    1res  C6    6    0.160  -0.344  -0.091
    1res  C7    7    0.233  -0.092   0.171
    1res  C8    8    0.333  -0.023  -0.058
    1res  C9    9    0.439  -0.163  -0.280
    1res  C10   10    0.591  -0.180   0.006
    1res  C11   11    0.739   0.055  -0.237
    1res  C12   12    0.896   0.172  -0.443
    1res  C13   13    0.863   0.323  -0.163
    1res  C14   14    0.927  -0.009  -0.013
    1res  C15   15    0.607   0.094   0.099
    1res  C16   16    0.715   0.364   0.319
    1res  C17   17    0.898   0.174   0.471
    1res  C18   18    1.037   0.003   0.441
    1res  C19   19    1.261  -0.104   0.222
    1res  C20   20    1.063   0.208   0.221
    1res  C21   21   -0.089  -0.252   0.205
    1res  C22   22   -0.077  -0.451   0.024
    1res  C23   23   -0.475  -0.099   0.055
    1res  C24   24   -0.636  -0.012   0.287
    1res  C25   25   -0.754  -0.181   0.428
    1res  C26   26   -0.678   0.097   0.536
    1res  C27   27   -0.447   0.004   0.528
    1res  C28   28   -0.386   0.138   0.312
    1res  C29   29   -0.636  -0.068  -0.073
    1res  C30   30   -0.942  -0.156  -0.153
    1res  C31   31   -1.112  -0.010  -0.189
    1res  C32   32   -1.097   0.014   0.072
    1res  C33   33   -0.887   0.079   0.015
    1res  C34   34   -0.957   0.357  -0.076
    1res  C35   35   -0.879   0.628  -0.096
    1res  C36   36   -0.760   0.570   0.075
    1res  C37   37   -0.733   0.336   0.097
    1res  C38   38   -0.658  -0.270  -0.195
  10.00000  10.00000  10.00000
