1TPCN02639
14
    1res  C1    1   -0.265  -0.256   0.201
    1res  C2    2   -0.326  -0.071   0.020
    1res  C3    3   -0.343   0.206  -0.031
    1res  C4    4   -0.204   0.226   0.187
    1res  C5    5   -0.053   0.003   0.067
    1res  C6    6    0.113   0.170  -0.068
    1res  C7    7    0.251   0.142   0.103
    1res  C8    8    0.255  -0.160   0.029
    1res  C9    9    0.281  -0.238   0.277
    1res  C10   10    0.176  -0.080  -0.206
    1res  C11   11    0.449   0.109  -0.221
    1res  C12   12   -0.050  -0.175  -0.146
    1res  C13   13   -0.113   0.114  -0.175
    1res  C14   14   -0.188  -0.053  -0.397
  10.00000  10.00000  10.00000
