[ moleculetype ]
; name        nrexcl
res           1

[ atoms ]
;    nr  type  resnr resid  atom  cgnr     charge       mass
      1 SC2       1 res   C1        1      0.000     54.000
      2 TC3       1 res   C2        2      0.000     36.000
      3 TC5       1 res   C3        3      0.000     36.000
      4 TC3       1 res   C4        4      0.000     36.000
      5 SC3       1 res   C5        5      0.000     54.000
      6 SN4a      1 res   C6        6      0.000     54.000
      7 SN4a      1 res   C7        7      0.000     54.000
      8 SC3       1 res   C8        8      0.000     54.000
      9 SN4a      1 res   C9        9      0.000     54.000
     10 SC3       1 res   C10      10      0.000     54.000
     11 SN6a      1 res   C11      11      0.000     54.000
     12 TC5       1 res   C12      12      0.000     36.000
     13 TC5       1 res   C13      13      0.000     36.000
     14 TC5       1 res   C14      14      0.000     36.000
     15 TC5       1 res   C15      15      0.000     36.000

[ constraints ]
;  ai    aj   funct      b0(nm)
    1     2     1      0.28286
   14    15     1      0.28813
    2     3     1      0.29454
    4     5     1      0.24266
    9    11     1      0.27801
   13    14     1      0.25608
    3     4     1      0.30981
    7     8     1      0.21944
    5     6     1      0.28962
    9    10     1      0.22502
    6     7     1      0.23464
   13    15     1      0.29854
    2     4     1      0.22775
    8     9     1      0.22407

[ bonds ]
;  ai    aj   funct      b0(nm)          k(kJ/mol/nm^2)
    7    10     1      0.27272          17248.7
   12    13     1      0.25810          10957.2
    5    12     1      0.30232          16634.8

[ angles ]
;  ai    aj    ak  funct     th0(deg)        k(kJ/mol/rad^2)
    1     2     3     1     76.14491           982.52
    1     2     4     1    145.11217           169.96
    2     3     4     1     44.15340          4237.22
    2     4     3     1     64.32796          1687.18
    2     4     5     1    132.85409           464.22
    3     2     4     1     71.51863           960.65
    3     4     5     1     78.68755          1219.35
    4     5     6     1    109.81086            95.24
    4     5    12     1     98.98783           108.22
    5     6     7     1     88.16510            55.95
    5    12    13     1    150.10645            49.04
    6     5    12     1    105.98952           147.64
    6     7     8     1     95.58158            96.46
    6     7    10     1    120.42882            57.21
    7     8     9     1     96.50216           102.81
    7    10     9     1     82.34941           276.66
    8     7    10     1     83.51115           297.77
    8     9    10     1     94.55687           730.26
    8     9    11     1    119.19316           134.04
   10     9    11     1     78.64769          1163.26
   12    13    14     1    141.08431           177.58
   12    13    15     1     80.19144           177.35
   13    14    15     1     66.23437          6385.74
   13    15    14     1     51.72139          9775.41
   14    13    15     1     62.04424          6014.31

[ dihedrals ]
;  ai    aj    ak    al  funct   phi0(deg)        k(kJ/mol)   mult
    1     2     3     4     1    -14.98399       13.585      1
    1     2     4     3     1    162.67186       18.410      1
    1     2     4     5     1   -161.03653       20.836      1
    2     3     4     5     1     26.95739       14.311      1
    2     4     5     6     1    -45.61158       17.693      1
    2     4     5    12     1   -155.62112       17.759      1
    3     2     4     5     1   -143.21231       18.333      1
    3     4     5     6     1    -14.49008       10.690      1
    3     4     5    12     1   -121.03423       10.011      1
    4     5     6     7     1    -27.80893       13.831      1
    4     5    12    13     1      5.40300       18.625      1
    5     6     7     8     1    -16.87715       28.580      1
    5     6     7    10     1    -97.95795       26.286      1
    5    12    13    14     1    -15.48944       24.686      1
    5    12    13    15     1    -16.29776       26.582      1
    6     5    12    13     1   -121.82638       16.023      1
    6     7     8     9     1     46.86765       18.329      1
    6     7    10     9     1    -82.18910       13.418      1
    7     6     5    12     1     84.86827       15.872      1
    7     8     9    10     1   -170.19041       17.105      1
    7     8     9    11     1    111.15508       15.052      1
    7    10     9     8     1    169.31017       16.529      1
    7    10     9    11     1    -72.40545       14.984      1
    8     7    10     9     1   -169.87485       15.813      1
    9     8     7    10     1    169.34028       16.561      1
   12    13    14    15     1   -176.72744       22.224      1
   12    13    15    14     1      0.14005       15.102      1
