1TPCN04355
28
    1res  C1    1    0.887  -0.198   0.198
    1res  C2    2    0.591  -0.167   0.134
    1res  C3    3    0.443  -0.291   0.114
    1res  C4    4    0.231  -0.288   0.099
    1res  C5    5   -0.063  -0.234   0.026
    1res  C6    6   -0.142   0.008   0.143
    1res  C7    7   -0.174   0.015  -0.233
    1res  C8    8   -0.318   0.184  -0.051
    1res  C9    9   -0.504  -0.098   0.073
    1res  C10   10   -0.546  -0.014  -0.229
    1res  C11   11   -0.810   0.079  -0.021
    1res  C12   12   -1.082   0.034  -0.049
    1res  C13   13   -0.964   0.304  -0.092
    1res  C14   14   -0.705   0.307   0.168
    1res  C15   15   -0.588   0.288  -0.202
    1res  C16   16    0.164   0.014  -0.114
    1res  C17   17    0.176   0.070   0.156
    1res  C18   18    0.226  -0.551   0.049
    1res  C19   19    0.100  -0.592   0.249
    1res  C20   20    0.405  -0.591   0.238
    1res  C21   21    0.544  -0.502   0.071
    1res  C22   22    0.570  -0.001  -0.022
    1res  C23   23    0.796   0.036   0.181
    1res  C24   24    0.740   0.205  -0.028
    1res  C25   25    0.911   0.424  -0.073
    1res  C26   26    0.886   0.374  -0.294
    1res  C27   27    0.650   0.464  -0.257
    1res  C28   28    0.609   0.390  -0.049
  10.00000  10.00000  10.00000
