[ moleculetype ]
; name        nrexcl
res           1

[ atoms ]
;    nr  type resnr resid  atom  cgnr     charge       mass
      1 TC4       1 res   C1        1      0.000     36.000
      2 TN4a      1 res   C2        2      0.000     36.000
      3 SN4a      1 res   C3        3      0.000     54.000
      4 SC5       1 res   C4        4      0.000     54.000
      5 TC3       1 res   C5        5      0.000     36.000
      6 SC4       1 res   C6        6      0.000     54.000
      7 SC4       1 res   C7        7      0.000     54.000
      8 TC3       1 res   C8        8      0.000     36.000
      9 SC4       1 res   C9        9      0.000     54.000
     10 SC4       1 res   C10      10      0.000     54.000
     11 TC3       1 res   C11      11      0.000     36.000
     12 TN6       1 res   C12      12      0.000     36.000
     13 SN4a      1 res   C13      13      0.000     54.000
     14 SP2       1 res   C14      14      0.000     54.000
     15 TN6       1 res   C15      15      0.000     36.000
     16 TN6       1 res   C16      16      0.000     36.000
     17 SN4a      1 res   C17      17      0.000     54.000
     18 TN6       1 res   C18      18      0.000     36.000
     19 TN6       1 res   C19      19      0.000     36.000
     20 TN6       1 res   C20      20      0.000     36.000
     21 TN6       1 res   C21      21      0.000     36.000
     22 SN4a      1 res   C22      22      0.000     54.000
     23 TP1       1 res   C23      23      0.000     36.000
     24 TN6       1 res   C24      24      0.000     36.000
     25 TN6       1 res   C25      25      0.000     36.000
     26 TN6       1 res   C26      26      0.000     36.000
     27 TC4       1 res   C27      27      0.000     36.000
     28 TN4a      1 res   C28      28      0.000     36.000
     29 TC3       1 res   C29      29      0.000     36.000
     30 SN6       1 res   C30      30      0.000     54.000
     31 TN6       1 res   C31      31      0.000     36.000
     32 TN4a      1 res   C32      32      0.000     36.000
     33 TC4       1 res   C33      33      0.000     36.000
     34 TN6       1 res   C34      34      0.000     36.000
     35 SN4a      1 res   C35      35      0.000     54.000
     36 TN6       1 res   C36      36      0.000     36.000
     37 TN6       1 res   C37      37      0.000     36.000
     38 SN4a      1 res   C38      38      0.000     54.000
     39 TN6       1 res   C39      39      0.000     36.000
     40 SN4a      1 res   C40      40      0.000     54.000
     41 TN6       1 res   C41      41      0.000     36.000
     42 TN6       1 res   C42      42      0.000     36.000
     43 TN6       1 res   C43      43      0.000     36.000
     44 TN6       1 res   C44      44      0.000     36.000
     45 TN6       1 res   C45      45      0.000     36.000
     46 TN6       1 res   C46      46      0.000     36.000
     47 TN6       1 res   C47      47      0.000     36.000
     48 TN6       1 res   C48      48      0.000     36.000
     49 TN6       1 res   C49      49      0.000     36.000
     50 TN6       1 res   C50      50      0.000     36.000

[ bonds ]
;  ai    aj   funct      b0(nm)        k
    1     2     1      0.29642    20000
    1    50     1      0.27068    20000
    2     3     1      0.21843    20000
    2    31     1      0.22260    20000
    3     4     1      0.34536    20000
    4     5     1      0.27264    20000
    4     6     1      0.28128    20000
    4     7     1      0.28547    20000
    4    30     1      0.36884    20000
    5     6     1      0.29519    20000
    7     8     1      0.39120    20000
    7     9     1      0.32208    20000
    7    30     1      0.29873    20000
    8     9     1      0.29669    20000
    9    10     1      0.33230    20000
    9    29     1      0.28289    20000
   10    11     1      0.27314    20000
   10    27     1      0.27944    20000
   10    29     1      0.32391    20000
   11    12     1      0.25916    20000
   12    13     1      0.27117    20000
   12    27     1      0.27058    20000
   13    14     1      0.31276    20000
   13    15     1      0.25834    20000
   13    21     1      0.22586    20000
   15    16     1      0.22465    20000
   16    17     1      0.33652    20000
   16    21     1      0.21423    20000
   17    18     1      0.26173    20000
   17    20     1      0.32019    20000
   18    19     1      0.26305    20000
   19    20     1      0.26916    20000
   21    22     1      0.24240    20000
   22    23     1      0.30741    20000
   22    24     1      0.28637    20000
   22    26     1      0.28657    20000
   24    25     1      0.21386    20000
   25    26     1      0.24168    20000
   27    28     1      0.27534    20000
   31    32     1      0.22182    20000
   31    49     1      0.21852    20000
   32    33     1      0.29639    20000
   32    48     1      0.25984    20000
   33    34     1      0.24174    20000
   34    35     1      0.30331    20000
   34    47     1      0.21767    20000
   35    36     1      0.25880    20000
   35    46     1      0.30586    20000
   36    37     1      0.22268    20000
   37    38     1      0.29161    20000
   37    46     1      0.22081    20000
   38    39     1      0.25029    20000
   38    45     1      0.28219    20000
   39    40     1      0.30454    20000
   39    44     1      0.21761    20000
   40    41     1      0.28120    20000
   40    43     1      0.30087    20000
   41    42     1      0.23887    20000
   42    43     1      0.22289    20000
   44    45     1      0.24413    20000
   47    48     1      0.22093    20000
   49    50     1      0.24822    20000
