[ moleculetype ]
; name        nrexcl
res           1

[ atoms ]
;    nr  type  resnr resid  atom  cgnr     charge       mass
      1 TC5       1 res   C1        1      0.000     36.000
      2 TX3       1 res   C2        2      0.000     36.000
      3 SN2a      1 res   C3        3      0.000     54.000
      4 TC5       1 res   C4        4      0.000     36.000

[ bonds ]
;  ai    aj   funct      b0(nm)          k(kJ/mol/nm^2)
    1     2     1      0.27847         169729.8
    1     4     1      0.28823         117509.8
    2     3     1      0.26037         129578.5
    3     4     1      0.32241         133475.6

[ angles ]
;  ai    aj    ak  funct     th0(deg)        k(kJ/mol/rad^2)
    1     2     3     1    106.47560          6240.22
    1     4     3     1     89.82319          5375.05
    2     1     4     1     83.50998          6532.21
    2     3     4     1     79.95768          6820.29

[ dihedrals ]
;  ai    aj    ak    al  funct   phi0(deg)        k(kJ/mol)   mult
    1     2     3     4     1    179.97274        7.820      1
    1     2     3     4     1    179.94535        7.705      2
    1     2     3     4     1    179.91768        7.517      3
    1     4     3     2     1    179.08452        7.074      1
    1     4     3     2     1    178.16977        6.990      2
    1     4     3     2     1    177.25648        6.851      3
    2     1     4     3     1   -179.99876        6.333      1
    2     1     4     3     1   -179.99749        6.274      2
    2     1     4     3     1   -179.99617        6.176      3
    3     2     1     4     1   -179.99645        7.858      1
    3     2     1     4     1   -179.99288        7.742      2
    3     2     1     4     1   -179.98926        7.552      3
