1TPCN03546
13
    1res  C1    1    0.666   0.051  -0.223
    1res  C2    2    0.486   0.023  -0.034
    1res  C3    3    0.393  -0.037   0.150
    1res  C4    4    0.243   0.188   0.176
    1res  C5    5    0.135  -0.110   0.277
    1res  C6    6    0.049  -0.203   0.028
    1res  C7    7   -0.221  -0.199  -0.124
    1res  C8    8   -0.302  -0.034   0.211
    1res  C9    9   -0.422  -0.058  -0.026
    1res  C10   10   -0.525   0.012  -0.303
    1res  C11   11   -0.548   0.249  -0.162
    1res  C12   12   -0.520   0.238   0.071
    1res  C13   13   -0.098   0.090  -0.061
  10.00000  10.00000  10.00000
