1TPCN05361
19
    1res  C1    1    0.769   0.181  -0.181
    1res  C2    2    0.568  -0.058  -0.119
    1res  C3    3    0.366   0.131  -0.067
    1res  C4    4    0.307  -0.164   0.090
    1res  C5    5    0.140   0.141   0.231
    1res  C6    6    0.064  -0.129   0.187
    1res  C7    7   -0.204  -0.045   0.146
    1res  C8    8   -0.275   0.214   0.101
    1res  C9    9   -0.479   0.074   0.032
    1res  C10   10   -0.742  -0.035  -0.041
    1res  C11   11   -0.909  -0.143  -0.250
    1res  C12   12   -0.973  -0.047   0.066
    1res  C13   13   -0.958   0.203  -0.015
    1res  C14   14   -0.742   0.219   0.125
    1res  C15   15   -0.397  -0.105  -0.117
    1res  C16   16   -0.059  -0.205  -0.066
    1res  C17   17    0.212  -0.064  -0.173
    1res  C18   18    0.623   0.041   0.121
    1res  C19   19    0.981  -0.021  -0.109
  10.00000  10.00000  10.00000
