1TPCN02430
9
    1res  C1    1    0.126   0.090   0.224
    1res  C2    2    0.013   0.043   0.004
    1res  C3    3   -0.181  -0.032   0.090
    1res  C4    4   -0.378  -0.251   0.126
    1res  C5    5   -0.226   0.281  -0.086
    1res  C6    6    0.099   0.340  -0.202
    1res  C7    7    0.242   0.104  -0.118
    1res  C8    8    0.163  -0.137  -0.002
    1res  C9    9    0.446  -0.146  -0.085
  10.00000  10.00000  10.00000
