[ moleculetype ]
; name        nrexcl
res           1

[ atoms ]
;    nr  type resnr resid  atom  cgnr     charge       mass
      1 SN6       1 res   C1        1      0.000     54.000
      2 TC3       1 res   C2        2      0.000     36.000
      3 TC3       1 res   C3        3      0.000     36.000
      4 SC3       1 res   C4        4      0.000     54.000
      5 P1        1 res   C5        5      0.000     72.000
      6 TP1       1 res   C6        6      0.000     36.000
      7 TP1       1 res   C7        7      0.000     36.000

[ bonds ]
;  ai    aj   funct      b0(nm)        k
    1     2     1      0.29785    20000
    1     3     1      0.27759    20000
    2     3     1      0.23154    20000
    3     4     1      0.29023    20000
    3     5     1      0.26264    20000
    4     5     1      0.34019    20000
    4     7     1      0.26067    20000
    5     6     1      0.27166    20000
