1TPCN01298
7
    1res  C1    1   -0.029   0.293   0.046
    1res  C2    2   -0.267   0.167  -0.081
    1res  C3    3   -0.093   0.030  -0.015
    1res  C4    4    0.194  -0.013  -0.036
    1res  C5    5   -0.071  -0.217  -0.101
    1res  C6    6   -0.162  -0.265   0.151
    1res  C7    7    0.375   0.046   0.141
  10.00000  10.00000  10.00000
