1TPCN00621
20
    1res  C1    1    0.169   0.145  -0.230
    1res  C2    2    0.370   0.004  -0.050
    1res  C3    3    0.636  -0.196  -0.078
    1res  C4    4    0.720  -0.160  -0.321
    1res  C5    5    0.890  -0.205  -0.054
    1res  C6    6    0.765  -0.329   0.121
    1res  C7    7    0.668  -0.124   0.185
    1res  C8    8    0.425   0.246   0.107
    1res  C9    9    0.230   0.093   0.130
    1res  C10   10    0.192   0.327   0.271
    1res  C11   11    0.014   0.147   0.084
    1res  C12   12   -0.114   0.454   0.218
    1res  C13   13   -0.211   0.261   0.102
    1res  C14   14   -0.509   0.252   0.110
    1res  C15   15   -0.318   0.038   0.015
    1res  C16   16   -0.693  -0.053  -0.030
    1res  C17   17   -0.869  -0.134   0.183
    1res  C18   18   -0.867  -0.282  -0.094
    1res  C19   19   -0.739  -0.236  -0.285
    1res  C20   20   -0.510  -0.222  -0.185
  10.00000  10.00000  10.00000
