[ moleculetype ]
; name        nrexcl
res           1

[ atoms ]
;    nr  type  resnr resid  atom  cgnr     charge       mass
      1 TN2a      1 res   C1        1      0.000     36.000
      2 TC5       1 res   C2        2      0.000     36.000
      3 TC5       1 res   C3        3      0.000     36.000
      4 TC5       1 res   C4        4      0.000     36.000

[ constraints ]
;  ai    aj   funct      b0(nm)
    1     2     1      0.24214
    3     4     1      0.28770
    2     3     1      0.25608
    2     4     1      0.29852

[ bonds ]
;  ai    aj   funct      b0(nm)          k(kJ/mol/nm^2)

[ angles ]
;  ai    aj    ak  funct     th0(deg)        k(kJ/mol/rad^2)
    1     2     3     1    164.36261           118.77
    1     2     4     1    107.89649           353.46
    2     3     4     1     66.29776          5618.53
    2     4     3     1     51.76988          6004.35
    3     2     4     1     61.93237         10562.73

[ dihedrals ]
;  ai    aj    ak    al  funct   phi0(deg)        k(kJ/mol)   mult
    1     2     3     4     1   -176.47397       29.864      1
    1     2     4     3     1     -1.73733       21.687      1
