1TPCN02881
13
    1res  C1    1    0.297   0.156   0.307
    1res  C2    2    0.126  -0.048   0.122
    1res  C3    3   -0.112   0.188   0.007
    1res  C4    4   -0.381   0.240   0.050
    1res  C5    5   -0.281  -0.010  -0.155
    1res  C6    6   -0.629  -0.028   0.031
    1res  C7    7   -0.553  -0.211  -0.168
    1res  C8    8   -0.329  -0.254  -0.006
    1res  C9    9    0.413   0.001   0.001
    1res  C10   10    0.586  -0.171  -0.051
    1res  C11   11    0.650  -0.018  -0.257
    1res  C12   12    0.666   0.166  -0.089
    1res  C13   13    0.440   0.226  -0.035
  10.00000  10.00000  10.00000
