[ moleculetype ]
; name        nrexcl
res           1

[ atoms ]
;    nr  type  resnr resid  atom  cgnr     charge       mass
      1 SN6       1 res   C1        1      0.000     54.000
      2 TC3       1 res   C2        2      0.000     36.000
      3 TC5       1 res   C3        3      0.000     36.000
      4 TC5       1 res   C4        4      0.000     36.000
      5 TN4a      1 res   C5        5      0.000     36.000
      6 SP4       1 res   C6        6      0.000     54.000
      7 TN4a      1 res   C7        7      0.000     36.000
      8 TP1       1 res   C8        8      0.000     36.000
      9 SP4       1 res   C9        9      0.000     54.000

[ constraints ]
;  ai    aj   funct      b0(nm)
    1     2     1      0.29483
    3     5     1      0.25686
    2     3     1      0.25568
    4     5     1      0.29249
    6     9     1      0.29988
    3     4     1      0.28822
    7     8     1      0.22427
    1     3     1      0.28915

[ bonds ]
;  ai    aj   funct      b0(nm)          k(kJ/mol/nm^2)
    7     9     1      0.26253          11920.0
    5     6     1      0.30958           3887.2
    6     7     1      0.26605           3307.3

[ angles ]
;  ai    aj    ak  funct     th0(deg)        k(kJ/mol/rad^2)
    1     2     3     1     62.87428          1903.75
    1     3     2     1     65.15876          2214.16
    1     3     4     1    110.05487            71.93
    1     3     5     1     67.67407           318.66
    2     1     3     1     51.96695          1502.75
    2     3     4     1     89.14633           307.97
    2     3     5     1    109.87526           134.46
    3     4     5     1     52.50598          2818.00
    3     5     4     1     62.90187          3098.09
    3     5     6     1     89.50596            80.23
    4     3     5     1     64.59213          5327.78
    4     5     6     1    100.44646            40.40
    5     6     7     1     77.53905            28.03
    5     6     9     1    119.80836            24.95
    6     7     8     1    146.58457            16.70
    6     7     9     1     69.54411           182.11
    6     9     7     1     55.93500           197.55
    7     6     9     1     54.52156          1186.15
    8     7     9     1     88.75775            89.09

[ dihedrals ]
;  ai    aj    ak    al  funct   phi0(deg)        k(kJ/mol)   mult
    1     2     3     4     1    -63.30828       17.414      1
    1     2     3     5     1   -124.57858       18.199      1
    1     3     4     5     1    131.89257       13.636      1
    1     3     5     4     1    -47.30903       19.695      1
    1     3     5     6     1     52.82416       23.693      1
    2     1     3     4     1    105.10592       14.334      1
    2     1     3     5     1     55.17605       20.183      1
    2     3     4     5     1     68.51975       14.941      1
    2     3     5     4     1   -100.03941       12.253      1
    2     3     5     6     1      4.45540       23.058      1
    3     4     5     6     1     96.07243       17.844      1
    3     5     6     7     1    -17.13820        6.631      1
    3     5     6     9     1     46.06770        5.701      1
    4     3     5     6     1    -75.07717       21.546      1
    4     5     6     7     1     46.82899        6.083      1
    4     5     6     9     1     99.59512        7.331      1
    5     6     7     8     1    -17.30764       18.109      1
    5     6     7     9     1     -6.47859       32.875      1
    5     6     9     7     1    167.52799       26.882      1
    6     9     7     8     1    -26.28221       26.890      1
    8     7     6     9     1    156.90931       30.222      1
