1TPCN04493
12
    1res  C1    1    0.369  -0.181  -0.027
    1res  C2    2    0.477   0.123   0.103
    1res  C3    3    0.706   0.077   0.246
    1res  C4    4    0.219   0.028  -0.147
    1res  C5    5    0.009  -0.081  -0.296
    1res  C6    6   -0.138   0.028  -0.057
    1res  C7    7   -0.283   0.204  -0.130
    1res  C8    8   -0.320   0.008   0.059
    1res  C9    9   -0.570   0.220   0.102
    1res  C10   10   -0.595   0.005   0.248
    1res  C11   11   -0.526  -0.176   0.051
    1res  C12   12   -0.075  -0.226  -0.019
  10.00000  10.00000  10.00000
