1TPCN00239
7
    1res  C1    1    0.281  -0.169  -0.103
    1res  C2    2    0.333   0.135   0.019
    1res  C3    3    0.051   0.191  -0.135
    1res  C4    4   -0.166  -0.100  -0.015
    1res  C5    5   -0.352  -0.211   0.206
    1res  C6    6   -0.413  -0.010  -0.040
    1res  C7    7   -0.221   0.174   0.090
  10.00000  10.00000  10.00000
