1TPCN01324
8
    1res  C1    1   -0.153   0.249   0.039
    1res  C2    2   -0.174  -0.071  -0.182
    1res  C3    3   -0.116  -0.110   0.128
    1res  C4    4   -0.362  -0.096   0.137
    1res  C5    5    0.102  -0.164   0.103
    1res  C6    6    0.238  -0.312  -0.062
    1res  C7    7    0.303  -0.087  -0.031
    1res  C8    8    0.153   0.187  -0.026
  10.00000  10.00000  10.00000
