[ moleculetype ]
; name        nrexcl
res           1

[ atoms ]
;    nr  type  resnr resid  atom  cgnr     charge       mass
      1 TN6a      1 res   C1        1      0.000     36.000
      2 TC6       1 res   C2        2      0.000     36.000
      3 TN6a      1 res   C3        3      0.000     36.000
      4 TC5       1 res   C4        4      0.000     36.000

[ constraints ]
;  ai    aj   funct      b0(nm)
    1     3     1      0.24847
    1     4     1      0.23750
    3     4     1      0.25355

[ bonds ]
;  ai    aj   funct      b0(nm)          k(kJ/mol/nm^2)
    1     2     1      0.30628           6718.5

[ angles ]
;  ai    aj    ak  funct     th0(deg)        k(kJ/mol/rad^2)
    1     3     4     1     56.46572          3959.53
    1     4     3     1     60.68809          5149.19
    2     1     3     1     91.70507            32.07
    2     1     4     1    143.18861           344.85
    3     1     4     1     62.84622          4396.21

[ dihedrals ]
;  ai    aj    ak    al  funct   phi0(deg)        k(kJ/mol)   mult
    2     1     3     4     1     -1.36226       23.857      1
    2     1     4     3     1    174.08310       20.682      1
