[ moleculetype ]
; name        nrexcl
res           1

[ atoms ]
;    nr  type  resnr resid  atom  cgnr     charge       mass
      1 TN6a      1 res   C1        1      0.000     36.000
      2 TC6       1 res   C2        2      0.000     36.000
      3 TN6a      1 res   C3        3      0.000     36.000
      4 TC5       1 res   C4        4      0.000     36.000

[ constraints ]
;  ai    aj   funct      b0(nm)
    1     3     1      0.24815
    1     4     1      0.23801
    3     4     1      0.25281

[ bonds ]
;  ai    aj   funct      b0(nm)          k(kJ/mol/nm^2)
    1     2     1      0.28915           3907.2

[ angles ]
;  ai    aj    ak  funct     th0(deg)        k(kJ/mol/rad^2)
    1     3     4     1     56.72418          6260.93
    1     4     3     1     60.64453         13948.46
    2     1     3     1    105.36427            16.40
    2     1     4     1    144.81180           354.02
    3     1     4     1     62.63127          4901.16

[ dihedrals ]
;  ai    aj    ak    al  funct   phi0(deg)        k(kJ/mol)   mult
    2     1     3     4     1      4.02845       24.299      1
    2     1     4     3     1   -170.22125        5.484      1
