[ moleculetype ]
; name        nrexcl
res           1

[ atoms ]
;    nr  type  resnr resid  atom  cgnr     charge       mass
      1 SN2a      1 res   C1        1      0.000     54.000
      2 TC5       1 res   C2        2      0.000     36.000
      3 TX2       1 res   C3        3      0.000     36.000
      4 TC5       1 res   C4        4      0.000     36.000

[ bonds ]
;  ai    aj   funct      b0(nm)          k(kJ/mol/nm^2)
    1     2     1      0.36971           1740.9
    1     4     1      0.35883           1854.7
    2     3     1      0.28562          75374.3
    3     4     1      0.28535          96963.0

[ angles ]
;  ai    aj    ak  funct     th0(deg)        k(kJ/mol/rad^2)
    1     2     3     1    115.35496            67.69
    1     4     3     1    118.98115            58.45
    2     1     4     1     53.05359          5865.33
    2     3     4     1     71.09423          3606.53

[ dihedrals ]
;  ai    aj    ak    al  funct   phi0(deg)        k(kJ/mol)   mult
    1     2     3     4     1    178.91855       18.454      1
    1     2     3     4     1    177.91714       16.694      2
    1     2     3     4     1    177.10113       13.999      3
    1     4     3     2     1    179.03523       15.828      1
    1     4     3     2     1    178.07155       14.795      2
    1     4     3     2     1    177.11029       13.163      3
    2     1     4     3     1    179.10574       14.428      1
    2     1     4     3     1    178.21496       13.655      2
    2     1     4     3     1    177.33189       12.421      3
    3     2     1     4     1   -179.29395       15.025      1
    3     2     1     4     1   -178.70587       13.968      2
    3     2     1     4     1   -178.38574       12.314      3
