Generated with MDTraj, t= 0.0
 45
    1UNL     C1    1  -0.533   0.120  -0.133
    1UNL     C2    2  -0.447   0.041  -0.042
    1UNL     C3    3  -0.314   0.044  -0.046
    1UNL     C4    4  -0.234   0.126  -0.143
    1UNL     N1    5  -0.088   0.101  -0.119
    1UNL     C5    6  -0.047   0.140   0.020
    1UNL     C6    7  -0.135   0.064   0.123
    1UNL     C7    8  -0.226  -0.036   0.047
    1UNL     C8    9  -0.138  -0.132  -0.039
    1UNL     C9   10  -0.054  -0.224   0.050
    1UNL     O1   11  -0.130  -0.291   0.147
    1UNL    C10   12  -0.056  -0.044  -0.142
    1UNL    C11   13   0.097  -0.066  -0.140
    1UNL    C12   14   0.163   0.013  -0.032
    1UNL    C13   15   0.098   0.109   0.041
    1UNL     N2   16   0.184   0.163   0.134
    1UNL    C14   17   0.307   0.100   0.121
    1UNL    C15   18   0.428   0.116   0.191
    1UNL    C16   19   0.534   0.037   0.156
    1UNL    C17   20   0.525  -0.059   0.052
    1UNL     O2   21   0.637  -0.136   0.023
    1UNL    C18   22   0.407  -0.075  -0.017
    1UNL    C19   23   0.296   0.005   0.018
    1UNL     H1   24  -0.516   0.092  -0.237
    1UNL     H2   25  -0.639   0.104  -0.112
    1UNL     H3   26  -0.513   0.227  -0.123
    1UNL     H4   27  -0.494  -0.021   0.032
    1UNL     H5   28  -0.259   0.099  -0.246
    1UNL     H6   29  -0.255   0.232  -0.130
    1UNL     H7   30  -0.062   0.249   0.029
    1UNL     H8   31  -0.072   0.012   0.195
    1UNL     H9   32  -0.197   0.134   0.181
    1UNL    H10   33  -0.287  -0.094   0.118
    1UNL    H11   34  -0.207  -0.196  -0.096
    1UNL    H12   35   0.023  -0.167   0.103
    1UNL    H13   36  -0.000  -0.299  -0.010
    1UNL    H14   37  -0.202  -0.343   0.105
    1UNL    H15   38  -0.093  -0.067  -0.243
    1UNL    H16   39   0.140  -0.035  -0.236
    1UNL    H17   40   0.122  -0.172  -0.130
    1UNL    H18   41   0.161   0.235   0.203
    1UNL    H19   42   0.435   0.189   0.270
    1UNL    H20   43   0.628   0.047   0.207
    1UNL    H21   44   0.617  -0.198  -0.050
    1UNL    H22   45   0.398  -0.147  -0.095
   0.00000   0.00000   0.00000   0.00000   0.00000   0.00000   0.00000   0.00000   0.00000
Generated with MDTraj, t= 1.0
 45
    1UNL     C1    1  -0.530   0.131  -0.128
    1UNL     C2    2  -0.449   0.042  -0.035
    1UNL     C3    3  -0.314   0.046  -0.048
    1UNL     C4    4  -0.239   0.113  -0.150
    1UNL     N1    5  -0.092   0.103  -0.127
    1UNL     C5    6  -0.049   0.148   0.009
    1UNL     C6    7  -0.134   0.077   0.120
    1UNL     C7    8  -0.226  -0.033   0.051
    1UNL     C8    9  -0.134  -0.131  -0.035
    1UNL     C9   10  -0.058  -0.240   0.053
    1UNL     O1   11  -0.152  -0.313   0.135
    1UNL    C10   12  -0.053  -0.046  -0.143
    1UNL    C11   13   0.097  -0.066  -0.141
    1UNL    C12   14   0.164   0.010  -0.031
    1UNL    C13   15   0.100   0.114   0.039
    1UNL     N2   16   0.183   0.163   0.138
    1UNL    C14   17   0.307   0.102   0.126
    1UNL    C15   18   0.432   0.121   0.191
    1UNL    C16   19   0.538   0.044   0.151
    1UNL    C17   20   0.529  -0.058   0.051
    1UNL     O2   21   0.645  -0.124   0.018
    1UNL    C18   22   0.408  -0.084  -0.007
    1UNL    C19   23   0.295  -0.002   0.029
    1UNL     H1   24  -0.474   0.219  -0.137
    1UNL     H2   25  -0.546   0.090  -0.225
    1UNL     H3   26  -0.630   0.162  -0.080
    1UNL     H4   27  -0.504  -0.010   0.044
    1UNL     H5   28  -0.249   0.079  -0.254
    1UNL     H6   29  -0.255   0.219  -0.151
    1UNL     H7   30  -0.050   0.256   0.025
    1UNL     H8   31  -0.075   0.030   0.197
    1UNL     H9   32  -0.195   0.155   0.166
    1UNL    H10   33  -0.302  -0.081   0.112
    1UNL    H11   34  -0.200  -0.193  -0.099
    1UNL    H12   35   0.015  -0.192   0.112
    1UNL    H13   36   0.005  -0.312  -0.006
    1UNL    H14   37  -0.103  -0.321   0.222
    1UNL    H15   38  -0.090  -0.073  -0.239
    1UNL    H16   39   0.142  -0.030  -0.232
    1UNL    H17   40   0.121  -0.177  -0.130
    1UNL    H18   41   0.161   0.236   0.195
    1UNL    H19   42   0.436   0.194   0.271
    1UNL    H20   43   0.625   0.049   0.210
    1UNL    H21   44   0.612  -0.197  -0.047
    1UNL    H22   45   0.397  -0.155  -0.095
   0.00000   0.00000   0.00000   0.00000   0.00000   0.00000   0.00000   0.00000   0.00000
Generated with MDTraj, t= 2.0
 45
    1UNL     C1    1  -0.542   0.134  -0.133
    1UNL     C2    2  -0.447   0.060  -0.035
    1UNL     C3    3  -0.315   0.047  -0.051
    1UNL     C4    4  -0.231   0.129  -0.143
    1UNL     N1    5  -0.085   0.101  -0.117
    1UNL     C5    6  -0.049   0.134   0.027
    1UNL     C6    7  -0.134   0.053   0.126
    1UNL     C7    8  -0.231  -0.038   0.044
    1UNL     C8    9  -0.152  -0.140  -0.043
    1UNL     C9   10  -0.075  -0.240   0.046
    1UNL     O1   11  -0.144  -0.298   0.155
    1UNL    C10   12  -0.053  -0.054  -0.147
    1UNL    C11   13   0.097  -0.077  -0.134
    1UNL    C12   14   0.170   0.005  -0.025
    1UNL    C13   15   0.099   0.101   0.044
    1UNL     N2   16   0.185   0.164   0.127
    1UNL    C14   17   0.310   0.108   0.107
    1UNL    C15   18   0.428   0.128   0.182
    1UNL    C16   19   0.535   0.045   0.162
    1UNL    C17   20   0.529  -0.055   0.058
    1UNL     O2   21   0.647  -0.128   0.029
    1UNL    C18   22   0.419  -0.070  -0.021
    1UNL    C19   23   0.307   0.014   0.005
    1UNL     H1   24  -0.628   0.170  -0.083
    1UNL     H2   25  -0.509   0.227  -0.163
    1UNL     H3   26  -0.580   0.083  -0.232
    1UNL     H4   27  -0.492   0.024   0.057
    1UNL     H5   28  -0.241   0.116  -0.254
    1UNL     H6   29  -0.236   0.234  -0.133
    1UNL     H7   30  -0.070   0.239   0.024
    1UNL     H8   31  -0.069  -0.010   0.183
    1UNL     H9   32  -0.189   0.115   0.200
    1UNL    H10   33  -0.296  -0.086   0.115
    1UNL    H11   34  -0.212  -0.213  -0.105
    1UNL    H12   35   0.008  -0.196   0.089
    1UNL    H13   36  -0.027  -0.323  -0.016
    1UNL    H14   37  -0.178  -0.391   0.146
    1UNL    H15   38  -0.084  -0.087  -0.243
    1UNL    H16   39   0.142  -0.049  -0.226
    1UNL    H17   40   0.122  -0.186  -0.105
    1UNL    H18   41   0.169   0.231   0.190
    1UNL    H19   42   0.436   0.201   0.260
    1UNL    H20   43   0.634   0.063   0.218
    1UNL    H21   44   0.636  -0.208  -0.037
    1UNL    H22   45   0.438  -0.127  -0.104
   0.00000   0.00000   0.00000   0.00000   0.00000   0.00000   0.00000   0.00000   0.00000
Generated with MDTraj, t= 3.0
 45
    1UNL     C1    1  -0.523   0.139  -0.125
    1UNL     C2    2  -0.443   0.044  -0.046
    1UNL     C3    3  -0.310   0.049  -0.049
    1UNL     C4    4  -0.225   0.130  -0.146
    1UNL     N1    5  -0.074   0.102  -0.119
    1UNL     C5    6  -0.048   0.139   0.017
    1UNL     C6    7  -0.135   0.058   0.121
    1UNL     C7    8  -0.226  -0.041   0.045
    1UNL     C8    9  -0.138  -0.144  -0.038
    1UNL     C9   10  -0.060  -0.238   0.055
    1UNL     O1   11  -0.153  -0.297   0.148
    1UNL    C10   12  -0.052  -0.054  -0.140
    1UNL    C11   13   0.096  -0.075  -0.135
    1UNL    C12   14   0.164   0.001  -0.022
    1UNL    C13   15   0.098   0.103   0.043
    1UNL     N2   16   0.181   0.167   0.134
    1UNL    C14   17   0.308   0.104   0.123
    1UNL    C15   18   0.431   0.141   0.176
    1UNL    C16   19   0.537   0.052   0.141
    1UNL    C17   20   0.524  -0.058   0.049
    1UNL     O2   21   0.635  -0.125   0.015
    1UNL    C18   22   0.398  -0.081  -0.009
    1UNL    C19   23   0.295  -0.003   0.032
    1UNL     H1   24  -0.599   0.087  -0.181
    1UNL     H2   25  -0.588   0.184  -0.054
    1UNL     H3   26  -0.478   0.214  -0.195
    1UNL     H4   27  -0.495  -0.007   0.034
    1UNL     H5   28  -0.238   0.120  -0.259
    1UNL     H6   29  -0.243   0.233  -0.135
    1UNL     H7   30  -0.053   0.245   0.032
    1UNL     H8   31  -0.076   0.006   0.193
    1UNL     H9   32  -0.194   0.135   0.176
    1UNL    H10   33  -0.298  -0.091   0.108
    1UNL    H11   34  -0.206  -0.205  -0.105
    1UNL    H12   35   0.002  -0.178   0.109
    1UNL    H13   36   0.004  -0.321   0.007
    1UNL    H14   37  -0.183  -0.385   0.119
    1UNL    H15   38  -0.098  -0.064  -0.234
    1UNL    H16   39   0.146  -0.033  -0.219
    1UNL    H17   40   0.107  -0.189  -0.114
    1UNL    H18   41   0.160   0.249   0.183
    1UNL    H19   42   0.444   0.209   0.259
    1UNL    H20   43   0.621   0.058   0.198
    1UNL    H21   44   0.599  -0.214  -0.018
    1UNL    H22   45   0.378  -0.166  -0.082
   0.00000   0.00000   0.00000   0.00000   0.00000   0.00000   0.00000   0.00000   0.00000
Generated with MDTraj, t= 4.0
 45
    1UNL     C1    1  -0.527   0.135  -0.149
    1UNL     C2    2  -0.460   0.050  -0.045
    1UNL     C3    3  -0.324   0.049  -0.045
    1UNL     C4    4  -0.239   0.112  -0.152
    1UNL     N1    5  -0.090   0.092  -0.121
    1UNL     C5    6  -0.052   0.139   0.018
    1UNL     C6    7  -0.142   0.076   0.130
    1UNL     C7    8  -0.232  -0.023   0.056
    1UNL     C8    9  -0.144  -0.132  -0.030
    1UNL     C9   10  -0.059  -0.226   0.057
    1UNL     O1   11  -0.142  -0.312   0.142
    1UNL    C10   12  -0.056  -0.053  -0.139
    1UNL    C11   13   0.095  -0.069  -0.134
    1UNL    C12   14   0.160   0.005  -0.021
    1UNL    C13   15   0.097   0.104   0.053
    1UNL     N2   16   0.193   0.160   0.135
    1UNL    C14   17   0.312   0.095   0.127
    1UNL    C15   18   0.439   0.124   0.179
    1UNL    C16   19   0.549   0.047   0.147
    1UNL    C17   20   0.532  -0.051   0.048
    1UNL     O2   21   0.652  -0.127   0.013
    1UNL    C18   22   0.410  -0.079  -0.012
    1UNL    C19   23   0.298   0.000   0.023
    1UNL     H1   24  -0.483   0.117  -0.247
    1UNL     H2   25  -0.623   0.083  -0.152
    1UNL     H3   26  -0.537   0.235  -0.125
    1UNL     H4   27  -0.505   0.047   0.054
    1UNL     H5   28  -0.260   0.071  -0.256
    1UNL     H6   29  -0.257   0.214  -0.158
    1UNL     H7   30  -0.061   0.244   0.000
    1UNL     H8   31  -0.082   0.030   0.206
    1UNL     H9   32  -0.204   0.152   0.184
    1UNL    H10   33  -0.295  -0.073   0.128
    1UNL    H11   34  -0.219  -0.193  -0.091
    1UNL    H12   35  -0.012  -0.167   0.125
    1UNL    H13   36   0.006  -0.289  -0.008
    1UNL    H14   37  -0.222  -0.334   0.088
    1UNL    H15   38  -0.098  -0.090  -0.230
    1UNL    H16   39   0.131  -0.021  -0.223
    1UNL    H17   40   0.127  -0.177  -0.108
    1UNL    H18   41   0.183   0.239   0.203
    1UNL    H19   42   0.442   0.187   0.265
    1UNL    H20   43   0.649   0.060   0.198
    1UNL    H21   44   0.625  -0.207  -0.031
    1UNL    H22   45   0.413  -0.160  -0.081
   0.00000   0.00000   0.00000   0.00000   0.00000   0.00000   0.00000   0.00000   0.00000
Generated with MDTraj, t= 5.0
 45
    1UNL     C1    1  -0.532   0.122  -0.141
    1UNL     C2    2  -0.446   0.024  -0.058
    1UNL     C3    3  -0.313   0.048  -0.041
    1UNL     C4    4  -0.223   0.133  -0.138
    1UNL     N1    5  -0.083   0.099  -0.114
    1UNL     C5    6  -0.041   0.136   0.018
    1UNL     C6    7  -0.132   0.057   0.124
    1UNL     C7    8  -0.230  -0.032   0.050
    1UNL     C8    9  -0.153  -0.138  -0.035
    1UNL     C9   10  -0.069  -0.224   0.057
    1UNL     O1   11  -0.155  -0.277   0.156
    1UNL    C10   12  -0.057  -0.054  -0.134
    1UNL    C11   13   0.097  -0.079  -0.127
    1UNL    C12   14   0.169   0.006  -0.028
    1UNL    C13   15   0.103   0.106   0.036
    1UNL     N2   16   0.184   0.167   0.130
    1UNL    C14   17   0.308   0.102   0.122
    1UNL    C15   18   0.431   0.113   0.198
    1UNL    C16   19   0.533   0.038   0.153
    1UNL    C17   20   0.531  -0.060   0.044
    1UNL     O2   21   0.647  -0.128   0.009
    1UNL    C18   22   0.413  -0.065  -0.025
    1UNL    C19   23   0.304   0.017   0.009
    1UNL     H1   24  -0.481   0.149  -0.231
    1UNL     H2   25  -0.619   0.063  -0.177
    1UNL     H3   26  -0.572   0.197  -0.086
    1UNL     H4   27  -0.491  -0.010   0.035
    1UNL     H5   28  -0.249   0.114  -0.246
    1UNL     H6   29  -0.237   0.235  -0.116
    1UNL     H7   30  -0.057   0.241   0.025
    1UNL     H8   31  -0.077   0.012   0.205
    1UNL     H9   32  -0.201   0.127   0.176
    1UNL    H10   33  -0.283  -0.095   0.120
    1UNL    H11   34  -0.219  -0.206  -0.099
    1UNL    H12   35   0.004  -0.172   0.104
    1UNL    H13   36  -0.038  -0.313   0.002
    1UNL    H14   37  -0.246  -0.298   0.120
    1UNL    H15   38  -0.093  -0.084  -0.232
    1UNL    H16   39   0.142  -0.033  -0.215
    1UNL    H17   40   0.118  -0.185  -0.099
    1UNL    H18   41   0.161   0.237   0.211
    1UNL    H19   42   0.440   0.174   0.287
    1UNL    H20   43   0.617   0.031   0.221
    1UNL    H21   44   0.629  -0.198  -0.050
    1UNL    H22   45   0.391  -0.128  -0.105
   0.00000   0.00000   0.00000   0.00000   0.00000   0.00000   0.00000   0.00000   0.00000
Generated with MDTraj, t= 6.0
 45
    1UNL     C1    1  -0.531   0.110  -0.147
    1UNL     C2    2  -0.446   0.038  -0.045
    1UNL     C3    3  -0.311   0.061  -0.042
    1UNL     C4    4  -0.226   0.135  -0.146
    1UNL     N1    5  -0.088   0.097  -0.121
    1UNL     C5    6  -0.048   0.132   0.018
    1UNL     C6    7  -0.136   0.060   0.129
    1UNL     C7    8  -0.226  -0.029   0.048
    1UNL     C8    9  -0.137  -0.129  -0.036
    1UNL     C9   10  -0.051  -0.213   0.057
    1UNL     O1   11  -0.124  -0.277   0.154
    1UNL    C10   12  -0.054  -0.050  -0.148
    1UNL    C11   13   0.098  -0.073  -0.138
    1UNL    C12   14   0.154   0.005  -0.027
    1UNL    C13   15   0.092   0.103   0.047
    1UNL     N2   16   0.181   0.154   0.140
    1UNL    C14   17   0.303   0.091   0.127
    1UNL    C15   18   0.432   0.119   0.187
    1UNL    C16   19   0.541   0.045   0.143
    1UNL    C17   20   0.525  -0.054   0.046
    1UNL     O2   21   0.635  -0.132   0.012
    1UNL    C18   22   0.402  -0.082  -0.010
    1UNL    C19   23   0.290  -0.000   0.021
    1UNL     H1   24  -0.526   0.067  -0.242
    1UNL     H2   25  -0.640   0.100  -0.121
    1UNL     H3   26  -0.532   0.215  -0.146
    1UNL     H4   27  -0.497   0.017   0.048
    1UNL     H5   28  -0.255   0.106  -0.249
    1UNL     H6   29  -0.250   0.239  -0.128
    1UNL     H7   30  -0.066   0.236   0.022
    1UNL     H8   31  -0.089   0.011   0.217
    1UNL     H9   32  -0.193   0.140   0.177
    1UNL    H10   33  -0.297  -0.084   0.108
    1UNL    H11   34  -0.212  -0.185  -0.098
    1UNL    H12   35   0.005  -0.147   0.109
    1UNL    H13   36   0.001  -0.288  -0.001
    1UNL    H14   37  -0.211  -0.310   0.122
    1UNL    H15   38  -0.091  -0.074  -0.249
    1UNL    H16   39   0.142  -0.025  -0.224
    1UNL    H17   40   0.122  -0.176  -0.109
    1UNL    H18   41   0.161   0.236   0.213
    1UNL    H19   42   0.429   0.175   0.280
    1UNL    H20   43   0.639   0.040   0.182
    1UNL    H21   44   0.608  -0.209  -0.033
    1UNL    H22   45   0.413  -0.145  -0.105
   0.00000   0.00000   0.00000   0.00000   0.00000   0.00000   0.00000   0.00000   0.00000
Generated with MDTraj, t= 7.0
 45
    1UNL     C1    1  -0.536   0.123  -0.149
    1UNL     C2    2  -0.457   0.034  -0.053
    1UNL     C3    3  -0.323   0.043  -0.052
    1UNL     C4    4  -0.237   0.121  -0.149
    1UNL     N1    5  -0.093   0.100  -0.114
    1UNL     C5    6  -0.045   0.140   0.018
    1UNL     C6    7  -0.144   0.072   0.122
    1UNL     C7    8  -0.237  -0.031   0.045
    1UNL     C8    9  -0.136  -0.134  -0.026
    1UNL     C9   10  -0.045  -0.209   0.067
    1UNL     O1   11  -0.112  -0.293   0.155
    1UNL    C10   12  -0.063  -0.044  -0.134
    1UNL    C11   13   0.094  -0.058  -0.140
    1UNL    C12   14   0.165   0.018  -0.037
    1UNL    C13   15   0.099   0.107   0.043
    1UNL     N2   16   0.187   0.165   0.137
    1UNL    C14   17   0.308   0.098   0.122
    1UNL    C15   18   0.431   0.110   0.186
    1UNL    C16   19   0.537   0.032   0.151
    1UNL    C17   20   0.528  -0.069   0.055
    1UNL     O2   21   0.644  -0.137   0.012
    1UNL    C18   22   0.404  -0.078  -0.013
    1UNL    C19   23   0.299   0.003   0.018
    1UNL     H1   24  -0.569   0.070  -0.231
    1UNL     H2   25  -0.624   0.159  -0.093
    1UNL     H3   26  -0.494   0.221  -0.174
    1UNL     H4   27  -0.512  -0.002   0.037
    1UNL     H5   28  -0.263   0.095  -0.251
    1UNL     H6   29  -0.254   0.228  -0.133
    1UNL     H7   30  -0.052   0.244   0.005
    1UNL     H8   31  -0.082   0.029   0.205
    1UNL     H9   32  -0.201   0.146   0.178
    1UNL    H10   33  -0.293  -0.080   0.123
    1UNL    H11   34  -0.197  -0.207  -0.084
    1UNL    H12   35   0.010  -0.141   0.118
    1UNL    H13   36   0.021  -0.264   0.004
    1UNL    H14   37  -0.183  -0.346   0.115
    1UNL    H15   38  -0.107  -0.082  -0.230
    1UNL    H16   39   0.117  -0.001  -0.229
    1UNL    H17   40   0.117  -0.162  -0.129
    1UNL    H18   41   0.166   0.236   0.216
    1UNL    H19   42   0.448   0.156   0.282
    1UNL    H20   43   0.626   0.030   0.220
    1UNL    H21   44   0.616  -0.216  -0.038
    1UNL    H22   45   0.397  -0.136  -0.096
   0.00000   0.00000   0.00000   0.00000   0.00000   0.00000   0.00000   0.00000   0.00000
Generated with MDTraj, t= 8.0
 45
    1UNL     C1    1  -0.526   0.102  -0.133
    1UNL     C2    2  -0.437   0.029  -0.037
    1UNL     C3    3  -0.306   0.043  -0.038
    1UNL     C4    4  -0.237   0.119  -0.145
    1UNL     N1    5  -0.085   0.105  -0.120
    1UNL     C5    6  -0.046   0.149   0.011
    1UNL     C6    7  -0.124   0.071   0.122
    1UNL     C7    8  -0.217  -0.028   0.053
    1UNL     C8    9  -0.136  -0.136  -0.035
    1UNL     C9   10  -0.063  -0.228   0.050
    1UNL     O1   11  -0.136  -0.272   0.163
    1UNL    C10   12  -0.057  -0.042  -0.148
    1UNL    C11   13   0.101  -0.059  -0.145
    1UNL    C12   14   0.165   0.023  -0.040
    1UNL    C13   15   0.100   0.119   0.028
    1UNL     N2   16   0.179   0.155   0.136
    1UNL    C14   17   0.305   0.094   0.122
    1UNL    C15   18   0.424   0.109   0.192
    1UNL    C16   19   0.533   0.027   0.165
    1UNL    C17   20   0.517  -0.064   0.053
    1UNL     O2   21   0.627  -0.136   0.022
    1UNL    C18   22   0.402  -0.074  -0.023
    1UNL    C19   23   0.300   0.015   0.007
    1UNL     H1   24  -0.509   0.073  -0.232
    1UNL     H2   25  -0.623   0.078  -0.101
    1UNL     H3   26  -0.525   0.214  -0.124
    1UNL     H4   27  -0.494  -0.014   0.045
    1UNL     H5   28  -0.250   0.092  -0.247
    1UNL     H6   29  -0.263   0.226  -0.136
    1UNL     H7   30  -0.065   0.251   0.026
    1UNL     H8   31  -0.052   0.031   0.201
    1UNL     H9   32  -0.186   0.141   0.175
    1UNL    H10   33  -0.267  -0.092   0.125
    1UNL    H11   34  -0.211  -0.193  -0.092
    1UNL    H12   35   0.023  -0.181   0.085
    1UNL    H13   36  -0.027  -0.306  -0.015
    1UNL    H14   37  -0.218  -0.321   0.135
    1UNL    H15   38  -0.103  -0.062  -0.250
    1UNL    H16   39   0.135  -0.011  -0.235
    1UNL    H17   40   0.126  -0.158  -0.124
    1UNL    H18   41   0.143   0.211   0.216
    1UNL    H19   42   0.406   0.158   0.287
    1UNL    H20   43   0.619   0.034   0.219
    1UNL    H21   44   0.614  -0.217  -0.040
    1UNL    H22   45   0.402  -0.137  -0.114
   0.00000   0.00000   0.00000   0.00000   0.00000   0.00000   0.00000   0.00000   0.00000
Generated with MDTraj, t= 9.0
 45
    1UNL     C1    1  -0.544   0.101  -0.123
    1UNL     C2    2  -0.450   0.034  -0.036
    1UNL     C3    3  -0.319   0.055  -0.047
    1UNL     C4    4  -0.243   0.135  -0.147
    1UNL     N1    5  -0.090   0.108  -0.120
    1UNL     C5    6  -0.044   0.142   0.017
    1UNL     C6    7  -0.140   0.076   0.123
    1UNL     C7    8  -0.225  -0.027   0.050
    1UNL     C8    9  -0.130  -0.127  -0.030
    1UNL     C9   10  -0.045  -0.212   0.054
    1UNL     O1   11  -0.113  -0.299   0.146
    1UNL    C10   12  -0.061  -0.035  -0.149
    1UNL    C11   13   0.090  -0.068  -0.145
    1UNL    C12   14   0.168   0.008  -0.034
    1UNL    C13   15   0.101   0.107   0.040
    1UNL     N2   16   0.189   0.172   0.118
    1UNL    C14   17   0.309   0.103   0.109
    1UNL    C15   18   0.429   0.116   0.186
    1UNL    C16   19   0.525   0.024   0.169
    1UNL    C17   20   0.518  -0.073   0.067
    1UNL     O2   21   0.637  -0.137   0.032
    1UNL    C18   22   0.407  -0.086  -0.017
    1UNL    C19   23   0.301   0.006   0.007
    1UNL     H1   24  -0.525   0.096  -0.228
    1UNL     H2   25  -0.635   0.059  -0.108
    1UNL     H3   26  -0.572   0.208  -0.103
    1UNL     H4   27  -0.494  -0.018   0.052
    1UNL     H5   28  -0.260   0.105  -0.246
    1UNL     H6   29  -0.255   0.247  -0.143
    1UNL     H7   30  -0.061   0.245   0.007
    1UNL     H8   31  -0.077   0.034   0.209
    1UNL     H9   32  -0.198   0.157   0.162
    1UNL    H10   33  -0.295  -0.084   0.109
    1UNL    H11   34  -0.200  -0.190  -0.084
    1UNL    H12   35   0.019  -0.151   0.112
    1UNL    H13   36   0.017  -0.273  -0.008
    1UNL    H14   37  -0.163  -0.372   0.099
    1UNL    H15   38  -0.111  -0.071  -0.248
    1UNL    H16   39   0.133  -0.043  -0.238
    1UNL    H17   40   0.097  -0.169  -0.128
    1UNL    H18   41   0.172   0.242   0.183
    1UNL    H19   42   0.431   0.177   0.273
    1UNL    H20   43   0.608   0.003   0.241
    1UNL    H21   44   0.612  -0.210  -0.037
    1UNL    H22   45   0.397  -0.161  -0.097
   0.00000   0.00000   0.00000   0.00000   0.00000   0.00000   0.00000   0.00000   0.00000
Generated with MDTraj, t= 10.0
 45
    1UNL     C1    1  -0.527   0.116  -0.127
    1UNL     C2    2  -0.446   0.036  -0.029
    1UNL     C3    3  -0.313   0.037  -0.045
    1UNL     C4    4  -0.233   0.112  -0.144
    1UNL     N1    5  -0.084   0.106  -0.120
    1UNL     C5    6  -0.050   0.154   0.016
    1UNL     C6    7  -0.136   0.071   0.120
    1UNL     C7    8  -0.219  -0.032   0.046
    1UNL     C8    9  -0.129  -0.133  -0.035
    1UNL     C9   10  -0.042  -0.218   0.049
    1UNL     O1   11  -0.110  -0.294   0.147
    1UNL    C10   12  -0.052  -0.041  -0.146
    1UNL    C11   13   0.098  -0.060  -0.145
    1UNL    C12   14   0.159   0.018  -0.036
    1UNL    C13   15   0.094   0.119   0.034
    1UNL     N2   16   0.175   0.169   0.136
    1UNL    C14   17   0.302   0.106   0.120
    1UNL    C15   18   0.428   0.122   0.180
    1UNL    C16   19   0.532   0.038   0.150
    1UNL    C17   20   0.516  -0.067   0.053
    1UNL     O2   21   0.617  -0.160   0.031
    1UNL    C18   22   0.398  -0.080  -0.009
    1UNL    C19   23   0.291   0.011   0.014
    1UNL     H1   24  -0.521   0.089  -0.232
    1UNL     H2   25  -0.627   0.116  -0.099
    1UNL     H3   26  -0.505   0.224  -0.133
    1UNL     H4   27  -0.492  -0.004   0.059
    1UNL     H5   28  -0.252   0.089  -0.244
    1UNL     H6   29  -0.252   0.221  -0.123
    1UNL     H7   30  -0.061   0.258   0.020
    1UNL     H8   31  -0.059   0.021   0.187
    1UNL     H9   32  -0.195   0.139   0.180
    1UNL    H10   33  -0.277  -0.092   0.114
    1UNL    H11   34  -0.181  -0.198  -0.101
    1UNL    H12   35   0.024  -0.154   0.103
    1UNL    H13   36   0.020  -0.291  -0.001
    1UNL    H14   37  -0.151  -0.380   0.127
    1UNL    H15   38  -0.096  -0.058  -0.252
    1UNL    H16   39   0.135  -0.011  -0.230
    1UNL    H17   40   0.123  -0.162  -0.149
    1UNL    H18   41   0.149   0.239   0.194
    1UNL    H19   42   0.428   0.182   0.273
    1UNL    H20   43   0.615   0.033   0.217
    1UNL    H21   44   0.576  -0.249   0.000
    1UNL    H22   45   0.386  -0.158  -0.074
   0.00000   0.00000   0.00000   0.00000   0.00000   0.00000   0.00000   0.00000   0.00000
Generated with MDTraj, t= 11.0
 45
    1UNL     C1    1  -0.538   0.121  -0.124
    1UNL     C2    2  -0.449   0.030  -0.036
    1UNL     C3    3  -0.315   0.041  -0.037
    1UNL     C4    4  -0.246   0.128  -0.140
    1UNL     N1    5  -0.104   0.105  -0.124
    1UNL     C5    6  -0.050   0.142   0.012
    1UNL     C6    7  -0.131   0.060   0.124
    1UNL     C7    8  -0.222  -0.039   0.048
    1UNL     C8    9  -0.137  -0.137  -0.041
    1UNL     C9   10  -0.052  -0.230   0.044
    1UNL     O1   11  -0.122  -0.272   0.157
    1UNL    C10   12  -0.059  -0.041  -0.151
    1UNL    C11   13   0.097  -0.058  -0.140
    1UNL    C12   14   0.168   0.025  -0.047
    1UNL    C13   15   0.099   0.114   0.026
    1UNL     N2   16   0.188   0.172   0.118
    1UNL    C14   17   0.308   0.096   0.120
    1UNL    C15   18   0.425   0.114   0.198
    1UNL    C16   19   0.532   0.030   0.164
    1UNL    C17   20   0.525  -0.068   0.063
    1UNL     O2   21   0.637  -0.146   0.036
    1UNL    C18   22   0.412  -0.077  -0.017
    1UNL    C19   23   0.305   0.011   0.007
    1UNL     H1   24  -0.550   0.086  -0.226
    1UNL     H2   25  -0.633   0.128  -0.071
    1UNL     H3   26  -0.497   0.216  -0.136
    1UNL     H4   27  -0.497  -0.041   0.033
    1UNL     H5   28  -0.264   0.095  -0.238
    1UNL     H6   29  -0.270   0.237  -0.123
    1UNL     H7   30  -0.067   0.246   0.019
    1UNL     H8   31  -0.055   0.008   0.189
    1UNL     H9   32  -0.182   0.132   0.189
    1UNL    H10   33  -0.285  -0.087   0.121
    1UNL    H11   34  -0.198  -0.203  -0.099
    1UNL    H12   35   0.037  -0.182   0.082
    1UNL    H13   36  -0.025  -0.315  -0.018
    1UNL    H14   37  -0.170  -0.356   0.140
    1UNL    H15   38  -0.102  -0.064  -0.254
    1UNL    H16   39   0.135  -0.037  -0.235
    1UNL    H17   40   0.129  -0.158  -0.123
    1UNL    H18   41   0.162   0.230   0.192
    1UNL    H19   42   0.429   0.182   0.277
    1UNL    H20   43   0.617   0.039   0.226
    1UNL    H21   44   0.608  -0.231  -0.004
    1UNL    H22   45   0.418  -0.140  -0.111
   0.00000   0.00000   0.00000   0.00000   0.00000   0.00000   0.00000   0.00000   0.00000
Generated with MDTraj, t= 12.0
 45
    1UNL     C1    1  -0.545   0.110  -0.128
    1UNL     C2    2  -0.451   0.046  -0.028
    1UNL     C3    3  -0.318   0.045  -0.046
    1UNL     C4    4  -0.231   0.121  -0.152
    1UNL     N1    5  -0.089   0.101  -0.122
    1UNL     C5    6  -0.043   0.150   0.008
    1UNL     C6    7  -0.135   0.076   0.118
    1UNL     C7    8  -0.224  -0.026   0.054
    1UNL     C8    9  -0.135  -0.129  -0.033
    1UNL     C9   10  -0.047  -0.212   0.056
    1UNL     O1   11  -0.125  -0.295   0.143
    1UNL    C10   12  -0.056  -0.043  -0.146
    1UNL    C11   13   0.096  -0.068  -0.146
    1UNL    C12   14   0.164   0.011  -0.038
    1UNL    C13   15   0.096   0.109   0.032
    1UNL     N2   16   0.179   0.157   0.127
    1UNL    C14   17   0.306   0.094   0.125
    1UNL    C15   18   0.426   0.111   0.200
    1UNL    C16   19   0.531   0.033   0.159
    1UNL    C17   20   0.529  -0.059   0.057
    1UNL     O2   21   0.643  -0.133   0.019
    1UNL    C18   22   0.408  -0.078  -0.015
    1UNL    C19   23   0.294  -0.002   0.020
    1UNL     H1   24  -0.514   0.093  -0.229
    1UNL     H2   25  -0.645   0.064  -0.107
    1UNL     H3   26  -0.547   0.210  -0.115
    1UNL     H4   27  -0.487   0.005   0.064
    1UNL     H5   28  -0.260   0.083  -0.247
    1UNL     H6   29  -0.245   0.230  -0.134
    1UNL     H7   30  -0.067   0.254   0.006
    1UNL     H8   31  -0.076   0.038   0.204
    1UNL     H9   32  -0.196   0.159   0.162
    1UNL    H10   33  -0.288  -0.071   0.129
    1UNL    H11   34  -0.203  -0.199  -0.076
    1UNL    H12   35   0.007  -0.137   0.114
    1UNL    H13   36   0.021  -0.288   0.012
    1UNL    H14   37  -0.216  -0.307   0.101
    1UNL    H15   38  -0.110  -0.077  -0.238
    1UNL    H16   39   0.145  -0.048  -0.234
    1UNL    H17   40   0.111  -0.176  -0.139
    1UNL    H18   41   0.164   0.226   0.202
    1UNL    H19   42   0.432   0.163   0.298
    1UNL    H20   43   0.625   0.021   0.221
    1UNL    H21   44   0.616  -0.208  -0.032
    1UNL    H22   45   0.417  -0.141  -0.100
   0.00000   0.00000   0.00000   0.00000   0.00000   0.00000   0.00000   0.00000   0.00000
Generated with MDTraj, t= 13.0
 45
    1UNL     C1    1  -0.520   0.120  -0.143
    1UNL     C2    2  -0.448   0.040  -0.045
    1UNL     C3    3  -0.314   0.043  -0.048
    1UNL     C4    4  -0.222   0.130  -0.144
    1UNL     N1    5  -0.077   0.097  -0.119
    1UNL     C5    6  -0.045   0.143   0.018
    1UNL     C6    7  -0.145   0.068   0.126
    1UNL     C7    8  -0.224  -0.028   0.045
    1UNL     C8    9  -0.132  -0.134  -0.035
    1UNL     C9   10  -0.049  -0.213   0.070
    1UNL     O1   11  -0.130  -0.296   0.155
    1UNL    C10   12  -0.049  -0.051  -0.139
    1UNL    C11   13   0.097  -0.069  -0.135
    1UNL    C12   14   0.158   0.011  -0.031
    1UNL    C13   15   0.097   0.106   0.046
    1UNL     N2   16   0.183   0.164   0.138
    1UNL    C14   17   0.303   0.099   0.122
    1UNL    C15   18   0.422   0.118   0.192
    1UNL    C16   19   0.528   0.038   0.154
    1UNL    C17   20   0.518  -0.062   0.045
    1UNL     O2   21   0.629  -0.135   0.002
    1UNL    C18   22   0.399  -0.077  -0.019
    1UNL    C19   23   0.292   0.004   0.016
    1UNL     H1   24  -0.486   0.117  -0.241
    1UNL     H2   25  -0.626   0.086  -0.144
    1UNL     H3   26  -0.524   0.222  -0.116
    1UNL     H4   27  -0.498  -0.020   0.033
    1UNL     H5   28  -0.248   0.098  -0.243
    1UNL     H6   29  -0.255   0.231  -0.112
    1UNL     H7   30  -0.057   0.249   0.024
    1UNL     H8   31  -0.083   0.019   0.200
    1UNL     H9   32  -0.208   0.145   0.183
    1UNL    H10   33  -0.286  -0.086   0.112
    1UNL    H11   34  -0.180  -0.215  -0.085
    1UNL    H12   35   0.006  -0.148   0.139
    1UNL    H13   36   0.024  -0.268   0.010
    1UNL    H14   37  -0.192  -0.354   0.104
    1UNL    H15   38  -0.096  -0.053  -0.240
    1UNL    H16   39   0.129  -0.037  -0.227
    1UNL    H17   40   0.130  -0.173  -0.131
    1UNL    H18   41   0.177   0.248   0.205
    1UNL    H19   42   0.409   0.178   0.279
    1UNL    H20   43   0.616   0.056   0.204
    1UNL    H21   44   0.611  -0.196  -0.068
    1UNL    H22   45   0.382  -0.143  -0.098
   0.00000   0.00000   0.00000   0.00000   0.00000   0.00000   0.00000   0.00000   0.00000
Generated with MDTraj, t= 14.0
 45
    1UNL     C1    1  -0.533   0.116  -0.160
    1UNL     C2    2  -0.457   0.041  -0.060
    1UNL     C3    3  -0.323   0.049  -0.046
    1UNL     C4    4  -0.236   0.137  -0.139
    1UNL     N1    5  -0.091   0.103  -0.109
    1UNL     C5    6  -0.049   0.131   0.034
    1UNL     C6    7  -0.148   0.047   0.130
    1UNL     C7    8  -0.233  -0.039   0.048
    1UNL     C8    9  -0.148  -0.131  -0.043
    1UNL     C9   10  -0.071  -0.232   0.046
    1UNL     O1   11  -0.131  -0.267   0.169
    1UNL    C10   12  -0.060  -0.041  -0.140
    1UNL    C11   13   0.094  -0.066  -0.136
    1UNL    C12   14   0.167   0.006  -0.027
    1UNL    C13   15   0.097   0.097   0.049
    1UNL     N2   16   0.192   0.151   0.134
    1UNL    C14   17   0.319   0.100   0.124
    1UNL    C15   18   0.444   0.120   0.185
    1UNL    C16   19   0.544   0.044   0.145
    1UNL    C17   20   0.530  -0.058   0.048
    1UNL     O2   21   0.649  -0.131   0.020
    1UNL    C18   22   0.412  -0.075  -0.022
    1UNL    C19   23   0.306   0.010   0.017
    1UNL     H1   24  -0.534   0.081  -0.257
    1UNL     H2   25  -0.633   0.118  -0.116
    1UNL     H3   26  -0.495   0.220  -0.166
    1UNL     H4   27  -0.512  -0.030  -0.001
    1UNL     H5   28  -0.268   0.112  -0.240
    1UNL     H6   29  -0.257   0.239  -0.105
    1UNL     H7   30  -0.063   0.239   0.035
    1UNL     H8   31  -0.088   0.008   0.210
    1UNL     H9   32  -0.213   0.130   0.176
    1UNL    H10   33  -0.298  -0.087   0.120
    1UNL    H11   34  -0.216  -0.194  -0.096
    1UNL    H12   35   0.027  -0.180   0.055
    1UNL    H13   36  -0.045  -0.329  -0.003
    1UNL    H14   37  -0.198  -0.336   0.158
    1UNL    H15   38  -0.101  -0.068  -0.237
    1UNL    H16   39   0.140  -0.037  -0.226
    1UNL    H17   40   0.114  -0.172  -0.130
    1UNL    H18   41   0.169   0.228   0.210
    1UNL    H19   42   0.460   0.197   0.261
    1UNL    H20   43   0.645   0.059   0.193
    1UNL    H21   44   0.626  -0.192  -0.053
    1UNL    H22   45   0.386  -0.159  -0.095
   0.00000   0.00000   0.00000   0.00000   0.00000   0.00000   0.00000   0.00000   0.00000
Generated with MDTraj, t= 15.0
 45
    1UNL     C1    1  -0.525   0.116  -0.154
    1UNL     C2    2  -0.447   0.046  -0.050
    1UNL     C3    3  -0.313   0.043  -0.051
    1UNL     C4    4  -0.225   0.127  -0.141
    1UNL     N1    5  -0.085   0.098  -0.112
    1UNL     C5    6  -0.041   0.144   0.017
    1UNL     C6    7  -0.138   0.073   0.124
    1UNL     C7    8  -0.226  -0.032   0.056
    1UNL     C8    9  -0.144  -0.133  -0.033
    1UNL     C9   10  -0.068  -0.228   0.056
    1UNL     O1   11  -0.149  -0.289   0.152
    1UNL    C10   12  -0.056  -0.051  -0.135
    1UNL    C11   13   0.095  -0.067  -0.135
    1UNL    C12   14   0.159   0.007  -0.021
    1UNL    C13   15   0.096   0.104   0.052
    1UNL     N2   16   0.181   0.157   0.144
    1UNL    C14   17   0.305   0.093   0.125
    1UNL    C15   18   0.431   0.120   0.183
    1UNL    C16   19   0.542   0.047   0.145
    1UNL    C17   20   0.533  -0.050   0.041
    1UNL     O2   21   0.645  -0.126  -0.002
    1UNL    C18   22   0.407  -0.081  -0.011
    1UNL    C19   23   0.291  -0.005   0.028
    1UNL     H1   24  -0.520   0.073  -0.251
    1UNL     H2   25  -0.623   0.117  -0.110
    1UNL     H3   26  -0.480   0.218  -0.170
    1UNL     H4   27  -0.505  -0.023   0.015
    1UNL     H5   28  -0.232   0.094  -0.247
    1UNL     H6   29  -0.242   0.232  -0.130
    1UNL     H7   30  -0.053   0.254   0.029
    1UNL     H8   31  -0.085   0.029   0.206
    1UNL     H9   32  -0.187   0.159   0.183
    1UNL    H10   33  -0.286  -0.088   0.127
    1UNL    H11   34  -0.215  -0.194  -0.089
    1UNL    H12   35   0.014  -0.180   0.116
    1UNL    H13   36  -0.007  -0.291  -0.015
    1UNL    H14   37  -0.176  -0.379   0.123
    1UNL    H15   38  -0.088  -0.066  -0.238
    1UNL    H16   39   0.137  -0.026  -0.227
    1UNL    H17   40   0.124  -0.169  -0.126
    1UNL    H18   41   0.165   0.234   0.222
    1UNL    H19   42   0.432   0.192   0.265
    1UNL    H20   43   0.640   0.050   0.190
    1UNL    H21   44   0.628  -0.184  -0.085
    1UNL    H22   45   0.397  -0.161  -0.075
   0.00000   0.00000   0.00000   0.00000   0.00000   0.00000   0.00000   0.00000   0.00000
Generated with MDTraj, t= 16.0
 45
    1UNL     C1    1  -0.529   0.125  -0.141
    1UNL     C2    2  -0.444   0.053  -0.046
    1UNL     C3    3  -0.311   0.054  -0.051
    1UNL     C4    4  -0.225   0.123  -0.154
    1UNL     N1    5  -0.085   0.091  -0.121
    1UNL     C5    6  -0.042   0.135   0.021
    1UNL     C6    7  -0.147   0.076   0.123
    1UNL     C7    8  -0.233  -0.018   0.048
    1UNL     C8    9  -0.143  -0.130  -0.018
    1UNL     C9   10  -0.065  -0.218   0.081
    1UNL     O1   11  -0.140  -0.326   0.129
    1UNL    C10   12  -0.056  -0.056  -0.127
    1UNL    C11   13   0.096  -0.083  -0.128
    1UNL    C12   14   0.163   0.007  -0.028
    1UNL    C13   15   0.097   0.100   0.050
    1UNL     N2   16   0.184   0.165   0.132
    1UNL    C14   17   0.307   0.101   0.120
    1UNL    C15   18   0.428   0.113   0.190
    1UNL    C16   19   0.535   0.033   0.153
    1UNL    C17   20   0.531  -0.054   0.044
    1UNL     O2   21   0.641  -0.120   0.005
    1UNL    C18   22   0.412  -0.066  -0.021
    1UNL    C19   23   0.298   0.003   0.018
    1UNL     H1   24  -0.500   0.130  -0.248
    1UNL     H2   25  -0.626   0.092  -0.135
    1UNL     H3   26  -0.523   0.235  -0.121
    1UNL     H4   27  -0.500  -0.014   0.017
    1UNL     H5   28  -0.240   0.109  -0.265
    1UNL     H6   29  -0.227   0.226  -0.133
    1UNL     H7   30  -0.051   0.248   0.012
    1UNL     H8   31  -0.090   0.033   0.204
    1UNL     H9   32  -0.206   0.155   0.182
    1UNL    H10   33  -0.306  -0.069   0.110
    1UNL    H11   34  -0.211  -0.196  -0.074
    1UNL    H12   35  -0.017  -0.160   0.166
    1UNL    H13   36   0.032  -0.269   0.049
    1UNL    H14   37  -0.236  -0.298   0.143
    1UNL    H15   38  -0.086  -0.098  -0.222
    1UNL    H16   39   0.137  -0.051  -0.225
    1UNL    H17   40   0.116  -0.186  -0.116
    1UNL    H18   41   0.163   0.240   0.203
    1UNL    H19   42   0.442   0.190   0.258
    1UNL    H20   43   0.624   0.051   0.209
    1UNL    H21   44   0.636  -0.152  -0.094
    1UNL    H22   45   0.399  -0.130  -0.107
   0.00000   0.00000   0.00000   0.00000   0.00000   0.00000   0.00000   0.00000   0.00000
Generated with MDTraj, t= 17.0
 45
    1UNL     C1    1  -0.529   0.127  -0.137
    1UNL     C2    2  -0.442   0.054  -0.035
    1UNL     C3    3  -0.310   0.051  -0.041
    1UNL     C4    4  -0.235   0.122  -0.143
    1UNL     N1    5  -0.092   0.099  -0.118
    1UNL     C5    6  -0.045   0.133   0.021
    1UNL     C6    7  -0.134   0.056   0.130
    1UNL     C7    8  -0.227  -0.037   0.052
    1UNL     C8    9  -0.149  -0.135  -0.042
    1UNL     C9   10  -0.074  -0.235   0.037
    1UNL     O1   11  -0.143  -0.293   0.148
    1UNL    C10   12  -0.059  -0.051  -0.144
    1UNL    C11   13   0.094  -0.077  -0.138
    1UNL    C12   14   0.161   0.003  -0.027
    1UNL    C13   15   0.102   0.110   0.035
    1UNL     N2   16   0.182   0.161   0.134
    1UNL    C14   17   0.311   0.104   0.121
    1UNL    C15   18   0.434   0.121   0.184
    1UNL    C16   19   0.543   0.048   0.147
    1UNL    C17   20   0.529  -0.051   0.052
    1UNL     O2   21   0.646  -0.128   0.030
    1UNL    C18   22   0.410  -0.077  -0.015
    1UNL    C19   23   0.299   0.002   0.024
    1UNL     H1   24  -0.521   0.115  -0.248
    1UNL     H2   25  -0.631   0.107  -0.126
    1UNL     H3   26  -0.525   0.237  -0.132
    1UNL     H4   27  -0.488  -0.020   0.030
    1UNL     H5   28  -0.253   0.075  -0.244
    1UNL     H6   29  -0.257   0.224  -0.152
    1UNL     H7   30  -0.054   0.248   0.016
    1UNL     H8   31  -0.068   0.008   0.201
    1UNL     H9   32  -0.174   0.142   0.190
    1UNL    H10   33  -0.288  -0.101   0.116
    1UNL    H11   34  -0.222  -0.186  -0.109
    1UNL    H12   35   0.024  -0.202   0.081
    1UNL    H13   36  -0.033  -0.320  -0.026
    1UNL    H14   37  -0.187  -0.224   0.204
    1UNL    H15   38  -0.087  -0.071  -0.247
    1UNL    H16   39   0.133  -0.047  -0.238
    1UNL    H17   40   0.121  -0.179  -0.128
    1UNL    H18   41   0.152   0.244   0.183
    1UNL    H19   42   0.451   0.210   0.251
    1UNL    H20   43   0.648   0.072   0.181
    1UNL    H21   44   0.630  -0.178  -0.057
    1UNL    H22   45   0.409  -0.151  -0.098
   0.00000   0.00000   0.00000   0.00000   0.00000   0.00000   0.00000   0.00000   0.00000
Generated with MDTraj, t= 18.0
 45
    1UNL     C1    1  -0.530   0.139  -0.118
    1UNL     C2    2  -0.453   0.037  -0.041
    1UNL     C3    3  -0.318   0.031  -0.054
    1UNL     C4    4  -0.238   0.123  -0.146
    1UNL     N1    5  -0.089   0.099  -0.116
    1UNL     C5    6  -0.044   0.136   0.020
    1UNL     C6    7  -0.137   0.048   0.117
    1UNL     C7    8  -0.232  -0.043   0.042
    1UNL     C8    9  -0.141  -0.135  -0.043
    1UNL     C9   10  -0.061  -0.230   0.045
    1UNL     O1   11  -0.143  -0.291   0.143
    1UNL    C10   12  -0.058  -0.046  -0.140
    1UNL    C11   13   0.099  -0.062  -0.139
    1UNL    C12   14   0.165   0.012  -0.020
    1UNL    C13   15   0.101   0.117   0.047
    1UNL     N2   16   0.191   0.175   0.135
    1UNL    C14   17   0.313   0.106   0.110
    1UNL    C15   18   0.431   0.127   0.175
    1UNL    C16   19   0.540   0.052   0.148
    1UNL    C17   20   0.531  -0.059   0.054
    1UNL     O2   21   0.635  -0.145   0.038
    1UNL    C18   22   0.410  -0.083  -0.013
    1UNL    C19   23   0.299   0.000   0.021
    1UNL     H1   24  -0.596   0.097  -0.197
    1UNL     H2   25  -0.604   0.184  -0.054
    1UNL     H3   26  -0.461   0.213  -0.152
    1UNL     H4   27  -0.517  -0.039   0.001
    1UNL     H5   28  -0.256   0.119  -0.257
    1UNL     H6   29  -0.257   0.222  -0.120
    1UNL     H7   30  -0.064   0.248   0.039
    1UNL     H8   31  -0.067  -0.001   0.187
    1UNL     H9   32  -0.193   0.125   0.173
    1UNL    H10   33  -0.302  -0.098   0.104
    1UNL    H11   34  -0.214  -0.198  -0.103
    1UNL    H12   35   0.029  -0.182   0.091
    1UNL    H13   36  -0.011  -0.318  -0.006
    1UNL    H14   37  -0.120  -0.259   0.231
    1UNL    H15   38  -0.097  -0.061  -0.241
    1UNL    H16   39   0.154  -0.031  -0.232
    1UNL    H17   40   0.117  -0.168  -0.133
    1UNL    H18   41   0.174   0.253   0.187
    1UNL    H19   42   0.429   0.210   0.236
    1UNL    H20   43   0.631   0.087   0.181
    1UNL    H21   44   0.617  -0.199  -0.043
    1UNL    H22   45   0.397  -0.161  -0.078
   0.00000   0.00000   0.00000   0.00000   0.00000   0.00000   0.00000   0.00000   0.00000
Generated with MDTraj, t= 19.0
 45
    1UNL     C1    1  -0.537   0.120  -0.133
    1UNL     C2    2  -0.444   0.071  -0.023
    1UNL     C3    3  -0.313   0.051  -0.044
    1UNL     C4    4  -0.237   0.119  -0.149
    1UNL     N1    5  -0.088   0.099  -0.126
    1UNL     C5    6  -0.041   0.145   0.013
    1UNL     C6    7  -0.131   0.075   0.125
    1UNL     C7    8  -0.226  -0.030   0.050
    1UNL     C8    9  -0.135  -0.129  -0.036
    1UNL     C9   10  -0.050  -0.224   0.061
    1UNL     O1   11  -0.114  -0.327   0.129
    1UNL    C10   12  -0.059  -0.050  -0.141
    1UNL    C11   13   0.093  -0.079  -0.142
    1UNL    C12   14   0.160   0.009  -0.030
    1UNL    C13   15   0.098   0.110   0.037
    1UNL     N2   16   0.181   0.167   0.125
    1UNL    C14   17   0.307   0.108   0.116
    1UNL    C15   18   0.429   0.112   0.187
    1UNL    C16   19   0.537   0.035   0.159
    1UNL    C17   20   0.518  -0.058   0.051
    1UNL     O2   21   0.631  -0.138   0.037
    1UNL    C18   22   0.401  -0.064  -0.018
    1UNL    C19   23   0.290   0.005   0.025
    1UNL     H1   24  -0.624   0.053  -0.142
    1UNL     H2   25  -0.588   0.212  -0.095
    1UNL     H3   26  -0.486   0.140  -0.222
    1UNL     H4   27  -0.484  -0.002   0.048
    1UNL     H5   28  -0.261   0.075  -0.249
    1UNL     H6   29  -0.257   0.222  -0.153
    1UNL     H7   30  -0.073   0.256   0.008
    1UNL     H8   31  -0.059   0.016   0.189
    1UNL     H9   32  -0.173   0.151   0.192
    1UNL    H10   33  -0.282  -0.079   0.129
    1UNL    H11   34  -0.204  -0.199  -0.091
    1UNL    H12   35   0.009  -0.169   0.135
    1UNL    H13   36   0.027  -0.274  -0.002
    1UNL    H14   37  -0.212  -0.318   0.138
    1UNL    H15   38  -0.099  -0.077  -0.238
    1UNL    H16   39   0.125  -0.053  -0.245
    1UNL    H17   40   0.127  -0.186  -0.136
    1UNL    H18   41   0.168   0.237   0.187
    1UNL    H19   42   0.440   0.196   0.258
    1UNL    H20   43   0.634   0.050   0.214
    1UNL    H21   44   0.628  -0.182  -0.047
    1UNL    H22   45   0.379  -0.151  -0.085
   0.00000   0.00000   0.00000   0.00000   0.00000   0.00000   0.00000   0.00000   0.00000
Generated with MDTraj, t= 20.0
 45
    1UNL     C1    1  -0.537   0.105  -0.114
    1UNL     C2    2  -0.439   0.035  -0.034
    1UNL     C3    3  -0.307   0.038  -0.046
    1UNL     C4    4  -0.242   0.129  -0.147
    1UNL     N1    5  -0.094   0.103  -0.130
    1UNL     C5    6  -0.043   0.150   0.003
    1UNL     C6    7  -0.130   0.082   0.113
    1UNL     C7    8  -0.216  -0.028   0.049
    1UNL     C8    9  -0.132  -0.126  -0.033
    1UNL     C9   10  -0.056  -0.223   0.062
    1UNL     O1   11  -0.138  -0.305   0.136
    1UNL    C10   12  -0.052  -0.044  -0.135
    1UNL    C11   13   0.102  -0.059  -0.143
    1UNL    C12   14   0.167   0.017  -0.034
    1UNL    C13   15   0.096   0.117   0.030
    1UNL     N2   16   0.181   0.166   0.128
    1UNL    C14   17   0.304   0.096   0.122
    1UNL    C15   18   0.414   0.109   0.198
    1UNL    C16   19   0.518   0.022   0.170
    1UNL    C17   20   0.524  -0.061   0.053
    1UNL     O2   21   0.637  -0.141   0.026
    1UNL    C18   22   0.410  -0.077  -0.025
    1UNL    C19   23   0.301   0.003   0.015
    1UNL     H1   24  -0.629   0.121  -0.059
    1UNL     H2   25  -0.510   0.213  -0.133
    1UNL     H3   26  -0.554   0.068  -0.210
    1UNL     H4   27  -0.467  -0.059   0.010
    1UNL     H5   28  -0.274   0.111  -0.251
    1UNL     H6   29  -0.257   0.232  -0.118
    1UNL     H7   30  -0.051   0.264   0.024
    1UNL     H8   31  -0.058   0.040   0.192
    1UNL     H9   32  -0.186   0.162   0.159
    1UNL    H10   33  -0.266  -0.082   0.130
    1UNL    H11   34  -0.198  -0.199  -0.091
    1UNL    H12   35   0.008  -0.162   0.124
    1UNL    H13   36   0.011  -0.286  -0.000
    1UNL    H14   37  -0.171  -0.264   0.221
    1UNL    H15   38  -0.091  -0.069  -0.232
    1UNL    H16   39   0.151  -0.039  -0.239
    1UNL    H17   40   0.127  -0.171  -0.130
    1UNL    H18   41   0.164   0.240   0.190
    1UNL    H19   42   0.414   0.199   0.259
    1UNL    H20   43   0.611   0.050   0.214
    1UNL    H21   44   0.629  -0.163  -0.065
    1UNL    H22   45   0.415  -0.149  -0.105
   0.00000   0.00000   0.00000   0.00000   0.00000   0.00000   0.00000   0.00000   0.00000
Generated with MDTraj, t= 21.0
 45
    1UNL     C1    1  -0.538   0.105  -0.143
    1UNL     C2    2  -0.457   0.048  -0.032
    1UNL     C3    3  -0.322   0.037  -0.039
    1UNL     C4    4  -0.240   0.121  -0.140
    1UNL     N1    5  -0.097   0.104  -0.119
    1UNL     C5    6  -0.050   0.147   0.023
    1UNL     C6    7  -0.135   0.063   0.119
    1UNL     C7    8  -0.227  -0.041   0.050
    1UNL     C8    9  -0.134  -0.123  -0.044
    1UNL     C9   10  -0.046  -0.220   0.040
    1UNL     O1   11  -0.106  -0.275   0.159
    1UNL    C10   12  -0.060  -0.037  -0.149
    1UNL    C11   13   0.095  -0.057  -0.155
    1UNL    C12   14   0.157   0.022  -0.039
    1UNL    C13   15   0.092   0.119   0.036
    1UNL     N2   16   0.178   0.159   0.136
    1UNL    C14   17   0.310   0.102   0.118
    1UNL    C15   18   0.429   0.108   0.194
    1UNL    C16   19   0.533   0.026   0.160
    1UNL    C17   20   0.528  -0.070   0.055
    1UNL     O2   21   0.640  -0.154   0.035
    1UNL    C18   22   0.408  -0.072  -0.018
    1UNL    C19   23   0.292   0.006   0.019
    1UNL     H1   24  -0.622   0.154  -0.101
    1UNL     H2   25  -0.482   0.183  -0.198
    1UNL     H3   26  -0.563   0.031  -0.218
    1UNL     H4   27  -0.509  -0.035   0.016
    1UNL     H5   28  -0.253   0.086  -0.241
    1UNL     H6   29  -0.260   0.230  -0.138
    1UNL     H7   30  -0.061   0.262   0.030
    1UNL     H8   31  -0.053   0.006   0.177
    1UNL     H9   32  -0.192   0.131   0.180
    1UNL    H10   33  -0.280  -0.102   0.123
    1UNL    H11   34  -0.202  -0.193  -0.103
    1UNL    H12   35   0.053  -0.181   0.067
    1UNL    H13   36  -0.028  -0.307  -0.025
    1UNL    H14   37  -0.062  -0.238   0.240
    1UNL    H15   38  -0.095  -0.064  -0.246
    1UNL    H16   39   0.137  -0.026  -0.254
    1UNL    H17   40   0.132  -0.166  -0.155
    1UNL    H18   41   0.169   0.236   0.204
    1UNL    H19   42   0.447   0.197   0.248
    1UNL    H20   43   0.618   0.029   0.225
    1UNL    H21   44   0.631  -0.189  -0.054
    1UNL    H22   45   0.402  -0.148  -0.090
   0.00000   0.00000   0.00000   0.00000   0.00000   0.00000   0.00000   0.00000   0.00000
Generated with MDTraj, t= 22.0
 45
    1UNL     C1    1  -0.537   0.108  -0.135
    1UNL     C2    2  -0.448   0.027  -0.048
    1UNL     C3    3  -0.316   0.042  -0.060
    1UNL     C4    4  -0.243   0.133  -0.140
    1UNL     N1    5  -0.098   0.103  -0.126
    1UNL     C5    6  -0.047   0.141   0.021
    1UNL     C6    7  -0.146   0.066   0.118
    1UNL     C7    8  -0.224  -0.034   0.038
    1UNL     C8    9  -0.123  -0.126  -0.034
    1UNL     C9   10  -0.026  -0.201   0.065
    1UNL     O1   11  -0.106  -0.273   0.162
    1UNL    C10   12  -0.056  -0.041  -0.138
    1UNL    C11   13   0.095  -0.057  -0.146
    1UNL    C12   14   0.162   0.023  -0.034
    1UNL    C13   15   0.095   0.114   0.042
    1UNL     N2   16   0.185   0.158   0.138
    1UNL    C14   17   0.308   0.101   0.124
    1UNL    C15   18   0.427   0.111   0.196
    1UNL    C16   19   0.526   0.025   0.154
    1UNL    C17   20   0.516  -0.069   0.044
    1UNL     O2   21   0.624  -0.157   0.024
    1UNL    C18   22   0.396  -0.080  -0.019
    1UNL    C19   23   0.292   0.007   0.020
    1UNL     H1   24  -0.634   0.069  -0.121
    1UNL     H2   25  -0.535   0.211  -0.103
    1UNL     H3   26  -0.502   0.107  -0.243
    1UNL     H4   27  -0.490  -0.063  -0.007
    1UNL     H5   28  -0.271   0.123  -0.241
    1UNL     H6   29  -0.254   0.241  -0.110
    1UNL     H7   30  -0.067   0.253   0.032
    1UNL     H8   31  -0.089  -0.006   0.186
    1UNL     H9   32  -0.203   0.138   0.174
    1UNL    H10   33  -0.279  -0.104   0.102
    1UNL    H11   34  -0.191  -0.201  -0.088
    1UNL    H12   35   0.044  -0.137   0.119
    1UNL    H13   36   0.037  -0.278   0.022
    1UNL    H14   37  -0.088  -0.368   0.156
    1UNL    H15   38  -0.090  -0.066  -0.236
    1UNL    H16   39   0.140  -0.032  -0.249
    1UNL    H17   40   0.125  -0.166  -0.134
    1UNL    H18   41   0.165   0.230   0.217
    1UNL    H19   42   0.445   0.202   0.259
    1UNL    H20   43   0.629   0.049   0.192
    1UNL    H21   44   0.614  -0.200  -0.067
    1UNL    H22   45   0.385  -0.149  -0.107
   0.00000   0.00000   0.00000   0.00000   0.00000   0.00000   0.00000   0.00000   0.00000
Generated with MDTraj, t= 23.0
 45
    1UNL     C1    1  -0.542   0.083  -0.141
    1UNL     C2    2  -0.439   0.043  -0.039
    1UNL     C3    3  -0.306   0.041  -0.038
    1UNL     C4    4  -0.234   0.131  -0.140
    1UNL     N1    5  -0.087   0.098  -0.122
    1UNL     C5    6  -0.041   0.156   0.006
    1UNL     C6    7  -0.126   0.083   0.118
    1UNL     C7    8  -0.217  -0.029   0.054
    1UNL     C8    9  -0.140  -0.124  -0.037
    1UNL     C9   10  -0.047  -0.206   0.059
    1UNL     O1   11  -0.114  -0.291   0.158
    1UNL    C10   12  -0.058  -0.043  -0.140
    1UNL    C11   13   0.094  -0.067  -0.140
    1UNL    C12   14   0.162   0.024  -0.039
    1UNL    C13   15   0.099   0.124   0.033
    1UNL     N2   16   0.180   0.156   0.134
    1UNL    C14   17   0.305   0.097   0.119
    1UNL    C15   18   0.414   0.093   0.206
    1UNL    C16   19   0.523   0.023   0.164
    1UNL    C17   20   0.518  -0.064   0.048
    1UNL     O2   21   0.633  -0.141   0.020
    1UNL    C18   22   0.402  -0.072  -0.027
    1UNL    C19   23   0.293   0.007   0.014
    1UNL     H1   24  -0.589  -0.004  -0.182
    1UNL     H2   25  -0.618   0.144  -0.102
    1UNL     H3   26  -0.508   0.147  -0.229
    1UNL     H4   27  -0.491  -0.026   0.028
    1UNL     H5   28  -0.257   0.117  -0.241
    1UNL     H6   29  -0.244   0.243  -0.124
    1UNL     H7   30  -0.053   0.268   0.014
    1UNL     H8   31  -0.053   0.040   0.193
    1UNL     H9   32  -0.190   0.147   0.177
    1UNL    H10   33  -0.270  -0.077   0.139
    1UNL    H11   34  -0.212  -0.193  -0.091
    1UNL    H12   35   0.024  -0.148   0.120
    1UNL    H13   36   0.021  -0.272   0.007
    1UNL    H14   37  -0.205  -0.312   0.126
    1UNL    H15   38  -0.087  -0.059  -0.240
    1UNL    H16   39   0.141  -0.038  -0.243
    1UNL    H17   40   0.114  -0.177  -0.131
    1UNL    H18   41   0.151   0.220   0.220
    1UNL    H19   42   0.417   0.163   0.280
    1UNL    H20   43   0.616   0.040   0.205
    1UNL    H21   44   0.620  -0.183  -0.074
    1UNL    H22   45   0.388  -0.144  -0.100
   0.00000   0.00000   0.00000   0.00000   0.00000   0.00000   0.00000   0.00000   0.00000
Generated with MDTraj, t= 24.0
 45
    1UNL     C1    1  -0.532   0.094  -0.131
    1UNL     C2    2  -0.454   0.028  -0.027
    1UNL     C3    3  -0.323   0.042  -0.039
    1UNL     C4    4  -0.247   0.122  -0.143
    1UNL     N1    5  -0.094   0.102  -0.125
    1UNL     C5    6  -0.043   0.150   0.014
    1UNL     C6    7  -0.135   0.077   0.114
    1UNL     C7    8  -0.227  -0.027   0.052
    1UNL     C8    9  -0.141  -0.121  -0.034
    1UNL     C9   10  -0.055  -0.217   0.055
    1UNL     O1   11  -0.142  -0.286   0.143
    1UNL    C10   12  -0.059  -0.037  -0.140
    1UNL    C11   13   0.097  -0.058  -0.154
    1UNL    C12   14   0.169   0.025  -0.044
    1UNL    C13   15   0.101   0.116   0.035
    1UNL     N2   16   0.193   0.167   0.125
    1UNL    C14   17   0.312   0.097   0.119
    1UNL    C15   18   0.426   0.098   0.198
    1UNL    C16   19   0.533   0.020   0.162
    1UNL    C17   20   0.528  -0.066   0.053
    1UNL     O2   21   0.648  -0.134   0.034
    1UNL    C18   22   0.408  -0.080  -0.022
    1UNL    C19   23   0.299   0.002   0.017
    1UNL     H1   24  -0.493   0.068  -0.233
    1UNL     H2   25  -0.633   0.064  -0.135
    1UNL     H3   26  -0.546   0.203  -0.120
    1UNL     H4   27  -0.498  -0.040   0.044
    1UNL     H5   28  -0.269   0.084  -0.238
    1UNL     H6   29  -0.272   0.232  -0.142
    1UNL     H7   30  -0.053   0.262   0.010
    1UNL     H8   31  -0.082   0.032   0.201
    1UNL     H9   32  -0.192   0.159   0.161
    1UNL    H10   33  -0.267  -0.077   0.144
    1UNL    H11   34  -0.220  -0.186  -0.079
    1UNL    H12   35   0.035  -0.171   0.099
    1UNL    H13   36  -0.009  -0.297  -0.003
    1UNL    H14   37  -0.103  -0.292   0.235
    1UNL    H15   38  -0.088  -0.070  -0.237
    1UNL    H16   39   0.130  -0.038  -0.266
    1UNL    H17   40   0.128  -0.160  -0.122
    1UNL    H18   41   0.157   0.242   0.197
    1UNL    H19   42   0.436   0.176   0.278
    1UNL    H20   43   0.631   0.044   0.210
    1UNL    H21   44   0.645  -0.190  -0.052
    1UNL    H22   45   0.395  -0.160  -0.094
   0.00000   0.00000   0.00000   0.00000   0.00000   0.00000   0.00000   0.00000   0.00000
Generated with MDTraj, t= 25.0
 45
    1UNL     C1    1  -0.527   0.132  -0.128
    1UNL     C2    2  -0.445   0.038  -0.049
    1UNL     C3    3  -0.311   0.041  -0.050
    1UNL     C4    4  -0.230   0.126  -0.143
    1UNL     N1    5  -0.091   0.096  -0.119
    1UNL     C5    6  -0.051   0.141   0.027
    1UNL     C6    7  -0.146   0.065   0.126
    1UNL     C7    8  -0.225  -0.038   0.048
    1UNL     C8    9  -0.134  -0.136  -0.046
    1UNL     C9   10  -0.049  -0.224   0.048
    1UNL     O1   11  -0.110  -0.296   0.151
    1UNL    C10   12  -0.057  -0.054  -0.141
    1UNL    C11   13   0.095  -0.069  -0.138
    1UNL    C12   14   0.156   0.021  -0.027
    1UNL    C13   15   0.095   0.117   0.046
    1UNL     N2   16   0.184   0.172   0.135
    1UNL    C14   17   0.308   0.107   0.114
    1UNL    C15   18   0.427   0.121   0.178
    1UNL    C16   19   0.536   0.040   0.144
    1UNL    C17   20   0.523  -0.062   0.046
    1UNL     O2   21   0.626  -0.152   0.033
    1UNL    C18   22   0.399  -0.076  -0.015
    1UNL    C19   23   0.293   0.006   0.020
    1UNL     H1   24  -0.459   0.184  -0.203
    1UNL     H2   25  -0.602   0.078  -0.183
    1UNL     H3   26  -0.585   0.188  -0.057
    1UNL     H4   27  -0.499  -0.026   0.023
    1UNL     H5   28  -0.253   0.088  -0.241
    1UNL     H6   29  -0.252   0.235  -0.134
    1UNL     H7   30  -0.057   0.251   0.045
    1UNL     H8   31  -0.079   0.019   0.201
    1UNL     H9   32  -0.214   0.133   0.183
    1UNL    H10   33  -0.297  -0.101   0.106
    1UNL    H11   34  -0.204  -0.196  -0.107
    1UNL    H12   35   0.031  -0.167   0.098
    1UNL    H13   36   0.013  -0.297  -0.005
    1UNL    H14   37  -0.194  -0.256   0.185
    1UNL    H15   38  -0.080  -0.069  -0.246
    1UNL    H16   39   0.150  -0.028  -0.235
    1UNL    H17   40   0.115  -0.178  -0.131
    1UNL    H18   41   0.162   0.255   0.197
    1UNL    H19   42   0.446   0.203   0.244
    1UNL    H20   43   0.632   0.058   0.187
    1UNL    H21   44   0.605  -0.221  -0.034
    1UNL    H22   45   0.374  -0.164  -0.079
   0.00000   0.00000   0.00000   0.00000   0.00000   0.00000   0.00000   0.00000   0.00000
Generated with MDTraj, t= 26.0
 45
    1UNL     C1    1  -0.538   0.128  -0.126
    1UNL     C2    2  -0.442   0.058  -0.040
    1UNL     C3    3  -0.310   0.045  -0.051
    1UNL     C4    4  -0.222   0.129  -0.150
    1UNL     N1    5  -0.089   0.100  -0.123
    1UNL     C5    6  -0.048   0.133   0.023
    1UNL     C6    7  -0.142   0.065   0.122
    1UNL     C7    8  -0.235  -0.036   0.049
    1UNL     C8    9  -0.145  -0.138  -0.039
    1UNL     C9   10  -0.055  -0.221   0.050
    1UNL     O1   11  -0.125  -0.301   0.138
    1UNL    C10   12  -0.059  -0.045  -0.131
    1UNL    C11   13   0.095  -0.077  -0.136
    1UNL    C12   14   0.164  -0.002  -0.022
    1UNL    C13   15   0.095   0.106   0.041
    1UNL     N2   16   0.177   0.164   0.128
    1UNL    C14   17   0.304   0.108   0.117
    1UNL    C15   18   0.426   0.125   0.182
    1UNL    C16   19   0.536   0.047   0.145
    1UNL    C17   20   0.525  -0.057   0.051
    1UNL     O2   21   0.639  -0.138   0.031
    1UNL    C18   22   0.408  -0.081  -0.016
    1UNL    C19   23   0.301   0.005   0.019
    1UNL     H1   24  -0.479   0.198  -0.190
    1UNL     H2   25  -0.594   0.060  -0.199
    1UNL     H3   26  -0.614   0.169  -0.067
    1UNL     H4   27  -0.475   0.021   0.056
    1UNL     H5   28  -0.246   0.110  -0.255
    1UNL     H6   29  -0.234   0.234  -0.118
    1UNL     H7   30  -0.069   0.241   0.030
    1UNL     H8   31  -0.084   0.014   0.198
    1UNL     H9   32  -0.200   0.145   0.178
    1UNL    H10   33  -0.299  -0.092   0.122
    1UNL    H11   34  -0.206  -0.210  -0.094
    1UNL    H12   35   0.017  -0.163   0.110
    1UNL    H13   36   0.007  -0.295  -0.004
    1UNL    H14   37  -0.075  -0.318   0.219
    1UNL    H15   38  -0.091  -0.065  -0.237
    1UNL    H16   39   0.131  -0.050  -0.243
    1UNL    H17   40   0.124  -0.185  -0.119
    1UNL    H18   41   0.148   0.240   0.188
    1UNL    H19   42   0.445   0.221   0.226
    1UNL    H20   43   0.631   0.063   0.190
    1UNL    H21   44   0.622  -0.209  -0.032
    1UNL    H22   45   0.396  -0.159  -0.081
   0.00000   0.00000   0.00000   0.00000   0.00000   0.00000   0.00000   0.00000   0.00000
Generated with MDTraj, t= 27.0
 45
    1UNL     C1    1  -0.534   0.115  -0.124
    1UNL     C2    2  -0.448   0.042  -0.031
    1UNL     C3    3  -0.316   0.049  -0.039
    1UNL     C4    4  -0.236   0.127  -0.153
    1UNL     N1    5  -0.088   0.095  -0.126
    1UNL     C5    6  -0.041   0.140   0.012
    1UNL     C6    7  -0.126   0.066   0.121
    1UNL     C7    8  -0.227  -0.031   0.049
    1UNL     C8    9  -0.139  -0.134  -0.037
    1UNL     C9   10  -0.075  -0.241   0.059
    1UNL     O1   11  -0.174  -0.290   0.150
    1UNL    C10   12  -0.058  -0.054  -0.147
    1UNL    C11   13   0.102  -0.073  -0.142
    1UNL    C12   14   0.165   0.016  -0.037
    1UNL    C13   15   0.101   0.114   0.035
    1UNL     N2   16   0.190   0.168   0.125
    1UNL    C14   17   0.313   0.095   0.116
    1UNL    C15   18   0.430   0.108   0.193
    1UNL    C16   19   0.541   0.040   0.166
    1UNL    C17   20   0.537  -0.049   0.054
    1UNL     O2   21   0.651  -0.114   0.017
    1UNL    C18   22   0.418  -0.078  -0.010
    1UNL    C19   23   0.298   0.000   0.017
    1UNL     H1   24  -0.505   0.220  -0.123
    1UNL     H2   25  -0.517   0.093  -0.237
    1UNL     H3   26  -0.637   0.099  -0.112
    1UNL     H4   27  -0.480  -0.011   0.059
    1UNL     H5   28  -0.265   0.066  -0.241
    1UNL     H6   29  -0.252   0.234  -0.159
    1UNL     H7   30  -0.052   0.248   0.028
    1UNL     H8   31  -0.071   0.009   0.194
    1UNL     H9   32  -0.175   0.148   0.185
    1UNL    H10   33  -0.287  -0.075   0.134
    1UNL    H11   34  -0.211  -0.199  -0.086
    1UNL    H12   35   0.002  -0.197   0.123
    1UNL    H13   36  -0.029  -0.330   0.010
    1UNL    H14   37  -0.261  -0.265   0.111
    1UNL    H15   38  -0.092  -0.090  -0.250
    1UNL    H16   39   0.163  -0.058  -0.238
    1UNL    H17   40   0.122  -0.183  -0.115
    1UNL    H18   41   0.163   0.228   0.195
    1UNL    H19   42   0.426   0.188   0.269
    1UNL    H20   43   0.635   0.057   0.222
    1UNL    H21   44   0.629  -0.170  -0.055
    1UNL    H22   45   0.404  -0.146  -0.097
   0.00000   0.00000   0.00000   0.00000   0.00000   0.00000   0.00000   0.00000   0.00000
Generated with MDTraj, t= 28.0
 45
    1UNL     C1    1  -0.527   0.133  -0.151
    1UNL     C2    2  -0.451   0.051  -0.046
    1UNL     C3    3  -0.316   0.044  -0.046
    1UNL     C4    4  -0.232   0.117  -0.148
    1UNL     N1    5  -0.083   0.094  -0.121
    1UNL     C5    6  -0.038   0.143   0.016
    1UNL     C6    7  -0.132   0.078   0.126
    1UNL     C7    8  -0.228  -0.029   0.055
    1UNL     C8    9  -0.152  -0.134  -0.026
    1UNL     C9   10  -0.075  -0.235   0.065
    1UNL     O1   11  -0.159  -0.323   0.146
    1UNL    C10   12  -0.061  -0.055  -0.125
    1UNL    C11   13   0.096  -0.081  -0.129
    1UNL    C12   14   0.171   0.013  -0.029
    1UNL    C13   15   0.100   0.109   0.038
    1UNL     N2   16   0.185   0.160   0.134
    1UNL    C14   17   0.313   0.110   0.120
    1UNL    C15   18   0.433   0.121   0.186
    1UNL    C16   19   0.540   0.046   0.149
    1UNL    C17   20   0.530  -0.050   0.045
    1UNL     O2   21   0.642  -0.128   0.013
    1UNL    C18   22   0.415  -0.066  -0.022
    1UNL    C19   23   0.305   0.010   0.022
    1UNL     H1   24  -0.564   0.220  -0.101
    1UNL     H2   25  -0.464   0.178  -0.233
    1UNL     H3   26  -0.607   0.071  -0.194
    1UNL     H4   27  -0.503   0.028   0.047
    1UNL     H5   28  -0.253   0.074  -0.250
    1UNL     H6   29  -0.259   0.220  -0.138
    1UNL     H7   30  -0.047   0.251   0.028
    1UNL     H8   31  -0.070   0.029   0.197
    1UNL     H9   32  -0.193   0.153   0.186
    1UNL    H10   33  -0.298  -0.070   0.134
    1UNL    H11   34  -0.231  -0.184  -0.076
    1UNL    H12   35  -0.016  -0.172   0.134
    1UNL    H13   36  -0.008  -0.296  -0.001
    1UNL    H14   37  -0.145  -0.417   0.117
    1UNL    H15   38  -0.100  -0.065  -0.234
    1UNL    H16   39   0.135  -0.072  -0.235
    1UNL    H17   40   0.129  -0.188  -0.103
    1UNL    H18   41   0.161   0.235   0.186
    1UNL    H19   42   0.432   0.177   0.273
    1UNL    H20   43   0.632   0.050   0.197
    1UNL    H21   44   0.620  -0.198  -0.047
    1UNL    H22   45   0.404  -0.146  -0.094
   0.00000   0.00000   0.00000   0.00000   0.00000   0.00000   0.00000   0.00000   0.00000
Generated with MDTraj, t= 29.0
 45
    1UNL     C1    1  -0.533   0.137  -0.139
    1UNL     C2    2  -0.447   0.046  -0.058
    1UNL     C3    3  -0.313   0.050  -0.052
    1UNL     C4    4  -0.225   0.133  -0.143
    1UNL     N1    5  -0.079   0.102  -0.116
    1UNL     C5    6  -0.047   0.130   0.029
    1UNL     C6    7  -0.148   0.060   0.123
    1UNL     C7    8  -0.234  -0.040   0.040
    1UNL     C8    9  -0.145  -0.136  -0.049
    1UNL     C9   10  -0.059  -0.226   0.052
    1UNL     O1   11  -0.134  -0.293   0.152
    1UNL    C10   12  -0.054  -0.044  -0.132
    1UNL    C11   13   0.098  -0.082  -0.117
    1UNL    C12   14   0.157  -0.009  -0.005
    1UNL    C13   15   0.094   0.094   0.062
    1UNL     N2   16   0.186   0.161   0.131
    1UNL    C14   17   0.312   0.103   0.114
    1UNL    C15   18   0.438   0.146   0.163
    1UNL    C16   19   0.546   0.062   0.137
    1UNL    C17   20   0.528  -0.056   0.053
    1UNL     O2   21   0.634  -0.132   0.011
    1UNL    C18   22   0.401  -0.092  -0.006
    1UNL    C19   23   0.298  -0.005   0.029
    1UNL     H1   24  -0.590   0.191  -0.065
    1UNL     H2   25  -0.478   0.214  -0.191
    1UNL     H3   26  -0.602   0.077  -0.208
    1UNL     H4   27  -0.503  -0.010   0.016
    1UNL     H5   28  -0.255   0.111  -0.250
    1UNL     H6   29  -0.231   0.236  -0.125
    1UNL     H7   30  -0.061   0.237   0.023
    1UNL     H8   31  -0.098   0.003   0.201
    1UNL     H9   32  -0.213   0.134   0.180
    1UNL    H10   33  -0.287  -0.117   0.105
    1UNL    H11   34  -0.200  -0.206  -0.105
    1UNL    H12   35   0.003  -0.156   0.112
    1UNL    H13   36   0.003  -0.303  -0.001
    1UNL    H14   37  -0.221  -0.327   0.123
    1UNL    H15   38  -0.075  -0.059  -0.245
    1UNL    H16   39   0.156  -0.051  -0.210
    1UNL    H17   40   0.112  -0.196  -0.123
    1UNL    H18   41   0.178   0.248   0.177
    1UNL    H19   42   0.450   0.235   0.228
    1UNL    H20   43   0.646   0.106   0.157
    1UNL    H21   44   0.599  -0.215  -0.028
    1UNL    H22   45   0.383  -0.169  -0.071
   0.00000   0.00000   0.00000   0.00000   0.00000   0.00000   0.00000   0.00000   0.00000
Generated with MDTraj, t= 30.0
 45
    1UNL     C1    1  -0.519   0.123  -0.148
    1UNL     C2    2  -0.451   0.052  -0.043
    1UNL     C3    3  -0.316   0.050  -0.046
    1UNL     C4    4  -0.227   0.129  -0.144
    1UNL     N1    5  -0.086   0.096  -0.111
    1UNL     C5    6  -0.048   0.129   0.031
    1UNL     C6    7  -0.131   0.045   0.129
    1UNL     C7    8  -0.230  -0.035   0.046
    1UNL     C8    9  -0.148  -0.133  -0.040
    1UNL     C9   10  -0.076  -0.237   0.049
    1UNL     O1   11  -0.153  -0.268   0.158
    1UNL    C10   12  -0.060  -0.051  -0.145
    1UNL    C11   13   0.095  -0.081  -0.133
    1UNL    C12   14   0.159   0.002  -0.023
    1UNL    C13   15   0.094   0.099   0.044
    1UNL     N2   16   0.186   0.157   0.132
    1UNL    C14   17   0.316   0.106   0.118
    1UNL    C15   18   0.438   0.132   0.176
    1UNL    C16   19   0.545   0.051   0.144
    1UNL    C17   20   0.533  -0.050   0.048
    1UNL     O2   21   0.645  -0.127   0.016
    1UNL    C18   22   0.410  -0.069  -0.011
    1UNL    C19   23   0.297   0.003   0.022
    1UNL     H1   24  -0.615   0.157  -0.112
    1UNL     H2   25  -0.475   0.212  -0.183
    1UNL     H3   26  -0.545   0.064  -0.243
    1UNL     H4   27  -0.517   0.018   0.037
    1UNL     H5   28  -0.237   0.095  -0.252
    1UNL     H6   29  -0.240   0.233  -0.146
    1UNL     H7   30  -0.043   0.232   0.057
    1UNL     H8   31  -0.065  -0.017   0.190
    1UNL     H9   32  -0.188   0.112   0.199
    1UNL    H10   33  -0.295  -0.102   0.111
    1UNL    H11   34  -0.222  -0.190  -0.090
    1UNL    H12   35   0.014  -0.192   0.098
    1UNL    H13   36  -0.044  -0.329  -0.007
    1UNL    H14   37  -0.213  -0.340   0.134
    1UNL    H15   38  -0.090  -0.070  -0.255
    1UNL    H16   39   0.142  -0.071  -0.237
    1UNL    H17   40   0.115  -0.188  -0.106
    1UNL    H18   41   0.158   0.226   0.204
    1UNL    H19   42   0.442   0.209   0.248
    1UNL    H20   43   0.632   0.055   0.205
    1UNL    H21   44   0.620  -0.214  -0.032
    1UNL    H22   45   0.416  -0.148  -0.094
   0.00000   0.00000   0.00000   0.00000   0.00000   0.00000   0.00000   0.00000   0.00000
Generated with MDTraj, t= 31.0
 45
    1UNL     C1    1  -0.526   0.129  -0.141
    1UNL     C2    2  -0.450   0.036  -0.055
    1UNL     C3    3  -0.317   0.047  -0.050
    1UNL     C4    4  -0.231   0.114  -0.153
    1UNL     N1    5  -0.088   0.091  -0.124
    1UNL     C5    6  -0.041   0.144   0.008
    1UNL     C6    7  -0.133   0.084   0.119
    1UNL     C7    8  -0.231  -0.023   0.055
    1UNL     C8    9  -0.148  -0.132  -0.017
    1UNL     C9   10  -0.072  -0.227   0.079
    1UNL     O1   11  -0.160  -0.312   0.150
    1UNL    C10   12  -0.065  -0.053  -0.125
    1UNL    C11   13   0.091  -0.073  -0.125
    1UNL    C12   14   0.167   0.019  -0.034
    1UNL    C13   15   0.105   0.119   0.036
    1UNL     N2   16   0.185   0.159   0.135
    1UNL    C14   17   0.307   0.097   0.124
    1UNL    C15   18   0.429   0.109   0.199
    1UNL    C16   19   0.534   0.033   0.158
    1UNL    C17   20   0.540  -0.055   0.045
    1UNL     O2   21   0.657  -0.121   0.001
    1UNL    C18   22   0.418  -0.071  -0.022
    1UNL    C19   23   0.301   0.009   0.013
    1UNL     H1   24  -0.630   0.092  -0.149
    1UNL     H2   25  -0.532   0.227  -0.105
    1UNL     H3   26  -0.496   0.155  -0.246
    1UNL     H4   27  -0.506  -0.011   0.025
    1UNL     H5   28  -0.243   0.084  -0.262
    1UNL     H6   29  -0.245   0.218  -0.155
    1UNL     H7   30  -0.050   0.248  -0.006
    1UNL     H8   31  -0.072   0.039   0.200
    1UNL     H9   32  -0.191   0.163   0.173
    1UNL    H10   33  -0.296  -0.060   0.140
    1UNL    H11   34  -0.218  -0.189  -0.073
    1UNL    H12   35   0.001  -0.177   0.147
    1UNL    H13   36  -0.009  -0.293   0.015
    1UNL    H14   37  -0.169  -0.394   0.094
    1UNL    H15   38  -0.092  -0.100  -0.226
    1UNL    H16   39   0.128  -0.049  -0.232
    1UNL    H17   40   0.115  -0.180  -0.111
    1UNL    H18   41   0.161   0.235   0.209
    1UNL    H19   42   0.435   0.169   0.289
    1UNL    H20   43   0.618   0.028   0.226
    1UNL    H21   44   0.616  -0.190  -0.066
    1UNL    H22   45   0.418  -0.131  -0.108
   0.00000   0.00000   0.00000   0.00000   0.00000   0.00000   0.00000   0.00000   0.00000
Generated with MDTraj, t= 32.0
 45
    1UNL     C1    1  -0.538   0.113  -0.137
    1UNL     C2    2  -0.438   0.052  -0.038
    1UNL     C3    3  -0.306   0.059  -0.044
    1UNL     C4    4  -0.228   0.122  -0.156
    1UNL     N1    5  -0.086   0.096  -0.128
    1UNL     C5    6  -0.050   0.143   0.010
    1UNL     C6    7  -0.140   0.080   0.124
    1UNL     C7    8  -0.222  -0.018   0.050
    1UNL     C8    9  -0.140  -0.124  -0.036
    1UNL     C9   10  -0.057  -0.219   0.052
    1UNL     O1   11  -0.128  -0.294   0.157
    1UNL    C10   12  -0.055  -0.052  -0.141
    1UNL    C11   13   0.095  -0.073  -0.135
    1UNL    C12   14   0.159  -0.001  -0.022
    1UNL    C13   15   0.093   0.101   0.044
    1UNL     N2   16   0.180   0.151   0.136
    1UNL    C14   17   0.304   0.090   0.127
    1UNL    C15   18   0.433   0.120   0.186
    1UNL    C16   19   0.540   0.043   0.149
    1UNL    C17   20   0.522  -0.064   0.049
    1UNL     O2   21   0.640  -0.120   0.010
    1UNL    C18   22   0.397  -0.089  -0.005
    1UNL    C19   23   0.290  -0.003   0.023
    1UNL     H1   24  -0.624   0.039  -0.134
    1UNL     H2   25  -0.568   0.211  -0.111
    1UNL     H3   26  -0.506   0.130  -0.240
    1UNL     H4   27  -0.477   0.002   0.051
    1UNL     H5   28  -0.257   0.084  -0.257
    1UNL     H6   29  -0.233   0.229  -0.164
    1UNL     H7   30  -0.063   0.249   0.011
    1UNL     H8   31  -0.090   0.017   0.204
    1UNL     H9   32  -0.196   0.156   0.181
    1UNL    H10   33  -0.281  -0.082   0.123
    1UNL    H11   34  -0.211  -0.179  -0.093
    1UNL    H12   35   0.012  -0.151   0.108
    1UNL    H13   36   0.013  -0.289   0.008
    1UNL    H14   37  -0.188  -0.368   0.128
    1UNL    H15   38  -0.084  -0.064  -0.249
    1UNL    H16   39   0.139  -0.032  -0.233
    1UNL    H17   40   0.123  -0.178  -0.130
    1UNL    H18   41   0.158   0.245   0.191
    1UNL    H19   42   0.442   0.200   0.260
    1UNL    H20   43   0.641   0.067   0.184
    1UNL    H21   44   0.622  -0.201  -0.049
    1UNL    H22   45   0.396  -0.168  -0.076
   0.00000   0.00000   0.00000   0.00000   0.00000   0.00000   0.00000   0.00000   0.00000
Generated with MDTraj, t= 33.0
 45
    1UNL     C1    1  -0.528   0.123  -0.139
    1UNL     C2    2  -0.449   0.029  -0.054
    1UNL     C3    3  -0.314   0.041  -0.051
    1UNL     C4    4  -0.228   0.138  -0.133
    1UNL     N1    5  -0.084   0.101  -0.103
    1UNL     C5    6  -0.045   0.129   0.035
    1UNL     C6    7  -0.139   0.043   0.127
    1UNL     C7    8  -0.237  -0.044   0.040
    1UNL     C8    9  -0.143  -0.139  -0.047
    1UNL     C9   10  -0.052  -0.214   0.055
    1UNL     O1   11  -0.123  -0.257   0.171
    1UNL    C10   12  -0.063  -0.042  -0.142
    1UNL    C11   13   0.094  -0.061  -0.147
    1UNL    C12   14   0.168   0.010  -0.033
    1UNL    C13   15   0.099   0.094   0.048
    1UNL     N2   16   0.185   0.170   0.123
    1UNL    C14   17   0.312   0.116   0.100
    1UNL    C15   18   0.431   0.128   0.174
    1UNL    C16   19   0.528   0.033   0.150
    1UNL    C17   20   0.519  -0.069   0.054
    1UNL     O2   21   0.635  -0.147   0.037
    1UNL    C18   22   0.403  -0.078  -0.020
    1UNL    C19   23   0.304   0.012   0.007
    1UNL     H1   24  -0.635   0.100  -0.109
    1UNL     H2   25  -0.499   0.227  -0.123
    1UNL     H3   26  -0.516   0.110  -0.241
    1UNL     H4   27  -0.497  -0.040   0.013
    1UNL     H5   28  -0.238   0.121  -0.241
    1UNL     H6   29  -0.257   0.240  -0.109
    1UNL     H7   30  -0.048   0.236   0.047
    1UNL     H8   31  -0.081  -0.015   0.206
    1UNL     H9   32  -0.208   0.109   0.177
    1UNL    H10   33  -0.317  -0.092   0.104
    1UNL    H11   34  -0.206  -0.201  -0.109
    1UNL    H12   35   0.042  -0.164   0.087
    1UNL    H13   36  -0.017  -0.303   0.002
    1UNL    H14   37  -0.193  -0.319   0.145
    1UNL    H15   38  -0.100  -0.054  -0.243
    1UNL    H16   39   0.140  -0.035  -0.247
    1UNL    H17   40   0.106  -0.169  -0.138
    1UNL    H18   41   0.158   0.230   0.210
    1UNL    H19   42   0.434   0.187   0.261
    1UNL    H20   43   0.608   0.027   0.219
    1UNL    H21   44   0.608  -0.217  -0.025
    1UNL    H22   45   0.396  -0.169  -0.086
   0.00000   0.00000   0.00000   0.00000   0.00000   0.00000   0.00000   0.00000   0.00000
Generated with MDTraj, t= 34.0
 45
    1UNL     C1    1  -0.527   0.111  -0.145
    1UNL     C2    2  -0.449   0.039  -0.041
    1UNL     C3    3  -0.316   0.041  -0.045
    1UNL     C4    4  -0.236   0.115  -0.151
    1UNL     N1    5  -0.090   0.096  -0.123
    1UNL     C5    6  -0.051   0.150   0.014
    1UNL     C6    7  -0.130   0.076   0.122
    1UNL     C7    8  -0.226  -0.023   0.059
    1UNL     C8    9  -0.134  -0.132  -0.030
    1UNL     C9   10  -0.046  -0.223   0.055
    1UNL     O1   11  -0.112  -0.297   0.156
    1UNL    C10   12  -0.057  -0.048  -0.142
    1UNL    C11   13   0.093  -0.056  -0.139
    1UNL    C12   14   0.160   0.029  -0.036
    1UNL    C13   15   0.098   0.126   0.037
    1UNL     N2   16   0.187   0.168   0.137
    1UNL    C14   17   0.308   0.100   0.120
    1UNL    C15   18   0.431   0.111   0.187
    1UNL    C16   19   0.538   0.032   0.154
    1UNL    C17   20   0.520  -0.065   0.054
    1UNL     O2   21   0.619  -0.154   0.024
    1UNL    C18   22   0.397  -0.078  -0.020
    1UNL    C19   23   0.296   0.012   0.012
    1UNL     H1   24  -0.632   0.111  -0.110
    1UNL     H2   25  -0.492   0.217  -0.165
    1UNL     H3   26  -0.531   0.072  -0.240
    1UNL     H4   27  -0.486  -0.016   0.047
    1UNL     H5   28  -0.268   0.069  -0.242
    1UNL     H6   29  -0.265   0.221  -0.141
    1UNL     H7   30  -0.071   0.257   0.009
    1UNL     H8   31  -0.061   0.025   0.197
    1UNL     H9   32  -0.185   0.157   0.168
    1UNL    H10   33  -0.282  -0.080   0.140
    1UNL    H11   34  -0.205  -0.197  -0.080
    1UNL    H12   35   0.034  -0.162   0.101
    1UNL    H13   36   0.011  -0.292  -0.006
    1UNL    H14   37  -0.208  -0.303   0.137
    1UNL    H15   38  -0.087  -0.089  -0.236
    1UNL    H16   39   0.127  -0.028  -0.240
    1UNL    H17   40   0.136  -0.158  -0.121
    1UNL    H18   41   0.166   0.229   0.219
    1UNL    H19   42   0.422   0.170   0.281
    1UNL    H20   43   0.630   0.039   0.217
    1UNL    H21   44   0.575  -0.229  -0.012
    1UNL    H22   45   0.392  -0.147  -0.095
   0.00000   0.00000   0.00000   0.00000   0.00000   0.00000   0.00000   0.00000   0.00000
Generated with MDTraj, t= 35.0
 45
    1UNL     C1    1  -0.552   0.087  -0.118
    1UNL     C2    2  -0.447   0.024  -0.032
    1UNL     C3    3  -0.314   0.053  -0.033
    1UNL     C4    4  -0.241   0.132  -0.153
    1UNL     N1    5  -0.098   0.106  -0.136
    1UNL     C5    6  -0.037   0.151  -0.007
    1UNL     C6    7  -0.126   0.098   0.112
    1UNL     C7    8  -0.219  -0.010   0.055
    1UNL     C8    9  -0.133  -0.120  -0.025
    1UNL     C9   10  -0.050  -0.201   0.069
    1UNL     O1   11  -0.124  -0.299   0.134
    1UNL    C10   12  -0.060  -0.044  -0.142
    1UNL    C11   13   0.087  -0.065  -0.149
    1UNL    C12   14   0.171   0.006  -0.042
    1UNL    C13   15   0.109   0.115   0.016
    1UNL     N2   16   0.184   0.167   0.119
    1UNL    C14   17   0.300   0.092   0.131
    1UNL    C15   18   0.425   0.099   0.202
    1UNL    C16   19   0.532   0.024   0.170
    1UNL    C17   20   0.521  -0.074   0.064
    1UNL     O2   21   0.639  -0.132   0.023
    1UNL    C18   22   0.402  -0.088  -0.006
    1UNL    C19   23   0.298  -0.001   0.023
    1UNL     H1   24  -0.646   0.051  -0.083
    1UNL     H2   25  -0.546   0.199  -0.108
    1UNL     H3   26  -0.544   0.064  -0.223
    1UNL     H4   27  -0.479  -0.039   0.047
    1UNL     H5   28  -0.283   0.100  -0.244
    1UNL     H6   29  -0.267   0.238  -0.129
    1UNL     H7   30  -0.045   0.261   0.003
    1UNL     H8   31  -0.059   0.047   0.188
    1UNL     H9   32  -0.186   0.173   0.159
    1UNL    H10   33  -0.275  -0.067   0.134
    1UNL    H11   34  -0.196  -0.197  -0.073
    1UNL    H12   35   0.002  -0.138   0.143
    1UNL    H13   36   0.032  -0.243   0.014
    1UNL    H14   37  -0.138  -0.380   0.075
    1UNL    H15   38  -0.097  -0.077  -0.234
    1UNL    H16   39   0.128  -0.037  -0.246
    1UNL    H17   40   0.103  -0.177  -0.148
    1UNL    H18   41   0.165   0.247   0.175
    1UNL    H19   42   0.431   0.167   0.283
    1UNL    H20   43   0.625   0.030   0.218
    1UNL    H21   44   0.632  -0.215  -0.023
    1UNL    H22   45   0.399  -0.144  -0.103
   0.00000   0.00000   0.00000   0.00000   0.00000   0.00000   0.00000   0.00000   0.00000
Generated with MDTraj, t= 36.0
 45
    1UNL     C1    1  -0.528   0.105  -0.135
    1UNL     C2    2  -0.448   0.039  -0.028
    1UNL     C3    3  -0.314   0.044  -0.039
    1UNL     C4    4  -0.236   0.120  -0.142
    1UNL     N1    5  -0.095   0.101  -0.122
    1UNL     C5    6  -0.046   0.143   0.013
    1UNL     C6    7  -0.123   0.069   0.128
    1UNL     C7    8  -0.219  -0.035   0.053
    1UNL     C8    9  -0.132  -0.131  -0.038
    1UNL     C9   10  -0.047  -0.216   0.053
    1UNL     O1   11  -0.115  -0.269   0.161
    1UNL    C10   12  -0.054  -0.046  -0.149
    1UNL    C11   13   0.097  -0.061  -0.151
    1UNL    C12   14   0.162   0.020  -0.043
    1UNL    C13   15   0.097   0.119   0.028
    1UNL     N2   16   0.180   0.164   0.129
    1UNL    C14   17   0.300   0.106   0.107
    1UNL    C15   18   0.419   0.112   0.186
    1UNL    C16   19   0.522   0.024   0.170
    1UNL    C17   20   0.522  -0.066   0.061
    1UNL     O2   21   0.619  -0.159   0.033
    1UNL    C18   22   0.415  -0.070  -0.022
    1UNL    C19   23   0.299   0.014   0.004
    1UNL     H1   24  -0.624   0.068  -0.120
    1UNL     H2   25  -0.526   0.215  -0.119
    1UNL     H3   26  -0.490   0.078  -0.239
    1UNL     H4   27  -0.494  -0.013   0.058
    1UNL     H5   28  -0.259   0.084  -0.238
    1UNL     H6   29  -0.269   0.226  -0.128
    1UNL     H7   30  -0.066   0.253   0.016
    1UNL     H8   31  -0.053   0.017   0.198
    1UNL     H9   32  -0.180   0.148   0.177
    1UNL    H10   33  -0.282  -0.080   0.135
    1UNL    H11   34  -0.211  -0.195  -0.084
    1UNL    H12   35   0.034  -0.150   0.089
    1UNL    H13   36   0.006  -0.294   0.004
    1UNL    H14   37  -0.179  -0.340   0.132
    1UNL    H15   38  -0.092  -0.073  -0.242
    1UNL    H16   39   0.133  -0.018  -0.243
    1UNL    H17   40   0.131  -0.168  -0.156
    1UNL    H18   41   0.160   0.227   0.199
    1UNL    H19   42   0.412   0.164   0.283
    1UNL    H20   43   0.601   0.004   0.245
    1UNL    H21   44   0.583  -0.232  -0.022
    1UNL    H22   45   0.409  -0.127  -0.114
   0.00000   0.00000   0.00000   0.00000   0.00000   0.00000   0.00000   0.00000   0.00000
Generated with MDTraj, t= 37.0
 45
    1UNL     C1    1  -0.535   0.126  -0.126
    1UNL     C2    2  -0.450   0.030  -0.048
    1UNL     C3    3  -0.317   0.031  -0.056
    1UNL     C4    4  -0.238   0.120  -0.153
    1UNL     N1    5  -0.092   0.107  -0.119
    1UNL     C5    6  -0.050   0.141   0.017
    1UNL     C6    7  -0.145   0.061   0.126
    1UNL     C7    8  -0.227  -0.044   0.042
    1UNL     C8    9  -0.125  -0.133  -0.035
    1UNL     C9   10  -0.030  -0.225   0.051
    1UNL     O1   11  -0.092  -0.260   0.170
    1UNL    C10   12  -0.053  -0.039  -0.144
    1UNL    C11   13   0.098  -0.054  -0.146
    1UNL    C12   14   0.158   0.015  -0.032
    1UNL    C13   15   0.092   0.106   0.046
    1UNL     N2   16   0.184   0.175   0.128
    1UNL    C14   17   0.308   0.111   0.117
    1UNL    C15   18   0.431   0.120   0.175
    1UNL    C16   19   0.531   0.024   0.160
    1UNL    C17   20   0.514  -0.074   0.061
    1UNL     O2   21   0.614  -0.162   0.028
    1UNL    C18   22   0.396  -0.079  -0.014
    1UNL    C19   23   0.294   0.015   0.014
    1UNL     H1   24  -0.628   0.137  -0.078
    1UNL     H2   25  -0.494   0.227  -0.125
    1UNL     H3   26  -0.555   0.096  -0.236
    1UNL     H4   27  -0.493  -0.037   0.021
    1UNL     H5   28  -0.258   0.101  -0.254
    1UNL     H6   29  -0.263   0.228  -0.133
    1UNL     H7   30  -0.050   0.254   0.027
    1UNL     H8   31  -0.087   0.010   0.204
    1UNL     H9   32  -0.218   0.137   0.162
    1UNL    H10   33  -0.289  -0.098   0.119
    1UNL    H11   34  -0.191  -0.209  -0.085
    1UNL    H12   35   0.061  -0.170   0.083
    1UNL    H13   36   0.017  -0.308  -0.002
    1UNL    H14   37  -0.185  -0.288   0.157
    1UNL    H15   38  -0.096  -0.056  -0.236
    1UNL    H16   39   0.141  -0.013  -0.235
    1UNL    H17   40   0.129  -0.161  -0.148
    1UNL    H18   41   0.155   0.239   0.192
    1UNL    H19   42   0.447   0.192   0.250
    1UNL    H20   43   0.616   0.016   0.222
    1UNL    H21   44   0.585  -0.240  -0.031
    1UNL    H22   45   0.379  -0.143  -0.095
   0.00000   0.00000   0.00000   0.00000   0.00000   0.00000   0.00000   0.00000   0.00000
Generated with MDTraj, t= 38.0
 45
    1UNL     C1    1  -0.543   0.104  -0.134
    1UNL     C2    2  -0.447   0.042  -0.036
    1UNL     C3    3  -0.314   0.049  -0.038
    1UNL     C4    4  -0.241   0.130  -0.148
    1UNL     N1    5  -0.090   0.108  -0.126
    1UNL     C5    6  -0.043   0.149   0.004
    1UNL     C6    7  -0.135   0.094   0.124
    1UNL     C7    8  -0.215  -0.016   0.057
    1UNL     C8    9  -0.134  -0.127  -0.025
    1UNL     C9   10  -0.043  -0.213   0.064
    1UNL     O1   11  -0.113  -0.297   0.156
    1UNL    C10   12  -0.060  -0.039  -0.141
    1UNL    C11   13   0.095  -0.064  -0.156
    1UNL    C12   14   0.161   0.002  -0.044
    1UNL    C13   15   0.098   0.102   0.027
    1UNL     N2   16   0.178   0.150   0.124
    1UNL    C14   17   0.303   0.087   0.116
    1UNL    C15   18   0.418   0.110   0.188
    1UNL    C16   19   0.528   0.032   0.162
    1UNL    C17   20   0.522  -0.064   0.064
    1UNL     O2   21   0.640  -0.131   0.032
    1UNL    C18   22   0.408  -0.087  -0.012
    1UNL    C19   23   0.296  -0.006   0.010
    1UNL     H1   24  -0.650   0.089  -0.105
    1UNL     H2   25  -0.543   0.211  -0.136
    1UNL     H3   26  -0.536   0.065  -0.240
    1UNL     H4   27  -0.493  -0.019   0.044
    1UNL     H5   28  -0.257   0.108  -0.250
    1UNL     H6   29  -0.266   0.239  -0.143
    1UNL     H7   30  -0.045   0.263  -0.010
    1UNL     H8   31  -0.071   0.040   0.195
    1UNL     H9   32  -0.212   0.166   0.161
    1UNL    H10   33  -0.274  -0.079   0.129
    1UNL    H11   34  -0.206  -0.201  -0.071
    1UNL    H12   35   0.039  -0.154   0.114
    1UNL    H13   36   0.029  -0.273   0.007
    1UNL    H14   37  -0.195  -0.325   0.111
    1UNL    H15   38  -0.114  -0.064  -0.225
    1UNL    H16   39   0.130  -0.016  -0.247
    1UNL    H17   40   0.125  -0.169  -0.170
    1UNL    H18   41   0.158   0.225   0.186
    1UNL    H19   42   0.425   0.174   0.276
    1UNL    H20   43   0.619   0.040   0.221
    1UNL    H21   44   0.635  -0.217  -0.027
    1UNL    H22   45   0.394  -0.167  -0.091
   0.00000   0.00000   0.00000   0.00000   0.00000   0.00000   0.00000   0.00000   0.00000
Generated with MDTraj, t= 39.0
 45
    1UNL     C1    1  -0.537   0.094  -0.138
    1UNL     C2    2  -0.448   0.042  -0.033
    1UNL     C3    3  -0.316   0.049  -0.047
    1UNL     C4    4  -0.234   0.114  -0.150
    1UNL     N1    5  -0.081   0.100  -0.126
    1UNL     C5    6  -0.036   0.153   0.008
    1UNL     C6    7  -0.116   0.070   0.119
    1UNL     C7    8  -0.219  -0.026   0.056
    1UNL     C8    9  -0.135  -0.132  -0.030
    1UNL     C9   10  -0.071  -0.228   0.068
    1UNL     O1   11  -0.161  -0.287   0.162
    1UNL    C10   12  -0.051  -0.052  -0.138
    1UNL    C11   13   0.106  -0.069  -0.133
    1UNL    C12   14   0.172   0.034  -0.048
    1UNL    C13   15   0.107   0.128   0.028
    1UNL     N2   16   0.189   0.173   0.131
    1UNL    C14   17   0.307   0.099   0.122
    1UNL    C15   18   0.417   0.103   0.208
    1UNL    C16   19   0.522   0.021   0.164
    1UNL    C17   20   0.523  -0.061   0.051
    1UNL     O2   21   0.633  -0.134   0.006
    1UNL    C18   22   0.411  -0.073  -0.022
    1UNL    C19   23   0.302   0.014   0.007
    1UNL     H1   24  -0.643   0.055  -0.107
    1UNL     H2   25  -0.555   0.199  -0.129
    1UNL     H3   26  -0.510   0.057  -0.238
    1UNL     H4   27  -0.489  -0.003   0.052
    1UNL     H5   28  -0.256   0.088  -0.251
    1UNL     H6   29  -0.249   0.224  -0.155
    1UNL     H7   30  -0.059   0.266   0.001
    1UNL     H8   31  -0.052   0.002   0.174
    1UNL     H9   32  -0.176   0.142   0.179
    1UNL    H10   33  -0.275  -0.081   0.135
    1UNL    H11   34  -0.209  -0.194  -0.087
    1UNL    H12   35   0.010  -0.178   0.127
    1UNL    H13   36  -0.001  -0.298   0.017
    1UNL    H14   37  -0.221  -0.351   0.113
    1UNL    H15   38  -0.095  -0.081  -0.227
    1UNL    H16   39   0.146  -0.058  -0.234
    1UNL    H17   40   0.143  -0.165  -0.100
    1UNL    H18   41   0.164   0.243   0.204
    1UNL    H19   42   0.406   0.143   0.311
    1UNL    H20   43   0.616   0.011   0.222
    1UNL    H21   44   0.608  -0.203  -0.066
    1UNL    H22   45   0.400  -0.137  -0.102
   0.00000   0.00000   0.00000   0.00000   0.00000   0.00000   0.00000   0.00000   0.00000
Generated with MDTraj, t= 40.0
 45
    1UNL     C1    1  -0.530   0.125  -0.149
    1UNL     C2    2  -0.454   0.039  -0.055
    1UNL     C3    3  -0.321   0.044  -0.043
    1UNL     C4    4  -0.233   0.129  -0.133
    1UNL     N1    5  -0.091   0.103  -0.113
    1UNL     C5    6  -0.048   0.136   0.022
    1UNL     C6    7  -0.142   0.064   0.129
    1UNL     C7    8  -0.234  -0.038   0.049
    1UNL     C8    9  -0.142  -0.133  -0.035
    1UNL     C9   10  -0.064  -0.220   0.057
    1UNL     O1   11  -0.137  -0.286   0.152
    1UNL    C10   12  -0.059  -0.049  -0.138
    1UNL    C11   13   0.096  -0.081  -0.130
    1UNL    C12   14   0.163   0.006  -0.032
    1UNL    C13   15   0.099   0.104   0.039
    1UNL     N2   16   0.193   0.169   0.124
    1UNL    C14   17   0.321   0.104   0.116
    1UNL    C15   18   0.442   0.127   0.181
    1UNL    C16   19   0.545   0.051   0.143
    1UNL    C17   20   0.527  -0.059   0.051
    1UNL     O2   21   0.638  -0.146   0.032
    1UNL    C18   22   0.408  -0.076  -0.018
    1UNL    C19   23   0.299   0.011   0.014
    1UNL     H1   24  -0.644   0.122  -0.118
    1UNL     H2   25  -0.515   0.232  -0.136
    1UNL     H3   26  -0.518   0.090  -0.251
    1UNL     H4   27  -0.520  -0.026   0.005
    1UNL     H5   28  -0.248   0.122  -0.240
    1UNL     H6   29  -0.249   0.237  -0.123
    1UNL     H7   30  -0.056   0.250   0.033
    1UNL     H8   31  -0.080   0.003   0.191
    1UNL     H9   32  -0.209   0.133   0.186
    1UNL    H10   33  -0.298  -0.085   0.128
    1UNL    H11   34  -0.203  -0.208  -0.091
    1UNL    H12   35   0.025  -0.167   0.097
    1UNL    H13   36  -0.007  -0.304   0.006
    1UNL    H14   37  -0.185  -0.368   0.125
    1UNL    H15   38  -0.107  -0.062  -0.228
    1UNL    H16   39   0.150  -0.074  -0.225
    1UNL    H17   40   0.105  -0.180  -0.093
    1UNL    H18   41   0.169   0.237   0.206
    1UNL    H19   42   0.455   0.200   0.254
    1UNL    H20   43   0.639   0.061   0.186
    1UNL    H21   44   0.606  -0.226  -0.016
    1UNL    H22   45   0.394  -0.152  -0.094
   0.00000   0.00000   0.00000   0.00000   0.00000   0.00000   0.00000   0.00000   0.00000
Generated with MDTraj, t= 41.0
 45
    1UNL     C1    1  -0.513   0.135  -0.144
    1UNL     C2    2  -0.445   0.048  -0.047
    1UNL     C3    3  -0.313   0.044  -0.047
    1UNL     C4    4  -0.228   0.120  -0.142
    1UNL     N1    5  -0.088   0.096  -0.110
    1UNL     C5    6  -0.048   0.140   0.028
    1UNL     C6    7  -0.149   0.074   0.127
    1UNL     C7    8  -0.233  -0.036   0.051
    1UNL     C8    9  -0.139  -0.134  -0.037
    1UNL     C9   10  -0.057  -0.228   0.041
    1UNL     O1   11  -0.131  -0.287   0.139
    1UNL    C10   12  -0.053  -0.050  -0.139
    1UNL    C11   13   0.097  -0.081  -0.124
    1UNL    C12   14   0.155  -0.008  -0.007
    1UNL    C13   15   0.092   0.099   0.055
    1UNL     N2   16   0.185   0.162   0.132
    1UNL    C14   17   0.306   0.103   0.117
    1UNL    C15   18   0.432   0.146   0.157
    1UNL    C16   19   0.540   0.068   0.119
    1UNL    C17   20   0.528  -0.057   0.047
    1UNL     O2   21   0.638  -0.145   0.025
    1UNL    C18   22   0.402  -0.092   0.003
    1UNL    C19   23   0.291  -0.009   0.034
    1UNL     H1   24  -0.625   0.136  -0.124
    1UNL     H2   25  -0.498   0.247  -0.139
    1UNL     H3   26  -0.503   0.097  -0.244
    1UNL     H4   27  -0.504  -0.005   0.024
    1UNL     H5   28  -0.248   0.113  -0.250
    1UNL     H6   29  -0.246   0.225  -0.124
    1UNL     H7   30  -0.072   0.252   0.028
    1UNL     H8   31  -0.109   0.023   0.212
    1UNL     H9   32  -0.223   0.151   0.163
    1UNL    H10   33  -0.301  -0.080   0.128
    1UNL    H11   34  -0.203  -0.197  -0.100
    1UNL    H12   35   0.027  -0.175   0.090
    1UNL    H13   36   0.005  -0.299  -0.023
    1UNL    H14   37  -0.191  -0.357   0.109
    1UNL    H15   38  -0.091  -0.065  -0.234
    1UNL    H16   39   0.139  -0.030  -0.213
    1UNL    H17   40   0.125  -0.183  -0.123
    1UNL    H18   41   0.178   0.253   0.195
    1UNL    H19   42   0.440   0.241   0.216
    1UNL    H20   43   0.641   0.104   0.152
    1UNL    H21   44   0.607  -0.228  -0.011
    1UNL    H22   45   0.392  -0.177  -0.068
   0.00000   0.00000   0.00000   0.00000   0.00000   0.00000   0.00000   0.00000   0.00000
Generated with MDTraj, t= 42.0
 45
    1UNL     C1    1  -0.526   0.135  -0.136
    1UNL     C2    2  -0.443   0.050  -0.041
    1UNL     C3    3  -0.311   0.042  -0.051
    1UNL     C4    4  -0.225   0.115  -0.143
    1UNL     N1    5  -0.078   0.083  -0.113
    1UNL     C5    6  -0.044   0.134   0.018
    1UNL     C6    7  -0.141   0.066   0.127
    1UNL     C7    8  -0.233  -0.033   0.053
    1UNL     C8    9  -0.146  -0.139  -0.028
    1UNL     C9   10  -0.092  -0.243   0.058
    1UNL     O1   11  -0.184  -0.296   0.143
    1UNL    C10   12  -0.049  -0.064  -0.134
    1UNL    C11   13   0.097  -0.093  -0.118
    1UNL    C12   14   0.169   0.016  -0.031
    1UNL    C13   15   0.102   0.110   0.042
    1UNL     N2   16   0.191   0.183   0.117
    1UNL    C14   17   0.318   0.117   0.114
    1UNL    C15   18   0.435   0.123   0.191
    1UNL    C16   19   0.539   0.036   0.156
    1UNL    C17   20   0.537  -0.054   0.047
    1UNL     O2   21   0.654  -0.121   0.009
    1UNL    C18   22   0.415  -0.064  -0.018
    1UNL    C19   23   0.306   0.017   0.017
    1UNL     H1   24  -0.631   0.102  -0.132
    1UNL     H2   25  -0.539   0.247  -0.111
    1UNL     H3   26  -0.495   0.114  -0.240
    1UNL     H4   27  -0.488  -0.001   0.045
    1UNL     H5   28  -0.256   0.078  -0.244
    1UNL     H6   29  -0.242   0.219  -0.141
    1UNL     H7   30  -0.061   0.247   0.022
    1UNL     H8   31  -0.093   0.013   0.206
    1UNL     H9   32  -0.214   0.142   0.168
    1UNL    H10   33  -0.304  -0.093   0.113
    1UNL    H11   34  -0.213  -0.194  -0.095
    1UNL    H12   35  -0.000  -0.207   0.110
    1UNL    H13   36  -0.050  -0.325  -0.009
    1UNL    H14   37  -0.239  -0.363   0.096
    1UNL    H15   38  -0.085  -0.098  -0.224
    1UNL    H16   39   0.145  -0.096  -0.217
    1UNL    H17   40   0.104  -0.193  -0.084
    1UNL    H18   41   0.179   0.274   0.175
    1UNL    H19   42   0.438   0.191   0.271
    1UNL    H20   43   0.623   0.038   0.218
    1UNL    H21   44   0.638  -0.158  -0.076
    1UNL    H22   45   0.402  -0.128  -0.096
   0.00000   0.00000   0.00000   0.00000   0.00000   0.00000   0.00000   0.00000   0.00000
Generated with MDTraj, t= 43.0
 45
    1UNL     C1    1  -0.531   0.132  -0.137
    1UNL     C2    2  -0.439   0.072  -0.028
    1UNL     C3    3  -0.305   0.065  -0.033
    1UNL     C4    4  -0.227   0.124  -0.150
    1UNL     N1    5  -0.086   0.079  -0.123
    1UNL     C5    6  -0.043   0.133   0.008
    1UNL     C6    7  -0.126   0.065   0.117
    1UNL     C7    8  -0.228  -0.026   0.055
    1UNL     C8    9  -0.155  -0.140  -0.026
    1UNL     C9   10  -0.099  -0.246   0.061
    1UNL     O1   11  -0.190  -0.315   0.145
    1UNL    C10   12  -0.050  -0.066  -0.133
    1UNL    C11   13   0.100  -0.092  -0.132
    1UNL    C12   14   0.175   0.006  -0.039
    1UNL    C13   15   0.105   0.105   0.031
    1UNL     N2   16   0.188   0.156   0.130
    1UNL    C14   17   0.312   0.093   0.121
    1UNL    C15   18   0.427   0.124   0.188
    1UNL    C16   19   0.543   0.065   0.150
    1UNL    C17   20   0.538  -0.036   0.051
    1UNL     O2   21   0.658  -0.102   0.020
    1UNL    C18   22   0.418  -0.075  -0.017
    1UNL    C19   23   0.305   0.001   0.015
    1UNL     H1   24  -0.632   0.106  -0.117
    1UNL     H2   25  -0.529   0.248  -0.142
    1UNL     H3   26  -0.501   0.076  -0.231
    1UNL     H4   27  -0.486   0.023   0.056
    1UNL     H5   28  -0.262   0.089  -0.251
    1UNL     H6   29  -0.241   0.227  -0.143
    1UNL     H7   30  -0.045   0.246  -0.002
    1UNL     H8   31  -0.059   0.010   0.180
    1UNL     H9   32  -0.183   0.148   0.167
    1UNL    H10   33  -0.299  -0.065   0.130
    1UNL    H11   34  -0.231  -0.187  -0.087
    1UNL    H12   35  -0.017  -0.201   0.124
    1UNL    H13   36  -0.046  -0.312  -0.011
    1UNL    H14   37  -0.255  -0.378   0.101
    1UNL    H15   38  -0.089  -0.096  -0.224
    1UNL    H16   39   0.133  -0.086  -0.235
    1UNL    H17   40   0.130  -0.191  -0.103
    1UNL    H18   41   0.160   0.226   0.201
    1UNL    H19   42   0.423   0.200   0.266
    1UNL    H20   43   0.637   0.102   0.190
    1UNL    H21   44   0.642  -0.162  -0.051
    1UNL    H22   45   0.422  -0.161  -0.089
   0.00000   0.00000   0.00000   0.00000   0.00000   0.00000   0.00000   0.00000   0.00000
Generated with MDTraj, t= 44.0
 45
    1UNL     C1    1  -0.532   0.161  -0.124
    1UNL     C2    2  -0.445   0.060  -0.054
    1UNL     C3    3  -0.316   0.037  -0.065
    1UNL     C4    4  -0.222   0.121  -0.148
    1UNL     N1    5  -0.081   0.093  -0.112
    1UNL     C5    6  -0.043   0.131   0.025
    1UNL     C6    7  -0.144   0.052   0.115
    1UNL     C7    8  -0.239  -0.044   0.034
    1UNL     C8    9  -0.143  -0.147  -0.040
    1UNL     C9   10  -0.072  -0.237   0.057
    1UNL     O1   11  -0.156  -0.305   0.152
    1UNL    C10   12  -0.049  -0.058  -0.134
    1UNL    C11   13   0.103  -0.084  -0.122
    1UNL    C12   14   0.162  -0.002  -0.010
    1UNL    C13   15   0.104   0.102   0.054
    1UNL     N2   16   0.190   0.175   0.132
    1UNL    C14   17   0.308   0.111   0.120
    1UNL    C15   18   0.438   0.141   0.167
    1UNL    C16   19   0.545   0.067   0.124
    1UNL    C17   20   0.529  -0.054   0.043
    1UNL     O2   21   0.644  -0.121   0.008
    1UNL    C18   22   0.401  -0.089   0.008
    1UNL    C19   23   0.292  -0.002   0.040
    1UNL     H1   24  -0.620   0.179  -0.068
    1UNL     H2   25  -0.485   0.264  -0.145
    1UNL     H3   26  -0.574   0.107  -0.217
    1UNL     H4   27  -0.484   0.005   0.032
    1UNL     H5   28  -0.239   0.098  -0.257
    1UNL     H6   29  -0.237   0.221  -0.124
    1UNL     H7   30  -0.055   0.243   0.026
    1UNL     H8   31  -0.093  -0.002   0.194
    1UNL     H9   32  -0.206   0.128   0.165
    1UNL    H10   33  -0.310  -0.088   0.105
    1UNL    H11   34  -0.203  -0.196  -0.113
    1UNL    H12   35  -0.002  -0.164   0.109
    1UNL    H13   36  -0.012  -0.309   0.001
    1UNL    H14   37  -0.227  -0.361   0.117
    1UNL    H15   38  -0.081  -0.073  -0.232
    1UNL    H16   39   0.160  -0.056  -0.211
    1UNL    H17   40   0.123  -0.192  -0.122
    1UNL    H18   41   0.165   0.240   0.202
    1UNL    H19   42   0.454   0.229   0.228
    1UNL    H20   43   0.646   0.101   0.153
    1UNL    H21   44   0.616  -0.189  -0.057
    1UNL    H22   45   0.378  -0.183  -0.040
   0.00000   0.00000   0.00000   0.00000   0.00000   0.00000   0.00000   0.00000   0.00000
Generated with MDTraj, t= 45.0
 45
    1UNL     C1    1  -0.508   0.145  -0.155
    1UNL     C2    2  -0.446   0.065  -0.051
    1UNL     C3    3  -0.317   0.050  -0.044
    1UNL     C4    4  -0.229   0.123  -0.142
    1UNL     N1    5  -0.088   0.095  -0.108
    1UNL     C5    6  -0.053   0.127   0.035
    1UNL     C6    7  -0.151   0.048   0.138
    1UNL     C7    8  -0.238  -0.039   0.047
    1UNL     C8    9  -0.140  -0.143  -0.033
    1UNL     C9   10  -0.058  -0.241   0.048
    1UNL     O1   11  -0.139  -0.291   0.152
    1UNL    C10   12  -0.055  -0.052  -0.135
    1UNL    C11   13   0.097  -0.081  -0.129
    1UNL    C12   14   0.159   0.000  -0.016
    1UNL    C13   15   0.093   0.097   0.061
    1UNL     N2   16   0.189   0.163   0.136
    1UNL    C14   17   0.309   0.110   0.105
    1UNL    C15   18   0.437   0.135   0.165
    1UNL    C16   19   0.543   0.055   0.133
    1UNL    C17   20   0.527  -0.050   0.042
    1UNL     O2   21   0.637  -0.131   0.029
    1UNL    C18   22   0.408  -0.069  -0.018
    1UNL    C19   23   0.294   0.006   0.011
    1UNL     H1   24  -0.614   0.133  -0.154
    1UNL     H2   25  -0.479   0.254  -0.152
    1UNL     H3   26  -0.492   0.098  -0.261
    1UNL     H4   27  -0.496   0.020   0.035
    1UNL     H5   28  -0.240   0.081  -0.246
    1UNL     H6   29  -0.243   0.227  -0.137
    1UNL     H7   30  -0.067   0.233   0.060
    1UNL     H8   31  -0.105  -0.015   0.218
    1UNL     H9   32  -0.213   0.115   0.198
    1UNL    H10   33  -0.305  -0.102   0.108
    1UNL    H11   34  -0.202  -0.202  -0.096
    1UNL    H12   35   0.035  -0.195   0.094
    1UNL    H13   36  -0.037  -0.324  -0.016
    1UNL    H14   37  -0.230  -0.313   0.126
    1UNL    H15   38  -0.093  -0.070  -0.231
    1UNL    H16   39   0.141  -0.072  -0.228
    1UNL    H17   40   0.113  -0.188  -0.105
    1UNL    H18   41   0.179   0.240   0.190
    1UNL    H19   42   0.452   0.218   0.226
    1UNL    H20   43   0.637   0.067   0.176
    1UNL    H21   44   0.624  -0.199  -0.046
    1UNL    H22   45   0.402  -0.150  -0.083
   0.00000   0.00000   0.00000   0.00000   0.00000   0.00000   0.00000   0.00000   0.00000
Generated with MDTraj, t= 46.0
 45
    1UNL     C1    1  -0.539   0.107  -0.134
    1UNL     C2    2  -0.445   0.026  -0.052
    1UNL     C3    3  -0.312   0.045  -0.040
    1UNL     C4    4  -0.235   0.131  -0.146
    1UNL     N1    5  -0.086   0.104  -0.117
    1UNL     C5    6  -0.042   0.149   0.014
    1UNL     C6    7  -0.135   0.084   0.119
    1UNL     C7    8  -0.224  -0.024   0.060
    1UNL     C8    9  -0.143  -0.129  -0.034
    1UNL     C9   10  -0.073  -0.225   0.059
    1UNL     O1   11  -0.167  -0.284   0.143
    1UNL    C10   12  -0.058  -0.042  -0.135
    1UNL    C11   13   0.100  -0.089  -0.124
    1UNL    C12   14   0.165   0.001  -0.028
    1UNL    C13   15   0.103   0.106   0.038
    1UNL     N2   16   0.183   0.165   0.133
    1UNL    C14   17   0.306   0.091   0.121
    1UNL    C15   18   0.426   0.109   0.192
    1UNL    C16   19   0.535   0.034   0.157
    1UNL    C17   20   0.541  -0.053   0.047
    1UNL     O2   21   0.661  -0.117   0.009
    1UNL    C18   22   0.418  -0.078  -0.024
    1UNL    C19   23   0.300  -0.008   0.019
    1UNL     H1   24  -0.619   0.035  -0.159
    1UNL     H2   25  -0.564   0.199  -0.076
    1UNL     H3   26  -0.505   0.130  -0.241
    1UNL     H4   27  -0.495  -0.028   0.028
    1UNL     H5   28  -0.259   0.104  -0.250
    1UNL     H6   29  -0.251   0.237  -0.133
    1UNL     H7   30  -0.034   0.258   0.012
    1UNL     H8   31  -0.080   0.041   0.206
    1UNL     H9   32  -0.198   0.159   0.167
    1UNL    H10   33  -0.284  -0.072   0.139
    1UNL    H11   34  -0.216  -0.179  -0.093
    1UNL    H12   35  -0.003  -0.169   0.131
    1UNL    H13   36  -0.024  -0.303   0.012
    1UNL    H14   37  -0.241  -0.313   0.083
    1UNL    H15   38  -0.088  -0.074  -0.232
    1UNL    H16   39   0.142  -0.067  -0.220
    1UNL    H17   40   0.118  -0.197  -0.103
    1UNL    H18   41   0.166   0.249   0.177
    1UNL    H19   42   0.434   0.193   0.266
    1UNL    H20   43   0.636   0.048   0.205
    1UNL    H21   44   0.646  -0.168  -0.080
    1UNL    H22   45   0.427  -0.143  -0.114
   0.00000   0.00000   0.00000   0.00000   0.00000   0.00000   0.00000   0.00000   0.00000
Generated with MDTraj, t= 47.0
 45
    1UNL     C1    1  -0.535   0.092  -0.148
    1UNL     C2    2  -0.450   0.043  -0.037
    1UNL     C3    3  -0.314   0.050  -0.043
    1UNL     C4    4  -0.235   0.121  -0.148
    1UNL     N1    5  -0.086   0.107  -0.130
    1UNL     C5    6  -0.046   0.156   0.011
    1UNL     C6    7  -0.126   0.078   0.122
    1UNL     C7    8  -0.219  -0.020   0.057
    1UNL     C8    9  -0.141  -0.126  -0.026
    1UNL     C9   10  -0.063  -0.218   0.064
    1UNL     O1   11  -0.143  -0.289   0.150
    1UNL    C10   12  -0.054  -0.048  -0.132
    1UNL    C11   13   0.105  -0.071  -0.136
    1UNL    C12   14   0.165   0.017  -0.034
    1UNL    C13   15   0.102   0.120   0.029
    1UNL     N2   16   0.183   0.160   0.141
    1UNL    C14   17   0.303   0.089   0.134
    1UNL    C15   18   0.425   0.098   0.200
    1UNL    C16   19   0.534   0.029   0.154
    1UNL    C17   20   0.531  -0.059   0.043
    1UNL     O2   21   0.639  -0.130   0.004
    1UNL    C18   22   0.407  -0.072  -0.023
    1UNL    C19   23   0.295  -0.004   0.026
    1UNL     H1   24  -0.616   0.011  -0.156
    1UNL     H2   25  -0.572   0.196  -0.132
    1UNL     H3   26  -0.498   0.078  -0.251
    1UNL     H4   27  -0.504   0.005   0.050
    1UNL     H5   28  -0.265   0.076  -0.242
    1UNL     H6   29  -0.268   0.225  -0.156
    1UNL     H7   30  -0.059   0.264   0.008
    1UNL     H8   31  -0.059   0.015   0.186
    1UNL     H9   32  -0.183   0.135   0.195
    1UNL    H10   33  -0.273  -0.080   0.132
    1UNL    H11   34  -0.215  -0.178  -0.082
    1UNL    H12   35   0.009  -0.157   0.128
    1UNL    H13   36  -0.011  -0.291   0.011
    1UNL    H14   37  -0.204  -0.349   0.098
    1UNL    H15   38  -0.083  -0.059  -0.236
    1UNL    H16   39   0.151  -0.057  -0.232
    1UNL    H17   40   0.122  -0.175  -0.097
    1UNL    H18   41   0.155   0.233   0.203
    1UNL    H19   42   0.438   0.169   0.275
    1UNL    H20   43   0.624   0.040   0.205
    1UNL    H21   44   0.616  -0.185  -0.079
    1UNL    H22   45   0.399  -0.134  -0.106
   0.00000   0.00000   0.00000   0.00000   0.00000   0.00000   0.00000   0.00000   0.00000
Generated with MDTraj, t= 48.0
 45
    1UNL     C1    1  -0.529   0.122  -0.154
    1UNL     C2    2  -0.456   0.035  -0.062
    1UNL     C3    3  -0.323   0.046  -0.046
    1UNL     C4    4  -0.243   0.140  -0.130
    1UNL     N1    5  -0.099   0.107  -0.112
    1UNL     C5    6  -0.048   0.138   0.029
    1UNL     C6    7  -0.137   0.051   0.126
    1UNL     C7    8  -0.234  -0.047   0.044
    1UNL     C8    9  -0.129  -0.138  -0.038
    1UNL     C9   10  -0.028  -0.210   0.065
    1UNL     O1   11  -0.103  -0.274   0.173
    1UNL    C10   12  -0.067  -0.039  -0.144
    1UNL    C11   13   0.092  -0.063  -0.151
    1UNL    C12   14   0.159   0.019  -0.041
    1UNL    C13   15   0.098   0.110   0.046
    1UNL     N2   16   0.191   0.165   0.131
    1UNL    C14   17   0.311   0.100   0.112
    1UNL    C15   18   0.432   0.115   0.184
    1UNL    C16   19   0.535   0.036   0.152
    1UNL    C17   20   0.520  -0.064   0.049
    1UNL     O2   21   0.625  -0.160   0.037
    1UNL    C18   22   0.404  -0.074  -0.024
    1UNL    C19   23   0.296   0.007   0.010
    1UNL     H1   24  -0.640   0.132  -0.111
    1UNL     H2   25  -0.491   0.223  -0.169
    1UNL     H3   26  -0.554   0.081  -0.252
    1UNL     H4   27  -0.512  -0.044  -0.013
    1UNL     H5   28  -0.269   0.135  -0.233
    1UNL     H6   29  -0.264   0.244  -0.098
    1UNL     H7   30  -0.067   0.244   0.036
    1UNL     H8   31  -0.076  -0.007   0.200
    1UNL     H9   32  -0.207   0.096   0.196
    1UNL    H10   33  -0.295  -0.113   0.109
    1UNL    H11   34  -0.179  -0.221  -0.082
    1UNL    H12   35   0.042  -0.136   0.114
    1UNL    H13   36   0.032  -0.278   0.016
    1UNL    H14   37  -0.154  -0.354   0.151
    1UNL    H15   38  -0.104  -0.059  -0.245
    1UNL    H16   39   0.117  -0.020  -0.245
    1UNL    H17   40   0.114  -0.174  -0.149
    1UNL    H18   41   0.180   0.237   0.207
    1UNL    H19   42   0.440   0.195   0.258
    1UNL    H20   43   0.636   0.046   0.190
    1UNL    H21   44   0.614  -0.225  -0.036
    1UNL    H22   45   0.393  -0.155  -0.095
   0.00000   0.00000   0.00000   0.00000   0.00000   0.00000   0.00000   0.00000   0.00000
Generated with MDTraj, t= 49.0
 45
    1UNL     C1    1  -0.544   0.094  -0.126
    1UNL     C2    2  -0.443   0.032  -0.035
    1UNL     C3    3  -0.310   0.031  -0.052
    1UNL     C4    4  -0.237   0.127  -0.144
    1UNL     N1    5  -0.091   0.111  -0.122
    1UNL     C5    6  -0.048   0.151   0.011
    1UNL     C6    7  -0.130   0.072   0.115
    1UNL     C7    8  -0.219  -0.036   0.042
    1UNL     C8    9  -0.134  -0.130  -0.044
    1UNL     C9   10  -0.048  -0.224   0.037
    1UNL     O1   11  -0.098  -0.262   0.168
    1UNL    C10   12  -0.053  -0.031  -0.145
    1UNL    C11   13   0.106  -0.049  -0.153
    1UNL    C12   14   0.158   0.009  -0.024
    1UNL    C13   15   0.095   0.119   0.036
    1UNL     N2   16   0.187   0.165   0.136
    1UNL    C14   17   0.308   0.101   0.125
    1UNL    C15   18   0.431   0.117   0.194
    1UNL    C16   19   0.527   0.032   0.154
    1UNL    C17   20   0.515  -0.072   0.053
    1UNL     O2   21   0.619  -0.162   0.029
    1UNL    C18   22   0.395  -0.085  -0.015
    1UNL    C19   23   0.290   0.001   0.026
    1UNL     H1   24  -0.652   0.094  -0.077
    1UNL     H2   25  -0.526   0.199  -0.153
    1UNL     H3   26  -0.548   0.057  -0.229
    1UNL     H4   27  -0.483  -0.021   0.052
    1UNL     H5   28  -0.259   0.117  -0.246
    1UNL     H6   29  -0.263   0.232  -0.116
    1UNL     H7   30  -0.065   0.254   0.032
    1UNL     H8   31  -0.077   0.008   0.192
    1UNL     H9   32  -0.183   0.139   0.182
    1UNL    H10   33  -0.281  -0.088   0.120
    1UNL    H11   34  -0.210  -0.195  -0.086
    1UNL    H12   35   0.048  -0.168   0.053
    1UNL    H13   36  -0.023  -0.301  -0.026
    1UNL    H14   37  -0.182  -0.306   0.146
    1UNL    H15   38  -0.088  -0.063  -0.244
    1UNL    H16   39   0.148   0.010  -0.233
    1UNL    H17   40   0.125  -0.161  -0.160
    1UNL    H18   41   0.166   0.256   0.194
    1UNL    H19   42   0.436   0.206   0.258
    1UNL    H20   43   0.630   0.042   0.191
    1UNL    H21   44   0.597  -0.207  -0.052
    1UNL    H22   45   0.362  -0.165  -0.081
   0.00000   0.00000   0.00000   0.00000   0.00000   0.00000   0.00000   0.00000   0.00000
Generated with MDTraj, t= 50.0
 45
    1UNL     C1    1  -0.535   0.094  -0.121
    1UNL     C2    2  -0.440   0.032  -0.021
    1UNL     C3    3  -0.308   0.051  -0.029
    1UNL     C4    4  -0.242   0.122  -0.141
    1UNL     N1    5  -0.096   0.102  -0.130
    1UNL     C5    6  -0.042   0.153   0.003
    1UNL     C6    7  -0.133   0.095   0.117
    1UNL     C7    8  -0.216  -0.025   0.060
    1UNL     C8    9  -0.125  -0.121  -0.023
    1UNL     C9   10  -0.045  -0.215   0.063
    1UNL     O1   11  -0.127  -0.300   0.147
    1UNL    C10   12  -0.056  -0.047  -0.149
    1UNL    C11   13   0.094  -0.057  -0.163
    1UNL    C12   14   0.163   0.022  -0.052
    1UNL    C13   15   0.101   0.114   0.023
    1UNL     N2   16   0.189   0.166   0.115
    1UNL    C14   17   0.305   0.098   0.111
    1UNL    C15   18   0.408   0.095   0.202
    1UNL    C16   19   0.507   0.008   0.182
    1UNL    C17   20   0.520  -0.069   0.061
    1UNL     O2   21   0.637  -0.146   0.041
    1UNL    C18   22   0.416  -0.064  -0.032
    1UNL    C19   23   0.297   0.009   0.003
    1UNL     H1   24  -0.639   0.051  -0.107
    1UNL     H2   25  -0.552   0.204  -0.100
    1UNL     H3   26  -0.497   0.109  -0.224
    1UNL     H4   27  -0.475  -0.037   0.054
    1UNL     H5   28  -0.279   0.085  -0.231
    1UNL     H6   29  -0.265   0.232  -0.138
    1UNL     H7   30  -0.042   0.258  -0.006
    1UNL     H8   31  -0.076   0.071   0.209
    1UNL     H9   32  -0.207   0.166   0.154
    1UNL    H10   33  -0.274  -0.072   0.142
    1UNL    H11   34  -0.193  -0.188  -0.075
    1UNL    H12   35   0.024  -0.161   0.134
    1UNL    H13   36   0.015  -0.275   0.005
    1UNL    H14   37  -0.193  -0.356   0.095
    1UNL    H15   38  -0.094  -0.071  -0.253
    1UNL    H16   39   0.115  -0.012  -0.258
    1UNL    H17   40   0.127  -0.165  -0.156
    1UNL    H18   41   0.164   0.240   0.193
    1UNL    H19   42   0.415   0.166   0.279
    1UNL    H20   43   0.589   0.001   0.246
    1UNL    H21   44   0.663  -0.157  -0.049
    1UNL    H22   45   0.421  -0.129  -0.114
   0.00000   0.00000   0.00000   0.00000   0.00000   0.00000   0.00000   0.00000   0.00000
Generated with MDTraj, t= 51.0
 45
    1UNL     C1    1  -0.539   0.106  -0.114
    1UNL     C2    2  -0.441   0.042  -0.020
    1UNL     C3    3  -0.311   0.040  -0.048
    1UNL     C4    4  -0.234   0.117  -0.152
    1UNL     N1    5  -0.090   0.095  -0.128
    1UNL     C5    6  -0.049   0.147   0.007
    1UNL     C6    7  -0.129   0.077   0.113
    1UNL     C7    8  -0.220  -0.026   0.049
    1UNL     C8    9  -0.127  -0.126  -0.029
    1UNL     C9   10  -0.044  -0.213   0.055
    1UNL     O1   11  -0.115  -0.290   0.145
    1UNL    C10   12  -0.050  -0.052  -0.143
    1UNL    C11   13   0.101  -0.062  -0.154
    1UNL    C12   14   0.163   0.023  -0.043
    1UNL    C13   15   0.097   0.124   0.027
    1UNL     N2   16   0.182   0.178   0.124
    1UNL    C14   17   0.299   0.108   0.123
    1UNL    C15   18   0.417   0.105   0.202
    1UNL    C16   19   0.523   0.016   0.167
    1UNL    C17   20   0.519  -0.070   0.056
    1UNL     O2   21   0.624  -0.154   0.025
    1UNL    C18   22   0.396  -0.072  -0.013
    1UNL    C19   23   0.293   0.009   0.021
    1UNL     H1   24  -0.636   0.082  -0.076
    1UNL     H2   25  -0.533   0.221  -0.105
    1UNL     H3   26  -0.511   0.094  -0.222
    1UNL     H4   27  -0.477  -0.011   0.069
    1UNL     H5   28  -0.263   0.090  -0.250
    1UNL     H6   29  -0.265   0.222  -0.131
    1UNL     H7   30  -0.066   0.251  -0.003
    1UNL     H8   31  -0.056   0.029   0.181
    1UNL     H9   32  -0.191   0.147   0.169
    1UNL    H10   33  -0.282  -0.083   0.121
    1UNL    H11   34  -0.191  -0.191  -0.090
    1UNL    H12   35   0.035  -0.158   0.111
    1UNL    H13   36   0.004  -0.292   0.009
    1UNL    H14   37  -0.171  -0.362   0.105
    1UNL    H15   38  -0.089  -0.082  -0.247
    1UNL    H16   39   0.135  -0.021  -0.247
    1UNL    H17   40   0.127  -0.171  -0.156
    1UNL    H18   41   0.156   0.246   0.203
    1UNL    H19   42   0.441   0.179   0.281
    1UNL    H20   43   0.617   0.026   0.224
    1UNL    H21   44   0.626  -0.179  -0.068
    1UNL    H22   45   0.382  -0.140  -0.099
   0.00000   0.00000   0.00000   0.00000   0.00000   0.00000   0.00000   0.00000   0.00000
Generated with MDTraj, t= 52.0
 45
    1UNL     C1    1  -0.544   0.132  -0.123
    1UNL     C2    2  -0.449   0.046  -0.047
    1UNL     C3    3  -0.316   0.043  -0.044
    1UNL     C4    4  -0.237   0.131  -0.139
    1UNL     N1    5  -0.095   0.095  -0.116
    1UNL     C5    6  -0.053   0.137   0.018
    1UNL     C6    7  -0.133   0.047   0.118
    1UNL     C7    8  -0.229  -0.048   0.043
    1UNL     C8    9  -0.140  -0.143  -0.048
    1UNL     C9   10  -0.047  -0.216   0.038
    1UNL     O1   11  -0.100  -0.264   0.158
    1UNL    C10   12  -0.062  -0.049  -0.147
    1UNL    C11   13   0.094  -0.057  -0.146
    1UNL    C12   14   0.164   0.015  -0.034
    1UNL    C13   15   0.100   0.113   0.037
    1UNL     N2   16   0.182   0.164   0.135
    1UNL    C14   17   0.307   0.101   0.118
    1UNL    C15   18   0.428   0.123   0.184
    1UNL    C16   19   0.543   0.054   0.141
    1UNL    C17   20   0.525  -0.063   0.058
    1UNL     O2   21   0.629  -0.160   0.044
    1UNL    C18   22   0.402  -0.085  -0.005
    1UNL    C19   23   0.298   0.003   0.018
    1UNL     H1   24  -0.627   0.141  -0.061
    1UNL     H2   25  -0.507   0.240  -0.133
    1UNL     H3   26  -0.562   0.102  -0.231
    1UNL     H4   27  -0.496  -0.038   0.002
    1UNL     H5   28  -0.269   0.108  -0.239
    1UNL     H6   29  -0.256   0.236  -0.110
    1UNL     H7   30  -0.068   0.239   0.040
    1UNL     H8   31  -0.081  -0.014   0.192
    1UNL     H9   32  -0.183   0.127   0.173
    1UNL    H10   33  -0.299  -0.108   0.105
    1UNL    H11   34  -0.201  -0.216  -0.105
    1UNL    H12   35   0.035  -0.155   0.080
    1UNL    H13   36  -0.004  -0.290  -0.022
    1UNL    H14   37  -0.163  -0.331   0.127
    1UNL    H15   38  -0.100  -0.080  -0.251
    1UNL    H16   39   0.131  -0.031  -0.245
    1UNL    H17   40   0.127  -0.161  -0.132
    1UNL    H18   41   0.162   0.233   0.208
    1UNL    H19   42   0.435   0.208   0.247
    1UNL    H20   43   0.644   0.077   0.170
    1UNL    H21   44   0.590  -0.240  -0.005
    1UNL    H22   45   0.392  -0.173  -0.066
   0.00000   0.00000   0.00000   0.00000   0.00000   0.00000   0.00000   0.00000   0.00000
Generated with MDTraj, t= 53.0
 45
    1UNL     C1    1  -0.524   0.126  -0.140
    1UNL     C2    2  -0.448   0.044  -0.045
    1UNL     C3    3  -0.318   0.044  -0.042
    1UNL     C4    4  -0.236   0.126  -0.142
    1UNL     N1    5  -0.090   0.096  -0.114
    1UNL     C5    6  -0.046   0.129   0.021
    1UNL     C6    7  -0.134   0.055   0.129
    1UNL     C7    8  -0.234  -0.031   0.054
    1UNL     C8    9  -0.143  -0.127  -0.037
    1UNL     C9   10  -0.057  -0.222   0.051
    1UNL     O1   11  -0.141  -0.289   0.150
    1UNL    C10   12  -0.062  -0.048  -0.141
    1UNL    C11   13   0.094  -0.074  -0.141
    1UNL    C12   14   0.170   0.015  -0.039
    1UNL    C13   15   0.101   0.104   0.040
    1UNL     N2   16   0.191   0.166   0.126
    1UNL    C14   17   0.313   0.105   0.115
    1UNL    C15   18   0.435   0.116   0.187
    1UNL    C16   19   0.538   0.039   0.152
    1UNL    C17   20   0.526  -0.057   0.050
    1UNL     O2   21   0.637  -0.132   0.033
    1UNL    C18   22   0.407  -0.077  -0.015
    1UNL    C19   23   0.295   0.009   0.015
    1UNL     H1   24  -0.625   0.110  -0.114
    1UNL     H2   25  -0.508   0.232  -0.116
    1UNL     H3   26  -0.504   0.110  -0.252
    1UNL     H4   27  -0.498  -0.030   0.019
    1UNL     H5   28  -0.265   0.099  -0.244
    1UNL     H6   29  -0.262   0.228  -0.122
    1UNL     H7   30  -0.065   0.233   0.033
    1UNL     H8   31  -0.068   0.004   0.198
    1UNL     H9   32  -0.192   0.119   0.196
    1UNL    H10   33  -0.297  -0.081   0.131
    1UNL    H11   34  -0.209  -0.200  -0.088
    1UNL    H12   35   0.019  -0.160   0.098
    1UNL    H13   36  -0.003  -0.295  -0.002
    1UNL    H14   37  -0.210  -0.348   0.110
    1UNL    H15   38  -0.106  -0.088  -0.242
    1UNL    H16   39   0.135  -0.049  -0.238
    1UNL    H17   40   0.128  -0.174  -0.123
    1UNL    H18   41   0.173   0.232   0.195
    1UNL    H19   42   0.449   0.190   0.264
    1UNL    H20   43   0.633   0.059   0.200
    1UNL    H21   44   0.618  -0.202  -0.040
    1UNL    H22   45   0.392  -0.150  -0.086
   0.00000   0.00000   0.00000   0.00000   0.00000   0.00000   0.00000   0.00000   0.00000
Generated with MDTraj, t= 54.0
 45
    1UNL     C1    1  -0.530   0.108  -0.140
    1UNL     C2    2  -0.442   0.045  -0.035
    1UNL     C3    3  -0.310   0.053  -0.046
    1UNL     C4    4  -0.216   0.107  -0.156
    1UNL     N1    5  -0.074   0.094  -0.115
    1UNL     C5    6  -0.035   0.150   0.015
    1UNL     C6    7  -0.134   0.090   0.127
    1UNL     C7    8  -0.226  -0.018   0.054
    1UNL     C8    9  -0.150  -0.126  -0.030
    1UNL     C9   10  -0.076  -0.231   0.061
    1UNL     O1   11  -0.174  -0.309   0.128
    1UNL    C10   12  -0.049  -0.058  -0.126
    1UNL    C11   13   0.100  -0.082  -0.123
    1UNL    C12   14   0.161   0.000  -0.017
    1UNL    C13   15   0.105   0.109   0.051
    1UNL     N2   16   0.187   0.171   0.139
    1UNL    C14   17   0.309   0.104   0.118
    1UNL    C15   18   0.430   0.116   0.188
    1UNL    C16   19   0.537   0.039   0.154
    1UNL    C17   20   0.527  -0.053   0.041
    1UNL     O2   21   0.642  -0.115  -0.002
    1UNL    C18   22   0.410  -0.074  -0.020
    1UNL    C19   23   0.294  -0.000   0.024
    1UNL     H1   24  -0.630   0.067  -0.127
    1UNL     H2   25  -0.540   0.210  -0.114
    1UNL     H3   26  -0.498   0.087  -0.249
    1UNL     H4   27  -0.486  -0.015   0.041
    1UNL     H5   28  -0.237   0.057  -0.252
    1UNL     H6   29  -0.247   0.208  -0.165
    1UNL     H7   30  -0.046   0.256   0.003
    1UNL     H8   31  -0.085   0.038   0.205
    1UNL     H9   32  -0.193   0.171   0.171
    1UNL    H10   33  -0.284  -0.065   0.137
    1UNL    H11   34  -0.229  -0.179  -0.091
    1UNL    H12   35  -0.008  -0.185   0.127
    1UNL    H13   36  -0.023  -0.290  -0.008
    1UNL    H14   37  -0.261  -0.320   0.080
    1UNL    H15   38  -0.081  -0.064  -0.237
    1UNL    H16   39   0.153  -0.069  -0.219
    1UNL    H17   40   0.115  -0.183  -0.094
    1UNL    H18   41   0.171   0.241   0.201
    1UNL    H19   42   0.434   0.193   0.264
    1UNL    H20   43   0.631   0.046   0.209
    1UNL    H21   44   0.616  -0.175  -0.083
    1UNL    H22   45   0.402  -0.159  -0.097
   0.00000   0.00000   0.00000   0.00000   0.00000   0.00000   0.00000   0.00000   0.00000
Generated with MDTraj, t= 55.0
 45
    1UNL     C1    1  -0.528   0.130  -0.161
    1UNL     C2    2  -0.444   0.045  -0.065
    1UNL     C3    3  -0.312   0.055  -0.045
    1UNL     C4    4  -0.223   0.139  -0.141
    1UNL     N1    5  -0.087   0.102  -0.105
    1UNL     C5    6  -0.044   0.128   0.034
    1UNL     C6    7  -0.141   0.057   0.140
    1UNL     C7    8  -0.234  -0.030   0.058
    1UNL     C8    9  -0.155  -0.128  -0.029
    1UNL     C9   10  -0.087  -0.244   0.055
    1UNL     O1   11  -0.171  -0.300   0.151
    1UNL    C10   12  -0.060  -0.050  -0.133
    1UNL    C11   13   0.093  -0.084  -0.123
    1UNL    C12   14   0.168  -0.007  -0.019
    1UNL    C13   15   0.096   0.089   0.052
    1UNL     N2   16   0.188   0.159   0.132
    1UNL    C14   17   0.317   0.102   0.110
    1UNL    C15   18   0.438   0.136   0.169
    1UNL    C16   19   0.545   0.054   0.139
    1UNL    C17   20   0.537  -0.047   0.046
    1UNL     O2   21   0.660  -0.110   0.015
    1UNL    C18   22   0.421  -0.079  -0.016
    1UNL    C19   23   0.308  -0.005   0.016
    1UNL     H1   24  -0.629   0.144  -0.113
    1UNL     H2   25  -0.496   0.229  -0.161
    1UNL     H3   26  -0.551   0.081  -0.259
    1UNL     H4   27  -0.501  -0.038  -0.021
    1UNL     H5   28  -0.241   0.114  -0.248
    1UNL     H6   29  -0.234   0.243  -0.128
    1UNL     H7   30  -0.048   0.237   0.035
    1UNL     H8   31  -0.086  -0.007   0.203
    1UNL     H9   32  -0.197   0.135   0.194
    1UNL    H10   33  -0.309  -0.080   0.124
    1UNL    H11   34  -0.247  -0.167  -0.086
    1UNL    H12   35  -0.012  -0.199   0.110
    1UNL    H13   36  -0.035  -0.321  -0.001
    1UNL    H14   37  -0.255  -0.334   0.113
    1UNL    H15   38  -0.088  -0.081  -0.239
    1UNL    H16   39   0.141  -0.048  -0.216
    1UNL    H17   40   0.106  -0.189  -0.122
    1UNL    H18   41   0.174   0.238   0.187
    1UNL    H19   42   0.448   0.223   0.227
    1UNL    H20   43   0.640   0.084   0.172
    1UNL    H21   44   0.632  -0.190  -0.038
    1UNL    H22   45   0.418  -0.158  -0.086
   0.00000   0.00000   0.00000   0.00000   0.00000   0.00000   0.00000   0.00000   0.00000
Generated with MDTraj, t= 56.0
 45
    1UNL     C1    1  -0.515   0.152  -0.166
    1UNL     C2    2  -0.446   0.068  -0.062
    1UNL     C3    3  -0.317   0.050  -0.058
    1UNL     C4    4  -0.220   0.118  -0.149
    1UNL     N1    5  -0.079   0.094  -0.106
    1UNL     C5    6  -0.049   0.126   0.040
    1UNL     C6    7  -0.141   0.035   0.140
    1UNL     C7    8  -0.239  -0.040   0.040
    1UNL     C8    9  -0.149  -0.145  -0.037
    1UNL     C9   10  -0.074  -0.243   0.059
    1UNL     O1   11  -0.160  -0.290   0.159
    1UNL    C10   12  -0.052  -0.052  -0.130
    1UNL    C11   13   0.098  -0.081  -0.121
    1UNL    C12   14   0.157   0.001  -0.010
    1UNL    C13   15   0.094   0.096   0.060
    1UNL     N2   16   0.179   0.160   0.150
    1UNL    C14   17   0.316   0.113   0.124
    1UNL    C15   18   0.447   0.143   0.165
    1UNL    C16   19   0.553   0.065   0.119
    1UNL    C17   20   0.534  -0.047   0.036
    1UNL     O2   21   0.638  -0.128  -0.006
    1UNL    C18   22   0.405  -0.076  -0.007
    1UNL    C19   23   0.296   0.007   0.034
    1UNL     H1   24  -0.623   0.173  -0.130
    1UNL     H2   25  -0.483   0.254  -0.170
    1UNL     H3   26  -0.531   0.104  -0.260
    1UNL     H4   27  -0.503   0.003  -0.000
    1UNL     H5   28  -0.215   0.089  -0.258
    1UNL     H6   29  -0.233   0.221  -0.143
    1UNL     H7   30  -0.066   0.234   0.056
    1UNL     H8   31  -0.075  -0.031   0.190
    1UNL     H9   32  -0.204   0.089   0.210
    1UNL    H10   33  -0.306  -0.118   0.086
    1UNL    H11   34  -0.217  -0.209  -0.103
    1UNL    H12   35   0.011  -0.208   0.108
    1UNL    H13   36  -0.024  -0.330   0.008
    1UNL    H14   37  -0.195  -0.377   0.135
    1UNL    H15   38  -0.073  -0.081  -0.236
    1UNL    H16   39   0.144  -0.056  -0.218
    1UNL    H17   40   0.123  -0.183  -0.101
    1UNL    H18   41   0.160   0.242   0.208
    1UNL    H19   42   0.462   0.233   0.230
    1UNL    H20   43   0.653   0.093   0.159
    1UNL    H21   44   0.611  -0.220  -0.008
    1UNL    H22   45   0.392  -0.158  -0.070
   0.00000   0.00000   0.00000   0.00000   0.00000   0.00000   0.00000   0.00000   0.00000
Generated with MDTraj, t= 57.0
 45
    1UNL     C1    1  -0.525   0.152  -0.140
    1UNL     C2    2  -0.451   0.056  -0.049
    1UNL     C3    3  -0.318   0.052  -0.055
    1UNL     C4    4  -0.221   0.125  -0.153
    1UNL     N1    5  -0.075   0.088  -0.121
    1UNL     C5    6  -0.040   0.132   0.014
    1UNL     C6    7  -0.135   0.070   0.120
    1UNL     C7    8  -0.232  -0.027   0.047
    1UNL     C8    9  -0.145  -0.139  -0.026
    1UNL     C9   10  -0.075  -0.229   0.071
    1UNL     O1   11  -0.168  -0.305   0.150
    1UNL    C10   12  -0.056  -0.062  -0.131
    1UNL    C11   13   0.099  -0.091  -0.121
    1UNL    C12   14   0.164  -0.011  -0.014
    1UNL    C13   15   0.100   0.097   0.049
    1UNL     N2   16   0.187   0.155   0.134
    1UNL    C14   17   0.306   0.094   0.121
    1UNL    C15   18   0.426   0.128   0.184
    1UNL    C16   19   0.538   0.061   0.146
    1UNL    C17   20   0.536  -0.039   0.045
    1UNL     O2   21   0.649  -0.100  -0.016
    1UNL    C18   22   0.415  -0.086  -0.003
    1UNL    C19   23   0.297  -0.014   0.031
    1UNL     H1   24  -0.630   0.114  -0.158
    1UNL     H2   25  -0.546   0.245  -0.084
    1UNL     H3   26  -0.486   0.160  -0.236
    1UNL     H4   27  -0.508  -0.013   0.015
    1UNL     H5   28  -0.231   0.100  -0.262
    1UNL     H6   29  -0.219   0.229  -0.150
    1UNL     H7   30  -0.061   0.242   0.009
    1UNL     H8   31  -0.075   0.015   0.190
    1UNL     H9   32  -0.185   0.146   0.177
    1UNL    H10   33  -0.298  -0.075   0.123
    1UNL    H11   34  -0.221  -0.193  -0.094
    1UNL    H12   35  -0.015  -0.173   0.134
    1UNL    H13   36   0.006  -0.298   0.030
    1UNL    H14   37  -0.193  -0.382   0.091
    1UNL    H15   38  -0.085  -0.089  -0.233
    1UNL    H16   39   0.155  -0.064  -0.212
    1UNL    H17   40   0.115  -0.196  -0.106
    1UNL    H18   41   0.177   0.243   0.197
    1UNL    H19   42   0.426   0.204   0.256
    1UNL    H20   43   0.629   0.086   0.193
    1UNL    H21   44   0.626  -0.184  -0.050
    1UNL    H22   45   0.414  -0.167  -0.084
   0.00000   0.00000   0.00000   0.00000   0.00000   0.00000   0.00000   0.00000   0.00000
Generated with MDTraj, t= 58.0
 45
    1UNL     C1    1  -0.533   0.137  -0.137
    1UNL     C2    2  -0.447   0.061  -0.035
    1UNL     C3    3  -0.314   0.048  -0.040
    1UNL     C4    4  -0.233   0.108  -0.156
    1UNL     N1    5  -0.081   0.086  -0.127
    1UNL     C5    6  -0.040   0.132   0.012
    1UNL     C6    7  -0.131   0.078   0.126
    1UNL     C7    8  -0.226  -0.026   0.058
    1UNL     C8    9  -0.148  -0.132  -0.030
    1UNL     C9   10  -0.083  -0.232   0.056
    1UNL     O1   11  -0.172  -0.294   0.152
    1UNL    C10   12  -0.060  -0.064  -0.137
    1UNL    C11   13   0.096  -0.094  -0.124
    1UNL    C12   14   0.172  -0.004  -0.034
    1UNL    C13   15   0.101   0.090   0.035
    1UNL     N2   16   0.184   0.148   0.126
    1UNL    C14   17   0.315   0.101   0.122
    1UNL    C15   18   0.434   0.119   0.199
    1UNL    C16   19   0.539   0.042   0.162
    1UNL    C17   20   0.532  -0.044   0.044
    1UNL     O2   21   0.657  -0.105   0.017
    1UNL    C18   22   0.420  -0.055  -0.031
    1UNL    C19   23   0.307   0.011   0.013
    1UNL     H1   24  -0.604   0.068  -0.177
    1UNL     H2   25  -0.601   0.209  -0.080
    1UNL     H3   26  -0.480   0.173  -0.221
    1UNL     H4   27  -0.504   0.010   0.037
    1UNL     H5   28  -0.261   0.069  -0.257
    1UNL     H6   29  -0.240   0.212  -0.165
    1UNL     H7   30  -0.032   0.245   0.015
    1UNL     H8   31  -0.077   0.038   0.213
    1UNL     H9   32  -0.179   0.168   0.158
    1UNL    H10   33  -0.288  -0.059   0.145
    1UNL    H11   34  -0.230  -0.186  -0.089
    1UNL    H12   35  -0.003  -0.190   0.110
    1UNL    H13   36  -0.035  -0.317  -0.006
    1UNL    H14   37  -0.270  -0.285   0.134
    1UNL    H15   38  -0.096  -0.083  -0.236
    1UNL    H16   39   0.138  -0.100  -0.223
    1UNL    H17   40   0.111  -0.195  -0.084
    1UNL    H18   41   0.146   0.226   0.194
    1UNL    H19   42   0.440   0.184   0.286
    1UNL    H20   43   0.632   0.041   0.214
    1UNL    H21   44   0.641  -0.177  -0.042
    1UNL    H22   45   0.410  -0.108  -0.119
   0.00000   0.00000   0.00000   0.00000   0.00000   0.00000   0.00000   0.00000   0.00000
Generated with MDTraj, t= 59.0
 45
    1UNL     C1    1  -0.524   0.134  -0.137
    1UNL     C2    2  -0.452   0.044  -0.041
    1UNL     C3    3  -0.319   0.042  -0.046
    1UNL     C4    4  -0.231   0.115  -0.142
    1UNL     N1    5  -0.084   0.088  -0.120
    1UNL     C5    6  -0.049   0.140   0.017
    1UNL     C6    7  -0.136   0.070   0.121
    1UNL     C7    8  -0.228  -0.032   0.046
    1UNL     C8    9  -0.137  -0.136  -0.036
    1UNL     C9   10  -0.061  -0.227   0.055
    1UNL     O1   11  -0.143  -0.297   0.142
    1UNL    C10   12  -0.056  -0.054  -0.133
    1UNL    C11   13   0.099  -0.071  -0.127
    1UNL    C12   14   0.161   0.010  -0.019
    1UNL    C13   15   0.098   0.116   0.042
    1UNL     N2   16   0.193   0.174   0.122
    1UNL    C14   17   0.312   0.110   0.108
    1UNL    C15   18   0.430   0.132   0.177
    1UNL    C16   19   0.534   0.041   0.155
    1UNL    C17   20   0.525  -0.065   0.057
    1UNL     O2   21   0.631  -0.139   0.016
    1UNL    C18   22   0.405  -0.084  -0.011
    1UNL    C19   23   0.296   0.005   0.019
    1UNL     H1   24  -0.571   0.079  -0.209
    1UNL     H2   25  -0.611   0.191  -0.088
    1UNL     H3   26  -0.461   0.200  -0.197
    1UNL     H4   27  -0.507  -0.026   0.023
    1UNL     H5   28  -0.248   0.080  -0.245
    1UNL     H6   29  -0.252   0.220  -0.141
    1UNL     H7   30  -0.063   0.253   0.016
    1UNL     H8   31  -0.070   0.029   0.200
    1UNL     H9   32  -0.195   0.143   0.168
    1UNL    H10   33  -0.289  -0.083   0.124
    1UNL    H11   34  -0.186  -0.225  -0.089
    1UNL    H12   35   0.014  -0.172   0.106
    1UNL    H13   36   0.002  -0.308  -0.002
    1UNL    H14   37  -0.113  -0.307   0.235
    1UNL    H15   38  -0.090  -0.086  -0.228
    1UNL    H16   39   0.139  -0.038  -0.221
    1UNL    H17   40   0.134  -0.176  -0.124
    1UNL    H18   41   0.174   0.261   0.187
    1UNL    H19   42   0.436   0.210   0.251
    1UNL    H20   43   0.631   0.052   0.210
    1UNL    H21   44   0.604  -0.209  -0.048
    1UNL    H22   45   0.398  -0.160  -0.084
   0.00000   0.00000   0.00000   0.00000   0.00000   0.00000   0.00000   0.00000   0.00000
Generated with MDTraj, t= 60.0
 45
    1UNL     C1    1  -0.545   0.110  -0.137
    1UNL     C2    2  -0.451   0.035  -0.040
    1UNL     C3    3  -0.315   0.044  -0.048
    1UNL     C4    4  -0.231   0.133  -0.138
    1UNL     N1    5  -0.093   0.097  -0.121
    1UNL     C5    6  -0.044   0.143   0.017
    1UNL     C6    7  -0.128   0.069   0.122
    1UNL     C7    8  -0.224  -0.031   0.054
    1UNL     C8    9  -0.130  -0.123  -0.032
    1UNL     C9   10  -0.045  -0.215   0.053
    1UNL     O1   11  -0.107  -0.296   0.152
    1UNL    C10   12  -0.061  -0.043  -0.148
    1UNL    C11   13   0.091  -0.058  -0.150
    1UNL    C12   14   0.162   0.014  -0.034
    1UNL    C13   15   0.099   0.110   0.040
    1UNL     N2   16   0.181   0.166   0.129
    1UNL    C14   17   0.305   0.108   0.116
    1UNL    C15   18   0.437   0.134   0.159
    1UNL    C16   19   0.541   0.047   0.132
    1UNL    C17   20   0.520  -0.070   0.059
    1UNL     O2   21   0.626  -0.162   0.053
    1UNL    C18   22   0.392  -0.091   0.000
    1UNL    C19   23   0.292   0.001   0.022
    1UNL     H1   24  -0.521   0.088  -0.236
    1UNL     H2   25  -0.648   0.076  -0.129
    1UNL     H3   26  -0.546   0.221  -0.136
    1UNL     H4   27  -0.498  -0.021   0.036
    1UNL     H5   28  -0.273   0.127  -0.237
    1UNL     H6   29  -0.233   0.238  -0.106
    1UNL     H7   30  -0.055   0.257   0.029
    1UNL     H8   31  -0.064   0.015   0.197
    1UNL     H9   32  -0.181   0.141   0.176
    1UNL    H10   33  -0.302  -0.084   0.113
    1UNL    H11   34  -0.192  -0.198  -0.087
    1UNL    H12   35   0.028  -0.155   0.106
    1UNL    H13   36   0.019  -0.282  -0.017
    1UNL    H14   37  -0.202  -0.302   0.123
    1UNL    H15   38  -0.101  -0.058  -0.247
    1UNL    H16   39   0.128  -0.024  -0.245
    1UNL    H17   40   0.123  -0.164  -0.161
    1UNL    H18   41   0.156   0.245   0.195
    1UNL    H19   42   0.462   0.210   0.229
    1UNL    H20   43   0.631   0.066   0.176
    1UNL    H21   44   0.597  -0.254   0.018
    1UNL    H22   45   0.374  -0.181  -0.065
   0.00000   0.00000   0.00000   0.00000   0.00000   0.00000   0.00000   0.00000   0.00000
Generated with MDTraj, t= 61.0
 45
    1UNL     C1    1  -0.557   0.083  -0.131
    1UNL     C2    2  -0.442   0.030  -0.037
    1UNL     C3    3  -0.310   0.058  -0.037
    1UNL     C4    4  -0.239   0.134  -0.137
    1UNL     N1    5  -0.097   0.097  -0.123
    1UNL     C5    6  -0.045   0.144   0.009
    1UNL     C6    7  -0.120   0.070   0.117
    1UNL     C7    8  -0.219  -0.029   0.047
    1UNL     C8    9  -0.135  -0.132  -0.031
    1UNL     C9   10  -0.053  -0.222   0.065
    1UNL     O1   11  -0.129  -0.282   0.161
    1UNL    C10   12  -0.053  -0.041  -0.141
    1UNL    C11   13   0.099  -0.053  -0.144
    1UNL    C12   14   0.171   0.035  -0.049
    1UNL    C13   15   0.106   0.134   0.015
    1UNL     N2   16   0.192   0.183   0.112
    1UNL    C14   17   0.313   0.113   0.112
    1UNL    C15   18   0.428   0.107   0.193
    1UNL    C16   19   0.524   0.011   0.167
    1UNL    C17   20   0.513  -0.081   0.060
    1UNL     O2   21   0.623  -0.159   0.045
    1UNL    C18   22   0.402  -0.080  -0.020
    1UNL    C19   23   0.306   0.020   0.004
    1UNL     H1   24  -0.518   0.122  -0.228
    1UNL     H2   25  -0.615  -0.000  -0.151
    1UNL     H3   26  -0.622   0.162  -0.087
    1UNL     H4   27  -0.474  -0.046   0.036
    1UNL     H5   28  -0.273   0.097  -0.229
    1UNL     H6   29  -0.265   0.243  -0.129
    1UNL     H7   30  -0.073   0.255   0.013
    1UNL     H8   31  -0.057   0.011   0.187
    1UNL     H9   32  -0.163   0.142   0.182
    1UNL    H10   33  -0.282  -0.074   0.129
    1UNL    H11   34  -0.202  -0.204  -0.080
    1UNL    H12   35   0.029  -0.163   0.110
    1UNL    H13   36  -0.012  -0.307  -0.002
    1UNL    H14   37  -0.139  -0.381   0.143
    1UNL    H15   38  -0.084  -0.064  -0.242
    1UNL    H16   39   0.140  -0.028  -0.240
    1UNL    H17   40   0.122  -0.162  -0.141
    1UNL    H18   41   0.158   0.248   0.179
    1UNL    H19   42   0.429   0.179   0.277
    1UNL    H20   43   0.608  -0.008   0.238
    1UNL    H21   44   0.619  -0.207  -0.047
    1UNL    H22   45   0.389  -0.148  -0.097
   0.00000   0.00000   0.00000   0.00000   0.00000   0.00000   0.00000   0.00000   0.00000
Generated with MDTraj, t= 62.0
 45
    1UNL     C1    1  -0.538   0.091  -0.119
    1UNL     C2    2  -0.441   0.032  -0.023
    1UNL     C3    3  -0.310   0.035  -0.042
    1UNL     C4    4  -0.237   0.111  -0.151
    1UNL     N1    5  -0.089   0.093  -0.133
    1UNL     C5    6  -0.037   0.160  -0.003
    1UNL     C6    7  -0.127   0.101   0.109
    1UNL     C7    8  -0.214  -0.018   0.054
    1UNL     C8    9  -0.124  -0.117  -0.023
    1UNL     C9   10  -0.038  -0.211   0.063
    1UNL     O1   11  -0.109  -0.288   0.161
    1UNL    C10   12  -0.050  -0.046  -0.146
    1UNL    C11   13   0.097  -0.051  -0.156
    1UNL    C12   14   0.165   0.029  -0.048
    1UNL    C13   15   0.097   0.125   0.024
    1UNL     N2   16   0.177   0.172   0.129
    1UNL    C14   17   0.296   0.093   0.118
    1UNL    C15   18   0.415   0.095   0.196
    1UNL    C16   19   0.513   0.013   0.169
    1UNL    C17   20   0.511  -0.077   0.061
    1UNL     O2   21   0.621  -0.158   0.036
    1UNL    C18   22   0.399  -0.078  -0.022
    1UNL    C19   23   0.294   0.012   0.005
    1UNL     H1   24  -0.496   0.181  -0.178
    1UNL     H2   25  -0.559   0.014  -0.185
    1UNL     H3   26  -0.632   0.124  -0.074
    1UNL     H4   27  -0.475  -0.009   0.070
    1UNL     H5   28  -0.273   0.083  -0.245
    1UNL     H6   29  -0.253   0.222  -0.141
    1UNL     H7   30  -0.044   0.274  -0.010
    1UNL     H8   31  -0.061   0.073   0.192
    1UNL     H9   32  -0.195   0.166   0.161
    1UNL    H10   33  -0.261  -0.057   0.149
    1UNL    H11   34  -0.191  -0.192  -0.064
    1UNL    H12   35   0.030  -0.145   0.125
    1UNL    H13   36   0.017  -0.286  -0.006
    1UNL    H14   37  -0.204  -0.308   0.148
    1UNL    H15   38  -0.089  -0.079  -0.244
    1UNL    H16   39   0.120  -0.008  -0.251
    1UNL    H17   40   0.134  -0.155  -0.161
    1UNL    H18   41   0.152   0.238   0.194
    1UNL    H19   42   0.417   0.159   0.279
    1UNL    H20   43   0.602   0.009   0.226
    1UNL    H21   44   0.617  -0.190  -0.062
    1UNL    H22   45   0.395  -0.140  -0.112
   0.00000   0.00000   0.00000   0.00000   0.00000   0.00000   0.00000   0.00000   0.00000
Generated with MDTraj, t= 63.0
 45
    1UNL     C1    1  -0.534   0.113  -0.116
    1UNL     C2    2  -0.451   0.031  -0.036
    1UNL     C3    3  -0.318   0.039  -0.044
    1UNL     C4    4  -0.240   0.123  -0.146
    1UNL     N1    5  -0.095   0.103  -0.130
    1UNL     C5    6  -0.048   0.148   0.007
    1UNL     C6    7  -0.145   0.092   0.112
    1UNL     C7    8  -0.219  -0.026   0.051
    1UNL     C8    9  -0.126  -0.125  -0.033
    1UNL     C9   10  -0.023  -0.196   0.053
    1UNL     O1   11  -0.084  -0.268   0.164
    1UNL    C10   12  -0.064  -0.041  -0.148
    1UNL    C11   13   0.091  -0.057  -0.159
    1UNL    C12   14   0.157   0.007  -0.044
    1UNL    C13   15   0.095   0.106   0.029
    1UNL     N2   16   0.183   0.164   0.121
    1UNL    C14   17   0.301   0.092   0.117
    1UNL    C15   18   0.422   0.104   0.187
    1UNL    C16   19   0.523   0.021   0.163
    1UNL    C17   20   0.512  -0.076   0.060
    1UNL     O2   21   0.625  -0.155   0.048
    1UNL    C18   22   0.398  -0.087  -0.019
    1UNL    C19   23   0.288  -0.005   0.016
    1UNL     H1   24  -0.563   0.216  -0.077
    1UNL     H2   25  -0.488   0.121  -0.215
    1UNL     H3   26  -0.623   0.061  -0.144
    1UNL     H4   27  -0.489  -0.032   0.043
    1UNL     H5   28  -0.262   0.091  -0.242
    1UNL     H6   29  -0.265   0.233  -0.139
    1UNL     H7   30  -0.065   0.261   0.005
    1UNL     H8   31  -0.103   0.061   0.206
    1UNL     H9   32  -0.217   0.167   0.147
    1UNL    H10   33  -0.269  -0.089   0.131
    1UNL    H11   34  -0.198  -0.194  -0.071
    1UNL    H12   35   0.054  -0.124   0.096
    1UNL    H13   36   0.028  -0.281  -0.003
    1UNL    H14   37  -0.008  -0.303   0.216
    1UNL    H15   38  -0.110  -0.067  -0.247
    1UNL    H16   39   0.133  -0.012  -0.248
    1UNL    H17   40   0.109  -0.164  -0.162
    1UNL    H18   41   0.159   0.232   0.183
    1UNL    H19   42   0.413   0.166   0.280
    1UNL    H20   43   0.610   0.012   0.228
    1UNL    H21   44   0.637  -0.189  -0.045
    1UNL    H22   45   0.398  -0.160  -0.100
   0.00000   0.00000   0.00000   0.00000   0.00000   0.00000   0.00000   0.00000   0.00000
Generated with MDTraj, t= 64.0
 45
    1UNL     C1    1  -0.534   0.108  -0.124
    1UNL     C2    2  -0.445   0.039  -0.037
    1UNL     C3    3  -0.312   0.036  -0.047
    1UNL     C4    4  -0.239   0.118  -0.149
    1UNL     N1    5  -0.092   0.100  -0.126
    1UNL     C5    6  -0.048   0.142   0.017
    1UNL     C6    7  -0.132   0.061   0.121
    1UNL     C7    8  -0.217  -0.039   0.048
    1UNL     C8    9  -0.130  -0.139  -0.045
    1UNL     C9   10  -0.040  -0.211   0.050
    1UNL     O1   11  -0.121  -0.253   0.169
    1UNL    C10   12  -0.058  -0.047  -0.142
    1UNL    C11   13   0.100  -0.063  -0.135
    1UNL    C12   14   0.161   0.023  -0.035
    1UNL    C13   15   0.099   0.123   0.030
    1UNL     N2   16   0.188   0.179   0.121
    1UNL    C14   17   0.308   0.103   0.116
    1UNL    C15   18   0.425   0.108   0.198
    1UNL    C16   19   0.525   0.019   0.162
    1UNL    C17   20   0.512  -0.074   0.055
    1UNL     O2   21   0.613  -0.170   0.031
    1UNL    C18   22   0.402  -0.068  -0.029
    1UNL    C19   23   0.300   0.015   0.003
    1UNL     H1   24  -0.599   0.179  -0.074
    1UNL     H2   25  -0.470   0.154  -0.207
    1UNL     H3   26  -0.586   0.029  -0.173
    1UNL     H4   27  -0.490  -0.014   0.046
    1UNL     H5   28  -0.263   0.093  -0.249
    1UNL     H6   29  -0.264   0.225  -0.142
    1UNL     H7   30  -0.074   0.253   0.018
    1UNL     H8   31  -0.072   0.018   0.198
    1UNL     H9   32  -0.209   0.120   0.174
    1UNL    H10   33  -0.281  -0.103   0.116
    1UNL    H11   34  -0.197  -0.202  -0.097
    1UNL    H12   35   0.048  -0.152   0.099
    1UNL    H13   36   0.004  -0.303   0.005
    1UNL    H14   37  -0.077  -0.215   0.250
    1UNL    H15   38  -0.086  -0.065  -0.250
    1UNL    H16   39   0.139  -0.037  -0.232
    1UNL    H17   40   0.129  -0.164  -0.108
    1UNL    H18   41   0.169   0.250   0.186
    1UNL    H19   42   0.423   0.157   0.289
    1UNL    H20   43   0.616   0.015   0.224
    1UNL    H21   44   0.605  -0.204  -0.058
    1UNL    H22   45   0.389  -0.127  -0.113
   0.00000   0.00000   0.00000   0.00000   0.00000   0.00000   0.00000   0.00000   0.00000
Generated with MDTraj, t= 65.0
 45
    1UNL     C1    1  -0.541   0.102  -0.133
    1UNL     C2    2  -0.451   0.035  -0.041
    1UNL     C3    3  -0.317   0.046  -0.044
    1UNL     C4    4  -0.238   0.133  -0.144
    1UNL     N1    5  -0.087   0.106  -0.129
    1UNL     C5    6  -0.043   0.152   0.004
    1UNL     C6    7  -0.120   0.078   0.119
    1UNL     C7    8  -0.220  -0.020   0.058
    1UNL     C8    9  -0.138  -0.125  -0.027
    1UNL     C9   10  -0.055  -0.213   0.067
    1UNL     O1   11  -0.135  -0.289   0.158
    1UNL    C10   12  -0.066  -0.043  -0.136
    1UNL    C11   13   0.088  -0.073  -0.143
    1UNL    C12   14   0.162   0.013  -0.045
    1UNL    C13   15   0.101   0.118   0.019
    1UNL     N2   16   0.182   0.163   0.122
    1UNL    C14   17   0.300   0.086   0.124
    1UNL    C15   18   0.425   0.109   0.187
    1UNL    C16   19   0.537   0.042   0.147
    1UNL    C17   20   0.531  -0.065   0.059
    1UNL     O2   21   0.641  -0.155   0.033
    1UNL    C18   22   0.410  -0.076  -0.011
    1UNL    C19   23   0.294   0.002   0.014
    1UNL     H1   24  -0.621   0.156  -0.092
    1UNL     H2   25  -0.474   0.170  -0.200
    1UNL     H3   26  -0.571   0.028  -0.208
    1UNL     H4   27  -0.490  -0.016   0.045
    1UNL     H5   28  -0.267   0.120  -0.248
    1UNL     H6   29  -0.252   0.240  -0.130
    1UNL     H7   30  -0.044   0.266   0.006
    1UNL     H8   31  -0.051   0.024   0.176
    1UNL     H9   32  -0.170   0.145   0.191
    1UNL    H10   33  -0.269  -0.071   0.147
    1UNL    H11   34  -0.200  -0.196  -0.076
    1UNL    H12   35   0.008  -0.148   0.143
    1UNL    H13   36   0.020  -0.286   0.020
    1UNL    H14   37  -0.122  -0.385   0.160
    1UNL    H15   38  -0.106  -0.072  -0.237
    1UNL    H16   39   0.123  -0.046  -0.243
    1UNL    H17   40   0.108  -0.176  -0.116
    1UNL    H18   41   0.159   0.241   0.187
    1UNL    H19   42   0.431   0.171   0.279
    1UNL    H20   43   0.631   0.053   0.189
    1UNL    H21   44   0.626  -0.215  -0.037
    1UNL    H22   45   0.418  -0.153  -0.093
   0.00000   0.00000   0.00000   0.00000   0.00000   0.00000   0.00000   0.00000   0.00000
Generated with MDTraj, t= 66.0
 45
    1UNL     C1    1  -0.543   0.104  -0.141
    1UNL     C2    2  -0.453   0.047  -0.042
    1UNL     C3    3  -0.319   0.063  -0.045
    1UNL     C4    4  -0.239   0.127  -0.158
    1UNL     N1    5  -0.091   0.106  -0.125
    1UNL     C5    6  -0.047   0.153   0.009
    1UNL     C6    7  -0.136   0.085   0.125
    1UNL     C7    8  -0.226  -0.022   0.051
    1UNL     C8    9  -0.145  -0.130  -0.025
    1UNL     C9   10  -0.060  -0.226   0.077
    1UNL     O1   11  -0.136  -0.313   0.149
    1UNL    C10   12  -0.059  -0.044  -0.131
    1UNL    C11   13   0.099  -0.078  -0.127
    1UNL    C12   14   0.164   0.007  -0.029
    1UNL    C13   15   0.101   0.117   0.028
    1UNL     N2   16   0.194   0.164   0.122
    1UNL    C14   17   0.309   0.092   0.124
    1UNL    C15   18   0.438   0.124   0.179
    1UNL    C16   19   0.544   0.045   0.146
    1UNL    C17   20   0.535  -0.062   0.048
    1UNL     O2   21   0.641  -0.142   0.018
    1UNL    C18   22   0.410  -0.089  -0.009
    1UNL    C19   23   0.294  -0.009   0.027
    1UNL     H1   24  -0.646   0.082  -0.144
    1UNL     H2   25  -0.530   0.214  -0.149
    1UNL     H3   26  -0.498   0.081  -0.241
    1UNL     H4   27  -0.493  -0.010   0.041
    1UNL     H5   28  -0.255   0.090  -0.261
    1UNL     H6   29  -0.264   0.230  -0.169
    1UNL     H7   30  -0.056   0.264   0.012
    1UNL     H8   31  -0.082   0.031   0.197
    1UNL     H9   32  -0.190   0.164   0.181
    1UNL    H10   33  -0.295  -0.067   0.129
    1UNL    H11   34  -0.210  -0.197  -0.074
    1UNL    H12   35   0.001  -0.153   0.147
    1UNL    H13   36   0.013  -0.292   0.022
    1UNL    H14   37  -0.232  -0.295   0.139
    1UNL    H15   38  -0.088  -0.069  -0.234
    1UNL    H16   39   0.143  -0.049  -0.224
    1UNL    H17   40   0.114  -0.179  -0.095
    1UNL    H18   41   0.170   0.250   0.183
    1UNL    H19   42   0.443   0.184   0.269
    1UNL    H20   43   0.635   0.047   0.214
    1UNL    H21   44   0.616  -0.190  -0.060
    1UNL    H22   45   0.400  -0.158  -0.088
   0.00000   0.00000   0.00000   0.00000   0.00000   0.00000   0.00000   0.00000   0.00000
Generated with MDTraj, t= 67.0
 45
    1UNL     C1    1  -0.520   0.129  -0.148
    1UNL     C2    2  -0.440   0.049  -0.055
    1UNL     C3    3  -0.306   0.033  -0.057
    1UNL     C4    4  -0.220   0.116  -0.146
    1UNL     N1    5  -0.077   0.109  -0.111
    1UNL     C5    6  -0.044   0.138   0.030
    1UNL     C6    7  -0.138   0.062   0.134
    1UNL     C7    8  -0.224  -0.044   0.053
    1UNL     C8    9  -0.147  -0.134  -0.034
    1UNL     C9   10  -0.079  -0.239   0.063
    1UNL     O1   11  -0.163  -0.288   0.165
    1UNL    C10   12  -0.053  -0.050  -0.136
    1UNL    C11   13   0.095  -0.086  -0.120
    1UNL    C12   14   0.164   0.008  -0.022
    1UNL    C13   15   0.099   0.103   0.053
    1UNL     N2   16   0.189   0.171   0.122
    1UNL    C14   17   0.308   0.108   0.113
    1UNL    C15   18   0.434   0.135   0.169
    1UNL    C16   19   0.536   0.046   0.142
    1UNL    C17   20   0.519  -0.062   0.046
    1UNL     O2   21   0.631  -0.143   0.016
    1UNL    C18   22   0.408  -0.072  -0.027
    1UNL    C19   23   0.302   0.012   0.009
    1UNL     H1   24  -0.598   0.073  -0.201
    1UNL     H2   25  -0.560   0.212  -0.100
    1UNL     H3   26  -0.446   0.173  -0.220
    1UNL     H4   27  -0.493   0.011   0.029
    1UNL     H5   28  -0.242   0.097  -0.255
    1UNL     H6   29  -0.247   0.217  -0.135
    1UNL     H7   30  -0.048   0.246   0.053
    1UNL     H8   31  -0.079   0.018   0.210
    1UNL     H9   32  -0.209   0.131   0.185
    1UNL    H10   33  -0.301  -0.096   0.120
    1UNL    H11   34  -0.217  -0.189  -0.095
    1UNL    H12   35   0.003  -0.180   0.126
    1UNL    H13   36  -0.027  -0.318   0.005
    1UNL    H14   37  -0.159  -0.221   0.240
    1UNL    H15   38  -0.082  -0.072  -0.239
    1UNL    H16   39   0.138  -0.066  -0.220
    1UNL    H17   40   0.106  -0.189  -0.097
    1UNL    H18   41   0.172   0.253   0.193
    1UNL    H19   42   0.452   0.215   0.237
    1UNL    H20   43   0.625   0.048   0.197
    1UNL    H21   44   0.624  -0.173  -0.077
    1UNL    H22   45   0.404  -0.140  -0.109
   0.00000   0.00000   0.00000   0.00000   0.00000   0.00000   0.00000   0.00000   0.00000
Generated with MDTraj, t= 68.0
 45
    1UNL     C1    1  -0.526   0.141  -0.144
    1UNL     C2    2  -0.452   0.061  -0.050
    1UNL     C3    3  -0.317   0.058  -0.051
    1UNL     C4    4  -0.226   0.126  -0.150
    1UNL     N1    5  -0.081   0.097  -0.114
    1UNL     C5    6  -0.046   0.136   0.023
    1UNL     C6    7  -0.149   0.075   0.123
    1UNL     C7    8  -0.240  -0.028   0.045
    1UNL     C8    9  -0.155  -0.136  -0.030
    1UNL     C9   10  -0.070  -0.236   0.057
    1UNL     O1   11  -0.150  -0.295   0.159
    1UNL    C10   12  -0.057  -0.055  -0.128
    1UNL    C11   13   0.089  -0.091  -0.129
    1UNL    C12   14   0.158  -0.018  -0.013
    1UNL    C13   15   0.097   0.093   0.048
    1UNL     N2   16   0.192   0.149   0.130
    1UNL    C14   17   0.314   0.094   0.108
    1UNL    C15   18   0.435   0.137   0.160
    1UNL    C16   19   0.549   0.065   0.134
    1UNL    C17   20   0.538  -0.049   0.050
    1UNL     O2   21   0.650  -0.116   0.024
    1UNL    C18   22   0.414  -0.093  -0.007
    1UNL    C19   23   0.300  -0.013   0.018
    1UNL     H1   24  -0.576   0.079  -0.222
    1UNL     H2   25  -0.594   0.202  -0.095
    1UNL     H3   26  -0.450   0.206  -0.185
    1UNL     H4   27  -0.502   0.007   0.031
    1UNL     H5   28  -0.242   0.089  -0.256
    1UNL     H6   29  -0.254   0.225  -0.152
    1UNL     H7   30  -0.043   0.246   0.022
    1UNL     H8   31  -0.092   0.016   0.192
    1UNL     H9   32  -0.202   0.156   0.175
    1UNL    H10   33  -0.309  -0.100   0.105
    1UNL    H11   34  -0.223  -0.205  -0.081
    1UNL    H12   35   0.025  -0.184   0.104
    1UNL    H13   36  -0.030  -0.326   0.009
    1UNL    H14   37  -0.156  -0.236   0.239
    1UNL    H15   38  -0.096  -0.083  -0.224
    1UNL    H16   39   0.140  -0.068  -0.225
    1UNL    H17   40   0.099  -0.196  -0.116
    1UNL    H18   41   0.180   0.246   0.177
    1UNL    H19   42   0.431   0.210   0.243
    1UNL    H20   43   0.638   0.090   0.192
    1UNL    H21   44   0.645  -0.161  -0.069
    1UNL    H22   45   0.409  -0.183  -0.074
   0.00000   0.00000   0.00000   0.00000   0.00000   0.00000   0.00000   0.00000   0.00000
Generated with MDTraj, t= 69.0
 45
    1UNL     C1    1  -0.527   0.143  -0.139
    1UNL     C2    2  -0.443   0.069  -0.048
    1UNL     C3    3  -0.310   0.047  -0.055
    1UNL     C4    4  -0.229   0.110  -0.165
    1UNL     N1    5  -0.084   0.085  -0.124
    1UNL     C5    6  -0.042   0.133   0.013
    1UNL     C6    7  -0.135   0.075   0.115
    1UNL     C7    8  -0.232  -0.026   0.050
    1UNL     C8    9  -0.145  -0.135  -0.025
    1UNL     C9   10  -0.073  -0.231   0.075
    1UNL     O1   11  -0.168  -0.315   0.156
    1UNL    C10   12  -0.055  -0.066  -0.137
    1UNL    C11   13   0.092  -0.091  -0.119
    1UNL    C12   14   0.166   0.009  -0.023
    1UNL    C13   15   0.102   0.107   0.042
    1UNL     N2   16   0.185   0.170   0.134
    1UNL    C14   17   0.311   0.102   0.133
    1UNL    C15   18   0.437   0.123   0.182
    1UNL    C16   19   0.546   0.055   0.133
    1UNL    C17   20   0.533  -0.052   0.044
    1UNL     O2   21   0.646  -0.121  -0.004
    1UNL    C18   22   0.406  -0.081  -0.007
    1UNL    C19   23   0.300   0.003   0.036
    1UNL     H1   24  -0.508   0.126  -0.247
    1UNL     H2   25  -0.633   0.130  -0.125
    1UNL     H3   26  -0.509   0.243  -0.116
    1UNL     H4   27  -0.485   0.038   0.044
    1UNL     H5   28  -0.264   0.077  -0.268
    1UNL     H6   29  -0.246   0.213  -0.163
    1UNL     H7   30  -0.043   0.241   0.003
    1UNL     H8   31  -0.067   0.027   0.187
    1UNL     H9   32  -0.186   0.156   0.168
    1UNL    H10   33  -0.303  -0.072   0.129
    1UNL    H11   34  -0.224  -0.191  -0.081
    1UNL    H12   35  -0.003  -0.181   0.157
    1UNL    H13   36  -0.002  -0.295   0.027
    1UNL    H14   37  -0.238  -0.262   0.198
    1UNL    H15   38  -0.088  -0.100  -0.233
    1UNL    H16   39   0.146  -0.098  -0.214
    1UNL    H17   40   0.113  -0.189  -0.079
    1UNL    H18   41   0.159   0.237   0.209
    1UNL    H19   42   0.448   0.184   0.268
    1UNL    H20   43   0.648   0.077   0.168
    1UNL    H21   44   0.616  -0.181  -0.084
    1UNL    H22   45   0.393  -0.158  -0.074
   0.00000   0.00000   0.00000   0.00000   0.00000   0.00000   0.00000   0.00000   0.00000
Generated with MDTraj, t= 70.0
 45
    1UNL     C1    1  -0.520   0.140  -0.149
    1UNL     C2    2  -0.440   0.061  -0.051
    1UNL     C3    3  -0.308   0.058  -0.041
    1UNL     C4    4  -0.224   0.126  -0.134
    1UNL     N1    5  -0.085   0.082  -0.117
    1UNL     C5    6  -0.044   0.132   0.016
    1UNL     C6    7  -0.131   0.058   0.120
    1UNL     C7    8  -0.238  -0.033   0.052
    1UNL     C8    9  -0.155  -0.138  -0.024
    1UNL     C9   10  -0.085  -0.229   0.073
    1UNL     O1   11  -0.168  -0.304   0.155
    1UNL    C10   12  -0.059  -0.072  -0.122
    1UNL    C11   13   0.099  -0.088  -0.121
    1UNL    C12   14   0.170   0.007  -0.032
    1UNL    C13   15   0.099   0.111   0.027
    1UNL     N2   16   0.183   0.167   0.120
    1UNL    C14   17   0.309   0.107   0.108
    1UNL    C15   18   0.430   0.124   0.180
    1UNL    C16   19   0.541   0.052   0.146
    1UNL    C17   20   0.535  -0.052   0.047
    1UNL     O2   21   0.647  -0.128   0.017
    1UNL    C18   22   0.418  -0.073  -0.020
    1UNL    C19   23   0.308   0.008   0.008
    1UNL     H1   24  -0.464   0.174  -0.233
    1UNL     H2   25  -0.609   0.086  -0.191
    1UNL     H3   26  -0.550   0.223  -0.096
    1UNL     H4   27  -0.484   0.001   0.031
    1UNL     H5   28  -0.248   0.103  -0.240
    1UNL     H6   29  -0.234   0.232  -0.123
    1UNL     H7   30  -0.076   0.234   0.024
    1UNL     H8   31  -0.065  -0.006   0.182
    1UNL     H9   32  -0.173   0.127   0.192
    1UNL    H10   33  -0.308  -0.079   0.132
    1UNL    H11   34  -0.233  -0.188  -0.089
    1UNL    H12   35   0.006  -0.176   0.124
    1UNL    H13   36  -0.039  -0.305   0.015
    1UNL    H14   37  -0.224  -0.246   0.209
    1UNL    H15   38  -0.093  -0.102  -0.218
    1UNL    H16   39   0.145  -0.086  -0.221
    1UNL    H17   40   0.127  -0.187  -0.084
    1UNL    H18   41   0.158   0.224   0.198
    1UNL    H19   42   0.423   0.190   0.268
    1UNL    H20   43   0.631   0.076   0.192
    1UNL    H21   44   0.626  -0.206  -0.046
    1UNL    H22   45   0.402  -0.150  -0.096
   0.00000   0.00000   0.00000   0.00000   0.00000   0.00000   0.00000   0.00000   0.00000
Generated with MDTraj, t= 71.0
 45
    1UNL     C1    1  -0.543   0.121  -0.131
    1UNL     C2    2  -0.448   0.051  -0.040
    1UNL     C3    3  -0.315   0.052  -0.042
    1UNL     C4    4  -0.234   0.120  -0.144
    1UNL     N1    5  -0.090   0.088  -0.116
    1UNL     C5    6  -0.044   0.135   0.020
    1UNL     C6    7  -0.142   0.078   0.122
    1UNL     C7    8  -0.236  -0.025   0.045
    1UNL     C8    9  -0.140  -0.124  -0.045
    1UNL     C9   10  -0.073  -0.228   0.046
    1UNL     O1   11  -0.152  -0.281   0.142
    1UNL    C10   12  -0.056  -0.053  -0.142
    1UNL    C11   13   0.097  -0.085  -0.129
    1UNL    C12   14   0.160  -0.008  -0.015
    1UNL    C13   15   0.097   0.094   0.056
    1UNL     N2   16   0.190   0.173   0.123
    1UNL    C14   17   0.316   0.108   0.113
    1UNL    C15   18   0.447   0.138   0.160
    1UNL    C16   19   0.550   0.055   0.133
    1UNL    C17   20   0.534  -0.062   0.052
    1UNL     O2   21   0.650  -0.138   0.029
    1UNL    C18   22   0.409  -0.092   0.002
    1UNL    C19   23   0.297  -0.007   0.032
    1UNL     H1   24  -0.504   0.138  -0.224
    1UNL     H2   25  -0.641   0.066  -0.147
    1UNL     H3   26  -0.558   0.215  -0.086
    1UNL     H4   27  -0.486  -0.006   0.041
    1UNL     H5   28  -0.251   0.085  -0.246
    1UNL     H6   29  -0.243   0.228  -0.150
    1UNL     H7   30  -0.064   0.239   0.029
    1UNL     H8   31  -0.094   0.039   0.216
    1UNL     H9   32  -0.206   0.159   0.156
    1UNL    H10   33  -0.300  -0.088   0.119
    1UNL    H11   34  -0.216  -0.179  -0.109
    1UNL    H12   35   0.022  -0.183   0.092
    1UNL    H13   36  -0.035  -0.307  -0.012
    1UNL    H14   37  -0.130  -0.258   0.236
    1UNL    H15   38  -0.088  -0.082  -0.241
    1UNL    H16   39   0.144  -0.057  -0.223
    1UNL    H17   40   0.114  -0.194  -0.116
    1UNL    H18   41   0.180   0.260   0.162
    1UNL    H19   42   0.456   0.229   0.213
    1UNL    H20   43   0.656   0.073   0.170
    1UNL    H21   44   0.625  -0.225  -0.010
    1UNL    H22   45   0.390  -0.173  -0.070
   0.00000   0.00000   0.00000   0.00000   0.00000   0.00000   0.00000   0.00000   0.00000
Generated with MDTraj, t= 72.0
 45
    1UNL     C1    1  -0.513   0.127  -0.141
    1UNL     C2    2  -0.440   0.039  -0.042
    1UNL     C3    3  -0.306   0.036  -0.044
    1UNL     C4    4  -0.230   0.117  -0.141
    1UNL     N1    5  -0.086   0.088  -0.118
    1UNL     C5    6  -0.045   0.144   0.020
    1UNL     C6    7  -0.135   0.078   0.121
    1UNL     C7    8  -0.228  -0.027   0.062
    1UNL     C8    9  -0.137  -0.129  -0.024
    1UNL     C9   10  -0.058  -0.232   0.055
    1UNL     O1   11  -0.132  -0.303   0.147
    1UNL    C10   12  -0.059  -0.056  -0.134
    1UNL    C11   13   0.095  -0.074  -0.132
    1UNL    C12   14   0.160   0.011  -0.026
    1UNL    C13   15   0.099   0.116   0.038
    1UNL     N2   16   0.194   0.182   0.122
    1UNL    C14   17   0.315   0.115   0.107
    1UNL    C15   18   0.433   0.129   0.173
    1UNL    C16   19   0.529   0.038   0.145
    1UNL    C17   20   0.513  -0.062   0.051
    1UNL     O2   21   0.621  -0.150   0.023
    1UNL    C18   22   0.392  -0.080  -0.012
    1UNL    C19   23   0.291   0.009   0.018
    1UNL     H1   24  -0.517   0.095  -0.240
    1UNL     H2   25  -0.619   0.148  -0.119
    1UNL     H3   26  -0.466   0.224  -0.141
    1UNL     H4   27  -0.489  -0.013   0.042
    1UNL     H5   28  -0.265   0.096  -0.240
    1UNL     H6   29  -0.243   0.227  -0.123
    1UNL     H7   30  -0.051   0.249   0.014
    1UNL     H8   31  -0.065   0.045   0.204
    1UNL     H9   32  -0.196   0.156   0.159
    1UNL    H10   33  -0.292  -0.079   0.143
    1UNL    H11   34  -0.215  -0.192  -0.079
    1UNL    H12   35   0.040  -0.192   0.099
    1UNL    H13   36  -0.015  -0.301  -0.012
    1UNL    H14   37  -0.213  -0.251   0.175
    1UNL    H15   38  -0.095  -0.086  -0.234
    1UNL    H16   39   0.127  -0.048  -0.232
    1UNL    H17   40   0.125  -0.180  -0.112
    1UNL    H18   41   0.174   0.264   0.166
    1UNL    H19   42   0.454   0.216   0.236
    1UNL    H20   43   0.619   0.035   0.198
    1UNL    H21   44   0.591  -0.227  -0.022
    1UNL    H22   45   0.380  -0.157  -0.080
   0.00000   0.00000   0.00000   0.00000   0.00000   0.00000   0.00000   0.00000   0.00000
Generated with MDTraj, t= 73.0
 45
    1UNL     C1    1  -0.546   0.107  -0.134
    1UNL     C2    2  -0.450   0.049  -0.034
    1UNL     C3    3  -0.314   0.054  -0.041
    1UNL     C4    4  -0.237   0.119  -0.145
    1UNL     N1    5  -0.088   0.090  -0.126
    1UNL     C5    6  -0.041   0.151   0.008
    1UNL     C6    7  -0.134   0.089   0.115
    1UNL     C7    8  -0.224  -0.021   0.058
    1UNL     C8    9  -0.141  -0.133  -0.018
    1UNL     C9   10  -0.054  -0.213   0.074
    1UNL     O1   11  -0.131  -0.310   0.149
    1UNL    C10   12  -0.059  -0.055  -0.132
    1UNL    C11   13   0.098  -0.062  -0.147
    1UNL    C12   14   0.165   0.017  -0.043
    1UNL    C13   15   0.108   0.119   0.025
    1UNL     N2   16   0.190   0.163   0.123
    1UNL    C14   17   0.314   0.100   0.107
    1UNL    C15   18   0.422   0.109   0.194
    1UNL    C16   19   0.532   0.027   0.165
    1UNL    C17   20   0.527  -0.064   0.053
    1UNL     O2   21   0.631  -0.150   0.033
    1UNL    C18   22   0.411  -0.072  -0.025
    1UNL    C19   23   0.302   0.013  -0.002
    1UNL     H1   24  -0.559   0.051  -0.225
    1UNL     H2   25  -0.642   0.104  -0.095
    1UNL     H3   26  -0.524   0.213  -0.155
    1UNL     H4   27  -0.496  -0.010   0.043
    1UNL     H5   28  -0.266   0.069  -0.233
    1UNL     H6   29  -0.271   0.228  -0.151
    1UNL     H7   30  -0.054   0.255  -0.006
    1UNL     H8   31  -0.070   0.050   0.198
    1UNL     H9   32  -0.192   0.169   0.157
    1UNL    H10   33  -0.284  -0.075   0.140
    1UNL    H11   34  -0.211  -0.200  -0.076
    1UNL    H12   35   0.014  -0.152   0.140
    1UNL    H13   36   0.023  -0.267   0.023
    1UNL    H14   37  -0.209  -0.264   0.188
    1UNL    H15   38  -0.097  -0.085  -0.233
    1UNL    H16   39   0.133  -0.027  -0.242
    1UNL    H17   40   0.120  -0.174  -0.152
    1UNL    H18   41   0.156   0.213   0.201
    1UNL    H19   42   0.429   0.181   0.272
    1UNL    H20   43   0.624   0.040   0.221
    1UNL    H21   44   0.603  -0.227  -0.011
    1UNL    H22   45   0.399  -0.151  -0.104
   0.00000   0.00000   0.00000   0.00000   0.00000   0.00000   0.00000   0.00000   0.00000
Generated with MDTraj, t= 74.0
 45
    1UNL     C1    1  -0.551   0.089  -0.116
    1UNL     C2    2  -0.449   0.041  -0.029
    1UNL     C3    3  -0.312   0.049  -0.045
    1UNL     C4    4  -0.242   0.128  -0.153
    1UNL     N1    5  -0.093   0.103  -0.138
    1UNL     C5    6  -0.039   0.149  -0.003
    1UNL     C6    7  -0.115   0.081   0.117
    1UNL     C7    8  -0.211  -0.019   0.050
    1UNL     C8    9  -0.132  -0.119  -0.032
    1UNL     C9   10  -0.048  -0.214   0.053
    1UNL     O1   11  -0.121  -0.267   0.173
    1UNL    C10   12  -0.052  -0.038  -0.151
    1UNL    C11   13   0.100  -0.066  -0.159
    1UNL    C12   14   0.171   0.010  -0.045
    1UNL    C13   15   0.105   0.113   0.024
    1UNL     N2   16   0.186   0.171   0.118
    1UNL    C14   17   0.298   0.094   0.128
    1UNL    C15   18   0.418   0.101   0.202
    1UNL    C16   19   0.525   0.024   0.161
    1UNL    C17   20   0.515  -0.072   0.059
    1UNL     O2   21   0.634  -0.134   0.012
    1UNL    C18   22   0.392  -0.098   0.003
    1UNL    C19   23   0.285  -0.012   0.031
    1UNL     H1   24  -0.538   0.059  -0.221
    1UNL     H2   25  -0.635   0.041  -0.088
    1UNL     H3   26  -0.562   0.196  -0.104
    1UNL     H4   27  -0.490  -0.006   0.062
    1UNL     H5   28  -0.279   0.102  -0.248
    1UNL     H6   29  -0.250   0.241  -0.138
    1UNL     H7   30  -0.059   0.251   0.013
    1UNL     H8   31  -0.042   0.034   0.187
    1UNL     H9   32  -0.167   0.151   0.181
    1UNL    H10   33  -0.270  -0.077   0.129
    1UNL    H11   34  -0.211  -0.180  -0.084
    1UNL    H12   35   0.039  -0.160   0.098
    1UNL    H13   36   0.013  -0.283   0.000
    1UNL    H14   37  -0.119  -0.362   0.193
    1UNL    H15   38  -0.092  -0.060  -0.256
    1UNL    H16   39   0.127  -0.035  -0.259
    1UNL    H17   40   0.125  -0.176  -0.170
    1UNL    H18   41   0.156   0.237   0.191
    1UNL    H19   42   0.434   0.177   0.277
    1UNL    H20   43   0.627   0.045   0.202
    1UNL    H21   44   0.614  -0.220  -0.025
    1UNL    H22   45   0.383  -0.179  -0.064
   0.00000   0.00000   0.00000   0.00000   0.00000   0.00000   0.00000   0.00000   0.00000
Generated with MDTraj, t= 75.0
 45
    1UNL     C1    1  -0.531   0.122  -0.136
    1UNL     C2    2  -0.455   0.029  -0.051
    1UNL     C3    3  -0.321   0.041  -0.044
    1UNL     C4    4  -0.238   0.125  -0.142
    1UNL     N1    5  -0.090   0.102  -0.122
    1UNL     C5    6  -0.052   0.150   0.017
    1UNL     C6    7  -0.145   0.073   0.124
    1UNL     C7    8  -0.228  -0.040   0.049
    1UNL     C8    9  -0.134  -0.138  -0.021
    1UNL     C9   10  -0.031  -0.212   0.069
    1UNL     O1   11  -0.095  -0.266   0.181
    1UNL    C10   12  -0.055  -0.041  -0.136
    1UNL    C11   13   0.100  -0.055  -0.153
    1UNL    C12   14   0.164   0.023  -0.050
    1UNL    C13   15   0.096   0.110   0.033
    1UNL     N2   16   0.181   0.153   0.133
    1UNL    C14   17   0.309   0.107   0.098
    1UNL    C15   18   0.421   0.106   0.184
    1UNL    C16   19   0.522   0.019   0.166
    1UNL    C17   20   0.521  -0.071   0.053
    1UNL     O2   21   0.613  -0.170   0.035
    1UNL    C18   22   0.416  -0.067  -0.037
    1UNL    C19   23   0.299   0.016  -0.006
    1UNL     H1   24  -0.498   0.129  -0.241
    1UNL     H2   25  -0.629   0.084  -0.145
    1UNL     H3   26  -0.532   0.220  -0.096
    1UNL     H4   27  -0.502  -0.047   0.009
    1UNL     H5   28  -0.251   0.085  -0.239
    1UNL     H6   29  -0.254   0.237  -0.139
    1UNL     H7   30  -0.058   0.256   0.028
    1UNL     H8   31  -0.078   0.030   0.199
    1UNL     H9   32  -0.204   0.147   0.179
    1UNL    H10   33  -0.279  -0.089   0.138
    1UNL    H11   34  -0.195  -0.224  -0.061
    1UNL    H12   35   0.063  -0.156   0.090
    1UNL    H13   36   0.015  -0.289   0.015
    1UNL    H14   37  -0.163  -0.203   0.218
    1UNL    H15   38  -0.094  -0.090  -0.232
    1UNL    H16   39   0.141  -0.021  -0.248
    1UNL    H17   40   0.131  -0.162  -0.155
    1UNL    H18   41   0.163   0.231   0.205
    1UNL    H19   42   0.414   0.171   0.270
    1UNL    H20   43   0.601   0.019   0.229
    1UNL    H21   44   0.567  -0.240  -0.022
    1UNL    H22   45   0.409  -0.139  -0.114
   0.00000   0.00000   0.00000   0.00000   0.00000   0.00000   0.00000   0.00000   0.00000
Generated with MDTraj, t= 76.0
 45
    1UNL     C1    1  -0.531   0.106  -0.145
    1UNL     C2    2  -0.449   0.033  -0.040
    1UNL     C3    3  -0.313   0.027  -0.048
    1UNL     C4    4  -0.242   0.112  -0.155
    1UNL     N1    5  -0.094   0.108  -0.126
    1UNL     C5    6  -0.047   0.157   0.021
    1UNL     C6    7  -0.140   0.091   0.127
    1UNL     C7    8  -0.217  -0.023   0.062
    1UNL     C8    9  -0.129  -0.125  -0.024
    1UNL     C9   10  -0.029  -0.214   0.057
    1UNL     O1   11  -0.091  -0.277   0.159
    1UNL    C10   12  -0.059  -0.042  -0.143
    1UNL    C11   13   0.091  -0.062  -0.145
    1UNL    C12   14   0.158   0.014  -0.034
    1UNL    C13   15   0.095   0.114   0.037
    1UNL     N2   16   0.183   0.174   0.127
    1UNL    C14   17   0.307   0.107   0.117
    1UNL    C15   18   0.433   0.111   0.186
    1UNL    C16   19   0.525   0.011   0.161
    1UNL    C17   20   0.510  -0.082   0.057
    1UNL     O2   21   0.618  -0.159   0.015
    1UNL    C18   22   0.392  -0.085  -0.011
    1UNL    C19   23   0.288   0.003   0.020
    1UNL     H1   24  -0.529   0.062  -0.243
    1UNL     H2   25  -0.638   0.096  -0.114
    1UNL     H3   26  -0.509   0.206  -0.155
    1UNL     H4   27  -0.496  -0.004   0.050
    1UNL     H5   28  -0.257   0.073  -0.255
    1UNL     H6   29  -0.273   0.219  -0.151
    1UNL     H7   30  -0.047   0.264   0.027
    1UNL     H8   31  -0.069   0.060   0.203
    1UNL     H9   32  -0.214   0.166   0.160
    1UNL    H10   33  -0.284  -0.074   0.138
    1UNL    H11   34  -0.205  -0.190  -0.071
    1UNL    H12   35   0.043  -0.139   0.092
    1UNL    H13   36   0.029  -0.274  -0.005
    1UNL    H14   37  -0.126  -0.211   0.226
    1UNL    H15   38  -0.103  -0.051  -0.250
    1UNL    H16   39   0.137  -0.028  -0.238
    1UNL    H17   40   0.128  -0.166  -0.145
    1UNL    H18   41   0.166   0.265   0.186
    1UNL    H19   42   0.465   0.199   0.237
    1UNL    H20   43   0.630   0.019   0.204
    1UNL    H21   44   0.587  -0.224  -0.059
    1UNL    H22   45   0.394  -0.151  -0.103
   0.00000   0.00000   0.00000   0.00000   0.00000   0.00000   0.00000   0.00000   0.00000
Generated with MDTraj, t= 77.0
 45
    1UNL     C1    1  -0.541   0.073  -0.125
    1UNL     C2    2  -0.441   0.022  -0.025
    1UNL     C3    3  -0.311   0.057  -0.034
    1UNL     C4    4  -0.237   0.138  -0.144
    1UNL     N1    5  -0.088   0.110  -0.133
    1UNL     C5    6  -0.038   0.155   0.006
    1UNL     C6    7  -0.125   0.093   0.126
    1UNL     C7    8  -0.219  -0.012   0.059
    1UNL     C8    9  -0.134  -0.120  -0.034
    1UNL     C9   10  -0.052  -0.209   0.064
    1UNL     O1   11  -0.139  -0.281   0.140
    1UNL    C10   12  -0.060  -0.036  -0.139
    1UNL    C11   13   0.092  -0.073  -0.146
    1UNL    C12   14   0.164   0.004  -0.046
    1UNL    C13   15   0.109   0.113   0.021
    1UNL     N2   16   0.186   0.155   0.122
    1UNL    C14   17   0.308   0.091   0.107
    1UNL    C15   18   0.421   0.113   0.190
    1UNL    C16   19   0.527   0.029   0.163
    1UNL    C17   20   0.520  -0.065   0.058
    1UNL     O2   21   0.630  -0.142   0.033
    1UNL    C18   22   0.408  -0.089  -0.016
    1UNL    C19   23   0.298  -0.013   0.011
    1UNL     H1   24  -0.557   0.007  -0.205
    1UNL     H2   25  -0.640   0.083  -0.072
    1UNL     H3   26  -0.515   0.166  -0.164
    1UNL     H4   27  -0.466  -0.050   0.050
    1UNL     H5   28  -0.272   0.103  -0.243
    1UNL     H6   29  -0.243   0.247  -0.140
    1UNL     H7   30  -0.058   0.262  -0.008
    1UNL     H8   31  -0.057   0.047   0.195
    1UNL     H9   32  -0.186   0.176   0.168
    1UNL    H10   33  -0.280  -0.076   0.128
    1UNL    H11   34  -0.207  -0.184  -0.085
    1UNL    H12   35   0.018  -0.148   0.123
    1UNL    H13   36   0.009  -0.272   0.010
    1UNL    H14   37  -0.188  -0.228   0.207
    1UNL    H15   38  -0.110  -0.058  -0.240
    1UNL    H16   39   0.142  -0.049  -0.242
    1UNL    H17   40   0.109  -0.179  -0.133
    1UNL    H18   41   0.165   0.216   0.211
    1UNL    H19   42   0.428   0.200   0.259
    1UNL    H20   43   0.612   0.030   0.226
    1UNL    H21   44   0.600  -0.211  -0.038
    1UNL    H22   45   0.414  -0.155  -0.094
   0.00000   0.00000   0.00000   0.00000   0.00000   0.00000   0.00000   0.00000   0.00000
Generated with MDTraj, t= 78.0
 45
    1UNL     C1    1  -0.534   0.109  -0.149
    1UNL     C2    2  -0.453   0.044  -0.037
    1UNL     C3    3  -0.319   0.048  -0.037
    1UNL     C4    4  -0.235   0.119  -0.142
    1UNL     N1    5  -0.085   0.098  -0.123
    1UNL     C5    6  -0.041   0.148   0.011
    1UNL     C6    7  -0.120   0.072   0.124
    1UNL     C7    8  -0.229  -0.022   0.057
    1UNL     C8    9  -0.144  -0.130  -0.027
    1UNL     C9   10  -0.066  -0.226   0.064
    1UNL     O1   11  -0.136  -0.311   0.155
    1UNL    C10   12  -0.063  -0.047  -0.134
    1UNL    C11   13   0.095  -0.077  -0.126
    1UNL    C12   14   0.171   0.027  -0.047
    1UNL    C13   15   0.103   0.123   0.025
    1UNL     N2   16   0.190   0.181   0.118
    1UNL    C14   17   0.315   0.112   0.110
    1UNL    C15   18   0.430   0.110   0.191
    1UNL    C16   19   0.535   0.029   0.158
    1UNL    C17   20   0.525  -0.066   0.051
    1UNL     O2   21   0.630  -0.158   0.024
    1UNL    C18   22   0.405  -0.074  -0.018
    1UNL    C19   23   0.303   0.018   0.004
    1UNL     H1   24  -0.523   0.062  -0.240
    1UNL     H2   25  -0.642   0.107  -0.124
    1UNL     H3   26  -0.507   0.213  -0.168
    1UNL     H4   27  -0.501  -0.006   0.045
    1UNL     H5   28  -0.251   0.084  -0.249
    1UNL     H6   29  -0.256   0.224  -0.143
    1UNL     H7   30  -0.068   0.253   0.030
    1UNL     H8   31  -0.051   0.021   0.186
    1UNL     H9   32  -0.171   0.151   0.184
    1UNL    H10   33  -0.281  -0.076   0.139
    1UNL    H11   34  -0.219  -0.190  -0.076
    1UNL    H12   35   0.004  -0.169   0.127
    1UNL    H13   36   0.001  -0.290   0.015
    1UNL    H14   37  -0.175  -0.256   0.225
    1UNL    H15   38  -0.110  -0.084  -0.230
    1UNL    H16   39   0.137  -0.078  -0.229
    1UNL    H17   40   0.132  -0.164  -0.075
    1UNL    H18   41   0.162   0.249   0.195
    1UNL    H19   42   0.434   0.182   0.268
    1UNL    H20   43   0.626   0.044   0.211
    1UNL    H21   44   0.599  -0.224  -0.046
    1UNL    H22   45   0.391  -0.157  -0.089
   0.00000   0.00000   0.00000   0.00000   0.00000   0.00000   0.00000   0.00000   0.00000
Generated with MDTraj, t= 79.0
 45
    1UNL     C1    1  -0.519   0.151  -0.131
    1UNL     C2    2  -0.450   0.050  -0.045
    1UNL     C3    3  -0.316   0.043  -0.054
    1UNL     C4    4  -0.236   0.119  -0.157
    1UNL     N1    5  -0.091   0.093  -0.118
    1UNL     C5    6  -0.052   0.136   0.016
    1UNL     C6    7  -0.145   0.068   0.120
    1UNL     C7    8  -0.234  -0.039   0.039
    1UNL     C8    9  -0.139  -0.138  -0.033
    1UNL     C9   10  -0.059  -0.222   0.063
    1UNL     O1   11  -0.136  -0.300   0.158
    1UNL    C10   12  -0.057  -0.055  -0.136
    1UNL    C11   13   0.099  -0.072  -0.127
    1UNL    C12   14   0.162   0.008  -0.019
    1UNL    C13   15   0.093   0.103   0.045
    1UNL     N2   16   0.184   0.165   0.125
    1UNL    C14   17   0.314   0.105   0.116
    1UNL    C15   18   0.442   0.131   0.167
    1UNL    C16   19   0.547   0.060   0.123
    1UNL    C17   20   0.527  -0.062   0.048
    1UNL     O2   21   0.637  -0.147   0.021
    1UNL    C18   22   0.400  -0.091   0.004
    1UNL    C19   23   0.296   0.001   0.030
    1UNL     H1   24  -0.491   0.151  -0.234
    1UNL     H2   25  -0.623   0.132  -0.131
    1UNL     H3   26  -0.507   0.256  -0.095
    1UNL     H4   27  -0.506   0.005   0.038
    1UNL     H5   28  -0.263   0.089  -0.264
    1UNL     H6   29  -0.255   0.224  -0.155
    1UNL     H7   30  -0.071   0.244   0.030
    1UNL     H8   31  -0.080   0.028   0.193
    1UNL     H9   32  -0.210   0.144   0.168
    1UNL    H10   33  -0.299  -0.082   0.117
    1UNL    H11   34  -0.202  -0.201  -0.094
    1UNL    H12   35   0.026  -0.175   0.117
    1UNL    H13   36  -0.009  -0.293   0.006
    1UNL    H14   37  -0.139  -0.247   0.240
    1UNL    H15   38  -0.089  -0.089  -0.237
    1UNL    H16   39   0.155  -0.040  -0.220
    1UNL    H17   40   0.125  -0.172  -0.104
    1UNL    H18   41   0.171   0.257   0.165
    1UNL    H19   42   0.451   0.220   0.232
    1UNL    H20   43   0.653   0.088   0.146
    1UNL    H21   44   0.598  -0.228  -0.018
    1UNL    H22   45   0.375  -0.192  -0.030
   0.00000   0.00000   0.00000   0.00000   0.00000   0.00000   0.00000   0.00000   0.00000
Generated with MDTraj, t= 80.0
 45
    1UNL     C1    1  -0.520   0.152  -0.131
    1UNL     C2    2  -0.436   0.070  -0.039
    1UNL     C3    3  -0.305   0.057  -0.051
    1UNL     C4    4  -0.215   0.126  -0.144
    1UNL     N1    5  -0.079   0.086  -0.117
    1UNL     C5    6  -0.046   0.121   0.021
    1UNL     C6    7  -0.143   0.064   0.122
    1UNL     C7    8  -0.235  -0.036   0.046
    1UNL     C8    9  -0.151  -0.138  -0.033
    1UNL     C9   10  -0.075  -0.234   0.059
    1UNL     O1   11  -0.152  -0.288   0.165
    1UNL    C10   12  -0.061  -0.062  -0.134
    1UNL    C11   13   0.082  -0.093  -0.131
    1UNL    C12   14   0.160  -0.017  -0.024
    1UNL    C13   15   0.093   0.088   0.041
    1UNL     N2   16   0.183   0.154   0.116
    1UNL    C14   17   0.305   0.102   0.103
    1UNL    C15   18   0.428   0.137   0.167
    1UNL    C16   19   0.539   0.061   0.142
    1UNL    C17   20   0.538  -0.046   0.045
    1UNL     O2   21   0.653  -0.118   0.029
    1UNL    C18   22   0.417  -0.080  -0.013
    1UNL    C19   23   0.299  -0.011   0.019
    1UNL     H1   24  -0.499   0.136  -0.240
    1UNL     H2   25  -0.615   0.118  -0.117
    1UNL     H3   26  -0.523   0.260  -0.110
    1UNL     H4   27  -0.488   0.030   0.045
    1UNL     H5   28  -0.252   0.118  -0.253
    1UNL     H6   29  -0.232   0.229  -0.126
    1UNL     H7   30  -0.065   0.231   0.015
    1UNL     H8   31  -0.089   0.009   0.194
    1UNL     H9   32  -0.189   0.155   0.166
    1UNL    H10   33  -0.304  -0.098   0.107
    1UNL    H11   34  -0.218  -0.198  -0.092
    1UNL    H12   35   0.010  -0.173   0.100
    1UNL    H13   36  -0.026  -0.317   0.018
    1UNL    H14   37  -0.221  -0.231   0.211
    1UNL    H15   38  -0.095  -0.073  -0.237
    1UNL    H16   39   0.126  -0.065  -0.231
    1UNL    H17   40   0.090  -0.198  -0.109
    1UNL    H18   41   0.164   0.226   0.180
    1UNL    H19   42   0.423   0.216   0.239
    1UNL    H20   43   0.626   0.087   0.190
    1UNL    H21   44   0.639  -0.185  -0.036
    1UNL    H22   45   0.409  -0.163  -0.075
   0.00000   0.00000   0.00000   0.00000   0.00000   0.00000   0.00000   0.00000   0.00000
Generated with MDTraj, t= 81.0
 45
    1UNL     C1    1  -0.514   0.146  -0.137
    1UNL     C2    2  -0.437   0.070  -0.037
    1UNL     C3    3  -0.309   0.041  -0.059
    1UNL     C4    4  -0.218   0.102  -0.165
    1UNL     N1    5  -0.081   0.074  -0.117
    1UNL     C5    6  -0.043   0.132   0.015
    1UNL     C6    7  -0.141   0.073   0.119
    1UNL     C7    8  -0.234  -0.027   0.045
    1UNL     C8    9  -0.153  -0.135  -0.023
    1UNL     C9   10  -0.094  -0.245   0.073
    1UNL     O1   11  -0.190  -0.300   0.158
    1UNL    C10   12  -0.053  -0.074  -0.130
    1UNL    C11   13   0.094  -0.092  -0.106
    1UNL    C12   14   0.162   0.011  -0.020
    1UNL    C13   15   0.103   0.113   0.042
    1UNL     N2   16   0.193   0.178   0.124
    1UNL    C14   17   0.316   0.108   0.120
    1UNL    C15   18   0.437   0.118   0.188
    1UNL    C16   19   0.542   0.039   0.153
    1UNL    C17   20   0.532  -0.051   0.041
    1UNL     O2   21   0.648  -0.117  -0.006
    1UNL    C18   22   0.411  -0.060  -0.028
    1UNL    C19   23   0.303   0.011   0.020
    1UNL     H1   24  -0.513   0.089  -0.235
    1UNL     H2   25  -0.613   0.150  -0.106
    1UNL     H3   26  -0.484   0.248  -0.158
    1UNL     H4   27  -0.483   0.064   0.063
    1UNL     H5   28  -0.237   0.063  -0.271
    1UNL     H6   29  -0.240   0.205  -0.171
    1UNL     H7   30  -0.049   0.245   0.007
    1UNL     H8   31  -0.075   0.036   0.194
    1UNL     H9   32  -0.206   0.155   0.155
    1UNL    H10   33  -0.309  -0.078   0.108
    1UNL    H11   34  -0.221  -0.205  -0.072
    1UNL    H12   35  -0.004  -0.218   0.138
    1UNL    H13   36  -0.048  -0.317   0.013
    1UNL    H14   37  -0.144  -0.355   0.228
    1UNL    H15   38  -0.073  -0.119  -0.225
    1UNL    H16   39   0.140  -0.080  -0.208
    1UNL    H17   40   0.101  -0.193  -0.068
    1UNL    H18   41   0.175   0.236   0.198
    1UNL    H19   42   0.456   0.202   0.253
    1UNL    H20   43   0.642   0.049   0.203
    1UNL    H21   44   0.631  -0.161  -0.086
    1UNL    H22   45   0.413  -0.118  -0.124
   0.00000   0.00000   0.00000   0.00000   0.00000   0.00000   0.00000   0.00000   0.00000
Generated with MDTraj, t= 82.0
 45
    1UNL     C1    1  -0.515   0.143  -0.151
    1UNL     C2    2  -0.449   0.053  -0.047
    1UNL     C3    3  -0.317   0.057  -0.044
    1UNL     C4    4  -0.225   0.122  -0.144
    1UNL     N1    5  -0.089   0.086  -0.115
    1UNL     C5    6  -0.044   0.136   0.013
    1UNL     C6    7  -0.141   0.074   0.121
    1UNL     C7    8  -0.234  -0.028   0.051
    1UNL     C8    9  -0.157  -0.135  -0.026
    1UNL     C9   10  -0.089  -0.237   0.074
    1UNL     O1   11  -0.176  -0.307   0.156
    1UNL    C10   12  -0.062  -0.061  -0.134
    1UNL    C11   13   0.090  -0.085  -0.127
    1UNL    C12   14   0.165  -0.011  -0.016
    1UNL    C13   15   0.103   0.098   0.037
    1UNL     N2   16   0.191   0.157   0.132
    1UNL    C14   17   0.317   0.097   0.121
    1UNL    C15   18   0.444   0.135   0.167
    1UNL    C16   19   0.554   0.066   0.121
    1UNL    C17   20   0.544  -0.045   0.043
    1UNL     O2   21   0.657  -0.113   0.018
    1UNL    C18   22   0.414  -0.089  -0.004
    1UNL    C19   23   0.303  -0.011   0.030
    1UNL     H1   24  -0.534   0.084  -0.243
    1UNL     H2   25  -0.615   0.173  -0.111
    1UNL     H3   26  -0.466   0.230  -0.184
    1UNL     H4   27  -0.495  -0.005   0.030
    1UNL     H5   28  -0.247   0.089  -0.250
    1UNL     H6   29  -0.236   0.229  -0.148
    1UNL     H7   30  -0.052   0.250   0.017
    1UNL     H8   31  -0.087   0.033   0.203
    1UNL     H9   32  -0.191   0.165   0.159
    1UNL    H10   33  -0.301  -0.073   0.123
    1UNL    H11   34  -0.236  -0.194  -0.075
    1UNL    H12   35  -0.002  -0.187   0.129
    1UNL    H13   36  -0.035  -0.309   0.021
    1UNL    H14   37  -0.257  -0.256   0.147
    1UNL    H15   38  -0.099  -0.089  -0.228
    1UNL    H16   39   0.132  -0.056  -0.225
    1UNL    H17   40   0.112  -0.191  -0.103
    1UNL    H18   41   0.180   0.247   0.162
    1UNL    H19   42   0.449   0.222   0.234
    1UNL    H20   43   0.654   0.095   0.147
    1UNL    H21   44   0.634  -0.193  -0.031
    1UNL    H22   45   0.408  -0.166  -0.077
   0.00000   0.00000   0.00000   0.00000   0.00000   0.00000   0.00000   0.00000   0.00000
Generated with MDTraj, t= 83.0
 45
    1UNL     C1    1  -0.520   0.130  -0.162
    1UNL     C2    2  -0.446   0.054  -0.056
    1UNL     C3    3  -0.315   0.049  -0.045
    1UNL     C4    4  -0.220   0.129  -0.137
    1UNL     N1    5  -0.077   0.093  -0.114
    1UNL     C5    6  -0.041   0.128   0.028
    1UNL     C6    7  -0.137   0.054   0.130
    1UNL     C7    8  -0.238  -0.034   0.049
    1UNL     C8    9  -0.155  -0.132  -0.041
    1UNL     C9   10  -0.084  -0.231   0.059
    1UNL     O1   11  -0.166  -0.293   0.163
    1UNL    C10   12  -0.057  -0.054  -0.134
    1UNL    C11   13   0.092  -0.083  -0.110
    1UNL    C12   14   0.163  -0.004  -0.010
    1UNL    C13   15   0.101   0.097   0.061
    1UNL     N2   16   0.186   0.178   0.124
    1UNL    C14   17   0.311   0.117   0.104
    1UNL    C15   18   0.446   0.144   0.156
    1UNL    C16   19   0.549   0.064   0.118
    1UNL    C17   20   0.531  -0.057   0.041
    1UNL     O2   21   0.640  -0.143   0.023
    1UNL    C18   22   0.409  -0.088  -0.009
    1UNL    C19   23   0.302  -0.001   0.023
    1UNL     H1   24  -0.484   0.099  -0.259
    1UNL     H2   25  -0.630   0.092  -0.148
    1UNL     H3   26  -0.521   0.236  -0.158
    1UNL     H4   27  -0.496   0.007   0.030
    1UNL     H5   28  -0.245   0.123  -0.245
    1UNL     H6   29  -0.233   0.237  -0.119
    1UNL     H7   30  -0.069   0.239   0.036
    1UNL     H8   31  -0.076  -0.004   0.199
    1UNL     H9   32  -0.185   0.120   0.201
    1UNL    H10   33  -0.310  -0.084   0.115
    1UNL    H11   34  -0.224  -0.184  -0.107
    1UNL    H12   35  -0.007  -0.170   0.121
    1UNL    H13   36  -0.026  -0.302   0.010
    1UNL    H14   37  -0.121  -0.357   0.226
    1UNL    H15   38  -0.085  -0.068  -0.234
    1UNL    H16   39   0.154  -0.068  -0.200
    1UNL    H17   40   0.103  -0.196  -0.098
    1UNL    H18   41   0.174   0.269   0.163
    1UNL    H19   42   0.465   0.221   0.224
    1UNL    H20   43   0.646   0.082   0.155
    1UNL    H21   44   0.622  -0.219  -0.041
    1UNL    H22   45   0.394  -0.178  -0.064
   0.00000   0.00000   0.00000   0.00000   0.00000   0.00000   0.00000   0.00000   0.00000
Generated with MDTraj, t= 84.0
 45
    1UNL     C1    1  -0.526   0.118  -0.151
    1UNL     C2    2  -0.446   0.041  -0.051
    1UNL     C3    3  -0.315   0.056  -0.046
    1UNL     C4    4  -0.225   0.127  -0.151
    1UNL     N1    5  -0.081   0.092  -0.118
    1UNL     C5    6  -0.047   0.142   0.022
    1UNL     C6    7  -0.135   0.067   0.125
    1UNL     C7    8  -0.228  -0.023   0.048
    1UNL     C8    9  -0.147  -0.139  -0.032
    1UNL     C9   10  -0.060  -0.226   0.074
    1UNL     O1   11  -0.159  -0.289   0.161
    1UNL    C10   12  -0.055  -0.061  -0.129
    1UNL    C11   13   0.098  -0.083  -0.113
    1UNL    C12   14   0.162   0.004  -0.017
    1UNL    C13   15   0.097   0.109   0.045
    1UNL     N2   16   0.190   0.176   0.124
    1UNL    C14   17   0.316   0.115   0.110
    1UNL    C15   18   0.445   0.127   0.169
    1UNL    C16   19   0.541   0.039   0.140
    1UNL    C17   20   0.524  -0.061   0.042
    1UNL     O2   21   0.628  -0.144   0.016
    1UNL    C18   22   0.407  -0.073  -0.019
    1UNL    C19   23   0.300   0.008   0.016
    1UNL     H1   24  -0.484   0.100  -0.246
    1UNL     H2   25  -0.629   0.068  -0.143
    1UNL     H3   26  -0.539   0.224  -0.134
    1UNL     H4   27  -0.488  -0.015   0.029
    1UNL     H5   28  -0.251   0.095  -0.251
    1UNL     H6   29  -0.242   0.238  -0.157
    1UNL     H7   30  -0.074   0.253   0.028
    1UNL     H8   31  -0.067   0.014   0.193
    1UNL     H9   32  -0.189   0.127   0.196
    1UNL    H10   33  -0.292  -0.076   0.118
    1UNL    H11   34  -0.209  -0.212  -0.086
    1UNL    H12   35   0.015  -0.166   0.138
    1UNL    H13   36  -0.011  -0.308   0.024
    1UNL    H14   37  -0.251  -0.302   0.125
    1UNL    H15   38  -0.090  -0.081  -0.227
    1UNL    H16   39   0.149  -0.091  -0.210
    1UNL    H17   40   0.132  -0.183  -0.068
    1UNL    H18   41   0.164   0.243   0.200
    1UNL    H19   42   0.453   0.206   0.248
    1UNL    H20   43   0.641   0.041   0.191
    1UNL    H21   44   0.607  -0.191  -0.074
    1UNL    H22   45   0.383  -0.155  -0.088
   0.00000   0.00000   0.00000   0.00000   0.00000   0.00000   0.00000   0.00000   0.00000
Generated with MDTraj, t= 85.0
 45
    1UNL     C1    1  -0.535   0.112  -0.137
    1UNL     C2    2  -0.453   0.038  -0.038
    1UNL     C3    3  -0.321   0.047  -0.041
    1UNL     C4    4  -0.239   0.121  -0.153
    1UNL     N1    5  -0.091   0.097  -0.136
    1UNL     C5    6  -0.040   0.151  -0.003
    1UNL     C6    7  -0.122   0.091   0.114
    1UNL     C7    8  -0.221  -0.015   0.069
    1UNL     C8    9  -0.143  -0.122  -0.022
    1UNL     C9   10  -0.056  -0.213   0.075
    1UNL     O1   11  -0.145  -0.280   0.163
    1UNL    C10   12  -0.073  -0.051  -0.142
    1UNL    C11   13   0.085  -0.076  -0.140
    1UNL    C12   14   0.165  -0.000  -0.042
    1UNL    C13   15   0.104   0.107   0.019
    1UNL     N2   16   0.179   0.151   0.130
    1UNL    C14   17   0.307   0.081   0.123
    1UNL    C15   18   0.429   0.113   0.186
    1UNL    C16   19   0.535   0.034   0.159
    1UNL    C17   20   0.532  -0.060   0.057
    1UNL     O2   21   0.658  -0.122   0.025
    1UNL    C18   22   0.414  -0.087  -0.017
    1UNL    C19   23   0.298  -0.011   0.020
    1UNL     H1   24  -0.531   0.061  -0.231
    1UNL     H2   25  -0.638   0.104  -0.098
    1UNL     H3   26  -0.514   0.222  -0.156
    1UNL     H4   27  -0.495  -0.001   0.055
    1UNL     H5   28  -0.271   0.085  -0.247
    1UNL     H6   29  -0.267   0.232  -0.161
    1UNL     H7   30  -0.037   0.265  -0.012
    1UNL     H8   31  -0.055   0.053   0.194
    1UNL     H9   32  -0.162   0.177   0.161
    1UNL    H10   33  -0.277  -0.060   0.150
    1UNL    H11   34  -0.219  -0.184  -0.066
    1UNL    H12   35   0.007  -0.138   0.140
    1UNL    H13   36   0.005  -0.288   0.021
    1UNL    H14   37  -0.178  -0.351   0.106
    1UNL    H15   38  -0.116  -0.100  -0.227
    1UNL    H16   39   0.135  -0.052  -0.235
    1UNL    H17   40   0.111  -0.188  -0.133
    1UNL    H18   41   0.147   0.230   0.198
    1UNL    H19   42   0.430   0.195   0.250
    1UNL    H20   43   0.629   0.046   0.201
    1UNL    H21   44   0.652  -0.167  -0.068
    1UNL    H22   45   0.417  -0.154  -0.097
   0.00000   0.00000   0.00000   0.00000   0.00000   0.00000   0.00000   0.00000   0.00000
Generated with MDTraj, t= 86.0
 45
    1UNL     C1    1  -0.542   0.122  -0.131
    1UNL     C2    2  -0.451   0.044  -0.038
    1UNL     C3    3  -0.318   0.039  -0.047
    1UNL     C4    4  -0.235   0.103  -0.165
    1UNL     N1    5  -0.094   0.094  -0.138
    1UNL     C5    6  -0.048   0.147   0.003
    1UNL     C6    7  -0.126   0.073   0.117
    1UNL     C7    8  -0.221  -0.029   0.047
    1UNL     C8    9  -0.138  -0.135  -0.032
    1UNL     C9   10  -0.045  -0.216   0.068
    1UNL     O1   11  -0.106  -0.252   0.185
    1UNL    C10   12  -0.056  -0.051  -0.139
    1UNL    C11   13   0.096  -0.063  -0.139
    1UNL    C12   14   0.163   0.022  -0.037
    1UNL    C13   15   0.100   0.126   0.027
    1UNL     N2   16   0.180   0.158   0.138
    1UNL    C14   17   0.305   0.096   0.120
    1UNL    C15   18   0.423   0.109   0.194
    1UNL    C16   19   0.522   0.015   0.166
    1UNL    C17   20   0.518  -0.073   0.055
    1UNL     O2   21   0.632  -0.146   0.019
    1UNL    C18   22   0.404  -0.074  -0.023
    1UNL    C19   23   0.297   0.003   0.012
    1UNL     H1   24  -0.572   0.058  -0.215
    1UNL     H2   25  -0.627   0.156  -0.078
    1UNL     H3   26  -0.496   0.216  -0.179
    1UNL     H4   27  -0.498   0.010   0.051
    1UNL     H5   28  -0.259   0.068  -0.262
    1UNL     H6   29  -0.267   0.213  -0.177
    1UNL     H7   30  -0.084   0.254   0.006
    1UNL     H8   31  -0.050   0.027   0.184
    1UNL     H9   32  -0.181   0.136   0.182
    1UNL    H10   33  -0.283  -0.080   0.117
    1UNL    H11   34  -0.202  -0.205  -0.086
    1UNL    H12   35   0.035  -0.141   0.105
    1UNL    H13   36  -0.003  -0.307   0.019
    1UNL    H14   37  -0.148  -0.342   0.178
    1UNL    H15   38  -0.091  -0.073  -0.241
    1UNL    H16   39   0.132  -0.041  -0.240
    1UNL    H17   40   0.125  -0.172  -0.123
    1UNL    H18   41   0.174   0.250   0.198
    1UNL    H19   42   0.440   0.182   0.271
    1UNL    H20   43   0.607   0.013   0.236
    1UNL    H21   44   0.632  -0.180  -0.075
    1UNL    H22   45   0.397  -0.137  -0.113
   0.00000   0.00000   0.00000   0.00000   0.00000   0.00000   0.00000   0.00000   0.00000
Generated with MDTraj, t= 87.0
 45
    1UNL     C1    1  -0.535   0.120  -0.127
    1UNL     C2    2  -0.446   0.023  -0.044
    1UNL     C3    3  -0.316   0.046  -0.048
    1UNL     C4    4  -0.235   0.131  -0.148
    1UNL     N1    5  -0.092   0.107  -0.129
    1UNL     C5    6  -0.046   0.142   0.014
    1UNL     C6    7  -0.131   0.064   0.121
    1UNL     C7    8  -0.221  -0.038   0.041
    1UNL     C8    9  -0.123  -0.131  -0.033
    1UNL     C9   10  -0.028  -0.203   0.068
    1UNL     O1   11  -0.086  -0.251   0.190
    1UNL    C10   12  -0.053  -0.046  -0.147
    1UNL    C11   13   0.098  -0.065  -0.154
    1UNL    C12   14   0.157   0.016  -0.049
    1UNL    C13   15   0.095   0.108   0.031
    1UNL     N2   16   0.177   0.159   0.122
    1UNL    C14   17   0.301   0.107   0.110
    1UNL    C15   18   0.422   0.116   0.179
    1UNL    C16   19   0.518   0.017   0.159
    1UNL    C17   20   0.507  -0.078   0.056
    1UNL     O2   21   0.612  -0.164   0.050
    1UNL    C18   22   0.395  -0.076  -0.025
    1UNL    C19   23   0.289   0.011   0.006
    1UNL     H1   24  -0.524   0.098  -0.239
    1UNL     H2   25  -0.635   0.114  -0.096
    1UNL     H3   26  -0.509   0.229  -0.116
    1UNL     H4   27  -0.487  -0.046   0.030
    1UNL     H5   28  -0.265   0.101  -0.245
    1UNL     H6   29  -0.253   0.244  -0.155
    1UNL     H7   30  -0.064   0.251   0.035
    1UNL     H8   31  -0.066   0.015   0.197
    1UNL     H9   32  -0.189   0.134   0.176
    1UNL    H10   33  -0.271  -0.101   0.113
    1UNL    H11   34  -0.180  -0.214  -0.074
    1UNL    H12   35   0.048  -0.129   0.111
    1UNL    H13   36   0.023  -0.295   0.027
    1UNL    H14   37  -0.125  -0.344   0.190
    1UNL    H15   38  -0.096  -0.074  -0.246
    1UNL    H16   39   0.129  -0.020  -0.249
    1UNL    H17   40   0.117  -0.177  -0.154
    1UNL    H18   41   0.149   0.226   0.202
    1UNL    H19   42   0.431   0.194   0.258
    1UNL    H20   43   0.609   0.013   0.219
    1UNL    H21   44   0.616  -0.205  -0.036
    1UNL    H22   45   0.387  -0.141  -0.111
   0.00000   0.00000   0.00000   0.00000   0.00000   0.00000   0.00000   0.00000   0.00000
Generated with MDTraj, t= 88.0
 45
    1UNL     C1    1  -0.553   0.078  -0.124
    1UNL     C2    2  -0.445   0.029  -0.025
    1UNL     C3    3  -0.313   0.043  -0.042
    1UNL     C4    4  -0.243   0.120  -0.154
    1UNL     N1    5  -0.094   0.105  -0.133
    1UNL     C5    6  -0.042   0.152   0.000
    1UNL     C6    7  -0.118   0.091   0.113
    1UNL     C7    8  -0.212  -0.020   0.059
    1UNL     C8    9  -0.129  -0.118  -0.025
    1UNL     C9   10  -0.036  -0.198   0.058
    1UNL     O1   11  -0.101  -0.285   0.159
    1UNL    C10   12  -0.056  -0.035  -0.145
    1UNL    C11   13   0.095  -0.053  -0.152
    1UNL    C12   14   0.161   0.018  -0.036
    1UNL    C13   15   0.096   0.122   0.026
    1UNL     N2   16   0.189   0.179   0.113
    1UNL    C14   17   0.306   0.102   0.106
    1UNL    C15   18   0.421   0.108   0.184
    1UNL    C16   19   0.521   0.022   0.164
    1UNL    C17   20   0.513  -0.081   0.068
    1UNL     O2   21   0.622  -0.171   0.046
    1UNL    C18   22   0.397  -0.095  -0.009
    1UNL    C19   23   0.290   0.002   0.012
    1UNL     H1   24  -0.508   0.119  -0.223
    1UNL     H2   25  -0.620  -0.004  -0.148
    1UNL     H3   26  -0.625   0.153  -0.088
    1UNL     H4   27  -0.483   0.002   0.071
    1UNL     H5   28  -0.273   0.087  -0.252
    1UNL     H6   29  -0.275   0.228  -0.153
    1UNL     H7   30  -0.040   0.263   0.012
    1UNL     H8   31  -0.045   0.056   0.188
    1UNL     H9   32  -0.166   0.177   0.156
    1UNL    H10   33  -0.273  -0.058   0.138
    1UNL    H11   34  -0.205  -0.183  -0.068
    1UNL    H12   35   0.031  -0.132   0.120
    1UNL    H13   36   0.028  -0.265  -0.006
    1UNL    H14   37  -0.194  -0.282   0.132
    1UNL    H15   38  -0.097  -0.073  -0.243
    1UNL    H16   39   0.125  -0.004  -0.246
    1UNL    H17   40   0.117  -0.162  -0.150
    1UNL    H18   41   0.170   0.253   0.183
    1UNL    H19   42   0.429   0.177   0.258
    1UNL    H20   43   0.606   0.027   0.222
    1UNL    H21   44   0.606  -0.222  -0.030
    1UNL    H22   45   0.386  -0.169  -0.082
   0.00000   0.00000   0.00000   0.00000   0.00000   0.00000   0.00000   0.00000   0.00000
Generated with MDTraj, t= 89.0
 45
    1UNL     C1    1  -0.537   0.074  -0.128
    1UNL     C2    2  -0.437   0.020  -0.033
    1UNL     C3    3  -0.309   0.050  -0.029
    1UNL     C4    4  -0.246   0.118  -0.143
    1UNL     N1    5  -0.097   0.096  -0.128
    1UNL     C5    6  -0.040   0.160  -0.005
    1UNL     C6    7  -0.113   0.098   0.114
    1UNL     C7    8  -0.213  -0.013   0.063
    1UNL     C8    9  -0.133  -0.121  -0.017
    1UNL     C9   10  -0.047  -0.216   0.068
    1UNL     O1   11  -0.139  -0.303   0.140
    1UNL    C10   12  -0.062  -0.045  -0.130
    1UNL    C11   13   0.092  -0.057  -0.148
    1UNL    C12   14   0.168   0.029  -0.049
    1UNL    C13   15   0.109   0.140   0.004
    1UNL     N2   16   0.194   0.185   0.103
    1UNL    C14   17   0.312   0.108   0.111
    1UNL    C15   18   0.423   0.104   0.193
    1UNL    C16   19   0.528   0.017   0.171
    1UNL    C17   20   0.515  -0.078   0.060
    1UNL     O2   21   0.614  -0.171   0.047
    1UNL    C18   22   0.402  -0.076  -0.019
    1UNL    C19   23   0.299   0.016   0.010
    1UNL     H1   24  -0.512   0.179  -0.156
    1UNL     H2   25  -0.537   0.007  -0.222
    1UNL     H3   26  -0.640   0.067  -0.096
    1UNL     H4   27  -0.480  -0.041   0.046
    1UNL     H5   28  -0.284   0.073  -0.236
    1UNL     H6   29  -0.270   0.225  -0.149
    1UNL     H7   30  -0.061   0.267  -0.015
    1UNL     H8   31  -0.044   0.060   0.189
    1UNL     H9   32  -0.163   0.178   0.168
    1UNL    H10   33  -0.261  -0.063   0.144
    1UNL    H11   34  -0.193  -0.200  -0.066
    1UNL    H12   35   0.021  -0.157   0.133
    1UNL    H13   36   0.016  -0.283   0.001
    1UNL    H14   37  -0.166  -0.256   0.220
    1UNL    H15   38  -0.099  -0.088  -0.230
    1UNL    H16   39   0.112  -0.018  -0.250
    1UNL    H17   40   0.116  -0.162  -0.130
    1UNL    H18   41   0.178   0.260   0.166
    1UNL    H19   42   0.415   0.172   0.283
    1UNL    H20   43   0.615   0.008   0.242
    1UNL    H21   44   0.590  -0.240  -0.015
    1UNL    H22   45   0.384  -0.148  -0.101
   0.00000   0.00000   0.00000   0.00000   0.00000   0.00000   0.00000   0.00000   0.00000
Generated with MDTraj, t= 90.0
 45
    1UNL     C1    1  -0.541   0.102  -0.128
    1UNL     C2    2  -0.446   0.036  -0.039
    1UNL     C3    3  -0.315   0.051  -0.044
    1UNL     C4    4  -0.235   0.126  -0.139
    1UNL     N1    5  -0.089   0.092  -0.124
    1UNL     C5    6  -0.041   0.142   0.014
    1UNL     C6    7  -0.127   0.071   0.120
    1UNL     C7    8  -0.227  -0.022   0.057
    1UNL     C8    9  -0.141  -0.120  -0.030
    1UNL     C9   10  -0.051  -0.218   0.056
    1UNL     O1   11  -0.114  -0.290   0.157
    1UNL    C10   12  -0.066  -0.054  -0.145
    1UNL    C11   13   0.091  -0.071  -0.146
    1UNL    C12   14   0.167   0.016  -0.044
    1UNL    C13   15   0.104   0.122   0.025
    1UNL     N2   16   0.193   0.185   0.107
    1UNL    C14   17   0.306   0.108   0.114
    1UNL    C15   18   0.433   0.124   0.174
    1UNL    C16   19   0.539   0.036   0.153
    1UNL    C17   20   0.518  -0.069   0.062
    1UNL     O2   21   0.615  -0.171   0.054
    1UNL    C18   22   0.402  -0.078  -0.015
    1UNL    C19   23   0.299   0.007   0.014
    1UNL     H1   24  -0.601   0.174  -0.076
    1UNL     H2   25  -0.480   0.156  -0.213
    1UNL     H3   26  -0.599   0.027  -0.185
    1UNL     H4   27  -0.490  -0.021   0.040
    1UNL     H5   28  -0.267   0.096  -0.243
    1UNL     H6   29  -0.248   0.232  -0.127
    1UNL     H7   30  -0.061   0.247   0.019
    1UNL     H8   31  -0.063   0.017   0.186
    1UNL     H9   32  -0.180   0.140   0.189
    1UNL    H10   33  -0.288  -0.079   0.123
    1UNL    H11   34  -0.212  -0.191  -0.082
    1UNL    H12   35   0.032  -0.165   0.104
    1UNL    H13   36  -0.010  -0.302  -0.010
    1UNL    H14   37  -0.149  -0.251   0.244
    1UNL    H15   38  -0.107  -0.074  -0.252
    1UNL    H16   39   0.123  -0.039  -0.248
    1UNL    H17   40   0.115  -0.172  -0.126
    1UNL    H18   41   0.176   0.266   0.155
    1UNL    H19   42   0.452   0.205   0.239
    1UNL    H20   43   0.630   0.056   0.200
    1UNL    H21   44   0.570  -0.249   0.013
    1UNL    H22   45   0.388  -0.150  -0.090
   0.00000   0.00000   0.00000   0.00000   0.00000   0.00000   0.00000   0.00000   0.00000
Generated with MDTraj, t= 91.0
 45
    1UNL     C1    1  -0.532   0.136  -0.119
    1UNL     C2    2  -0.444   0.056  -0.038
    1UNL     C3    3  -0.313   0.043  -0.053
    1UNL     C4    4  -0.227   0.117  -0.152
    1UNL     N1    5  -0.084   0.087  -0.121
    1UNL     C5    6  -0.050   0.135   0.016
    1UNL     C6    7  -0.147   0.066   0.116
    1UNL     C7    8  -0.230  -0.041   0.046
    1UNL     C8    9  -0.139  -0.134  -0.042
    1UNL     C9   10  -0.051  -0.207   0.065
    1UNL     O1   11  -0.116  -0.274   0.166
    1UNL    C10   12  -0.057  -0.054  -0.144
    1UNL    C11   13   0.097  -0.072  -0.145
    1UNL    C12   14   0.158  -0.005  -0.021
    1UNL    C13   15   0.098   0.105   0.035
    1UNL     N2   16   0.184   0.176   0.113
    1UNL    C14   17   0.306   0.101   0.112
    1UNL    C15   18   0.426   0.131   0.172
    1UNL    C16   19   0.534   0.053   0.141
    1UNL    C17   20   0.523  -0.063   0.058
    1UNL     O2   21   0.627  -0.151   0.032
    1UNL    C18   22   0.406  -0.096  -0.005
    1UNL    C19   23   0.295  -0.010   0.024
    1UNL     H1   24  -0.636   0.114  -0.106
    1UNL     H2   25  -0.517   0.243  -0.093
    1UNL     H3   26  -0.497   0.129  -0.227
    1UNL     H4   27  -0.493  -0.004   0.038
    1UNL     H5   28  -0.242   0.073  -0.257
    1UNL     H6   29  -0.242   0.222  -0.147
    1UNL     H7   30  -0.057   0.241   0.017
    1UNL     H8   31  -0.088   0.019   0.191
    1UNL     H9   32  -0.204   0.142   0.175
    1UNL    H10   33  -0.302  -0.085   0.107
    1UNL    H11   34  -0.206  -0.207  -0.095
    1UNL    H12   35   0.023  -0.140   0.112
    1UNL    H13   36   0.004  -0.294   0.016
    1UNL    H14   37  -0.148  -0.195   0.215
    1UNL    H15   38  -0.100  -0.075  -0.250
    1UNL    H16   39   0.150  -0.026  -0.233
    1UNL    H17   40   0.121  -0.173  -0.134
    1UNL    H18   41   0.161   0.250   0.169
    1UNL    H19   42   0.436   0.215   0.239
    1UNL    H20   43   0.629   0.068   0.192
    1UNL    H21   44   0.598  -0.227  -0.030
    1UNL    H22   45   0.406  -0.186  -0.065
   0.00000   0.00000   0.00000   0.00000   0.00000   0.00000   0.00000   0.00000   0.00000
Generated with MDTraj, t= 92.0
 45
    1UNL     C1    1  -0.522   0.145  -0.136
    1UNL     C2    2  -0.439   0.072  -0.042
    1UNL     C3    3  -0.314   0.043  -0.050
    1UNL     C4    4  -0.234   0.103  -0.164
    1UNL     N1    5  -0.091   0.083  -0.127
    1UNL     C5    6  -0.042   0.139   0.006
    1UNL     C6    7  -0.140   0.089   0.119
    1UNL     C7    8  -0.231  -0.023   0.056
    1UNL     C8    9  -0.146  -0.133  -0.017
    1UNL     C9   10  -0.066  -0.236   0.073
    1UNL     O1   11  -0.150  -0.294   0.174
    1UNL    C10   12  -0.062  -0.064  -0.131
    1UNL    C11   13   0.092  -0.093  -0.132
    1UNL    C12   14   0.167   0.000  -0.038
    1UNL    C13   15   0.098   0.096   0.030
    1UNL     N2   16   0.183   0.159   0.119
    1UNL    C14   17   0.310   0.099   0.117
    1UNL    C15   18   0.429   0.111   0.199
    1UNL    C16   19   0.536   0.041   0.153
    1UNL    C17   20   0.533  -0.048   0.042
    1UNL     O2   21   0.645  -0.119   0.019
    1UNL    C18   22   0.415  -0.069  -0.024
    1UNL    C19   23   0.302   0.008   0.009
    1UNL     H1   24  -0.561   0.084  -0.221
    1UNL     H2   25  -0.602   0.193  -0.087
    1UNL     H3   26  -0.458   0.234  -0.172
    1UNL     H4   27  -0.491   0.017   0.035
    1UNL     H5   28  -0.253   0.050  -0.265
    1UNL     H6   29  -0.240   0.209  -0.169
    1UNL     H7   30  -0.039   0.244  -0.002
    1UNL     H8   31  -0.084   0.038   0.193
    1UNL     H9   32  -0.188   0.174   0.173
    1UNL    H10   33  -0.283  -0.063   0.136
    1UNL    H11   34  -0.223  -0.202  -0.066
    1UNL    H12   35   0.015  -0.195   0.134
    1UNL    H13   36  -0.025  -0.328   0.023
    1UNL    H14   37  -0.185  -0.240   0.250
    1UNL    H15   38  -0.105  -0.100  -0.233
    1UNL    H16   39   0.137  -0.067  -0.230
    1UNL    H17   40   0.127  -0.190  -0.111
    1UNL    H18   41   0.144   0.220   0.186
    1UNL    H19   42   0.425   0.162   0.299
    1UNL    H20   43   0.631   0.043   0.208
    1UNL    H21   44   0.633  -0.160  -0.076
    1UNL    H22   45   0.405  -0.141  -0.106
   0.00000   0.00000   0.00000   0.00000   0.00000   0.00000   0.00000   0.00000   0.00000
Generated with MDTraj, t= 93.0
 45
    1UNL     C1    1  -0.537   0.135  -0.143
    1UNL     C2    2  -0.447   0.059  -0.052
    1UNL     C3    3  -0.314   0.052  -0.051
    1UNL     C4    4  -0.223   0.117  -0.156
    1UNL     N1    5  -0.079   0.086  -0.128
    1UNL     C5    6  -0.036   0.144   0.005
    1UNL     C6    7  -0.134   0.087   0.117
    1UNL     C7    8  -0.227  -0.018   0.052
    1UNL     C8    9  -0.153  -0.134  -0.016
    1UNL     C9   10  -0.083  -0.239   0.077
    1UNL     O1   11  -0.177  -0.302   0.171
    1UNL    C10   12  -0.059  -0.066  -0.123
    1UNL    C11   13   0.094  -0.095  -0.119
    1UNL    C12   14   0.164  -0.000  -0.028
    1UNL    C13   15   0.102   0.103   0.044
    1UNL     N2   16   0.193   0.160   0.124
    1UNL    C14   17   0.310   0.091   0.113
    1UNL    C15   18   0.429   0.118   0.184
    1UNL    C16   19   0.541   0.054   0.147
    1UNL    C17   20   0.536  -0.049   0.050
    1UNL     O2   21   0.657  -0.110  -0.006
    1UNL    C18   22   0.417  -0.082  -0.009
    1UNL    C19   23   0.302  -0.008   0.016
    1UNL     H1   24  -0.479   0.166  -0.238
    1UNL     H2   25  -0.626   0.085  -0.166
    1UNL     H3   26  -0.563   0.226  -0.083
    1UNL     H4   27  -0.499  -0.010   0.013
    1UNL     H5   28  -0.230   0.071  -0.262
    1UNL     H6   29  -0.229   0.223  -0.154
    1UNL     H7   30  -0.043   0.249  -0.003
    1UNL     H8   31  -0.072   0.039   0.191
    1UNL     H9   32  -0.193   0.156   0.183
    1UNL    H10   33  -0.292  -0.060   0.122
    1UNL    H11   34  -0.236  -0.190  -0.073
    1UNL    H12   35   0.001  -0.194   0.130
    1UNL    H13   36  -0.035  -0.324   0.019
    1UNL    H14   37  -0.226  -0.231   0.223
    1UNL    H15   38  -0.099  -0.094  -0.227
    1UNL    H16   39   0.149  -0.100  -0.216
    1UNL    H17   40   0.110  -0.194  -0.085
    1UNL    H18   41   0.175   0.234   0.194
    1UNL    H19   42   0.429   0.185   0.262
    1UNL    H20   43   0.632   0.075   0.193
    1UNL    H21   44   0.628  -0.154  -0.093
    1UNL    H22   45   0.425  -0.156  -0.081
   0.00000   0.00000   0.00000   0.00000   0.00000   0.00000   0.00000   0.00000   0.00000
Generated with MDTraj, t= 94.0
 45
    1UNL     C1    1  -0.524   0.122  -0.170
    1UNL     C2    2  -0.449   0.069  -0.054
    1UNL     C3    3  -0.316   0.054  -0.057
    1UNL     C4    4  -0.218   0.126  -0.151
    1UNL     N1    5  -0.075   0.098  -0.104
    1UNL     C5    6  -0.044   0.133   0.037
    1UNL     C6    7  -0.142   0.053   0.135
    1UNL     C7    8  -0.237  -0.035   0.054
    1UNL     C8    9  -0.150  -0.131  -0.026
    1UNL     C9   10  -0.083  -0.234   0.068
    1UNL     O1   11  -0.170  -0.292   0.164
    1UNL    C10   12  -0.050  -0.051  -0.120
    1UNL    C11   13   0.100  -0.095  -0.119
    1UNL    C12   14   0.162  -0.005  -0.015
    1UNL    C13   15   0.101   0.097   0.050
    1UNL     N2   16   0.189   0.161   0.138
    1UNL    C14   17   0.318   0.113   0.112
    1UNL    C15   18   0.447   0.156   0.144
    1UNL    C16   19   0.549   0.067   0.111
    1UNL    C17   20   0.533  -0.059   0.037
    1UNL     O2   21   0.641  -0.137   0.006
    1UNL    C18   22   0.402  -0.094  -0.000
    1UNL    C19   23   0.298  -0.005   0.032
    1UNL     H1   24  -0.471   0.213  -0.215
    1UNL     H2   25  -0.549   0.050  -0.248
    1UNL     H3   26  -0.618   0.160  -0.130
    1UNL     H4   27  -0.511   0.014   0.016
    1UNL     H5   28  -0.228   0.089  -0.257
    1UNL     H6   29  -0.232   0.233  -0.146
    1UNL     H7   30  -0.056   0.237   0.039
    1UNL     H8   31  -0.090  -0.007   0.209
    1UNL     H9   32  -0.199   0.131   0.189
    1UNL    H10   33  -0.307  -0.085   0.111
    1UNL    H11   34  -0.228  -0.184  -0.093
    1UNL    H12   35  -0.002  -0.183   0.117
    1UNL    H13   36  -0.026  -0.311   0.006
    1UNL    H14   37  -0.229  -0.220   0.192
    1UNL    H15   38  -0.078  -0.066  -0.228
    1UNL    H16   39   0.152  -0.082  -0.215
    1UNL    H17   40   0.121  -0.200  -0.096
    1UNL    H18   41   0.162   0.256   0.181
    1UNL    H19   42   0.455   0.246   0.213
    1UNL    H20   43   0.648   0.102   0.152
    1UNL    H21   44   0.613  -0.212  -0.052
    1UNL    H22   45   0.383  -0.184  -0.064
   0.00000   0.00000   0.00000   0.00000   0.00000   0.00000   0.00000   0.00000   0.00000
Generated with MDTraj, t= 95.0
 45
    1UNL     C1    1  -0.511   0.137  -0.177
    1UNL     C2    2  -0.447   0.045  -0.075
    1UNL     C3    3  -0.316   0.053  -0.044
    1UNL     C4    4  -0.227   0.135  -0.137
    1UNL     N1    5  -0.080   0.094  -0.106
    1UNL     C5    6  -0.046   0.132   0.036
    1UNL     C6    7  -0.146   0.066   0.142
    1UNL     C7    8  -0.233  -0.028   0.057
    1UNL     C8    9  -0.148  -0.136  -0.020
    1UNL     C9   10  -0.084  -0.238   0.076
    1UNL     O1   11  -0.172  -0.304   0.158
    1UNL    C10   12  -0.055  -0.059  -0.122
    1UNL    C11   13   0.093  -0.098  -0.108
    1UNL    C12   14   0.160   0.004  -0.016
    1UNL    C13   15   0.101   0.107   0.051
    1UNL     N2   16   0.200   0.173   0.120
    1UNL    C14   17   0.322   0.108   0.103
    1UNL    C15   18   0.447   0.146   0.146
    1UNL    C16   19   0.546   0.059   0.121
    1UNL    C17   20   0.531  -0.058   0.047
    1UNL     O2   21   0.641  -0.136   0.006
    1UNL    C18   22   0.402  -0.087  -0.005
    1UNL    C19   23   0.297   0.002   0.020
    1UNL     H1   24  -0.518   0.236  -0.133
    1UNL     H2   25  -0.465   0.154  -0.280
    1UNL     H3   26  -0.615   0.115  -0.198
    1UNL     H4   27  -0.516  -0.031  -0.045
    1UNL     H5   28  -0.253   0.107  -0.241
    1UNL     H6   29  -0.242   0.242  -0.118
    1UNL     H7   30  -0.053   0.236   0.042
    1UNL     H8   31  -0.086   0.017   0.220
    1UNL     H9   32  -0.209   0.143   0.189
    1UNL    H10   33  -0.289  -0.088   0.123
    1UNL    H11   34  -0.225  -0.203  -0.076
    1UNL    H12   35  -0.001  -0.198   0.131
    1UNL    H13   36  -0.030  -0.314   0.014
    1UNL    H14   37  -0.159  -0.302   0.254
    1UNL    H15   38  -0.080  -0.090  -0.225
    1UNL    H16   39   0.135  -0.086  -0.209
    1UNL    H17   40   0.102  -0.209  -0.087
    1UNL    H18   41   0.198   0.267   0.178
    1UNL    H19   42   0.460   0.242   0.187
    1UNL    H20   43   0.644   0.079   0.151
    1UNL    H21   44   0.610  -0.204  -0.053
    1UNL    H22   45   0.392  -0.170  -0.069
   0.00000   0.00000   0.00000   0.00000   0.00000   0.00000   0.00000   0.00000   0.00000
Generated with MDTraj, t= 96.0
 45
    1UNL     C1    1  -0.540   0.109  -0.146
    1UNL     C2    2  -0.449   0.056  -0.037
    1UNL     C3    3  -0.316   0.048  -0.049
    1UNL     C4    4  -0.224   0.108  -0.157
    1UNL     N1    5  -0.080   0.088  -0.123
    1UNL     C5    6  -0.031   0.147   0.007
    1UNL     C6    7  -0.127   0.091   0.117
    1UNL     C7    8  -0.234  -0.014   0.060
    1UNL     C8    9  -0.153  -0.129  -0.021
    1UNL     C9   10  -0.091  -0.233   0.061
    1UNL     O1   11  -0.183  -0.273   0.152
    1UNL    C10   12  -0.055  -0.064  -0.118
    1UNL    C11   13   0.097  -0.101  -0.107
    1UNL    C12   14   0.165  -0.002  -0.024
    1UNL    C13   15   0.103   0.104   0.043
    1UNL     N2   16   0.190   0.157   0.135
    1UNL    C14   17   0.312   0.100   0.119
    1UNL    C15   18   0.438   0.124   0.177
    1UNL    C16   19   0.549   0.055   0.136
    1UNL    C17   20   0.540  -0.050   0.037
    1UNL     O2   21   0.654  -0.127   0.010
    1UNL    C18   22   0.415  -0.076  -0.017
    1UNL    C19   23   0.302   0.003   0.014
    1UNL     H1   24  -0.572   0.203  -0.113
    1UNL     H2   25  -0.489   0.127  -0.250
    1UNL     H3   26  -0.632   0.053  -0.162
    1UNL     H4   27  -0.514   0.015   0.041
    1UNL     H5   28  -0.240   0.069  -0.257
    1UNL     H6   29  -0.242   0.219  -0.152
    1UNL     H7   30  -0.035   0.251   0.005
    1UNL     H8   31  -0.065   0.049   0.201
    1UNL     H9   32  -0.176   0.181   0.156
    1UNL    H10   33  -0.289  -0.054   0.142
    1UNL    H11   34  -0.238  -0.180  -0.083
    1UNL    H12   35  -0.006  -0.190   0.108
    1UNL    H13   36  -0.058  -0.319  -0.001
    1UNL    H14   37  -0.210  -0.370   0.149
    1UNL    H15   38  -0.080  -0.090  -0.220
    1UNL    H16   39   0.130  -0.117  -0.210
    1UNL    H17   40   0.111  -0.207  -0.066
    1UNL    H18   41   0.168   0.227   0.216
    1UNL    H19   42   0.441   0.196   0.254
    1UNL    H20   43   0.645   0.068   0.187
    1UNL    H21   44   0.641  -0.190  -0.058
    1UNL    H22   45   0.405  -0.156  -0.088
   0.00000   0.00000   0.00000   0.00000   0.00000   0.00000   0.00000   0.00000   0.00000
Generated with MDTraj, t= 97.0
 45
    1UNL     C1    1  -0.527   0.136  -0.138
    1UNL     C2    2  -0.444   0.052  -0.038
    1UNL     C3    3  -0.311   0.053  -0.040
    1UNL     C4    4  -0.234   0.116  -0.147
    1UNL     N1    5  -0.094   0.085  -0.128
    1UNL     C5    6  -0.042   0.136   0.002
    1UNL     C6    7  -0.127   0.075   0.119
    1UNL     C7    8  -0.228  -0.025   0.060
    1UNL     C8    9  -0.138  -0.135  -0.021
    1UNL     C9   10  -0.067  -0.219   0.077
    1UNL     O1   11  -0.162  -0.281   0.167
    1UNL    C10   12  -0.061  -0.067  -0.134
    1UNL    C11   13   0.098  -0.092  -0.132
    1UNL    C12   14   0.167   0.003  -0.039
    1UNL    C13   15   0.104   0.108   0.025
    1UNL     N2   16   0.194   0.172   0.108
    1UNL    C14   17   0.307   0.097   0.111
    1UNL    C15   18   0.425   0.110   0.188
    1UNL    C16   19   0.535   0.041   0.154
    1UNL    C17   20   0.530  -0.056   0.048
    1UNL     O2   21   0.649  -0.109   0.018
    1UNL    C18   22   0.410  -0.089  -0.014
    1UNL    C19   23   0.296  -0.006   0.019
    1UNL     H1   24  -0.501   0.236  -0.117
    1UNL     H2   25  -0.505   0.121  -0.247
    1UNL     H3   26  -0.637   0.134  -0.123
    1UNL     H4   27  -0.501  -0.015   0.023
    1UNL     H5   28  -0.266   0.071  -0.240
    1UNL     H6   29  -0.242   0.230  -0.141
    1UNL     H7   30  -0.063   0.238   0.005
    1UNL     H8   31  -0.064   0.029   0.200
    1UNL     H9   32  -0.174   0.164   0.162
    1UNL    H10   33  -0.282  -0.055   0.148
    1UNL    H11   34  -0.212  -0.205  -0.080
    1UNL    H12   35  -0.008  -0.149   0.130
    1UNL    H13   36  -0.005  -0.292   0.027
    1UNL    H14   37  -0.243  -0.310   0.115
    1UNL    H15   38  -0.097  -0.103  -0.229
    1UNL    H16   39   0.148  -0.105  -0.230
    1UNL    H17   40   0.110  -0.201  -0.097
    1UNL    H18   41   0.171   0.240   0.186
    1UNL    H19   42   0.425   0.177   0.279
    1UNL    H20   43   0.621   0.045   0.221
    1UNL    H21   44   0.644  -0.154  -0.067
    1UNL    H22   45   0.390  -0.172  -0.084
   0.00000   0.00000   0.00000   0.00000   0.00000   0.00000   0.00000   0.00000   0.00000
Generated with MDTraj, t= 98.0
 45
    1UNL     C1    1  -0.536   0.142  -0.132
    1UNL     C2    2  -0.443   0.073  -0.034
    1UNL     C3    3  -0.314   0.045  -0.048
    1UNL     C4    4  -0.235   0.107  -0.156
    1UNL     N1    5  -0.085   0.082  -0.126
    1UNL     C5    6  -0.047   0.138   0.009
    1UNL     C6    7  -0.144   0.066   0.121
    1UNL     C7    8  -0.236  -0.034   0.047
    1UNL     C8    9  -0.134  -0.140  -0.030
    1UNL     C9   10  -0.048  -0.212   0.065
    1UNL     O1   11  -0.118  -0.286   0.175
    1UNL    C10   12  -0.051  -0.063  -0.140
    1UNL    C11   13   0.102  -0.074  -0.143
    1UNL    C12   14   0.167   0.012  -0.033
    1UNL    C13   15   0.096   0.108   0.036
    1UNL     N2   16   0.179   0.166   0.129
    1UNL    C14   17   0.305   0.102   0.118
    1UNL    C15   18   0.430   0.125   0.171
    1UNL    C16   19   0.535   0.047   0.139
    1UNL    C17   20   0.518  -0.063   0.053
    1UNL     O2   21   0.621  -0.159   0.042
    1UNL    C18   22   0.402  -0.077  -0.023
    1UNL    C19   23   0.300   0.010   0.012
    1UNL     H1   24  -0.483   0.232  -0.164
    1UNL     H2   25  -0.562   0.090  -0.219
    1UNL     H3   26  -0.631   0.183  -0.086
    1UNL     H4   27  -0.497   0.029   0.050
    1UNL     H5   28  -0.253   0.057  -0.248
    1UNL     H6   29  -0.254   0.222  -0.154
    1UNL     H7   30  -0.055   0.243   0.011
    1UNL     H8   31  -0.077   0.012   0.195
    1UNL     H9   32  -0.205   0.140   0.171
    1UNL    H10   33  -0.305  -0.083   0.113
    1UNL    H11   34  -0.199  -0.225  -0.079
    1UNL    H12   35   0.028  -0.144   0.098
    1UNL    H13   36  -0.006  -0.294   0.008
    1UNL    H14   37  -0.068  -0.276   0.257
    1UNL    H15   38  -0.089  -0.092  -0.235
    1UNL    H16   39   0.131  -0.046  -0.245
    1UNL    H17   40   0.148  -0.178  -0.142
    1UNL    H18   41   0.161   0.245   0.188
    1UNL    H19   42   0.436   0.199   0.240
    1UNL    H20   43   0.637   0.065   0.160
    1UNL    H21   44   0.598  -0.233  -0.020
    1UNL    H22   45   0.391  -0.155  -0.092
   0.00000   0.00000   0.00000   0.00000   0.00000   0.00000   0.00000   0.00000   0.00000
Generated with MDTraj, t= 99.0
 45
    1UNL     C1    1  -0.551   0.117  -0.109
    1UNL     C2    2  -0.448   0.037  -0.038
    1UNL     C3    3  -0.316   0.040  -0.054
    1UNL     C4    4  -0.240   0.126  -0.146
    1UNL     N1    5  -0.088   0.095  -0.125
    1UNL     C5    6  -0.045   0.150   0.004
    1UNL     C6    7  -0.133   0.072   0.109
    1UNL     C7    8  -0.223  -0.025   0.048
    1UNL     C8    9  -0.132  -0.135  -0.032
    1UNL     C9   10  -0.047  -0.225   0.057
    1UNL     O1   11  -0.105  -0.269   0.178
    1UNL    C10   12  -0.055  -0.050  -0.146
    1UNL    C11   13   0.095  -0.067  -0.153
    1UNL    C12   14   0.160   0.008  -0.037
    1UNL    C13   15   0.104   0.124   0.018
    1UNL     N2   16   0.191   0.186   0.108
    1UNL    C14   17   0.307   0.105   0.110
    1UNL    C15   18   0.426   0.122   0.177
    1UNL    C16   19   0.529   0.029   0.157
    1UNL    C17   20   0.518  -0.079   0.066
    1UNL     O2   21   0.625  -0.161   0.045
    1UNL    C18   22   0.400  -0.092  -0.007
    1UNL    C19   23   0.295  -0.006   0.022
    1UNL     H1   24  -0.522   0.224  -0.091
    1UNL     H2   25  -0.557   0.102  -0.211
    1UNL     H3   26  -0.650   0.100  -0.061
    1UNL     H4   27  -0.477  -0.030   0.039
    1UNL     H5   28  -0.267   0.104  -0.246
    1UNL     H6   29  -0.254   0.236  -0.108
    1UNL     H7   30  -0.065   0.253  -0.012
    1UNL     H8   31  -0.069   0.012   0.183
    1UNL     H9   32  -0.189   0.149   0.160
    1UNL    H10   33  -0.285  -0.073   0.123
    1UNL    H11   34  -0.213  -0.206  -0.081
    1UNL    H12   35   0.044  -0.175   0.086
    1UNL    H13   36  -0.024  -0.315  -0.001
    1UNL    H14   37  -0.156  -0.197   0.219
    1UNL    H15   38  -0.099  -0.074  -0.243
    1UNL    H16   39   0.139  -0.017  -0.242
    1UNL    H17   40   0.124  -0.174  -0.177
    1UNL    H18   41   0.186   0.277   0.139
    1UNL    H19   42   0.429   0.205   0.252
    1UNL    H20   43   0.620   0.050   0.215
    1UNL    H21   44   0.602  -0.230  -0.027
    1UNL    H22   45   0.380  -0.168  -0.085
   0.00000   0.00000   0.00000   0.00000   0.00000   0.00000   0.00000   0.00000   0.00000
