[ moleculetype ]
; name        nrexcl
res           1

[ atoms ]
;    nr  type  resnr resid  atom  cgnr     charge       mass
      1 TC4       1 res   C1        1      0.000     36.000
      2 TC5       1 res   C2        2      0.000     36.000
      3 TC4       1 res   C3        3      0.000     36.000
      4 TC5       1 res   C4        4      0.000     36.000

[ constraints ]
;  ai    aj   funct      b0(nm)
    1     2     1      0.32787
    2     3     1      0.32780
    1     4     1      0.32839
    3     4     1      0.32813

[ bonds ]
;  ai    aj   funct      b0(nm)          k(kJ/mol/nm^2)

[ angles ]
;  ai    aj    ak  funct     th0(deg)        k(kJ/mol/rad^2)
    1     2     3     1    119.32799          2505.56
    1     4     3     1    119.07571          2474.43
    2     1     4     1     60.62913         13256.01
    2     3     4     1     60.66687         10518.94

[ dihedrals ]
;  ai    aj    ak    al  funct   phi0(deg)        k(kJ/mol)   mult
    1     2     3     4     1   -179.07228        8.578      1
    1     4     3     2     1    179.06544        8.578      1
    2     1     4     3     1   -179.06793        8.573      1
    3     2     1     4     1    179.07209        8.579      1
