[ moleculetype ]
; name        nrexcl
res           1

[ atoms ]
;    nr  type  resnr resid  atom  cgnr     charge       mass
      1 SC6       1 res   C1        1      0.000     54.000
      2 TC4       1 res   C2        2      0.000     36.000
      3 TC6       1 res   C3        3      0.000     36.000

[ constraints ]
;  ai    aj   funct      b0(nm)
    1     2     1      0.34362
    1     3     1      0.27041
    2     3     1      0.34227

[ bonds ]
;  ai    aj   funct      b0(nm)          k(kJ/mol/nm^2)

[ angles ]
;  ai    aj    ak  funct     th0(deg)        k(kJ/mol/rad^2)
    1     2     3     1     46.42833          9854.57
    1     3     2     1     67.04429          3530.34
    2     1     3     1     66.52721          2970.36

[ dihedrals ]
;  ai    aj    ak    al  funct   phi0(deg)        k(kJ/mol)   mult
