1Succerose
8
    1res  C1    1    0.201  -0.086   0.059
    1res  C2    2    0.207  -0.076   0.292
    1res  C3    3    0.372   0.095  -0.047
    1res  C4    4    0.120  -0.002  -0.177
    1res  C5    5   -0.231   0.034   0.058
    1res  C6    6   -0.347  -0.111  -0.078
    1res  C7    7   -0.180  -0.070   0.283
    1res  C8    8   -0.172   0.198  -0.210
  10.00000  10.00000  10.00000
