[ moleculetype ]
; name        nrexcl
res           1

[ atoms ]
;    nr  type resnr resid  atom  cgnr     charge       mass
      1 SC4       1 res   C1        1      0.000     54.000
      2 TC3       1 res   C2        2      0.000     36.000
      3 SC5       1 res   C3        3      0.000     54.000
      4 SN4a      1 res   C4        4      0.000     54.000
      5 SN4a      1 res   C5        5      0.000     54.000
      6 TP1       1 res   C6        6      0.000     36.000
      7 TN6       1 res   C7        7      0.000     36.000
      8 TN6       1 res   C8        8      0.000     36.000
      9 TN6       1 res   C9        9      0.000     36.000
     10 TC3       1 res   C10      10      0.000     36.000
     11 SC4       1 res   C11      11      0.000     54.000
     12 TC3       1 res   C12      12      0.000     36.000
     13 SC4       1 res   C13      13      0.000     54.000
     14 SC4       1 res   C14      14      0.000     54.000
     15 TC3       1 res   C15      15      0.000     36.000
     16 TN6       1 res   C16      16      0.000     36.000
     17 SN4a      1 res   C17      17      0.000     54.000
     18 TN6       1 res   C18      18      0.000     36.000
     19 TN6       1 res   C19      19      0.000     36.000
     20 SN4a      1 res   C20      20      0.000     54.000
     21 TP1       1 res   C21      21      0.000     36.000
     22 TN6       1 res   C22      22      0.000     36.000
     23 TN6       1 res   C23      23      0.000     36.000
     24 TN6       1 res   C24      24      0.000     36.000
     25 TN6       1 res   C25      25      0.000     36.000
     26 TC4       1 res   C26      26      0.000     36.000
     27 TN4a      1 res   C27      27      0.000     36.000
     28 TC3       1 res   C28      28      0.000     36.000

[ bonds ]
;  ai    aj   funct      b0(nm)        k
    1     2     1      0.29683    20000
    1     3     1      0.27864    20000
    2     3     1      0.28233    20000
    3     4     1      0.31233    20000
    3    10     1      0.36654    20000
    3    11     1      0.32042    20000
    4     5     1      0.28970    20000
    5     6     1      0.25549    20000
    5     7     1      0.27047    20000
    5     9     1      0.29548    20000
    7     8     1      0.21299    20000
    8     9     1      0.24261    20000
   10    11     1      0.30361    20000
   11    12     1      0.39497    20000
   11    13     1      0.30823    20000
   12    13     1      0.38016    20000
   13    14     1      0.26383    20000
   13    28     1      0.28385    20000
   14    15     1      0.25707    20000
   14    26     1      0.38459    20000
   14    28     1      0.31047    20000
   15    16     1      0.25010    20000
   16    17     1      0.24496    20000
   16    26     1      0.25053    20000
   17    18     1      0.27119    20000
   17    25     1      0.30843    20000
   18    19     1      0.23706    20000
   19    20     1      0.32199    20000
   19    25     1      0.22255    20000
   20    21     1      0.25395    20000
   20    22     1      0.25368    20000
   20    24     1      0.30506    20000
   22    23     1      0.23720    20000
   23    24     1      0.22200    20000
   26    27     1      0.27280    20000
