[ moleculetype ]
; name        nrexcl
res           1

[ atoms ]
;    nr  type  resnr resid  atom  cgnr     charge       mass
      1 TC4       1 res   C1        1      0.000     36.000
      2 SN6       1 res   C2        2      0.000     54.000
      3 SN5a      1 res   C3        3      0.000     54.000
      4 SC5       1 res   C4        4      0.000     54.000
      5 N4a       1 res   C5        5      0.000     72.000
      6 TC5       1 res   C6        6      0.000     36.000
      7 TC5       1 res   C7        7      0.000     36.000
      8 TC5       1 res   C8        8      0.000     36.000
      9 TN6       1 res   C9        9      0.000     36.000
     10 SN4a      1 res   C10      10      0.000     54.000
     11 TN3r      1 res   C11      11      0.000     36.000
     12 SN4a      1 res   C12      12      0.000     54.000
     13 TP1       1 res   C13      13      0.000     36.000
     14 SP4       1 res   C14      14      0.000     54.000
     15 TN6       1 res   C15      15      0.000     36.000
     16 SP4       1 res   C16      16      0.000     54.000
     17 TN6       1 res   C17      17      0.000     36.000

[ constraints ]
;  ai    aj   funct      b0(nm)
    6     8     1      0.29767
    1     3     1      0.35688
    9    10     1      0.24877
    1     9     1      0.26573
    2     4     1      0.27191
   14    15     1      0.28474
    6     7     1      0.25612
    1     2     1      0.35510
   10    11     1      0.29892
   10    17     1      0.24020
    2     3     1      0.30080
   11    12     1      0.21700
   12    14     1      0.29507
    7     8     1      0.28778
   16    17     1      0.27444
    4     9     1      0.22494
   10    16     1      0.24523
    3     4     1      0.31711
   12    13     1      0.28434

[ bonds ]
;  ai    aj   funct      b0(nm)          k(kJ/mol/nm^2)
    4     5     1      0.33521          14123.0
   12    15     1      0.27645          14012.0
    5     6     1      0.33031           8776.2

[ angles ]
;  ai    aj    ak  funct     th0(deg)        k(kJ/mol/rad^2)
    1     2     3     1     65.31521          4379.00
    1     2     4     1     77.04205          2467.38
    1     3     2     1     64.70250          3418.48
    1     3     4     1     71.66348          3667.75
    1     9     4     1    107.29938          1474.13
    1     9    10     1     87.72379           167.17
    2     1     3     1     49.98233          5598.77
    2     1     9     1     74.12127          2922.54
    2     3     4     1     52.12573          5678.36
    2     4     3     1     60.84701          4923.45
    2     4     5     1    115.12546           813.38
    2     4     9     1     99.68560          1846.20
    3     1     9     1     58.76525          3740.52
    3     2     4     1     67.02726          5116.61
    3     4     5     1     57.28586          1060.31
    3     4     9     1     68.84066          2409.72
    4     5     6     1    116.07798            58.65
    4     9    10     1     97.28562           518.82
    5     4     9     1     74.83683           687.89
    5     6     7     1    155.11742           121.23
    5     6     8     1     94.17469           126.48
    6     7     8     1     66.06618          8869.46
    6     8     7     1     51.85367         10290.66
    7     6     8     1     62.08014         13757.05
    9    10    11     1    128.06704           877.38
    9    10    16     1    144.93768           782.06
    9    10    17     1     81.14385           735.10
   10    11    12     1    126.82742           254.75
   10    16    17     1     54.69911          2118.13
   10    17    16     1     56.47349          1142.23
   11    10    16     1     85.01825          1304.37
   11    10    17     1    126.08108           512.26
   11    12    13     1    115.13301           388.74
   11    12    14     1    132.48839           537.91
   11    12    15     1    101.05514           254.32
   12    14    15     1     56.91997           886.86
   12    15    14     1     63.44239          1396.83
   13    12    14     1     89.79708           913.19
   13    12    15     1    143.08821           293.07
   14    12    15     1     59.63811          1478.83
   16    10    17     1     68.82777          1744.35

[ dihedrals ]
;  ai    aj    ak    al  funct   phi0(deg)        k(kJ/mol)   mult
    1     2     3     4     1     92.14434        4.738      1
    1     2     4     3     1   -111.97561        3.239      1
    1     2     4     5     1    -93.94333        7.841      1
    1     2     4     9     1   -170.96932        5.521      1
    1     3     2     4     1    -92.14434        4.738      1
    1     3     4     2     1    108.04280        4.752      1
    1     3     4     5     1    -52.00327        7.851      1
    1     3     4     9     1   -137.89509        4.749      1
    1     9     4     2     1    167.01079        7.066      1
    1     9     4     3     1    113.07031        5.523      1
    1     9     4     5     1     50.95922        8.462      1
    1     9    10    11     1    115.08783       14.332      1
    1     9    10    16     1    -45.23943       15.725      1
    1     9    10    17     1    -14.24783       13.591      1
    2     1     3     4     1   -123.98137        3.228      1
    2     1     9     4     1   -170.91880        5.538      1
    2     1     9    10     1    -72.96691        7.076      1
    2     3     1     9     1     84.96629        5.501      1
    2     3     4     5     1     19.06058        8.563      1
    2     3     4     9     1    -64.73636        5.524      1
    2     4     5     6     1   -113.64541       24.172      1
    2     4     9    10     1     76.01046       12.216      1
    3     1     2     4     1    109.06033        3.964      1
    3     1     9     4     1   -117.98594        4.762      1
    3     1     9    10     1    -20.96292        7.079      1
    3     2     1     9     1   -117.97505        4.757      1
    3     2     4     5     1   -161.97290        7.817      1
    3     2     4     9     1    121.01700        5.504      1
    3     4     5     6     1    -92.34834       25.350      1
    3     4     9    10     1     22.07921       10.845      1
    4     2     1     9     1    171.98752        4.786      1
    4     3     1     9     1    140.96380        4.006      1
    4     5     6     7     1    125.44700        3.769      1
    4     5     6     8     1     68.36791        8.458      1
    4     9    10    11     1   -138.51740       13.581      1
    4     9    10    16     1     61.64452       15.094      1
    4     9    10    17     1     90.84490       12.861      1
    5     4     9    10     1    -36.98614       11.569      1
    5     6     7     8     1    175.97711       24.466      1
    5     6     8     7     1     -2.28461       13.584      1
    6     5     4     9     1    -17.30424       23.456      1
    9    10    11    12     1    124.80134       10.063      1
    9    10    16    17     1   -148.12398       13.676      1
    9    10    17    16     1     17.06578        8.593      1
   10    11    12    13     1   -135.76569       10.655      1
   10    11    12    14     1    108.87928       12.946      1
   10    11    12    15     1     49.57683       10.684      1
   11    10    16    17     1     46.12347       10.661      1
   11    10    17    16     1   -114.88112        8.530      1
   11    12    14    15     1    101.85916       15.021      1
   11    12    15    14     1    -47.79617        9.982      1
   12    11    10    16     1    -66.88655       11.444      1
   12    11    10    17     1   -123.06943       12.913      1
   13    12    14    15     1    -21.14572       11.465      1
   13    12    15    14     1    144.02874       13.592      1
