[ moleculetype ]
; name        nrexcl
res           1

[ atoms ]
;    nr  type  resnr resid  atom  cgnr     charge       mass
      1 TN3r      1 res   C1        1      0.000     36.000
      2 SN4a      1 res   C2        2      0.000     54.000
      3 SC4       1 res   C3        3      0.000     54.000
      4 TN4a      1 res   C4        4      0.000     36.000
      5 SN6       1 res   C5        5      0.000     54.000
      6 N4a       1 res   C6        6      0.000     72.000
      7 TC5       1 res   C7        7      0.000     36.000
      8 TC5       1 res   C8        8      0.000     36.000
      9 TC5       1 res   C9        9      0.000     36.000
     10 SN4a      1 res   C10      10      0.000     54.000
     11 TP1       1 res   C11      11      0.000     36.000
     12 TN6       1 res   C12      12      0.000     36.000
     13 TN6       1 res   C13      13      0.000     36.000
     14 TN6       1 res   C14      14      0.000     36.000

[ bonds ]
;  ai    aj   funct      b0(nm)          k(kJ/mol/nm^2)
    1     2     1      0.35156           5867.5
    2     3     1      0.31766          89666.0
    2     4     1      0.30341         213736.1
    2     5     1      0.21114         199277.4
    3     4     1      0.31623          97906.3
    3     5     1      0.28052          96338.4
    4     5     1      0.25040         102759.5
    5     6     1      0.29256           8677.1
    5    10     1      0.27168          14015.3
    6     7     1      0.34020          54182.5
    7     8     1      0.25575         274271.1
    7     9     1      0.29789         263948.7
    8     9     1      0.28770         248855.2
   10    11     1      0.31193          87883.8
   10    12     1      0.29316          15723.1
   10    14     1      0.25881          34400.1
   12    13     1      0.24029           8327.1
   13    14     1      0.24009          13831.8

[ angles ]
;  ai    aj    ak  funct     th0(deg)        k(kJ/mol/rad^2)
    1     2     3     1     95.01368            69.74
    1     2     4     1     83.18085           425.45
    1     2     5     1    136.22694           234.57
    2     3     4     1     57.18852          9289.32
    2     3     5     1     40.73273         13458.17
    2     4     3     1     61.64255          4411.58
    2     4     5     1     43.51348          9299.41
    2     5     3     1     79.11862          2553.86
    2     5     4     1     81.73668          3258.24
    2     5     6     1     90.73707           384.99
    2     5    10     1    110.50674           690.47
    3     2     4     1     61.16892          4751.89
    3     2     5     1     60.14872          2522.70
    3     4     5     1     57.96025          4613.22
    3     5     4     1     72.87149          3506.45
    3     5     6     1    160.93918           374.59
    3     5    10     1     98.83082           169.87
    4     2     5     1     54.74985          4257.24
    4     3     5     1     49.16826          5955.43
    4     5     6     1     90.29365           561.09
    4     5    10     1    162.70429           392.52
    5     6     7     1    126.41676            88.45
    5    10    11     1    128.51645           167.20
    5    10    12     1    150.07801            60.73
    5    10    14     1     89.02989           261.23
    6     5    10     1     99.39746           322.21
    6     7     8     1    147.32832          1000.22
    6     7     9     1     85.97672          1016.47
    7     8     9     1     66.17942          9367.29
    7     9     8     1     51.75313         18454.26
    8     7     9     1     62.06745         12506.01
   10    12    13     1     68.07772           374.67
   10    14    13     1     74.35607           411.90
   11    10    12     1     55.54524          1728.07
   11    10    14     1    137.09439           328.00
   12    10    14     1     83.37485           536.95
   12    13    14     1    100.36138           136.13
