1TPCN00353
11
    1res  C1    1   -0.373   0.002   0.117
    1res  C2    2   -0.126  -0.042   0.081
    1res  C3    3   -0.136  -0.132  -0.188
    1res  C4    4   -0.158  -0.244   0.042
    1res  C5    5    0.098  -0.288   0.097
    1res  C6    6    0.076   0.032   0.050
    1res  C7    7    0.253   0.026   0.047
    1res  C8    8    0.398   0.225   0.001
    1res  C9    9    0.491  -0.050   0.045
    1res  C10   10   -0.093   0.219   0.044
    1res  C11   11    0.018   0.379  -0.147
  10.00000  10.00000  10.00000
