1TPCN04261
32
    1res  C1    1   -0.904   0.705   0.278
    1res  C2    2   -0.816   0.459   0.039
    1res  C3    3   -0.822   0.671  -0.206
    1res  C4    4   -0.598   0.579  -0.074
    1res  C5    5   -0.508   0.294   0.035
    1res  C6    6   -0.361   0.070  -0.080
    1res  C7    7   -0.175  -0.185  -0.062
    1res  C8    8   -0.028  -0.304   0.231
    1res  C9    9   -0.239  -0.438   0.126
    1res  C10   10   -0.204  -0.418   0.418
    1res  C11   11    0.245  -0.334   0.171
    1res  C12   12    0.154   0.046   0.172
    1res  C13   13    0.403  -0.157  -0.027
    1res  C14   14    0.457   0.175   0.066
    1res  C15   15    0.542   0.169  -0.171
    1res  C16   16    0.782   0.152  -0.084
    1res  C17   17    0.916   0.355  -0.294
    1res  C18   18    1.029   0.557  -0.130
    1res  C19   19    1.163   0.370  -0.066
    1res  C20   20    1.097   0.161  -0.180
    1res  C21   21    0.700   0.266   0.159
    1res  C22   22    0.862   0.006   0.157
    1res  C23   23    0.494  -0.085   0.257
    1res  C24   24    0.115  -0.350  -0.073
    1res  C25   25   -0.470  -0.183  -0.079
    1res  C26   26   -0.514  -0.372  -0.119
    1res  C27   27   -0.760  -0.527  -0.082
    1res  C28   28   -0.552  -0.693  -0.089
    1res  C29   29   -0.412  -0.667  -0.261
    1res  C30   30   -0.401  -0.411  -0.330
    1res  C31   31   -0.672  -0.059  -0.107
    1res  C32   32   -0.600   0.120  -0.216
  10.00000  10.00000  10.00000
