[ moleculetype ]
; name        nrexcl
res           1

[ atoms ]
;    nr  type resnr resid  atom  cgnr     charge       mass
      1 TC5       1 res   C1        1      0.000     36.000
      2 TN6d      1 res   C2        2      0.000     36.000
      3 TN6a      1 res   C3        3      0.000     36.000
      4 TN6a      1 res   C4        4      0.000     36.000
      5 TN6d      1 res   C5        5      0.000     36.000
      6 TN6a      1 res   C6        6      0.000     36.000

[ bonds ]
;  ai    aj   funct      b0(nm)        k
    1     2     1      0.21566    20000
    1     3     1      0.21503    20000
    1     4     1      0.23421    20000
    1     6     1      0.25172    20000
    2     3     1      0.21247    20000
    4     5     1      0.19536    20000
    5     6     1      0.21098    20000
