[ moleculetype ]
; name        nrexcl
res           1

[ atoms ]
;    nr  type  resnr resid  atom  cgnr     charge       mass
      1 SC4       1 res   C1        1      0.000     54.000
      2 TN6a      1 res   C2        2      0.000     36.000
      3 TC5       1 res   C3        3      0.000     36.000
      4 SN4a      1 res   C4        4      0.000     54.000
      5 SC3       1 res   C5        5      0.000     54.000
      6 SC4       1 res   C6        6      0.000     54.000
      7 TC3       1 res   C7        7      0.000     36.000
      8 TC5       1 res   C8        8      0.000     36.000
      9 TC5       1 res   C9        9      0.000     36.000
     10 TC5       1 res   C10      10      0.000     36.000
     11 SC4       1 res   C11      11      0.000     54.000
     12 TN6a      1 res   C12      12      0.000     36.000

[ bonds ]
;  ai    aj   funct      b0(nm)          k(kJ/mol/nm^2)
    1     2     1      0.23460          42311.9
    1    12     1      0.23766          33429.1
    2     3     1      0.23940         232759.3
    3     4     1      0.22059          31105.0
    3     7     1      0.25285         101063.8
    3    11     1      0.27704          48547.3
    4     5     1      0.23432         104437.1
    4     6     1      0.32094          49405.6
    4     7     1      0.23187          44029.3
    5     6     1      0.30933          58597.2
    7     8     1      0.25332          10551.5
    8     9     1      0.25594         191310.6
    8    10     1      0.29817         211162.3
    9    10     1      0.28782         187046.8
   11    12     1      0.23494          38309.8

[ angles ]
;  ai    aj    ak  funct     th0(deg)        k(kJ/mol/rad^2)
    1     2     3     1     98.97485           877.85
    1    12    11     1    129.73978           283.47
    2     1    12     1     99.65538           993.65
    2     3     4     1    125.07950           357.88
    2     3     7     1     94.61999          1573.32
    2     3    11     1    120.19594          1155.66
    3     4     5     1    150.07250           384.57
    3     4     6     1    143.70179           317.09
    3     4     7     1     67.90482          1674.98
    3     7     4     1     53.93348          1295.95
    3     7     8     1     98.82635           202.37
    3    11    12     1     77.35393          1382.35
    4     3     7     1     58.16154          1713.78
    4     3    11     1     99.61965           269.90
    4     5     6     1     70.84827          1875.91
    4     6     5     1     43.59058          6502.22
    4     7     8     1    144.60011           119.11
    5     4     6     1     65.56123          2425.84
    5     4     7     1    120.08616           435.69
    6     4     7     1     91.64585           508.03
    7     3    11     1    143.36206           829.30
    7     8     9     1    139.83497           246.21
    7     8    10     1     84.98872           193.38
    8     9    10     1     66.21175          6280.02
    8    10     9     1     51.75477         13914.16
    9     8    10     1     62.03347          9208.94

[ dihedrals ]
;  ai    aj    ak    al  funct   phi0(deg)        k(kJ/mol)   mult
    1     2     3     4     1     52.56324       22.196      1
    1     2     3     4     1    -74.84768       18.550      2
    1     2     3     4     1    157.87891       13.371      3
    1     2     3     7     1      0.30047       21.060      1
    1     2     3     7     1   -179.13552       18.153      2
    1     2     3     7     1      2.10801       13.891      3
    1     2     3    11     1   -178.84042       27.624      1
    1     2     3    11     1   -175.67929       19.344      2
    1     2     3    11     1   -164.65110        9.510      3
    1    12    11     3     1    175.05677       27.277      1
    1    12    11     3     1    164.85227       15.241      2
    1    12    11     3     1    108.09807        4.567      3
    2     1    12    11     1   -173.27767       31.713      1
    2     1    12    11     1   -161.40697       13.936      2
    2     1    12    11     1    -35.44244        3.949      3
    2     3     4     5     1     -1.80499       16.421      1
    2     3     4     5     1    176.22508       15.048      2
    2     3     4     5     1     -6.09444       12.958      3
    2     3     4     6     1    171.35832       11.511      1
    2     3     4     6     1    162.63005       11.046      2
    2     3     4     6     1    153.71864       10.301      3
    2     3     4     7     1    108.88128        9.969      1
    2     3     4     7     1     37.77808        9.706      2
    2     3     4     7     1    -33.29289        9.278      3
    2     3     7     4     1    -50.09328       10.754      1
    2     3     7     4     1     79.81111       10.408      2
    2     3     7     4     1   -150.28941        9.849      3
    2     3     7     8     1    154.31594       18.321      1
    2     3     7     8     1    128.87768       16.344      2
    2     3     7     8     1    104.02407       13.390      3
    2     3    11    12     1    178.93939       29.040      1
    2     3    11    12     1    176.83197       18.937      2
    2     3    11    12     1    168.36160        6.842      3
    3     2     1    12     1    172.79915       23.846      1
    3     2     1    12     1    165.30031       18.825      2
    3     2     1    12     1    156.73018       12.006      3
    3     4     5     6     1     -8.57755       14.976      1
    3     4     5     6     1    163.11380       13.834      2
    3     4     5     6     1    -24.61298       12.094      3
    3     4     6     5     1      2.51983       12.856      1
    3     4     6     5     1   -174.78342       12.186      2
    3     4     6     5     1      8.28156       11.138      3
    3     4     7     8     1   -137.13287       21.445      1
    3     4     7     8     1    -93.46397       17.944      2
    3     4     7     8     1    -47.76047       13.102      3
    3     7     4     5     1    -32.13650       10.729      1
    3     7     4     5     1    115.74338       10.404      2
    3     7     4     5     1    -96.34246        9.876      3
    3     7     4     6     1     30.98028        8.547      1
    3     7     4     6     1   -118.03987        8.396      2
    3     7     4     6     1     92.93908        8.148      3
    3     7     8     9     1     83.76016       19.115      1
    3     7     8     9     1    -12.41089       17.132      2
    3     7     8     9     1   -108.41567       14.112      3
    3     7     8    10     1    116.38111       21.715      1
    3     7     8    10     1     52.58313       18.657      2
    3     7     8    10     1    -11.69440       14.165      3
    4     3     7     8     1     23.91817       16.357      1
    4     3     7     8     1   -132.12973       15.064      2
    4     3     7     8     1     71.89794       13.061      3
    4     3    11    12     1    -34.59261       25.643      1
    4     3    11    12     1    111.60564       19.572      2
    4     3    11    12     1    -99.31021       11.496      3
    4     7     3    11     1    127.08526       21.306      1
    4     7     3    11     1     73.17476       17.479      2
    4     7     3    11     1     16.57744       12.294      3
    4     7     8     9     1     53.29024       25.454      1
    4     7     8     9     1    -74.07665       19.320      2
    4     7     8     9     1    156.66527       11.604      3
    4     7     8    10     1     86.78663       25.060      1
    4     7     8    10     1     -7.69656       17.918      2
    4     7     8    10     1   -106.66131        9.371      3
    5     4     3     7     1     71.38657       17.003      1
    5     4     3     7     1    -37.54531       15.466      2
    5     4     3     7     1   -147.16895       13.155      3
    5     4     3    11     1   -141.81222       20.434      1
    5     4     3    11     1   -103.75310       17.990      2
    5     4     3    11     1    -65.99603       14.341      3
    5     4     7     8     1     10.46490       22.163      1
    5     4     7     8     1   -158.63507       18.638      2
    5     4     7     8     1     33.39888       13.640      3
    5     6     4     7     1     56.11108        7.786      1
    5     6     4     7     1    -67.77648        7.671      2
    5     6     4     7     1    168.33876        7.483      3
    6     4     3     7     1   -118.67517       11.463      1
    6     4     3     7     1    -57.42537       11.021      2
    6     4     3     7     1      3.66769       10.313      3
    6     4     3    11     1     30.55695       15.663      1
    6     4     3    11     1   -118.79510       14.550      2
    6     4     3    11     1     92.05633       12.814      3
    6     4     7     8     1     71.55010       22.822      1
    6     4     7     8     1    -36.47122       19.071      2
    6     4     7     8     1   -143.36630       13.757      3
    6     5     4     7     1   -102.06539        7.758      1
    6     5     4     7     1    -24.13245        7.619      2
    6     5     4     7     1     53.79705        7.392      3
    7     3    11    12     1      7.17824       21.049      1
    7     3    11    12     1   -165.65523       18.352      2
    7     3    11    12     1     21.48280       14.340      3
    7     4     3    11     1    -26.80732       14.272      1
    7     4     3    11     1    126.29542       13.421      2
    7     4     3    11     1    -80.80161       12.078      3
    7     8     9    10     1   -138.13743       15.065      1
    7     8     9    10     1    -96.31247       14.147      2
    7     8     9    10     1    -54.57070       12.695      3
    7     8    10     9     1     25.03163       10.017      1
    7     8    10     9     1   -129.95512        9.751      2
    7     8    10     9     1     75.01982        9.318      3
    8     7     3    11     1    -31.38082       22.011      1
    8     7     3    11     1    116.73537       17.873      2
    8     7     3    11     1    -96.55635       12.225      3
