Generated with MDTraj, t= 0.0
 55
    1UNL     C1    1  -0.011   0.485  -0.051
    1UNL     O1    2  -0.033   0.348  -0.057
    1UNL     C2    3   0.075   0.282  -0.005
    1UNL     O2    4   0.175   0.338   0.037
    1UNL     C3    5   0.069   0.136  -0.002
    1UNL     C4    6  -0.044   0.068  -0.042
    1UNL     N1    7  -0.172   0.121  -0.046
    1UNL     C5    8  -0.266   0.024  -0.004
    1UNL     C6    9  -0.401   0.042   0.031
    1UNL     O3   10  -0.455   0.171   0.016
    1UNL     C7   11  -0.589   0.183   0.055
    1UNL     C8   12  -0.470  -0.070   0.077
    1UNL     C9   13  -0.407  -0.193   0.090
    1UNL    C10   14  -0.274  -0.209   0.057
    1UNL    C11   15  -0.203  -0.100   0.010
    1UNL    C12   16  -0.060  -0.084  -0.040
    1UNL    C13   17  -0.048  -0.146  -0.182
    1UNL    C14   18   0.067  -0.248  -0.176
    1UNL     N2   19   0.155  -0.205  -0.058
    1UNL    C15   20   0.233  -0.322  -0.003
    1UNL    C16   21   0.249  -0.096  -0.114
    1UNL    C17   22   0.293   0.015  -0.017
    1UNL    C18   23   0.413  -0.026   0.066
    1UNL    C19   24   0.532   0.063   0.068
    1UNL     O4   25   0.410  -0.128   0.129
    1UNL    C20   26   0.177   0.062   0.074
    1UNL    C21   27   0.116  -0.058   0.148
    1UNL    C22   28   0.052  -0.152   0.045
    1UNL     H1   29   0.079   0.509  -0.110
    1UNL     H2   30   0.005   0.515   0.053
    1UNL     H3   31  -0.097   0.538  -0.093
    1UNL     H4   32  -0.190   0.220  -0.028
    1UNL     H5   33  -0.600   0.157   0.160
    1UNL     H6   34  -0.651   0.118  -0.007
    1UNL     H7   35  -0.620   0.286   0.040
    1UNL     H8   36  -0.573  -0.061   0.105
    1UNL     H9   37  -0.463  -0.278   0.126
    1UNL    H10   38  -0.225  -0.305   0.065
    1UNL    H11   39  -0.142  -0.193  -0.212
    1UNL    H12   40  -0.027  -0.067  -0.255
    1UNL    H13   41   0.029  -0.349  -0.157
    1UNL    H14   42   0.125  -0.252  -0.268
    1UNL    H15   43   0.297  -0.289   0.078
    1UNL    H16   44   0.165  -0.398   0.034
    1UNL    H17   45   0.295  -0.365  -0.081
    1UNL    H18   46   0.201  -0.051  -0.201
    1UNL    H19   47   0.338  -0.147  -0.153
    1UNL    H20   48   0.324   0.102  -0.078
    1UNL    H21   49   0.581   0.057   0.165
    1UNL    H22   50   0.604   0.032  -0.008
    1UNL    H23   51   0.505   0.167   0.050
    1UNL    H24   52   0.218   0.132   0.148
    1UNL    H25   53   0.194  -0.111   0.204
    1UNL    H26   54   0.041  -0.025   0.220
    1UNL    H27   55   0.008  -0.239   0.096
   0.00000   0.00000   0.00000   0.00000   0.00000   0.00000   0.00000   0.00000   0.00000
Generated with MDTraj, t= 1.0
 55
    1UNL     C1    1  -0.036   0.487  -0.034
    1UNL     O1    2  -0.047   0.348  -0.055
    1UNL     C2    3   0.064   0.284  -0.003
    1UNL     O2    4   0.159   0.338   0.050
    1UNL     C3    5   0.073   0.139  -0.018
    1UNL     C4    6  -0.043   0.069  -0.049
    1UNL     N1    7  -0.173   0.118  -0.072
    1UNL     C5    8  -0.269   0.020  -0.019
    1UNL     C6    9  -0.402   0.033   0.023
    1UNL     O3   10  -0.473   0.139  -0.033
    1UNL     C7   11  -0.559   0.210   0.054
    1UNL     C8   12  -0.464  -0.064   0.103
    1UNL     C9   13  -0.389  -0.173   0.133
    1UNL    C10   14  -0.259  -0.189   0.096
    1UNL    C11   15  -0.196  -0.086   0.026
    1UNL    C12   16  -0.054  -0.081  -0.038
    1UNL    C13   17  -0.049  -0.147  -0.176
    1UNL    C14   18   0.072  -0.239  -0.176
    1UNL     N2   19   0.169  -0.207  -0.063
    1UNL    C15   20   0.235  -0.346  -0.035
    1UNL    C16   21   0.260  -0.091  -0.124
    1UNL    C17   22   0.297   0.018  -0.021
    1UNL    C18   23   0.405  -0.037   0.067
    1UNL    C19   24   0.514   0.055   0.127
    1UNL     O4   25   0.398  -0.153   0.093
    1UNL    C20   26   0.183   0.068   0.066
    1UNL    C21   27   0.120  -0.049   0.147
    1UNL    C22   28   0.066  -0.154   0.042
    1UNL     H1   29  -0.003   0.511  -0.136
    1UNL     H2   30   0.029   0.504   0.058
    1UNL     H3   31  -0.126   0.553  -0.025
    1UNL     H4   32  -0.196   0.221  -0.086
    1UNL     H5   33  -0.512   0.250   0.142
    1UNL     H6   34  -0.647   0.140   0.076
    1UNL     H7   35  -0.607   0.294   0.000
    1UNL     H8   36  -0.568  -0.061   0.119
    1UNL     H9   37  -0.438  -0.257   0.187
    1UNL    H10   38  -0.217  -0.292   0.117
    1UNL    H11   39  -0.140  -0.206  -0.197
    1UNL    H12   40  -0.044  -0.074  -0.257
    1UNL    H13   41   0.032  -0.338  -0.166
    1UNL    H14   42   0.111  -0.239  -0.283
    1UNL    H15   43   0.203  -0.383   0.065
    1UNL    H16   44   0.200  -0.410  -0.105
    1UNL    H17   45   0.342  -0.337  -0.048
    1UNL    H18   46   0.201  -0.042  -0.208
    1UNL    H19   47   0.344  -0.132  -0.171
    1UNL    H20   48   0.339   0.100  -0.076
    1UNL    H21   49   0.480   0.068   0.233
    1UNL    H22   50   0.597  -0.006   0.127
    1UNL    H23   51   0.512   0.157   0.084
    1UNL    H24   52   0.226   0.137   0.143
    1UNL    H25   53   0.189  -0.092   0.221
    1UNL    H26   54   0.042  -0.020   0.218
    1UNL    H27   55   0.035  -0.237   0.095
   0.00000   0.00000   0.00000   0.00000   0.00000   0.00000   0.00000   0.00000   0.00000
Generated with MDTraj, t= 2.0
 55
    1UNL     C1    1  -0.048   0.467  -0.035
    1UNL     O1    2  -0.045   0.331  -0.039
    1UNL     C2    3   0.069   0.277   0.005
    1UNL     O2    4   0.170   0.333   0.040
    1UNL     C3    5   0.061   0.131  -0.006
    1UNL     C4    6  -0.047   0.062  -0.058
    1UNL     N1    7  -0.178   0.115  -0.071
    1UNL     C5    8  -0.271   0.016  -0.023
    1UNL     C6    9  -0.399   0.044   0.018
    1UNL     O3   10  -0.455   0.159  -0.037
    1UNL     C7   11  -0.535   0.234   0.056
    1UNL     C8   12  -0.450  -0.055   0.101
    1UNL     C9   13  -0.385  -0.168   0.145
    1UNL    C10   14  -0.258  -0.193   0.104
    1UNL    C11   15  -0.201  -0.097   0.022
    1UNL    C12   16  -0.064  -0.097  -0.047
    1UNL    C13   17  -0.057  -0.157  -0.193
    1UNL    C14   18   0.072  -0.244  -0.191
    1UNL     N2   19   0.157  -0.208  -0.071
    1UNL    C15   20   0.239  -0.332  -0.032
    1UNL    C16   21   0.246  -0.090  -0.113
    1UNL    C17   22   0.290   0.017  -0.006
    1UNL    C18   23   0.412  -0.026   0.073
    1UNL    C19   24   0.495   0.091   0.124
    1UNL     O4   25   0.448  -0.141   0.090
    1UNL    C20   26   0.164   0.055   0.076
    1UNL    C21   27   0.104  -0.067   0.145
    1UNL    C22   28   0.049  -0.163   0.033
    1UNL     H1   29   0.053   0.489  -0.065
    1UNL     H2   30  -0.074   0.503   0.070
    1UNL     H3   31  -0.116   0.511  -0.112
    1UNL     H4   32  -0.191   0.219  -0.051
    1UNL     H5   33  -0.507   0.215   0.158
    1UNL     H6   34  -0.642   0.186   0.037
    1UNL     H7   35  -0.541   0.345   0.039
    1UNL     H8   36  -0.555  -0.048   0.142
    1UNL     H9   37  -0.431  -0.233   0.212
    1UNL    H10   38  -0.202  -0.273   0.134
    1UNL    H11   39  -0.150  -0.201  -0.234
    1UNL    H12   40  -0.036  -0.073  -0.258
    1UNL    H13   41   0.030  -0.344  -0.200
    1UNL    H14   42   0.133  -0.237  -0.287
    1UNL    H15   43   0.200  -0.419  -0.085
    1UNL    H16   44   0.338  -0.313  -0.063
    1UNL    H17   45   0.236  -0.341   0.074
    1UNL    H18   46   0.192  -0.038  -0.200
    1UNL    H19   47   0.331  -0.133  -0.155
    1UNL    H20   48   0.325   0.100  -0.060
    1UNL    H21   49   0.435   0.138   0.206
    1UNL    H22   50   0.580   0.038   0.155
    1UNL    H23   51   0.495   0.169   0.046
    1UNL    H24   52   0.190   0.134   0.155
    1UNL    H25   53   0.178  -0.121   0.206
    1UNL    H26   54   0.033  -0.039   0.222
    1UNL    H27   55   0.017  -0.243   0.086
   0.00000   0.00000   0.00000   0.00000   0.00000   0.00000   0.00000   0.00000   0.00000
Generated with MDTraj, t= 3.0
 55
    1UNL     C1    1  -0.016   0.473  -0.039
    1UNL     O1    2  -0.038   0.341  -0.045
    1UNL     C2    3   0.068   0.269   0.006
    1UNL     O2    4   0.171   0.313   0.056
    1UNL     C3    5   0.054   0.124  -0.003
    1UNL     C4    6  -0.045   0.052  -0.058
    1UNL     N1    7  -0.178   0.097  -0.075
    1UNL     C5    8  -0.272   0.011  -0.034
    1UNL     C6    9  -0.396   0.052   0.021
    1UNL     O3   10  -0.424   0.188   0.015
    1UNL     C7   11  -0.541   0.227   0.083
    1UNL     C8   12  -0.473  -0.044   0.086
    1UNL     C9   13  -0.418  -0.165   0.108
    1UNL    C10   14  -0.294  -0.205   0.067
    1UNL    C11   15  -0.218  -0.116  -0.009
    1UNL    C12   16  -0.062  -0.104  -0.048
    1UNL    C13   17  -0.050  -0.183  -0.183
    1UNL    C14   18   0.081  -0.267  -0.178
    1UNL     N2   19   0.158  -0.211  -0.056
    1UNL    C15   20   0.259  -0.304   0.001
    1UNL    C16   21   0.239  -0.091  -0.120
    1UNL    C17   22   0.283   0.019  -0.016
    1UNL    C18   23   0.415  -0.006   0.056
    1UNL    C19   24   0.482   0.113   0.110
    1UNL     O4   25   0.458  -0.119   0.070
    1UNL    C20   26   0.164   0.049   0.072
    1UNL    C21   27   0.111  -0.068   0.151
    1UNL    C22   28   0.046  -0.164   0.045
    1UNL     H1   29   0.088   0.485  -0.063
    1UNL     H2   30  -0.011   0.500   0.071
    1UNL     H3   31  -0.092   0.536  -0.090
    1UNL     H4   32  -0.196   0.201  -0.065
    1UNL     H5   33  -0.527   0.208   0.190
    1UNL     H6   34  -0.628   0.163   0.037
    1UNL     H7   35  -0.565   0.336   0.064
    1UNL     H8   36  -0.569  -0.029   0.120
    1UNL     H9   37  -0.469  -0.222   0.192
    1UNL    H10   38  -0.241  -0.290   0.121
    1UNL    H11   39  -0.138  -0.247  -0.204
    1UNL    H12   40  -0.052  -0.110  -0.262
    1UNL    H13   41   0.060  -0.375  -0.162
    1UNL    H14   42   0.137  -0.263  -0.277
    1UNL    H15   43   0.355  -0.294  -0.043
    1UNL    H16   44   0.274  -0.295   0.113
    1UNL    H17   45   0.224  -0.400  -0.014
    1UNL    H18   46   0.174  -0.047  -0.203
    1UNL    H19   47   0.325  -0.126  -0.169
    1UNL    H20   48   0.305   0.110  -0.067
    1UNL    H21   49   0.413   0.160   0.179
    1UNL    H22   50   0.570   0.075   0.162
    1UNL    H23   51   0.499   0.185   0.030
    1UNL    H24   52   0.200   0.132   0.146
    1UNL    H25   53   0.186  -0.120   0.213
    1UNL    H26   54   0.036  -0.038   0.223
    1UNL    H27   55   0.015  -0.244   0.101
   0.00000   0.00000   0.00000   0.00000   0.00000   0.00000   0.00000   0.00000   0.00000
Generated with MDTraj, t= 4.0
 55
    1UNL     C1    1  -0.024   0.494  -0.060
    1UNL     O1    2  -0.031   0.354  -0.075
    1UNL     C2    3   0.071   0.285  -0.007
    1UNL     O2    4   0.155   0.340   0.060
    1UNL     C3    5   0.077   0.137  -0.005
    1UNL     C4    6  -0.034   0.067  -0.043
    1UNL     N1    7  -0.160   0.123  -0.041
    1UNL     C5    8  -0.261   0.025   0.000
    1UNL     C6    9  -0.397   0.043   0.041
    1UNL     O3   10  -0.438   0.179   0.034
    1UNL     C7   11  -0.564   0.206   0.087
    1UNL     C8   12  -0.472  -0.067   0.075
    1UNL     C9   13  -0.419  -0.195   0.067
    1UNL    C10   14  -0.287  -0.208   0.025
    1UNL    C11   15  -0.202  -0.102   0.009
    1UNL    C12   16  -0.057  -0.086  -0.042
    1UNL    C13   17  -0.046  -0.161  -0.180
    1UNL    C14   18   0.063  -0.264  -0.167
    1UNL     N2   19   0.150  -0.226  -0.043
    1UNL    C15   20   0.213  -0.345   0.020
    1UNL    C16   21   0.252  -0.126  -0.106
    1UNL    C17   22   0.289   0.011  -0.034
    1UNL    C18   23   0.418  -0.010   0.047
    1UNL    C19   24   0.486   0.111   0.092
    1UNL     O4   25   0.452  -0.122   0.074
    1UNL    C20   26   0.182   0.060   0.064
    1UNL    C21   27   0.122  -0.064   0.149
    1UNL    C22   28   0.042  -0.161   0.050
    1UNL     H1   29   0.053   0.532  -0.120
    1UNL     H2   30   0.025   0.511   0.039
    1UNL     H3   31  -0.126   0.536  -0.068
    1UNL     H4   32  -0.172   0.222  -0.046
    1UNL     H5   33  -0.591   0.124   0.153
    1UNL     H6   34  -0.641   0.224   0.004
    1UNL     H7   35  -0.553   0.295   0.154
    1UNL     H8   36  -0.579  -0.054   0.105
    1UNL     H9   37  -0.471  -0.282   0.086
    1UNL    H10   38  -0.248  -0.307   0.022
    1UNL    H11   39  -0.138  -0.216  -0.209
    1UNL    H12   40  -0.018  -0.094  -0.261
    1UNL    H13   41   0.028  -0.371  -0.136
    1UNL    H14   42   0.125  -0.279  -0.258
    1UNL    H15   43   0.237  -0.333   0.121
    1UNL    H16   44   0.143  -0.434   0.020
    1UNL    H17   45   0.300  -0.374  -0.031
    1UNL    H18   46   0.220  -0.094  -0.209
    1UNL    H19   47   0.343  -0.184  -0.122
    1UNL    H20   48   0.313   0.089  -0.100
    1UNL    H21   49   0.439   0.157   0.172
    1UNL    H22   50   0.587   0.087   0.138
    1UNL    H23   51   0.510   0.181   0.014
    1UNL    H24   52   0.241   0.132   0.138
    1UNL    H25   53   0.208  -0.122   0.184
    1UNL    H26   54   0.055  -0.048   0.231
    1UNL    H27   55  -0.011  -0.231   0.109
   0.00000   0.00000   0.00000   0.00000   0.00000   0.00000   0.00000   0.00000   0.00000
Generated with MDTraj, t= 5.0
 55
    1UNL     C1    1  -0.013   0.487  -0.076
    1UNL     O1    2  -0.024   0.349  -0.072
    1UNL     C2    3   0.084   0.284  -0.017
    1UNL     O2    4   0.174   0.351   0.028
    1UNL     C3    5   0.077   0.135  -0.014
    1UNL     C4    6  -0.046   0.081  -0.031
    1UNL     N1    7  -0.168   0.136  -0.017
    1UNL     C5    8  -0.269   0.037   0.004
    1UNL     C6    9  -0.405   0.041   0.033
    1UNL     O3   10  -0.475   0.167   0.045
    1UNL     C7   11  -0.602   0.162   0.107
    1UNL     C8   12  -0.469  -0.087   0.054
    1UNL     C9   13  -0.406  -0.209   0.042
    1UNL    C10   14  -0.268  -0.211   0.020
    1UNL    C11   15  -0.204  -0.088   0.009
    1UNL    C12   16  -0.062  -0.066  -0.033
    1UNL    C13   17  -0.042  -0.119  -0.178
    1UNL    C14   18   0.048  -0.239  -0.165
    1UNL     N2   19   0.143  -0.213  -0.041
    1UNL    C15   20   0.192  -0.333   0.038
    1UNL    C16   21   0.254  -0.122  -0.107
    1UNL    C17   22   0.299   0.002  -0.025
    1UNL    C18   23   0.431  -0.030   0.053
    1UNL    C19   24   0.537   0.075   0.060
    1UNL     O4   25   0.443  -0.139   0.100
    1UNL    C20   26   0.182   0.060   0.065
    1UNL    C21   27   0.129  -0.056   0.153
    1UNL    C22   28   0.041  -0.147   0.061
    1UNL     H1   29   0.087   0.517  -0.076
    1UNL     H2   30  -0.058   0.520   0.021
    1UNL     H3   31  -0.080   0.514  -0.156
    1UNL     H4   32  -0.194   0.229  -0.014
    1UNL     H5   33  -0.583   0.146   0.215
    1UNL     H6   34  -0.667   0.084   0.068
    1UNL     H7   35  -0.650   0.260   0.099
    1UNL     H8   36  -0.575  -0.091   0.055
    1UNL     H9   37  -0.466  -0.304   0.040
    1UNL    H10   38  -0.223  -0.304  -0.004
    1UNL    H11   39  -0.135  -0.155  -0.225
    1UNL    H12   40   0.012  -0.049  -0.241
    1UNL    H13   41  -0.013  -0.338  -0.151
    1UNL    H14   42   0.120  -0.267  -0.245
    1UNL    H15   43   0.120  -0.387   0.096
    1UNL    H16   44   0.233  -0.405  -0.030
    1UNL    H17   45   0.276  -0.301   0.101
    1UNL    H18   46   0.226  -0.084  -0.205
    1UNL    H19   47   0.348  -0.186  -0.125
    1UNL    H20   48   0.331   0.078  -0.087
    1UNL    H21   49   0.563   0.089   0.160
    1UNL    H22   50   0.640   0.052   0.014
    1UNL    H23   51   0.521   0.170   0.014
    1UNL    H24   52   0.231   0.138   0.142
    1UNL    H25   53   0.204  -0.130   0.185
    1UNL    H26   54   0.067  -0.015   0.230
    1UNL    H27   55  -0.006  -0.228   0.117
   0.00000   0.00000   0.00000   0.00000   0.00000   0.00000   0.00000   0.00000   0.00000
Generated with MDTraj, t= 6.0
 55
    1UNL     C1    1   0.035   0.502  -0.077
    1UNL     O1    2  -0.019   0.370  -0.057
    1UNL     C2    3   0.084   0.287  -0.022
    1UNL     O2    4   0.198   0.327  -0.008
    1UNL     C3    5   0.061   0.137  -0.005
    1UNL     C4    6  -0.056   0.073  -0.024
    1UNL     N1    7  -0.182   0.124  -0.021
    1UNL     C5    8  -0.268   0.016   0.010
    1UNL     C6    9  -0.408   0.033   0.034
    1UNL     O3   10  -0.465   0.159   0.045
    1UNL     C7   11  -0.599   0.170   0.096
    1UNL     C8   12  -0.474  -0.089   0.045
    1UNL     C9   13  -0.405  -0.214   0.053
    1UNL    C10   14  -0.269  -0.219   0.041
    1UNL    C11   15  -0.203  -0.103   0.018
    1UNL    C12   16  -0.061  -0.081  -0.022
    1UNL    C13   17  -0.052  -0.130  -0.177
    1UNL    C14   18   0.057  -0.242  -0.169
    1UNL     N2   19   0.152  -0.200  -0.051
    1UNL    C15   20   0.252  -0.304   0.001
    1UNL    C16   21   0.230  -0.083  -0.114
    1UNL    C17   22   0.289   0.021  -0.021
    1UNL    C18   23   0.402  -0.032   0.065
    1UNL    C19   24   0.536   0.029   0.041
    1UNL     O4   25   0.390  -0.121   0.147
    1UNL    C20   26   0.172   0.065   0.070
    1UNL    C21   27   0.118  -0.048   0.154
    1UNL    C22   28   0.052  -0.151   0.056
    1UNL     H1   29   0.137   0.496  -0.101
    1UNL     H2   30   0.015   0.550   0.023
    1UNL     H3   31  -0.024   0.556  -0.150
    1UNL     H4   32  -0.201   0.215   0.005
    1UNL     H5   33  -0.610   0.105   0.183
    1UNL     H6   34  -0.670   0.139   0.025
    1UNL     H7   35  -0.614   0.270   0.130
    1UNL     H8   36  -0.580  -0.080   0.054
    1UNL     H9   37  -0.462  -0.301   0.062
    1UNL    H10   38  -0.201  -0.309   0.040
    1UNL    H11   39  -0.151  -0.166  -0.205
    1UNL    H12   40  -0.014  -0.054  -0.246
    1UNL    H13   41   0.019  -0.349  -0.147
    1UNL    H14   42   0.109  -0.258  -0.269
    1UNL    H15   43   0.220  -0.405  -0.011
    1UNL    H16   44   0.342  -0.293  -0.045
    1UNL    H17   45   0.271  -0.279   0.109
    1UNL    H18   46   0.177  -0.039  -0.197
    1UNL    H19   47   0.325  -0.134  -0.160
    1UNL    H20   48   0.321   0.104  -0.071
    1UNL    H21   49   0.617  -0.028   0.087
    1UNL    H22   50   0.555   0.048  -0.066
    1UNL    H23   51   0.534   0.132   0.072
    1UNL    H24   52   0.213   0.148   0.146
    1UNL    H25   53   0.206  -0.103   0.188
    1UNL    H26   54   0.038  -0.033   0.224
    1UNL    H27   55   0.007  -0.244   0.103
   0.00000   0.00000   0.00000   0.00000   0.00000   0.00000   0.00000   0.00000   0.00000
Generated with MDTraj, t= 7.0
 55
    1UNL     C1    1   0.010   0.478  -0.081
    1UNL     O1    2  -0.029   0.346  -0.051
    1UNL     C2    3   0.082   0.272  -0.018
    1UNL     O2    4   0.197   0.310  -0.017
    1UNL     C3    5   0.063   0.128   0.005
    1UNL     C4    6  -0.047   0.064  -0.041
    1UNL     N1    7  -0.175   0.113  -0.033
    1UNL     C5    8  -0.272   0.022   0.007
    1UNL     C6    9  -0.408   0.038   0.047
    1UNL     O3   10  -0.467   0.166   0.027
    1UNL     C7   11  -0.599   0.178   0.068
    1UNL     C8   12  -0.474  -0.072   0.099
    1UNL     C9   13  -0.411  -0.198   0.097
    1UNL    C10   14  -0.280  -0.220   0.053
    1UNL    C11   15  -0.209  -0.103   0.008
    1UNL    C12   16  -0.068  -0.085  -0.040
    1UNL    C13   17  -0.053  -0.139  -0.191
    1UNL    C14   18   0.083  -0.209  -0.203
    1UNL     N2   19   0.159  -0.185  -0.075
    1UNL    C15   20   0.253  -0.298  -0.035
    1UNL    C16   21   0.249  -0.067  -0.104
    1UNL    C17   22   0.289   0.026   0.010
    1UNL    C18   23   0.410  -0.023   0.090
    1UNL    C19   24   0.542  -0.001   0.023
    1UNL     O4   25   0.402  -0.079   0.198
    1UNL    C20   26   0.169   0.059   0.091
    1UNL    C21   27   0.103  -0.067   0.151
    1UNL    C22   28   0.051  -0.157   0.035
    1UNL     H1   29  -0.000   0.493  -0.186
    1UNL     H2   30   0.112   0.493  -0.030
    1UNL     H3   31  -0.052   0.545  -0.017
    1UNL     H4   32  -0.192   0.206  -0.014
    1UNL     H5   33  -0.615   0.143   0.169
    1UNL     H6   34  -0.659   0.127   0.004
    1UNL     H7   35  -0.623   0.281   0.067
    1UNL     H8   36  -0.567  -0.053   0.157
    1UNL     H9   37  -0.460  -0.285   0.144
    1UNL    H10   38  -0.226  -0.307   0.057
    1UNL    H11   39  -0.127  -0.215  -0.214
    1UNL    H12   40  -0.066  -0.049  -0.252
    1UNL    H13   41   0.072  -0.318  -0.235
    1UNL    H14   42   0.138  -0.172  -0.301
    1UNL    H15   43   0.202  -0.375   0.021
    1UNL    H16   44   0.293  -0.342  -0.121
    1UNL    H17   45   0.333  -0.254   0.023
    1UNL    H18   46   0.201  -0.013  -0.187
    1UNL    H19   47   0.345  -0.108  -0.156
    1UNL    H20   48   0.315   0.112  -0.038
    1UNL    H21   49   0.572  -0.101  -0.017
    1UNL    H22   50   0.525   0.073  -0.045
    1UNL    H23   51   0.608   0.036   0.100
    1UNL    H24   52   0.210   0.135   0.174
    1UNL    H25   53   0.168  -0.134   0.208
    1UNL    H26   54   0.012  -0.043   0.203
    1UNL    H27   55   0.014  -0.261   0.075
   0.00000   0.00000   0.00000   0.00000   0.00000   0.00000   0.00000   0.00000   0.00000
Generated with MDTraj, t= 8.0
 55
    1UNL     C1    1  -0.030   0.467  -0.079
    1UNL     O1    2  -0.046   0.333  -0.053
    1UNL     C2    3   0.071   0.278  -0.004
    1UNL     O2    4   0.173   0.336   0.020
    1UNL     C3    5   0.069   0.135   0.013
    1UNL     C4    6  -0.045   0.067  -0.030
    1UNL     N1    7  -0.172   0.122  -0.061
    1UNL     C5    8  -0.263   0.018  -0.013
    1UNL     C6    9  -0.392   0.039   0.037
    1UNL     O3   10  -0.449   0.168   0.022
    1UNL     C7   11  -0.584   0.177   0.048
    1UNL     C8   12  -0.455  -0.062   0.110
    1UNL     C9   13  -0.391  -0.186   0.133
    1UNL    C10   14  -0.262  -0.206   0.079
    1UNL    C11   15  -0.202  -0.110   0.004
    1UNL    C12   16  -0.061  -0.085  -0.045
    1UNL    C13   17  -0.043  -0.128  -0.194
    1UNL    C14   18   0.079  -0.213  -0.205
    1UNL     N2   19   0.159  -0.189  -0.083
    1UNL    C15   20   0.235  -0.318  -0.048
    1UNL    C16   21   0.248  -0.074  -0.123
    1UNL    C17   22   0.289   0.014   0.001
    1UNL    C18   23   0.400  -0.035   0.087
    1UNL    C19   24   0.539  -0.023   0.034
    1UNL     O4   25   0.378  -0.071   0.200
    1UNL    C20   26   0.176   0.060   0.089
    1UNL    C21   27   0.111  -0.064   0.152
    1UNL    C22   28   0.058  -0.150   0.032
    1UNL     H1   29  -0.125   0.507  -0.109
    1UNL     H2   30   0.058   0.477  -0.152
    1UNL     H3   31   0.023   0.510   0.012
    1UNL     H4   32  -0.198   0.215  -0.035
    1UNL     H5   33  -0.611   0.183   0.154
    1UNL     H6   34  -0.627   0.095   0.006
    1UNL     H7   35  -0.622   0.264   0.001
    1UNL     H8   36  -0.546  -0.032   0.148
    1UNL     H9   37  -0.434  -0.258   0.201
    1UNL    H10   38  -0.208  -0.302   0.097
    1UNL    H11   39  -0.137  -0.175  -0.221
    1UNL    H12   40  -0.029  -0.035  -0.251
    1UNL    H13   41   0.051  -0.321  -0.226
    1UNL    H14   42   0.134  -0.192  -0.309
    1UNL    H15   43   0.170  -0.400  -0.067
    1UNL    H16   44   0.322  -0.332  -0.115
    1UNL    H17   45   0.267  -0.320   0.049
    1UNL    H18   46   0.183  -0.013  -0.190
    1UNL    H19   47   0.328  -0.103  -0.200
    1UNL    H20   48   0.331   0.091  -0.050
    1UNL    H21   49   0.540  -0.084  -0.058
    1UNL    H22   50   0.562   0.079   0.028
    1UNL    H23   51   0.597  -0.078   0.108
    1UNL    H24   52   0.226   0.127   0.175
    1UNL    H25   53   0.165  -0.135   0.217
    1UNL    H26   54   0.024  -0.025   0.201
    1UNL    H27   55   0.023  -0.251   0.083
   0.00000   0.00000   0.00000   0.00000   0.00000   0.00000   0.00000   0.00000   0.00000
Generated with MDTraj, t= 9.0
 55
    1UNL     C1    1  -0.020   0.497  -0.045
    1UNL     O1    2  -0.029   0.357  -0.075
    1UNL     C2    3   0.062   0.288  -0.002
    1UNL     O2    4   0.134   0.345   0.077
    1UNL     C3    5   0.065   0.142  -0.016
    1UNL     C4    6  -0.044   0.067  -0.054
    1UNL     N1    7  -0.176   0.114  -0.056
    1UNL     C5    8  -0.266   0.020  -0.008
    1UNL     C6    9  -0.400   0.045   0.035
    1UNL     O3   10  -0.459   0.170   0.012
    1UNL     C7   11  -0.591   0.173   0.049
    1UNL     C8   12  -0.463  -0.064   0.097
    1UNL     C9   13  -0.388  -0.182   0.121
    1UNL    C10   14  -0.253  -0.202   0.081
    1UNL    C11   15  -0.198  -0.098   0.017
    1UNL    C12   16  -0.058  -0.090  -0.046
    1UNL    C13   17  -0.049  -0.164  -0.184
    1UNL    C14   18   0.083  -0.249  -0.181
    1UNL     N2   19   0.164  -0.194  -0.067
    1UNL    C15   20   0.245  -0.297  -0.004
    1UNL    C16   21   0.242  -0.079  -0.128
    1UNL    C17   22   0.302   0.013  -0.023
    1UNL    C18   23   0.403  -0.051   0.067
    1UNL    C19   24   0.550  -0.025   0.033
    1UNL     O4   25   0.387  -0.118   0.164
    1UNL    C20   26   0.180   0.069   0.059
    1UNL    C21   27   0.108  -0.037   0.140
    1UNL    C22   28   0.062  -0.145   0.038
    1UNL     H1   29  -0.105   0.527   0.010
    1UNL     H2   30  -0.008   0.554  -0.141
    1UNL     H3   31   0.078   0.515   0.005
    1UNL     H4   32  -0.191   0.212  -0.020
    1UNL     H5   33  -0.614   0.149   0.156
    1UNL     H6   34  -0.642   0.103  -0.009
    1UNL     H7   35  -0.629   0.274   0.031
    1UNL     H8   36  -0.565  -0.065   0.143
    1UNL     H9   37  -0.443  -0.269   0.149
    1UNL    H10   38  -0.211  -0.297   0.092
    1UNL    H11   39  -0.136  -0.226  -0.196
    1UNL    H12   40  -0.050  -0.080  -0.255
    1UNL    H13   41   0.061  -0.362  -0.176
    1UNL    H14   42   0.143  -0.241  -0.281
    1UNL    H15   43   0.180  -0.362   0.045
    1UNL    H16   44   0.299  -0.359  -0.078
    1UNL    H17   45   0.315  -0.264   0.067
    1UNL    H18   46   0.162  -0.021  -0.185
    1UNL    H19   47   0.304  -0.120  -0.209
    1UNL    H20   48   0.353   0.090  -0.069
    1UNL    H21   49   0.566   0.002  -0.069
    1UNL    H22   50   0.588   0.058   0.095
    1UNL    H23   51   0.607  -0.117   0.041
    1UNL    H24   52   0.224   0.147   0.135
    1UNL    H25   53   0.176  -0.077   0.214
    1UNL    H26   54   0.013  -0.016   0.188
    1UNL    H27   55   0.028  -0.236   0.107
   0.00000   0.00000   0.00000   0.00000   0.00000   0.00000   0.00000   0.00000   0.00000
Generated with MDTraj, t= 10.0
 55
    1UNL     C1    1  -0.039   0.484  -0.038
    1UNL     O1    2  -0.025   0.348  -0.075
    1UNL     C2    3   0.068   0.293   0.008
    1UNL     O2    4   0.131   0.353   0.095
    1UNL     C3    5   0.073   0.144  -0.002
    1UNL     C4    6  -0.032   0.075  -0.047
    1UNL     N1    7  -0.163   0.125  -0.042
    1UNL     C5    8  -0.258   0.026  -0.002
    1UNL     C6    9  -0.394   0.049   0.023
    1UNL     O3   10  -0.459   0.172   0.002
    1UNL     C7   11  -0.592   0.188   0.053
    1UNL     C8   12  -0.460  -0.062   0.076
    1UNL     C9   13  -0.399  -0.185   0.086
    1UNL    C10   14  -0.264  -0.203   0.061
    1UNL    C11   15  -0.195  -0.095   0.009
    1UNL    C12   16  -0.054  -0.080  -0.041
    1UNL    C13   17  -0.051  -0.159  -0.178
    1UNL    C14   18   0.056  -0.268  -0.161
    1UNL     N2   19   0.144  -0.226  -0.047
    1UNL    C15   20   0.223  -0.325   0.025
    1UNL    C16   21   0.244  -0.120  -0.107
    1UNL    C17   22   0.294  -0.000  -0.032
    1UNL    C18   23   0.422  -0.027   0.045
    1UNL    C19   24   0.543   0.042   0.000
    1UNL     O4   25   0.430  -0.107   0.134
    1UNL    C20   26   0.185   0.061   0.062
    1UNL    C21   27   0.122  -0.050   0.141
    1UNL    C22   28   0.049  -0.149   0.046
    1UNL     H1   29  -0.014   0.501   0.061
    1UNL     H2   30  -0.143   0.514  -0.057
    1UNL     H3   31   0.029   0.541  -0.102
    1UNL     H4   32  -0.176   0.229  -0.017
    1UNL     H5   33  -0.606   0.165   0.163
    1UNL     H6   34  -0.660   0.119   0.002
    1UNL     H7   35  -0.625   0.293   0.036
    1UNL     H8   36  -0.564  -0.066   0.092
    1UNL     H9   37  -0.461  -0.276   0.112
    1UNL    H10   38  -0.219  -0.303   0.063
    1UNL    H11   39  -0.144  -0.211  -0.187
    1UNL    H12   40  -0.031  -0.081  -0.253
    1UNL    H13   41   0.011  -0.369  -0.120
    1UNL    H14   42   0.114  -0.294  -0.255
    1UNL    H15   43   0.303  -0.358  -0.032
    1UNL    H16   44   0.263  -0.292   0.118
    1UNL    H17   45   0.159  -0.415   0.044
    1UNL    H18   46   0.190  -0.079  -0.203
    1UNL    H19   47   0.330  -0.172  -0.144
    1UNL    H20   48   0.316   0.076  -0.101
    1UNL    H21   49   0.531   0.140  -0.037
    1UNL    H22   50   0.609   0.068   0.090
    1UNL    H23   51   0.596  -0.003  -0.077
    1UNL    H24   52   0.225   0.141   0.139
    1UNL    H25   53   0.190  -0.114   0.194
    1UNL    H26   54   0.054  -0.011   0.216
    1UNL    H27   55   0.002  -0.233   0.114
   0.00000   0.00000   0.00000   0.00000   0.00000   0.00000   0.00000   0.00000   0.00000
Generated with MDTraj, t= 11.0
 55
    1UNL     C1    1  -0.013   0.477  -0.032
    1UNL     O1    2  -0.043   0.340  -0.032
    1UNL     C2    3   0.074   0.274   0.003
    1UNL     O2    4   0.172   0.332   0.039
    1UNL     C3    5   0.073   0.130   0.007
    1UNL     C4    6  -0.039   0.058  -0.031
    1UNL     N1    7  -0.168   0.113  -0.046
    1UNL     C5    8  -0.270   0.021  -0.009
    1UNL     C6    9  -0.406   0.045   0.021
    1UNL     O3   10  -0.443   0.184   0.015
    1UNL     C7   11  -0.576   0.218   0.040
    1UNL     C8   12  -0.489  -0.070   0.049
    1UNL     C9   13  -0.432  -0.196   0.071
    1UNL    C10   14  -0.302  -0.211   0.045
    1UNL    C11   15  -0.213  -0.104   0.007
    1UNL    C12   16  -0.060  -0.090  -0.020
    1UNL    C13   17  -0.036  -0.146  -0.162
    1UNL    C14   18   0.049  -0.262  -0.150
    1UNL     N2   19   0.151  -0.227  -0.032
    1UNL    C15   20   0.217  -0.343   0.029
    1UNL    C16   21   0.254  -0.136  -0.095
    1UNL    C17   22   0.286   0.006  -0.031
    1UNL    C18   23   0.430   0.006   0.023
    1UNL    C19   24   0.527   0.117   0.004
    1UNL     O4   25   0.448  -0.092   0.091
    1UNL    C20   26   0.187   0.061   0.075
    1UNL    C21   27   0.137  -0.058   0.157
    1UNL    C22   28   0.053  -0.158   0.068
    1UNL     H1   29   0.046   0.508   0.048
    1UNL     H2   30  -0.114   0.521  -0.035
    1UNL     H3   31   0.052   0.503  -0.118
    1UNL     H4   32  -0.186   0.214  -0.068
    1UNL     H5   33  -0.602   0.188   0.145
    1UNL     H6   34  -0.646   0.167  -0.033
    1UNL     H7   35  -0.575   0.332   0.029
    1UNL     H8   36  -0.590  -0.049   0.078
    1UNL     H9   37  -0.491  -0.274   0.099
    1UNL    H10   38  -0.260  -0.307   0.066
    1UNL    H11   39  -0.132  -0.171  -0.202
    1UNL    H12   40   0.021  -0.075  -0.223
    1UNL    H13   41  -0.011  -0.362  -0.126
    1UNL    H14   42   0.115  -0.287  -0.237
    1UNL    H15   43   0.285  -0.320   0.106
    1UNL    H16   44   0.145  -0.411   0.060
    1UNL    H17   45   0.276  -0.388  -0.057
    1UNL    H18   46   0.230  -0.111  -0.206
    1UNL    H19   47   0.350  -0.182  -0.096
    1UNL    H20   48   0.286   0.084  -0.103
    1UNL    H21   49   0.527   0.192   0.080
    1UNL    H22   50   0.632   0.078   0.021
    1UNL    H23   51   0.516   0.160  -0.091
    1UNL    H24   52   0.253   0.130   0.143
    1UNL    H25   53   0.218  -0.107   0.210
    1UNL    H26   54   0.069  -0.037   0.240
    1UNL    H27   55  -0.003  -0.230   0.139
   0.00000   0.00000   0.00000   0.00000   0.00000   0.00000   0.00000   0.00000   0.00000
Generated with MDTraj, t= 12.0
 55
    1UNL     C1    1   0.023   0.481  -0.016
    1UNL     O1    2  -0.015   0.343  -0.005
    1UNL     C2    3   0.096   0.266  -0.011
    1UNL     O2    4   0.204   0.317  -0.027
    1UNL     C3    5   0.070   0.121   0.004
    1UNL     C4    6  -0.044   0.055  -0.039
    1UNL     N1    7  -0.163   0.121  -0.027
    1UNL     C5    8  -0.262   0.028   0.019
    1UNL     C6    9  -0.402   0.046   0.023
    1UNL     O3   10  -0.458   0.177   0.003
    1UNL     C7   11  -0.597   0.196   0.032
    1UNL     C8   12  -0.481  -0.065   0.047
    1UNL     C9   13  -0.423  -0.188   0.053
    1UNL    C10   14  -0.289  -0.210   0.047
    1UNL    C11   15  -0.204  -0.099   0.029
    1UNL    C12   16  -0.068  -0.093  -0.029
    1UNL    C13   17  -0.056  -0.160  -0.172
    1UNL    C14   18   0.049  -0.266  -0.143
    1UNL     N2   19   0.143  -0.225  -0.030
    1UNL    C15   20   0.212  -0.338   0.031
    1UNL    C16   21   0.247  -0.130  -0.095
    1UNL    C17   22   0.281   0.005  -0.024
    1UNL    C18   23   0.422   0.015   0.030
    1UNL    C19   24   0.479   0.156   0.042
    1UNL     O4   25   0.481  -0.082   0.067
    1UNL    C20   26   0.171   0.050   0.079
    1UNL    C21   27   0.112  -0.068   0.161
    1UNL    C22   28   0.041  -0.163   0.063
    1UNL     H1   29   0.031   0.524   0.080
    1UNL     H2   30  -0.064   0.527  -0.070
    1UNL     H3   31   0.128   0.501  -0.053
    1UNL     H4   32  -0.159   0.211   0.014
    1UNL     H5   33  -0.612   0.162   0.136
    1UNL     H6   34  -0.667   0.136  -0.039
    1UNL     H7   35  -0.605   0.308   0.020
    1UNL     H8   36  -0.590  -0.057   0.054
    1UNL     H9   37  -0.482  -0.281   0.084
    1UNL    H10   38  -0.248  -0.310   0.042
    1UNL    H11   39  -0.149  -0.198  -0.208
    1UNL    H12   40  -0.019  -0.088  -0.244
    1UNL    H13   41   0.002  -0.363  -0.102
    1UNL    H14   42   0.115  -0.297  -0.230
    1UNL    H15   43   0.271  -0.300   0.114
    1UNL    H16   44   0.137  -0.403   0.065
    1UNL    H17   45   0.281  -0.378  -0.043
    1UNL    H18   46   0.220  -0.102  -0.201
    1UNL    H19   47   0.340  -0.184  -0.101
    1UNL    H20   48   0.283   0.086  -0.093
    1UNL    H21   49   0.564   0.156   0.108
    1UNL    H22   50   0.524   0.174  -0.053
    1UNL    H23   51   0.395   0.225   0.056
    1UNL    H24   52   0.217   0.128   0.154
    1UNL    H25   53   0.175  -0.135   0.218
    1UNL    H26   54   0.051  -0.027   0.243
    1UNL    H27   55  -0.004  -0.250   0.119
   0.00000   0.00000   0.00000   0.00000   0.00000   0.00000   0.00000   0.00000   0.00000
Generated with MDTraj, t= 13.0
 55
    1UNL     C1    1   0.038   0.495  -0.023
    1UNL     O1    2  -0.017   0.362  -0.024
    1UNL     C2    3   0.091   0.282  -0.022
    1UNL     O2    4   0.204   0.329  -0.017
    1UNL     C3    5   0.069   0.132  -0.006
    1UNL     C4    6  -0.051   0.069  -0.022
    1UNL     N1    7  -0.180   0.117  -0.028
    1UNL     C5    8  -0.278   0.019   0.004
    1UNL     C6    9  -0.415   0.044   0.027
    1UNL     O3   10  -0.472   0.169   0.007
    1UNL     C7   11  -0.615   0.171   0.020
    1UNL     C8   12  -0.485  -0.071   0.062
    1UNL     C9   13  -0.420  -0.194   0.078
    1UNL    C10   14  -0.282  -0.208   0.062
    1UNL    C11   15  -0.211  -0.104   0.018
    1UNL    C12   16  -0.064  -0.083  -0.022
    1UNL    C13   17  -0.028  -0.133  -0.176
    1UNL    C14   18   0.053  -0.266  -0.156
    1UNL     N2   19   0.143  -0.223  -0.035
    1UNL    C15   20   0.193  -0.351   0.030
    1UNL    C16   21   0.258  -0.134  -0.087
    1UNL    C17   22   0.289  -0.001  -0.028
    1UNL    C18   23   0.429  -0.000   0.036
    1UNL    C19   24   0.486   0.131   0.079
    1UNL     O4   25   0.485  -0.106   0.049
    1UNL    C20   26   0.177   0.054   0.070
    1UNL    C21   27   0.121  -0.055   0.154
    1UNL    C22   28   0.047  -0.151   0.063
    1UNL     H1   29   0.130   0.490   0.033
    1UNL     H2   30  -0.033   0.565   0.027
    1UNL     H3   31   0.079   0.531  -0.123
    1UNL     H4   32  -0.188   0.212  -0.047
    1UNL     H5   33  -0.630   0.134   0.119
    1UNL     H6   34  -0.669   0.102  -0.053
    1UNL     H7   35  -0.637   0.279   0.007
    1UNL     H8   36  -0.590  -0.069   0.070
    1UNL     H9   37  -0.479  -0.276   0.102
    1UNL    H10   38  -0.228  -0.298   0.088
    1UNL    H11   39  -0.112  -0.145  -0.242
    1UNL    H12   40   0.023  -0.049  -0.222
    1UNL    H13   41  -0.020  -0.339  -0.115
    1UNL    H14   42   0.112  -0.310  -0.246
    1UNL    H15   43   0.257  -0.329   0.119
    1UNL    H16   44   0.104  -0.407   0.054
    1UNL    H17   45   0.253  -0.394  -0.040
    1UNL    H18   46   0.249  -0.135  -0.194
    1UNL    H19   47   0.346  -0.194  -0.063
    1UNL    H20   48   0.288   0.076  -0.102
    1UNL    H21   49   0.573   0.148   0.021
    1UNL    H22   50   0.422   0.208   0.060
    1UNL    H23   51   0.500   0.128   0.191
    1UNL    H24   52   0.224   0.132   0.143
    1UNL    H25   53   0.204  -0.099   0.209
    1UNL    H26   54   0.049  -0.029   0.234
    1UNL    H27   55   0.001  -0.228   0.125
   0.00000   0.00000   0.00000   0.00000   0.00000   0.00000   0.00000   0.00000   0.00000
Generated with MDTraj, t= 14.0
 55
    1UNL     C1    1  -0.001   0.475  -0.060
    1UNL     O1    2  -0.033   0.347  -0.038
    1UNL     C2    3   0.084   0.288  -0.002
    1UNL     O2    4   0.190   0.347   0.015
    1UNL     C3    5   0.077   0.143   0.003
    1UNL     C4    6  -0.034   0.079  -0.040
    1UNL     N1    7  -0.163   0.127  -0.041
    1UNL     C5    8  -0.258   0.033   0.005
    1UNL     C6    9  -0.398   0.045   0.033
    1UNL     O3   10  -0.469   0.167   0.013
    1UNL     C7   11  -0.612   0.156   0.012
    1UNL     C8   12  -0.471  -0.070   0.073
    1UNL     C9   13  -0.413  -0.193   0.094
    1UNL    C10   14  -0.277  -0.203   0.062
    1UNL    C11   15  -0.203  -0.093   0.025
    1UNL    C12   16  -0.059  -0.074  -0.034
    1UNL    C13   17  -0.047  -0.138  -0.172
    1UNL    C14   18   0.044  -0.257  -0.159
    1UNL     N2   19   0.141  -0.223  -0.051
    1UNL    C15   20   0.196  -0.344   0.026
    1UNL    C16   21   0.244  -0.117  -0.111
    1UNL    C17   22   0.295   0.003  -0.028
    1UNL    C18   23   0.426  -0.021   0.046
    1UNL    C19   24   0.505   0.098   0.084
    1UNL     O4   25   0.461  -0.132   0.077
    1UNL    C20   26   0.191   0.063   0.079
    1UNL    C21   27   0.122  -0.053   0.153
    1UNL    C22   28   0.052  -0.143   0.050
    1UNL     H1   29   0.055   0.503   0.028
    1UNL     H2   30  -0.095   0.533  -0.073
    1UNL     H3   31   0.059   0.485  -0.155
    1UNL     H4   32  -0.182   0.217  -0.009
    1UNL     H5   33  -0.637   0.148   0.112
    1UNL     H6   34  -0.649   0.068  -0.045
    1UNL     H7   35  -0.643   0.249  -0.032
    1UNL     H8   36  -0.581  -0.069   0.082
    1UNL     H9   37  -0.471  -0.282   0.121
    1UNL    H10   38  -0.231  -0.296   0.082
    1UNL    H11   39  -0.146  -0.155  -0.214
    1UNL    H12   40  -0.010  -0.068  -0.244
    1UNL    H13   41  -0.015  -0.348  -0.142
    1UNL    H14   42   0.107  -0.260  -0.257
    1UNL    H15   43   0.275  -0.308   0.089
    1UNL    H16   44   0.114  -0.382   0.088
    1UNL    H17   45   0.242  -0.415  -0.035
    1UNL    H18   46   0.200  -0.088  -0.200
    1UNL    H19   47   0.338  -0.170  -0.134
    1UNL    H20   48   0.317   0.086  -0.096
    1UNL    H21   49   0.484   0.174   0.015
    1UNL    H22   50   0.493   0.142   0.179
    1UNL    H23   51   0.615   0.075   0.086
    1UNL    H24   52   0.252   0.127   0.154
    1UNL    H25   53   0.185  -0.116   0.217
    1UNL    H26   54   0.051  -0.017   0.230
    1UNL    H27   55   0.006  -0.223   0.104
   0.00000   0.00000   0.00000   0.00000   0.00000   0.00000   0.00000   0.00000   0.00000
Generated with MDTraj, t= 15.0
 55
    1UNL     C1    1  -0.017   0.479  -0.065
    1UNL     O1    2  -0.027   0.339  -0.085
    1UNL     C2    3   0.073   0.284  -0.007
    1UNL     O2    4   0.154   0.353   0.049
    1UNL     C3    5   0.074   0.138   0.003
    1UNL     C4    6  -0.034   0.062  -0.039
    1UNL     N1    7  -0.170   0.108  -0.042
    1UNL     C5    8  -0.264   0.015   0.017
    1UNL     C6    9  -0.403   0.041   0.044
    1UNL     O3   10  -0.444   0.175   0.010
    1UNL     C7   11  -0.582   0.195   0.003
    1UNL     C8   12  -0.476  -0.062   0.096
    1UNL     C9   13  -0.416  -0.188   0.105
    1UNL    C10   14  -0.281  -0.209   0.072
    1UNL    C11   15  -0.199  -0.107   0.033
    1UNL    C12   16  -0.060  -0.091  -0.031
    1UNL    C13   17  -0.049  -0.162  -0.174
    1UNL    C14   18   0.066  -0.258  -0.172
    1UNL     N2   19   0.159  -0.197  -0.059
    1UNL    C15   20   0.241  -0.310  -0.006
    1UNL    C16   21   0.237  -0.078  -0.125
    1UNL    C17   22   0.294   0.022  -0.021
    1UNL    C18   23   0.409  -0.033   0.058
    1UNL    C19   24   0.539   0.043   0.065
    1UNL     O4   25   0.401  -0.131   0.125
    1UNL    C20   26   0.182   0.070   0.076
    1UNL    C21   27   0.120  -0.052   0.149
    1UNL    C22   28   0.057  -0.151   0.052
    1UNL     H1   29  -0.062   0.494   0.030
    1UNL     H2   30  -0.054   0.539  -0.152
    1UNL     H3   31   0.089   0.512  -0.069
    1UNL     H4   32  -0.196   0.208  -0.038
    1UNL     H5   33  -0.628   0.151   0.085
    1UNL     H6   34  -0.615   0.158  -0.093
    1UNL     H7   35  -0.594   0.300   0.006
    1UNL     H8   36  -0.580  -0.044   0.099
    1UNL     H9   37  -0.469  -0.274   0.148
    1UNL    H10   38  -0.243  -0.315   0.072
    1UNL    H11   39  -0.145  -0.211  -0.197
    1UNL    H12   40  -0.051  -0.097  -0.260
    1UNL    H13   41   0.031  -0.361  -0.151
    1UNL    H14   42   0.118  -0.259  -0.273
    1UNL    H15   43   0.334  -0.296   0.035
    1UNL    H16   44   0.187  -0.373   0.063
    1UNL    H17   45   0.271  -0.368  -0.096
    1UNL    H18   46   0.177  -0.021  -0.185
    1UNL    H19   47   0.317  -0.119  -0.190
    1UNL    H20   48   0.329   0.117  -0.076
    1UNL    H21   49   0.531   0.127   0.129
    1UNL    H22   50   0.628  -0.014   0.087
    1UNL    H23   51   0.560   0.078  -0.032
    1UNL    H24   52   0.237   0.143   0.149
    1UNL    H25   53   0.187  -0.113   0.211
    1UNL    H26   54   0.052  -0.014   0.229
    1UNL    H27   55   0.019  -0.234   0.102
   0.00000   0.00000   0.00000   0.00000   0.00000   0.00000   0.00000   0.00000   0.00000
Generated with MDTraj, t= 16.0
 55
    1UNL     C1    1  -0.027   0.461  -0.079
    1UNL     O1    2  -0.026   0.323  -0.094
    1UNL     C2    3   0.066   0.275  -0.002
    1UNL     O2    4   0.129   0.353   0.065
    1UNL     C3    5   0.064   0.130   0.001
    1UNL     C4    6  -0.042   0.055  -0.050
    1UNL     N1    7  -0.170   0.105  -0.067
    1UNL     C5    8  -0.262   0.021   0.000
    1UNL     C6    9  -0.395   0.054   0.047
    1UNL     O3   10  -0.454   0.183   0.024
    1UNL     C7   11  -0.598   0.208   0.023
    1UNL     C8   12  -0.471  -0.056   0.096
    1UNL     C9   13  -0.404  -0.174   0.120
    1UNL    C10   14  -0.271  -0.197   0.089
    1UNL    C11   15  -0.198  -0.099   0.026
    1UNL    C12   16  -0.063  -0.096  -0.040
    1UNL    C13   17  -0.054  -0.161  -0.188
    1UNL    C14   18   0.088  -0.233  -0.195
    1UNL     N2   19   0.166  -0.193  -0.071
    1UNL    C15   20   0.244  -0.322  -0.030
    1UNL    C16   21   0.261  -0.076  -0.114
    1UNL    C17   22   0.300   0.023   0.001
    1UNL    C18   23   0.416  -0.028   0.084
    1UNL    C19   24   0.548  -0.006   0.022
    1UNL     O4   25   0.401  -0.079   0.191
    1UNL    C20   26   0.172   0.057   0.080
    1UNL    C21   27   0.114  -0.070   0.147
    1UNL    C22   28   0.055  -0.163   0.038
    1UNL     H1   29  -0.045   0.478   0.024
    1UNL     H2   30  -0.099   0.506  -0.150
    1UNL     H3   31   0.064   0.507  -0.120
    1UNL     H4   32  -0.189   0.210  -0.057
    1UNL     H5   33  -0.636   0.234   0.118
    1UNL     H6   34  -0.641   0.117  -0.015
    1UNL     H7   35  -0.620   0.283  -0.047
    1UNL     H8   36  -0.572  -0.038   0.131
    1UNL     H9   37  -0.457  -0.250   0.166
    1UNL    H10   38  -0.223  -0.284   0.119
    1UNL    H11   39  -0.130  -0.234  -0.218
    1UNL    H12   40  -0.078  -0.084  -0.257
    1UNL    H13   41   0.083  -0.345  -0.189
    1UNL    H14   42   0.146  -0.204  -0.284
    1UNL    H15   43   0.283  -0.312   0.069
    1UNL    H16   44   0.186  -0.409  -0.018
    1UNL    H17   45   0.339  -0.338  -0.087
    1UNL    H18   46   0.212  -0.017  -0.184
    1UNL    H19   47   0.357  -0.105  -0.159
    1UNL    H20   48   0.329   0.123  -0.056
    1UNL    H21   49   0.625  -0.052   0.083
    1UNL    H22   50   0.548  -0.042  -0.081
    1UNL    H23   51   0.565   0.094   0.023
    1UNL    H24   52   0.215   0.136   0.156
    1UNL    H25   53   0.190  -0.121   0.209
    1UNL    H26   54   0.039  -0.055   0.228
    1UNL    H27   55   0.018  -0.252   0.073
   0.00000   0.00000   0.00000   0.00000   0.00000   0.00000   0.00000   0.00000   0.00000
Generated with MDTraj, t= 17.0
 55
    1UNL     C1    1  -0.004   0.468  -0.083
    1UNL     O1    2  -0.035   0.336  -0.071
    1UNL     C2    3   0.065   0.285   0.005
    1UNL     O2    4   0.152   0.348   0.062
    1UNL     C3    5   0.061   0.139   0.004
    1UNL     C4    6  -0.040   0.069  -0.056
    1UNL     N1    7  -0.170   0.113  -0.076
    1UNL     C5    8  -0.263   0.018  -0.018
    1UNL     C6    9  -0.393   0.039   0.030
    1UNL     O3   10  -0.462   0.158   0.002
    1UNL     C7   11  -0.586   0.193   0.052
    1UNL     C8   12  -0.443  -0.063   0.114
    1UNL     C9   13  -0.382  -0.184   0.131
    1UNL    C10   14  -0.260  -0.204   0.073
    1UNL    C11   15  -0.198  -0.101   0.002
    1UNL    C12   16  -0.055  -0.085  -0.052
    1UNL    C13   17  -0.037  -0.143  -0.199
    1UNL    C14   18   0.075  -0.254  -0.189
    1UNL     N2   19   0.162  -0.200  -0.067
    1UNL    C15   20   0.246  -0.310  -0.002
    1UNL    C16   21   0.241  -0.077  -0.116
    1UNL    C17   22   0.285   0.026  -0.001
    1UNL    C18   23   0.398  -0.030   0.079
    1UNL    C19   24   0.527  -0.059   0.009
    1UNL     O4   25   0.386  -0.042   0.199
    1UNL    C20   26   0.163   0.065   0.092
    1UNL    C21   27   0.101  -0.059   0.149
    1UNL    C22   28   0.055  -0.147   0.036
    1UNL     H1   29  -0.002   0.506   0.015
    1UNL     H2   30  -0.079   0.523  -0.142
    1UNL     H3   31   0.093   0.479  -0.132
    1UNL     H4   32  -0.191   0.216  -0.057
    1UNL     H5   33  -0.593   0.208   0.161
    1UNL     H6   34  -0.656   0.121   0.013
    1UNL     H7   35  -0.614   0.282  -0.003
    1UNL     H8   36  -0.537  -0.056   0.168
    1UNL     H9   37  -0.417  -0.247   0.219
    1UNL    H10   38  -0.198  -0.295   0.085
    1UNL    H11   39  -0.137  -0.173  -0.232
    1UNL    H12   40  -0.006  -0.070  -0.271
    1UNL    H13   41   0.029  -0.355  -0.163
    1UNL    H14   42   0.134  -0.250  -0.279
    1UNL    H15   43   0.316  -0.279   0.080
    1UNL    H16   44   0.175  -0.370   0.044
    1UNL    H17   45   0.309  -0.359  -0.075
    1UNL    H18   46   0.190  -0.022  -0.193
    1UNL    H19   47   0.334  -0.107  -0.164
    1UNL    H20   48   0.310   0.125  -0.064
    1UNL    H21   49   0.526  -0.135  -0.069
    1UNL    H22   50   0.553   0.036  -0.031
    1UNL    H23   51   0.597  -0.088   0.082
    1UNL    H24   52   0.188   0.149   0.171
    1UNL    H25   53   0.176  -0.119   0.208
    1UNL    H26   54   0.023  -0.044   0.226
    1UNL    H27   55   0.021  -0.237   0.071
   0.00000   0.00000   0.00000   0.00000   0.00000   0.00000   0.00000   0.00000   0.00000
Generated with MDTraj, t= 18.0
 55
    1UNL     C1    1   0.002   0.492  -0.050
    1UNL     O1    2  -0.033   0.363  -0.074
    1UNL     C2    3   0.072   0.294  -0.019
    1UNL     O2    4   0.171   0.350   0.025
    1UNL     C3    5   0.069   0.145  -0.018
    1UNL     C4    6  -0.038   0.065  -0.057
    1UNL     N1    7  -0.175   0.106  -0.066
    1UNL     C5    8  -0.270   0.012  -0.011
    1UNL     C6    9  -0.408   0.032   0.026
    1UNL     O3   10  -0.472   0.153  -0.005
    1UNL     C7   11  -0.576   0.176   0.088
    1UNL     C8   12  -0.477  -0.080   0.078
    1UNL     C9   13  -0.404  -0.200   0.099
    1UNL    C10   14  -0.272  -0.213   0.070
    1UNL    C11   15  -0.200  -0.104   0.020
    1UNL    C12   16  -0.062  -0.085  -0.040
    1UNL    C13   17  -0.049  -0.161  -0.174
    1UNL    C14   18   0.070  -0.249  -0.163
    1UNL     N2   19   0.161  -0.188  -0.059
    1UNL    C15   20   0.255  -0.294   0.005
    1UNL    C16   21   0.248  -0.075  -0.120
    1UNL    C17   22   0.303   0.024  -0.013
    1UNL    C18   23   0.402  -0.036   0.081
    1UNL    C19   24   0.538  -0.075   0.025
    1UNL     O4   25   0.378  -0.065   0.195
    1UNL    C20   26   0.182   0.079   0.063
    1UNL    C21   27   0.112  -0.030   0.140
    1UNL    C22   28   0.052  -0.137   0.050
    1UNL     H1   29   0.009   0.503   0.056
    1UNL     H2   30  -0.084   0.563  -0.069
    1UNL     H3   31   0.100   0.514  -0.096
    1UNL     H4   32  -0.187   0.209  -0.069
    1UNL     H5   33  -0.564   0.113   0.183
    1UNL     H6   34  -0.672   0.164   0.040
    1UNL     H7   35  -0.583   0.283   0.119
    1UNL     H8   36  -0.581  -0.078   0.104
    1UNL     H9   37  -0.455  -0.285   0.130
    1UNL    H10   38  -0.218  -0.304   0.097
    1UNL    H11   39  -0.138  -0.216  -0.201
    1UNL    H12   40  -0.030  -0.092  -0.255
    1UNL    H13   41   0.027  -0.348  -0.126
    1UNL    H14   42   0.135  -0.253  -0.249
    1UNL    H15   43   0.304  -0.248   0.093
    1UNL    H16   44   0.196  -0.379   0.040
    1UNL    H17   45   0.331  -0.312  -0.065
    1UNL    H18   46   0.195  -0.020  -0.198
    1UNL    H19   47   0.323  -0.123  -0.178
    1UNL    H20   48   0.362   0.107  -0.078
    1UNL    H21   49   0.565  -0.030  -0.065
    1UNL    H22   50   0.609  -0.036   0.091
    1UNL    H23   51   0.547  -0.186   0.013
    1UNL    H24   52   0.233   0.154   0.138
    1UNL    H25   53   0.187  -0.078   0.209
    1UNL    H26   54   0.031   0.011   0.201
    1UNL    H27   55   0.013  -0.219   0.103
   0.00000   0.00000   0.00000   0.00000   0.00000   0.00000   0.00000   0.00000   0.00000
Generated with MDTraj, t= 19.0
 55
    1UNL     C1    1  -0.045   0.477  -0.061
    1UNL     O1    2  -0.050   0.338  -0.057
    1UNL     C2    3   0.079   0.289  -0.031
    1UNL     O2    4   0.171   0.367  -0.035
    1UNL     C3    5   0.081   0.144  -0.008
    1UNL     C4    6  -0.038   0.076  -0.032
    1UNL     N1    7  -0.170   0.123  -0.024
    1UNL     C5    8  -0.261   0.022   0.005
    1UNL     C6    9  -0.398   0.036   0.020
    1UNL     O3   10  -0.456   0.160   0.005
    1UNL     C7   11  -0.563   0.188   0.098
    1UNL     C8   12  -0.475  -0.073   0.045
    1UNL     C9   13  -0.411  -0.194   0.055
    1UNL    C10   14  -0.276  -0.218   0.037
    1UNL    C11   15  -0.200  -0.104   0.011
    1UNL    C12   16  -0.057  -0.077  -0.029
    1UNL    C13   17  -0.035  -0.140  -0.172
    1UNL    C14   18   0.065  -0.259  -0.160
    1UNL     N2   19   0.150  -0.207  -0.043
    1UNL    C15   20   0.222  -0.314   0.030
    1UNL    C16   21   0.251  -0.099  -0.104
    1UNL    C17   22   0.294   0.012  -0.009
    1UNL    C18   23   0.416  -0.032   0.077
    1UNL    C19   24   0.547  -0.007   0.007
    1UNL     O4   25   0.406  -0.084   0.184
    1UNL    C20   26   0.180   0.070   0.079
    1UNL    C21   27   0.115  -0.049   0.163
    1UNL    C22   28   0.049  -0.148   0.059
    1UNL     H1   29  -0.033   0.521   0.037
    1UNL     H2   30  -0.149   0.518  -0.085
    1UNL     H3   31   0.041   0.509  -0.127
    1UNL     H4   32  -0.191   0.220  -0.020
    1UNL     H5   33  -0.589   0.100   0.170
    1UNL     H6   34  -0.649   0.234   0.050
    1UNL     H7   35  -0.522   0.272   0.163
    1UNL     H8   36  -0.581  -0.063   0.026
    1UNL     H9   37  -0.478  -0.282   0.068
    1UNL    H10   38  -0.238  -0.314   0.038
    1UNL    H11   39  -0.126  -0.177  -0.217
    1UNL    H12   40  -0.008  -0.068  -0.247
    1UNL    H13   41   0.025  -0.356  -0.119
    1UNL    H14   42   0.117  -0.278  -0.253
    1UNL    H15   43   0.292  -0.276   0.103
    1UNL    H16   44   0.142  -0.382   0.075
    1UNL    H17   45   0.273  -0.358  -0.050
    1UNL    H18   46   0.206  -0.063  -0.199
    1UNL    H19   47   0.329  -0.153  -0.147
    1UNL    H20   48   0.340   0.097  -0.079
    1UNL    H21   49   0.592   0.079   0.040
    1UNL    H22   50   0.623  -0.075   0.035
    1UNL    H23   51   0.536  -0.007  -0.104
    1UNL    H24   52   0.236   0.144   0.152
    1UNL    H25   53   0.194  -0.112   0.212
    1UNL    H26   54   0.044  -0.001   0.234
    1UNL    H27   55   0.002  -0.234   0.104
   0.00000   0.00000   0.00000   0.00000   0.00000   0.00000   0.00000   0.00000   0.00000
Generated with MDTraj, t= 20.0
 55
    1UNL     C1    1  -0.011   0.472  -0.085
    1UNL     O1    2  -0.043   0.346  -0.029
    1UNL     C2    3   0.077   0.279  -0.015
    1UNL     O2    4   0.180   0.342  -0.019
    1UNL     C3    5   0.072   0.128  -0.002
    1UNL     C4    6  -0.043   0.062  -0.038
    1UNL     N1    7  -0.171   0.116  -0.036
    1UNL     C5    8  -0.272   0.023  -0.006
    1UNL     C6    9  -0.409   0.047   0.018
    1UNL     O3   10  -0.453   0.179   0.027
    1UNL     C7   11  -0.566   0.197   0.108
    1UNL     C8   12  -0.487  -0.070   0.037
    1UNL     C9   13  -0.438  -0.197   0.038
    1UNL    C10   14  -0.297  -0.212   0.021
    1UNL    C11   15  -0.213  -0.105   0.007
    1UNL    C12   16  -0.062  -0.090  -0.031
    1UNL    C13   17  -0.033  -0.151  -0.167
    1UNL    C14   18   0.067  -0.265  -0.141
    1UNL     N2   19   0.158  -0.220  -0.031
    1UNL    C15   20   0.225  -0.337   0.052
    1UNL    C16   21   0.264  -0.123  -0.096
    1UNL    C17   22   0.296   0.016  -0.024
    1UNL    C18   23   0.418  -0.003   0.055
    1UNL    C19   24   0.529   0.085   0.037
    1UNL     O4   25   0.421  -0.094   0.133
    1UNL    C20   26   0.184   0.063   0.070
    1UNL    C21   27   0.123  -0.048   0.156
    1UNL    C22   28   0.054  -0.147   0.061
    1UNL     H1   29   0.066   0.525  -0.034
    1UNL     H2   30  -0.102   0.539  -0.080
    1UNL     H3   31   0.028   0.449  -0.186
    1UNL     H4   32  -0.186   0.212  -0.030
    1UNL     H5   33  -0.531   0.170   0.215
    1UNL     H6   34  -0.657   0.143   0.079
    1UNL     H7   35  -0.587   0.309   0.106
    1UNL     H8   36  -0.593  -0.064   0.052
    1UNL     H9   37  -0.497  -0.284   0.041
    1UNL    H10   38  -0.256  -0.318   0.005
    1UNL    H11   39  -0.116  -0.176  -0.230
    1UNL    H12   40   0.013  -0.076  -0.231
    1UNL    H13   41   0.019  -0.361  -0.121
    1UNL    H14   42   0.130  -0.282  -0.231
    1UNL    H15   43   0.299  -0.297   0.115
    1UNL    H16   44   0.140  -0.384   0.108
    1UNL    H17   45   0.271  -0.412  -0.012
    1UNL    H18   46   0.246  -0.112  -0.205
    1UNL    H19   47   0.347  -0.184  -0.099
    1UNL    H20   48   0.309   0.112  -0.091
    1UNL    H21   49   0.596   0.078   0.121
    1UNL    H22   50   0.590   0.044  -0.040
    1UNL    H23   51   0.495   0.181   0.001
    1UNL    H24   52   0.231   0.148   0.135
    1UNL    H25   53   0.212  -0.099   0.205
    1UNL    H26   54   0.043  -0.011   0.226
    1UNL    H27   55  -0.004  -0.216   0.127
   0.00000   0.00000   0.00000   0.00000   0.00000   0.00000   0.00000   0.00000   0.00000
Generated with MDTraj, t= 21.0
 55
    1UNL     C1    1   0.027   0.479  -0.051
    1UNL     O1    2  -0.002   0.349  -0.088
    1UNL     C2    3   0.094   0.274  -0.035
    1UNL     O2    4   0.192   0.324   0.013
    1UNL     C3    5   0.066   0.130  -0.012
    1UNL     C4    6  -0.047   0.066  -0.052
    1UNL     N1    7  -0.177   0.118  -0.059
    1UNL     C5    8  -0.265   0.022  -0.006
    1UNL     C6    9  -0.402   0.039   0.026
    1UNL     O3   10  -0.458   0.165   0.021
    1UNL     C7   11  -0.575   0.196   0.091
    1UNL     C8   12  -0.477  -0.076   0.058
    1UNL     C9   13  -0.416  -0.199   0.064
    1UNL    C10   14  -0.278  -0.213   0.047
    1UNL    C11   15  -0.208  -0.103   0.010
    1UNL    C12   16  -0.065  -0.087  -0.042
    1UNL    C13   17  -0.053  -0.168  -0.172
    1UNL    C14   18   0.054  -0.278  -0.146
    1UNL     N2   19   0.143  -0.216  -0.031
    1UNL    C15   20   0.223  -0.327   0.039
    1UNL    C16   21   0.245  -0.118  -0.092
    1UNL    C17   22   0.286   0.010  -0.010
    1UNL    C18   23   0.416   0.001   0.062
    1UNL    C19   24   0.482   0.137   0.088
    1UNL     O4   25   0.465  -0.106   0.086
    1UNL    C20   26   0.166   0.060   0.075
    1UNL    C21   27   0.101  -0.047   0.155
    1UNL    C22   28   0.035  -0.145   0.059
    1UNL     H1   29   0.084   0.499   0.036
    1UNL     H2   30  -0.072   0.528  -0.041
    1UNL     H3   31   0.080   0.522  -0.137
    1UNL     H4   32  -0.189   0.214  -0.043
    1UNL     H5   33  -0.574   0.139   0.188
    1UNL     H6   34  -0.665   0.178   0.032
    1UNL     H7   35  -0.571   0.307   0.115
    1UNL     H8   36  -0.578  -0.062   0.091
    1UNL     H9   37  -0.482  -0.282   0.094
    1UNL    H10   38  -0.236  -0.309   0.045
    1UNL    H11   39  -0.146  -0.197  -0.214
    1UNL    H12   40  -0.011  -0.099  -0.245
    1UNL    H13   41   0.000  -0.367  -0.123
    1UNL    H14   42   0.117  -0.304  -0.235
    1UNL    H15   43   0.314  -0.295   0.084
    1UNL    H16   44   0.166  -0.381   0.113
    1UNL    H17   45   0.248  -0.406  -0.038
    1UNL    H18   46   0.202  -0.085  -0.186
    1UNL    H19   47   0.335  -0.163  -0.116
    1UNL    H20   48   0.292   0.096  -0.087
    1UNL    H21   49   0.595   0.124   0.092
    1UNL    H22   50   0.466   0.201   0.005
    1UNL    H23   51   0.432   0.189   0.163
    1UNL    H24   52   0.206   0.136   0.153
    1UNL    H25   53   0.166  -0.109   0.226
    1UNL    H26   54   0.018   0.006   0.209
    1UNL    H27   55  -0.010  -0.228   0.122
   0.00000   0.00000   0.00000   0.00000   0.00000   0.00000   0.00000   0.00000   0.00000
Generated with MDTraj, t= 22.0
 55
    1UNL     C1    1   0.019   0.482  -0.102
    1UNL     O1    2  -0.030   0.350  -0.066
    1UNL     C2    3   0.075   0.279  -0.011
    1UNL     O2    4   0.176   0.334   0.026
    1UNL     C3    5   0.060   0.134  -0.005
    1UNL     C4    6  -0.045   0.062  -0.053
    1UNL     N1    7  -0.178   0.116  -0.053
    1UNL     C5    8  -0.274   0.022  -0.007
    1UNL     C6    9  -0.408   0.040   0.030
    1UNL     O3   10  -0.464   0.167  -0.003
    1UNL     C7   11  -0.586   0.205   0.059
    1UNL     C8   12  -0.472  -0.064   0.090
    1UNL     C9   13  -0.401  -0.181   0.112
    1UNL    C10   14  -0.268  -0.203   0.075
    1UNL    C11   15  -0.207  -0.101   0.002
    1UNL    C12   16  -0.061  -0.089  -0.045
    1UNL    C13   17  -0.040  -0.154  -0.182
    1UNL    C14   18   0.065  -0.267  -0.157
    1UNL     N2   19   0.149  -0.217  -0.045
    1UNL    C15   20   0.225  -0.325   0.022
    1UNL    C16   21   0.252  -0.118  -0.104
    1UNL    C17   22   0.290   0.004  -0.025
    1UNL    C18   23   0.414  -0.019   0.064
    1UNL    C19   24   0.463   0.095   0.151
    1UNL     O4   25   0.488  -0.114   0.057
    1UNL    C20   26   0.170   0.061   0.074
    1UNL    C21   27   0.109  -0.052   0.152
    1UNL    C22   28   0.043  -0.155   0.047
    1UNL     H1   29  -0.034   0.566  -0.065
    1UNL     H2   30   0.027   0.489  -0.212
    1UNL     H3   31   0.118   0.490  -0.060
    1UNL     H4   32  -0.193   0.212  -0.054
    1UNL     H5   33  -0.567   0.220   0.164
    1UNL     H6   34  -0.659   0.126   0.047
    1UNL     H7   35  -0.630   0.294   0.012
    1UNL     H8   36  -0.572  -0.052   0.128
    1UNL     H9   37  -0.442  -0.261   0.170
    1UNL    H10   38  -0.211  -0.292   0.095
    1UNL    H11   39  -0.130  -0.200  -0.214
    1UNL    H12   40  -0.003  -0.083  -0.255
    1UNL    H13   41   0.016  -0.356  -0.127
    1UNL    H14   42   0.119  -0.290  -0.253
    1UNL    H15   43   0.233  -0.296   0.129
    1UNL    H16   44   0.187  -0.422   0.023
    1UNL    H17   45   0.331  -0.341  -0.013
    1UNL    H18   46   0.220  -0.085  -0.199
    1UNL    H19   47   0.342  -0.172  -0.121
    1UNL    H20   48   0.307   0.085  -0.099
    1UNL    H21   49   0.558   0.136   0.106
    1UNL    H22   50   0.402   0.180   0.169
    1UNL    H23   51   0.475   0.061   0.247
    1UNL    H24   52   0.220   0.123   0.159
    1UNL    H25   53   0.194  -0.106   0.206
    1UNL    H26   54   0.036  -0.025   0.234
    1UNL    H27   55  -0.013  -0.238   0.106
   0.00000   0.00000   0.00000   0.00000   0.00000   0.00000   0.00000   0.00000   0.00000
Generated with MDTraj, t= 23.0
 55
    1UNL     C1    1  -0.023   0.461  -0.108
    1UNL     O1    2  -0.037   0.325  -0.096
    1UNL     C2    3   0.065   0.279  -0.017
    1UNL     O2    4   0.153   0.351   0.015
    1UNL     C3    5   0.064   0.140   0.013
    1UNL     C4    6  -0.039   0.060  -0.032
    1UNL     N1    7  -0.169   0.108  -0.068
    1UNL     C5    8  -0.267   0.021  -0.015
    1UNL     C6    9  -0.399   0.048   0.018
    1UNL     O3   10  -0.450   0.175  -0.004
    1UNL     C7   11  -0.587   0.196   0.033
    1UNL     C8   12  -0.463  -0.052   0.087
    1UNL     C9   13  -0.400  -0.167   0.140
    1UNL    C10   14  -0.272  -0.197   0.106
    1UNL    C11   15  -0.204  -0.098   0.026
    1UNL    C12   16  -0.059  -0.090  -0.024
    1UNL    C13   17  -0.053  -0.156  -0.164
    1UNL    C14   18   0.079  -0.236  -0.180
    1UNL     N2   19   0.164  -0.192  -0.057
    1UNL    C15   20   0.241  -0.317  -0.006
    1UNL    C16   21   0.247  -0.073  -0.113
    1UNL    C17   22   0.297   0.019  -0.005
    1UNL    C18   23   0.414  -0.037   0.066
    1UNL    C19   24   0.478   0.042   0.175
    1UNL     O4   25   0.447  -0.151   0.047
    1UNL    C20   26   0.178   0.068   0.088
    1UNL    C21   27   0.125  -0.062   0.151
    1UNL    C22   28   0.060  -0.158   0.052
    1UNL     H1   29  -0.072   0.492  -0.197
    1UNL     H2   30   0.084   0.495  -0.110
    1UNL     H3   31  -0.078   0.506  -0.025
    1UNL     H4   32  -0.188   0.206  -0.059
    1UNL     H5   33  -0.602   0.173   0.132
    1UNL     H6   34  -0.644   0.127  -0.027
    1UNL     H7   35  -0.625   0.293   0.006
    1UNL     H8   36  -0.562  -0.032   0.121
    1UNL     H9   37  -0.466  -0.240   0.186
    1UNL    H10   38  -0.220  -0.291   0.133
    1UNL    H11   39  -0.127  -0.233  -0.169
    1UNL    H12   40  -0.064  -0.081  -0.241
    1UNL    H13   41   0.062  -0.342  -0.188
    1UNL    H14   42   0.131  -0.207  -0.272
    1UNL    H15   43   0.353  -0.302   0.007
    1UNL    H16   44   0.211  -0.351   0.092
    1UNL    H17   45   0.231  -0.403  -0.070
    1UNL    H18   46   0.195  -0.022  -0.187
    1UNL    H19   47   0.332  -0.121  -0.161
    1UNL    H20   48   0.337   0.110  -0.045
    1UNL    H21   49   0.584   0.026   0.194
    1UNL    H22   50   0.474   0.149   0.166
    1UNL    H23   51   0.416   0.027   0.262
    1UNL    H24   52   0.217   0.134   0.173
    1UNL    H25   53   0.203  -0.117   0.214
    1UNL    H26   54   0.046  -0.043   0.231
    1UNL    H27   55   0.030  -0.252   0.115
   0.00000   0.00000   0.00000   0.00000   0.00000   0.00000   0.00000   0.00000   0.00000
Generated with MDTraj, t= 24.0
 55
    1UNL     C1    1  -0.027   0.467  -0.101
    1UNL     O1    2  -0.024   0.325  -0.109
    1UNL     C2    3   0.079   0.279  -0.025
    1UNL     O2    4   0.151   0.352   0.035
    1UNL     C3    5   0.077   0.131  -0.013
    1UNL     C4    6  -0.039   0.062  -0.038
    1UNL     N1    7  -0.168   0.121  -0.036
    1UNL     C5    8  -0.259   0.024   0.016
    1UNL     C6    9  -0.394   0.048   0.043
    1UNL     O3   10  -0.445   0.168  -0.011
    1UNL     C7   11  -0.585   0.191  -0.000
    1UNL     C8   12  -0.460  -0.053   0.120
    1UNL     C9   13  -0.398  -0.177   0.132
    1UNL    C10   14  -0.269  -0.201   0.093
    1UNL    C11   15  -0.197  -0.098   0.034
    1UNL    C12   16  -0.057  -0.090  -0.032
    1UNL    C13   17  -0.072  -0.170  -0.161
    1UNL    C14   18   0.059  -0.240  -0.181
    1UNL     N2   19   0.159  -0.192  -0.070
    1UNL    C15   20   0.240  -0.316  -0.025
    1UNL    C16   21   0.246  -0.078  -0.125
    1UNL    C17   22   0.298   0.022  -0.016
    1UNL    C18   23   0.410  -0.037   0.079
    1UNL    C19   24   0.459   0.050   0.194
    1UNL     O4   25   0.455  -0.150   0.068
    1UNL    C20   26   0.180   0.066   0.076
    1UNL    C21   27   0.119  -0.056   0.150
    1UNL    C22   28   0.064  -0.145   0.041
    1UNL     H1   29  -0.038   0.509  -0.199
    1UNL     H2   30   0.068   0.509  -0.055
    1UNL     H3   31  -0.115   0.497  -0.043
    1UNL     H4   32  -0.182   0.225  -0.021
    1UNL     H5   33  -0.615   0.174   0.096
    1UNL     H6   34  -0.626   0.109  -0.056
    1UNL     H7   35  -0.622   0.282  -0.044
    1UNL     H8   36  -0.566  -0.043   0.148
    1UNL     H9   37  -0.463  -0.262   0.160
    1UNL    H10   38  -0.226  -0.295   0.090
    1UNL    H11   39  -0.159  -0.233  -0.154
    1UNL    H12   40  -0.084  -0.094  -0.236
    1UNL    H13   41   0.052  -0.348  -0.170
    1UNL    H14   42   0.101  -0.226  -0.280
    1UNL    H15   43   0.255  -0.391  -0.103
    1UNL    H16   44   0.344  -0.275   0.003
    1UNL    H17   45   0.195  -0.354   0.065
    1UNL    H18   46   0.182  -0.034  -0.193
    1UNL    H19   47   0.324  -0.125  -0.183
    1UNL    H20   48   0.332   0.107  -0.065
    1UNL    H21   49   0.522  -0.000   0.261
    1UNL    H22   50   0.519   0.126   0.149
    1UNL    H23   51   0.367   0.096   0.240
    1UNL    H24   52   0.211   0.155   0.139
    1UNL    H25   53   0.179  -0.116   0.226
    1UNL    H26   54   0.028  -0.023   0.212
    1UNL    H27   55   0.038  -0.241   0.104
   0.00000   0.00000   0.00000   0.00000   0.00000   0.00000   0.00000   0.00000   0.00000
Generated with MDTraj, t= 25.0
 55
    1UNL     C1    1   0.015   0.479  -0.092
    1UNL     O1    2  -0.024   0.344  -0.090
    1UNL     C2    3   0.074   0.281  -0.016
    1UNL     O2    4   0.167   0.338   0.037
    1UNL     C3    5   0.063   0.135  -0.005
    1UNL     C4    6  -0.044   0.067  -0.051
    1UNL     N1    7  -0.178   0.116  -0.062
    1UNL     C5    8  -0.277   0.024  -0.016
    1UNL     C6    9  -0.403   0.043   0.040
    1UNL     O3   10  -0.474   0.166   0.039
    1UNL     C7   11  -0.605   0.174   0.002
    1UNL     C8   12  -0.461  -0.060   0.109
    1UNL     C9   13  -0.394  -0.175   0.132
    1UNL    C10   14  -0.263  -0.200   0.081
    1UNL    C11   15  -0.207  -0.096   0.002
    1UNL    C12   16  -0.058  -0.083  -0.046
    1UNL    C13   17  -0.041  -0.147  -0.192
    1UNL    C14   18   0.063  -0.258  -0.166
    1UNL     N2   19   0.154  -0.205  -0.047
    1UNL    C15   20   0.225  -0.326   0.006
    1UNL    C16   21   0.255  -0.101  -0.105
    1UNL    C17   22   0.291   0.009  -0.008
    1UNL    C18   23   0.425  -0.026   0.070
    1UNL    C19   24   0.485   0.073   0.162
    1UNL     O4   25   0.474  -0.136   0.062
    1UNL    C20   26   0.173   0.066   0.070
    1UNL    C21   27   0.100  -0.047   0.151
    1UNL    C22   28   0.044  -0.147   0.046
    1UNL     H1   29  -0.064   0.535  -0.139
    1UNL     H2   30   0.112   0.487  -0.148
    1UNL     H3   31   0.024   0.517   0.013
    1UNL     H4   32  -0.190   0.222  -0.052
    1UNL     H5   33  -0.662   0.146   0.084
    1UNL     H6   34  -0.627   0.107  -0.081
    1UNL     H7   35  -0.621   0.274  -0.032
    1UNL     H8   36  -0.549  -0.049   0.167
    1UNL     H9   37  -0.439  -0.250   0.187
    1UNL    H10   38  -0.216  -0.299   0.100
    1UNL    H11   39  -0.137  -0.182  -0.225
    1UNL    H12   40  -0.008  -0.068  -0.256
    1UNL    H13   41   0.026  -0.359  -0.142
    1UNL    H14   42   0.128  -0.283  -0.246
    1UNL    H15   43   0.172  -0.365   0.090
    1UNL    H16   44   0.228  -0.402  -0.078
    1UNL    H17   45   0.330  -0.292   0.033
    1UNL    H18   46   0.218  -0.067  -0.199
    1UNL    H19   47   0.345  -0.156  -0.131
    1UNL    H20   48   0.314   0.089  -0.070
    1UNL    H21   49   0.586   0.053   0.165
    1UNL    H22   50   0.471   0.175   0.128
    1UNL    H23   51   0.431   0.046   0.259
    1UNL    H24   52   0.223   0.144   0.134
    1UNL    H25   53   0.178  -0.092   0.217
    1UNL    H26   54   0.010  -0.022   0.220
    1UNL    H27   55  -0.003  -0.243   0.094
   0.00000   0.00000   0.00000   0.00000   0.00000   0.00000   0.00000   0.00000   0.00000
Generated with MDTraj, t= 26.0
 55
    1UNL     C1    1   0.016   0.486  -0.074
    1UNL     O1    2  -0.024   0.356  -0.060
    1UNL     C2    3   0.086   0.285  -0.013
    1UNL     O2    4   0.194   0.333   0.017
    1UNL     C3    5   0.063   0.137  -0.005
    1UNL     C4    6  -0.040   0.060  -0.056
    1UNL     N1    7  -0.172   0.116  -0.049
    1UNL     C5    8  -0.255   0.029   0.017
    1UNL     C6    9  -0.394   0.048   0.046
    1UNL     O3   10  -0.448   0.173   0.023
    1UNL     C7   11  -0.591   0.166   0.004
    1UNL     C8   12  -0.464  -0.067   0.086
    1UNL     C9   13  -0.408  -0.193   0.093
    1UNL    C10   14  -0.276  -0.209   0.052
    1UNL    C11   15  -0.205  -0.102   0.015
    1UNL    C12   16  -0.061  -0.090  -0.036
    1UNL    C13   17  -0.044  -0.165  -0.176
    1UNL    C14   18   0.066  -0.263  -0.158
    1UNL     N2   19   0.153  -0.213  -0.040
    1UNL    C15   20   0.229  -0.321   0.032
    1UNL    C16   21   0.243  -0.107  -0.111
    1UNL    C17   22   0.283   0.017  -0.017
    1UNL    C18   23   0.403  -0.015   0.061
    1UNL    C19   24   0.485   0.100   0.109
    1UNL     O4   25   0.424  -0.132   0.076
    1UNL    C20   26   0.172   0.071   0.073
    1UNL    C21   27   0.103  -0.046   0.152
    1UNL    C22   28   0.043  -0.150   0.054
    1UNL     H1   29  -0.071   0.543  -0.049
    1UNL     H2   30   0.050   0.500  -0.179
    1UNL     H3   31   0.094   0.507   0.001
    1UNL     H4   32  -0.174   0.221  -0.045
    1UNL     H5   33  -0.603   0.077  -0.058
    1UNL     H6   34  -0.630   0.254  -0.054
    1UNL     H7   35  -0.645   0.160   0.097
    1UNL     H8   36  -0.566  -0.049   0.117
    1UNL     H9   37  -0.464  -0.280   0.143
    1UNL    H10   38  -0.240  -0.308   0.055
    1UNL    H11   39  -0.138  -0.215  -0.197
    1UNL    H12   40  -0.020  -0.096  -0.253
    1UNL    H13   41   0.028  -0.358  -0.115
    1UNL    H14   42   0.119  -0.301  -0.242
    1UNL    H15   43   0.240  -0.283   0.136
    1UNL    H16   44   0.178  -0.414   0.040
    1UNL    H17   45   0.337  -0.329  -0.008
    1UNL    H18   46   0.188  -0.070  -0.202
    1UNL    H19   47   0.327  -0.157  -0.154
    1UNL    H20   48   0.308   0.093  -0.082
    1UNL    H21   49   0.502   0.170   0.031
    1UNL    H22   50   0.426   0.168   0.171
    1UNL    H23   51   0.576   0.070   0.162
    1UNL    H24   52   0.207   0.142   0.150
    1UNL    H25   53   0.173  -0.111   0.212
    1UNL    H26   54   0.027   0.001   0.225
    1UNL    H27   55  -0.001  -0.244   0.108
   0.00000   0.00000   0.00000   0.00000   0.00000   0.00000   0.00000   0.00000   0.00000
Generated with MDTraj, t= 27.0
 55
    1UNL     C1    1  -0.025   0.476  -0.047
    1UNL     O1    2  -0.041   0.335  -0.049
    1UNL     C2    3   0.083   0.277  -0.034
    1UNL     O2    4   0.186   0.337  -0.022
    1UNL     C3    5   0.076   0.132  -0.012
    1UNL     C4    6  -0.043   0.066  -0.025
    1UNL     N1    7  -0.172   0.111  -0.032
    1UNL     C5    8  -0.272   0.022   0.013
    1UNL     C6    9  -0.411   0.041   0.028
    1UNL     O3   10  -0.452   0.175   0.023
    1UNL     C7   11  -0.592   0.199  -0.003
    1UNL     C8   12  -0.489  -0.069   0.054
    1UNL     C9   13  -0.435  -0.194   0.066
    1UNL    C10   14  -0.293  -0.211   0.062
    1UNL    C11   15  -0.211  -0.103   0.034
    1UNL    C12   16  -0.064  -0.084  -0.018
    1UNL    C13   17  -0.048  -0.145  -0.163
    1UNL    C14   18   0.060  -0.252  -0.157
    1UNL     N2   19   0.161  -0.210  -0.042
    1UNL    C15   20   0.227  -0.329   0.022
    1UNL    C16   21   0.260  -0.112  -0.106
    1UNL    C17   22   0.298   0.018  -0.021
    1UNL    C18   23   0.423  -0.011   0.067
    1UNL    C19   24   0.542   0.082   0.060
    1UNL     O4   25   0.431  -0.113   0.131
    1UNL    C20   26   0.184   0.063   0.068
    1UNL    C21   27   0.131  -0.055   0.154
    1UNL    C22   28   0.060  -0.152   0.064
    1UNL     H1   29  -0.109   0.519  -0.097
    1UNL     H2   30   0.070   0.499  -0.096
    1UNL     H3   31  -0.027   0.508   0.057
    1UNL     H4   32  -0.189   0.210  -0.016
    1UNL     H5   33  -0.591   0.304  -0.048
    1UNL     H6   34  -0.651   0.200   0.093
    1UNL     H7   35  -0.639   0.131  -0.076
    1UNL     H8   36  -0.596  -0.057   0.069
    1UNL     H9   37  -0.494  -0.276   0.085
    1UNL    H10   38  -0.248  -0.311   0.076
    1UNL    H11   39  -0.143  -0.180  -0.203
    1UNL    H12   40  -0.003  -0.072  -0.225
    1UNL    H13   41   0.012  -0.349  -0.139
    1UNL    H14   42   0.121  -0.269  -0.241
    1UNL    H15   43   0.338  -0.306   0.046
    1UNL    H16   44   0.189  -0.351   0.118
    1UNL    H17   45   0.234  -0.419  -0.042
    1UNL    H18   46   0.212  -0.082  -0.208
    1UNL    H19   47   0.349  -0.162  -0.137
    1UNL    H20   48   0.316   0.095  -0.089
    1UNL    H21   49   0.505   0.185   0.089
    1UNL    H22   50   0.604   0.071   0.149
    1UNL    H23   51   0.600   0.081  -0.030
    1UNL    H24   52   0.223   0.131   0.145
    1UNL    H25   53   0.224  -0.109   0.192
    1UNL    H26   54   0.065  -0.025   0.240
    1UNL    H27   55  -0.000  -0.229   0.127
   0.00000   0.00000   0.00000   0.00000   0.00000   0.00000   0.00000   0.00000   0.00000
Generated with MDTraj, t= 28.0
 55
    1UNL     C1    1  -0.031   0.490  -0.057
    1UNL     O1    2  -0.044   0.352  -0.041
    1UNL     C2    3   0.082   0.295  -0.020
    1UNL     O2    4   0.182   0.359  -0.009
    1UNL     C3    5   0.072   0.141  -0.000
    1UNL     C4    6  -0.044   0.072  -0.026
    1UNL     N1    7  -0.173   0.121  -0.032
    1UNL     C5    8  -0.269   0.020   0.007
    1UNL     C6    9  -0.410   0.037   0.028
    1UNL     O3   10  -0.453   0.172   0.014
    1UNL     C7   11  -0.591   0.196  -0.012
    1UNL     C8   12  -0.481  -0.082   0.055
    1UNL     C9   13  -0.409  -0.205   0.062
    1UNL    C10   14  -0.273  -0.216   0.054
    1UNL    C11   15  -0.200  -0.099   0.028
    1UNL    C12   16  -0.060  -0.082  -0.026
    1UNL    C13   17  -0.048  -0.147  -0.164
    1UNL    C14   18   0.055  -0.266  -0.138
    1UNL     N2   19   0.149  -0.213  -0.033
    1UNL    C15   20   0.250  -0.317   0.029
    1UNL    C16   21   0.230  -0.098  -0.104
    1UNL    C17   22   0.296   0.009  -0.010
    1UNL    C18   23   0.423  -0.027   0.064
    1UNL    C19   24   0.546   0.027   0.006
    1UNL     O4   25   0.423  -0.106   0.154
    1UNL    C20   26   0.183   0.063   0.077
    1UNL    C21   27   0.125  -0.056   0.159
    1UNL    C22   28   0.051  -0.146   0.062
    1UNL     H1   29  -0.116   0.534  -0.108
    1UNL     H2   30   0.059   0.499  -0.117
    1UNL     H3   31  -0.019   0.539   0.040
    1UNL     H4   32  -0.198   0.216  -0.021
    1UNL     H5   33  -0.604   0.303  -0.058
    1UNL     H6   34  -0.637   0.193   0.088
    1UNL     H7   35  -0.641   0.125  -0.082
    1UNL     H8   36  -0.587  -0.080   0.062
    1UNL     H9   37  -0.465  -0.300   0.053
    1UNL    H10   38  -0.224  -0.308   0.057
    1UNL    H11   39  -0.146  -0.183  -0.192
    1UNL    H12   40  -0.012  -0.076  -0.235
    1UNL    H13   41   0.008  -0.360  -0.108
    1UNL    H14   42   0.099  -0.281  -0.234
    1UNL    H15   43   0.258  -0.319   0.143
    1UNL    H16   44   0.217  -0.421   0.011
    1UNL    H17   45   0.350  -0.306  -0.007
    1UNL    H18   46   0.179  -0.042  -0.192
    1UNL    H19   47   0.314  -0.146  -0.155
    1UNL    H20   48   0.322   0.087  -0.075
    1UNL    H21   49   0.626   0.042   0.092
    1UNL    H22   50   0.605  -0.046  -0.046
    1UNL    H23   51   0.530   0.115  -0.051
    1UNL    H24   52   0.228   0.139   0.139
    1UNL    H25   53   0.213  -0.116   0.199
    1UNL    H26   54   0.056  -0.019   0.236
    1UNL    H27   55   0.002  -0.237   0.113
   0.00000   0.00000   0.00000   0.00000   0.00000   0.00000   0.00000   0.00000   0.00000
Generated with MDTraj, t= 29.0
 55
    1UNL     C1    1   0.001   0.495  -0.063
    1UNL     O1    2  -0.025   0.358  -0.059
    1UNL     C2    3   0.078   0.289   0.002
    1UNL     O2    4   0.172   0.341   0.051
    1UNL     C3    5   0.070   0.145  -0.005
    1UNL     C4    6  -0.042   0.077  -0.047
    1UNL     N1    7  -0.177   0.122  -0.045
    1UNL     C5    8  -0.267   0.028   0.013
    1UNL     C6    9  -0.409   0.037   0.028
    1UNL     O3   10  -0.474   0.155  -0.013
    1UNL     C7   11  -0.612   0.161  -0.009
    1UNL     C8   12  -0.469  -0.077   0.076
    1UNL     C9   13  -0.400  -0.198   0.099
    1UNL    C10   14  -0.273  -0.209   0.058
    1UNL    C11   15  -0.204  -0.093   0.021
    1UNL    C12   16  -0.060  -0.082  -0.032
    1UNL    C13   17  -0.042  -0.160  -0.167
    1UNL    C14   18   0.079  -0.259  -0.153
    1UNL     N2   19   0.157  -0.199  -0.041
    1UNL    C15   20   0.246  -0.302   0.034
    1UNL    C16   21   0.237  -0.095  -0.116
    1UNL    C17   22   0.291   0.024  -0.022
    1UNL    C18   23   0.410  -0.031   0.062
    1UNL    C19   24   0.546  -0.028  -0.003
    1UNL     O4   25   0.397  -0.084   0.170
    1UNL    C20   26   0.183   0.076   0.071
    1UNL    C21   27   0.122  -0.043   0.154
    1UNL    C22   28   0.051  -0.142   0.063
    1UNL     H1   29  -0.093   0.551  -0.053
    1UNL     H2   30   0.041   0.516  -0.162
    1UNL     H3   31   0.071   0.530   0.016
    1UNL     H4   32  -0.202   0.218  -0.037
    1UNL     H5   33  -0.644   0.271   0.012
    1UNL     H6   34  -0.640   0.107   0.081
    1UNL     H7   35  -0.667   0.129  -0.103
    1UNL     H8   36  -0.579  -0.068   0.079
    1UNL     H9   37  -0.462  -0.273   0.142
    1UNL    H10   38  -0.219  -0.304   0.061
    1UNL    H11   39  -0.129  -0.219  -0.189
    1UNL    H12   40  -0.046  -0.079  -0.239
    1UNL    H13   41   0.042  -0.358  -0.132
    1UNL    H14   42   0.130  -0.267  -0.249
    1UNL    H15   43   0.341  -0.260   0.061
    1UNL    H16   44   0.201  -0.337   0.134
    1UNL    H17   45   0.266  -0.384  -0.033
    1UNL    H18   46   0.178  -0.046  -0.201
    1UNL    H19   47   0.324  -0.140  -0.176
    1UNL    H20   48   0.330   0.103  -0.081
    1UNL    H21   49   0.587  -0.134  -0.027
    1UNL    H22   50   0.549   0.006  -0.103
    1UNL    H23   51   0.616   0.035   0.049
    1UNL    H24   52   0.233   0.153   0.124
    1UNL    H25   53   0.206  -0.094   0.206
    1UNL    H26   54   0.046  -0.004   0.221
    1UNL    H27   55   0.008  -0.233   0.115
   0.00000   0.00000   0.00000   0.00000   0.00000   0.00000   0.00000   0.00000   0.00000
Generated with MDTraj, t= 30.0
 55
    1UNL     C1    1  -0.019   0.479  -0.067
    1UNL     O1    2  -0.026   0.340  -0.079
    1UNL     C2    3   0.068   0.282   0.003
    1UNL     O2    4   0.156   0.339   0.059
    1UNL     C3    5   0.063   0.138   0.012
    1UNL     C4    6  -0.039   0.072  -0.043
    1UNL     N1    7  -0.172   0.117  -0.071
    1UNL     C5    8  -0.264   0.019  -0.015
    1UNL     C6    9  -0.400   0.036   0.019
    1UNL     O3   10  -0.464   0.158  -0.015
    1UNL     C7   11  -0.603   0.161   0.002
    1UNL     C8   12  -0.467  -0.068   0.081
    1UNL     C9   13  -0.399  -0.181   0.120
    1UNL    C10   14  -0.264  -0.191   0.093
    1UNL    C11   15  -0.193  -0.092   0.023
    1UNL    C12   16  -0.055  -0.082  -0.030
    1UNL    C13   17  -0.040  -0.138  -0.174
    1UNL    C14   18   0.076  -0.233  -0.180
    1UNL     N2   19   0.154  -0.203  -0.053
    1UNL    C15   20   0.224  -0.334  -0.004
    1UNL    C16   21   0.246  -0.093  -0.111
    1UNL    C17   22   0.295   0.025  -0.012
    1UNL    C18   23   0.408  -0.023   0.072
    1UNL    C19   24   0.541  -0.041   0.000
    1UNL     O4   25   0.395  -0.053   0.189
    1UNL    C20   26   0.183   0.068   0.084
    1UNL    C21   27   0.127  -0.050   0.161
    1UNL    C22   28   0.062  -0.145   0.058
    1UNL     H1   29  -0.070   0.534  -0.149
    1UNL     H2   30   0.083   0.513  -0.064
    1UNL     H3   31  -0.069   0.514   0.027
    1UNL     H4   32  -0.213   0.211  -0.065
    1UNL     H5   33  -0.658   0.236  -0.063
    1UNL     H6   34  -0.618   0.192   0.103
    1UNL     H7   35  -0.652   0.063  -0.018
    1UNL     H8   36  -0.565  -0.054   0.115
    1UNL     H9   37  -0.438  -0.258   0.186
    1UNL    H10   38  -0.202  -0.273   0.133
    1UNL    H11   39  -0.131  -0.186  -0.202
    1UNL    H12   40  -0.031  -0.059  -0.247
    1UNL    H13   41   0.039  -0.332  -0.174
    1UNL    H14   42   0.138  -0.226  -0.272
    1UNL    H15   43   0.325  -0.326  -0.033
    1UNL    H16   44   0.224  -0.331   0.110
    1UNL    H17   45   0.177  -0.426  -0.043
    1UNL    H18   46   0.196  -0.036  -0.194
    1UNL    H19   47   0.338  -0.137  -0.173
    1UNL    H20   48   0.334   0.105  -0.068
    1UNL    H21   49   0.524  -0.066  -0.105
    1UNL    H22   50   0.601   0.050  -0.002
    1UNL    H23   51   0.598  -0.115   0.058
    1UNL    H24   52   0.223   0.140   0.151
    1UNL    H25   53   0.211  -0.104   0.198
    1UNL    H26   54   0.063  -0.018   0.244
    1UNL    H27   55   0.008  -0.228   0.109
   0.00000   0.00000   0.00000   0.00000   0.00000   0.00000   0.00000   0.00000   0.00000
Generated with MDTraj, t= 31.0
 55
    1UNL     C1    1  -0.029   0.473  -0.073
    1UNL     O1    2  -0.050   0.338  -0.056
    1UNL     C2    3   0.064   0.277  -0.009
    1UNL     O2    4   0.152   0.337   0.041
    1UNL     C3    5   0.060   0.132  -0.006
    1UNL     C4    6  -0.047   0.060  -0.038
    1UNL     N1    7  -0.172   0.111  -0.053
    1UNL     C5    8  -0.266   0.020  -0.011
    1UNL     C6    9  -0.400   0.050   0.034
    1UNL     O3   10  -0.446   0.171  -0.013
    1UNL     C7   11  -0.585   0.193  -0.003
    1UNL     C8   12  -0.465  -0.051   0.108
    1UNL     C9   13  -0.405  -0.176   0.121
    1UNL    C10   14  -0.272  -0.202   0.083
    1UNL    C11   15  -0.205  -0.103   0.018
    1UNL    C12   16  -0.062  -0.092  -0.041
    1UNL    C13   17  -0.047  -0.162  -0.181
    1UNL    C14   18   0.077  -0.257  -0.177
    1UNL     N2   19   0.168  -0.199  -0.058
    1UNL    C15   20   0.264  -0.309  -0.009
    1UNL    C16   21   0.243  -0.074  -0.111
    1UNL    C17   22   0.298   0.024  -0.009
    1UNL    C18   23   0.413  -0.021   0.082
    1UNL    C19   24   0.551  -0.020   0.022
    1UNL     O4   25   0.401  -0.060   0.198
    1UNL    C20   26   0.173   0.059   0.075
    1UNL    C21   27   0.115  -0.063   0.148
    1UNL    C22   28   0.059  -0.156   0.041
    1UNL     H1   29   0.049   0.491  -0.149
    1UNL     H2   30  -0.001   0.523   0.018
    1UNL     H3   31  -0.120   0.521  -0.115
    1UNL     H4   32  -0.195   0.213  -0.043
    1UNL     H5   33  -0.608   0.298  -0.007
    1UNL     H6   34  -0.625   0.152   0.086
    1UNL     H7   35  -0.632   0.146  -0.091
    1UNL     H8   36  -0.566  -0.032   0.147
    1UNL     H9   37  -0.464  -0.251   0.174
    1UNL    H10   38  -0.234  -0.295   0.099
    1UNL    H11   39  -0.134  -0.221  -0.195
    1UNL    H12   40  -0.040  -0.099  -0.268
    1UNL    H13   41   0.051  -0.360  -0.167
    1UNL    H14   42   0.143  -0.244  -0.265
    1UNL    H15   43   0.257  -0.393  -0.080
    1UNL    H16   44   0.366  -0.279   0.003
    1UNL    H17   45   0.215  -0.345   0.086
    1UNL    H18   46   0.173  -0.013  -0.174
    1UNL    H19   47   0.326  -0.098  -0.191
    1UNL    H20   48   0.330   0.110  -0.061
    1UNL    H21   49   0.575   0.075  -0.008
    1UNL    H22   50   0.619  -0.061   0.105
    1UNL    H23   51   0.543  -0.095  -0.057
    1UNL    H24   52   0.196   0.126   0.153
    1UNL    H25   53   0.197  -0.111   0.192
    1UNL    H26   54   0.048  -0.032   0.227
    1UNL    H27   55   0.020  -0.252   0.079
   0.00000   0.00000   0.00000   0.00000   0.00000   0.00000   0.00000   0.00000   0.00000
Generated with MDTraj, t= 32.0
 55
    1UNL     C1    1  -0.035   0.489  -0.055
    1UNL     O1    2  -0.040   0.348  -0.077
    1UNL     C2    3   0.076   0.285  -0.026
    1UNL     O2    4   0.175   0.338   0.013
    1UNL     C3    5   0.062   0.135  -0.017
    1UNL     C4    6  -0.047   0.062  -0.059
    1UNL     N1    7  -0.174   0.112  -0.054
    1UNL     C5    8  -0.265   0.015  -0.011
    1UNL     C6    9  -0.397   0.039   0.027
    1UNL     O3   10  -0.435   0.177   0.022
    1UNL     C7   11  -0.576   0.197   0.021
    1UNL     C8   12  -0.463  -0.070   0.078
    1UNL     C9   13  -0.401  -0.191   0.104
    1UNL    C10   14  -0.267  -0.208   0.067
    1UNL    C11   15  -0.201  -0.105   0.016
    1UNL    C12   16  -0.062  -0.090  -0.039
    1UNL    C13   17  -0.050  -0.173  -0.171
    1UNL    C14   18   0.075  -0.258  -0.159
    1UNL     N2   19   0.163  -0.200  -0.047
    1UNL    C15   20   0.250  -0.305   0.021
    1UNL    C16   21   0.235  -0.081  -0.105
    1UNL    C17   22   0.286   0.024  -0.004
    1UNL    C18   23   0.411  -0.030   0.076
    1UNL    C19   24   0.545   0.021   0.027
    1UNL     O4   25   0.404  -0.106   0.169
    1UNL    C20   26   0.161   0.070   0.083
    1UNL    C21   27   0.103  -0.054   0.158
    1UNL    C22   28   0.047  -0.148   0.052
    1UNL     H1   29   0.050   0.518   0.007
    1UNL     H2   30  -0.124   0.522  -0.009
    1UNL     H3   31  -0.020   0.547  -0.149
    1UNL     H4   32  -0.185   0.218  -0.041
    1UNL     H5   33  -0.598   0.286  -0.029
    1UNL     H6   34  -0.621   0.194   0.118
    1UNL     H7   35  -0.612   0.119  -0.043
    1UNL     H8   36  -0.568  -0.057   0.094
    1UNL     H9   37  -0.455  -0.272   0.147
    1UNL    H10   38  -0.215  -0.309   0.077
    1UNL    H11   39  -0.131  -0.239  -0.190
    1UNL    H12   40  -0.047  -0.109  -0.257
    1UNL    H13   41   0.049  -0.355  -0.119
    1UNL    H14   42   0.138  -0.266  -0.249
    1UNL    H15   43   0.361  -0.292  -0.003
    1UNL    H16   44   0.244  -0.294   0.123
    1UNL    H17   45   0.212  -0.405  -0.009
    1UNL    H18   46   0.154  -0.024  -0.163
    1UNL    H19   47   0.300  -0.104  -0.193
    1UNL    H20   48   0.318   0.109  -0.056
    1UNL    H21   49   0.615   0.024   0.103
    1UNL    H22   50   0.581  -0.063  -0.043
    1UNL    H23   51   0.537   0.117  -0.021
    1UNL    H24   52   0.186   0.138   0.160
    1UNL    H25   53   0.188  -0.084   0.211
    1UNL    H26   54   0.029  -0.030   0.229
    1UNL    H27   55   0.004  -0.239   0.098
   0.00000   0.00000   0.00000   0.00000   0.00000   0.00000   0.00000   0.00000   0.00000
Generated with MDTraj, t= 33.0
 55
    1UNL     C1    1  -0.024   0.486  -0.084
    1UNL     O1    2  -0.041   0.349  -0.058
    1UNL     C2    3   0.075   0.291  -0.020
    1UNL     O2    4   0.183   0.336   0.007
    1UNL     C3    5   0.074   0.139  -0.019
    1UNL     C4    6  -0.037   0.070  -0.038
    1UNL     N1    7  -0.167   0.121  -0.043
    1UNL     C5    8  -0.270   0.031  -0.012
    1UNL     C6    9  -0.407   0.042   0.024
    1UNL     O3   10  -0.473   0.169   0.023
    1UNL     C7   11  -0.605   0.172   0.064
    1UNL     C8   12  -0.475  -0.071   0.066
    1UNL     C9   13  -0.408  -0.191   0.086
    1UNL    C10   14  -0.276  -0.208   0.049
    1UNL    C11   15  -0.210  -0.096   0.002
    1UNL    C12   16  -0.057  -0.083  -0.030
    1UNL    C13   17  -0.031  -0.146  -0.172
    1UNL    C14   18   0.062  -0.264  -0.148
    1UNL     N2   19   0.152  -0.217  -0.034
    1UNL    C15   20   0.215  -0.333   0.037
    1UNL    C16   21   0.262  -0.131  -0.102
    1UNL    C17   22   0.304   0.002  -0.035
    1UNL    C18   23   0.418  -0.021   0.065
    1UNL    C19   24   0.532   0.069   0.075
    1UNL     O4   25   0.403  -0.116   0.136
    1UNL    C20   26   0.191   0.079   0.052
    1UNL    C21   27   0.136  -0.035   0.142
    1UNL    C22   28   0.053  -0.140   0.067
    1UNL     H1   29  -0.050   0.547   0.002
    1UNL     H2   30  -0.092   0.507  -0.162
    1UNL     H3   31   0.081   0.511  -0.113
    1UNL     H4   32  -0.188   0.220  -0.025
    1UNL     H5   33  -0.631   0.268   0.039
    1UNL     H6   34  -0.620   0.146   0.168
    1UNL     H7   35  -0.656   0.109  -0.005
    1UNL     H8   36  -0.580  -0.071   0.085
    1UNL     H9   37  -0.456  -0.285   0.120
    1UNL    H10   38  -0.221  -0.295   0.077
    1UNL    H11   39  -0.118  -0.171  -0.228
    1UNL    H12   40   0.020  -0.077  -0.236
    1UNL    H13   41   0.016  -0.355  -0.109
    1UNL    H14   42   0.125  -0.286  -0.234
    1UNL    H15   43   0.284  -0.301   0.121
    1UNL    H16   44   0.147  -0.399   0.087
    1UNL    H17   45   0.267  -0.392  -0.038
    1UNL    H18   46   0.238  -0.108  -0.212
    1UNL    H19   47   0.348  -0.193  -0.119
    1UNL    H20   48   0.352   0.063  -0.105
    1UNL    H21   49   0.617   0.023   0.022
    1UNL    H22   50   0.531   0.160   0.013
    1UNL    H23   51   0.557   0.090   0.177
    1UNL    H24   52   0.234   0.157   0.111
    1UNL    H25   53   0.217  -0.079   0.191
    1UNL    H26   54   0.090   0.021   0.216
    1UNL    H27   55   0.020  -0.210   0.144
   0.00000   0.00000   0.00000   0.00000   0.00000   0.00000   0.00000   0.00000   0.00000
Generated with MDTraj, t= 34.0
 55
    1UNL     C1    1  -0.004   0.498  -0.083
    1UNL     O1    2  -0.022   0.355  -0.091
    1UNL     C2    3   0.090   0.285  -0.035
    1UNL     O2    4   0.198   0.329  -0.009
    1UNL     C3    5   0.073   0.136  -0.006
    1UNL     C4    6  -0.042   0.071  -0.036
    1UNL     N1    7  -0.167   0.123  -0.032
    1UNL     C5    8  -0.259   0.022   0.004
    1UNL     C6    9  -0.403   0.040   0.024
    1UNL     O3   10  -0.465   0.161   0.008
    1UNL     C7   11  -0.590   0.170   0.078
    1UNL     C8   12  -0.470  -0.078   0.062
    1UNL     C9   13  -0.402  -0.200   0.061
    1UNL    C10   14  -0.268  -0.217   0.039
    1UNL    C11   15  -0.198  -0.103   0.014
    1UNL    C12   16  -0.060  -0.081  -0.034
    1UNL    C13   17  -0.051  -0.150  -0.170
    1UNL    C14   18   0.056  -0.259  -0.149
    1UNL     N2   19   0.141  -0.211  -0.029
    1UNL    C15   20   0.197  -0.329   0.041
    1UNL    C16   21   0.244  -0.121  -0.091
    1UNL    C17   22   0.287   0.003  -0.017
    1UNL    C18   23   0.418  -0.017   0.059
    1UNL    C19   24   0.499   0.104   0.092
    1UNL     O4   25   0.453  -0.126   0.095
    1UNL    C20   26   0.180   0.068   0.079
    1UNL    C21   27   0.110  -0.042   0.167
    1UNL    C22   28   0.039  -0.138   0.067
    1UNL     H1   29  -0.094   0.545  -0.042
    1UNL     H2   30   0.006   0.534  -0.182
    1UNL     H3   31   0.084   0.519  -0.015
    1UNL     H4   32  -0.177   0.222  -0.026
    1UNL     H5   33  -0.614   0.271   0.079
    1UNL     H6   34  -0.584   0.122   0.179
    1UNL     H7   35  -0.665   0.120   0.020
    1UNL     H8   36  -0.578  -0.072   0.081
    1UNL     H9   37  -0.463  -0.279   0.092
    1UNL    H10   38  -0.216  -0.308   0.050
    1UNL    H11   39  -0.143  -0.194  -0.203
    1UNL    H12   40  -0.029  -0.081  -0.248
    1UNL    H13   41   0.018  -0.363  -0.136
    1UNL    H14   42   0.123  -0.267  -0.232
    1UNL    H15   43   0.278  -0.306   0.113
    1UNL    H16   44   0.122  -0.382   0.107
    1UNL    H17   45   0.228  -0.395  -0.034
    1UNL    H18   46   0.219  -0.083  -0.198
    1UNL    H19   47   0.326  -0.184  -0.108
    1UNL    H20   48   0.307   0.080  -0.084
    1UNL    H21   49   0.483   0.181   0.013
    1UNL    H22   50   0.471   0.164   0.171
    1UNL    H23   51   0.607   0.085   0.105
    1UNL    H24   52   0.230   0.139   0.141
    1UNL    H25   53   0.185  -0.075   0.232
    1UNL    H26   54   0.042   0.004   0.227
    1UNL    H27   55  -0.013  -0.199   0.143
   0.00000   0.00000   0.00000   0.00000   0.00000   0.00000   0.00000   0.00000   0.00000
Generated with MDTraj, t= 35.0
 55
    1UNL     C1    1   0.025   0.482  -0.105
    1UNL     O1    2  -0.028   0.357  -0.066
    1UNL     C2    3   0.076   0.271  -0.027
    1UNL     O2    4   0.183   0.314  -0.005
    1UNL     C3    5   0.061   0.125  -0.003
    1UNL     C4    6  -0.050   0.055  -0.034
    1UNL     N1    7  -0.174   0.108  -0.048
    1UNL     C5    8  -0.274   0.018  -0.002
    1UNL     C6    9  -0.407   0.047   0.023
    1UNL     O3   10  -0.457   0.180   0.016
    1UNL     C7   11  -0.588   0.198   0.072
    1UNL     C8   12  -0.482  -0.063   0.054
    1UNL     C9   13  -0.429  -0.190   0.068
    1UNL    C10   14  -0.295  -0.215   0.052
    1UNL    C11   15  -0.213  -0.104   0.023
    1UNL    C12   16  -0.066  -0.097  -0.021
    1UNL    C13   17  -0.052  -0.171  -0.158
    1UNL    C14   18   0.073  -0.263  -0.155
    1UNL     N2   19   0.157  -0.207  -0.041
    1UNL    C15   20   0.245  -0.311   0.033
    1UNL    C16   21   0.249  -0.096  -0.104
    1UNL    C17   22   0.291   0.016  -0.017
    1UNL    C18   23   0.423  -0.012   0.062
    1UNL    C19   24   0.482   0.114   0.115
    1UNL     O4   25   0.477  -0.120   0.080
    1UNL    C20   26   0.174   0.062   0.077
    1UNL    C21   27   0.110  -0.057   0.163
    1UNL    C22   28   0.054  -0.155   0.062
    1UNL     H1   29  -0.031   0.507  -0.196
    1UNL     H2   30   0.127   0.469  -0.137
    1UNL     H3   31   0.007   0.558  -0.022
    1UNL     H4   32  -0.184   0.203  -0.027
    1UNL     H5   33  -0.615   0.299   0.051
    1UNL     H6   34  -0.580   0.180   0.186
    1UNL     H7   35  -0.669   0.140   0.030
    1UNL     H8   36  -0.579  -0.049   0.090
    1UNL     H9   37  -0.489  -0.279   0.100
    1UNL    H10   38  -0.246  -0.317   0.053
    1UNL    H11   39  -0.136  -0.227  -0.195
    1UNL    H12   40  -0.037  -0.099  -0.233
    1UNL    H13   41   0.050  -0.370  -0.132
    1UNL    H14   42   0.113  -0.266  -0.254
    1UNL    H15   43   0.284  -0.275   0.125
    1UNL    H16   44   0.187  -0.404   0.067
    1UNL    H17   45   0.320  -0.346  -0.032
    1UNL    H18   46   0.199  -0.055  -0.196
    1UNL    H19   47   0.344  -0.130  -0.135
    1UNL    H20   48   0.310   0.100  -0.073
    1UNL    H21   49   0.398   0.167   0.163
    1UNL    H22   50   0.559   0.100   0.181
    1UNL    H23   51   0.525   0.167   0.026
    1UNL    H24   52   0.209   0.131   0.151
    1UNL    H25   53   0.175  -0.095   0.233
    1UNL    H26   54   0.041  -0.012   0.225
    1UNL    H27   55   0.027  -0.243   0.121
   0.00000   0.00000   0.00000   0.00000   0.00000   0.00000   0.00000   0.00000   0.00000
Generated with MDTraj, t= 36.0
 55
    1UNL     C1    1  -0.023   0.461  -0.100
    1UNL     O1    2  -0.028   0.320  -0.107
    1UNL     C2    3   0.074   0.264  -0.025
    1UNL     O2    4   0.165   0.327   0.015
    1UNL     C3    5   0.063   0.126   0.008
    1UNL     C4    6  -0.047   0.055  -0.030
    1UNL     N1    7  -0.177   0.111  -0.059
    1UNL     C5    8  -0.271   0.018  -0.011
    1UNL     C6    9  -0.402   0.047   0.023
    1UNL     O3   10  -0.445   0.180  -0.005
    1UNL     C7   11  -0.569   0.218   0.046
    1UNL     C8   12  -0.471  -0.061   0.084
    1UNL     C9   13  -0.411  -0.187   0.107
    1UNL    C10   14  -0.279  -0.204   0.086
    1UNL    C11   15  -0.207  -0.104   0.022
    1UNL    C12   16  -0.057  -0.091  -0.021
    1UNL    C13   17  -0.042  -0.142  -0.166
    1UNL    C14   18   0.070  -0.248  -0.162
    1UNL     N2   19   0.160  -0.203  -0.052
    1UNL    C15   20   0.244  -0.321   0.002
    1UNL    C16   21   0.251  -0.088  -0.115
    1UNL    C17   22   0.293   0.022  -0.011
    1UNL    C18   23   0.414  -0.017   0.074
    1UNL    C19   24   0.484   0.101   0.134
    1UNL     O4   25   0.445  -0.131   0.091
    1UNL    C20   26   0.176   0.061   0.084
    1UNL    C21   27   0.115  -0.067   0.160
    1UNL    C22   28   0.058  -0.159   0.056
    1UNL     H1   29  -0.042   0.499  -0.201
    1UNL     H2   30   0.079   0.486  -0.079
    1UNL     H3   31  -0.095   0.503  -0.021
    1UNL     H4   32  -0.201   0.209  -0.055
    1UNL     H5   33  -0.565   0.329   0.056
    1UNL     H6   34  -0.580   0.173   0.151
    1UNL     H7   35  -0.659   0.203  -0.016
    1UNL     H8   36  -0.577  -0.039   0.109
    1UNL     H9   37  -0.470  -0.263   0.147
    1UNL    H10   38  -0.235  -0.296   0.091
    1UNL    H11   39  -0.129  -0.194  -0.196
    1UNL    H12   40  -0.017  -0.071  -0.240
    1UNL    H13   41   0.012  -0.343  -0.151
    1UNL    H14   42   0.128  -0.260  -0.252
    1UNL    H15   43   0.323  -0.286   0.061
    1UNL    H16   44   0.185  -0.382   0.076
    1UNL    H17   45   0.278  -0.386  -0.078
    1UNL    H18   46   0.196  -0.033  -0.191
    1UNL    H19   47   0.341  -0.127  -0.156
    1UNL    H20   48   0.314   0.114  -0.052
    1UNL    H21   49   0.507   0.078   0.236
    1UNL    H22   50   0.570   0.124   0.066
    1UNL    H23   51   0.413   0.182   0.124
    1UNL    H24   52   0.206   0.129   0.164
    1UNL    H25   53   0.193  -0.112   0.208
    1UNL    H26   54   0.054  -0.043   0.241
    1UNL    H27   55   0.015  -0.247   0.104
   0.00000   0.00000   0.00000   0.00000   0.00000   0.00000   0.00000   0.00000   0.00000
Generated with MDTraj, t= 37.0
 55
    1UNL     C1    1  -0.028   0.470  -0.110
    1UNL     O1    2  -0.035   0.332  -0.104
    1UNL     C2    3   0.058   0.279  -0.016
    1UNL     O2    4   0.129   0.345   0.052
    1UNL     C3    5   0.066   0.137  -0.013
    1UNL     C4    6  -0.035   0.065  -0.067
    1UNL     N1    7  -0.167   0.121  -0.069
    1UNL     C5    8  -0.254   0.029  -0.005
    1UNL     C6    9  -0.394   0.048   0.031
    1UNL     O3   10  -0.461   0.161  -0.020
    1UNL     C7   11  -0.585   0.197   0.038
    1UNL     C8   12  -0.457  -0.055   0.106
    1UNL     C9   13  -0.384  -0.169   0.134
    1UNL    C10   14  -0.251  -0.188   0.094
    1UNL    C11   15  -0.190  -0.092   0.019
    1UNL    C12   16  -0.053  -0.088  -0.041
    1UNL    C13   17  -0.058  -0.172  -0.172
    1UNL    C14   18   0.081  -0.248  -0.183
    1UNL     N2   19   0.157  -0.205  -0.053
    1UNL    C15   20   0.220  -0.332   0.000
    1UNL    C16   21   0.261  -0.099  -0.106
    1UNL    C17   22   0.295   0.017  -0.008
    1UNL    C18   23   0.411  -0.030   0.087
    1UNL    C19   24   0.514   0.066   0.138
    1UNL     O4   25   0.423  -0.145   0.115
    1UNL    C20   26   0.175   0.069   0.073
    1UNL    C21   27   0.112  -0.053   0.148
    1UNL    C22   28   0.051  -0.150   0.046
    1UNL     H1   29  -0.127   0.507  -0.136
    1UNL     H2   30   0.039   0.489  -0.191
    1UNL     H3   31   0.013   0.516  -0.015
    1UNL     H4   32  -0.181   0.226  -0.068
    1UNL     H5   33  -0.635   0.284  -0.017
    1UNL     H6   34  -0.565   0.224   0.146
    1UNL     H7   35  -0.665   0.119   0.042
    1UNL     H8   36  -0.559  -0.056   0.133
    1UNL     H9   37  -0.440  -0.256   0.175
    1UNL    H10   38  -0.205  -0.287   0.107
    1UNL    H11   39  -0.137  -0.242  -0.167
    1UNL    H12   40  -0.071  -0.112  -0.257
    1UNL    H13   41   0.056  -0.355  -0.185
    1UNL    H14   42   0.145  -0.231  -0.270
    1UNL    H15   43   0.260  -0.313   0.100
    1UNL    H16   44   0.138  -0.398   0.017
    1UNL    H17   45   0.292  -0.378  -0.072
    1UNL    H18   46   0.220  -0.052  -0.189
    1UNL    H19   47   0.356  -0.149  -0.124
    1UNL    H20   48   0.326   0.104  -0.050
    1UNL    H21   49   0.618   0.041   0.119
    1UNL    H22   50   0.493   0.172   0.094
    1UNL    H23   51   0.507   0.062   0.242
    1UNL    H24   52   0.203   0.149   0.143
    1UNL    H25   53   0.191  -0.101   0.196
    1UNL    H26   54   0.054  -0.021   0.228
    1UNL    H27   55   0.004  -0.238   0.093
   0.00000   0.00000   0.00000   0.00000   0.00000   0.00000   0.00000   0.00000   0.00000
Generated with MDTraj, t= 38.0
 55
    1UNL     C1    1  -0.007   0.490  -0.082
    1UNL     O1    2  -0.020   0.346  -0.101
    1UNL     C2    3   0.070   0.285  -0.019
    1UNL     O2    4   0.149   0.346   0.049
    1UNL     C3    5   0.064   0.135  -0.020
    1UNL     C4    6  -0.044   0.061  -0.060
    1UNL     N1    7  -0.175   0.107  -0.072
    1UNL     C5    8  -0.270   0.017  -0.018
    1UNL     C6    9  -0.401   0.040   0.025
    1UNL     O3   10  -0.453   0.166  -0.005
    1UNL     C7   11  -0.585   0.181   0.025
    1UNL     C8   12  -0.461  -0.055   0.109
    1UNL     C9   13  -0.386  -0.160   0.154
    1UNL    C10   14  -0.258  -0.192   0.098
    1UNL    C11   15  -0.206  -0.105   0.007
    1UNL    C12   16  -0.059  -0.095  -0.050
    1UNL    C13   17  -0.042  -0.167  -0.189
    1UNL    C14   18   0.074  -0.268  -0.166
    1UNL     N2   19   0.157  -0.214  -0.049
    1UNL    C15   20   0.254  -0.329  -0.006
    1UNL    C16   21   0.246  -0.097  -0.109
    1UNL    C17   22   0.293   0.018  -0.017
    1UNL    C18   23   0.400  -0.022   0.090
    1UNL    C19   24   0.521   0.060   0.107
    1UNL     O4   25   0.380  -0.123   0.154
    1UNL    C20   26   0.173   0.069   0.062
    1UNL    C21   27   0.113  -0.052   0.143
    1UNL    C22   28   0.056  -0.150   0.044
    1UNL     H1   29  -0.107   0.527  -0.062
    1UNL     H2   30   0.039   0.542  -0.162
    1UNL     H3   31   0.053   0.512   0.009
    1UNL     H4   32  -0.182   0.214  -0.072
    1UNL     H5   33  -0.622   0.278  -0.026
    1UNL     H6   34  -0.603   0.181   0.133
    1UNL     H7   35  -0.650   0.101  -0.019
    1UNL     H8   36  -0.556  -0.043   0.161
    1UNL     H9   37  -0.426  -0.232   0.219
    1UNL    H10   38  -0.202  -0.278   0.134
    1UNL    H11   39  -0.127  -0.216  -0.222
    1UNL    H12   40  -0.020  -0.095  -0.263
    1UNL    H13   41   0.045  -0.370  -0.143
    1UNL    H14   42   0.138  -0.280  -0.255
    1UNL    H15   43   0.301  -0.297   0.092
    1UNL    H16   44   0.206  -0.417   0.014
    1UNL    H17   45   0.328  -0.335  -0.090
    1UNL    H18   46   0.186  -0.050  -0.179
    1UNL    H19   47   0.335  -0.137  -0.158
    1UNL    H20   48   0.334   0.098  -0.066
    1UNL    H21   49   0.534   0.154   0.048
    1UNL    H22   50   0.507   0.116   0.206
    1UNL    H23   51   0.611   0.007   0.105
    1UNL    H24   52   0.209   0.154   0.126
    1UNL    H25   53   0.194  -0.095   0.198
    1UNL    H26   54   0.045  -0.016   0.214
    1UNL    H27   55   0.015  -0.237   0.099
   0.00000   0.00000   0.00000   0.00000   0.00000   0.00000   0.00000   0.00000   0.00000
Generated with MDTraj, t= 39.0
 55
    1UNL     C1    1  -0.012   0.467  -0.082
    1UNL     O1    2  -0.040   0.331  -0.055
    1UNL     C2    3   0.080   0.280  -0.020
    1UNL     O2    4   0.183   0.339  -0.002
    1UNL     C3    5   0.071   0.130  -0.006
    1UNL     C4    6  -0.043   0.060  -0.053
    1UNL     N1    7  -0.176   0.113  -0.066
    1UNL     C5    8  -0.266   0.021  -0.017
    1UNL     C6    9  -0.396   0.042   0.019
    1UNL     O3   10  -0.443   0.168   0.003
    1UNL     C7   11  -0.582   0.183   0.023
    1UNL     C8   12  -0.467  -0.059   0.086
    1UNL     C9   13  -0.414  -0.183   0.109
    1UNL    C10   14  -0.282  -0.201   0.073
    1UNL    C11   15  -0.210  -0.104   0.010
    1UNL    C12   16  -0.067  -0.094  -0.043
    1UNL    C13   17  -0.054  -0.171  -0.174
    1UNL    C14   18   0.079  -0.241  -0.173
    1UNL     N2   19   0.158  -0.201  -0.047
    1UNL    C15   20   0.222  -0.326   0.022
    1UNL    C16   21   0.246  -0.090  -0.095
    1UNL    C17   22   0.291   0.022   0.004
    1UNL    C18   23   0.417  -0.010   0.081
    1UNL    C19   24   0.543   0.058   0.045
    1UNL     O4   25   0.416  -0.091   0.169
    1UNL    C20   26   0.171   0.066   0.087
    1UNL    C21   27   0.105  -0.061   0.160
    1UNL    C22   28   0.045  -0.150   0.054
    1UNL     H1   29  -0.078   0.506  -0.160
    1UNL     H2   30   0.091   0.486  -0.098
    1UNL     H3   31  -0.042   0.521   0.011
    1UNL     H4   32  -0.193   0.215  -0.050
    1UNL     H5   33  -0.619   0.276  -0.033
    1UNL     H6   34  -0.603   0.184   0.127
    1UNL     H7   35  -0.636   0.098  -0.024
    1UNL     H8   36  -0.559  -0.024   0.130
    1UNL     H9   37  -0.473  -0.255   0.166
    1UNL    H10   38  -0.236  -0.291   0.101
    1UNL    H11   39  -0.129  -0.242  -0.184
    1UNL    H12   40  -0.063  -0.105  -0.256
    1UNL    H13   41   0.075  -0.348  -0.181
    1UNL    H14   42   0.140  -0.214  -0.262
    1UNL    H15   43   0.281  -0.296   0.110
    1UNL    H16   44   0.144  -0.386   0.063
    1UNL    H17   45   0.285  -0.374  -0.057
    1UNL    H18   46   0.198  -0.040  -0.172
    1UNL    H19   47   0.330  -0.148  -0.135
    1UNL    H20   48   0.322   0.106  -0.052
    1UNL    H21   49   0.565   0.140   0.116
    1UNL    H22   50   0.631  -0.004   0.066
    1UNL    H23   51   0.539   0.086  -0.065
    1UNL    H24   52   0.215   0.137   0.163
    1UNL    H25   53   0.190  -0.111   0.210
    1UNL    H26   54   0.033  -0.025   0.228
    1UNL    H27   55   0.005  -0.241   0.104
   0.00000   0.00000   0.00000   0.00000   0.00000   0.00000   0.00000   0.00000   0.00000
Generated with MDTraj, t= 40.0
 55
    1UNL     C1    1  -0.011   0.472  -0.075
    1UNL     O1    2  -0.038   0.339  -0.050
    1UNL     C2    3   0.083   0.282  -0.028
    1UNL     O2    4   0.187   0.338  -0.028
    1UNL     C3    5   0.070   0.135  -0.005
    1UNL     C4    6  -0.048   0.069  -0.020
    1UNL     N1    7  -0.175   0.119  -0.019
    1UNL     C5    8  -0.273   0.020   0.004
    1UNL     C6    9  -0.413   0.040   0.023
    1UNL     O3   10  -0.449   0.172  -0.006
    1UNL     C7   11  -0.587   0.194   0.024
    1UNL     C8   12  -0.490  -0.072   0.047
    1UNL     C9   13  -0.424  -0.196   0.058
    1UNL    C10   14  -0.288  -0.218   0.051
    1UNL    C11   15  -0.211  -0.104   0.022
    1UNL    C12   16  -0.061  -0.092  -0.014
    1UNL    C13   17  -0.034  -0.146  -0.157
    1UNL    C14   18   0.069  -0.262  -0.142
    1UNL     N2   19   0.164  -0.212  -0.033
    1UNL    C15   20   0.246  -0.318   0.030
    1UNL    C16   21   0.249  -0.102  -0.106
    1UNL    C17   22   0.290   0.019  -0.014
    1UNL    C18   23   0.410  -0.012   0.067
    1UNL    C19   24   0.540   0.042   0.015
    1UNL     O4   25   0.404  -0.076   0.168
    1UNL    C20   26   0.180   0.067   0.075
    1UNL    C21   27   0.124  -0.053   0.161
    1UNL    C22   28   0.055  -0.156   0.075
    1UNL     H1   29  -0.095   0.517  -0.131
    1UNL     H2   30   0.088   0.486  -0.117
    1UNL     H3   31  -0.012   0.521   0.026
    1UNL     H4   32  -0.197   0.218  -0.021
    1UNL     H5   33  -0.604   0.264   0.107
    1UNL     H6   34  -0.636   0.104   0.033
    1UNL     H7   35  -0.625   0.246  -0.064
    1UNL     H8   36  -0.594  -0.068   0.068
    1UNL     H9   37  -0.479  -0.287   0.077
    1UNL    H10   38  -0.234  -0.315   0.053
    1UNL    H11   39  -0.124  -0.181  -0.197
    1UNL    H12   40   0.003  -0.071  -0.219
    1UNL    H13   41   0.039  -0.360  -0.112
    1UNL    H14   42   0.130  -0.270  -0.236
    1UNL    H15   43   0.324  -0.277   0.090
    1UNL    H16   44   0.182  -0.376   0.104
    1UNL    H17   45   0.287  -0.370  -0.059
    1UNL    H18   46   0.189  -0.069  -0.185
    1UNL    H19   47   0.334  -0.149  -0.155
    1UNL    H20   48   0.313   0.102  -0.082
    1UNL    H21   49   0.623  -0.008   0.066
    1UNL    H22   50   0.555   0.030  -0.089
    1UNL    H23   51   0.525   0.158   0.036
    1UNL    H24   52   0.226   0.133   0.157
    1UNL    H25   53   0.206  -0.101   0.215
    1UNL    H26   54   0.056   0.010   0.222
    1UNL    H27   55   0.014  -0.243   0.132
   0.00000   0.00000   0.00000   0.00000   0.00000   0.00000   0.00000   0.00000   0.00000
Generated with MDTraj, t= 41.0
 55
    1UNL     C1    1  -0.009   0.496  -0.071
    1UNL     O1    2  -0.039   0.357  -0.063
    1UNL     C2    3   0.074   0.292  -0.028
    1UNL     O2    4   0.179   0.341  -0.006
    1UNL     C3    5   0.068   0.146  -0.012
    1UNL     C4    6  -0.046   0.075  -0.032
    1UNL     N1    7  -0.173   0.123  -0.031
    1UNL     C5    8  -0.265   0.025   0.012
    1UNL     C6    9  -0.409   0.037   0.010
    1UNL     O3   10  -0.466   0.164  -0.003
    1UNL     C7   11  -0.605   0.167   0.033
    1UNL     C8   12  -0.479  -0.083   0.017
    1UNL     C9   13  -0.415  -0.204   0.046
    1UNL    C10   14  -0.278  -0.213   0.058
    1UNL    C11   15  -0.199  -0.097   0.038
    1UNL    C12   16  -0.059  -0.079  -0.011
    1UNL    C13   17  -0.046  -0.150  -0.147
    1UNL    C14   18   0.058  -0.261  -0.124
    1UNL     N2   19   0.156  -0.207  -0.020
    1UNL    C15   20   0.234  -0.318   0.049
    1UNL    C16   21   0.245  -0.112  -0.096
    1UNL    C17   22   0.304   0.008  -0.016
    1UNL    C18   23   0.422  -0.032   0.058
    1UNL    C19   24   0.547   0.029   0.004
    1UNL     O4   25   0.423  -0.107   0.153
    1UNL    C20   26   0.189   0.072   0.064
    1UNL    C21   27   0.116  -0.030   0.164
    1UNL    C22   28   0.053  -0.138   0.077
    1UNL     H1   29  -0.067   0.557   0.003
    1UNL     H2   30  -0.014   0.533  -0.174
    1UNL     H3   31   0.098   0.516  -0.045
    1UNL     H4   32  -0.199   0.214  -0.059
    1UNL     H5   33  -0.647   0.090   0.092
    1UNL     H6   34  -0.655   0.172  -0.061
    1UNL     H7   35  -0.616   0.255   0.091
    1UNL     H8   36  -0.584  -0.080  -0.015
    1UNL     H9   37  -0.480  -0.291   0.053
    1UNL    H10   38  -0.227  -0.304   0.045
    1UNL    H11   39  -0.137  -0.193  -0.176
    1UNL    H12   40  -0.019  -0.081  -0.219
    1UNL    H13   41   0.019  -0.352  -0.082
    1UNL    H14   42   0.112  -0.285  -0.219
    1UNL    H15   43   0.276  -0.279   0.139
    1UNL    H16   44   0.174  -0.409   0.091
    1UNL    H17   45   0.314  -0.344  -0.019
    1UNL    H18   46   0.184  -0.075  -0.176
    1UNL    H19   47   0.320  -0.176  -0.140
    1UNL    H20   48   0.327   0.086  -0.099
    1UNL    H21   49   0.579  -0.015  -0.091
    1UNL    H22   50   0.544   0.136  -0.009
    1UNL    H23   51   0.622   0.012   0.090
    1UNL    H24   52   0.236   0.148   0.135
    1UNL    H25   53   0.204  -0.067   0.218
    1UNL    H26   54   0.040   0.023   0.230
    1UNL    H27   55   0.001  -0.222   0.133
   0.00000   0.00000   0.00000   0.00000   0.00000   0.00000   0.00000   0.00000   0.00000
Generated with MDTraj, t= 42.0
 55
    1UNL     C1    1  -0.015   0.486  -0.074
    1UNL     O1    2  -0.033   0.345  -0.073
    1UNL     C2    3   0.079   0.284  -0.019
    1UNL     O2    4   0.173   0.344   0.023
    1UNL     C3    5   0.070   0.141  -0.008
    1UNL     C4    6  -0.040   0.071  -0.035
    1UNL     N1    7  -0.165   0.123  -0.046
    1UNL     C5    8  -0.264   0.030  -0.004
    1UNL     C6    9  -0.402   0.042   0.011
    1UNL     O3   10  -0.472   0.155  -0.025
    1UNL     C7   11  -0.599   0.164   0.034
    1UNL     C8   12  -0.464  -0.078   0.058
    1UNL     C9   13  -0.403  -0.203   0.076
    1UNL    C10   14  -0.269  -0.204   0.053
    1UNL    C11   15  -0.200  -0.090   0.021
    1UNL    C12   16  -0.056  -0.078  -0.025
    1UNL    C13   17  -0.044  -0.150  -0.164
    1UNL    C14   18   0.049  -0.269  -0.140
    1UNL     N2   19   0.142  -0.210  -0.024
    1UNL    C15   20   0.218  -0.311   0.053
    1UNL    C16   21   0.245  -0.117  -0.098
    1UNL    C17   22   0.294   0.011  -0.021
    1UNL    C18   23   0.418  -0.026   0.054
    1UNL    C19   24   0.550   0.040   0.028
    1UNL     O4   25   0.415  -0.106   0.145
    1UNL    C20   26   0.188   0.071   0.072
    1UNL    C21   27   0.121  -0.030   0.166
    1UNL    C22   28   0.052  -0.131   0.075
    1UNL     H1   29   0.013   0.527   0.026
    1UNL     H2   30  -0.105   0.529  -0.118
    1UNL     H3   31   0.063   0.515  -0.146
    1UNL     H4   32  -0.182   0.219  -0.017
    1UNL     H5   33  -0.600   0.191   0.135
    1UNL     H6   34  -0.657   0.077   0.012
    1UNL     H7   35  -0.642   0.250  -0.009
    1UNL     H8   36  -0.567  -0.066   0.078
    1UNL     H9   37  -0.460  -0.293   0.089
    1UNL    H10   38  -0.217  -0.301   0.059
    1UNL    H11   39  -0.141  -0.171  -0.194
    1UNL    H12   40  -0.008  -0.086  -0.238
    1UNL    H13   41  -0.010  -0.354  -0.106
    1UNL    H14   42   0.098  -0.299  -0.235
    1UNL    H15   43   0.310  -0.276   0.102
    1UNL    H16   44   0.161  -0.351   0.143
    1UNL    H17   45   0.246  -0.393  -0.013
    1UNL    H18   46   0.196  -0.085  -0.193
    1UNL    H19   47   0.330  -0.178  -0.121
    1UNL    H20   48   0.319   0.091  -0.106
    1UNL    H21   49   0.550   0.149  -0.003
    1UNL    H22   50   0.608   0.038   0.122
    1UNL    H23   51   0.608  -0.017  -0.043
    1UNL    H24   52   0.232   0.153   0.139
    1UNL    H25   53   0.193  -0.079   0.234
    1UNL    H26   54   0.050   0.037   0.226
    1UNL    H27   55   0.006  -0.215   0.135
   0.00000   0.00000   0.00000   0.00000   0.00000   0.00000   0.00000   0.00000   0.00000
Generated with MDTraj, t= 43.0
 55
    1UNL     C1    1  -0.012   0.492  -0.080
    1UNL     O1    2  -0.029   0.347  -0.089
    1UNL     C2    3   0.067   0.279  -0.014
    1UNL     O2    4   0.158   0.335   0.037
    1UNL     C3    5   0.061   0.133  -0.006
    1UNL     C4    6  -0.041   0.054  -0.045
    1UNL     N1    7  -0.169   0.106  -0.067
    1UNL     C5    8  -0.262   0.008  -0.018
    1UNL     C6    9  -0.398   0.038   0.014
    1UNL     O3   10  -0.446   0.174  -0.014
    1UNL     C7   11  -0.587   0.200   0.021
    1UNL     C8   12  -0.468  -0.055   0.084
    1UNL     C9   13  -0.410  -0.175   0.118
    1UNL    C10   14  -0.271  -0.203   0.090
    1UNL    C11   15  -0.200  -0.109   0.020
    1UNL    C12   16  -0.060  -0.099  -0.034
    1UNL    C13   17  -0.046  -0.166  -0.174
    1UNL    C14   18   0.070  -0.263  -0.156
    1UNL     N2   19   0.159  -0.217  -0.040
    1UNL    C15   20   0.235  -0.327   0.022
    1UNL    C16   21   0.257  -0.110  -0.101
    1UNL    C17   22   0.289   0.022  -0.019
    1UNL    C18   23   0.410  -0.006   0.066
    1UNL    C19   24   0.540   0.074   0.067
    1UNL     O4   25   0.395  -0.094   0.145
    1UNL    C20   26   0.172   0.062   0.073
    1UNL    C21   27   0.116  -0.057   0.152
    1UNL    C22   28   0.053  -0.159   0.058
    1UNL     H1   29   0.086   0.522  -0.037
    1UNL     H2   30  -0.097   0.537  -0.031
    1UNL     H3   31  -0.022   0.527  -0.182
    1UNL     H4   32  -0.195   0.209  -0.078
    1UNL     H5   33  -0.599   0.183   0.123
    1UNL     H6   34  -0.658   0.132  -0.030
    1UNL     H7   35  -0.615   0.303   0.010
    1UNL     H8   36  -0.568  -0.032   0.119
    1UNL     H9   37  -0.462  -0.251   0.172
    1UNL    H10   38  -0.231  -0.286   0.139
    1UNL    H11   39  -0.138  -0.205  -0.202
    1UNL    H12   40  -0.030  -0.090  -0.245
    1UNL    H13   41   0.023  -0.363  -0.145
    1UNL    H14   42   0.133  -0.270  -0.245
    1UNL    H15   43   0.274  -0.289   0.123
    1UNL    H16   44   0.171  -0.404   0.060
    1UNL    H17   45   0.322  -0.372  -0.029
    1UNL    H18   46   0.216  -0.076  -0.200
    1UNL    H19   47   0.352  -0.160  -0.104
    1UNL    H20   48   0.322   0.110  -0.096
    1UNL    H21   49   0.563   0.122   0.171
    1UNL    H22   50   0.631   0.012   0.050
    1UNL    H23   51   0.537   0.151  -0.001
    1UNL    H24   52   0.220   0.138   0.143
    1UNL    H25   53   0.201  -0.086   0.221
    1UNL    H26   54   0.032  -0.015   0.217
    1UNL    H27   55  -0.004  -0.241   0.114
   0.00000   0.00000   0.00000   0.00000   0.00000   0.00000   0.00000   0.00000   0.00000
Generated with MDTraj, t= 44.0
 55
    1UNL     C1    1  -0.029   0.470  -0.098
    1UNL     O1    2  -0.038   0.327  -0.098
    1UNL     C2    3   0.066   0.270  -0.022
    1UNL     O2    4   0.151   0.336   0.031
    1UNL     C3    5   0.067   0.124  -0.014
    1UNL     C4    6  -0.037   0.051  -0.058
    1UNL     N1    7  -0.170   0.105  -0.079
    1UNL     C5    8  -0.263   0.021  -0.017
    1UNL     C6    9  -0.396   0.057   0.020
    1UNL     O3   10  -0.448   0.180  -0.019
    1UNL     C7   11  -0.571   0.222   0.026
    1UNL     C8   12  -0.458  -0.039   0.103
    1UNL     C9   13  -0.393  -0.159   0.139
    1UNL    C10   14  -0.269  -0.198   0.093
    1UNL    C11   15  -0.207  -0.108   0.014
    1UNL    C12   16  -0.062  -0.106  -0.041
    1UNL    C13   17  -0.047  -0.183  -0.175
    1UNL    C14   18   0.085  -0.265  -0.172
    1UNL     N2   19   0.164  -0.208  -0.047
    1UNL    C15   20   0.259  -0.307   0.006
    1UNL    C16   21   0.249  -0.085  -0.105
    1UNL    C17   22   0.285   0.019   0.006
    1UNL    C18   23   0.411  -0.009   0.091
    1UNL    C19   24   0.519   0.091   0.103
    1UNL     O4   25   0.422  -0.115   0.144
    1UNL    C20   26   0.154   0.050   0.088
    1UNL    C21   27   0.089  -0.078   0.149
    1UNL    C22   28   0.052  -0.177   0.046
    1UNL     H1   29   0.029   0.505  -0.183
    1UNL     H2   30   0.007   0.512  -0.004
    1UNL     H3   31  -0.131   0.496  -0.110
    1UNL     H4   32  -0.190   0.211  -0.079
    1UNL     H5   33  -0.554   0.260   0.126
    1UNL     H6   34  -0.648   0.138   0.039
    1UNL     H7   35  -0.602   0.308  -0.034
    1UNL     H8   36  -0.559  -0.024   0.136
    1UNL     H9   37  -0.445  -0.228   0.210
    1UNL    H10   38  -0.223  -0.291   0.130
    1UNL    H11   39  -0.128  -0.248  -0.178
    1UNL    H12   40  -0.059  -0.110  -0.250
    1UNL    H13   41   0.052  -0.369  -0.145
    1UNL    H14   42   0.129  -0.264  -0.272
    1UNL    H15   43   0.328  -0.269   0.089
    1UNL    H16   44   0.213  -0.384   0.059
    1UNL    H17   45   0.321  -0.351  -0.076
    1UNL    H18   46   0.197  -0.028  -0.188
    1UNL    H19   47   0.343  -0.131  -0.124
    1UNL    H20   48   0.314   0.114  -0.063
    1UNL    H21   49   0.618   0.042   0.130
    1UNL    H22   50   0.545   0.136   0.004
    1UNL    H23   51   0.487   0.162   0.175
    1UNL    H24   52   0.176   0.135   0.158
    1UNL    H25   53   0.171  -0.121   0.218
    1UNL    H26   54   0.005  -0.041   0.215
    1UNL    H27   55   0.017  -0.277   0.089
   0.00000   0.00000   0.00000   0.00000   0.00000   0.00000   0.00000   0.00000   0.00000
Generated with MDTraj, t= 45.0
 55
    1UNL     C1    1  -0.025   0.467  -0.119
    1UNL     O1    2  -0.041   0.329  -0.101
    1UNL     C2    3   0.065   0.277  -0.023
    1UNL     O2    4   0.151   0.342   0.025
    1UNL     C3    5   0.068   0.130  -0.014
    1UNL     C4    6  -0.038   0.057  -0.058
    1UNL     N1    7  -0.170   0.098  -0.081
    1UNL     C5    8  -0.267   0.008  -0.030
    1UNL     C6    9  -0.394   0.039   0.017
    1UNL     O3   10  -0.445   0.167  -0.022
    1UNL     C7   11  -0.551   0.219   0.051
    1UNL     C8   12  -0.456  -0.059   0.094
    1UNL     C9   13  -0.395  -0.172   0.141
    1UNL    C10   14  -0.263  -0.192   0.103
    1UNL    C11   15  -0.200  -0.103   0.016
    1UNL    C12   16  -0.062  -0.094  -0.038
    1UNL    C13   17  -0.047  -0.158  -0.175
    1UNL    C14   18   0.077  -0.245  -0.168
    1UNL     N2   19   0.158  -0.209  -0.048
    1UNL    C15   20   0.232  -0.325   0.012
    1UNL    C16   21   0.257  -0.100  -0.106
    1UNL    C17   22   0.293   0.016  -0.009
    1UNL    C18   23   0.403  -0.018   0.089
    1UNL    C19   24   0.494   0.090   0.143
    1UNL     O4   25   0.409  -0.132   0.132
    1UNL    C20   26   0.175   0.062   0.073
    1UNL    C21   27   0.108  -0.054   0.156
    1UNL    C22   28   0.053  -0.152   0.051
    1UNL     H1   29  -0.103   0.505  -0.187
    1UNL     H2   30   0.074   0.491  -0.161
    1UNL     H3   31  -0.042   0.509  -0.021
    1UNL     H4   32  -0.191   0.200  -0.084
    1UNL     H5   33  -0.545   0.179   0.154
    1UNL     H6   34  -0.654   0.175   0.014
    1UNL     H7   35  -0.543   0.330   0.054
    1UNL     H8   36  -0.558  -0.046   0.125
    1UNL     H9   37  -0.450  -0.245   0.191
    1UNL    H10   38  -0.207  -0.279   0.130
    1UNL    H11   39  -0.134  -0.213  -0.193
    1UNL    H12   40  -0.043  -0.078  -0.243
    1UNL    H13   41   0.035  -0.350  -0.152
    1UNL    H14   42   0.136  -0.239  -0.258
    1UNL    H15   43   0.295  -0.276   0.087
    1UNL    H16   44   0.176  -0.397   0.068
    1UNL    H17   45   0.301  -0.373  -0.064
    1UNL    H18   46   0.209  -0.062  -0.200
    1UNL    H19   47   0.351  -0.149  -0.114
    1UNL    H20   48   0.329   0.104  -0.078
    1UNL    H21   49   0.543   0.138   0.060
    1UNL    H22   50   0.441   0.176   0.192
    1UNL    H23   51   0.558   0.040   0.220
    1UNL    H24   52   0.211   0.141   0.142
    1UNL    H25   53   0.188  -0.085   0.235
    1UNL    H26   54   0.024  -0.012   0.217
    1UNL    H27   55   0.012  -0.245   0.100
   0.00000   0.00000   0.00000   0.00000   0.00000   0.00000   0.00000   0.00000   0.00000
Generated with MDTraj, t= 46.0
 55
    1UNL     C1    1  -0.011   0.478  -0.121
    1UNL     O1    2  -0.024   0.340  -0.109
    1UNL     C2    3   0.081   0.283  -0.041
    1UNL     O2    4   0.172   0.340   0.006
    1UNL     C3    5   0.069   0.137  -0.024
    1UNL     C4    6  -0.044   0.064  -0.052
    1UNL     N1    7  -0.171   0.111  -0.077
    1UNL     C5    8  -0.266   0.018  -0.023
    1UNL     C6    9  -0.399   0.038   0.020
    1UNL     O3   10  -0.466   0.162  -0.001
    1UNL     C7   11  -0.571   0.195   0.086
    1UNL     C8   12  -0.470  -0.066   0.082
    1UNL     C9   13  -0.408  -0.191   0.094
    1UNL    C10   14  -0.277  -0.207   0.066
    1UNL    C11   15  -0.205  -0.099   0.013
    1UNL    C12   16  -0.060  -0.087  -0.032
    1UNL    C13   17  -0.043  -0.166  -0.168
    1UNL    C14   18   0.074  -0.263  -0.156
    1UNL     N2   19   0.158  -0.207  -0.028
    1UNL    C15   20   0.242  -0.316   0.032
    1UNL    C16   21   0.253  -0.104  -0.094
    1UNL    C17   22   0.297   0.016  -0.010
    1UNL    C18   23   0.400  -0.025   0.089
    1UNL    C19   24   0.488   0.082   0.153
    1UNL     O4   25   0.415  -0.141   0.121
    1UNL    C20   26   0.179   0.077   0.061
    1UNL    C21   27   0.116  -0.030   0.153
    1UNL    C22   28   0.053  -0.139   0.065
    1UNL     H1   29  -0.079   0.515  -0.041
    1UNL     H2   30  -0.034   0.514  -0.225
    1UNL     H3   31   0.088   0.502  -0.080
    1UNL     H4   32  -0.190   0.209  -0.083
    1UNL     H5   33  -0.537   0.188   0.193
    1UNL     H6   34  -0.652   0.113   0.078
    1UNL     H7   35  -0.609   0.300   0.068
    1UNL     H8   36  -0.575  -0.049   0.102
    1UNL     H9   37  -0.459  -0.280   0.137
    1UNL    H10   38  -0.238  -0.306   0.061
    1UNL    H11   39  -0.137  -0.206  -0.195
    1UNL    H12   40  -0.022  -0.096  -0.243
    1UNL    H13   41   0.046  -0.373  -0.144
    1UNL    H14   42   0.135  -0.255  -0.246
    1UNL    H15   43   0.343  -0.292   0.047
    1UNL    H16   44   0.192  -0.338   0.129
    1UNL    H17   45   0.226  -0.404  -0.035
    1UNL    H18   46   0.205  -0.067  -0.188
    1UNL    H19   47   0.334  -0.166  -0.119
    1UNL    H20   48   0.337   0.091  -0.081
    1UNL    H21   49   0.434   0.160   0.193
    1UNL    H22   50   0.550   0.039   0.238
    1UNL    H23   51   0.570   0.109   0.079
    1UNL    H24   52   0.211   0.151   0.135
    1UNL    H25   53   0.196  -0.069   0.228
    1UNL    H26   54   0.045   0.032   0.217
    1UNL    H27   55   0.010  -0.220   0.130
   0.00000   0.00000   0.00000   0.00000   0.00000   0.00000   0.00000   0.00000   0.00000
Generated with MDTraj, t= 47.0
 55
    1UNL     C1    1  -0.002   0.480  -0.129
    1UNL     O1    2  -0.021   0.344  -0.095
    1UNL     C2    3   0.090   0.286  -0.045
    1UNL     O2    4   0.193   0.343  -0.029
    1UNL     C3    5   0.065   0.139  -0.017
    1UNL     C4    6  -0.047   0.071  -0.055
    1UNL     N1    7  -0.174   0.121  -0.037
    1UNL     C5    8  -0.267   0.023   0.007
    1UNL     C6    9  -0.404   0.043   0.035
    1UNL     O3   10  -0.451   0.175   0.028
    1UNL     C7   11  -0.581   0.185   0.076
    1UNL     C8   12  -0.475  -0.075   0.060
    1UNL     C9   13  -0.408  -0.198   0.059
    1UNL    C10   14  -0.276  -0.219   0.027
    1UNL    C11   15  -0.203  -0.102   0.003
    1UNL    C12   16  -0.063  -0.082  -0.039
    1UNL    C13   17  -0.036  -0.158  -0.180
    1UNL    C14   18   0.065  -0.263  -0.143
    1UNL     N2   19   0.152  -0.220  -0.022
    1UNL    C15   20   0.226  -0.328   0.061
    1UNL    C16   21   0.255  -0.123  -0.081
    1UNL    C17   22   0.295   0.007  -0.000
    1UNL    C18   23   0.412  -0.013   0.086
    1UNL    C19   24   0.490   0.102   0.117
    1UNL     O4   25   0.444  -0.119   0.127
    1UNL    C20   26   0.167   0.069   0.073
    1UNL    C21   27   0.092  -0.043   0.156
    1UNL    C22   28   0.037  -0.147   0.063
    1UNL     H1   29   0.096   0.502  -0.081
    1UNL     H2   30  -0.092   0.539  -0.093
    1UNL     H3   31   0.019   0.489  -0.235
    1UNL     H4   32  -0.183   0.217  -0.021
    1UNL     H5   33  -0.608   0.107   0.155
    1UNL     H6   34  -0.648   0.156  -0.010
    1UNL     H7   35  -0.594   0.288   0.117
    1UNL     H8   36  -0.577  -0.068   0.090
    1UNL     H9   37  -0.470  -0.276   0.092
    1UNL    H10   38  -0.228  -0.320   0.026
    1UNL    H11   39  -0.125  -0.204  -0.214
    1UNL    H12   40  -0.008  -0.095  -0.260
    1UNL    H13   41   0.027  -0.367  -0.121
    1UNL    H14   42   0.143  -0.278  -0.219
    1UNL    H15   43   0.230  -0.288   0.161
    1UNL    H16   44   0.157  -0.418   0.058
    1UNL    H17   45   0.327  -0.340   0.027
    1UNL    H18   46   0.198  -0.094  -0.172
    1UNL    H19   47   0.335  -0.184  -0.110
    1UNL    H20   48   0.322   0.075  -0.075
    1UNL    H21   49   0.544   0.082   0.205
    1UNL    H22   50   0.565   0.116   0.035
    1UNL    H23   51   0.435   0.200   0.126
    1UNL    H24   52   0.198   0.136   0.152
    1UNL    H25   53   0.169  -0.078   0.233
    1UNL    H26   54   0.010   0.016   0.213
    1UNL    H27   55  -0.015  -0.221   0.127
   0.00000   0.00000   0.00000   0.00000   0.00000   0.00000   0.00000   0.00000   0.00000
Generated with MDTraj, t= 48.0
 55
    1UNL     C1    1   0.008   0.468  -0.125
    1UNL     O1    2  -0.031   0.345  -0.074
    1UNL     C2    3   0.086   0.275  -0.038
    1UNL     O2    4   0.195   0.325  -0.036
    1UNL     C3    5   0.068   0.132  -0.009
    1UNL     C4    6  -0.051   0.075  -0.033
    1UNL     N1    7  -0.178   0.124  -0.043
    1UNL     C5    8  -0.269   0.026   0.002
    1UNL     C6    9  -0.408   0.038   0.026
    1UNL     O3   10  -0.452   0.168   0.041
    1UNL     C7   11  -0.590   0.192   0.066
    1UNL     C8   12  -0.483  -0.076   0.045
    1UNL     C9   13  -0.429  -0.202   0.038
    1UNL    C10   14  -0.293  -0.210   0.024
    1UNL    C11   15  -0.214  -0.098   0.004
    1UNL    C12   16  -0.065  -0.081  -0.027
    1UNL    C13   17  -0.027  -0.152  -0.167
    1UNL    C14   18   0.070  -0.271  -0.141
    1UNL     N2   19   0.159  -0.215  -0.023
    1UNL    C15   20   0.220  -0.331   0.060
    1UNL    C16   21   0.270  -0.125  -0.080
    1UNL    C17   22   0.296   0.013  -0.010
    1UNL    C18   23   0.419   0.003   0.079
    1UNL    C19   24   0.512   0.114   0.091
    1UNL     O4   25   0.432  -0.097   0.143
    1UNL    C20   26   0.177   0.065   0.073
    1UNL    C21   27   0.109  -0.055   0.155
    1UNL    C22   28   0.038  -0.152   0.066
    1UNL     H1   29   0.091   0.446  -0.194
    1UNL     H2   30   0.031   0.537  -0.040
    1UNL     H3   31  -0.069   0.510  -0.186
    1UNL     H4   32  -0.196   0.219  -0.029
    1UNL     H5   33  -0.624   0.182   0.173
    1UNL     H6   34  -0.643   0.119   0.009
    1UNL     H7   35  -0.609   0.295   0.030
    1UNL     H8   36  -0.588  -0.072   0.067
    1UNL     H9   37  -0.486  -0.296   0.053
    1UNL    H10   38  -0.240  -0.296   0.042
    1UNL    H11   39  -0.114  -0.186  -0.218
    1UNL    H12   40   0.020  -0.077  -0.225
    1UNL    H13   41   0.026  -0.365  -0.099
    1UNL    H14   42   0.130  -0.303  -0.229
    1UNL    H15   43   0.330  -0.315   0.077
    1UNL    H16   44   0.167  -0.344   0.158
    1UNL    H17   45   0.215  -0.415  -0.005
    1UNL    H18   46   0.222  -0.105  -0.177
    1UNL    H19   47   0.354  -0.187  -0.095
    1UNL    H20   48   0.302   0.082  -0.085
    1UNL    H21   49   0.592   0.101   0.012
    1UNL    H22   50   0.472   0.212   0.074
    1UNL    H23   51   0.568   0.111   0.188
    1UNL    H24   52   0.219   0.140   0.137
    1UNL    H25   53   0.195  -0.103   0.213
    1UNL    H26   54   0.037   0.005   0.224
    1UNL    H27   55  -0.008  -0.231   0.127
   0.00000   0.00000   0.00000   0.00000   0.00000   0.00000   0.00000   0.00000   0.00000
Generated with MDTraj, t= 49.0
 55
    1UNL     C1    1   0.000   0.475  -0.095
    1UNL     O1    2  -0.020   0.340  -0.096
    1UNL     C2    3   0.090   0.277  -0.033
    1UNL     O2    4   0.195   0.330  -0.007
    1UNL     C3    5   0.068   0.130  -0.003
    1UNL     C4    6  -0.046   0.064  -0.039
    1UNL     N1    7  -0.178   0.121  -0.047
    1UNL     C5    8  -0.270   0.024  -0.000
    1UNL     C6    9  -0.412   0.034   0.012
    1UNL     O3   10  -0.460   0.166  -0.015
    1UNL     C7   11  -0.583   0.186   0.047
    1UNL     C8   12  -0.484  -0.083   0.047
    1UNL     C9   13  -0.417  -0.202   0.066
    1UNL    C10   14  -0.279  -0.207   0.054
    1UNL    C11   15  -0.206  -0.098   0.025
    1UNL    C12   16  -0.063  -0.078  -0.026
    1UNL    C13   17  -0.046  -0.157  -0.159
    1UNL    C14   18   0.063  -0.263  -0.131
    1UNL     N2   19   0.156  -0.211  -0.028
    1UNL    C15   20   0.227  -0.320   0.047
    1UNL    C16   21   0.249  -0.100  -0.094
    1UNL    C17   22   0.289   0.019  -0.007
    1UNL    C18   23   0.414  -0.003   0.073
    1UNL    C19   24   0.541   0.077   0.061
    1UNL     O4   25   0.413  -0.095   0.153
    1UNL    C20   26   0.173   0.063   0.084
    1UNL    C21   27   0.108  -0.052   0.167
    1UNL    C22   28   0.046  -0.144   0.064
    1UNL     H1   29  -0.057   0.513  -0.176
    1UNL     H2   30   0.107   0.499  -0.109
    1UNL     H3   31  -0.029   0.519  -0.002
    1UNL     H4   32  -0.202   0.220  -0.039
    1UNL     H5   33  -0.597   0.133   0.142
    1UNL     H6   34  -0.656   0.159  -0.022
    1UNL     H7   35  -0.592   0.292   0.069
    1UNL     H8   36  -0.592  -0.076   0.051
    1UNL     H9   37  -0.470  -0.292   0.073
    1UNL    H10   38  -0.230  -0.306   0.067
    1UNL    H11   39  -0.139  -0.203  -0.184
    1UNL    H12   40  -0.011  -0.092  -0.236
    1UNL    H13   41   0.032  -0.366  -0.103
    1UNL    H14   42   0.123  -0.272  -0.225
    1UNL    H15   43   0.337  -0.285   0.047
    1UNL    H16   44   0.202  -0.342   0.151
    1UNL    H17   45   0.233  -0.411  -0.008
    1UNL    H18   46   0.193  -0.061  -0.180
    1UNL    H19   47   0.339  -0.143  -0.131
    1UNL    H20   48   0.302   0.096  -0.073
    1UNL    H21   49   0.511   0.168  -0.004
    1UNL    H22   50   0.567   0.120   0.153
    1UNL    H23   51   0.626   0.016   0.017
    1UNL    H24   52   0.222   0.136   0.146
    1UNL    H25   53   0.193  -0.095   0.231
    1UNL    H26   54   0.025   0.003   0.229
    1UNL    H27   55   0.014  -0.235   0.111
   0.00000   0.00000   0.00000   0.00000   0.00000   0.00000   0.00000   0.00000   0.00000
Generated with MDTraj, t= 50.0
 55
    1UNL     C1    1  -0.013   0.487  -0.099
    1UNL     O1    2  -0.041   0.354  -0.076
    1UNL     C2    3   0.066   0.286  -0.007
    1UNL     O2    4   0.159   0.349   0.036
    1UNL     C3    5   0.064   0.142  -0.009
    1UNL     C4    6  -0.042   0.068  -0.048
    1UNL     N1    7  -0.173   0.117  -0.067
    1UNL     C5    8  -0.266   0.019  -0.014
    1UNL     C6    9  -0.402   0.040   0.003
    1UNL     O3   10  -0.466   0.155  -0.050
    1UNL     C7   11  -0.590   0.178   0.011
    1UNL     C8   12  -0.472  -0.060   0.067
    1UNL     C9   13  -0.407  -0.174   0.115
    1UNL    C10   14  -0.268  -0.199   0.092
    1UNL    C11   15  -0.201  -0.100   0.027
    1UNL    C12   16  -0.056  -0.088  -0.026
    1UNL    C13   17  -0.046  -0.173  -0.161
    1UNL    C14   18   0.071  -0.269  -0.144
    1UNL     N2   19   0.162  -0.207  -0.027
    1UNL    C15   20   0.249  -0.319   0.034
    1UNL    C16   21   0.245  -0.099  -0.091
    1UNL    C17   22   0.295   0.022  -0.010
    1UNL    C18   23   0.412  -0.026   0.077
    1UNL    C19   24   0.553   0.018   0.038
    1UNL     O4   25   0.406  -0.111   0.163
    1UNL    C20   26   0.174   0.078   0.072
    1UNL    C21   27   0.111  -0.036   0.155
    1UNL    C22   28   0.058  -0.146   0.065
    1UNL     H1   29  -0.089   0.540  -0.048
    1UNL     H2   30  -0.025   0.517  -0.204
    1UNL     H3   31   0.083   0.521  -0.062
    1UNL     H4   32  -0.191   0.221  -0.053
    1UNL     H5   33  -0.589   0.168   0.118
    1UNL     H6   34  -0.665   0.132  -0.039
    1UNL     H7   35  -0.608   0.282  -0.003
    1UNL     H8   36  -0.578  -0.055   0.067
    1UNL     H9   37  -0.459  -0.259   0.163
    1UNL    H10   38  -0.228  -0.298   0.103
    1UNL    H11   39  -0.135  -0.230  -0.172
    1UNL    H12   40  -0.039  -0.105  -0.244
    1UNL    H13   41   0.029  -0.369  -0.128
    1UNL    H14   42   0.138  -0.284  -0.234
    1UNL    H15   43   0.269  -0.323   0.143
    1UNL    H16   44   0.212  -0.417   0.008
    1UNL    H17   45   0.351  -0.326  -0.009
    1UNL    H18   46   0.192  -0.060  -0.178
    1UNL    H19   47   0.334  -0.158  -0.113
    1UNL    H20   48   0.326   0.090  -0.079
    1UNL    H21   49   0.572   0.105   0.110
    1UNL    H22   50   0.635  -0.050   0.057
    1UNL    H23   51   0.551   0.047  -0.071
    1UNL    H24   52   0.220   0.152   0.136
    1UNL    H25   53   0.201  -0.073   0.216
    1UNL    H26   54   0.030   0.015   0.220
    1UNL    H27   55   0.017  -0.224   0.122
   0.00000   0.00000   0.00000   0.00000   0.00000   0.00000   0.00000   0.00000   0.00000
Generated with MDTraj, t= 51.0
 55
    1UNL     C1    1  -0.053   0.468  -0.068
    1UNL     O1    2  -0.036   0.335  -0.093
    1UNL     C2    3   0.062   0.279  -0.010
    1UNL     O2    4   0.139   0.344   0.051
    1UNL     C3    5   0.070   0.136  -0.011
    1UNL     C4    6  -0.035   0.060  -0.051
    1UNL     N1    7  -0.170   0.106  -0.070
    1UNL     C5    8  -0.258   0.012  -0.022
    1UNL     C6    9  -0.392   0.046   0.005
    1UNL     O3   10  -0.437   0.166  -0.050
    1UNL     C7   11  -0.580   0.178  -0.030
    1UNL     C8   12  -0.464  -0.047   0.085
    1UNL     C9   13  -0.401  -0.161   0.139
    1UNL    C10   14  -0.264  -0.185   0.108
    1UNL    C11   15  -0.196  -0.100   0.022
    1UNL    C12   16  -0.056  -0.090  -0.025
    1UNL    C13   17  -0.040  -0.162  -0.167
    1UNL    C14   18   0.075  -0.260  -0.151
    1UNL     N2   19   0.153  -0.208  -0.038
    1UNL    C15   20   0.247  -0.318   0.016
    1UNL    C16   21   0.249  -0.097  -0.101
    1UNL    C17   22   0.293   0.021  -0.004
    1UNL    C18   23   0.407  -0.026   0.080
    1UNL    C19   24   0.543  -0.004   0.023
    1UNL     O4   25   0.386  -0.085   0.179
    1UNL    C20   26   0.179   0.078   0.079
    1UNL    C21   27   0.116  -0.035   0.164
    1UNL    C22   28   0.060  -0.146   0.066
    1UNL     H1   29  -0.025   0.484   0.035
    1UNL     H2   30  -0.160   0.503  -0.070
    1UNL     H3   31   0.010   0.535  -0.128
    1UNL     H4   32  -0.205   0.208  -0.069
    1UNL     H5   33  -0.603   0.161   0.072
    1UNL     H6   34  -0.637   0.124  -0.097
    1UNL     H7   35  -0.610   0.281  -0.040
    1UNL     H8   36  -0.567  -0.031   0.118
    1UNL     H9   37  -0.454  -0.217   0.212
    1UNL    H10   38  -0.221  -0.275   0.147
    1UNL    H11   39  -0.129  -0.217  -0.187
    1UNL    H12   40  -0.024  -0.097  -0.253
    1UNL    H13   41   0.036  -0.355  -0.115
    1UNL    H14   42   0.130  -0.285  -0.248
    1UNL    H15   43   0.338  -0.282   0.053
    1UNL    H16   44   0.204  -0.364   0.104
    1UNL    H17   45   0.264  -0.413  -0.046
    1UNL    H18   46   0.202  -0.055  -0.188
    1UNL    H19   47   0.343  -0.148  -0.128
    1UNL    H20   48   0.327   0.103  -0.060
    1UNL    H21   49   0.613  -0.058   0.090
    1UNL    H22   50   0.575  -0.034  -0.086
    1UNL    H23   51   0.567   0.103   0.019
    1UNL    H24   52   0.205   0.164   0.141
    1UNL    H25   53   0.199  -0.069   0.237
    1UNL    H26   54   0.030   0.014   0.221
    1UNL    H27   55   0.023  -0.225   0.119
   0.00000   0.00000   0.00000   0.00000   0.00000   0.00000   0.00000   0.00000   0.00000
Generated with MDTraj, t= 52.0
 55
    1UNL     C1    1  -0.048   0.467  -0.061
    1UNL     O1    2  -0.051   0.329  -0.071
    1UNL     C2    3   0.059   0.268  -0.009
    1UNL     O2    4   0.142   0.331   0.046
    1UNL     C3    5   0.073   0.127  -0.019
    1UNL     C4    6  -0.033   0.056  -0.061
    1UNL     N1    7  -0.160   0.108  -0.077
    1UNL     C5    8  -0.260   0.025  -0.018
    1UNL     C6    9  -0.393   0.056   0.012
    1UNL     O3   10  -0.450   0.175  -0.035
    1UNL     C7   11  -0.589   0.184  -0.042
    1UNL     C8   12  -0.463  -0.039   0.093
    1UNL     C9   13  -0.405  -0.162   0.132
    1UNL    C10   14  -0.278  -0.189   0.090
    1UNL    C11   15  -0.203  -0.094   0.021
    1UNL    C12   16  -0.060  -0.096  -0.034
    1UNL    C13   17  -0.053  -0.188  -0.155
    1UNL    C14   18   0.083  -0.263  -0.145
    1UNL     N2   19   0.164  -0.198  -0.034
    1UNL    C15   20   0.249  -0.302   0.038
    1UNL    C16   21   0.256  -0.092  -0.109
    1UNL    C17   22   0.299   0.019  -0.012
    1UNL    C18   23   0.416  -0.023   0.075
    1UNL    C19   24   0.555  -0.002   0.024
    1UNL     O4   25   0.399  -0.064   0.186
    1UNL    C20   26   0.181   0.066   0.067
    1UNL    C21   27   0.107  -0.047   0.156
    1UNL    C22   28   0.055  -0.151   0.059
    1UNL     H1   29   0.026   0.494   0.014
    1UNL     H2   30  -0.147   0.500  -0.019
    1UNL     H3   31  -0.022   0.520  -0.156
    1UNL     H4   32  -0.170   0.212  -0.086
    1UNL     H5   33  -0.620   0.240   0.044
    1UNL     H6   34  -0.636   0.091  -0.063
    1UNL     H7   35  -0.611   0.251  -0.125
    1UNL     H8   36  -0.555  -0.010   0.137
    1UNL     H9   37  -0.457  -0.226   0.203
    1UNL    H10   38  -0.219  -0.276   0.122
    1UNL    H11   39  -0.136  -0.256  -0.160
    1UNL    H12   40  -0.063  -0.124  -0.241
    1UNL    H13   41   0.053  -0.366  -0.123
    1UNL    H14   42   0.147  -0.272  -0.239
    1UNL    H15   43   0.264  -0.289   0.141
    1UNL    H16   44   0.195  -0.398   0.020
    1UNL    H17   45   0.347  -0.328  -0.012
    1UNL    H18   46   0.196  -0.046  -0.186
    1UNL    H19   47   0.342  -0.146  -0.153
    1UNL    H20   48   0.332   0.112  -0.065
    1UNL    H21   49   0.582  -0.086  -0.043
    1UNL    H22   50   0.577   0.100  -0.034
    1UNL    H23   51   0.629   0.009   0.103
    1UNL    H24   52   0.210   0.153   0.129
    1UNL    H25   53   0.192  -0.086   0.225
    1UNL    H26   54   0.026   0.003   0.219
    1UNL    H27   55   0.018  -0.235   0.103
   0.00000   0.00000   0.00000   0.00000   0.00000   0.00000   0.00000   0.00000   0.00000
Generated with MDTraj, t= 53.0
 55
    1UNL     C1    1  -0.018   0.497  -0.066
    1UNL     O1    2  -0.046   0.360  -0.067
    1UNL     C2    3   0.068   0.291  -0.022
    1UNL     O2    4   0.166   0.351   0.007
    1UNL     C3    5   0.063   0.139  -0.008
    1UNL     C4    6  -0.043   0.060  -0.045
    1UNL     N1    7  -0.171   0.111  -0.073
    1UNL     C5    8  -0.265   0.017  -0.029
    1UNL     C6    9  -0.400   0.038   0.007
    1UNL     O3   10  -0.453   0.173  -0.016
    1UNL     C7   11  -0.588   0.187  -0.039
    1UNL     C8   12  -0.461  -0.066   0.079
    1UNL     C9   13  -0.389  -0.180   0.116
    1UNL    C10   14  -0.258  -0.202   0.083
    1UNL    C11   15  -0.194  -0.099   0.013
    1UNL    C12   16  -0.053  -0.094  -0.027
    1UNL    C13   17  -0.041  -0.176  -0.156
    1UNL    C14   18   0.066  -0.277  -0.129
    1UNL     N2   19   0.156  -0.218  -0.024
    1UNL    C15   20   0.244  -0.320   0.042
    1UNL    C16   21   0.246  -0.104  -0.095
    1UNL    C17   22   0.284   0.017  -0.007
    1UNL    C18   23   0.406  -0.018   0.070
    1UNL    C19   24   0.542   0.019   0.017
    1UNL     O4   25   0.396  -0.078   0.176
    1UNL    C20   26   0.163   0.065   0.077
    1UNL    C21   27   0.111  -0.052   0.167
    1UNL    C22   28   0.055  -0.148   0.070
    1UNL     H1   29  -0.016   0.520   0.039
    1UNL     H2   30  -0.105   0.549  -0.115
    1UNL     H3   31   0.083   0.519  -0.106
    1UNL     H4   32  -0.197   0.208  -0.085
    1UNL     H5   33  -0.637   0.149   0.051
    1UNL     H6   34  -0.610   0.144  -0.140
    1UNL     H7   35  -0.609   0.296  -0.042
    1UNL     H8   36  -0.567  -0.062   0.103
    1UNL     H9   37  -0.441  -0.260   0.170
    1UNL    H10   38  -0.192  -0.280   0.113
    1UNL    H11   39  -0.137  -0.219  -0.186
    1UNL    H12   40  -0.013  -0.112  -0.237
    1UNL    H13   41   0.011  -0.363  -0.088
    1UNL    H14   42   0.123  -0.310  -0.220
    1UNL    H15   43   0.342  -0.275   0.065
    1UNL    H16   44   0.190  -0.365   0.127
    1UNL    H17   45   0.249  -0.402  -0.027
    1UNL    H18   46   0.185  -0.065  -0.174
    1UNL    H19   47   0.337  -0.153  -0.138
    1UNL    H20   48   0.317   0.107  -0.072
    1UNL    H21   49   0.516   0.056  -0.086
    1UNL    H22   50   0.590   0.097   0.082
    1UNL    H23   51   0.616  -0.064   0.012
    1UNL    H24   52   0.206   0.137   0.153
    1UNL    H25   53   0.204  -0.089   0.224
    1UNL    H26   54   0.036  -0.009   0.243
    1UNL    H27   55   0.021  -0.235   0.113
   0.00000   0.00000   0.00000   0.00000   0.00000   0.00000   0.00000   0.00000   0.00000
Generated with MDTraj, t= 54.0
 55
    1UNL     C1    1  -0.008   0.481  -0.090
    1UNL     O1    2  -0.034   0.340  -0.073
    1UNL     C2    3   0.085   0.285  -0.031
    1UNL     O2    4   0.193   0.332  -0.022
    1UNL     C3    5   0.076   0.138  -0.009
    1UNL     C4    6  -0.044   0.070  -0.031
    1UNL     N1    7  -0.174   0.123  -0.022
    1UNL     C5    8  -0.270   0.025   0.004
    1UNL     C6    9  -0.412   0.043   0.019
    1UNL     O3   10  -0.476   0.160  -0.013
    1UNL     C7   11  -0.623   0.169  -0.012
    1UNL     C8   12  -0.479  -0.072   0.059
    1UNL     C9   13  -0.418  -0.199   0.071
    1UNL    C10   14  -0.284  -0.207   0.056
    1UNL    C11   15  -0.209  -0.098   0.032
    1UNL    C12   16  -0.062  -0.083  -0.018
    1UNL    C13   17  -0.051  -0.153  -0.158
    1UNL    C14   18   0.065  -0.258  -0.140
    1UNL     N2   19   0.157  -0.210  -0.025
    1UNL    C15   20   0.229  -0.309   0.066
    1UNL    C16   21   0.260  -0.117  -0.093
    1UNL    C17   22   0.302   0.009  -0.019
    1UNL    C18   23   0.423  -0.017   0.075
    1UNL    C19   24   0.552   0.051   0.053
    1UNL     O4   25   0.413  -0.101   0.160
    1UNL    C20   26   0.189   0.076   0.064
    1UNL    C21   27   0.131  -0.032   0.154
    1UNL    C22   28   0.056  -0.141   0.072
    1UNL     H1   29  -0.081   0.528  -0.029
    1UNL     H2   30  -0.034   0.502  -0.195
    1UNL     H3   31   0.091   0.507  -0.053
    1UNL     H4   32  -0.189   0.216   0.004
    1UNL     H5   33  -0.654   0.190   0.092
    1UNL     H6   34  -0.664   0.071  -0.060
    1UNL     H7   35  -0.654   0.252  -0.080
    1UNL     H8   36  -0.586  -0.066   0.059
    1UNL     H9   37  -0.477  -0.287   0.075
    1UNL    H10   38  -0.239  -0.306   0.067
    1UNL    H11   39  -0.140  -0.206  -0.195
    1UNL    H12   40  -0.032  -0.083  -0.238
    1UNL    H13   41   0.018  -0.354  -0.104
    1UNL    H14   42   0.124  -0.278  -0.231
    1UNL    H15   43   0.256  -0.260   0.166
    1UNL    H16   44   0.156  -0.391   0.070
    1UNL    H17   45   0.311  -0.346   0.016
    1UNL    H18   46   0.211  -0.090  -0.184
    1UNL    H19   47   0.350  -0.180  -0.115
    1UNL    H20   48   0.336   0.089  -0.102
    1UNL    H21   49   0.531   0.160   0.074
    1UNL    H22   50   0.626   0.005   0.112
    1UNL    H23   51   0.582   0.034  -0.059
    1UNL    H24   52   0.253   0.148   0.129
    1UNL    H25   53   0.223  -0.067   0.211
    1UNL    H26   54   0.069   0.029   0.230
    1UNL    H27   55   0.007  -0.210   0.132
   0.00000   0.00000   0.00000   0.00000   0.00000   0.00000   0.00000   0.00000   0.00000
Generated with MDTraj, t= 55.0
 55
    1UNL     C1    1   0.005   0.479  -0.122
    1UNL     O1    2  -0.032   0.343  -0.081
    1UNL     C2    3   0.086   0.286  -0.040
    1UNL     O2    4   0.199   0.330  -0.051
    1UNL     C3    5   0.071   0.143   0.008
    1UNL     C4    6  -0.041   0.076  -0.020
    1UNL     N1    7  -0.171   0.121  -0.042
    1UNL     C5    8  -0.266   0.027   0.006
    1UNL     C6    9  -0.405   0.033   0.019
    1UNL     O3   10  -0.456   0.163   0.005
    1UNL     C7   11  -0.598   0.162   0.014
    1UNL     C8   12  -0.476  -0.086   0.040
    1UNL     C9   13  -0.414  -0.203   0.059
    1UNL    C10   14  -0.272  -0.210   0.056
    1UNL    C11   15  -0.200  -0.095   0.036
    1UNL    C12   16  -0.059  -0.078  -0.012
    1UNL    C13   17  -0.045  -0.144  -0.153
    1UNL    C14   18   0.054  -0.258  -0.141
    1UNL     N2   19   0.140  -0.210  -0.024
    1UNL    C15   20   0.215  -0.320   0.044
    1UNL    C16   21   0.242  -0.112  -0.090
    1UNL    C17   22   0.291   0.009  -0.003
    1UNL    C18   23   0.412  -0.019   0.078
    1UNL    C19   24   0.516   0.084   0.087
    1UNL     O4   25   0.422  -0.126   0.126
    1UNL    C20   26   0.187   0.081   0.089
    1UNL    C21   27   0.121  -0.034   0.177
    1UNL    C22   28   0.055  -0.138   0.083
    1UNL     H1   29  -0.068   0.512  -0.191
    1UNL     H2   30   0.095   0.470  -0.186
    1UNL     H3   31   0.014   0.542  -0.034
    1UNL     H4   32  -0.188   0.218  -0.056
    1UNL     H5   33  -0.631   0.105   0.104
    1UNL     H6   34  -0.630   0.118  -0.090
    1UNL     H7   35  -0.633   0.267   0.022
    1UNL     H8   36  -0.583  -0.094   0.034
    1UNL     H9   37  -0.478  -0.289   0.085
    1UNL    H10   38  -0.228  -0.306   0.066
    1UNL    H11   39  -0.140  -0.186  -0.186
    1UNL    H12   40  -0.025  -0.077  -0.237
    1UNL    H13   41   0.011  -0.362  -0.119
    1UNL    H14   42   0.120  -0.263  -0.228
    1UNL    H15   43   0.310  -0.273   0.081
    1UNL    H16   44   0.155  -0.372   0.117
    1UNL    H17   45   0.236  -0.387  -0.037
    1UNL    H18   46   0.200  -0.078  -0.184
    1UNL    H19   47   0.333  -0.172  -0.115
    1UNL    H20   48   0.327   0.096  -0.080
    1UNL    H21   49   0.553   0.088   0.193
    1UNL    H22   50   0.593   0.056   0.017
    1UNL    H23   51   0.488   0.190   0.050
    1UNL    H24   52   0.236   0.166   0.151
    1UNL    H25   53   0.197  -0.078   0.250
    1UNL    H26   54   0.049   0.029   0.244
    1UNL    H27   55   0.007  -0.210   0.143
   0.00000   0.00000   0.00000   0.00000   0.00000   0.00000   0.00000   0.00000   0.00000
Generated with MDTraj, t= 56.0
 55
    1UNL     C1    1   0.018   0.468  -0.149
    1UNL     O1    2  -0.025   0.344  -0.088
    1UNL     C2    3   0.086   0.280  -0.037
    1UNL     O2    4   0.191   0.331  -0.019
    1UNL     C3    5   0.070   0.138  -0.012
    1UNL     C4    6  -0.044   0.067  -0.037
    1UNL     N1    7  -0.174   0.115  -0.038
    1UNL     C5    8  -0.269   0.022   0.008
    1UNL     C6    9  -0.408   0.049   0.027
    1UNL     O3   10  -0.470   0.167  -0.011
    1UNL     C7   11  -0.602   0.179   0.037
    1UNL     C8   12  -0.486  -0.062   0.070
    1UNL     C9   13  -0.429  -0.187   0.087
    1UNL    C10   14  -0.296  -0.213   0.057
    1UNL    C11   15  -0.213  -0.109   0.020
    1UNL    C12   16  -0.063  -0.090  -0.027
    1UNL    C13   17  -0.041  -0.162  -0.163
    1UNL    C14   18   0.074  -0.256  -0.138
    1UNL     N2   19   0.166  -0.201  -0.025
    1UNL    C15   20   0.246  -0.318   0.034
    1UNL    C16   21   0.254  -0.101  -0.092
    1UNL    C17   22   0.299   0.012  -0.011
    1UNL    C18   23   0.414  -0.019   0.079
    1UNL    C19   24   0.492   0.100   0.131
    1UNL     O4   25   0.445  -0.128   0.123
    1UNL    C20   26   0.180   0.063   0.071
    1UNL    C21   27   0.105  -0.047   0.157
    1UNL    C22   28   0.048  -0.145   0.070
    1UNL     H1   29   0.033   0.441  -0.253
    1UNL     H2   30   0.122   0.500  -0.118
    1UNL     H3   31  -0.063   0.538  -0.128
    1UNL     H4   32  -0.177   0.220  -0.031
    1UNL     H5   33  -0.603   0.155   0.145
    1UNL     H6   34  -0.659   0.105  -0.032
    1UNL     H7   35  -0.640   0.280   0.020
    1UNL     H8   36  -0.590  -0.050   0.098
    1UNL     H9   37  -0.477  -0.266   0.137
    1UNL    H10   38  -0.264  -0.317   0.076
    1UNL    H11   39  -0.135  -0.200  -0.205
    1UNL    H12   40  -0.013  -0.091  -0.241
    1UNL    H13   41   0.040  -0.360  -0.102
    1UNL    H14   42   0.127  -0.268  -0.232
    1UNL    H15   43   0.287  -0.288   0.130
    1UNL    H16   44   0.187  -0.407   0.032
    1UNL    H17   45   0.330  -0.350  -0.036
    1UNL    H18   46   0.208  -0.058  -0.182
    1UNL    H19   47   0.348  -0.151  -0.126
    1UNL    H20   48   0.330   0.107  -0.078
    1UNL    H21   49   0.603   0.082   0.121
    1UNL    H22   50   0.466   0.198   0.085
    1UNL    H23   51   0.482   0.131   0.235
    1UNL    H24   52   0.216   0.141   0.148
    1UNL    H25   53   0.172  -0.083   0.241
    1UNL    H26   54   0.017   0.003   0.215
    1UNL    H27   55   0.010  -0.232   0.118
   0.00000   0.00000   0.00000   0.00000   0.00000   0.00000   0.00000   0.00000   0.00000
Generated with MDTraj, t= 57.0
 55
    1UNL     C1    1  -0.011   0.457  -0.133
    1UNL     O1    2  -0.010   0.316  -0.129
    1UNL     C2    3   0.086   0.272  -0.041
    1UNL     O2    4   0.171   0.336   0.010
    1UNL     C3    5   0.066   0.130  -0.019
    1UNL     C4    6  -0.044   0.055  -0.058
    1UNL     N1    7  -0.174   0.110  -0.075
    1UNL     C5    8  -0.265   0.020  -0.019
    1UNL     C6    9  -0.397   0.042   0.025
    1UNL     O3   10  -0.437   0.178   0.007
    1UNL     C7   11  -0.571   0.195   0.044
    1UNL     C8   12  -0.467  -0.060   0.089
    1UNL     C9   13  -0.407  -0.179   0.113
    1UNL    C10   14  -0.271  -0.193   0.091
    1UNL    C11   15  -0.201  -0.097   0.017
    1UNL    C12   16  -0.057  -0.093  -0.037
    1UNL    C13   17  -0.035  -0.162  -0.175
    1UNL    C14   18   0.082  -0.263  -0.160
    1UNL     N2   19   0.157  -0.207  -0.036
    1UNL    C15   20   0.223  -0.321   0.029
    1UNL    C16   21   0.250  -0.094  -0.088
    1UNL    C17   22   0.281   0.021   0.005
    1UNL    C18   23   0.403  -0.008   0.093
    1UNL    C19   24   0.477   0.102   0.159
    1UNL     O4   25   0.441  -0.122   0.101
    1UNL    C20   26   0.157   0.064   0.088
    1UNL    C21   27   0.088  -0.053   0.160
    1UNL    C22   28   0.047  -0.150   0.060
    1UNL     H1   29   0.070   0.493  -0.069
    1UNL     H2   30  -0.110   0.495  -0.089
    1UNL     H3   31  -0.011   0.487  -0.240
    1UNL     H4   32  -0.191   0.216  -0.086
    1UNL     H5   33  -0.580   0.185   0.152
    1UNL     H6   34  -0.629   0.118  -0.013
    1UNL     H7   35  -0.606   0.291   0.014
    1UNL     H8   36  -0.565  -0.045   0.125
    1UNL     H9   37  -0.471  -0.257   0.161
    1UNL    H10   38  -0.219  -0.278   0.124
    1UNL    H11   39  -0.127  -0.215  -0.202
    1UNL    H12   40  -0.024  -0.086  -0.253
    1UNL    H13   41   0.034  -0.361  -0.129
    1UNL    H14   42   0.147  -0.280  -0.248
    1UNL    H15   43   0.293  -0.280   0.094
    1UNL    H16   44   0.153  -0.388   0.078
    1UNL    H17   45   0.277  -0.390  -0.044
    1UNL    H18   46   0.214  -0.046  -0.180
    1UNL    H19   47   0.348  -0.138  -0.116
    1UNL    H20   48   0.302   0.110  -0.065
    1UNL    H21   49   0.498   0.185   0.084
    1UNL    H22   50   0.426   0.138   0.254
    1UNL    H23   51   0.571   0.073   0.190
    1UNL    H24   52   0.186   0.138   0.173
    1UNL    H25   53   0.151  -0.093   0.247
    1UNL    H26   54  -0.003  -0.006   0.215
    1UNL    H27   55  -0.005  -0.234   0.105
   0.00000   0.00000   0.00000   0.00000   0.00000   0.00000   0.00000   0.00000   0.00000
Generated with MDTraj, t= 58.0
 55
    1UNL     C1    1  -0.011   0.467  -0.131
    1UNL     O1    2  -0.036   0.327  -0.119
    1UNL     C2    3   0.049   0.274  -0.031
    1UNL     O2    4   0.129   0.334   0.031
    1UNL     C3    5   0.059   0.130  -0.033
    1UNL     C4    6  -0.039   0.049  -0.082
    1UNL     N1    7  -0.171   0.105  -0.089
    1UNL     C5    8  -0.262   0.020  -0.017
    1UNL     C6    9  -0.390   0.056   0.027
    1UNL     O3   10  -0.446   0.174  -0.010
    1UNL     C7   11  -0.565   0.222   0.054
    1UNL     C8   12  -0.456  -0.040   0.106
    1UNL     C9   13  -0.401  -0.166   0.138
    1UNL    C10   14  -0.277  -0.195   0.088
    1UNL    C11   15  -0.199  -0.103   0.011
    1UNL    C12   16  -0.056  -0.103  -0.052
    1UNL    C13   17  -0.041  -0.182  -0.180
    1UNL    C14   18   0.082  -0.277  -0.150
    1UNL     N2   19   0.169  -0.213  -0.038
    1UNL    C15   20   0.245  -0.320   0.034
    1UNL    C16   21   0.262  -0.101  -0.099
    1UNL    C17   22   0.302   0.016  -0.004
    1UNL    C18   23   0.404  -0.019   0.101
    1UNL    C19   24   0.469   0.087   0.185
    1UNL     O4   25   0.427  -0.134   0.117
    1UNL    C20   26   0.173   0.079   0.059
    1UNL    C21   27   0.105  -0.038   0.141
    1UNL    C22   28   0.062  -0.151   0.047
    1UNL     H1   29  -0.093   0.516  -0.077
    1UNL     H2   30  -0.022   0.491  -0.241
    1UNL     H3   31   0.086   0.499  -0.095
    1UNL     H4   32  -0.191   0.211  -0.077
    1UNL     H5   33  -0.545   0.228   0.159
    1UNL     H6   34  -0.649   0.157   0.038
    1UNL     H7   35  -0.588   0.319   0.023
    1UNL     H8   36  -0.562  -0.027   0.132
    1UNL     H9   37  -0.460  -0.247   0.172
    1UNL    H10   38  -0.233  -0.294   0.100
    1UNL    H11   39  -0.129  -0.243  -0.196
    1UNL    H12   40  -0.026  -0.120  -0.268
    1UNL    H13   41   0.037  -0.370  -0.107
    1UNL    H14   42   0.149  -0.302  -0.237
    1UNL    H15   43   0.288  -0.274   0.120
    1UNL    H16   44   0.185  -0.402   0.068
    1UNL    H17   45   0.331  -0.360  -0.025
    1UNL    H18   46   0.213  -0.064  -0.191
    1UNL    H19   47   0.361  -0.134  -0.133
    1UNL    H20   48   0.356   0.087  -0.065
    1UNL    H21   49   0.393   0.166   0.202
    1UNL    H22   50   0.509   0.039   0.280
    1UNL    H23   51   0.550   0.128   0.131
    1UNL    H24   52   0.211   0.167   0.123
    1UNL    H25   53   0.186  -0.080   0.215
    1UNL    H26   54   0.026   0.010   0.208
    1UNL    H27   55   0.015  -0.231   0.106
   0.00000   0.00000   0.00000   0.00000   0.00000   0.00000   0.00000   0.00000   0.00000
Generated with MDTraj, t= 59.0
 55
    1UNL     C1    1  -0.045   0.465  -0.116
    1UNL     O1    2  -0.028   0.323  -0.131
    1UNL     C2    3   0.066   0.283  -0.034
    1UNL     O2    4   0.137   0.358   0.025
    1UNL     C3    5   0.065   0.138  -0.017
    1UNL     C4    6  -0.036   0.057  -0.064
    1UNL     N1    7  -0.168   0.101  -0.093
    1UNL     C5    8  -0.259   0.018  -0.026
    1UNL     C6    9  -0.394   0.048   0.010
    1UNL     O3   10  -0.447   0.174  -0.031
    1UNL     C7   11  -0.541   0.222   0.066
    1UNL     C8   12  -0.457  -0.048   0.093
    1UNL     C9   13  -0.387  -0.164   0.133
    1UNL    C10   14  -0.260  -0.200   0.087
    1UNL    C11   15  -0.197  -0.102   0.008
    1UNL    C12   16  -0.055  -0.098  -0.044
    1UNL    C13   17  -0.040  -0.184  -0.172
    1UNL    C14   18   0.076  -0.277  -0.157
    1UNL     N2   19   0.153  -0.215  -0.031
    1UNL    C15   20   0.222  -0.320   0.035
    1UNL    C16   21   0.253  -0.107  -0.089
    1UNL    C17   22   0.285   0.016   0.001
    1UNL    C18   23   0.402  -0.022   0.091
    1UNL    C19   24   0.485   0.090   0.153
    1UNL     O4   25   0.435  -0.132   0.124
    1UNL    C20   26   0.165   0.068   0.078
    1UNL    C21   27   0.108  -0.052   0.155
    1UNL    C22   28   0.051  -0.149   0.057
    1UNL     H1   29  -0.114   0.500  -0.190
    1UNL     H2   30   0.050   0.522  -0.128
    1UNL     H3   31  -0.093   0.483  -0.023
    1UNL     H4   32  -0.190   0.196  -0.124
    1UNL     H5   33  -0.504   0.182   0.158
    1UNL     H6   34  -0.642   0.199   0.051
    1UNL     H7   35  -0.533   0.325   0.080
    1UNL     H8   36  -0.561  -0.036   0.113
    1UNL     H9   37  -0.454  -0.232   0.191
    1UNL    H10   38  -0.215  -0.298   0.102
    1UNL    H11   39  -0.132  -0.237  -0.194
    1UNL    H12   40  -0.020  -0.114  -0.254
    1UNL    H13   41   0.031  -0.374  -0.129
    1UNL    H14   42   0.139  -0.287  -0.252
    1UNL    H15   43   0.249  -0.288   0.140
    1UNL    H16   44   0.152  -0.402   0.037
    1UNL    H17   45   0.309  -0.350  -0.014
    1UNL    H18   46   0.216  -0.070  -0.187
    1UNL    H19   47   0.342  -0.160  -0.119
    1UNL    H20   48   0.310   0.099  -0.052
    1UNL    H21   49   0.423   0.140   0.222
    1UNL    H22   50   0.583   0.054   0.196
    1UNL    H23   51   0.516   0.160   0.071
    1UNL    H24   52   0.206   0.150   0.148
    1UNL    H25   53   0.200  -0.098   0.212
    1UNL    H26   54   0.034  -0.012   0.233
    1UNL    H27   55   0.002  -0.225   0.123
   0.00000   0.00000   0.00000   0.00000   0.00000   0.00000   0.00000   0.00000   0.00000
Generated with MDTraj, t= 60.0
 55
    1UNL     C1    1  -0.011   0.475  -0.107
    1UNL     O1    2  -0.042   0.336  -0.099
    1UNL     C2    3   0.064   0.278  -0.033
    1UNL     O2    4   0.158   0.340   0.005
    1UNL     C3    5   0.061   0.131  -0.018
    1UNL     C4    6  -0.045   0.052  -0.053
    1UNL     N1    7  -0.173   0.102  -0.072
    1UNL     C5    8  -0.269   0.011  -0.025
    1UNL     C6    9  -0.400   0.040   0.009
    1UNL     O3   10  -0.444   0.170  -0.019
    1UNL     C7   11  -0.545   0.227   0.063
    1UNL     C8   12  -0.478  -0.055   0.069
    1UNL     C9   13  -0.428  -0.182   0.098
    1UNL    C10   14  -0.292  -0.204   0.076
    1UNL    C11   15  -0.210  -0.110   0.011
    1UNL    C12   16  -0.060  -0.099  -0.033
    1UNL    C13   17  -0.044  -0.182  -0.163
    1UNL    C14   18   0.079  -0.265  -0.143
    1UNL     N2   19   0.162  -0.211  -0.028
    1UNL    C15   20   0.232  -0.322   0.043
    1UNL    C16   21   0.260  -0.108  -0.092
    1UNL    C17   22   0.303   0.011  -0.013
    1UNL    C18   23   0.414  -0.008   0.087
    1UNL    C19   24   0.506   0.104   0.105
    1UNL     O4   25   0.428  -0.111   0.148
    1UNL    C20   26   0.178   0.063   0.066
    1UNL    C21   27   0.118  -0.053   0.158
    1UNL    C22   28   0.051  -0.149   0.061
    1UNL     H1   29   0.091   0.490  -0.136
    1UNL     H2   30  -0.016   0.529  -0.010
    1UNL     H3   31  -0.074   0.513  -0.183
    1UNL     H4   32  -0.185   0.199  -0.061
    1UNL     H5   33  -0.498   0.245   0.160
    1UNL     H6   34  -0.635   0.175   0.073
    1UNL     H7   35  -0.565   0.325   0.026
    1UNL     H8   36  -0.574  -0.019   0.103
    1UNL     H9   37  -0.481  -0.259   0.144
    1UNL    H10   38  -0.248  -0.292   0.113
    1UNL    H11   39  -0.135  -0.239  -0.178
    1UNL    H12   40  -0.040  -0.107  -0.243
    1UNL    H13   41   0.042  -0.364  -0.116
    1UNL    H14   42   0.150  -0.273  -0.234
    1UNL    H15   43   0.309  -0.276   0.109
    1UNL    H16   44   0.156  -0.373   0.104
    1UNL    H17   45   0.270  -0.393  -0.021
    1UNL    H18   46   0.218  -0.078  -0.191
    1UNL    H19   47   0.347  -0.162  -0.124
    1UNL    H20   48   0.325   0.085  -0.076
    1UNL    H21   49   0.523   0.108   0.207
    1UNL    H22   50   0.599   0.099   0.044
    1UNL    H23   51   0.465   0.208   0.072
    1UNL    H24   52   0.214   0.143   0.137
    1UNL    H25   53   0.205  -0.094   0.224
    1UNL    H26   54   0.031  -0.006   0.219
    1UNL    H27   55   0.014  -0.238   0.119
   0.00000   0.00000   0.00000   0.00000   0.00000   0.00000   0.00000   0.00000   0.00000
Generated with MDTraj, t= 61.0
 55
    1UNL     C1    1   0.005   0.474  -0.092
    1UNL     O1    2  -0.024   0.333  -0.086
    1UNL     C2    3   0.089   0.273  -0.035
    1UNL     O2    4   0.193   0.328  -0.018
    1UNL     C3    5   0.069   0.130  -0.005
    1UNL     C4    6  -0.041   0.061  -0.045
    1UNL     N1    7  -0.172   0.123  -0.053
    1UNL     C5    8  -0.272   0.029  -0.018
    1UNL     C6    9  -0.412   0.038   0.004
    1UNL     O3   10  -0.467   0.165  -0.018
    1UNL     C7   11  -0.574   0.202   0.059
    1UNL     C8   12  -0.481  -0.075   0.052
    1UNL     C9   13  -0.416  -0.194   0.076
    1UNL    C10   14  -0.279  -0.201   0.056
    1UNL    C11   15  -0.210  -0.095   0.011
    1UNL    C12   16  -0.060  -0.089  -0.025
    1UNL    C13   17  -0.037  -0.167  -0.162
    1UNL    C14   18   0.072  -0.276  -0.134
    1UNL     N2   19   0.160  -0.216  -0.019
    1UNL    C15   20   0.237  -0.317   0.061
    1UNL    C16   21   0.240  -0.109  -0.090
    1UNL    C17   22   0.291   0.011  -0.006
    1UNL    C18   23   0.410  -0.007   0.077
    1UNL    C19   24   0.507   0.095   0.042
    1UNL     O4   25   0.413  -0.097   0.157
    1UNL    C20   26   0.176   0.069   0.082
    1UNL    C21   27   0.106  -0.045   0.167
    1UNL    C22   28   0.052  -0.152   0.069
    1UNL     H1   29   0.067   0.506  -0.007
    1UNL     H2   30  -0.082   0.544  -0.086
    1UNL     H3   31   0.058   0.482  -0.186
    1UNL     H4   32  -0.194   0.215  -0.031
    1UNL     H5   33  -0.571   0.159   0.161
    1UNL     H6   34  -0.664   0.177   0.011
    1UNL     H7   35  -0.565   0.312   0.072
    1UNL     H8   36  -0.579  -0.068   0.094
    1UNL     H9   37  -0.468  -0.283   0.121
    1UNL    H10   38  -0.226  -0.296   0.078
    1UNL    H11   39  -0.134  -0.203  -0.195
    1UNL    H12   40  -0.011  -0.092  -0.236
    1UNL    H13   41   0.036  -0.373  -0.097
    1UNL    H14   42   0.142  -0.305  -0.221
    1UNL    H15   43   0.306  -0.269   0.126
    1UNL    H16   44   0.170  -0.381   0.118
    1UNL    H17   45   0.287  -0.382  -0.010
    1UNL    H18   46   0.185  -0.079  -0.183
    1UNL    H19   47   0.328  -0.151  -0.135
    1UNL    H20   48   0.305   0.083  -0.079
    1UNL    H21   49   0.602   0.068   0.085
    1UNL    H22   50   0.507   0.119  -0.065
    1UNL    H23   51   0.482   0.199   0.087
    1UNL    H24   52   0.218   0.140   0.159
    1UNL    H25   53   0.179  -0.091   0.243
    1UNL    H26   54   0.016   0.012   0.216
    1UNL    H27   55   0.009  -0.234   0.132
   0.00000   0.00000   0.00000   0.00000   0.00000   0.00000   0.00000   0.00000   0.00000
Generated with MDTraj, t= 62.0
 55
    1UNL     C1    1   0.010   0.480  -0.101
    1UNL     O1    2  -0.030   0.355  -0.064
    1UNL     C2    3   0.085   0.283  -0.035
    1UNL     O2    4   0.192   0.336  -0.019
    1UNL     C3    5   0.067   0.142  -0.018
    1UNL     C4    6  -0.049   0.073  -0.040
    1UNL     N1    7  -0.181   0.120  -0.049
    1UNL     C5    8  -0.268   0.016  -0.004
    1UNL     C6    9  -0.413   0.037   0.010
    1UNL     O3   10  -0.471   0.165  -0.000
    1UNL     C7   11  -0.607   0.182   0.039
    1UNL     C8   12  -0.481  -0.080   0.038
    1UNL     C9   13  -0.412  -0.198   0.063
    1UNL    C10   14  -0.272  -0.212   0.062
    1UNL    C11   15  -0.203  -0.104   0.021
    1UNL    C12   16  -0.064  -0.080  -0.020
    1UNL    C13   17  -0.041  -0.165  -0.154
    1UNL    C14   18   0.072  -0.260  -0.132
    1UNL     N2   19   0.152  -0.210  -0.015
    1UNL    C15   20   0.202  -0.335   0.053
    1UNL    C16   21   0.258  -0.121  -0.079
    1UNL    C17   22   0.291   0.015  -0.007
    1UNL    C18   23   0.417  -0.014   0.068
    1UNL    C19   24   0.547   0.048   0.030
    1UNL     O4   25   0.427  -0.086   0.164
    1UNL    C20   26   0.179   0.080   0.065
    1UNL    C21   27   0.120  -0.029   0.162
    1UNL    C22   28   0.051  -0.137   0.080
    1UNL     H1   29  -0.072   0.549  -0.069
    1UNL     H2   30   0.008   0.481  -0.214
    1UNL     H3   31   0.112   0.494  -0.065
    1UNL     H4   32  -0.205   0.219  -0.065
    1UNL     H5   33  -0.622   0.189   0.151
    1UNL     H6   34  -0.656   0.091   0.007
    1UNL     H7   35  -0.648   0.276  -0.012
    1UNL     H8   36  -0.589  -0.088   0.036
    1UNL     H9   37  -0.476  -0.279   0.086
    1UNL    H10   38  -0.230  -0.309   0.067
    1UNL    H11   39  -0.128  -0.224  -0.182
    1UNL    H12   40  -0.017  -0.091  -0.230
    1UNL    H13   41   0.043  -0.363  -0.105
    1UNL    H14   42   0.131  -0.277  -0.229
    1UNL    H15   43   0.247  -0.300   0.139
    1UNL    H16   44   0.127  -0.409   0.075
    1UNL    H17   45   0.278  -0.385  -0.011
    1UNL    H18   46   0.222  -0.096  -0.182
    1UNL    H19   47   0.346  -0.180  -0.095
    1UNL    H20   48   0.307   0.089  -0.085
    1UNL    H21   49   0.633  -0.024   0.051
    1UNL    H22   50   0.538   0.084  -0.071
    1UNL    H23   51   0.565   0.134   0.093
    1UNL    H24   52   0.233   0.153   0.131
    1UNL    H25   53   0.206  -0.076   0.221
    1UNL    H26   54   0.044   0.033   0.229
    1UNL    H27   55  -0.002  -0.196   0.160
   0.00000   0.00000   0.00000   0.00000   0.00000   0.00000   0.00000   0.00000   0.00000
Generated with MDTraj, t= 63.0
 55
    1UNL     C1    1  -0.030   0.477  -0.090
    1UNL     O1    2  -0.031   0.338  -0.093
    1UNL     C2    3   0.085   0.283  -0.039
    1UNL     O2    4   0.184   0.345  -0.015
    1UNL     C3    5   0.076   0.139  -0.007
    1UNL     C4    6  -0.040   0.071  -0.032
    1UNL     N1    7  -0.171   0.123  -0.017
    1UNL     C5    8  -0.268   0.025   0.010
    1UNL     C6    9  -0.403   0.044   0.029
    1UNL     O3   10  -0.462   0.171  -0.001
    1UNL     C7   11  -0.602   0.168  -0.013
    1UNL     C8   12  -0.472  -0.073   0.066
    1UNL     C9   13  -0.408  -0.195   0.085
    1UNL    C10   14  -0.276  -0.210   0.053
    1UNL    C11   15  -0.203  -0.096   0.017
    1UNL    C12   16  -0.060  -0.077  -0.023
    1UNL    C13   17  -0.034  -0.148  -0.164
    1UNL    C14   18   0.053  -0.267  -0.125
    1UNL     N2   19   0.153  -0.210  -0.019
    1UNL    C15   20   0.232  -0.318   0.042
    1UNL    C16   21   0.243  -0.113  -0.093
    1UNL    C17   22   0.301   0.010  -0.019
    1UNL    C18   23   0.414  -0.025   0.071
    1UNL    C19   24   0.553   0.019   0.032
    1UNL     O4   25   0.391  -0.082   0.173
    1UNL    C20   26   0.192   0.078   0.066
    1UNL    C21   27   0.122  -0.033   0.160
    1UNL    C22   28   0.051  -0.135   0.075
    1UNL     H1   29  -0.020   0.509  -0.196
    1UNL     H2   30   0.061   0.509  -0.031
    1UNL     H3   31  -0.115   0.510  -0.034
    1UNL     H4   32  -0.177   0.231  -0.002
    1UNL     H5   33  -0.654   0.111   0.068
    1UNL     H6   34  -0.620   0.119  -0.111
    1UNL     H7   35  -0.637   0.279  -0.017
    1UNL     H8   36  -0.578  -0.073   0.081
    1UNL     H9   37  -0.459  -0.291   0.096
    1UNL    H10   38  -0.235  -0.310   0.052
    1UNL    H11   39  -0.134  -0.185  -0.187
    1UNL    H12   40   0.009  -0.077  -0.235
    1UNL    H13   41  -0.003  -0.361  -0.094
    1UNL    H14   42   0.104  -0.290  -0.222
    1UNL    H15   43   0.322  -0.281   0.087
    1UNL    H16   44   0.175  -0.376   0.107
    1UNL    H17   45   0.258  -0.386  -0.041
    1UNL    H18   46   0.177  -0.086  -0.179
    1UNL    H19   47   0.326  -0.168  -0.137
    1UNL    H20   48   0.337   0.080  -0.099
    1UNL    H21   49   0.635  -0.064   0.033
    1UNL    H22   50   0.544   0.072  -0.062
    1UNL    H23   51   0.585   0.088   0.102
    1UNL    H24   52   0.240   0.158   0.126
    1UNL    H25   53   0.204  -0.089   0.216
    1UNL    H26   54   0.051   0.018   0.237
    1UNL    H27   55   0.011  -0.217   0.141
   0.00000   0.00000   0.00000   0.00000   0.00000   0.00000   0.00000   0.00000   0.00000
Generated with MDTraj, t= 64.0
 55
    1UNL     C1    1  -0.020   0.488  -0.103
    1UNL     O1    2  -0.045   0.349  -0.093
    1UNL     C2    3   0.062   0.280  -0.032
    1UNL     O2    4   0.152   0.339   0.016
    1UNL     C3    5   0.068   0.134  -0.014
    1UNL     C4    6  -0.038   0.056  -0.054
    1UNL     N1    7  -0.167   0.115  -0.049
    1UNL     C5    8  -0.258   0.027   0.009
    1UNL     C6    9  -0.392   0.040   0.030
    1UNL     O3   10  -0.452   0.172   0.012
    1UNL     C7   11  -0.575   0.172  -0.051
    1UNL     C8   12  -0.471  -0.065   0.088
    1UNL     C9   13  -0.412  -0.185   0.109
    1UNL    C10   14  -0.280  -0.194   0.086
    1UNL    C11   15  -0.201  -0.090   0.039
    1UNL    C12   16  -0.062  -0.089  -0.017
    1UNL    C13   17  -0.057  -0.179  -0.154
    1UNL    C14   18   0.074  -0.260  -0.152
    1UNL     N2   19   0.160  -0.198  -0.042
    1UNL    C15   20   0.242  -0.299   0.035
    1UNL    C16   21   0.244  -0.083  -0.101
    1UNL    C17   22   0.298   0.018  -0.004
    1UNL    C18   23   0.417  -0.030   0.075
    1UNL    C19   24   0.556  -0.001   0.036
    1UNL     O4   25   0.399  -0.105   0.166
    1UNL    C20   26   0.175   0.071   0.076
    1UNL    C21   27   0.111  -0.040   0.160
    1UNL    C22   28   0.058  -0.144   0.065
    1UNL     H1   29   0.082   0.505  -0.067
    1UNL     H2   30  -0.093   0.531  -0.033
    1UNL     H3   31  -0.035   0.524  -0.201
    1UNL     H4   32  -0.178   0.221  -0.067
    1UNL     H5   33  -0.660   0.152   0.017
    1UNL     H6   34  -0.571   0.093  -0.130
    1UNL     H7   35  -0.583   0.275  -0.102
    1UNL     H8   36  -0.573  -0.045   0.116
    1UNL     H9   37  -0.471  -0.268   0.147
    1UNL    H10   38  -0.227  -0.287   0.105
    1UNL    H11   39  -0.149  -0.238  -0.148
    1UNL    H12   40  -0.060  -0.107  -0.235
    1UNL    H13   41   0.055  -0.374  -0.143
    1UNL    H14   42   0.127  -0.245  -0.247
    1UNL    H15   43   0.283  -0.248   0.124
    1UNL    H16   44   0.194  -0.390   0.057
    1UNL    H17   45   0.328  -0.326  -0.020
    1UNL    H18   46   0.187  -0.033  -0.183
    1UNL    H19   47   0.323  -0.143  -0.150
    1UNL    H20   48   0.330   0.111  -0.067
    1UNL    H21   49   0.632  -0.083   0.042
    1UNL    H22   50   0.565   0.052  -0.060
    1UNL    H23   51   0.589   0.066   0.111
    1UNL    H24   52   0.206   0.158   0.134
    1UNL    H25   53   0.194  -0.083   0.228
    1UNL    H26   54   0.031  -0.001   0.232
    1UNL    H27   55   0.022  -0.236   0.118
   0.00000   0.00000   0.00000   0.00000   0.00000   0.00000   0.00000   0.00000   0.00000
Generated with MDTraj, t= 65.0
 55
    1UNL     C1    1  -0.015   0.474  -0.109
    1UNL     O1    2  -0.031   0.333  -0.097
    1UNL     C2    3   0.067   0.274  -0.012
    1UNL     O2    4   0.147   0.346   0.038
    1UNL     C3    5   0.061   0.131   0.004
    1UNL     C4    6  -0.045   0.057  -0.041
    1UNL     N1    7  -0.169   0.109  -0.071
    1UNL     C5    8  -0.261   0.016  -0.011
    1UNL     C6    9  -0.394   0.059   0.025
    1UNL     O3   10  -0.456   0.178  -0.008
    1UNL     C7   11  -0.587   0.165  -0.059
    1UNL     C8   12  -0.459  -0.041   0.100
    1UNL     C9   13  -0.392  -0.157   0.148
    1UNL    C10   14  -0.262  -0.192   0.117
    1UNL    C11   15  -0.198  -0.104   0.031
    1UNL    C12   16  -0.064  -0.092  -0.019
    1UNL    C13   17  -0.051  -0.148  -0.171
    1UNL    C14   18   0.064  -0.251  -0.160
    1UNL     N2   19   0.162  -0.206  -0.046
    1UNL    C15   20   0.249  -0.318   0.013
    1UNL    C16   21   0.250  -0.094  -0.107
    1UNL    C17   22   0.285   0.018  -0.006
    1UNL    C18   23   0.409  -0.017   0.077
    1UNL    C19   24   0.547   0.027   0.034
    1UNL     O4   25   0.393  -0.087   0.174
    1UNL    C20   26   0.164   0.057   0.084
    1UNL    C21   27   0.115  -0.070   0.157
    1UNL    C22   28   0.057  -0.165   0.058
    1UNL     H1   29  -0.053   0.511  -0.013
    1UNL     H2   30  -0.078   0.506  -0.192
    1UNL     H3   31   0.088   0.495  -0.119
    1UNL     H4   32  -0.186   0.209  -0.079
    1UNL     H5   33  -0.660   0.144   0.017
    1UNL     H6   34  -0.589   0.076  -0.127
    1UNL     H7   35  -0.611   0.258  -0.116
    1UNL     H8   36  -0.558  -0.032   0.143
    1UNL     H9   37  -0.443  -0.219   0.216
    1UNL    H10   38  -0.211  -0.272   0.164
    1UNL    H11   39  -0.143  -0.195  -0.204
    1UNL    H12   40  -0.024  -0.066  -0.236
    1UNL    H13   41   0.017  -0.350  -0.120
    1UNL    H14   42   0.111  -0.287  -0.254
    1UNL    H15   43   0.324  -0.274   0.079
    1UNL    H16   44   0.190  -0.394   0.062
    1UNL    H17   45   0.302  -0.370  -0.057
    1UNL    H18   46   0.187  -0.064  -0.194
    1UNL    H19   47   0.347  -0.137  -0.145
    1UNL    H20   48   0.309   0.117  -0.069
    1UNL    H21   49   0.630  -0.034   0.041
    1UNL    H22   50   0.555   0.076  -0.065
    1UNL    H23   51   0.568   0.103   0.110
    1UNL    H24   52   0.206   0.125   0.156
    1UNL    H25   53   0.197  -0.120   0.222
    1UNL    H26   54   0.039  -0.038   0.233
    1UNL    H27   55   0.017  -0.259   0.102
   0.00000   0.00000   0.00000   0.00000   0.00000   0.00000   0.00000   0.00000   0.00000
Generated with MDTraj, t= 66.0
 55
    1UNL     C1    1  -0.002   0.479  -0.095
    1UNL     O1    2  -0.021   0.338  -0.098
    1UNL     C2    3   0.072   0.272  -0.014
    1UNL     O2    4   0.157   0.331   0.049
    1UNL     C3    5   0.070   0.125  -0.011
    1UNL     C4    6  -0.038   0.052  -0.043
    1UNL     N1    7  -0.167   0.110  -0.070
    1UNL     C5    8  -0.265   0.026  -0.008
    1UNL     C6    9  -0.398   0.053   0.022
    1UNL     O3   10  -0.471   0.159  -0.045
    1UNL     C7   11  -0.608   0.156  -0.028
    1UNL     C8   12  -0.461  -0.035   0.110
    1UNL     C9   13  -0.402  -0.155   0.144
    1UNL    C10   14  -0.269  -0.184   0.107
    1UNL    C11   15  -0.201  -0.090   0.037
    1UNL    C12   16  -0.066  -0.098  -0.027
    1UNL    C13   17  -0.063  -0.179  -0.158
    1UNL    C14   18   0.069  -0.246  -0.166
    1UNL     N2   19   0.153  -0.201  -0.045
    1UNL    C15   20   0.236  -0.311   0.018
    1UNL    C16   21   0.257  -0.101  -0.099
    1UNL    C17   22   0.298   0.019  -0.003
    1UNL    C18   23   0.417  -0.016   0.073
    1UNL    C19   24   0.547   0.055   0.044
    1UNL     O4   25   0.410  -0.104   0.154
    1UNL    C20   26   0.179   0.069   0.079
    1UNL    C21   27   0.106  -0.054   0.158
    1UNL    C22   28   0.050  -0.159   0.058
    1UNL     H1   29  -0.092   0.526  -0.138
    1UNL     H2   30   0.086   0.515  -0.151
    1UNL     H3   31   0.003   0.496   0.011
    1UNL     H4   32  -0.184   0.204  -0.082
    1UNL     H5   33  -0.633   0.185   0.069
    1UNL     H6   34  -0.658   0.060  -0.054
    1UNL     H7   35  -0.639   0.236  -0.093
    1UNL     H8   36  -0.564  -0.022   0.137
    1UNL     H9   37  -0.458  -0.229   0.205
    1UNL    H10   38  -0.229  -0.282   0.128
    1UNL    H11   39  -0.138  -0.257  -0.151
    1UNL    H12   40  -0.084  -0.116  -0.243
    1UNL    H13   41   0.067  -0.362  -0.173
    1UNL    H14   42   0.122  -0.223  -0.262
    1UNL    H15   43   0.295  -0.270   0.094
    1UNL    H16   44   0.165  -0.386   0.055
    1UNL    H17   45   0.297  -0.369  -0.046
    1UNL    H18   46   0.230  -0.068  -0.200
    1UNL    H19   47   0.351  -0.165  -0.108
    1UNL    H20   48   0.321   0.117  -0.071
    1UNL    H21   49   0.632   0.006   0.073
    1UNL    H22   50   0.562   0.076  -0.062
    1UNL    H23   51   0.543   0.144   0.112
    1UNL    H24   52   0.220   0.143   0.147
    1UNL    H25   53   0.178  -0.112   0.222
    1UNL    H26   54   0.027  -0.013   0.225
    1UNL    H27   55   0.006  -0.250   0.104
   0.00000   0.00000   0.00000   0.00000   0.00000   0.00000   0.00000   0.00000   0.00000
Generated with MDTraj, t= 67.0
 55
    1UNL     C1    1  -0.015   0.490  -0.097
    1UNL     O1    2  -0.030   0.350  -0.083
    1UNL     C2    3   0.078   0.286  -0.017
    1UNL     O2    4   0.180   0.339   0.016
    1UNL     C3    5   0.072   0.139  -0.006
    1UNL     C4    6  -0.032   0.067  -0.051
    1UNL     N1    7  -0.170   0.110  -0.059
    1UNL     C5    8  -0.264   0.016  -0.015
    1UNL     C6    9  -0.402   0.034   0.012
    1UNL     O3   10  -0.454   0.153  -0.040
    1UNL     C7   11  -0.590   0.191  -0.008
    1UNL     C8   12  -0.470  -0.069   0.083
    1UNL     C9   13  -0.402  -0.181   0.133
    1UNL    C10   14  -0.267  -0.193   0.099
    1UNL    C11   15  -0.202  -0.096   0.033
    1UNL    C12   16  -0.056  -0.083  -0.020
    1UNL    C13   17  -0.057  -0.164  -0.153
    1UNL    C14   18   0.053  -0.267  -0.137
    1UNL     N2   19   0.151  -0.213  -0.031
    1UNL    C15   20   0.244  -0.324   0.020
    1UNL    C16   21   0.242  -0.113  -0.106
    1UNL    C17   22   0.288   0.009  -0.018
    1UNL    C18   23   0.403  -0.025   0.064
    1UNL    C19   24   0.519   0.073   0.074
    1UNL     O4   25   0.409  -0.125   0.130
    1UNL    C20   26   0.179   0.070   0.070
    1UNL    C21   27   0.118  -0.035   0.166
    1UNL    C22   28   0.055  -0.138   0.073
    1UNL     H1   29  -0.005   0.510  -0.207
    1UNL     H2   30   0.083   0.524  -0.056
    1UNL     H3   31  -0.100   0.539  -0.048
    1UNL     H4   32  -0.180   0.202  -0.032
    1UNL     H5   33  -0.616   0.156   0.086
    1UNL     H6   34  -0.665   0.166  -0.084
    1UNL     H7   35  -0.583   0.294   0.003
    1UNL     H8   36  -0.577  -0.051   0.090
    1UNL     H9   37  -0.449  -0.257   0.186
    1UNL    H10   38  -0.219  -0.283   0.130
    1UNL    H11   39  -0.155  -0.207  -0.164
    1UNL    H12   40  -0.029  -0.096  -0.231
    1UNL    H13   41   0.018  -0.372  -0.113
    1UNL    H14   42   0.114  -0.285  -0.233
    1UNL    H15   43   0.315  -0.283   0.083
    1UNL    H16   44   0.193  -0.409   0.060
    1UNL    H17   45   0.296  -0.365  -0.066
    1UNL    H18   46   0.197  -0.087  -0.202
    1UNL    H19   47   0.338  -0.172  -0.130
    1UNL    H20   48   0.308   0.101  -0.092
    1UNL    H21   49   0.589   0.049   0.156
    1UNL    H22   50   0.577   0.085  -0.012
    1UNL    H23   51   0.471   0.164   0.117
    1UNL    H24   52   0.232   0.144   0.130
    1UNL    H25   53   0.194  -0.078   0.234
    1UNL    H26   54   0.032   0.013   0.220
    1UNL    H27   55   0.023  -0.226   0.131
   0.00000   0.00000   0.00000   0.00000   0.00000   0.00000   0.00000   0.00000   0.00000
Generated with MDTraj, t= 68.0
 55
    1UNL     C1    1  -0.034   0.467  -0.092
    1UNL     O1    2  -0.039   0.334  -0.062
    1UNL     C2    3   0.089   0.277  -0.040
    1UNL     O2    4   0.191   0.340  -0.037
    1UNL     C3    5   0.075   0.134  -0.019
    1UNL     C4    6  -0.048   0.070  -0.028
    1UNL     N1    7  -0.175   0.119  -0.049
    1UNL     C5    8  -0.272   0.023  -0.013
    1UNL     C6    9  -0.412   0.046   0.012
    1UNL     O3   10  -0.454   0.180  -0.008
    1UNL     C7   11  -0.592   0.199   0.037
    1UNL     C8   12  -0.484  -0.067   0.048
    1UNL     C9   13  -0.421  -0.187   0.082
    1UNL    C10   14  -0.281  -0.211   0.068
    1UNL    C11   15  -0.212  -0.101   0.018
    1UNL    C12   16  -0.065  -0.084  -0.014
    1UNL    C13   17  -0.044  -0.159  -0.151
    1UNL    C14   18   0.064  -0.270  -0.130
    1UNL     N2   19   0.154  -0.212  -0.018
    1UNL    C15   20   0.233  -0.321   0.049
    1UNL    C16   21   0.258  -0.118  -0.085
    1UNL    C17   22   0.307   0.012  -0.018
    1UNL    C18   23   0.426  -0.020   0.071
    1UNL    C19   24   0.524   0.089   0.090
    1UNL     O4   25   0.448  -0.132   0.104
    1UNL    C20   26   0.181   0.068   0.063
    1UNL    C21   27   0.114  -0.034   0.161
    1UNL    C22   28   0.045  -0.140   0.076
    1UNL     H1   29   0.074   0.497  -0.107
    1UNL     H2   30  -0.065   0.528  -0.004
    1UNL     H3   31  -0.102   0.484  -0.176
    1UNL     H4   32  -0.199   0.217  -0.051
    1UNL     H5   33  -0.587   0.209   0.142
    1UNL     H6   34  -0.659   0.118   0.008
    1UNL     H7   35  -0.625   0.286  -0.005
    1UNL     H8   36  -0.590  -0.072   0.059
    1UNL     H9   37  -0.482  -0.272   0.124
    1UNL    H10   38  -0.226  -0.300   0.099
    1UNL    H11   39  -0.138  -0.207  -0.175
    1UNL    H12   40  -0.010  -0.084  -0.221
    1UNL    H13   41   0.024  -0.368  -0.095
    1UNL    H14   42   0.126  -0.305  -0.225
    1UNL    H15   43   0.298  -0.273   0.123
    1UNL    H16   44   0.171  -0.392   0.089
    1UNL    H17   45   0.291  -0.372  -0.026
    1UNL    H18   46   0.214  -0.109  -0.185
    1UNL    H19   47   0.354  -0.179  -0.104
    1UNL    H20   48   0.328   0.083  -0.110
    1UNL    H21   49   0.557   0.100   0.201
    1UNL    H22   50   0.614   0.078   0.039
    1UNL    H23   51   0.472   0.180   0.074
    1UNL    H24   52   0.228   0.148   0.122
    1UNL    H25   53   0.196  -0.086   0.213
    1UNL    H26   54   0.041   0.019   0.227
    1UNL    H27   55   0.007  -0.220   0.140
   0.00000   0.00000   0.00000   0.00000   0.00000   0.00000   0.00000   0.00000   0.00000
Generated with MDTraj, t= 69.0
 55
    1UNL     C1    1   0.003   0.480  -0.088
    1UNL     O1    2  -0.032   0.351  -0.068
    1UNL     C2    3   0.083   0.281  -0.052
    1UNL     O2    4   0.191   0.331  -0.057
    1UNL     C3    5   0.068   0.134  -0.028
    1UNL     C4    6  -0.048   0.063  -0.049
    1UNL     N1    7  -0.175   0.123  -0.040
    1UNL     C5    8  -0.268   0.024   0.008
    1UNL     C6    9  -0.404   0.044   0.020
    1UNL     O3   10  -0.445   0.176   0.015
    1UNL     C7   11  -0.571   0.199   0.067
    1UNL     C8   12  -0.480  -0.071   0.051
    1UNL     C9   13  -0.421  -0.198   0.052
    1UNL    C10   14  -0.285  -0.210   0.045
    1UNL    C11   15  -0.202  -0.099   0.026
    1UNL    C12   16  -0.060  -0.085  -0.031
    1UNL    C13   17  -0.048  -0.181  -0.157
    1UNL    C14   18   0.067  -0.276  -0.127
    1UNL     N2   19   0.155  -0.219  -0.015
    1UNL    C15   20   0.224  -0.329   0.071
    1UNL    C16   21   0.260  -0.121  -0.090
    1UNL    C17   22   0.289   0.010  -0.015
    1UNL    C18   23   0.409  -0.003   0.068
    1UNL    C19   24   0.495   0.110   0.100
    1UNL     O4   25   0.443  -0.112   0.106
    1UNL    C20   26   0.171   0.067   0.066
    1UNL    C21   27   0.107  -0.042   0.159
    1UNL    C22   28   0.044  -0.151   0.072
    1UNL     H1   29  -0.004   0.537   0.006
    1UNL     H2   30  -0.074   0.524  -0.153
    1UNL     H3   31   0.098   0.490  -0.138
    1UNL     H4   32  -0.192   0.226  -0.018
    1UNL     H5   33  -0.597   0.121   0.139
    1UNL     H6   34  -0.639   0.204  -0.020
    1UNL     H7   35  -0.569   0.291   0.114
    1UNL     H8   36  -0.587  -0.062   0.068
    1UNL     H9   37  -0.479  -0.280   0.076
    1UNL    H10   38  -0.233  -0.303   0.051
    1UNL    H11   39  -0.134  -0.245  -0.160
    1UNL    H12   40  -0.028  -0.128  -0.249
    1UNL    H13   41   0.042  -0.385  -0.108
    1UNL    H14   42   0.132  -0.295  -0.224
    1UNL    H15   43   0.285  -0.274   0.146
    1UNL    H16   44   0.152  -0.389   0.117
    1UNL    H17   45   0.285  -0.394   0.016
    1UNL    H18   46   0.219  -0.103  -0.191
    1UNL    H19   47   0.352  -0.184  -0.115
    1UNL    H20   48   0.304   0.084  -0.102
    1UNL    H21   49   0.464   0.150   0.203
    1UNL    H22   50   0.600   0.086   0.118
    1UNL    H23   51   0.486   0.190   0.036
    1UNL    H24   52   0.220   0.146   0.125
    1UNL    H25   53   0.189  -0.090   0.211
    1UNL    H26   54   0.033   0.010   0.222
    1UNL    H27   55  -0.016  -0.213   0.138
   0.00000   0.00000   0.00000   0.00000   0.00000   0.00000   0.00000   0.00000   0.00000
Generated with MDTraj, t= 70.0
 55
    1UNL     C1    1   0.017   0.479  -0.100
    1UNL     O1    2  -0.028   0.346  -0.100
    1UNL     C2    3   0.084   0.274  -0.050
    1UNL     O2    4   0.192   0.325  -0.033
    1UNL     C3    5   0.065   0.134  -0.022
    1UNL     C4    6  -0.046   0.065  -0.055
    1UNL     N1    7  -0.178   0.123  -0.069
    1UNL     C5    8  -0.272   0.031  -0.016
    1UNL     C6    9  -0.403   0.044   0.033
    1UNL     O3   10  -0.460   0.170   0.020
    1UNL     C7   11  -0.579   0.186   0.090
    1UNL     C8   12  -0.473  -0.067   0.086
    1UNL     C9   13  -0.414  -0.194   0.083
    1UNL    C10   14  -0.288  -0.203   0.035
    1UNL    C11   15  -0.210  -0.091  -0.001
    1UNL    C12   16  -0.064  -0.087  -0.040
    1UNL    C13   17  -0.038  -0.168  -0.172
    1UNL    C14   18   0.069  -0.273  -0.137
    1UNL     N2   19   0.156  -0.220  -0.019
    1UNL    C15   20   0.233  -0.325   0.063
    1UNL    C16   21   0.257  -0.126  -0.091
    1UNL    C17   22   0.291   0.009  -0.014
    1UNL    C18   23   0.404  -0.007   0.079
    1UNL    C19   24   0.490   0.117   0.111
    1UNL     O4   25   0.432  -0.111   0.133
    1UNL    C20   26   0.174   0.066   0.065
    1UNL    C21   27   0.111  -0.050   0.154
    1UNL    C22   28   0.040  -0.148   0.065
    1UNL     H1   29  -0.063   0.552  -0.098
    1UNL     H2   30   0.076   0.505  -0.186
    1UNL     H3   31   0.071   0.493  -0.009
    1UNL     H4   32  -0.192   0.230  -0.049
    1UNL     H5   33  -0.560   0.170   0.201
    1UNL     H6   34  -0.646   0.110   0.045
    1UNL     H7   35  -0.624   0.282   0.073
    1UNL     H8   36  -0.562  -0.049   0.142
    1UNL     H9   37  -0.480  -0.280   0.115
    1UNL    H10   38  -0.246  -0.303   0.041
    1UNL    H11   39  -0.132  -0.206  -0.209
    1UNL    H12   40   0.012  -0.100  -0.239
    1UNL    H13   41   0.025  -0.375  -0.110
    1UNL    H14   42   0.129  -0.309  -0.230
    1UNL    H15   43   0.311  -0.277   0.118
    1UNL    H16   44   0.168  -0.386   0.129
    1UNL    H17   45   0.276  -0.396   0.001
    1UNL    H18   46   0.212  -0.112  -0.192
    1UNL    H19   47   0.349  -0.180  -0.124
    1UNL    H20   48   0.322   0.081  -0.094
    1UNL    H21   49   0.463   0.171   0.200
    1UNL    H22   50   0.599   0.091   0.128
    1UNL    H23   51   0.492   0.184   0.029
    1UNL    H24   52   0.222   0.141   0.131
    1UNL    H25   53   0.191  -0.105   0.204
    1UNL    H26   54   0.043  -0.005   0.224
    1UNL    H27   55   0.002  -0.228   0.127
   0.00000   0.00000   0.00000   0.00000   0.00000   0.00000   0.00000   0.00000   0.00000
Generated with MDTraj, t= 71.0
 55
    1UNL     C1    1  -0.001   0.466  -0.138
    1UNL     O1    2  -0.033   0.334  -0.111
    1UNL     C2    3   0.077   0.283  -0.043
    1UNL     O2    4   0.173   0.344  -0.004
    1UNL     C3    5   0.060   0.141  -0.022
    1UNL     C4    6  -0.049   0.069  -0.056
    1UNL     N1    7  -0.181   0.112  -0.073
    1UNL     C5    8  -0.271   0.019  -0.012
    1UNL     C6    9  -0.398   0.039   0.035
    1UNL     O3   10  -0.441   0.169   0.013
    1UNL     C7   11  -0.565   0.190   0.074
    1UNL     C8   12  -0.460  -0.065   0.095
    1UNL     C9   13  -0.392  -0.183   0.119
    1UNL    C10   14  -0.258  -0.207   0.084
    1UNL    C11   15  -0.209  -0.102   0.007
    1UNL    C12   16  -0.065  -0.087  -0.043
    1UNL    C13   17  -0.046  -0.151  -0.189
    1UNL    C14   18   0.070  -0.253  -0.164
    1UNL     N2   19   0.147  -0.210  -0.040
    1UNL    C15   20   0.212  -0.321   0.038
    1UNL    C16   21   0.255  -0.109  -0.089
    1UNL    C17   22   0.298   0.010  -0.003
    1UNL    C18   23   0.408  -0.020   0.100
    1UNL    C19   24   0.514   0.088   0.116
    1UNL     O4   25   0.414  -0.126   0.158
    1UNL    C20   26   0.169   0.064   0.062
    1UNL    C21   27   0.106  -0.048   0.150
    1UNL    C22   28   0.042  -0.144   0.051
    1UNL     H1   29   0.082   0.483  -0.209
    1UNL     H2   30   0.039   0.518  -0.051
    1UNL     H3   31  -0.091   0.514  -0.172
    1UNL     H4   32  -0.194   0.219  -0.080
    1UNL     H5   33  -0.570   0.141   0.179
    1UNL     H6   34  -0.637   0.139   0.006
    1UNL     H7   35  -0.594   0.297   0.084
    1UNL     H8   36  -0.567  -0.071   0.117
    1UNL     H9   37  -0.440  -0.261   0.172
    1UNL    H10   38  -0.211  -0.304   0.089
    1UNL    H11   39  -0.139  -0.195  -0.220
    1UNL    H12   40  -0.019  -0.070  -0.256
    1UNL    H13   41   0.031  -0.364  -0.157
    1UNL    H14   42   0.142  -0.263  -0.251
    1UNL    H15   43   0.247  -0.280   0.125
    1UNL    H16   44   0.153  -0.414   0.057
    1UNL    H17   45   0.301  -0.357  -0.010
    1UNL    H18   46   0.225  -0.076  -0.190
    1UNL    H19   47   0.338  -0.178  -0.116
    1UNL    H20   48   0.327   0.087  -0.076
    1UNL    H21   49   0.535   0.089   0.216
    1UNL    H22   50   0.609   0.049   0.069
    1UNL    H23   51   0.485   0.179   0.061
    1UNL    H24   52   0.208   0.145   0.129
    1UNL    H25   53   0.183  -0.092   0.214
    1UNL    H26   54   0.031  -0.010   0.214
    1UNL    H27   55  -0.010  -0.220   0.106
   0.00000   0.00000   0.00000   0.00000   0.00000   0.00000   0.00000   0.00000   0.00000
Generated with MDTraj, t= 72.0
 55
    1UNL     C1    1  -0.023   0.460  -0.149
    1UNL     O1    2  -0.026   0.319  -0.128
    1UNL     C2    3   0.071   0.285  -0.040
    1UNL     O2    4   0.151   0.350   0.020
    1UNL     C3    5   0.067   0.136  -0.020
    1UNL     C4    6  -0.040   0.056  -0.061
    1UNL     N1    7  -0.172   0.114  -0.055
    1UNL     C5    8  -0.260   0.024  -0.002
    1UNL     C6    9  -0.393   0.051   0.036
    1UNL     O3   10  -0.448   0.170   0.002
    1UNL     C7   11  -0.576   0.207   0.056
    1UNL     C8   12  -0.464  -0.053   0.101
    1UNL     C9   13  -0.407  -0.175   0.126
    1UNL    C10   14  -0.276  -0.199   0.088
    1UNL    C11   15  -0.197  -0.104   0.028
    1UNL    C12   16  -0.056  -0.092  -0.038
    1UNL    C13   17  -0.047  -0.174  -0.168
    1UNL    C14   18   0.081  -0.258  -0.166
    1UNL     N2   19   0.168  -0.203  -0.047
    1UNL    C15   20   0.267  -0.307   0.001
    1UNL    C16   21   0.246  -0.083  -0.109
    1UNL    C17   22   0.293   0.017  -0.003
    1UNL    C18   23   0.395  -0.033   0.093
    1UNL    C19   24   0.524   0.042   0.111
    1UNL     O4   25   0.380  -0.129   0.163
    1UNL    C20   26   0.170   0.071   0.078
    1UNL    C21   27   0.103  -0.042   0.153
    1UNL    C22   28   0.059  -0.148   0.055
    1UNL     H1   29  -0.039   0.517  -0.052
    1UNL     H2   30  -0.104   0.502  -0.210
    1UNL     H3   31   0.070   0.487  -0.200
    1UNL     H4   32  -0.188   0.213  -0.045
    1UNL     H5   33  -0.563   0.225   0.169
    1UNL     H6   34  -0.642   0.120   0.043
    1UNL     H7   35  -0.623   0.298   0.007
    1UNL     H8   36  -0.563  -0.038   0.137
    1UNL     H9   37  -0.472  -0.253   0.167
    1UNL    H10   38  -0.242  -0.300   0.094
    1UNL    H11   39  -0.129  -0.242  -0.177
    1UNL    H12   40  -0.051  -0.104  -0.251
    1UNL    H13   41   0.054  -0.372  -0.152
    1UNL    H14   42   0.129  -0.256  -0.267
    1UNL    H15   43   0.333  -0.278   0.081
    1UNL    H16   44   0.210  -0.390   0.035
    1UNL    H17   45   0.329  -0.352  -0.075
    1UNL    H18   46   0.185  -0.049  -0.195
    1UNL    H19   47   0.337  -0.126  -0.152
    1UNL    H20   48   0.330   0.100  -0.058
    1UNL    H21   49   0.581  -0.029   0.162
    1UNL    H22   50   0.578   0.060   0.018
    1UNL    H23   51   0.508   0.143   0.156
    1UNL    H24   52   0.194   0.152   0.152
    1UNL    H25   53   0.170  -0.089   0.222
    1UNL    H26   54   0.029  -0.000   0.215
    1UNL    H27   55   0.018  -0.232   0.110
   0.00000   0.00000   0.00000   0.00000   0.00000   0.00000   0.00000   0.00000   0.00000
Generated with MDTraj, t= 73.0
 55
    1UNL     C1    1  -0.026   0.461  -0.136
    1UNL     O1    2  -0.018   0.321  -0.119
    1UNL     C2    3   0.074   0.273  -0.029
    1UNL     O2    4   0.156   0.341   0.022
    1UNL     C3    5   0.066   0.133  -0.005
    1UNL     C4    6  -0.044   0.059  -0.043
    1UNL     N1    7  -0.173   0.105  -0.070
    1UNL     C5    8  -0.271   0.017  -0.013
    1UNL     C6    9  -0.405   0.046   0.028
    1UNL     O3   10  -0.448   0.179   0.001
    1UNL     C7   11  -0.580   0.199   0.037
    1UNL     C8   12  -0.470  -0.056   0.098
    1UNL     C9   13  -0.410  -0.172   0.137
    1UNL    C10   14  -0.275  -0.192   0.102
    1UNL    C11   15  -0.208  -0.102   0.021
    1UNL    C12   16  -0.062  -0.096  -0.037
    1UNL    C13   17  -0.046  -0.164  -0.172
    1UNL    C14   18   0.088  -0.233  -0.175
    1UNL     N2   19   0.164  -0.206  -0.046
    1UNL    C15   20   0.227  -0.328   0.007
    1UNL    C16   21   0.269  -0.092  -0.094
    1UNL    C17   22   0.300   0.027  -0.000
    1UNL    C18   23   0.411  -0.020   0.086
    1UNL    C19   24   0.549   0.034   0.049
    1UNL     O4   25   0.392  -0.087   0.184
    1UNL    C20   26   0.169   0.068   0.084
    1UNL    C21   27   0.098  -0.054   0.158
    1UNL    C22   28   0.051  -0.161   0.056
    1UNL     H1   29  -0.093   0.468  -0.228
    1UNL     H2   30   0.070   0.504  -0.169
    1UNL     H3   31  -0.057   0.517  -0.045
    1UNL     H4   32  -0.183   0.200  -0.072
    1UNL     H5   33  -0.592   0.157   0.140
    1UNL     H6   34  -0.646   0.151  -0.035
    1UNL     H7   35  -0.603   0.311   0.042
    1UNL     H8   36  -0.572  -0.044   0.132
    1UNL     H9   37  -0.460  -0.250   0.194
    1UNL    H10   38  -0.219  -0.280   0.140
    1UNL    H11   39  -0.129  -0.230  -0.186
    1UNL    H12   40  -0.043  -0.089  -0.250
    1UNL    H13   41   0.066  -0.346  -0.181
    1UNL    H14   42   0.146  -0.206  -0.267
    1UNL    H15   43   0.247  -0.302   0.117
    1UNL    H16   44   0.174  -0.416  -0.011
    1UNL    H17   45   0.323  -0.344  -0.044
    1UNL    H18   46   0.228  -0.056  -0.189
    1UNL    H19   47   0.354  -0.157  -0.117
    1UNL    H20   48   0.328   0.112  -0.051
    1UNL    H21   49   0.616  -0.047   0.015
    1UNL    H22   50   0.557   0.100  -0.030
    1UNL    H23   51   0.599   0.095   0.129
    1UNL    H24   52   0.211   0.126   0.172
    1UNL    H25   53   0.156  -0.094   0.237
    1UNL    H26   54   0.014  -0.013   0.208
    1UNL    H27   55   0.001  -0.241   0.107
   0.00000   0.00000   0.00000   0.00000   0.00000   0.00000   0.00000   0.00000   0.00000
Generated with MDTraj, t= 74.0
 55
    1UNL     C1    1   0.005   0.478  -0.110
    1UNL     O1    2  -0.024   0.343  -0.075
    1UNL     C2    3   0.082   0.280  -0.017
    1UNL     O2    4   0.179   0.339   0.023
    1UNL     C3    5   0.065   0.133  -0.005
    1UNL     C4    6  -0.044   0.065  -0.054
    1UNL     N1    7  -0.175   0.112  -0.071
    1UNL     C5    8  -0.263   0.018  -0.009
    1UNL     C6    9  -0.399   0.042   0.023
    1UNL     O3   10  -0.457   0.167  -0.012
    1UNL     C7   11  -0.593   0.186   0.027
    1UNL     C8   12  -0.466  -0.056   0.096
    1UNL     C9   13  -0.406  -0.179   0.113
    1UNL    C10   14  -0.277  -0.211   0.072
    1UNL    C11   15  -0.201  -0.104   0.015
    1UNL    C12   16  -0.058  -0.090  -0.034
    1UNL    C13   17  -0.046  -0.173  -0.163
    1UNL    C14   18   0.063  -0.278  -0.139
    1UNL     N2   19   0.154  -0.209  -0.032
    1UNL    C15   20   0.239  -0.312   0.032
    1UNL    C16   21   0.240  -0.099  -0.109
    1UNL    C17   22   0.291   0.014  -0.018
    1UNL    C18   23   0.412  -0.009   0.066
    1UNL    C19   24   0.547   0.028   0.022
    1UNL     O4   25   0.401  -0.052   0.180
    1UNL    C20   26   0.166   0.060   0.072
    1UNL    C21   27   0.102  -0.051   0.159
    1UNL    C22   28   0.044  -0.153   0.063
    1UNL     H1   29   0.115   0.496  -0.115
    1UNL     H2   30  -0.034   0.537  -0.028
    1UNL     H3   31  -0.042   0.505  -0.204
    1UNL     H4   32  -0.188   0.207  -0.063
    1UNL     H5   33  -0.590   0.221   0.129
    1UNL     H6   34  -0.655   0.100   0.016
    1UNL     H7   35  -0.638   0.271  -0.033
    1UNL     H8   36  -0.564  -0.034   0.136
    1UNL     H9   37  -0.456  -0.253   0.168
    1UNL    H10   38  -0.244  -0.305   0.102
    1UNL    H11   39  -0.143  -0.214  -0.184
    1UNL    H12   40  -0.025  -0.107  -0.245
    1UNL    H13   41   0.022  -0.367  -0.087
    1UNL    H14   42   0.117  -0.316  -0.233
    1UNL    H15   43   0.334  -0.263   0.066
    1UNL    H16   44   0.186  -0.361   0.111
    1UNL    H17   45   0.251  -0.390  -0.045
    1UNL    H18   46   0.182  -0.065  -0.200
    1UNL    H19   47   0.331  -0.154  -0.132
    1UNL    H20   48   0.305   0.096  -0.076
    1UNL    H21   49   0.575  -0.027  -0.074
    1UNL    H22   50   0.564   0.128   0.002
    1UNL    H23   51   0.623   0.007   0.099
    1UNL    H24   52   0.212   0.126   0.151
    1UNL    H25   53   0.167  -0.091   0.230
    1UNL    H26   54   0.023  -0.001   0.209
    1UNL    H27   55   0.002  -0.237   0.115
   0.00000   0.00000   0.00000   0.00000   0.00000   0.00000   0.00000   0.00000   0.00000
Generated with MDTraj, t= 75.0
 55
    1UNL     C1    1  -0.010   0.496  -0.054
    1UNL     O1    2  -0.033   0.359  -0.079
    1UNL     C2    3   0.075   0.289  -0.036
    1UNL     O2    4   0.180   0.341  -0.008
    1UNL     C3    5   0.071   0.139  -0.016
    1UNL     C4    6  -0.041   0.064  -0.048
    1UNL     N1    7  -0.173   0.111  -0.058
    1UNL     C5    8  -0.269   0.024   0.002
    1UNL     C6    9  -0.406   0.043   0.020
    1UNL     O3   10  -0.462   0.166  -0.014
    1UNL     C7   11  -0.603   0.179   0.014
    1UNL     C8   12  -0.476  -0.075   0.058
    1UNL     C9   13  -0.410  -0.194   0.089
    1UNL    C10   14  -0.277  -0.201   0.082
    1UNL    C11   15  -0.204  -0.096   0.033
    1UNL    C12   16  -0.061  -0.085  -0.021
    1UNL    C13   17  -0.045  -0.170  -0.153
    1UNL    C14   18   0.055  -0.279  -0.123
    1UNL     N2   19   0.151  -0.212  -0.016
    1UNL    C15   20   0.237  -0.309   0.062
    1UNL    C16   21   0.240  -0.112  -0.095
    1UNL    C17   22   0.296   0.016  -0.021
    1UNL    C18   23   0.424  -0.025   0.051
    1UNL    C19   24   0.555   0.011  -0.006
    1UNL     O4   25   0.421  -0.092   0.153
    1UNL    C20   26   0.180   0.076   0.068
    1UNL    C21   27   0.115  -0.024   0.162
    1UNL    C22   28   0.051  -0.137   0.074
    1UNL     H1   29  -0.085   0.532   0.016
    1UNL     H2   30  -0.032   0.544  -0.146
    1UNL     H3   31   0.091   0.510  -0.015
    1UNL     H4   32  -0.187   0.214  -0.057
    1UNL     H5   33  -0.621   0.129   0.102
    1UNL     H6   34  -0.667   0.146  -0.064
    1UNL     H7   35  -0.621   0.285   0.035
    1UNL     H8   36  -0.582  -0.069   0.061
    1UNL     H9   37  -0.475  -0.282   0.111
    1UNL    H10   38  -0.221  -0.292   0.113
    1UNL    H11   39  -0.137  -0.206  -0.193
    1UNL    H12   40  -0.021  -0.098  -0.231
    1UNL    H13   41   0.018  -0.371  -0.076
    1UNL    H14   42   0.118  -0.309  -0.215
    1UNL    H15   43   0.253  -0.260   0.154
    1UNL    H16   44   0.177  -0.407   0.073
    1UNL    H17   45   0.330  -0.339   0.011
    1UNL    H18   46   0.192  -0.092  -0.195
    1UNL    H19   47   0.331  -0.169  -0.103
    1UNL    H20   48   0.301   0.088  -0.093
    1UNL    H21   49   0.547   0.041  -0.113
    1UNL    H22   50   0.609   0.090   0.055
    1UNL    H23   51   0.611  -0.078   0.008
    1UNL    H24   52   0.225   0.161   0.124
    1UNL    H25   53   0.182  -0.051   0.239
    1UNL    H26   54   0.034   0.029   0.205
    1UNL    H27   55   0.000  -0.208   0.139
   0.00000   0.00000   0.00000   0.00000   0.00000   0.00000   0.00000   0.00000   0.00000
Generated with MDTraj, t= 76.0
 55
    1UNL     C1    1  -0.045   0.482  -0.063
    1UNL     O1    2  -0.060   0.342  -0.052
    1UNL     C2    3   0.071   0.282  -0.030
    1UNL     O2    4   0.171   0.349  -0.030
    1UNL     C3    5   0.080   0.142  -0.013
    1UNL     C4    6  -0.037   0.070  -0.027
    1UNL     N1    7  -0.164   0.120  -0.034
    1UNL     C5    8  -0.259   0.030   0.015
    1UNL     C6    9  -0.400   0.049   0.013
    1UNL     O3   10  -0.465   0.169  -0.025
    1UNL     C7   11  -0.605   0.181  -0.002
    1UNL     C8   12  -0.471  -0.063   0.050
    1UNL     C9   13  -0.414  -0.185   0.080
    1UNL    C10   14  -0.277  -0.201   0.080
    1UNL    C11   15  -0.196  -0.089   0.050
    1UNL    C12   16  -0.057  -0.081  -0.011
    1UNL    C13   17  -0.041  -0.155  -0.147
    1UNL    C14   18   0.048  -0.270  -0.122
    1UNL     N2   19   0.155  -0.218  -0.015
    1UNL    C15   20   0.233  -0.322   0.063
    1UNL    C16   21   0.251  -0.134  -0.100
    1UNL    C17   22   0.302   0.006  -0.035
    1UNL    C18   23   0.419  -0.030   0.047
    1UNL    C19   24   0.558   0.031   0.008
    1UNL     O4   25   0.403  -0.108   0.136
    1UNL    C20   26   0.196   0.077   0.063
    1UNL    C21   27   0.137  -0.029   0.157
    1UNL    C22   28   0.062  -0.137   0.078
    1UNL     H1   29  -0.071   0.512  -0.165
    1UNL     H2   30   0.060   0.505  -0.062
    1UNL     H3   31  -0.101   0.527   0.020
    1UNL     H4   32  -0.195   0.223  -0.040
    1UNL     H5   33  -0.622   0.185   0.099
    1UNL     H6   34  -0.667   0.109  -0.050
    1UNL     H7   35  -0.627   0.280  -0.041
    1UNL     H8   36  -0.579  -0.079   0.041
    1UNL     H9   37  -0.473  -0.269   0.106
    1UNL    H10   38  -0.225  -0.294   0.072
    1UNL    H11   39  -0.137  -0.178  -0.191
    1UNL    H12   40  -0.004  -0.087  -0.223
    1UNL    H13   41  -0.011  -0.354  -0.081
    1UNL    H14   42   0.111  -0.296  -0.214
    1UNL    H15   43   0.330  -0.281   0.068
    1UNL    H16   44   0.199  -0.340   0.171
    1UNL    H17   45   0.229  -0.422   0.016
    1UNL    H18   46   0.205  -0.116  -0.202
    1UNL    H19   47   0.333  -0.202  -0.111
    1UNL    H20   48   0.325   0.066  -0.115
    1UNL    H21   49   0.548   0.131  -0.038
    1UNL    H22   50   0.633   0.037   0.099
    1UNL    H23   51   0.599  -0.038  -0.061
    1UNL    H24   52   0.251   0.155   0.121
    1UNL    H25   53   0.216  -0.070   0.213
    1UNL    H26   54   0.072   0.021   0.223
    1UNL    H27   55   0.018  -0.209   0.148
   0.00000   0.00000   0.00000   0.00000   0.00000   0.00000   0.00000   0.00000   0.00000
Generated with MDTraj, t= 77.0
 55
    1UNL     C1    1  -0.004   0.481  -0.072
    1UNL     O1    2  -0.039   0.347  -0.059
    1UNL     C2    3   0.078   0.275  -0.034
    1UNL     O2    4   0.183   0.335  -0.022
    1UNL     C3    5   0.068   0.135  -0.013
    1UNL     C4    6  -0.039   0.054  -0.042
    1UNL     N1    7  -0.169   0.110  -0.058
    1UNL     C5    8  -0.262   0.020   0.003
    1UNL     C6    9  -0.399   0.047   0.031
    1UNL     O3   10  -0.453   0.173  -0.005
    1UNL     C7   11  -0.591   0.181  -0.028
    1UNL     C8   12  -0.475  -0.062   0.080
    1UNL     C9   13  -0.407  -0.183   0.110
    1UNL    C10   14  -0.274  -0.202   0.087
    1UNL    C11   15  -0.202  -0.099   0.038
    1UNL    C12   16  -0.065  -0.088  -0.015
    1UNL    C13   17  -0.054  -0.165  -0.150
    1UNL    C14   18   0.054  -0.274  -0.129
    1UNL     N2   19   0.151  -0.206  -0.024
    1UNL    C15   20   0.232  -0.312   0.049
    1UNL    C16   21   0.240  -0.107  -0.111
    1UNL    C17   22   0.286   0.008  -0.022
    1UNL    C18   23   0.411  -0.016   0.049
    1UNL    C19   24   0.533   0.071   0.028
    1UNL     O4   25   0.426  -0.108   0.125
    1UNL    C20   26   0.177   0.067   0.070
    1UNL    C21   27   0.122  -0.040   0.166
    1UNL    C22   28   0.049  -0.148   0.083
    1UNL     H1   29   0.101   0.478  -0.109
    1UNL     H2   30   0.003   0.533   0.023
    1UNL     H3   31  -0.076   0.526  -0.144
    1UNL     H4   32  -0.180   0.220  -0.055
    1UNL     H5   33  -0.645   0.154   0.057
    1UNL     H6   34  -0.618   0.126  -0.117
    1UNL     H7   35  -0.612   0.286  -0.044
    1UNL     H8   36  -0.579  -0.048   0.095
    1UNL     H9   37  -0.463  -0.270   0.150
    1UNL    H10   38  -0.234  -0.299   0.106
    1UNL    H11   39  -0.152  -0.202  -0.178
    1UNL    H12   40  -0.026  -0.099  -0.231
    1UNL    H13   41   0.005  -0.356  -0.071
    1UNL    H14   42   0.103  -0.295  -0.229
    1UNL    H15   43   0.245  -0.274   0.155
    1UNL    H16   44   0.185  -0.411   0.052
    1UNL    H17   45   0.331  -0.334   0.008
    1UNL    H18   46   0.169  -0.073  -0.194
    1UNL    H19   47   0.321  -0.161  -0.154
    1UNL    H20   48   0.318   0.077  -0.094
    1UNL    H21   49   0.527   0.174   0.068
    1UNL    H22   50   0.620   0.027   0.083
    1UNL    H23   51   0.565   0.076  -0.080
    1UNL    H24   52   0.226   0.147   0.126
    1UNL    H25   53   0.207  -0.073   0.222
    1UNL    H26   54   0.058   0.004   0.236
    1UNL    H27   55   0.023  -0.243   0.134
   0.00000   0.00000   0.00000   0.00000   0.00000   0.00000   0.00000   0.00000   0.00000
Generated with MDTraj, t= 78.0
 55
    1UNL     C1    1   0.015   0.473  -0.093
    1UNL     O1    2  -0.013   0.339  -0.106
    1UNL     C2    3   0.089   0.268  -0.037
    1UNL     O2    4   0.184   0.330   0.010
    1UNL     C3    5   0.069   0.125  -0.014
    1UNL     C4    6  -0.041   0.054  -0.041
    1UNL     N1    7  -0.169   0.107  -0.057
    1UNL     C5    8  -0.271   0.021  -0.002
    1UNL     C6    9  -0.401   0.050   0.034
    1UNL     O3   10  -0.468   0.175  -0.004
    1UNL     C7   11  -0.606   0.167  -0.027
    1UNL     C8   12  -0.464  -0.043   0.121
    1UNL     C9   13  -0.411  -0.168   0.142
    1UNL    C10   14  -0.279  -0.196   0.095
    1UNL    C11   15  -0.213  -0.099   0.030
    1UNL    C12   16  -0.072  -0.094  -0.021
    1UNL    C13   17  -0.063  -0.167  -0.161
    1UNL    C14   18   0.059  -0.269  -0.153
    1UNL     N2   19   0.150  -0.209  -0.038
    1UNL    C15   20   0.227  -0.328   0.013
    1UNL    C16   21   0.251  -0.105  -0.102
    1UNL    C17   22   0.297   0.013  -0.013
    1UNL    C18   23   0.426  -0.000   0.074
    1UNL    C19   24   0.515   0.117   0.065
    1UNL     O4   25   0.442  -0.103   0.137
    1UNL    C20   26   0.175   0.055   0.073
    1UNL    C21   27   0.110  -0.061   0.156
    1UNL    C22   28   0.044  -0.159   0.061
    1UNL     H1   29   0.122   0.475  -0.129
    1UNL     H2   30   0.016   0.509   0.011
    1UNL     H3   31  -0.053   0.526  -0.163
    1UNL     H4   32  -0.181   0.213  -0.061
    1UNL     H5   33  -0.663   0.203   0.058
    1UNL     H6   34  -0.632   0.065  -0.063
    1UNL     H7   35  -0.625   0.236  -0.106
    1UNL     H8   36  -0.562  -0.018   0.163
    1UNL     H9   37  -0.457  -0.237   0.206
    1UNL    H10   38  -0.231  -0.290   0.130
    1UNL    H11   39  -0.150  -0.228  -0.177
    1UNL    H12   40  -0.065  -0.096  -0.241
    1UNL    H13   41   0.018  -0.368  -0.119
    1UNL    H14   42   0.110  -0.259  -0.252
    1UNL    H15   43   0.317  -0.286   0.073
    1UNL    H16   44   0.175  -0.394   0.078
    1UNL    H17   45   0.265  -0.399  -0.065
    1UNL    H18   46   0.170  -0.059  -0.170
    1UNL    H19   47   0.324  -0.160  -0.160
    1UNL    H20   48   0.310   0.089  -0.083
    1UNL    H21   49   0.507   0.191   0.148
    1UNL    H22   50   0.619   0.092   0.069
    1UNL    H23   51   0.501   0.179  -0.036
    1UNL    H24   52   0.200   0.138   0.136
    1UNL    H25   53   0.191  -0.103   0.212
    1UNL    H26   54   0.041  -0.022   0.225
    1UNL    H27   55  -0.008  -0.242   0.114
   0.00000   0.00000   0.00000   0.00000   0.00000   0.00000   0.00000   0.00000   0.00000
Generated with MDTraj, t= 79.0
 55
    1UNL     C1    1   0.012   0.456  -0.153
    1UNL     O1    2  -0.026   0.333  -0.103
    1UNL     C2    3   0.076   0.281  -0.019
    1UNL     O2    4   0.162   0.351   0.028
    1UNL     C3    5   0.071   0.138   0.000
    1UNL     C4    6  -0.035   0.064  -0.040
    1UNL     N1    7  -0.167   0.111  -0.051
    1UNL     C5    8  -0.263   0.021  -0.004
    1UNL     C6    9  -0.401   0.048   0.026
    1UNL     O3   10  -0.461   0.164  -0.014
    1UNL     C7   11  -0.601   0.178  -0.000
    1UNL     C8   12  -0.461  -0.052   0.106
    1UNL     C9   13  -0.394  -0.162   0.160
    1UNL    C10   14  -0.261  -0.185   0.111
    1UNL    C11   15  -0.196  -0.094   0.031
    1UNL    C12   16  -0.057  -0.091  -0.023
    1UNL    C13   17  -0.052  -0.165  -0.167
    1UNL    C14   18   0.070  -0.250  -0.177
    1UNL     N2   19   0.154  -0.216  -0.047
    1UNL    C15   20   0.210  -0.347   0.011
    1UNL    C16   21   0.255  -0.118  -0.101
    1UNL    C17   22   0.288   0.011  -0.018
    1UNL    C18   23   0.406  -0.012   0.069
    1UNL    C19   24   0.492   0.102   0.106
    1UNL     O4   25   0.425  -0.120   0.117
    1UNL    C20   26   0.175   0.065   0.076
    1UNL    C21   27   0.116  -0.051   0.159
    1UNL    C22   28   0.056  -0.152   0.060
    1UNL     H1   29   0.081   0.425  -0.235
    1UNL     H2   30   0.068   0.513  -0.078
    1UNL     H3   31  -0.078   0.500  -0.196
    1UNL     H4   32  -0.191   0.209  -0.042
    1UNL     H5   33  -0.637   0.160   0.106
    1UNL     H6   34  -0.648   0.106  -0.076
    1UNL     H7   35  -0.625   0.279  -0.027
    1UNL     H8   36  -0.559  -0.039   0.148
    1UNL     H9   37  -0.438  -0.237   0.231
    1UNL    H10   38  -0.206  -0.259   0.157
    1UNL    H11   39  -0.146  -0.219  -0.180
    1UNL    H12   40  -0.061  -0.100  -0.253
    1UNL    H13   41   0.044  -0.359  -0.192
    1UNL    H14   42   0.118  -0.212  -0.267
    1UNL    H15   43   0.283  -0.319   0.088
    1UNL    H16   44   0.136  -0.416   0.052
    1UNL    H17   45   0.257  -0.418  -0.067
    1UNL    H18   46   0.211  -0.083  -0.201
    1UNL    H19   47   0.348  -0.173  -0.113
    1UNL    H20   48   0.301   0.088  -0.088
    1UNL    H21   49   0.484   0.123   0.220
    1UNL    H22   50   0.595   0.078   0.090
    1UNL    H23   51   0.460   0.190   0.041
    1UNL    H24   52   0.208   0.143   0.141
    1UNL    H25   53   0.201  -0.096   0.209
    1UNL    H26   54   0.047  -0.006   0.227
    1UNL    H27   55   0.015  -0.236   0.123
   0.00000   0.00000   0.00000   0.00000   0.00000   0.00000   0.00000   0.00000   0.00000
Generated with MDTraj, t= 80.0
 55
    1UNL     C1    1  -0.008   0.463  -0.132
    1UNL     O1    2  -0.019   0.324  -0.129
    1UNL     C2    3   0.078   0.276  -0.045
    1UNL     O2    4   0.172   0.341  -0.006
    1UNL     C3    5   0.067   0.131  -0.016
    1UNL     C4    6  -0.046   0.057  -0.047
    1UNL     N1    7  -0.173   0.114  -0.055
    1UNL     C5    8  -0.266   0.019  -0.005
    1UNL     C6    9  -0.402   0.047   0.030
    1UNL     O3   10  -0.462   0.175  -0.001
    1UNL     C7   11  -0.597   0.195   0.042
    1UNL     C8   12  -0.473  -0.055   0.094
    1UNL     C9   13  -0.404  -0.173   0.128
    1UNL    C10   14  -0.273  -0.201   0.098
    1UNL    C11   15  -0.206  -0.104   0.029
    1UNL    C12   16  -0.064  -0.092  -0.030
    1UNL    C13   17  -0.045  -0.175  -0.160
    1UNL    C14   18   0.082  -0.260  -0.154
    1UNL     N2   19   0.159  -0.200  -0.034
    1UNL    C15   20   0.245  -0.313   0.029
    1UNL    C16   21   0.238  -0.089  -0.103
    1UNL    C17   22   0.295   0.022  -0.008
    1UNL    C18   23   0.412  -0.029   0.072
    1UNL    C19   24   0.506   0.070   0.139
    1UNL     O4   25   0.431  -0.145   0.096
    1UNL    C20   26   0.177   0.081   0.075
    1UNL    C21   27   0.108  -0.032   0.160
    1UNL    C22   28   0.052  -0.147   0.066
    1UNL     H1   29   0.092   0.481  -0.174
    1UNL     H2   30  -0.008   0.494  -0.030
    1UNL     H3   31  -0.083   0.506  -0.196
    1UNL     H4   32  -0.181   0.209  -0.046
    1UNL     H5   33  -0.600   0.226   0.154
    1UNL     H6   34  -0.654   0.099   0.017
    1UNL     H7   35  -0.638   0.274  -0.018
    1UNL     H8   36  -0.579  -0.040   0.107
    1UNL     H9   37  -0.459  -0.246   0.179
    1UNL    H10   38  -0.219  -0.296   0.114
    1UNL    H11   39  -0.134  -0.235  -0.180
    1UNL    H12   40  -0.062  -0.108  -0.245
    1UNL    H13   41   0.065  -0.370  -0.130
    1UNL    H14   42   0.138  -0.258  -0.245
    1UNL    H15   43   0.275  -0.277   0.123
    1UNL    H16   44   0.200  -0.418   0.029
    1UNL    H17   45   0.333  -0.331  -0.041
    1UNL    H18   46   0.170  -0.038  -0.178
    1UNL    H19   47   0.326  -0.133  -0.152
    1UNL    H20   48   0.330   0.098  -0.073
    1UNL    H21   49   0.516   0.030   0.248
    1UNL    H22   50   0.609   0.068   0.095
    1UNL    H23   51   0.456   0.164   0.133
    1UNL    H24   52   0.215   0.157   0.139
    1UNL    H25   53   0.186  -0.060   0.227
    1UNL    H26   54   0.025   0.020   0.207
    1UNL    H27   55   0.014  -0.234   0.129
   0.00000   0.00000   0.00000   0.00000   0.00000   0.00000   0.00000   0.00000   0.00000
Generated with MDTraj, t= 81.0
 55
    1UNL     C1    1  -0.017   0.466  -0.125
    1UNL     O1    2  -0.039   0.331  -0.104
    1UNL     C2    3   0.073   0.274  -0.055
    1UNL     O2    4   0.176   0.333  -0.040
    1UNL     C3    5   0.073   0.128  -0.039
    1UNL     C4    6  -0.043   0.060  -0.055
    1UNL     N1    7  -0.172   0.110  -0.059
    1UNL     C5    8  -0.267   0.022   0.002
    1UNL     C6    9  -0.397   0.048   0.034
    1UNL     O3   10  -0.444   0.180   0.016
    1UNL     C7   11  -0.570   0.204   0.069
    1UNL     C8   12  -0.471  -0.059   0.076
    1UNL     C9   13  -0.411  -0.182   0.096
    1UNL    C10   14  -0.276  -0.208   0.085
    1UNL    C11   15  -0.204  -0.099   0.030
    1UNL    C12   16  -0.065  -0.091  -0.028
    1UNL    C13   17  -0.052  -0.167  -0.160
    1UNL    C14   18   0.056  -0.274  -0.142
    1UNL     N2   19   0.150  -0.214  -0.032
    1UNL    C15   20   0.232  -0.326   0.025
    1UNL    C16   21   0.243  -0.109  -0.097
    1UNL    C17   22   0.304   0.013  -0.012
    1UNL    C18   23   0.421  -0.015   0.087
    1UNL    C19   24   0.486   0.105   0.160
    1UNL     O4   25   0.459  -0.128   0.111
    1UNL    C20   26   0.179   0.076   0.058
    1UNL    C21   27   0.111  -0.034   0.153
    1UNL    C22   28   0.048  -0.146   0.064
    1UNL     H1   29   0.091   0.481  -0.135
    1UNL     H2   30  -0.055   0.510  -0.033
    1UNL     H3   31  -0.063   0.503  -0.214
    1UNL     H4   32  -0.190   0.204  -0.067
    1UNL     H5   33  -0.584   0.157   0.175
    1UNL     H6   34  -0.644   0.168  -0.006
    1UNL     H7   35  -0.578   0.313   0.083
    1UNL     H8   36  -0.579  -0.051   0.077
    1UNL     H9   37  -0.475  -0.270   0.126
    1UNL    H10   38  -0.228  -0.301   0.079
    1UNL    H11   39  -0.149  -0.206  -0.194
    1UNL    H12   40  -0.036  -0.099  -0.243
    1UNL    H13   41   0.015  -0.366  -0.090
    1UNL    H14   42   0.105  -0.303  -0.233
    1UNL    H15   43   0.321  -0.279   0.068
    1UNL    H16   44   0.173  -0.385   0.102
    1UNL    H17   45   0.246  -0.404  -0.053
    1UNL    H18   46   0.189  -0.063  -0.183
    1UNL    H19   47   0.326  -0.173  -0.131
    1UNL    H20   48   0.339   0.081  -0.087
    1UNL    H21   49   0.513   0.070   0.263
    1UNL    H22   50   0.589   0.140   0.117
    1UNL    H23   51   0.419   0.186   0.167
    1UNL    H24   52   0.216   0.149   0.125
    1UNL    H25   53   0.184  -0.067   0.223
    1UNL    H26   54   0.034   0.032   0.199
    1UNL    H27   55   0.014  -0.236   0.127
   0.00000   0.00000   0.00000   0.00000   0.00000   0.00000   0.00000   0.00000   0.00000
Generated with MDTraj, t= 82.0
 55
    1UNL     C1    1  -0.007   0.468  -0.122
    1UNL     O1    2  -0.038   0.336  -0.092
    1UNL     C2    3   0.077   0.272  -0.048
    1UNL     O2    4   0.180   0.332  -0.037
    1UNL     C3    5   0.068   0.128  -0.026
    1UNL     C4    6  -0.044   0.056  -0.058
    1UNL     N1    7  -0.169   0.111  -0.060
    1UNL     C5    8  -0.261   0.024  -0.010
    1UNL     C6    9  -0.395   0.051   0.036
    1UNL     O3   10  -0.450   0.172   0.014
    1UNL     C7   11  -0.562   0.206   0.089
    1UNL     C8   12  -0.467  -0.060   0.091
    1UNL     C9   13  -0.415  -0.190   0.096
    1UNL    C10   14  -0.287  -0.205   0.048
    1UNL    C11   15  -0.205  -0.101   0.006
    1UNL    C12   16  -0.058  -0.098  -0.036
    1UNL    C13   17  -0.033  -0.166  -0.168
    1UNL    C14   18   0.069  -0.271  -0.144
    1UNL     N2   19   0.157  -0.216  -0.022
    1UNL    C15   20   0.212  -0.325   0.072
    1UNL    C16   21   0.252  -0.116  -0.094
    1UNL    C17   22   0.286   0.014  -0.013
    1UNL    C18   23   0.410  -0.004   0.070
    1UNL    C19   24   0.488   0.109   0.118
    1UNL     O4   25   0.445  -0.112   0.106
    1UNL    C20   26   0.167   0.063   0.067
    1UNL    C21   27   0.105  -0.045   0.157
    1UNL    C22   28   0.048  -0.144   0.062
    1UNL     H1   29   0.042   0.468  -0.222
    1UNL     H2   30   0.064   0.494  -0.042
    1UNL     H3   31  -0.086   0.542  -0.121
    1UNL     H4   32  -0.185   0.213  -0.054
    1UNL     H5   33  -0.538   0.186   0.198
    1UNL     H6   34  -0.647   0.146   0.058
    1UNL     H7   35  -0.586   0.313   0.083
    1UNL     H8   36  -0.560  -0.041   0.140
    1UNL     H9   37  -0.478  -0.269   0.128
    1UNL    H10   38  -0.247  -0.307   0.044
    1UNL    H11   39  -0.123  -0.203  -0.214
    1UNL    H12   40   0.011  -0.098  -0.241
    1UNL    H13   41   0.024  -0.365  -0.108
    1UNL    H14   42   0.142  -0.278  -0.226
    1UNL    H15   43   0.232  -0.271   0.173
    1UNL    H16   44   0.141  -0.410   0.082
    1UNL    H17   45   0.300  -0.375   0.031
    1UNL    H18   46   0.207  -0.099  -0.193
    1UNL    H19   47   0.347  -0.176  -0.110
    1UNL    H20   48   0.312   0.097  -0.078
    1UNL    H21   49   0.441   0.159   0.198
    1UNL    H22   50   0.586   0.080   0.166
    1UNL    H23   51   0.516   0.194   0.050
    1UNL    H24   52   0.196   0.138   0.137
    1UNL    H25   53   0.191  -0.078   0.214
    1UNL    H26   54   0.027   0.003   0.219
    1UNL    H27   55  -0.004  -0.225   0.126
   0.00000   0.00000   0.00000   0.00000   0.00000   0.00000   0.00000   0.00000   0.00000
Generated with MDTraj, t= 83.0
 55
    1UNL     C1    1   0.005   0.485  -0.110
    1UNL     O1    2  -0.021   0.350  -0.105
    1UNL     C2    3   0.077   0.279  -0.046
    1UNL     O2    4   0.175   0.338  -0.015
    1UNL     C3    5   0.063   0.135  -0.018
    1UNL     C4    6  -0.044   0.062  -0.053
    1UNL     N1    7  -0.173   0.108  -0.078
    1UNL     C5    8  -0.267   0.023  -0.012
    1UNL     C6    9  -0.402   0.043   0.020
    1UNL     O3   10  -0.456   0.174   0.017
    1UNL     C7   11  -0.570   0.189   0.101
    1UNL     C8   12  -0.472  -0.063   0.077
    1UNL     C9   13  -0.415  -0.185   0.095
    1UNL    C10   14  -0.277  -0.206   0.068
    1UNL    C11   15  -0.207  -0.102   0.010
    1UNL    C12   16  -0.061  -0.091  -0.041
    1UNL    C13   17  -0.035  -0.169  -0.170
    1UNL    C14   18   0.077  -0.281  -0.138
    1UNL     N2   19   0.157  -0.216  -0.017
    1UNL    C15   20   0.232  -0.315   0.066
    1UNL    C16   21   0.252  -0.116  -0.093
    1UNL    C17   22   0.286   0.010  -0.015
    1UNL    C18   23   0.410  -0.013   0.075
    1UNL    C19   24   0.510   0.095   0.062
    1UNL     O4   25   0.407  -0.111   0.143
    1UNL    C20   26   0.170   0.067   0.066
    1UNL    C21   27   0.105  -0.050   0.154
    1UNL    C22   28   0.048  -0.151   0.060
    1UNL     H1   29   0.069   0.507  -0.201
    1UNL     H2   30   0.055   0.520  -0.017
    1UNL     H3   31  -0.085   0.545  -0.120
    1UNL     H4   32  -0.184   0.216  -0.088
    1UNL     H5   33  -0.540   0.152   0.199
    1UNL     H6   34  -0.657   0.140   0.066
    1UNL     H7   35  -0.594   0.295   0.121
    1UNL     H8   36  -0.575  -0.051   0.106
    1UNL     H9   37  -0.470  -0.260   0.151
    1UNL    H10   38  -0.232  -0.298   0.094
    1UNL    H11   39  -0.118  -0.225  -0.209
    1UNL    H12   40  -0.003  -0.102  -0.249
    1UNL    H13   41   0.029  -0.373  -0.104
    1UNL    H14   42   0.150  -0.294  -0.221
    1UNL    H15   43   0.321  -0.261   0.115
    1UNL    H16   44   0.168  -0.357   0.145
    1UNL    H17   45   0.258  -0.406   0.011
    1UNL    H18   46   0.184  -0.086  -0.175
    1UNL    H19   47   0.342  -0.173  -0.137
    1UNL    H20   48   0.313   0.089  -0.084
    1UNL    H21   49   0.491   0.169  -0.016
    1UNL    H22   50   0.510   0.148   0.151
    1UNL    H23   51   0.620   0.058   0.044
    1UNL    H24   52   0.207   0.147   0.127
    1UNL    H25   53   0.188  -0.093   0.208
    1UNL    H26   54   0.034   0.001   0.223
    1UNL    H27   55  -0.017  -0.231   0.113
   0.00000   0.00000   0.00000   0.00000   0.00000   0.00000   0.00000   0.00000   0.00000
Generated with MDTraj, t= 84.0
 55
    1UNL     C1    1  -0.022   0.478  -0.118
    1UNL     O1    2  -0.032   0.341  -0.102
    1UNL     C2    3   0.078   0.282  -0.039
    1UNL     O2    4   0.171   0.347   0.005
    1UNL     C3    5   0.068   0.135  -0.022
    1UNL     C4    6  -0.044   0.062  -0.055
    1UNL     N1    7  -0.178   0.113  -0.049
    1UNL     C5    8  -0.269   0.019   0.008
    1UNL     C6    9  -0.406   0.037   0.033
    1UNL     O3   10  -0.450   0.165   0.003
    1UNL     C7   11  -0.570   0.206   0.063
    1UNL     C8   12  -0.479  -0.072   0.074
    1UNL     C9   13  -0.415  -0.192   0.097
    1UNL    C10   14  -0.279  -0.212   0.071
    1UNL    C11   15  -0.202  -0.106   0.027
    1UNL    C12   16  -0.061  -0.088  -0.031
    1UNL    C13   17  -0.049  -0.163  -0.166
    1UNL    C14   18   0.064  -0.268  -0.152
    1UNL     N2   19   0.147  -0.216  -0.034
    1UNL    C15   20   0.224  -0.320   0.038
    1UNL    C16   21   0.253  -0.120  -0.099
    1UNL    C17   22   0.296   0.005  -0.014
    1UNL    C18   23   0.415  -0.012   0.081
    1UNL    C19   24   0.544   0.051   0.041
    1UNL     O4   25   0.422  -0.075   0.182
    1UNL    C20   26   0.181   0.075   0.058
    1UNL    C21   27   0.120  -0.038   0.146
    1UNL    C22   28   0.049  -0.142   0.063
    1UNL     H1   29   0.084   0.514  -0.111
    1UNL     H2   30  -0.081   0.529  -0.040
    1UNL     H3   31  -0.060   0.516  -0.212
    1UNL     H4   32  -0.190   0.221  -0.031
    1UNL     H5   33  -0.551   0.190   0.166
    1UNL     H6   34  -0.655   0.156   0.033
    1UNL     H7   35  -0.590   0.314   0.055
    1UNL     H8   36  -0.581  -0.061   0.105
    1UNL     H9   37  -0.467  -0.284   0.121
    1UNL    H10   38  -0.234  -0.305   0.107
    1UNL    H11   39  -0.142  -0.211  -0.189
    1UNL    H12   40  -0.034  -0.101  -0.253
    1UNL    H13   41   0.013  -0.353  -0.112
    1UNL    H14   42   0.108  -0.292  -0.254
    1UNL    H15   43   0.273  -0.270   0.119
    1UNL    H16   44   0.159  -0.404   0.074
    1UNL    H17   45   0.298  -0.378  -0.028
    1UNL    H18   46   0.206  -0.077  -0.191
    1UNL    H19   47   0.351  -0.179  -0.121
    1UNL    H20   48   0.334   0.079  -0.085
    1UNL    H21   49   0.603  -0.031  -0.010
    1UNL    H22   50   0.521   0.137  -0.013
    1UNL    H23   51   0.588   0.073   0.140
    1UNL    H24   52   0.224   0.158   0.115
    1UNL    H25   53   0.207  -0.077   0.199
    1UNL    H26   54   0.057   0.006   0.226
    1UNL    H27   55   0.009  -0.236   0.120
   0.00000   0.00000   0.00000   0.00000   0.00000   0.00000   0.00000   0.00000   0.00000
Generated with MDTraj, t= 85.0
 55
    1UNL     C1    1  -0.044   0.457  -0.118
    1UNL     O1    2  -0.035   0.323  -0.096
    1UNL     C2    3   0.079   0.279  -0.023
    1UNL     O2    4   0.174   0.345   0.014
    1UNL     C3    5   0.071   0.140   0.001
    1UNL     C4    6  -0.041   0.070  -0.043
    1UNL     N1    7  -0.176   0.111  -0.064
    1UNL     C5    8  -0.269   0.023  -0.012
    1UNL     C6    9  -0.405   0.045   0.023
    1UNL     O3   10  -0.459   0.174   0.009
    1UNL     C7   11  -0.597   0.188   0.028
    1UNL     C8   12  -0.467  -0.061   0.088
    1UNL     C9   13  -0.406  -0.182   0.109
    1UNL    C10   14  -0.276  -0.201   0.077
    1UNL    C11   15  -0.209  -0.097   0.016
    1UNL    C12   16  -0.053  -0.081  -0.026
    1UNL    C13   17  -0.038  -0.164  -0.157
    1UNL    C14   18   0.071  -0.267  -0.135
    1UNL     N2   19   0.163  -0.201  -0.032
    1UNL    C15   20   0.258  -0.300   0.025
    1UNL    C16   21   0.233  -0.092  -0.106
    1UNL    C17   22   0.293   0.018  -0.009
    1UNL    C18   23   0.410  -0.032   0.071
    1UNL    C19   24   0.549  -0.001   0.008
    1UNL     O4   25   0.397  -0.098   0.173
    1UNL    C20   26   0.185   0.080   0.081
    1UNL    C21   27   0.123  -0.037   0.161
    1UNL    C22   28   0.060  -0.135   0.069
    1UNL     H1   29   0.050   0.506  -0.153
    1UNL     H2   30  -0.076   0.499  -0.023
    1UNL     H3   31  -0.124   0.477  -0.185
    1UNL     H4   32  -0.196   0.213  -0.063
    1UNL     H5   33  -0.615   0.174   0.130
    1UNL     H6   34  -0.654   0.126  -0.032
    1UNL     H7   35  -0.625   0.292   0.008
    1UNL     H8   36  -0.574  -0.055   0.103
    1UNL     H9   37  -0.468  -0.255   0.153
    1UNL    H10   38  -0.233  -0.299   0.088
    1UNL    H11   39  -0.134  -0.194  -0.198
    1UNL    H12   40  -0.012  -0.101  -0.243
    1UNL    H13   41   0.024  -0.361  -0.119
    1UNL    H14   42   0.130  -0.284  -0.230
    1UNL    H15   43   0.301  -0.256   0.108
    1UNL    H16   44   0.209  -0.399   0.049
    1UNL    H17   45   0.341  -0.333  -0.049
    1UNL    H18   46   0.166  -0.031  -0.169
    1UNL    H19   47   0.324  -0.136  -0.163
    1UNL    H20   48   0.331   0.101  -0.072
    1UNL    H21   49   0.624  -0.029   0.085
    1UNL    H22   50   0.551  -0.061  -0.086
    1UNL    H23   51   0.550   0.100  -0.009
    1UNL    H24   52   0.228   0.158   0.146
    1UNL    H25   53   0.201  -0.074   0.231
    1UNL    H26   54   0.048   0.005   0.229
    1UNL    H27   55   0.003  -0.218   0.127
   0.00000   0.00000   0.00000   0.00000   0.00000   0.00000   0.00000   0.00000   0.00000
Generated with MDTraj, t= 86.0
 55
    1UNL     C1    1  -0.007   0.490  -0.108
    1UNL     O1    2  -0.034   0.355  -0.090
    1UNL     C2    3   0.069   0.287  -0.026
    1UNL     O2    4   0.163   0.341   0.031
    1UNL     C3    5   0.064   0.134  -0.021
    1UNL     C4    6  -0.048   0.060  -0.045
    1UNL     N1    7  -0.174   0.115  -0.050
    1UNL     C5    8  -0.268   0.020   0.012
    1UNL     C6    9  -0.404   0.038   0.040
    1UNL     O3   10  -0.453   0.157  -0.015
    1UNL     C7   11  -0.596   0.176  -0.016
    1UNL     C8   12  -0.471  -0.069   0.093
    1UNL     C9   13  -0.403  -0.183   0.132
    1UNL    C10   14  -0.270  -0.202   0.106
    1UNL    C11   15  -0.198  -0.098   0.043
    1UNL    C12   16  -0.060  -0.089  -0.018
    1UNL    C13   17  -0.058  -0.175  -0.146
    1UNL    C14   18   0.080  -0.249  -0.157
    1UNL     N2   19   0.165  -0.197  -0.040
    1UNL    C15   20   0.233  -0.322   0.017
    1UNL    C16   21   0.248  -0.090  -0.113
    1UNL    C17   22   0.299   0.022  -0.022
    1UNL    C18   23   0.408  -0.028   0.071
    1UNL    C19   24   0.543  -0.018   0.013
    1UNL     O4   25   0.390  -0.081   0.180
    1UNL    C20   26   0.180   0.080   0.061
    1UNL    C21   27   0.122  -0.035   0.148
    1UNL    C22   28   0.067  -0.137   0.062
    1UNL     H1   29   0.051   0.511  -0.199
    1UNL     H2   30   0.046   0.525  -0.020
    1UNL     H3   31  -0.100   0.539  -0.109
    1UNL     H4   32  -0.190   0.212  -0.056
    1UNL     H5   33  -0.633   0.173   0.082
    1UNL     H6   34  -0.639   0.097  -0.074
    1UNL     H7   35  -0.629   0.274  -0.060
    1UNL     H8   36  -0.577  -0.068   0.112
    1UNL     H9   37  -0.463  -0.271   0.167
    1UNL    H10   38  -0.227  -0.299   0.109
    1UNL    H11   39  -0.142  -0.240  -0.165
    1UNL    H12   40  -0.066  -0.113  -0.235
    1UNL    H13   41   0.078  -0.356  -0.158
    1UNL    H14   42   0.128  -0.223  -0.257
    1UNL    H15   43   0.320  -0.293   0.080
    1UNL    H16   44   0.162  -0.386   0.073
    1UNL    H17   45   0.265  -0.392  -0.064
    1UNL    H18   46   0.189  -0.039  -0.192
    1UNL    H19   47   0.346  -0.139  -0.149
    1UNL    H20   48   0.340   0.103  -0.086
    1UNL    H21   49   0.592   0.063   0.054
    1UNL    H22   50   0.596  -0.118   0.027
    1UNL    H23   51   0.542  -0.001  -0.092
    1UNL    H24   52   0.209   0.167   0.124
    1UNL    H25   53   0.197  -0.072   0.222
    1UNL    H26   54   0.054   0.020   0.212
    1UNL    H27   55   0.024  -0.221   0.129
   0.00000   0.00000   0.00000   0.00000   0.00000   0.00000   0.00000   0.00000   0.00000
Generated with MDTraj, t= 87.0
 55
    1UNL     C1    1  -0.018   0.484  -0.089
    1UNL     O1    2  -0.030   0.340  -0.079
    1UNL     C2    3   0.081   0.276  -0.025
    1UNL     O2    4   0.184   0.333   0.007
    1UNL     C3    5   0.071   0.133  -0.001
    1UNL     C4    6  -0.044   0.071  -0.043
    1UNL     N1    7  -0.169   0.124  -0.045
    1UNL     C5    8  -0.265   0.034  -0.003
    1UNL     C6    9  -0.404   0.050   0.027
    1UNL     O3   10  -0.477   0.159  -0.015
    1UNL     C7   11  -0.618   0.137  -0.025
    1UNL     C8   12  -0.463  -0.050   0.102
    1UNL     C9   13  -0.391  -0.165   0.133
    1UNL    C10   14  -0.262  -0.187   0.104
    1UNL    C11   15  -0.196  -0.087   0.030
    1UNL    C12   16  -0.055  -0.079  -0.025
    1UNL    C13   17  -0.046  -0.151  -0.166
    1UNL    C14   18   0.063  -0.261  -0.151
    1UNL     N2   19   0.156  -0.206  -0.042
    1UNL    C15   20   0.239  -0.318   0.023
    1UNL    C16   21   0.238  -0.092  -0.108
    1UNL    C17   22   0.283   0.012  -0.013
    1UNL    C18   23   0.413  -0.024   0.064
    1UNL    C19   24   0.540   0.006   0.003
    1UNL     O4   25   0.405  -0.076   0.170
    1UNL    C20   26   0.176   0.065   0.081
    1UNL    C21   27   0.120  -0.060   0.160
    1UNL    C22   28   0.054  -0.152   0.064
    1UNL     H1   29   0.087   0.511  -0.116
    1UNL     H2   30  -0.047   0.528   0.007
    1UNL     H3   31  -0.089   0.513  -0.162
    1UNL     H4   32  -0.185   0.217  -0.041
    1UNL     H5   33  -0.670   0.128   0.068
    1UNL     H6   34  -0.625   0.044  -0.084
    1UNL     H7   35  -0.665   0.219  -0.090
    1UNL     H8   36  -0.565  -0.031   0.132
    1UNL     H9   37  -0.442  -0.231   0.195
    1UNL    H10   38  -0.214  -0.285   0.128
    1UNL    H11   39  -0.137  -0.198  -0.201
    1UNL    H12   40  -0.019  -0.085  -0.247
    1UNL    H13   41   0.029  -0.352  -0.103
    1UNL    H14   42   0.119  -0.290  -0.243
    1UNL    H15   43   0.280  -0.279   0.127
    1UNL    H16   44   0.188  -0.415   0.029
    1UNL    H17   45   0.321  -0.341  -0.042
    1UNL    H18   46   0.171  -0.046  -0.187
    1UNL    H19   47   0.331  -0.136  -0.156
    1UNL    H20   48   0.314   0.102  -0.070
    1UNL    H21   49   0.541   0.086  -0.061
    1UNL    H22   50   0.622   0.010   0.078
    1UNL    H23   51   0.578  -0.074  -0.060
    1UNL    H24   52   0.225   0.137   0.153
    1UNL    H25   53   0.214  -0.086   0.215
    1UNL    H26   54   0.056  -0.025   0.240
    1UNL    H27   55  -0.000  -0.238   0.118
   0.00000   0.00000   0.00000   0.00000   0.00000   0.00000   0.00000   0.00000   0.00000
Generated with MDTraj, t= 88.0
 55
    1UNL     C1    1  -0.001   0.497  -0.080
    1UNL     O1    2  -0.040   0.357  -0.068
    1UNL     C2    3   0.066   0.278  -0.025
    1UNL     O2    4   0.176   0.323   0.000
    1UNL     C3    5   0.063   0.129  -0.006
    1UNL     C4    6  -0.050   0.058  -0.037
    1UNL     N1    7  -0.174   0.111  -0.053
    1UNL     C5    8  -0.268   0.020   0.001
    1UNL     C6    9  -0.406   0.038   0.025
    1UNL     O3   10  -0.459   0.164  -0.019
    1UNL     C7   11  -0.598   0.166  -0.029
    1UNL     C8   12  -0.468  -0.063   0.091
    1UNL     C9   13  -0.408  -0.178   0.133
    1UNL    C10   14  -0.275  -0.200   0.108
    1UNL    C11   15  -0.208  -0.099   0.037
    1UNL    C12   16  -0.061  -0.091  -0.021
    1UNL    C13   17  -0.058  -0.160  -0.159
    1UNL    C14   18   0.051  -0.262  -0.146
    1UNL     N2   19   0.153  -0.206  -0.042
    1UNL    C15   20   0.236  -0.302   0.032
    1UNL    C16   21   0.240  -0.090  -0.104
    1UNL    C17   22   0.300   0.021  -0.021
    1UNL    C18   23   0.429  -0.028   0.059
    1UNL    C19   24   0.562   0.025   0.017
    1UNL     O4   25   0.419  -0.099   0.153
    1UNL    C20   26   0.182   0.080   0.074
    1UNL    C21   27   0.124  -0.047   0.152
    1UNL    C22   28   0.049  -0.145   0.065
    1UNL     H1   29   0.111   0.497  -0.096
    1UNL     H2   30  -0.029   0.549   0.014
    1UNL     H3   31  -0.058   0.536  -0.163
    1UNL     H4   32  -0.192   0.205  -0.052
    1UNL     H5   33  -0.651   0.170   0.067
    1UNL     H6   34  -0.620   0.067  -0.084
    1UNL     H7   35  -0.627   0.247  -0.100
    1UNL     H8   36  -0.569  -0.038   0.115
    1UNL     H9   37  -0.465  -0.253   0.192
    1UNL    H10   38  -0.212  -0.271   0.150
    1UNL    H11   39  -0.157  -0.203  -0.175
    1UNL    H12   40  -0.029  -0.097  -0.242
    1UNL    H13   41   0.013  -0.356  -0.103
    1UNL    H14   42   0.108  -0.279  -0.236
    1UNL    H15   43   0.310  -0.238   0.089
    1UNL    H16   44   0.172  -0.370   0.094
    1UNL    H17   45   0.282  -0.368  -0.041
    1UNL    H18   46   0.167  -0.038  -0.175
    1UNL    H19   47   0.309  -0.147  -0.171
    1UNL    H20   48   0.333   0.104  -0.086
    1UNL    H21   49   0.567   0.019  -0.092
    1UNL    H22   50   0.574   0.121   0.049
    1UNL    H23   51   0.654  -0.026   0.045
    1UNL    H24   52   0.210   0.159   0.151
    1UNL    H25   53   0.210  -0.089   0.207
    1UNL    H26   54   0.068   0.001   0.233
    1UNL    H27   55   0.009  -0.235   0.122
   0.00000   0.00000   0.00000   0.00000   0.00000   0.00000   0.00000   0.00000   0.00000
Generated with MDTraj, t= 89.0
 55
    1UNL     C1    1  -0.035   0.482  -0.077
    1UNL     O1    2  -0.039   0.345  -0.085
    1UNL     C2    3   0.071   0.283  -0.034
    1UNL     O2    4   0.173   0.335   0.006
    1UNL     C3    5   0.069   0.133  -0.011
    1UNL     C4    6  -0.038   0.057  -0.040
    1UNL     N1    7  -0.161   0.114  -0.042
    1UNL     C5    8  -0.254   0.030   0.017
    1UNL     C6    9  -0.394   0.053   0.021
    1UNL     O3   10  -0.450   0.173  -0.017
    1UNL     C7   11  -0.590   0.178  -0.003
    1UNL     C8   12  -0.468  -0.056   0.068
    1UNL     C9   13  -0.411  -0.175   0.107
    1UNL    C10   14  -0.274  -0.200   0.085
    1UNL    C11   15  -0.192  -0.095   0.050
    1UNL    C12   16  -0.053  -0.090  -0.013
    1UNL    C13   17  -0.059  -0.173  -0.143
    1UNL    C14   18   0.049  -0.278  -0.137
    1UNL     N2   19   0.149  -0.213  -0.035
    1UNL    C15   20   0.233  -0.322   0.030
    1UNL    C16   21   0.237  -0.106  -0.106
    1UNL    C17   22   0.287   0.009  -0.027
    1UNL    C18   23   0.414  -0.021   0.048
    1UNL    C19   24   0.533   0.069   0.041
    1UNL     O4   25   0.414  -0.109   0.130
    1UNL    C20   26   0.183   0.070   0.068
    1UNL    C21   27   0.134  -0.043   0.159
    1UNL    C22   28   0.062  -0.143   0.075
    1UNL     H1   29  -0.011   0.520  -0.180
    1UNL     H2   30   0.039   0.514  -0.001
    1UNL     H3   31  -0.136   0.506  -0.044
    1UNL     H4   32  -0.180   0.216  -0.026
    1UNL     H5   33  -0.623   0.141   0.096
    1UNL     H6   34  -0.632   0.099  -0.078
    1UNL     H7   35  -0.634   0.276  -0.028
    1UNL     H8   36  -0.575  -0.045   0.080
    1UNL     H9   37  -0.467  -0.261   0.129
    1UNL    H10   38  -0.228  -0.297   0.114
    1UNL    H11   39  -0.154  -0.219  -0.170
    1UNL    H12   40  -0.036  -0.102  -0.221
    1UNL    H13   41   0.020  -0.381  -0.101
    1UNL    H14   42   0.099  -0.296  -0.228
    1UNL    H15   43   0.308  -0.280   0.089
    1UNL    H16   44   0.164  -0.393   0.084
    1UNL    H17   45   0.270  -0.391  -0.052
    1UNL    H18   46   0.174  -0.072  -0.198
    1UNL    H19   47   0.325  -0.158  -0.150
    1UNL    H20   48   0.314   0.090  -0.097
    1UNL    H21   49   0.613   0.015  -0.013
    1UNL    H22   50   0.499   0.154  -0.005
    1UNL    H23   51   0.581   0.088   0.134
    1UNL    H24   52   0.223   0.152   0.137
    1UNL    H25   53   0.226  -0.076   0.210
    1UNL    H26   54   0.078   0.001   0.244
    1UNL    H27   55   0.022  -0.230   0.137
   0.00000   0.00000   0.00000   0.00000   0.00000   0.00000   0.00000   0.00000   0.00000
Generated with MDTraj, t= 90.0
 55
    1UNL     C1    1  -0.037   0.481  -0.097
    1UNL     O1    2  -0.043   0.339  -0.082
    1UNL     C2    3   0.074   0.277  -0.028
    1UNL     O2    4   0.176   0.336   0.011
    1UNL     C3    5   0.071   0.133  -0.016
    1UNL     C4    6  -0.041   0.063  -0.037
    1UNL     N1    7  -0.170   0.113  -0.046
    1UNL     C5    8  -0.270   0.022  -0.010
    1UNL     C6    9  -0.406   0.050   0.024
    1UNL     O3   10  -0.459   0.178   0.005
    1UNL     C7   11  -0.597   0.197   0.027
    1UNL     C8   12  -0.477  -0.053   0.083
    1UNL     C9   13  -0.416  -0.178   0.101
    1UNL    C10   14  -0.279  -0.203   0.070
    1UNL    C11   15  -0.212  -0.105   0.009
    1UNL    C12   16  -0.060  -0.091  -0.028
    1UNL    C13   17  -0.029  -0.159  -0.163
    1UNL    C14   18   0.073  -0.271  -0.124
    1UNL     N2   19   0.155  -0.212  -0.011
    1UNL    C15   20   0.219  -0.328   0.064
    1UNL    C16   21   0.261  -0.125  -0.092
    1UNL    C17   22   0.297   0.007  -0.029
    1UNL    C18   23   0.430  -0.023   0.040
    1UNL    C19   24   0.519   0.096   0.066
    1UNL     O4   25   0.451  -0.135   0.085
    1UNL    C20   26   0.182   0.068   0.062
    1UNL    C21   27   0.118  -0.035   0.159
    1UNL    C22   28   0.054  -0.142   0.070
    1UNL     H1   29  -0.081   0.518  -0.192
    1UNL     H2   30   0.069   0.508  -0.095
    1UNL     H3   31  -0.078   0.525  -0.008
    1UNL     H4   32  -0.189   0.219  -0.044
    1UNL     H5   33  -0.619   0.172   0.132
    1UNL     H6   34  -0.668   0.126  -0.030
    1UNL     H7   35  -0.627   0.298   0.005
    1UNL     H8   36  -0.582  -0.040   0.088
    1UNL     H9   37  -0.490  -0.251   0.145
    1UNL    H10   38  -0.237  -0.301   0.085
    1UNL    H11   39  -0.120  -0.198  -0.205
    1UNL    H12   40   0.010  -0.090  -0.236
    1UNL    H13   41   0.032  -0.368  -0.083
    1UNL    H14   42   0.135  -0.306  -0.201
    1UNL    H15   43   0.263  -0.290   0.151
    1UNL    H16   44   0.142  -0.407   0.080
    1UNL    H17   45   0.292  -0.387  -0.001
    1UNL    H18   46   0.223  -0.095  -0.197
    1UNL    H19   47   0.350  -0.190  -0.103
    1UNL    H20   48   0.320   0.081  -0.106
    1UNL    H21   49   0.619   0.059   0.093
    1UNL    H22   50   0.514   0.148  -0.031
    1UNL    H23   51   0.499   0.150   0.153
    1UNL    H24   52   0.228   0.150   0.127
    1UNL    H25   53   0.202  -0.067   0.221
    1UNL    H26   54   0.050   0.012   0.234
    1UNL    H27   55  -0.006  -0.212   0.136
   0.00000   0.00000   0.00000   0.00000   0.00000   0.00000   0.00000   0.00000   0.00000
Generated with MDTraj, t= 91.0
 55
    1UNL     C1    1  -0.005   0.486  -0.105
    1UNL     O1    2  -0.016   0.349  -0.094
    1UNL     C2    3   0.087   0.280  -0.034
    1UNL     O2    4   0.187   0.328   0.013
    1UNL     C3    5   0.071   0.134  -0.034
    1UNL     C4    6  -0.044   0.063  -0.065
    1UNL     N1    7  -0.175   0.114  -0.064
    1UNL     C5    8  -0.268   0.026  -0.009
    1UNL     C6    9  -0.401   0.041   0.032
    1UNL     O3   10  -0.446   0.172   0.014
    1UNL     C7   11  -0.576   0.201   0.054
    1UNL     C8   12  -0.470  -0.071   0.069
    1UNL     C9   13  -0.406  -0.198   0.099
    1UNL    C10   14  -0.267  -0.204   0.079
    1UNL    C11   15  -0.202  -0.089   0.029
    1UNL    C12   16  -0.067  -0.090  -0.030
    1UNL    C13   17  -0.056  -0.184  -0.154
    1UNL    C14   18   0.059  -0.282  -0.130
    1UNL     N2   19   0.148  -0.217  -0.030
    1UNL    C15   20   0.221  -0.332   0.043
    1UNL    C16   21   0.244  -0.123  -0.103
    1UNL    C17   22   0.290   0.003  -0.021
    1UNL    C18   23   0.418  -0.010   0.063
    1UNL    C19   24   0.471   0.125   0.100
    1UNL     O4   25   0.461  -0.116   0.098
    1UNL    C20   26   0.172   0.070   0.064
    1UNL    C21   27   0.103  -0.038   0.154
    1UNL    C22   28   0.045  -0.147   0.067
    1UNL     H1   29  -0.096   0.535  -0.072
    1UNL     H2   30   0.008   0.511  -0.209
    1UNL     H3   31   0.082   0.521  -0.052
    1UNL     H4   32  -0.196   0.221  -0.045
    1UNL     H5   33  -0.569   0.203   0.162
    1UNL     H6   34  -0.661   0.130   0.035
    1UNL     H7   35  -0.607   0.294   0.018
    1UNL     H8   36  -0.574  -0.057   0.095
    1UNL     H9   37  -0.451  -0.285   0.134
    1UNL    H10   38  -0.224  -0.302   0.086
    1UNL    H11   39  -0.152  -0.230  -0.172
    1UNL    H12   40  -0.026  -0.122  -0.236
    1UNL    H13   41   0.002  -0.370  -0.090
    1UNL    H14   42   0.108  -0.320  -0.216
    1UNL    H15   43   0.312  -0.294   0.098
    1UNL    H16   44   0.154  -0.386   0.108
    1UNL    H17   45   0.246  -0.419  -0.022
    1UNL    H18   46   0.195  -0.078  -0.192
    1UNL    H19   47   0.340  -0.176  -0.128
    1UNL    H20   48   0.324   0.071  -0.098
    1UNL    H21   49   0.557   0.114   0.163
    1UNL    H22   50   0.502   0.166  -0.004
    1UNL    H23   51   0.416   0.187   0.162
    1UNL    H24   52   0.203   0.160   0.128
    1UNL    H25   53   0.170  -0.072   0.234
    1UNL    H26   54   0.026   0.019   0.210
    1UNL    H27   55   0.005  -0.232   0.130
   0.00000   0.00000   0.00000   0.00000   0.00000   0.00000   0.00000   0.00000   0.00000
Generated with MDTraj, t= 92.0
 55
    1UNL     C1    1  -0.002   0.465  -0.128
    1UNL     O1    2  -0.024   0.330  -0.105
    1UNL     C2    3   0.085   0.272  -0.041
    1UNL     O2    4   0.189   0.326  -0.010
    1UNL     C3    5   0.062   0.128  -0.011
    1UNL     C4    6  -0.053   0.060  -0.053
    1UNL     N1    7  -0.182   0.111  -0.066
    1UNL     C5    8  -0.277   0.017  -0.015
    1UNL     C6    9  -0.409   0.041   0.029
    1UNL     O3   10  -0.465   0.169   0.001
    1UNL     C7   11  -0.577   0.211   0.072
    1UNL     C8   12  -0.475  -0.055   0.102
    1UNL     C9   13  -0.414  -0.182   0.117
    1UNL    C10   14  -0.285  -0.209   0.075
    1UNL    C11   15  -0.215  -0.105   0.012
    1UNL    C12   16  -0.064  -0.090  -0.033
    1UNL    C13   17  -0.042  -0.168  -0.167
    1UNL    C14   18   0.082  -0.258  -0.154
    1UNL     N2   19   0.164  -0.207  -0.035
    1UNL    C15   20   0.245  -0.320   0.029
    1UNL    C16   21   0.257  -0.099  -0.103
    1UNL    C17   22   0.289   0.017  -0.008
    1UNL    C18   23   0.413  -0.016   0.076
    1UNL    C19   24   0.501   0.099   0.113
    1UNL     O4   25   0.435  -0.122   0.124
    1UNL    C20   26   0.171   0.064   0.080
    1UNL    C21   27   0.108  -0.045   0.156
    1UNL    C22   28   0.052  -0.149   0.061
    1UNL     H1   29   0.085   0.496  -0.071
    1UNL     H2   30  -0.086   0.528  -0.098
    1UNL     H3   31   0.021   0.482  -0.232
    1UNL     H4   32  -0.197   0.217  -0.075
    1UNL     H5   33  -0.566   0.181   0.174
    1UNL     H6   34  -0.674   0.172   0.041
    1UNL     H7   35  -0.579   0.313   0.064
    1UNL     H8   36  -0.572  -0.024   0.134
    1UNL     H9   37  -0.464  -0.245   0.194
    1UNL    H10   38  -0.225  -0.299   0.081
    1UNL    H11   39  -0.130  -0.226  -0.187
    1UNL    H12   40  -0.028  -0.095  -0.244
    1UNL    H13   41   0.046  -0.360  -0.141
    1UNL    H14   42   0.133  -0.256  -0.249
    1UNL    H15   43   0.311  -0.281   0.118
    1UNL    H16   44   0.183  -0.402   0.057
    1UNL    H17   45   0.306  -0.376  -0.042
    1UNL    H18   46   0.210  -0.049  -0.189
    1UNL    H19   47   0.359  -0.140  -0.131
    1UNL    H20   48   0.312   0.101  -0.069
    1UNL    H21   49   0.601   0.072   0.126
    1UNL    H22   50   0.497   0.171   0.025
    1UNL    H23   51   0.479   0.145   0.208
    1UNL    H24   52   0.196   0.150   0.148
    1UNL    H25   53   0.190  -0.074   0.223
    1UNL    H26   54   0.025  -0.006   0.217
    1UNL    H27   55  -0.004  -0.231   0.114
   0.00000   0.00000   0.00000   0.00000   0.00000   0.00000   0.00000   0.00000   0.00000
Generated with MDTraj, t= 93.0
 55
    1UNL     C1    1  -0.015   0.455  -0.160
    1UNL     O1    2  -0.039   0.329  -0.110
    1UNL     C2    3   0.071   0.277  -0.043
    1UNL     O2    4   0.170   0.344  -0.023
    1UNL     C3    5   0.059   0.138   0.003
    1UNL     C4    6  -0.049   0.068  -0.033
    1UNL     N1    7  -0.174   0.109  -0.062
    1UNL     C5    8  -0.265   0.018  -0.004
    1UNL     C6    9  -0.400   0.042   0.029
    1UNL     O3   10  -0.448   0.165  -0.005
    1UNL     C7   11  -0.555   0.209   0.076
    1UNL     C8   12  -0.471  -0.065   0.091
    1UNL     C9   13  -0.403  -0.183   0.117
    1UNL    C10   14  -0.268  -0.206   0.090
    1UNL    C11   15  -0.198  -0.102   0.024
    1UNL    C12   16  -0.060  -0.086  -0.028
    1UNL    C13   17  -0.050  -0.158  -0.170
    1UNL    C14   18   0.083  -0.245  -0.172
    1UNL     N2   19   0.160  -0.203  -0.046
    1UNL    C15   20   0.237  -0.319   0.007
    1UNL    C16   21   0.255  -0.094  -0.097
    1UNL    C17   22   0.297   0.024  -0.007
    1UNL    C18   23   0.399  -0.023   0.098
    1UNL    C19   24   0.517   0.063   0.111
    1UNL     O4   25   0.383  -0.124   0.164
    1UNL    C20   26   0.175   0.073   0.078
    1UNL    C21   27   0.115  -0.052   0.158
    1UNL    C22   28   0.055  -0.149   0.053
    1UNL     H1   29  -0.037   0.446  -0.268
    1UNL     H2   30   0.085   0.497  -0.139
    1UNL     H3   31  -0.095   0.518  -0.118
    1UNL     H4   32  -0.213   0.199  -0.078
    1UNL     H5   33  -0.533   0.194   0.180
    1UNL     H6   34  -0.642   0.147   0.064
    1UNL     H7   35  -0.581   0.307   0.051
    1UNL     H8   36  -0.576  -0.054   0.118
    1UNL     H9   37  -0.461  -0.264   0.151
    1UNL    H10   38  -0.205  -0.286   0.125
    1UNL    H11   39  -0.138  -0.210  -0.199
    1UNL    H12   40  -0.036  -0.080  -0.243
    1UNL    H13   41   0.074  -0.353  -0.173
    1UNL    H14   42   0.136  -0.221  -0.264
    1UNL    H15   43   0.283  -0.290   0.100
    1UNL    H16   44   0.178  -0.412   0.013
    1UNL    H17   45   0.310  -0.353  -0.067
    1UNL    H18   46   0.221  -0.047  -0.189
    1UNL    H19   47   0.350  -0.153  -0.120
    1UNL    H20   48   0.342   0.100  -0.066
    1UNL    H21   49   0.575   0.042   0.025
    1UNL    H22   50   0.486   0.166   0.092
    1UNL    H23   51   0.585   0.051   0.204
    1UNL    H24   52   0.211   0.149   0.150
    1UNL    H25   53   0.200  -0.100   0.205
    1UNL    H26   54   0.045  -0.019   0.234
    1UNL    H27   55   0.013  -0.244   0.096
   0.00000   0.00000   0.00000   0.00000   0.00000   0.00000   0.00000   0.00000   0.00000
Generated with MDTraj, t= 94.0
 55
    1UNL     C1    1  -0.006   0.475  -0.145
    1UNL     O1    2  -0.029   0.337  -0.131
    1UNL     C2    3   0.071   0.276  -0.052
    1UNL     O2    4   0.164   0.342  -0.012
    1UNL     C3    5   0.060   0.131  -0.015
    1UNL     C4    6  -0.047   0.063  -0.066
    1UNL     N1    7  -0.177   0.118  -0.061
    1UNL     C5    8  -0.268   0.021  -0.005
    1UNL     C6    9  -0.407   0.035   0.027
    1UNL     O3   10  -0.464   0.157  -0.001
    1UNL     C7   11  -0.566   0.200   0.091
    1UNL     C8   12  -0.464  -0.073   0.089
    1UNL     C9   13  -0.399  -0.192   0.121
    1UNL    C10   14  -0.267  -0.202   0.074
    1UNL    C11   15  -0.201  -0.094   0.018
    1UNL    C12   16  -0.061  -0.085  -0.038
    1UNL    C13   17  -0.049  -0.165  -0.169
    1UNL    C14   18   0.075  -0.257  -0.159
    1UNL     N2   19   0.160  -0.198  -0.045
    1UNL    C15   20   0.245  -0.302   0.033
    1UNL    C16   21   0.253  -0.086  -0.106
    1UNL    C17   22   0.292   0.019   0.002
    1UNL    C18   23   0.409  -0.026   0.099
    1UNL    C19   24   0.545   0.030   0.095
    1UNL     O4   25   0.388  -0.107   0.187
    1UNL    C20   26   0.166   0.071   0.075
    1UNL    C21   27   0.105  -0.044   0.152
    1UNL    C22   28   0.048  -0.144   0.057
    1UNL     H1   29  -0.062   0.524  -0.061
    1UNL     H2   30  -0.036   0.516  -0.242
    1UNL     H3   31   0.102   0.493  -0.129
    1UNL     H4   32  -0.191   0.207  -0.029
    1UNL     H5   33  -0.594   0.124   0.164
    1UNL     H6   34  -0.653   0.214   0.028
    1UNL     H7   35  -0.556   0.299   0.131
    1UNL     H8   36  -0.568  -0.057   0.110
    1UNL     H9   37  -0.455  -0.282   0.149
    1UNL    H10   38  -0.215  -0.296   0.092
    1UNL    H11   39  -0.139  -0.221  -0.182
    1UNL    H12   40  -0.043  -0.106  -0.259
    1UNL    H13   41   0.051  -0.358  -0.139
    1UNL    H14   42   0.146  -0.262  -0.244
    1UNL    H15   43   0.309  -0.255   0.096
    1UNL    H16   44   0.191  -0.388   0.083
    1UNL    H17   45   0.299  -0.358  -0.045
    1UNL    H18   46   0.199  -0.040  -0.187
    1UNL    H19   47   0.339  -0.142  -0.155
    1UNL    H20   48   0.338   0.099  -0.047
    1UNL    H21   49   0.563   0.089   0.007
    1UNL    H22   50   0.565   0.089   0.180
    1UNL    H23   51   0.620  -0.061   0.107
    1UNL    H24   52   0.192   0.146   0.150
    1UNL    H25   53   0.188  -0.087   0.207
    1UNL    H26   54   0.027   0.002   0.209
    1UNL    H27   55  -0.003  -0.227   0.111
   0.00000   0.00000   0.00000   0.00000   0.00000   0.00000   0.00000   0.00000   0.00000
Generated with MDTraj, t= 95.0
 55
    1UNL     C1    1  -0.002   0.476  -0.130
    1UNL     O1    2  -0.029   0.343  -0.112
    1UNL     C2    3   0.070   0.277  -0.045
    1UNL     O2    4   0.166   0.333   0.002
    1UNL     C3    5   0.062   0.130  -0.019
    1UNL     C4    6  -0.051   0.065  -0.047
    1UNL     N1    7  -0.176   0.117  -0.060
    1UNL     C5    8  -0.268   0.022  -0.021
    1UNL     C6    9  -0.400   0.040   0.022
    1UNL     O3   10  -0.452   0.173   0.011
    1UNL     C7   11  -0.563   0.185   0.092
    1UNL     C8   12  -0.464  -0.068   0.078
    1UNL     C9   13  -0.402  -0.190   0.091
    1UNL    C10   14  -0.269  -0.210   0.060
    1UNL    C11   15  -0.209  -0.104  -0.003
    1UNL    C12   16  -0.060  -0.087  -0.039
    1UNL    C13   17  -0.029  -0.162  -0.169
    1UNL    C14   18   0.071  -0.269  -0.140
    1UNL     N2   19   0.156  -0.211  -0.026
    1UNL    C15   20   0.236  -0.316   0.057
    1UNL    C16   21   0.253  -0.106  -0.091
    1UNL    C17   22   0.290   0.019  -0.012
    1UNL    C18   23   0.408  -0.008   0.087
    1UNL    C19   24   0.546   0.032   0.040
    1UNL     O4   25   0.385  -0.063   0.190
    1UNL    C20   26   0.169   0.074   0.071
    1UNL    C21   27   0.099  -0.045   0.157
    1UNL    C22   28   0.041  -0.148   0.064
    1UNL     H1   29   0.106   0.485  -0.158
    1UNL     H2   30  -0.018   0.528  -0.036
    1UNL     H3   31  -0.065   0.516  -0.210
    1UNL     H4   32  -0.200   0.211  -0.084
    1UNL     H5   33  -0.538   0.173   0.201
    1UNL     H6   34  -0.642   0.116   0.062
    1UNL     H7   35  -0.615   0.278   0.064
    1UNL     H8   36  -0.568  -0.055   0.093
    1UNL     H9   37  -0.462  -0.273   0.128
    1UNL    H10   38  -0.234  -0.310   0.068
    1UNL    H11   39  -0.117  -0.206  -0.212
    1UNL    H12   40   0.010  -0.097  -0.245
    1UNL    H13   41   0.037  -0.352  -0.087
    1UNL    H14   42   0.134  -0.297  -0.227
    1UNL    H15   43   0.296  -0.261   0.134
    1UNL    H16   44   0.159  -0.372   0.113
    1UNL    H17   45   0.288  -0.394   0.006
    1UNL    H18   46   0.202  -0.084  -0.183
    1UNL    H19   47   0.342  -0.165  -0.121
    1UNL    H20   48   0.325   0.091  -0.081
    1UNL    H21   49   0.562   0.143   0.044
    1UNL    H22   50   0.618  -0.008   0.106
    1UNL    H23   51   0.582  -0.021  -0.056
    1UNL    H24   52   0.195   0.154   0.137
    1UNL    H25   53   0.180  -0.091   0.208
    1UNL    H26   54   0.021  -0.001   0.215
    1UNL    H27   55  -0.016  -0.230   0.114
   0.00000   0.00000   0.00000   0.00000   0.00000   0.00000   0.00000   0.00000   0.00000
Generated with MDTraj, t= 96.0
 55
    1UNL     C1    1  -0.025   0.477  -0.112
    1UNL     O1    2  -0.044   0.340  -0.094
    1UNL     C2    3   0.069   0.276  -0.036
    1UNL     O2    4   0.170   0.335   0.000
    1UNL     C3    5   0.065   0.129  -0.024
    1UNL     C4    6  -0.046   0.060  -0.054
    1UNL     N1    7  -0.167   0.115  -0.052
    1UNL     C5    8  -0.264   0.023  -0.011
    1UNL     C6    9  -0.401   0.049   0.017
    1UNL     O3   10  -0.445   0.173   0.001
    1UNL     C7   11  -0.566   0.189   0.072
    1UNL     C8   12  -0.473  -0.062   0.052
    1UNL     C9   13  -0.416  -0.186   0.068
    1UNL    C10   14  -0.281  -0.213   0.047
    1UNL    C11   15  -0.201  -0.108   0.016
    1UNL    C12   16  -0.057  -0.092  -0.028
    1UNL    C13   17  -0.036  -0.175  -0.158
    1UNL    C14   18   0.079  -0.276  -0.128
    1UNL     N2   19   0.156  -0.211  -0.008
    1UNL    C15   20   0.224  -0.322   0.069
    1UNL    C16   21   0.258  -0.113  -0.084
    1UNL    C17   22   0.288   0.019  -0.015
    1UNL    C18   23   0.413  -0.005   0.071
    1UNL    C19   24   0.554   0.031   0.016
    1UNL     O4   25   0.401  -0.061   0.175
    1UNL    C20   26   0.169   0.076   0.068
    1UNL    C21   27   0.105  -0.033   0.160
    1UNL    C22   28   0.047  -0.138   0.074
    1UNL     H1   29  -0.112   0.521  -0.162
    1UNL     H2   30   0.060   0.487  -0.176
    1UNL     H3   31  -0.014   0.526  -0.016
    1UNL     H4   32  -0.177   0.219  -0.029
    1UNL     H5   33  -0.559   0.133   0.171
    1UNL     H6   34  -0.661   0.160   0.023
    1UNL     H7   35  -0.581   0.301   0.090
    1UNL     H8   36  -0.575  -0.052   0.091
    1UNL     H9   37  -0.478  -0.266   0.098
    1UNL    H10   38  -0.237  -0.315   0.038
    1UNL    H11   39  -0.124  -0.222  -0.196
    1UNL    H12   40  -0.006  -0.108  -0.235
    1UNL    H13   41   0.045  -0.371  -0.100
    1UNL    H14   42   0.152  -0.284  -0.212
    1UNL    H15   43   0.264  -0.277   0.170
    1UNL    H16   44   0.169  -0.411   0.085
    1UNL    H17   45   0.304  -0.358   0.010
    1UNL    H18   46   0.216  -0.090  -0.181
    1UNL    H19   47   0.349  -0.172  -0.094
    1UNL    H20   48   0.314   0.092  -0.087
    1UNL    H21   49   0.618   0.077   0.100
    1UNL    H22   50   0.601  -0.052  -0.034
    1UNL    H23   51   0.540   0.097  -0.069
    1UNL    H24   52   0.201   0.160   0.126
    1UNL    H25   53   0.185  -0.065   0.221
    1UNL    H26   54   0.021   0.003   0.215
    1UNL    H27   55   0.004  -0.223   0.133
   0.00000   0.00000   0.00000   0.00000   0.00000   0.00000   0.00000   0.00000   0.00000
Generated with MDTraj, t= 97.0
 55
    1UNL     C1    1  -0.049   0.478  -0.084
    1UNL     O1    2  -0.042   0.340  -0.087
    1UNL     C2    3   0.079   0.280  -0.039
    1UNL     O2    4   0.183   0.336  -0.014
    1UNL     C3    5   0.076   0.132  -0.020
    1UNL     C4    6  -0.039   0.060  -0.048
    1UNL     N1    7  -0.170   0.113  -0.049
    1UNL     C5    8  -0.263   0.026   0.001
    1UNL     C6    9  -0.406   0.041   0.011
    1UNL     O3   10  -0.456   0.167  -0.026
    1UNL     C7   11  -0.582   0.191   0.039
    1UNL     C8   12  -0.477  -0.070   0.052
    1UNL     C9   13  -0.418  -0.192   0.072
    1UNL    C10   14  -0.283  -0.205   0.058
    1UNL    C11   15  -0.209  -0.095   0.019
    1UNL    C12   16  -0.058  -0.086  -0.019
    1UNL    C13   17  -0.049  -0.173  -0.145
    1UNL    C14   18   0.065  -0.275  -0.113
    1UNL     N2   19   0.156  -0.207  -0.011
    1UNL    C15   20   0.247  -0.317   0.055
    1UNL    C16   21   0.247  -0.116  -0.092
    1UNL    C17   22   0.292   0.010  -0.014
    1UNL    C18   23   0.419  -0.015   0.063
    1UNL    C19   24   0.554   0.039   0.031
    1UNL     O4   25   0.413  -0.090   0.160
    1UNL    C20   26   0.183   0.078   0.066
    1UNL    C21   27   0.118  -0.022   0.165
    1UNL    C22   28   0.051  -0.132   0.081
    1UNL     H1   29  -0.083   0.513   0.015
    1UNL     H2   30  -0.118   0.504  -0.161
    1UNL     H3   31   0.049   0.518  -0.101
    1UNL     H4   32  -0.195   0.220  -0.036
    1UNL     H5   33  -0.565   0.169   0.148
    1UNL     H6   34  -0.675   0.144   0.004
    1UNL     H7   35  -0.607   0.305   0.030
    1UNL     H8   36  -0.582  -0.062   0.070
    1UNL     H9   37  -0.477  -0.271   0.124
    1UNL    H10   38  -0.232  -0.296   0.072
    1UNL    H11   39  -0.142  -0.212  -0.183
    1UNL    H12   40  -0.014  -0.114  -0.225
    1UNL    H13   41   0.022  -0.366  -0.078
    1UNL    H14   42   0.127  -0.302  -0.200
    1UNL    H15   43   0.341  -0.267   0.091
    1UNL    H16   44   0.203  -0.363   0.141
    1UNL    H17   45   0.267  -0.402  -0.009
    1UNL    H18   46   0.201  -0.078  -0.185
    1UNL    H19   47   0.336  -0.174  -0.104
    1UNL    H20   48   0.323   0.078  -0.091
    1UNL    H21   49   0.640  -0.034   0.060
    1UNL    H22   50   0.544   0.059  -0.078
    1UNL    H23   51   0.571   0.125   0.087
    1UNL    H24   52   0.228   0.161   0.112
    1UNL    H25   53   0.190  -0.069   0.225
    1UNL    H26   54   0.054   0.034   0.228
    1UNL    H27   55   0.001  -0.208   0.143
   0.00000   0.00000   0.00000   0.00000   0.00000   0.00000   0.00000   0.00000   0.00000
Generated with MDTraj, t= 98.0
 55
    1UNL     C1    1  -0.027   0.495  -0.090
    1UNL     O1    2  -0.037   0.359  -0.069
    1UNL     C2    3   0.080   0.287  -0.031
    1UNL     O2    4   0.189   0.336  -0.009
    1UNL     C3    5   0.068   0.139  -0.018
    1UNL     C4    6  -0.046   0.070  -0.038
    1UNL     N1    7  -0.178   0.110  -0.072
    1UNL     C5    8  -0.274   0.016  -0.013
    1UNL     C6    9  -0.407   0.034   0.008
    1UNL     O3   10  -0.455   0.158  -0.021
    1UNL     C7   11  -0.591   0.170  -0.015
    1UNL     C8   12  -0.475  -0.071   0.067
    1UNL     C9   13  -0.403  -0.179   0.119
    1UNL    C10   14  -0.269  -0.197   0.109
    1UNL    C11   15  -0.203  -0.096   0.035
    1UNL    C12   16  -0.060  -0.081  -0.018
    1UNL    C13   17  -0.045  -0.163  -0.152
    1UNL    C14   18   0.064  -0.269  -0.132
    1UNL     N2   19   0.149  -0.213  -0.019
    1UNL    C15   20   0.236  -0.321   0.047
    1UNL    C16   21   0.252  -0.124  -0.096
    1UNL    C17   22   0.297   0.012  -0.019
    1UNL    C18   23   0.421  -0.021   0.068
    1UNL    C19   24   0.544   0.062   0.051
    1UNL     O4   25   0.408  -0.116   0.144
    1UNL    C20   26   0.182   0.076   0.062
    1UNL    C21   27   0.115  -0.030   0.157
    1UNL    C22   28   0.050  -0.139   0.074
    1UNL     H1   29   0.068   0.535  -0.045
    1UNL     H2   30  -0.115   0.537  -0.044
    1UNL     H3   31  -0.025   0.517  -0.197
    1UNL     H4   32  -0.196   0.216  -0.084
    1UNL     H5   33  -0.616   0.185   0.093
    1UNL     H6   34  -0.653   0.097  -0.064
    1UNL     H7   35  -0.622   0.268  -0.069
    1UNL     H8   36  -0.583  -0.056   0.081
    1UNL     H9   37  -0.458  -0.255   0.163
    1UNL    H10   38  -0.218  -0.281   0.162
    1UNL    H11   39  -0.135  -0.217  -0.171
    1UNL    H12   40  -0.029  -0.111  -0.243
    1UNL    H13   41   0.015  -0.360  -0.099
    1UNL    H14   42   0.115  -0.294  -0.223
    1UNL    H15   43   0.266  -0.286   0.138
    1UNL    H16   44   0.175  -0.411   0.062
    1UNL    H17   45   0.322  -0.357  -0.014
    1UNL    H18   46   0.199  -0.092  -0.187
    1UNL    H19   47   0.345  -0.172  -0.107
    1UNL    H20   48   0.332   0.077  -0.096
    1UNL    H21   49   0.604   0.042  -0.043
    1UNL    H22   50   0.501   0.169   0.048
    1UNL    H23   51   0.611   0.035   0.127
    1UNL    H24   52   0.229   0.148   0.121
    1UNL    H25   53   0.190  -0.072   0.216
    1UNL    H26   54   0.052   0.012   0.231
    1UNL    H27   55  -0.008  -0.208   0.137
   0.00000   0.00000   0.00000   0.00000   0.00000   0.00000   0.00000   0.00000   0.00000
Generated with MDTraj, t= 99.0
 55
    1UNL     C1    1  -0.020   0.481  -0.093
    1UNL     O1    2  -0.023   0.340  -0.077
    1UNL     C2    3   0.092   0.276  -0.029
    1UNL     O2    4   0.195   0.335  -0.010
    1UNL     C3    5   0.067   0.135  -0.010
    1UNL     C4    6  -0.045   0.067  -0.047
    1UNL     N1    7  -0.172   0.123  -0.058
    1UNL     C5    8  -0.269   0.031  -0.005
    1UNL     C6    9  -0.405   0.049   0.027
    1UNL     O3   10  -0.466   0.158  -0.035
    1UNL     C7   11  -0.604   0.135  -0.059
    1UNL     C8   12  -0.466  -0.041   0.118
    1UNL     C9   13  -0.402  -0.157   0.150
    1UNL    C10   14  -0.274  -0.184   0.102
    1UNL    C11   15  -0.200  -0.086   0.032
    1UNL    C12   16  -0.063  -0.086  -0.020
    1UNL    C13   17  -0.059  -0.166  -0.150
    1UNL    C14   18   0.065  -0.265  -0.147
    1UNL     N2   19   0.158  -0.216  -0.036
    1UNL    C15   20   0.246  -0.322   0.039
    1UNL    C16   21   0.252  -0.113  -0.108
    1UNL    C17   22   0.287   0.012  -0.019
    1UNL    C18   23   0.410  -0.015   0.070
    1UNL    C19   24   0.521   0.083   0.079
    1UNL     O4   25   0.423  -0.111   0.135
    1UNL    C20   26   0.174   0.061   0.072
    1UNL    C21   27   0.112  -0.055   0.154
    1UNL    C22   28   0.048  -0.154   0.064
    1UNL     H1   29   0.089   0.513  -0.088
    1UNL     H2   30  -0.081   0.522  -0.013
    1UNL     H3   31  -0.061   0.510  -0.191
    1UNL     H4   32  -0.167   0.217  -0.023
    1UNL     H5   33  -0.654   0.129   0.037
    1UNL     H6   34  -0.613   0.044  -0.110
    1UNL     H7   35  -0.663   0.203  -0.130
    1UNL     H8   36  -0.568  -0.029   0.149
    1UNL     H9   37  -0.467  -0.238   0.196
    1UNL    H10   38  -0.225  -0.275   0.128
    1UNL    H11   39  -0.148  -0.216  -0.180
    1UNL    H12   40  -0.043  -0.097  -0.230
    1UNL    H13   41   0.029  -0.368  -0.130
    1UNL    H14   42   0.110  -0.267  -0.241
    1UNL    H15   43   0.319  -0.271   0.097
    1UNL    H16   44   0.182  -0.378   0.105
    1UNL    H17   45   0.291  -0.396  -0.030
    1UNL    H18   46   0.201  -0.067  -0.193
    1UNL    H19   47   0.338  -0.168  -0.129
    1UNL    H20   48   0.304   0.089  -0.092
    1UNL    H21   49   0.519   0.182   0.034
    1UNL    H22   50   0.513   0.114   0.192
    1UNL    H23   51   0.612   0.037   0.051
    1UNL    H24   52   0.212   0.133   0.136
    1UNL    H25   53   0.191  -0.104   0.205
    1UNL    H26   54   0.056  -0.024   0.238
    1UNL    H27   55   0.006  -0.238   0.122
   0.00000   0.00000   0.00000   0.00000   0.00000   0.00000   0.00000   0.00000   0.00000
