[ moleculetype ]
; name        nrexcl
res           1

[ atoms ]
;    nr  type  resnr resid  atom  cgnr     charge       mass
      1 N4a       1 res   C1        1      0.000     72.000
      2 TC3       1 res   C2        2      0.000     36.000
      3 TC5       1 res   C3        3      0.000     36.000
      4 TN6d      1 res   C4        4      0.000     36.000
      5 TC5       1 res   C5        5      0.000     36.000
      6 TC5       1 res   C6        6      0.000     36.000
      7 TN2a      1 res   C7        7      0.000     36.000
      8 TC5       1 res   C8        8      0.000     36.000
      9 TC3       1 res   C9        9      0.000     36.000
     10 TN1       1 res   C10      10      0.000     36.000
     11 TC3       1 res   C11      11      0.000     36.000
     12 SN4a      1 res   C12      12      0.000     54.000
     13 TC3       1 res   C13      13      0.000     36.000

[ constraints ]
;  ai    aj   funct      b0(nm)
    1     2     1      0.36211
    2    13     1      0.24858
    3     5     1      0.19104
    2     3     1      0.26443
   10    11     1      0.30650
    4     5     1      0.21938
   10    13     1      0.28977
    6     8     1      0.25768
    3     4     1      0.21993
    5     6     1      0.25630
    9    10     1      0.32458
    3    13     1      0.25188
    2    11     1      0.26685
    6     7     1      0.24235
    5     8     1      0.24793
    3     9     1      0.26742

[ bonds ]
;  ai    aj   funct      b0(nm)          k(kJ/mol/nm^2)
   11    12     1      0.30266          12612.1

[ angles ]
;  ai    aj    ak  funct     th0(deg)        k(kJ/mol/rad^2)
    1     2     3     1     89.35479           994.89
    1     2    11     1    115.82527           259.28
    1     2    13     1    141.78521           718.77
    2     3     4     1     95.35378           959.97
    2     3     5     1    136.01932           361.23
    2     3     9     1    117.06534          1020.16
    2     3    13     1     57.49423          5410.19
    2    11    10     1    100.31344          1344.41
    2    11    12     1     79.12595           116.21
    2    13     3     1     63.79301          3908.29
    2    13    10     1    109.76463           872.46
    3     2    11     1     79.70628          1592.31
    3     2    13     1     58.71270          4867.05
    3     4     5     1     51.55735          4930.57
    3     5     4     1     64.37136          3948.57
    3     5     6     1    167.06317           931.11
    3     5     8     1    128.42353          1731.86
    3     9    10     1     89.53273          2712.91
    3    13    10     1    101.11568           957.10
    4     3     5     1     64.07121          4007.87
    4     3     9     1    136.64244           312.76
    4     3    13     1    130.97453           333.38
    4     5     6     1    104.59397          1663.42
    4     5     8     1    164.00660           689.54
    5     3     9     1    102.52283          1103.95
    5     3    13     1    105.77621           669.92
    5     6     7     1    113.25643           760.75
    5     6     8     1     57.68275          6835.34
    5     8     6     1     60.87654          8952.05
    6     5     8     1     61.44073          6417.18
    7     6     8     1    166.98181           273.31
    9     3    13     1     91.71592          1683.90
    9    10    11     1     65.88641          1310.47
    9    10    13     1     74.45073          2661.08
   10    11    12     1     94.01548           135.69
   11     2    13     1     80.56963          2156.83
   11    10    13     1     67.94702          2696.62

[ dihedrals ]
;  ai    aj    ak    al  funct   phi0(deg)        k(kJ/mol)   mult
    1     2     3     4     1    157.05722       11.435      1
    1     2     3     5     1    100.96461       11.445      1
    1     2     3     9     1    -52.03450       10.715      1
    1     2     3    13     1     20.09561        9.312      1
    1     2    11    10     1     27.04583        8.586      1
    1     2    11    12     1    -66.10117       14.203      1
    1     2    13     3     1   -146.08754       13.617      1
    1     2    13    10     1    -54.69233       15.675      1
    2     3     4     5     1     39.83601        9.304      1
    2     3     5     4     1   -113.00683       10.002      1
    2     3     5     6     1   -120.58686       29.978      1
    2     3     5     8     1     77.74932       16.492      1
    2     3     9    10     1   -137.13272        9.994      1
    2     3    13    10     1     72.98680        7.038      1
    2    11    10     9     1    -89.99759        6.273      1
    2    11    10    13     1   -172.96970        5.587      1
    2    13     3     4     1    114.92295        7.071      1
    2    13     3     5     1     44.07913        9.284      1
    2    13     3     9     1    -58.03875        6.327      1
    2    13    10     9     1    102.96696        8.503      1
    2    13    10    11     1    171.96979        6.334      1
    3     2    11    10     1    111.99630        6.345      1
    3     2    11    12     1     19.60107       13.531      1
    3     2    13    10     1    -87.94571        6.327      1
    3     4     5     6     1     -0.15911       13.579      1
    3     4     5     8     1    -16.36018       28.402      1
    3     5     6     7     1   -167.49469       31.712      1
    3     5     6     8     1     12.54007       31.587      1
    3     5     8     6     1     -3.64049       14.988      1
    3     9    10    11     1    118.05697        7.826      1
    3     9    10    13     1   -169.00550        8.514      1
    3    13     2    11     1     95.07128        5.565      1
    3    13    10     9     1    167.23554        8.514      1
    3    13    10    11     1   -122.05711        6.325      1
    4     3     2    11     1     41.80226       10.720      1
    4     3     2    13     1    -43.20200        9.989      1
    4     3     5     6     1    175.03666       31.122      1
    4     3     5     8     1      7.89484       14.996      1
    4     3     9    10     1     -3.09977       10.038      1
    4     3    13    10     1      6.26504        9.274      1
    4     5     3     9     1     43.98967       10.796      1
    4     5     3    13     1    -51.06588       10.045      1
    4     5     6     7     1   -173.27204       20.898      1
    4     5     6     8     1      5.91007       12.226      1
    4     5     8     6     1   -163.26084       27.781      1
    5     3     2    11     1    -16.17368        9.269      1
    5     3     2    13     1   -101.19559        8.528      1
    5     3     9    10     1     60.05740        7.822      1
    5     3    13    10     1    -62.00719       10.730      1
    5     4     3     9     1    -99.85969       10.760      1
    5     4     3    13     1     90.05543        9.272      1
    5     8     6     7     1    178.44025       27.581      1
    6     5     3     9     1     36.69037       26.094      1
    6     5     3    13     1    -59.28732       29.248      1
    7     6     5     8     1      0.67556       17.720      1
    8     5     3     9     1   -128.17382       19.131      1
    8     5     3    13     1    137.65936       17.795      1
    9     3     2    11     1   -168.00695        9.222      1
    9     3     2    13     1    106.99254        5.570      1
    9     3    13    10     1   -165.84945        9.280      1
    9    10    11    12     1    -10.12478       13.665      1
   10     9     3    13     1    167.97260        9.260      1
   10    11     2    13     1    171.98577        6.328      1
   10    13     2    11     1   -170.99574        7.078      1
   11     2     3    13     1    -95.92922        6.264      1
   12    11     2    13     1     78.40538       12.886      1
   12    11    10    13     1    -92.94929       13.004      1
