1TPCN00243
13
    1res  C1    1   -0.067   0.252   0.339
    1res  C2    2   -0.164   0.118  -0.008
    1res  C3    3    0.052  -0.030   0.004
    1res  C4    4    0.172   0.124   0.127
    1res  C5    5    0.229   0.001  -0.051
    1res  C6    6    0.471   0.075  -0.100
    1res  C7    7    0.561   0.241   0.067
    1res  C8    8    0.346  -0.096  -0.250
    1res  C9    9    0.025  -0.294  -0.016
    1res  C10   10   -0.211  -0.251  -0.226
    1res  C11   11   -0.275  -0.125  -0.002
    1res  C12   12   -0.477   0.048   0.121
    1res  C13   13   -0.080   0.002  -0.208
  10.00000  10.00000  10.00000
