1TPCN04392
35
    1res  C1    1   -0.611  -0.220  -0.116
    1res  C2    2   -0.410   0.001  -0.158
    1res  C3    3   -0.219  -0.087  -0.087
    1res  C4    4   -0.036  -0.175   0.060
    1res  C5    5    0.053  -0.333  -0.127
    1res  C6    6    0.328  -0.371  -0.256
    1res  C7    7    0.401  -0.278   0.030
    1res  C8    8    0.533  -0.192  -0.330
    1res  C9    9    0.730  -0.154  -0.099
    1res  C10   10    0.978  -0.168   0.025
    1res  C11   11    0.851   0.093  -0.040
    1res  C12   12    0.732   0.095  -0.323
    1res  C13   13    0.447   0.064  -0.181
    1res  C14   14    0.521   0.294   0.121
    1res  C15   15    0.533   0.522   0.130
    1res  C16   16    0.434   0.305   0.407
    1res  C17   17    0.307   0.147   0.332
    1res  C18   18    0.237   0.187   0.105
    1res  C19   19    0.152  -0.222  -0.400
    1res  C20   20   -0.184  -0.102  -0.340
    1res  C21   21   -0.237  -0.381  -0.232
    1res  C22   22   -0.494   0.066   0.081
    1res  C23   23   -0.417   0.257   0.068
    1res  C24   24   -0.639   0.381   0.072
    1res  C25   25   -0.693   0.582   0.177
    1res  C26   26   -0.640   0.473  -0.147
    1res  C27   27   -0.416   0.576  -0.123
    1res  C28   28   -0.288   0.465   0.053
    1res  C29   29   -0.633  -0.068   0.236
    1res  C30   30   -0.787  -0.263   0.329
    1res  C31   31   -0.992  -0.190   0.239
    1res  C32   32   -0.836  -0.101   0.532
    1res  C33   33   -0.626  -0.215   0.581
    1res  C34   34   -0.498  -0.122   0.398
    1res  C35   35   -0.739   0.031  -0.058
  10.00000  10.00000  10.00000
