Generated with MDTraj, t= 0.0
 56
    1UNL     C1    1   0.662  -0.057   0.129
    1UNL     C2    2   0.641  -0.175   0.075
    1UNL     C3    3   0.543  -0.198  -0.039
    1UNL     C4    4   0.554  -0.344  -0.087
    1UNL     O1    5   0.576  -0.112  -0.150
    1UNL     C5    6   0.399  -0.168   0.008
    1UNL     C6    7   0.295  -0.179  -0.103
    1UNL     C7    8   0.162  -0.129  -0.061
    1UNL     C8    9   0.120  -0.004  -0.079
    1UNL     C9   10   0.202   0.099  -0.147
    1UNL    C10   11  -0.015   0.037  -0.027
    1UNL     O2   12  -0.059   0.160  -0.081
    1UNL    C11   13  -0.187   0.193  -0.028
    1UNL     O3   14  -0.271   0.079  -0.011
    1UNL    C12   15  -0.391   0.106   0.065
    1UNL    C13   16  -0.494  -0.002   0.033
    1UNL     O4   17  -0.450  -0.130   0.067
    1UNL    C14   18  -0.441  -0.144   0.202
    1UNL    C15   19  -0.393  -0.276   0.252
    1UNL     O5   20  -0.470  -0.058   0.282
    1UNL    C16   21  -0.447   0.250   0.039
    1UNL     O6   22  -0.393   0.341   0.133
    1UNL    C17   23  -0.412   0.293  -0.106
    1UNL     O7   24  -0.469   0.203  -0.201
    1UNL    C18   25  -0.256   0.302  -0.116
    1UNL     O8   26  -0.213   0.430  -0.077
    1UNL     H1   27   0.610   0.030   0.094
    1UNL     H2   28   0.732  -0.044   0.209
    1UNL     H3   29   0.694  -0.261   0.112
    1UNL     H4   30   0.657  -0.366  -0.116
    1UNL     H5   31   0.491  -0.361  -0.173
    1UNL     H6   32   0.525  -0.414  -0.008
    1UNL     H7   33   0.575  -0.019  -0.121
    1UNL     H8   34   0.397  -0.066   0.049
    1UNL     H9   35   0.373  -0.233   0.092
    1UNL    H10   36   0.330  -0.125  -0.191
    1UNL    H11   37   0.287  -0.284  -0.136
    1UNL    H12   38   0.097  -0.197  -0.008
    1UNL    H13   39   0.298   0.112  -0.097
    1UNL    H14   40   0.220   0.072  -0.251
    1UNL    H15   41   0.151   0.195  -0.146
    1UNL    H16   42  -0.090  -0.038  -0.053
    1UNL    H17   43  -0.012   0.046   0.082
    1UNL    H18   44  -0.169   0.234   0.072
    1UNL    H19   45  -0.362   0.099   0.171
    1UNL    H20   46  -0.589   0.016   0.086
    1UNL    H21   47  -0.514  -0.002  -0.075
    1UNL    H22   48  -0.372  -0.343   0.168
    1UNL    H23   49  -0.468  -0.323   0.315
    1UNL    H24   50  -0.302  -0.264   0.310
    1UNL    H25   51  -0.556   0.247   0.051
    1UNL    H26   52  -0.443   0.426   0.131
    1UNL    H27   53  -0.454   0.392  -0.125
    1UNL    H28   54  -0.433   0.222  -0.290
    1UNL    H29   55  -0.224   0.287  -0.220
    1UNL    H30   56  -0.240   0.444   0.017
   0.00000   0.00000   0.00000   0.00000   0.00000   0.00000   0.00000   0.00000   0.00000
Generated with MDTraj, t= 1.0
 56
    1UNL     C1    1   0.704  -0.094   0.113
    1UNL     C2    2   0.666  -0.204   0.057
    1UNL     C3    3   0.552  -0.193  -0.048
    1UNL     C4    4   0.536  -0.314  -0.143
    1UNL     O1    5   0.587  -0.077  -0.125
    1UNL     C5    6   0.413  -0.163   0.029
    1UNL     C6    7   0.294  -0.182  -0.067
    1UNL     C7    8   0.162  -0.130  -0.018
    1UNL     C8    9   0.115  -0.011  -0.046
    1UNL     C9   10   0.182   0.094  -0.135
    1UNL    C10   11  -0.022   0.030  -0.004
    1UNL     O2   12  -0.060   0.160  -0.053
    1UNL    C11   13  -0.198   0.189  -0.022
    1UNL     O3   14  -0.279   0.078  -0.005
    1UNL    C12   15  -0.403   0.105   0.056
    1UNL    C13   16  -0.513   0.002   0.032
    1UNL     O4   17  -0.472  -0.125   0.065
    1UNL    C14   18  -0.434  -0.133   0.196
    1UNL    C15   19  -0.407  -0.281   0.232
    1UNL     O5   20  -0.422  -0.045   0.280
    1UNL    C16   21  -0.456   0.252   0.025
    1UNL     O6   22  -0.397   0.347   0.120
    1UNL    C17   23  -0.417   0.289  -0.119
    1UNL     O7   24  -0.471   0.198  -0.208
    1UNL    C18   25  -0.257   0.292  -0.123
    1UNL     O8   26  -0.213   0.428  -0.095
    1UNL     H1   27   0.644  -0.005   0.086
    1UNL     H2   28   0.797  -0.097   0.168
    1UNL     H3   29   0.730  -0.291   0.071
    1UNL     H4   30   0.643  -0.351  -0.168
    1UNL     H5   31   0.490  -0.283  -0.228
    1UNL     H6   32   0.488  -0.386  -0.091
    1UNL     H7   33   0.648  -0.112  -0.200
    1UNL     H8   34   0.418  -0.057   0.067
    1UNL     H9   35   0.401  -0.217   0.114
    1UNL    H10   36   0.319  -0.156  -0.165
    1UNL    H11   37   0.286  -0.294  -0.077
    1UNL    H12   38   0.099  -0.188   0.050
    1UNL    H13   39   0.199   0.175  -0.067
    1UNL    H14   40   0.274   0.054  -0.179
    1UNL    H15   41   0.127   0.115  -0.230
    1UNL    H16   42  -0.094  -0.041  -0.050
    1UNL    H17   43  -0.028   0.039   0.107
    1UNL    H18   44  -0.206   0.243   0.071
    1UNL    H19   45  -0.381   0.118   0.166
    1UNL    H20   46  -0.608   0.021   0.073
    1UNL    H21   47  -0.525   0.002  -0.074
    1UNL    H22   48  -0.507  -0.327   0.251
    1UNL    H23   49  -0.357  -0.280   0.331
    1UNL    H24   50  -0.351  -0.328   0.164
    1UNL    H25   51  -0.562   0.244   0.042
    1UNL    H26   52  -0.436   0.430   0.117
    1UNL    H27   53  -0.459   0.381  -0.153
    1UNL    H28   54  -0.443   0.230  -0.302
    1UNL    H29   55  -0.213   0.255  -0.217
    1UNL    H30   56  -0.260   0.453  -0.013
   0.00000   0.00000   0.00000   0.00000   0.00000   0.00000   0.00000   0.00000   0.00000
Generated with MDTraj, t= 2.0
 56
    1UNL     C1    1   0.748  -0.118   0.087
    1UNL     C2    2   0.666  -0.215   0.046
    1UNL     C3    3   0.547  -0.194  -0.040
    1UNL     C4    4   0.544  -0.295  -0.164
    1UNL     O1    5   0.567  -0.063  -0.109
    1UNL     C5    6   0.407  -0.179   0.033
    1UNL     C6    7   0.286  -0.186  -0.061
    1UNL     C7    8   0.163  -0.118  -0.004
    1UNL     C8    9   0.121   0.005  -0.026
    1UNL     C9   10   0.186   0.095  -0.124
    1UNL    C10   11  -0.007   0.057   0.031
    1UNL     O2   12  -0.076   0.132  -0.068
    1UNL    C11   13  -0.200   0.180  -0.021
    1UNL     O3   14  -0.292   0.081   0.001
    1UNL    C12   15  -0.414   0.116   0.064
    1UNL    C13   16  -0.521   0.013   0.038
    1UNL     O4   17  -0.475  -0.124   0.070
    1UNL    C14   18  -0.434  -0.143   0.197
    1UNL    C15   19  -0.397  -0.285   0.217
    1UNL     O5   20  -0.430  -0.058   0.284
    1UNL    C16   21  -0.463   0.259   0.017
    1UNL     O6   22  -0.413   0.365   0.101
    1UNL    C17   23  -0.406   0.286  -0.128
    1UNL     O7   24  -0.467   0.192  -0.213
    1UNL    C18   25  -0.250   0.285  -0.128
    1UNL     O8   26  -0.200   0.418  -0.101
    1UNL     H1   27   0.744  -0.024   0.039
    1UNL     H2   28   0.825  -0.145   0.157
    1UNL     H3   29   0.681  -0.319   0.068
    1UNL     H4   30   0.643  -0.292  -0.210
    1UNL     H5   31   0.469  -0.271  -0.233
    1UNL     H6   32   0.530  -0.389  -0.126
    1UNL     H7   33   0.642  -0.077  -0.180
    1UNL     H8   34   0.409  -0.085   0.096
    1UNL     H9   35   0.405  -0.251   0.105
    1UNL    H10   36   0.303  -0.135  -0.147
    1UNL    H11   37   0.274  -0.292  -0.104
    1UNL    H12   38   0.108  -0.168   0.075
    1UNL    H13   39   0.115   0.169  -0.158
    1UNL    H14   40   0.257   0.163  -0.074
    1UNL    H15   41   0.263   0.047  -0.192
    1UNL    H16   42  -0.076  -0.031   0.054
    1UNL    H17   43   0.019   0.129   0.115
    1UNL    H18   44  -0.194   0.237   0.069
    1UNL    H19   45  -0.387   0.122   0.175
    1UNL    H20   46  -0.607   0.039   0.089
    1UNL    H21   47  -0.549   0.011  -0.063
    1UNL    H22   48  -0.392  -0.301   0.325
    1UNL    H23   49  -0.302  -0.312   0.170
    1UNL    H24   50  -0.475  -0.338   0.165
    1UNL    H25   51  -0.569   0.256   0.008
    1UNL    H26   52  -0.471   0.441   0.087
    1UNL    H27   53  -0.445   0.378  -0.160
    1UNL    H28   54  -0.416   0.194  -0.304
    1UNL    H29   55  -0.182   0.252  -0.210
    1UNL    H30   56  -0.224   0.457  -0.007
   0.00000   0.00000   0.00000   0.00000   0.00000   0.00000   0.00000   0.00000   0.00000
Generated with MDTraj, t= 3.0
 56
    1UNL     C1    1   0.758  -0.128   0.071
    1UNL     C2    2   0.659  -0.218   0.052
    1UNL     C3    3   0.544  -0.191  -0.050
    1UNL     C4    4   0.552  -0.298  -0.161
    1UNL     O1    5   0.540  -0.059  -0.112
    1UNL     C5    6   0.408  -0.202   0.032
    1UNL     C6    7   0.289  -0.183  -0.055
    1UNL     C7    8   0.167  -0.111   0.003
    1UNL     C8    9   0.136   0.012  -0.023
    1UNL     C9   10   0.215   0.114  -0.099
    1UNL    C10   11  -0.010   0.045   0.019
    1UNL     O2   12  -0.066   0.146  -0.064
    1UNL    C11   13  -0.194   0.183  -0.026
    1UNL     O3   14  -0.282   0.073  -0.001
    1UNL    C12   15  -0.406   0.114   0.063
    1UNL    C13   16  -0.521   0.016   0.040
    1UNL     O4   17  -0.479  -0.124   0.061
    1UNL    C14   18  -0.444  -0.139   0.193
    1UNL    C15   19  -0.369  -0.262   0.217
    1UNL     O5   20  -0.466  -0.058   0.283
    1UNL    C16   21  -0.460   0.257   0.014
    1UNL     O6   22  -0.411   0.360   0.101
    1UNL    C17   23  -0.413   0.280  -0.126
    1UNL     O7   24  -0.478   0.178  -0.210
    1UNL    C18   25  -0.258   0.293  -0.124
    1UNL     O8   26  -0.210   0.417  -0.101
    1UNL     H1   27   0.777  -0.036   0.018
    1UNL     H2   28   0.832  -0.170   0.143
    1UNL     H3   29   0.648  -0.313   0.107
    1UNL     H4   30   0.625  -0.271  -0.219
    1UNL     H5   31   0.466  -0.303  -0.225
    1UNL     H6   32   0.573  -0.398  -0.126
    1UNL     H7   33   0.615  -0.053  -0.184
    1UNL     H8   34   0.418  -0.118   0.103
    1UNL     H9   35   0.412  -0.294   0.093
    1UNL    H10   36   0.328  -0.133  -0.141
    1UNL    H11   37   0.246  -0.280  -0.098
    1UNL    H12   38   0.105  -0.167   0.070
    1UNL    H13   39   0.186   0.136  -0.199
    1UNL    H14   40   0.206   0.212  -0.051
    1UNL    H15   41   0.327   0.097  -0.099
    1UNL    H16   42  -0.073  -0.050   0.003
    1UNL    H17   43  -0.017   0.093   0.122
    1UNL    H18   44  -0.198   0.229   0.072
    1UNL    H19   45  -0.384   0.113   0.174
    1UNL    H20   46  -0.604   0.038   0.101
    1UNL    H21   47  -0.549   0.030  -0.060
    1UNL    H22   48  -0.265  -0.247   0.217
    1UNL    H23   49  -0.397  -0.334   0.142
    1UNL    H24   50  -0.416  -0.311   0.311
    1UNL    H25   51  -0.565   0.252   0.036
    1UNL    H26   52  -0.465   0.449   0.097
    1UNL    H27   53  -0.454   0.370  -0.157
    1UNL    H28   54  -0.417   0.165  -0.294
    1UNL    H29   55  -0.217   0.268  -0.225
    1UNL    H30   56  -0.252   0.440  -0.022
   0.00000   0.00000   0.00000   0.00000   0.00000   0.00000   0.00000   0.00000   0.00000
Generated with MDTraj, t= 4.0
 56
    1UNL     C1    1   0.743  -0.119   0.074
    1UNL     C2    2   0.645  -0.203   0.057
    1UNL     C3    3   0.538  -0.190  -0.045
    1UNL     C4    4   0.544  -0.316  -0.138
    1UNL     O1    5   0.546  -0.069  -0.133
    1UNL     C5    6   0.396  -0.183   0.021
    1UNL     C6    7   0.288  -0.186  -0.085
    1UNL     C7    8   0.152  -0.126  -0.038
    1UNL     C8    9   0.118  -0.000  -0.027
    1UNL     C9   10   0.211   0.119  -0.055
    1UNL    C10   11  -0.018   0.045   0.018
    1UNL     O2   12  -0.065   0.156  -0.054
    1UNL    C11   13  -0.190   0.199  -0.014
    1UNL     O3   14  -0.277   0.079   0.005
    1UNL    C12   15  -0.408   0.108   0.062
    1UNL    C13   16  -0.497  -0.007   0.027
    1UNL     O4   17  -0.435  -0.129   0.055
    1UNL    C14   18  -0.435  -0.135   0.190
    1UNL    C15   19  -0.368  -0.257   0.249
    1UNL     O5   20  -0.484  -0.054   0.266
    1UNL    C16   21  -0.460   0.247   0.021
    1UNL     O6   22  -0.391   0.344   0.107
    1UNL    C17   23  -0.413   0.283  -0.120
    1UNL     O7   24  -0.473   0.190  -0.215
    1UNL    C18   25  -0.256   0.292  -0.125
    1UNL     O8   26  -0.222   0.424  -0.113
    1UNL     H1   27   0.742  -0.033   0.010
    1UNL     H2   28   0.816  -0.151   0.140
    1UNL     H3   29   0.638  -0.285   0.126
    1UNL     H4   30   0.647  -0.364  -0.146
    1UNL     H5   31   0.506  -0.316  -0.236
    1UNL     H6   32   0.489  -0.389  -0.087
    1UNL     H7   33   0.632  -0.066  -0.184
    1UNL     H8   34   0.390  -0.087   0.073
    1UNL     H9   35   0.383  -0.276   0.094
    1UNL    H10   36   0.320  -0.116  -0.171
    1UNL    H11   37   0.300  -0.290  -0.131
    1UNL    H12   38   0.081  -0.208  -0.012
    1UNL    H13   39   0.292   0.101  -0.126
    1UNL    H14   40   0.150   0.206  -0.087
    1UNL    H15   41   0.269   0.150   0.035
    1UNL    H16   42  -0.098  -0.033  -0.005
    1UNL    H17   43  -0.007   0.073   0.128
    1UNL    H18   44  -0.200   0.250   0.082
    1UNL    H19   45  -0.381   0.104   0.171
    1UNL    H20   46  -0.593   0.008   0.074
    1UNL    H21   47  -0.501  -0.008  -0.082
    1UNL    H22   48  -0.329  -0.332   0.189
    1UNL    H23   49  -0.437  -0.301   0.322
    1UNL    H24   50  -0.289  -0.224   0.328
    1UNL    H25   51  -0.569   0.263   0.028
    1UNL    H26   52  -0.459   0.425   0.106
    1UNL    H27   53  -0.451   0.376  -0.146
    1UNL    H28   54  -0.454   0.221  -0.308
    1UNL    H29   55  -0.209   0.275  -0.225
    1UNL    H30   56  -0.269   0.458  -0.028
   0.00000   0.00000   0.00000   0.00000   0.00000   0.00000   0.00000   0.00000   0.00000
Generated with MDTraj, t= 5.0
 56
    1UNL     C1    1   0.708  -0.090   0.090
    1UNL     C2    2   0.621  -0.185   0.067
    1UNL     C3    3   0.527  -0.199  -0.050
    1UNL     C4    4   0.532  -0.343  -0.100
    1UNL     O1    5   0.564  -0.101  -0.151
    1UNL     C5    6   0.377  -0.164  -0.006
    1UNL     C6    7   0.283  -0.169  -0.127
    1UNL     C7    8   0.145  -0.118  -0.083
    1UNL     C8    9   0.125   0.005  -0.050
    1UNL     C9   10   0.227   0.118  -0.034
    1UNL    C10   11  -0.007   0.051  -0.001
    1UNL     O2   12  -0.046   0.181  -0.042
    1UNL    C11   13  -0.184   0.212  -0.016
    1UNL     O3   14  -0.258   0.084   0.004
    1UNL    C12   15  -0.391   0.102   0.057
    1UNL    C13   16  -0.486  -0.017   0.028
    1UNL     O4   17  -0.437  -0.140   0.069
    1UNL    C14   18  -0.437  -0.143   0.206
    1UNL    C15   19  -0.384  -0.270   0.268
    1UNL     O5   20  -0.492  -0.058   0.272
    1UNL    C16   21  -0.456   0.237   0.023
    1UNL     O6   22  -0.424   0.336   0.120
    1UNL    C17   23  -0.406   0.280  -0.117
    1UNL     O7   24  -0.450   0.184  -0.221
    1UNL    C18   25  -0.258   0.297  -0.120
    1UNL     O8   26  -0.214   0.437  -0.115
    1UNL     H1   27   0.717   0.002   0.031
    1UNL     H2   28   0.756  -0.095   0.187
    1UNL     H3   29   0.620  -0.265   0.142
    1UNL     H4   30   0.648  -0.358  -0.121
    1UNL     H5   31   0.487  -0.358  -0.196
    1UNL     H6   32   0.499  -0.414  -0.029
    1UNL     H7   33   0.657  -0.116  -0.169
    1UNL     H8   34   0.390  -0.062   0.031
    1UNL     H9   35   0.350  -0.241   0.082
    1UNL    H10   36   0.346  -0.108  -0.209
    1UNL    H11   37   0.279  -0.275  -0.168
    1UNL    H12   38   0.069  -0.191  -0.068
    1UNL    H13   39   0.310   0.086  -0.100
    1UNL    H14   40   0.174   0.215  -0.053
    1UNL    H15   41   0.267   0.104   0.066
    1UNL    H16   42  -0.088  -0.020  -0.032
    1UNL    H17   43  -0.012   0.062   0.110
    1UNL    H18   44  -0.187   0.260   0.085
    1UNL    H19   45  -0.373   0.094   0.163
    1UNL    H20   46  -0.579  -0.009   0.088
    1UNL    H21   47  -0.511  -0.026  -0.082
    1UNL    H22   48  -0.457  -0.353   0.281
    1UNL    H23   49  -0.345  -0.244   0.368
    1UNL    H24   50  -0.295  -0.310   0.221
    1UNL    H25   51  -0.567   0.228   0.034
    1UNL    H26   52  -0.480   0.418   0.123
    1UNL    H27   53  -0.448   0.374  -0.136
    1UNL    H28   54  -0.438   0.210  -0.311
    1UNL    H29   55  -0.209   0.257  -0.213
    1UNL    H30   56  -0.208   0.470  -0.018
   0.00000   0.00000   0.00000   0.00000   0.00000   0.00000   0.00000   0.00000   0.00000
Generated with MDTraj, t= 6.0
 56
    1UNL     C1    1   0.638  -0.055   0.100
    1UNL     C2    2   0.606  -0.183   0.074
    1UNL     C3    3   0.534  -0.224  -0.048
    1UNL     C4    4   0.540  -0.372  -0.079
    1UNL     O1    5   0.580  -0.146  -0.167
    1UNL     C5    6   0.384  -0.180  -0.022
    1UNL     C6    7   0.305  -0.139  -0.144
    1UNL     C7    8   0.170  -0.089  -0.098
    1UNL     C8    9   0.134   0.032  -0.066
    1UNL     C9   10   0.228   0.143  -0.048
    1UNL    C10   11  -0.007   0.060  -0.030
    1UNL     O2   12  -0.047   0.193  -0.036
    1UNL    C11   13  -0.185   0.207  -0.008
    1UNL     O3   14  -0.256   0.084   0.013
    1UNL    C12   15  -0.385   0.108   0.070
    1UNL    C13   16  -0.472  -0.017   0.031
    1UNL     O4   17  -0.423  -0.143   0.080
    1UNL    C14   18  -0.442  -0.152   0.214
    1UNL    C15   19  -0.411  -0.281   0.279
    1UNL     O5   20  -0.490  -0.063   0.276
    1UNL    C16   21  -0.457   0.238   0.017
    1UNL     O6   22  -0.429   0.343   0.102
    1UNL    C17   23  -0.407   0.275  -0.124
    1UNL     O7   24  -0.453   0.179  -0.220
    1UNL    C18   25  -0.249   0.290  -0.119
    1UNL     O8   26  -0.218   0.430  -0.074
    1UNL     H1   27   0.614   0.030   0.047
    1UNL     H2   28   0.689  -0.024   0.189
    1UNL     H3   29   0.634  -0.268   0.134
    1UNL     H4   30   0.636  -0.392  -0.124
    1UNL     H5   31   0.458  -0.408  -0.150
    1UNL     H6   32   0.532  -0.421   0.023
    1UNL     H7   33   0.672  -0.139  -0.162
    1UNL     H8   34   0.400  -0.104   0.056
    1UNL     H9   35   0.340  -0.276   0.022
    1UNL    H10   36   0.350  -0.053  -0.210
    1UNL    H11   37   0.299  -0.235  -0.208
    1UNL    H12   38   0.103  -0.176  -0.090
    1UNL    H13   39   0.310   0.151  -0.124
    1UNL    H14   40   0.170   0.238  -0.034
    1UNL    H15   41   0.285   0.120   0.042
    1UNL    H16   42  -0.073   0.007  -0.102
    1UNL    H17   43  -0.029   0.025   0.070
    1UNL    H18   44  -0.199   0.264   0.089
    1UNL    H19   45  -0.378   0.115   0.176
    1UNL    H20   46  -0.579  -0.011   0.073
    1UNL    H21   47  -0.478  -0.034  -0.083
    1UNL    H22   48  -0.442  -0.291   0.392
    1UNL    H23   49  -0.303  -0.285   0.270
    1UNL    H24   50  -0.448  -0.359   0.220
    1UNL    H25   51  -0.568   0.219   0.012
    1UNL    H26   52  -0.501   0.401   0.101
    1UNL    H27   53  -0.442   0.364  -0.172
    1UNL    H28   54  -0.407   0.192  -0.299
    1UNL    H29   55  -0.199   0.281  -0.221
    1UNL    H30   56  -0.243   0.442   0.018
   0.00000   0.00000   0.00000   0.00000   0.00000   0.00000   0.00000   0.00000   0.00000
Generated with MDTraj, t= 7.0
 56
    1UNL     C1    1   0.621  -0.057   0.127
    1UNL     C2    2   0.622  -0.177   0.072
    1UNL     C3    3   0.538  -0.223  -0.048
    1UNL     C4    4   0.540  -0.377  -0.055
    1UNL     O1    5   0.586  -0.167  -0.169
    1UNL     C5    6   0.381  -0.178  -0.026
    1UNL     C6    7   0.308  -0.121  -0.151
    1UNL     C7    8   0.170  -0.085  -0.135
    1UNL     C8    9   0.133   0.030  -0.089
    1UNL     C9   10   0.227   0.138  -0.071
    1UNL    C10   11  -0.021   0.063  -0.068
    1UNL     O2   12  -0.044   0.196  -0.029
    1UNL    C11   13  -0.184   0.214   0.004
    1UNL     O3   14  -0.254   0.088   0.019
    1UNL    C12   15  -0.389   0.099   0.069
    1UNL    C13   16  -0.470  -0.023   0.022
    1UNL     O4   17  -0.423  -0.141   0.077
    1UNL    C14   18  -0.452  -0.146   0.211
    1UNL    C15   19  -0.410  -0.270   0.286
    1UNL     O5   20  -0.504  -0.060   0.277
    1UNL    C16   21  -0.460   0.233   0.022
    1UNL     O6   22  -0.439   0.331   0.128
    1UNL    C17   23  -0.402   0.268  -0.119
    1UNL     O7   24  -0.419   0.153  -0.205
    1UNL    C18   25  -0.252   0.306  -0.107
    1UNL     O8   26  -0.225   0.450  -0.076
    1UNL     H1   27   0.566   0.027   0.085
    1UNL     H2   28   0.689  -0.017   0.204
    1UNL     H3   29   0.677  -0.253   0.127
    1UNL     H4   30   0.635  -0.417  -0.054
    1UNL     H5   31   0.489  -0.403  -0.156
    1UNL     H6   32   0.473  -0.415   0.035
    1UNL     H7   33   0.677  -0.190  -0.184
    1UNL     H8   34   0.373  -0.112   0.064
    1UNL     H9   35   0.332  -0.269  -0.005
    1UNL    H10   36   0.378  -0.034  -0.167
    1UNL    H11   37   0.327  -0.189  -0.243
    1UNL    H12   38   0.100  -0.159  -0.163
    1UNL    H13   39   0.272   0.188  -0.162
    1UNL    H14   40   0.185   0.221  -0.011
    1UNL    H15   41   0.318   0.105  -0.020
    1UNL    H16   42  -0.078   0.042  -0.159
    1UNL    H17   43  -0.057  -0.003   0.007
    1UNL    H18   44  -0.177   0.267   0.105
    1UNL    H19   45  -0.382   0.118   0.175
    1UNL    H20   46  -0.582  -0.026   0.051
    1UNL    H21   47  -0.462  -0.042  -0.093
    1UNL    H22   48  -0.309  -0.248   0.332
    1UNL    H23   49  -0.393  -0.349   0.214
    1UNL    H24   50  -0.489  -0.299   0.354
    1UNL    H25   51  -0.573   0.228   0.020
    1UNL    H26   52  -0.466   0.416   0.101
    1UNL    H27   53  -0.473   0.339  -0.163
    1UNL    H28   54  -0.352   0.149  -0.272
    1UNL    H29   55  -0.201   0.279  -0.205
    1UNL    H30   56  -0.244   0.458   0.014
   0.00000   0.00000   0.00000   0.00000   0.00000   0.00000   0.00000   0.00000   0.00000
Generated with MDTraj, t= 8.0
 56
    1UNL     C1    1   0.641  -0.062   0.113
    1UNL     C2    2   0.590  -0.177   0.090
    1UNL     C3    3   0.511  -0.213  -0.032
    1UNL     C4    4   0.512  -0.360  -0.071
    1UNL     O1    5   0.580  -0.145  -0.145
    1UNL     C5    6   0.365  -0.165  -0.017
    1UNL     C6    7   0.301  -0.134  -0.153
    1UNL     C7    8   0.168  -0.081  -0.151
    1UNL     C8    9   0.136   0.042  -0.115
    1UNL     C9   10   0.243   0.146  -0.097
    1UNL    C10   11  -0.015   0.088  -0.102
    1UNL     O2   12  -0.037   0.178   0.003
    1UNL    C11   13  -0.176   0.198   0.018
    1UNL     O3   14  -0.250   0.082   0.036
    1UNL    C12   15  -0.389   0.096   0.073
    1UNL    C13   16  -0.460  -0.025   0.020
    1UNL     O4   17  -0.414  -0.135   0.087
    1UNL    C14   18  -0.451  -0.145   0.217
    1UNL    C15   19  -0.400  -0.263   0.295
    1UNL     O5   20  -0.524  -0.066   0.272
    1UNL    C16   21  -0.452   0.228   0.012
    1UNL     O6   22  -0.418   0.329   0.110
    1UNL    C17   23  -0.388   0.263  -0.124
    1UNL     O7   24  -0.426   0.165  -0.221
    1UNL    C18   25  -0.239   0.283  -0.099
    1UNL     O8   26  -0.225   0.418  -0.060
    1UNL     H1   27   0.625   0.013   0.038
    1UNL     H2   28   0.698  -0.035   0.195
    1UNL     H3   29   0.601  -0.243   0.173
    1UNL     H4   30   0.620  -0.394  -0.071
    1UNL     H5   31   0.480  -0.372  -0.178
    1UNL     H6   32   0.452  -0.432  -0.005
    1UNL     H7   33   0.665  -0.191  -0.166
    1UNL     H8   34   0.364  -0.072   0.044
    1UNL     H9   35   0.304  -0.233   0.025
    1UNL    H10   36   0.367  -0.062  -0.199
    1UNL    H11   37   0.329  -0.227  -0.216
    1UNL    H12   38   0.090  -0.153  -0.172
    1UNL    H13   39   0.303   0.163  -0.190
    1UNL    H14   40   0.201   0.246  -0.068
    1UNL    H15   41   0.314   0.110  -0.020
    1UNL    H16   42  -0.043   0.125  -0.200
    1UNL    H17   43  -0.074   0.003  -0.088
    1UNL    H18   44  -0.178   0.266   0.108
    1UNL    H19   45  -0.398   0.086   0.182
    1UNL    H20   46  -0.570  -0.030   0.051
    1UNL    H21   47  -0.445  -0.050  -0.091
    1UNL    H22   48  -0.319  -0.308   0.248
    1UNL    H23   49  -0.477  -0.341   0.309
    1UNL    H24   50  -0.382  -0.225   0.397
    1UNL    H25   51  -0.561   0.215  -0.002
    1UNL    H26   52  -0.500   0.348   0.165
    1UNL    H27   53  -0.432   0.365  -0.145
    1UNL    H28   54  -0.397   0.215  -0.306
    1UNL    H29   55  -0.185   0.279  -0.199
    1UNL    H30   56  -0.286   0.435   0.024
   0.00000   0.00000   0.00000   0.00000   0.00000   0.00000   0.00000   0.00000   0.00000
Generated with MDTraj, t= 9.0
 56
    1UNL     C1    1   0.669  -0.104   0.129
    1UNL     C2    2   0.559  -0.175   0.113
    1UNL     C3    3   0.500  -0.199  -0.029
    1UNL     C4    4   0.508  -0.336  -0.081
    1UNL     O1    5   0.574  -0.117  -0.125
    1UNL     C5    6   0.353  -0.144  -0.017
    1UNL     C6    7   0.276  -0.150  -0.147
    1UNL     C7    8   0.143  -0.086  -0.146
    1UNL     C8    9   0.120   0.046  -0.143
    1UNL     C9   10   0.225   0.160  -0.130
    1UNL    C10   11  -0.016   0.093  -0.124
    1UNL     O2   12  -0.027   0.180  -0.011
    1UNL    C11   13  -0.163   0.197   0.010
    1UNL     O3   14  -0.237   0.075   0.014
    1UNL    C12   15  -0.376   0.087   0.065
    1UNL    C13   16  -0.461  -0.035   0.020
    1UNL     O4   17  -0.424  -0.153   0.091
    1UNL    C14   18  -0.458  -0.155   0.224
    1UNL    C15   19  -0.400  -0.264   0.304
    1UNL     O5   20  -0.523  -0.065   0.275
    1UNL    C16   21  -0.439   0.223   0.022
    1UNL     O6   22  -0.435   0.323   0.125
    1UNL    C17   23  -0.379   0.266  -0.114
    1UNL     O7   24  -0.398   0.156  -0.212
    1UNL    C18   25  -0.222   0.296  -0.095
    1UNL     O8   26  -0.198   0.430  -0.065
    1UNL     H1   27   0.727  -0.056   0.049
    1UNL     H2   28   0.700  -0.067   0.228
    1UNL     H3   29   0.518  -0.231   0.197
    1UNL     H4   30   0.620  -0.362  -0.122
    1UNL     H5   31   0.448  -0.353  -0.171
    1UNL     H6   32   0.480  -0.414  -0.009
    1UNL     H7   33   0.660  -0.167  -0.148
    1UNL     H8   34   0.362  -0.038   0.013
    1UNL     H9   35   0.309  -0.189   0.066
    1UNL    H10   36   0.335  -0.106  -0.221
    1UNL    H11   37   0.250  -0.257  -0.186
    1UNL    H12   38   0.066  -0.158  -0.136
    1UNL    H13   39   0.311   0.135  -0.194
    1UNL    H14   40   0.187   0.264  -0.148
    1UNL    H15   41   0.257   0.151  -0.023
    1UNL    H16   42  -0.059   0.145  -0.209
    1UNL    H17   43  -0.084   0.012  -0.113
    1UNL    H18   44  -0.165   0.236   0.114
    1UNL    H19   45  -0.370   0.085   0.177
    1UNL    H20   46  -0.568  -0.019   0.047
    1UNL    H21   47  -0.449  -0.064  -0.086
    1UNL    H22   48  -0.414  -0.356   0.259
    1UNL    H23   49  -0.446  -0.273   0.406
    1UNL    H24   50  -0.295  -0.243   0.327
    1UNL    H25   51  -0.545   0.210  -0.001
    1UNL    H26   52  -0.438   0.278   0.220
    1UNL    H27   53  -0.447   0.351  -0.147
    1UNL    H28   54  -0.383   0.191  -0.309
    1UNL    H29   55  -0.185   0.270  -0.197
    1UNL    H30   56  -0.257   0.445   0.017
   0.00000   0.00000   0.00000   0.00000   0.00000   0.00000   0.00000   0.00000   0.00000
Generated with MDTraj, t= 10.0
 56
    1UNL     C1    1   0.677  -0.125   0.145
    1UNL     C2    2   0.561  -0.186   0.124
    1UNL     C3    3   0.504  -0.195  -0.016
    1UNL     C4    4   0.521  -0.332  -0.090
    1UNL     O1    5   0.571  -0.096  -0.095
    1UNL     C5    6   0.358  -0.147  -0.010
    1UNL     C6    7   0.284  -0.163  -0.145
    1UNL     C7    8   0.150  -0.096  -0.151
    1UNL     C8    9   0.121   0.035  -0.159
    1UNL     C9   10   0.224   0.139  -0.180
    1UNL    C10   11  -0.018   0.076  -0.139
    1UNL     O2   12  -0.029   0.183  -0.039
    1UNL    C11   13  -0.161   0.207  -0.000
    1UNL     O3   14  -0.235   0.087   0.005
    1UNL    C12   15  -0.369   0.092   0.066
    1UNL    C13   16  -0.440  -0.039   0.023
    1UNL     O4   17  -0.400  -0.159   0.088
    1UNL    C14   18  -0.448  -0.154   0.217
    1UNL    C15   19  -0.426  -0.268   0.309
    1UNL     O5   20  -0.498  -0.054   0.270
    1UNL    C16   21  -0.442   0.222   0.025
    1UNL     O6   22  -0.436   0.322   0.130
    1UNL    C17   23  -0.395   0.274  -0.107
    1UNL     O7   24  -0.419   0.170  -0.205
    1UNL    C18   25  -0.237   0.311  -0.093
    1UNL     O8   26  -0.238   0.436  -0.028
    1UNL     H1   27   0.730  -0.078   0.071
    1UNL     H2   28   0.724  -0.122   0.241
    1UNL     H3   29   0.486  -0.220   0.195
    1UNL     H4   30   0.622  -0.375  -0.094
    1UNL     H5   31   0.487  -0.335  -0.197
    1UNL     H6   32   0.454  -0.402  -0.034
    1UNL     H7   33   0.666  -0.133  -0.119
    1UNL     H8   34   0.354  -0.050   0.032
    1UNL     H9   35   0.302  -0.204   0.069
    1UNL    H10   36   0.327  -0.128  -0.234
    1UNL    H11   37   0.266  -0.277  -0.167
    1UNL    H12   38   0.069  -0.165  -0.133
    1UNL    H13   39   0.319   0.082  -0.169
    1UNL    H14   40   0.230   0.198  -0.275
    1UNL    H15   41   0.220   0.210  -0.093
    1UNL    H16   42  -0.073   0.097  -0.230
    1UNL    H17   43  -0.083   0.005  -0.094
    1UNL    H18   44  -0.152   0.236   0.106
    1UNL    H19   45  -0.356   0.092   0.179
    1UNL    H20   46  -0.546  -0.036   0.040
    1UNL    H21   47  -0.415  -0.039  -0.080
    1UNL    H22   48  -0.522  -0.321   0.334
    1UNL    H23   49  -0.378  -0.244   0.402
    1UNL    H24   50  -0.358  -0.338   0.265
    1UNL    H25   51  -0.548   0.203   0.007
    1UNL    H26   52  -0.404   0.274   0.216
    1UNL    H27   53  -0.446   0.377  -0.131
    1UNL    H28   54  -0.362   0.193  -0.284
    1UNL    H29   55  -0.191   0.339  -0.192
    1UNL    H30   56  -0.301   0.444   0.039
   0.00000   0.00000   0.00000   0.00000   0.00000   0.00000   0.00000   0.00000   0.00000
Generated with MDTraj, t= 11.0
 56
    1UNL     C1    1   0.668  -0.131   0.164
    1UNL     C2    2   0.560  -0.197   0.129
    1UNL     C3    3   0.505  -0.198  -0.017
    1UNL     C4    4   0.545  -0.333  -0.082
    1UNL     O1    5   0.564  -0.093  -0.090
    1UNL     C5    6   0.356  -0.177  -0.006
    1UNL     C6    7   0.290  -0.147  -0.143
    1UNL     C7    8   0.156  -0.092  -0.136
    1UNL     C8    9   0.118   0.031  -0.174
    1UNL     C9   10   0.220   0.133  -0.212
    1UNL    C10   11  -0.020   0.078  -0.149
    1UNL     O2   12  -0.031   0.188  -0.059
    1UNL    C11   13  -0.167   0.207  -0.011
    1UNL     O3   14  -0.237   0.082   0.008
    1UNL    C12   15  -0.369   0.080   0.061
    1UNL    C13   16  -0.447  -0.042   0.020
    1UNL     O4   17  -0.406  -0.158   0.091
    1UNL    C14   18  -0.444  -0.155   0.223
    1UNL    C15   19  -0.414  -0.270   0.310
    1UNL     O5   20  -0.485  -0.052   0.276
    1UNL    C16   21  -0.443   0.215   0.030
    1UNL     O6   22  -0.432   0.310   0.146
    1UNL    C17   23  -0.398   0.284  -0.103
    1UNL     O7   24  -0.431   0.203  -0.216
    1UNL    C18   25  -0.242   0.315  -0.089
    1UNL     O8   26  -0.237   0.448  -0.028
    1UNL     H1   27   0.735  -0.094   0.084
    1UNL     H2   28   0.676  -0.106   0.270
    1UNL     H3   29   0.479  -0.215   0.197
    1UNL     H4   30   0.641  -0.344  -0.054
    1UNL     H5   31   0.548  -0.317  -0.193
    1UNL     H6   32   0.476  -0.420  -0.054
    1UNL     H7   33   0.667  -0.094  -0.096
    1UNL     H8   34   0.324  -0.098   0.054
    1UNL     H9   35   0.302  -0.264   0.052
    1UNL    H10   36   0.365  -0.096  -0.198
    1UNL    H11   37   0.283  -0.238  -0.209
    1UNL    H12   38   0.080  -0.154  -0.096
    1UNL    H13   39   0.276   0.146  -0.116
    1UNL    H14   40   0.299   0.116  -0.289
    1UNL    H15   41   0.176   0.235  -0.228
    1UNL    H16   42  -0.070   0.108  -0.242
    1UNL    H17   43  -0.076  -0.007  -0.113
    1UNL    H18   44  -0.149   0.240   0.092
    1UNL    H19   45  -0.362   0.061   0.174
    1UNL    H20   46  -0.546  -0.019   0.046
    1UNL    H21   47  -0.431  -0.062  -0.080
    1UNL    H22   48  -0.461  -0.249   0.414
    1UNL    H23   49  -0.313  -0.292   0.315
    1UNL    H24   50  -0.464  -0.356   0.268
    1UNL    H25   51  -0.549   0.195   0.016
    1UNL    H26   52  -0.398   0.257   0.218
    1UNL    H27   53  -0.460   0.382  -0.120
    1UNL    H28   54  -0.383   0.212  -0.297
    1UNL    H29   55  -0.201   0.322  -0.193
    1UNL    H30   56  -0.304   0.445   0.046
   0.00000   0.00000   0.00000   0.00000   0.00000   0.00000   0.00000   0.00000   0.00000
Generated with MDTraj, t= 12.0
 56
    1UNL     C1    1   0.659  -0.140   0.180
    1UNL     C2    2   0.550  -0.198   0.132
    1UNL     C3    3   0.502  -0.194  -0.010
    1UNL     C4    4   0.534  -0.329  -0.090
    1UNL     O1    5   0.564  -0.085  -0.081
    1UNL     C5    6   0.353  -0.166  -0.002
    1UNL     C6    7   0.291  -0.139  -0.134
    1UNL     C7    8   0.158  -0.079  -0.134
    1UNL     C8    9   0.116   0.041  -0.179
    1UNL     C9   10   0.209   0.150  -0.224
    1UNL    C10   11  -0.031   0.079  -0.159
    1UNL     O2   12  -0.034   0.165  -0.048
    1UNL    C11   13  -0.168   0.189  -0.013
    1UNL     O3   14  -0.250   0.075  -0.016
    1UNL    C12   15  -0.377   0.084   0.051
    1UNL    C13   16  -0.470  -0.033   0.030
    1UNL     O4   17  -0.413  -0.146   0.087
    1UNL    C14   18  -0.436  -0.146   0.221
    1UNL    C15   19  -0.378  -0.269   0.298
    1UNL     O5   20  -0.488  -0.052   0.282
    1UNL    C16   21  -0.442   0.218   0.035
    1UNL     O6   22  -0.417   0.297   0.158
    1UNL    C17   23  -0.394   0.285  -0.097
    1UNL     O7   24  -0.430   0.197  -0.202
    1UNL    C18   25  -0.236   0.297  -0.097
    1UNL     O8   26  -0.200   0.429  -0.047
    1UNL     H1   27   0.698  -0.057   0.124
    1UNL     H2   28   0.685  -0.148   0.279
    1UNL     H3   29   0.502  -0.275   0.190
    1UNL     H4   30   0.638  -0.333  -0.119
    1UNL     H5   31   0.478  -0.319  -0.179
    1UNL     H6   32   0.496  -0.414  -0.032
    1UNL     H7   33   0.662  -0.086  -0.067
    1UNL     H8   34   0.330  -0.081   0.055
    1UNL     H9   35   0.284  -0.242   0.054
    1UNL    H10   36   0.349  -0.071  -0.192
    1UNL    H11   37   0.302  -0.224  -0.193
    1UNL    H12   38   0.069  -0.133  -0.105
    1UNL    H13   39   0.213   0.218  -0.135
    1UNL    H14   40   0.315   0.125  -0.250
    1UNL    H15   41   0.165   0.212  -0.305
    1UNL    H16   42  -0.066   0.118  -0.258
    1UNL    H17   43  -0.086  -0.011  -0.134
    1UNL    H18   44  -0.158   0.229   0.087
    1UNL    H19   45  -0.348   0.071   0.160
    1UNL    H20   46  -0.565  -0.021   0.077
    1UNL    H21   47  -0.474  -0.045  -0.073
    1UNL    H22   48  -0.301  -0.238   0.371
    1UNL    H23   49  -0.341  -0.343   0.229
    1UNL    H24   50  -0.462  -0.313   0.353
    1UNL    H25   51  -0.552   0.218   0.029
    1UNL    H26   52  -0.465   0.265   0.230
    1UNL    H27   53  -0.445   0.390  -0.109
    1UNL    H28   54  -0.371   0.221  -0.270
    1UNL    H29   55  -0.191   0.286  -0.200
    1UNL    H30   56  -0.229   0.435   0.054
   0.00000   0.00000   0.00000   0.00000   0.00000   0.00000   0.00000   0.00000   0.00000
Generated with MDTraj, t= 13.0
 56
    1UNL     C1    1   0.628  -0.133   0.202
    1UNL     C2    2   0.555  -0.220   0.136
    1UNL     C3    3   0.501  -0.186  -0.006
    1UNL     C4    4   0.512  -0.314  -0.087
    1UNL     O1    5   0.586  -0.087  -0.070
    1UNL     C5    6   0.358  -0.135  -0.012
    1UNL     C6    7   0.302  -0.136  -0.146
    1UNL     C7    8   0.160  -0.086  -0.151
    1UNL     C8    9   0.122   0.043  -0.184
    1UNL     C9   10   0.208   0.147  -0.245
    1UNL    C10   11  -0.022   0.084  -0.151
    1UNL     O2   12  -0.033   0.159  -0.030
    1UNL    C11   13  -0.171   0.175  -0.001
    1UNL     O3   14  -0.257   0.058   0.004
    1UNL    C12   15  -0.389   0.086   0.065
    1UNL    C13   16  -0.485  -0.023   0.034
    1UNL     O4   17  -0.431  -0.150   0.081
    1UNL    C14   18  -0.428  -0.149   0.217
    1UNL    C15   19  -0.361  -0.266   0.279
    1UNL     O5   20  -0.466  -0.059   0.291
    1UNL    C16   21  -0.441   0.229   0.037
    1UNL     O6   22  -0.390   0.314   0.139
    1UNL    C17   23  -0.396   0.279  -0.103
    1UNL     O7   24  -0.458   0.206  -0.212
    1UNL    C18   25  -0.235   0.281  -0.094
    1UNL     O8   26  -0.195   0.411  -0.044
    1UNL     H1   27   0.649  -0.037   0.158
    1UNL     H2   28   0.659  -0.147   0.309
    1UNL     H3   29   0.535  -0.317   0.178
    1UNL     H4   30   0.620  -0.353  -0.088
    1UNL     H5   31   0.490  -0.296  -0.185
    1UNL     H6   32   0.445  -0.378  -0.046
    1UNL     H7   33   0.669  -0.131  -0.084
    1UNL     H8   34   0.355  -0.034   0.025
    1UNL     H9   35   0.294  -0.187   0.066
    1UNL    H10   36   0.358  -0.071  -0.211
    1UNL    H11   37   0.287  -0.223  -0.193
    1UNL    H12   38   0.077  -0.138  -0.107
    1UNL    H13   39   0.286   0.177  -0.170
    1UNL    H14   40   0.262   0.116  -0.340
    1UNL    H15   41   0.151   0.240  -0.259
    1UNL    H16   42  -0.061   0.149  -0.235
    1UNL    H17   43  -0.082  -0.009  -0.157
    1UNL    H18   44  -0.169   0.225   0.094
    1UNL    H19   45  -0.375   0.069   0.175
    1UNL    H20   46  -0.584  -0.012   0.079
    1UNL    H21   47  -0.490  -0.032  -0.072
    1UNL    H22   48  -0.262  -0.272   0.244
    1UNL    H23   49  -0.419  -0.362   0.250
    1UNL    H24   50  -0.364  -0.250   0.386
    1UNL    H25   51  -0.552   0.234   0.042
    1UNL    H26   52  -0.442   0.303   0.218
    1UNL    H27   53  -0.441   0.385  -0.114
    1UNL    H28   54  -0.454   0.268  -0.290
    1UNL    H29   55  -0.197   0.264  -0.198
    1UNL    H30   56  -0.251   0.430   0.037
   0.00000   0.00000   0.00000   0.00000   0.00000   0.00000   0.00000   0.00000   0.00000
Generated with MDTraj, t= 14.0
 56
    1UNL     C1    1   0.573  -0.103   0.215
    1UNL     C2    2   0.564  -0.212   0.136
    1UNL     C3    3   0.519  -0.202  -0.005
    1UNL     C4    4   0.538  -0.341  -0.081
    1UNL     O1    5   0.598  -0.101  -0.067
    1UNL     C5    6   0.371  -0.157  -0.006
    1UNL     C6    7   0.304  -0.128  -0.149
    1UNL     C7    8   0.164  -0.080  -0.151
    1UNL     C8    9   0.109   0.042  -0.186
    1UNL     C9   10   0.187   0.153  -0.246
    1UNL    C10   11  -0.033   0.077  -0.159
    1UNL     O2   12  -0.045   0.167  -0.050
    1UNL    C11   13  -0.175   0.192  -0.014
    1UNL     O3   14  -0.260   0.071  -0.009
    1UNL    C12   15  -0.382   0.090   0.069
    1UNL    C13   16  -0.487  -0.012   0.043
    1UNL     O4   17  -0.440  -0.148   0.075
    1UNL    C14   18  -0.423  -0.161   0.212
    1UNL    C15   19  -0.370  -0.289   0.262
    1UNL     O5   20  -0.442  -0.074   0.293
    1UNL    C16   21  -0.437   0.242   0.048
    1UNL     O6   22  -0.394   0.323   0.147
    1UNL    C17   23  -0.395   0.284  -0.094
    1UNL     O7   24  -0.444   0.182  -0.181
    1UNL    C18   25  -0.239   0.302  -0.100
    1UNL     O8   26  -0.195   0.427  -0.060
    1UNL     H1   27   0.568  -0.006   0.178
    1UNL     H2   28   0.619  -0.102   0.312
    1UNL     H3   29   0.577  -0.308   0.184
    1UNL     H4   30   0.640  -0.382  -0.068
    1UNL     H5   31   0.540  -0.321  -0.184
    1UNL     H6   32   0.468  -0.415  -0.067
    1UNL     H7   33   0.672  -0.139  -0.108
    1UNL     H8   34   0.358  -0.063   0.053
    1UNL     H9   35   0.305  -0.231   0.047
    1UNL    H10   36   0.359  -0.057  -0.210
    1UNL    H11   37   0.300  -0.222  -0.198
    1UNL    H12   38   0.088  -0.142  -0.106
    1UNL    H13   39   0.299   0.142  -0.264
    1UNL    H14   40   0.145   0.185  -0.345
    1UNL    H15   41   0.184   0.239  -0.178
    1UNL    H16   42  -0.080   0.112  -0.258
    1UNL    H17   43  -0.098  -0.009  -0.125
    1UNL    H18   44  -0.163   0.232   0.087
    1UNL    H19   45  -0.359   0.085   0.177
    1UNL    H20   46  -0.577   0.004   0.111
    1UNL    H21   47  -0.520  -0.018  -0.062
    1UNL    H22   48  -0.338  -0.355   0.187
    1UNL    H23   49  -0.450  -0.345   0.323
    1UNL    H24   50  -0.288  -0.266   0.328
    1UNL    H25   51  -0.550   0.244   0.052
    1UNL    H26   52  -0.461   0.333   0.224
    1UNL    H27   53  -0.450   0.377  -0.127
    1UNL    H28   54  -0.362   0.124  -0.211
    1UNL    H29   55  -0.206   0.286  -0.204
    1UNL    H30   56  -0.215   0.442   0.031
   0.00000   0.00000   0.00000   0.00000   0.00000   0.00000   0.00000   0.00000   0.00000
Generated with MDTraj, t= 15.0
 56
    1UNL     C1    1   0.541  -0.095   0.212
    1UNL     C2    2   0.565  -0.200   0.135
    1UNL     C3    3   0.512  -0.199  -0.009
    1UNL     C4    4   0.538  -0.334  -0.077
    1UNL     O1    5   0.578  -0.102  -0.087
    1UNL     C5    6   0.361  -0.172  -0.000
    1UNL     C6    7   0.306  -0.116  -0.141
    1UNL     C7    8   0.167  -0.092  -0.140
    1UNL     C8    9   0.108   0.024  -0.178
    1UNL     C9   10   0.186   0.131  -0.237
    1UNL    C10   11  -0.033   0.054  -0.143
    1UNL     O2   12  -0.041   0.172  -0.067
    1UNL    C11   13  -0.168   0.204  -0.019
    1UNL     O3   14  -0.250   0.083  -0.005
    1UNL    C12   15  -0.368   0.100   0.070
    1UNL    C13   16  -0.466  -0.010   0.050
    1UNL     O4   17  -0.425  -0.140   0.078
    1UNL    C14   18  -0.414  -0.165   0.210
    1UNL    C15   19  -0.381  -0.313   0.244
    1UNL     O5   20  -0.431  -0.086   0.298
    1UNL    C16   21  -0.430   0.243   0.043
    1UNL     O6   22  -0.382   0.333   0.140
    1UNL    C17   23  -0.399   0.279  -0.103
    1UNL     O7   24  -0.442   0.185  -0.197
    1UNL    C18   25  -0.244   0.316  -0.101
    1UNL     O8   26  -0.217   0.438  -0.042
    1UNL     H1   27   0.504   0.000   0.164
    1UNL     H2   28   0.548  -0.084   0.320
    1UNL     H3   29   0.602  -0.288   0.184
    1UNL     H4   30   0.634  -0.359  -0.082
    1UNL     H5   31   0.502  -0.341  -0.178
    1UNL     H6   32   0.483  -0.408  -0.017
    1UNL     H7   33   0.672  -0.089  -0.074
    1UNL     H8   34   0.322  -0.092   0.074
    1UNL     H9   35   0.306  -0.261   0.023
    1UNL    H10   36   0.369  -0.029  -0.155
    1UNL    H11   37   0.328  -0.194  -0.221
    1UNL    H12   38   0.098  -0.163  -0.093
    1UNL    H13   39   0.239   0.106  -0.332
    1UNL    H14   40   0.119   0.218  -0.255
    1UNL    H15   41   0.266   0.159  -0.165
    1UNL    H16   42  -0.109   0.076  -0.226
    1UNL    H17   43  -0.079  -0.033  -0.087
    1UNL    H18   44  -0.146   0.242   0.081
    1UNL    H19   45  -0.333   0.109   0.172
    1UNL    H20   46  -0.566  -0.009   0.110
    1UNL    H21   47  -0.494  -0.007  -0.060
    1UNL    H22   48  -0.447  -0.397   0.218
    1UNL    H23   49  -0.376  -0.325   0.350
    1UNL    H24   50  -0.279  -0.340   0.213
    1UNL    H25   51  -0.541   0.235   0.061
    1UNL    H26   52  -0.448   0.338   0.223
    1UNL    H27   53  -0.453   0.370  -0.128
    1UNL    H28   54  -0.373   0.113  -0.188
    1UNL    H29   55  -0.201   0.327  -0.203
    1UNL    H30   56  -0.257   0.440   0.056
   0.00000   0.00000   0.00000   0.00000   0.00000   0.00000   0.00000   0.00000   0.00000
Generated with MDTraj, t= 16.0
 56
    1UNL     C1    1   0.580  -0.093   0.210
    1UNL     C2    2   0.535  -0.198   0.139
    1UNL     C3    3   0.501  -0.193  -0.007
    1UNL     C4    4   0.550  -0.326  -0.075
    1UNL     O1    5   0.559  -0.081  -0.084
    1UNL     C5    6   0.346  -0.181  -0.002
    1UNL     C6    7   0.287  -0.166  -0.142
    1UNL     C7    8   0.152  -0.111  -0.140
    1UNL     C8    9   0.113   0.014  -0.184
    1UNL     C9   10   0.204   0.113  -0.242
    1UNL    C10   11  -0.025   0.068  -0.143
    1UNL     O2   12  -0.032   0.176  -0.050
    1UNL    C11   13  -0.166   0.207  -0.016
    1UNL     O3   14  -0.250   0.089  -0.003
    1UNL    C12   15  -0.375   0.099   0.073
    1UNL    C13   16  -0.467  -0.022   0.044
    1UNL     O4   17  -0.408  -0.141   0.068
    1UNL    C14   18  -0.400  -0.163   0.206
    1UNL    C15   19  -0.351  -0.298   0.242
    1UNL     O5   20  -0.436  -0.084   0.289
    1UNL    C16   21  -0.445   0.237   0.047
    1UNL     O6   22  -0.411   0.323   0.151
    1UNL    C17   23  -0.398   0.291  -0.097
    1UNL     O7   24  -0.437   0.208  -0.199
    1UNL    C18   25  -0.241   0.318  -0.099
    1UNL     O8   26  -0.215   0.444  -0.050
    1UNL     H1   27   0.573   0.006   0.173
    1UNL     H2   28   0.604  -0.088   0.312
    1UNL     H3   29   0.538  -0.294   0.190
    1UNL     H4   30   0.654  -0.324  -0.093
    1UNL     H5   31   0.506  -0.337  -0.171
    1UNL     H6   32   0.526  -0.413  -0.016
    1UNL     H7   33   0.646  -0.055  -0.041
    1UNL     H8   34   0.325  -0.080   0.057
    1UNL     H9   35   0.294  -0.259   0.048
    1UNL    H10   36   0.349  -0.096  -0.195
    1UNL    H11   37   0.298  -0.276  -0.186
    1UNL    H12   38   0.070  -0.164  -0.094
    1UNL    H13   39   0.214   0.112  -0.351
    1UNL    H14   40   0.168   0.215  -0.218
    1UNL    H15   41   0.308   0.104  -0.198
    1UNL    H16   42  -0.087   0.101  -0.232
    1UNL    H17   43  -0.097  -0.004  -0.095
    1UNL    H18   44  -0.156   0.251   0.085
    1UNL    H19   45  -0.334   0.091   0.171
    1UNL    H20   46  -0.559  -0.007   0.116
    1UNL    H21   47  -0.499  -0.040  -0.065
    1UNL    H22   48  -0.415  -0.351   0.317
    1UNL    H23   49  -0.262  -0.285   0.289
    1UNL    H24   50  -0.328  -0.359   0.150
    1UNL    H25   51  -0.555   0.220   0.047
    1UNL    H26   52  -0.458   0.290   0.236
    1UNL    H27   53  -0.458   0.376  -0.125
    1UNL    H28   54  -0.396   0.124  -0.182
    1UNL    H29   55  -0.204   0.310  -0.203
    1UNL    H30   56  -0.268   0.449   0.036
   0.00000   0.00000   0.00000   0.00000   0.00000   0.00000   0.00000   0.00000   0.00000
Generated with MDTraj, t= 17.0
 56
    1UNL     C1    1   0.611  -0.096   0.192
    1UNL     C2    2   0.541  -0.190   0.131
    1UNL     C3    3   0.478  -0.184  -0.004
    1UNL     C4    4   0.528  -0.308  -0.085
    1UNL     O1    5   0.524  -0.067  -0.081
    1UNL     C5    6   0.320  -0.172   0.011
    1UNL     C6    7   0.259  -0.176  -0.124
    1UNL     C7    8   0.123  -0.115  -0.135
    1UNL     C8    9   0.099   0.016  -0.175
    1UNL     C9   10   0.215   0.113  -0.195
    1UNL    C10   11  -0.034   0.070  -0.172
    1UNL     O2   12  -0.036   0.162  -0.062
    1UNL    C11   13  -0.166   0.188  -0.011
    1UNL     O3   14  -0.258   0.074  -0.016
    1UNL    C12   15  -0.383   0.095   0.055
    1UNL    C13   16  -0.475  -0.032   0.035
    1UNL     O4   17  -0.402  -0.146   0.067
    1UNL    C14   18  -0.386  -0.153   0.201
    1UNL    C15   19  -0.303  -0.266   0.250
    1UNL     O5   20  -0.439  -0.076   0.276
    1UNL    C16   21  -0.442   0.242   0.035
    1UNL     O6   22  -0.404   0.315   0.146
    1UNL    C17   23  -0.383   0.291  -0.102
    1UNL     O7   24  -0.410   0.203  -0.201
    1UNL    C18   25  -0.229   0.310  -0.085
    1UNL     O8   26  -0.202   0.432  -0.015
    1UNL     H1   27   0.643  -0.008   0.139
    1UNL     H2   28   0.632  -0.098   0.303
    1UNL     H3   29   0.494  -0.259   0.198
    1UNL     H4   30   0.643  -0.322  -0.068
    1UNL     H5   31   0.528  -0.275  -0.184
    1UNL     H6   32   0.479  -0.399  -0.071
    1UNL     H7   33   0.626  -0.064  -0.061
    1UNL     H8   34   0.297  -0.072   0.064
    1UNL     H9   35   0.296  -0.248   0.081
    1UNL    H10   36   0.332  -0.122  -0.184
    1UNL    H11   37   0.247  -0.287  -0.159
    1UNL    H12   38   0.037  -0.181  -0.115
    1UNL    H13   39   0.286   0.081  -0.270
    1UNL    H14   40   0.185   0.215  -0.227
    1UNL    H15   41   0.276   0.134  -0.102
    1UNL    H16   42  -0.056   0.117  -0.272
    1UNL    H17   43  -0.107  -0.011  -0.154
    1UNL    H18   44  -0.153   0.219   0.096
    1UNL    H19   45  -0.337   0.083   0.153
    1UNL    H20   46  -0.559  -0.024   0.114
    1UNL    H21   47  -0.511  -0.032  -0.071
    1UNL    H22   48  -0.282  -0.264   0.359
    1UNL    H23   49  -0.211  -0.255   0.196
    1UNL    H24   50  -0.344  -0.357   0.204
    1UNL    H25   51  -0.553   0.248   0.038
    1UNL    H26   52  -0.450   0.279   0.222
    1UNL    H27   53  -0.423   0.384  -0.133
    1UNL    H28   54  -0.347   0.120  -0.196
    1UNL    H29   55  -0.172   0.326  -0.180
    1UNL    H30   56  -0.250   0.433   0.065
   0.00000   0.00000   0.00000   0.00000   0.00000   0.00000   0.00000   0.00000   0.00000
Generated with MDTraj, t= 18.0
 56
    1UNL     C1    1   0.617  -0.083   0.167
    1UNL     C2    2   0.522  -0.171   0.137
    1UNL     C3    3   0.462  -0.180  -0.003
    1UNL     C4    4   0.512  -0.306  -0.078
    1UNL     O1    5   0.502  -0.070  -0.084
    1UNL     C5    6   0.310  -0.169  -0.000
    1UNL     C6    7   0.251  -0.195  -0.136
    1UNL     C7    8   0.123  -0.119  -0.154
    1UNL     C8    9   0.114   0.017  -0.166
    1UNL     C9   10   0.232   0.103  -0.178
    1UNL    C10   11  -0.024   0.078  -0.148
    1UNL     O2   12  -0.028   0.164  -0.033
    1UNL    C11   13  -0.165   0.183   0.004
    1UNL     O3   14  -0.254   0.067  -0.013
    1UNL    C12   15  -0.378   0.089   0.047
    1UNL    C13   16  -0.476  -0.035   0.026
    1UNL     O4   17  -0.412  -0.148   0.066
    1UNL    C14   18  -0.374  -0.146   0.198
    1UNL    C15   19  -0.283  -0.256   0.257
    1UNL     O5   20  -0.413  -0.064   0.278
    1UNL    C16   21  -0.440   0.227   0.014
    1UNL     O6   22  -0.430   0.310   0.126
    1UNL    C17   23  -0.373   0.287  -0.106
    1UNL     O7   24  -0.405   0.220  -0.226
    1UNL    C18   25  -0.220   0.308  -0.066
    1UNL     O8   26  -0.206   0.427   0.012
    1UNL     H1   27   0.651  -0.024   0.086
    1UNL     H2   28   0.661  -0.078   0.262
    1UNL     H3   29   0.471  -0.233   0.211
    1UNL     H4   30   0.622  -0.330  -0.064
    1UNL     H5   31   0.502  -0.294  -0.186
    1UNL     H6   32   0.454  -0.383  -0.035
    1UNL     H7   33   0.606  -0.082  -0.088
    1UNL     H8   34   0.298  -0.068   0.029
    1UNL     H9   35   0.276  -0.229   0.084
    1UNL    H10   36   0.321  -0.169  -0.216
    1UNL    H11   37   0.239  -0.309  -0.149
    1UNL    H12   38   0.025  -0.162  -0.142
    1UNL    H13   39   0.303   0.038  -0.234
    1UNL    H14   40   0.217   0.197  -0.233
    1UNL    H15   41   0.272   0.124  -0.078
    1UNL    H16   42  -0.048   0.138  -0.237
    1UNL    H17   43  -0.093  -0.004  -0.135
    1UNL    H18   44  -0.162   0.194   0.115
    1UNL    H19   45  -0.354   0.085   0.154
    1UNL    H20   46  -0.571  -0.019   0.081
    1UNL    H21   47  -0.486  -0.044  -0.082
    1UNL    H22   48  -0.197  -0.210   0.306
    1UNL    H23   49  -0.246  -0.318   0.169
    1UNL    H24   50  -0.338  -0.327   0.312
    1UNL    H25   51  -0.547   0.219  -0.005
    1UNL    H26   52  -0.485   0.285   0.196
    1UNL    H27   53  -0.410   0.383  -0.129
    1UNL    H28   54  -0.399   0.121  -0.221
    1UNL    H29   55  -0.162   0.323  -0.159
    1UNL    H30   56  -0.280   0.417   0.086
   0.00000   0.00000   0.00000   0.00000   0.00000   0.00000   0.00000   0.00000   0.00000
Generated with MDTraj, t= 19.0
 56
    1UNL     C1    1   0.613  -0.070   0.146
    1UNL     C2    2   0.503  -0.143   0.129
    1UNL     C3    3   0.461  -0.191  -0.008
    1UNL     C4    4   0.543  -0.321  -0.041
    1UNL     O1    5   0.498  -0.092  -0.104
    1UNL     C5    6   0.305  -0.201  -0.008
    1UNL     C6    7   0.235  -0.188  -0.152
    1UNL     C7    8   0.110  -0.110  -0.161
    1UNL     C8    9   0.109   0.022  -0.166
    1UNL     C9   10   0.237   0.104  -0.168
    1UNL    C10   11  -0.019   0.099  -0.147
    1UNL     O2   12  -0.030   0.158  -0.023
    1UNL    C11   13  -0.164   0.184   0.009
    1UNL     O3   14  -0.253   0.078  -0.018
    1UNL    C12   15  -0.376   0.096   0.042
    1UNL    C13   16  -0.466  -0.033   0.037
    1UNL     O4   17  -0.393  -0.146   0.068
    1UNL    C14   18  -0.364  -0.150   0.205
    1UNL    C15   19  -0.297  -0.270   0.261
    1UNL     O5   20  -0.395  -0.066   0.287
    1UNL    C16   21  -0.457   0.225  -0.005
    1UNL     O6   22  -0.477   0.312   0.100
    1UNL    C17   23  -0.367   0.296  -0.113
    1UNL     O7   24  -0.362   0.211  -0.225
    1UNL    C18   25  -0.222   0.319  -0.050
    1UNL     O8   26  -0.214   0.426   0.039
    1UNL     H1   27   0.683  -0.050   0.061
    1UNL     H2   28   0.633  -0.035   0.246
    1UNL     H3   29   0.440  -0.187   0.204
    1UNL     H4   30   0.636  -0.304  -0.090
    1UNL     H5   31   0.485  -0.368  -0.128
    1UNL     H6   32   0.553  -0.396   0.043
    1UNL     H7   33   0.598  -0.085  -0.111
    1UNL     H8   34   0.279  -0.120   0.047
    1UNL     H9   35   0.280  -0.290   0.051
    1UNL    H10   36   0.311  -0.166  -0.233
    1UNL    H11   37   0.214  -0.296  -0.184
    1UNL    H12   38   0.013  -0.155  -0.158
    1UNL    H13   39   0.302   0.089  -0.261
    1UNL    H14   40   0.212   0.210  -0.175
    1UNL    H15   41   0.296   0.097  -0.077
    1UNL    H16   42  -0.023   0.174  -0.224
    1UNL    H17   43  -0.093   0.023  -0.149
    1UNL    H18   44  -0.163   0.198   0.120
    1UNL    H19   45  -0.346   0.104   0.151
    1UNL    H20   46  -0.550  -0.020   0.103
    1UNL    H21   47  -0.498  -0.060  -0.060
    1UNL    H22   48  -0.197  -0.284   0.221
    1UNL    H23   49  -0.364  -0.363   0.246
    1UNL    H24   50  -0.296  -0.263   0.365
    1UNL    H25   51  -0.547   0.193  -0.052
    1UNL    H26   52  -0.514   0.266   0.178
    1UNL    H27   53  -0.417   0.386  -0.136
    1UNL    H28   54  -0.367   0.124  -0.189
    1UNL    H29   55  -0.152   0.355  -0.129
    1UNL    H30   56  -0.285   0.431   0.099
   0.00000   0.00000   0.00000   0.00000   0.00000   0.00000   0.00000   0.00000   0.00000
Generated with MDTraj, t= 20.0
 56
    1UNL     C1    1   0.609  -0.060   0.129
    1UNL     C2    2   0.504  -0.139   0.118
    1UNL     C3    3   0.452  -0.183  -0.014
    1UNL     C4    4   0.508  -0.328  -0.038
    1UNL     O1    5   0.506  -0.098  -0.115
    1UNL     C5    6   0.303  -0.173  -0.012
    1UNL     C6    7   0.235  -0.196  -0.148
    1UNL     C7    8   0.112  -0.116  -0.169
    1UNL     C8    9   0.108   0.015  -0.166
    1UNL     C9   10   0.228   0.097  -0.159
    1UNL    C10   11  -0.026   0.092  -0.145
    1UNL     O2   12  -0.024   0.182  -0.031
    1UNL    C11   13  -0.153   0.195   0.024
    1UNL     O3   14  -0.239   0.080  -0.003
    1UNL    C12   15  -0.367   0.092   0.046
    1UNL    C13   16  -0.460  -0.033   0.032
    1UNL     O4   17  -0.389  -0.154   0.078
    1UNL    C14   18  -0.371  -0.146   0.210
    1UNL    C15   19  -0.302  -0.266   0.264
    1UNL     O5   20  -0.410  -0.057   0.282
    1UNL    C16   21  -0.445   0.217  -0.017
    1UNL     O6   22  -0.507   0.294   0.080
    1UNL    C17   23  -0.344   0.291  -0.115
    1UNL     O7   24  -0.325   0.204  -0.227
    1UNL    C18   25  -0.212   0.329  -0.035
    1UNL     O8   26  -0.233   0.421   0.066
    1UNL     H1   27   0.674  -0.058   0.047
    1UNL     H2   28   0.642  -0.020   0.221
    1UNL     H3   29   0.442  -0.162   0.204
    1UNL     H4   30   0.605  -0.333  -0.002
    1UNL     H5   31   0.523  -0.360  -0.147
    1UNL     H6   32   0.445  -0.411   0.015
    1UNL     H7   33   0.597  -0.124  -0.134
    1UNL     H8   34   0.273  -0.080   0.019
    1UNL     H9   35   0.273  -0.246   0.064
    1UNL    H10   36   0.310  -0.173  -0.233
    1UNL    H11   37   0.212  -0.306  -0.169
    1UNL    H12   38   0.017  -0.164  -0.163
    1UNL    H13   39   0.238   0.173  -0.243
    1UNL    H14   40   0.218   0.164  -0.074
    1UNL    H15   41   0.326   0.052  -0.146
    1UNL    H16   42  -0.044   0.154  -0.230
    1UNL    H17   43  -0.102   0.022  -0.123
    1UNL    H18   44  -0.136   0.204   0.133
    1UNL    H19   45  -0.350   0.117   0.155
    1UNL    H20   46  -0.551  -0.037   0.085
    1UNL    H21   47  -0.485  -0.039  -0.069
    1UNL    H22   48  -0.292  -0.343   0.187
    1UNL    H23   49  -0.357  -0.310   0.350
    1UNL    H24   50  -0.202  -0.251   0.301
    1UNL    H25   51  -0.517   0.176  -0.084
    1UNL    H26   52  -0.521   0.235   0.164
    1UNL    H27   53  -0.394   0.378  -0.150
    1UNL    H28   54  -0.273   0.123  -0.186
    1UNL    H29   55  -0.135   0.362  -0.110
    1UNL    H30   56  -0.324   0.396   0.098
   0.00000   0.00000   0.00000   0.00000   0.00000   0.00000   0.00000   0.00000   0.00000
Generated with MDTraj, t= 21.0
 56
    1UNL     C1    1   0.597  -0.050   0.122
    1UNL     C2    2   0.527  -0.160   0.116
    1UNL     C3    3   0.465  -0.194  -0.015
    1UNL     C4    4   0.486  -0.346  -0.052
    1UNL     O1    5   0.511  -0.112  -0.118
    1UNL     C5    6   0.311  -0.161  -0.002
    1UNL     C6    7   0.245  -0.174  -0.134
    1UNL     C7    8   0.117  -0.097  -0.146
    1UNL     C8    9   0.109   0.032  -0.162
    1UNL     C9   10   0.225   0.114  -0.195
    1UNL    C10   11  -0.022   0.098  -0.146
    1UNL     O2   12  -0.022   0.166  -0.014
    1UNL    C11   13  -0.156   0.186   0.028
    1UNL     O3   14  -0.244   0.073  -0.006
    1UNL    C12   15  -0.376   0.081   0.038
    1UNL    C13   16  -0.451  -0.051   0.019
    1UNL     O4   17  -0.365  -0.154   0.082
    1UNL    C14   18  -0.374  -0.141   0.220
    1UNL    C15   19  -0.297  -0.242   0.292
    1UNL     O5   20  -0.445  -0.053   0.271
    1UNL    C16   21  -0.451   0.212  -0.031
    1UNL     O6   22  -0.497   0.301   0.069
    1UNL    C17   23  -0.345   0.289  -0.117
    1UNL     O7   24  -0.318   0.222  -0.238
    1UNL    C18   25  -0.219   0.317  -0.030
    1UNL     O8   26  -0.243   0.400   0.089
    1UNL     H1   27   0.622   0.005   0.033
    1UNL     H2   28   0.651  -0.025   0.217
    1UNL     H3   29   0.509  -0.215   0.206
    1UNL     H4   30   0.594  -0.372  -0.075
    1UNL     H5   31   0.436  -0.373  -0.148
    1UNL     H6   32   0.439  -0.414   0.025
    1UNL     H7   33   0.594  -0.151  -0.138
    1UNL     H8   34   0.302  -0.057   0.031
    1UNL     H9   35   0.258  -0.227   0.068
    1UNL    H10   36   0.311  -0.130  -0.222
    1UNL    H11   37   0.225  -0.280  -0.167
    1UNL    H12   38   0.029  -0.153  -0.117
    1UNL    H13   39   0.186   0.216  -0.215
    1UNL    H14   40   0.286   0.120  -0.102
    1UNL    H15   41   0.286   0.069  -0.274
    1UNL    H16   42  -0.047   0.178  -0.212
    1UNL    H17   43  -0.103   0.027  -0.144
    1UNL    H18   44  -0.160   0.214   0.136
    1UNL    H19   45  -0.379   0.114   0.144
    1UNL    H20   46  -0.550  -0.045   0.056
    1UNL    H21   47  -0.460  -0.085  -0.080
    1UNL    H22   48  -0.362  -0.327   0.307
    1UNL    H23   49  -0.264  -0.207   0.387
    1UNL    H24   50  -0.207  -0.282   0.232
    1UNL    H25   51  -0.525   0.182  -0.102
    1UNL    H26   52  -0.525   0.244   0.152
    1UNL    H27   53  -0.385   0.386  -0.136
    1UNL    H28   54  -0.292   0.134  -0.213
    1UNL    H29   55  -0.137   0.371  -0.088
    1UNL    H30   56  -0.346   0.394   0.108
   0.00000   0.00000   0.00000   0.00000   0.00000   0.00000   0.00000   0.00000   0.00000
Generated with MDTraj, t= 22.0
 56
    1UNL     C1    1   0.572  -0.059   0.146
    1UNL     C2    2   0.566  -0.184   0.103
    1UNL     C3    3   0.480  -0.215  -0.018
    1UNL     C4    4   0.490  -0.362  -0.052
    1UNL     O1    5   0.539  -0.146  -0.141
    1UNL     C5    6   0.339  -0.161   0.003
    1UNL     C6    7   0.263  -0.145  -0.123
    1UNL     C7    8   0.141  -0.057  -0.113
    1UNL     C8    9   0.127   0.061  -0.167
    1UNL     C9   10   0.241   0.117  -0.261
    1UNL    C10   11   0.002   0.137  -0.150
    1UNL     O2   12  -0.026   0.162  -0.010
    1UNL    C11   13  -0.164   0.179   0.023
    1UNL     O3   14  -0.247   0.062  -0.004
    1UNL    C12   15  -0.379   0.077   0.041
    1UNL    C13   16  -0.455  -0.057   0.013
    1UNL     O4   17  -0.398  -0.165   0.089
    1UNL    C14   18  -0.403  -0.130   0.220
    1UNL    C15   19  -0.305  -0.209   0.304
    1UNL     O5   20  -0.472  -0.045   0.274
    1UNL    C16   21  -0.456   0.196  -0.028
    1UNL     O6   22  -0.513   0.278   0.074
    1UNL    C17   23  -0.359   0.289  -0.109
    1UNL     O7   24  -0.322   0.234  -0.236
    1UNL    C18   25  -0.231   0.310  -0.021
    1UNL     O8   26  -0.252   0.399   0.089
    1UNL     H1   27   0.524   0.021   0.095
    1UNL     H2   28   0.612  -0.030   0.238
    1UNL     H3   29   0.615  -0.259   0.164
    1UNL     H4   30   0.596  -0.378  -0.110
    1UNL     H5   31   0.413  -0.390  -0.125
    1UNL     H6   32   0.476  -0.427   0.036
    1UNL     H7   33   0.625  -0.176  -0.165
    1UNL     H8   34   0.351  -0.050   0.036
    1UNL     H9   35   0.289  -0.224   0.075
    1UNL    H10   36   0.329  -0.107  -0.213
    1UNL    H11   37   0.222  -0.245  -0.156
    1UNL    H12   38   0.067  -0.096  -0.047
    1UNL    H13   39   0.235   0.224  -0.257
    1UNL    H14   40   0.341   0.093  -0.217
    1UNL    H15   41   0.242   0.077  -0.364
    1UNL    H16   42   0.001   0.234  -0.199
    1UNL    H17   43  -0.093   0.088  -0.172
    1UNL    H18   44  -0.163   0.187   0.133
    1UNL    H19   45  -0.384   0.091   0.148
    1UNL    H20   46  -0.560  -0.061   0.049
    1UNL    H21   47  -0.456  -0.081  -0.093
    1UNL    H22   48  -0.340  -0.201   0.406
    1UNL    H23   49  -0.208  -0.168   0.300
    1UNL    H24   50  -0.305  -0.321   0.277
    1UNL    H25   51  -0.527   0.153  -0.097
    1UNL    H26   52  -0.539   0.225   0.155
    1UNL    H27   53  -0.413   0.381  -0.119
    1UNL    H28   54  -0.324   0.135  -0.234
    1UNL    H29   55  -0.151   0.348  -0.093
    1UNL    H30   56  -0.333   0.372   0.122
   0.00000   0.00000   0.00000   0.00000   0.00000   0.00000   0.00000   0.00000   0.00000
Generated with MDTraj, t= 23.0
 56
    1UNL     C1    1   0.624  -0.090   0.161
    1UNL     C2    2   0.580  -0.202   0.102
    1UNL     C3    3   0.495  -0.211  -0.024
    1UNL     C4    4   0.467  -0.362  -0.057
    1UNL     O1    5   0.560  -0.149  -0.133
    1UNL     C5    6   0.364  -0.124   0.004
    1UNL     C6    7   0.271  -0.132  -0.119
    1UNL     C7    8   0.144  -0.043  -0.111
    1UNL     C8    9   0.121   0.066  -0.179
    1UNL     C9   10   0.212   0.117  -0.284
    1UNL    C10   11  -0.007   0.149  -0.153
    1UNL     O2   12  -0.036   0.161  -0.011
    1UNL    C11   13  -0.170   0.173   0.021
    1UNL     O3   14  -0.246   0.064  -0.036
    1UNL    C12   15  -0.373   0.075   0.025
    1UNL    C13   16  -0.442  -0.065   0.012
    1UNL     O4   17  -0.383  -0.152   0.103
    1UNL    C14   18  -0.415  -0.122   0.231
    1UNL    C15   19  -0.365  -0.220   0.331
    1UNL     O5   20  -0.485  -0.030   0.268
    1UNL    C16   21  -0.452   0.195  -0.028
    1UNL     O6   22  -0.517   0.254   0.088
    1UNL    C17   23  -0.357   0.292  -0.109
    1UNL     O7   24  -0.324   0.228  -0.232
    1UNL    C18   25  -0.226   0.310  -0.020
    1UNL     O8   26  -0.256   0.394   0.093
    1UNL     H1   27   0.596   0.012   0.125
    1UNL     H2   28   0.672  -0.083   0.257
    1UNL     H3   29   0.596  -0.296   0.151
    1UNL     H4   30   0.561  -0.422  -0.047
    1UNL     H5   31   0.442  -0.372  -0.168
    1UNL     H6   32   0.379  -0.399   0.003
    1UNL     H7   33   0.639  -0.197  -0.167
    1UNL     H8   34   0.399  -0.012   0.010
    1UNL     H9   35   0.302  -0.157   0.086
    1UNL    H10   36   0.328  -0.097  -0.208
    1UNL    H11   37   0.246  -0.242  -0.144
    1UNL    H12   38   0.075  -0.080  -0.036
    1UNL    H13   39   0.189   0.209  -0.331
    1UNL    H14   40   0.311   0.140  -0.238
    1UNL    H15   41   0.242   0.045  -0.362
    1UNL    H16   42   0.003   0.258  -0.175
    1UNL    H17   43  -0.095   0.108  -0.204
    1UNL    H18   44  -0.172   0.168   0.131
    1UNL    H19   45  -0.370   0.078   0.133
    1UNL    H20   46  -0.554  -0.070   0.035
    1UNL    H21   47  -0.423  -0.105  -0.090
    1UNL    H22   48  -0.309  -0.160   0.404
    1UNL    H23   49  -0.292  -0.287   0.287
    1UNL    H24   50  -0.448  -0.271   0.379
    1UNL    H25   51  -0.528   0.153  -0.095
    1UNL    H26   52  -0.515   0.195   0.161
    1UNL    H27   53  -0.417   0.385  -0.110
    1UNL    H28   54  -0.290   0.129  -0.221
    1UNL    H29   55  -0.141   0.364  -0.074
    1UNL    H30   56  -0.343   0.352   0.134
   0.00000   0.00000   0.00000   0.00000   0.00000   0.00000   0.00000   0.00000   0.00000
Generated with MDTraj, t= 24.0
 56
    1UNL     C1    1   0.683  -0.138   0.137
    1UNL     C2    2   0.572  -0.210   0.118
    1UNL     C3    3   0.495  -0.204  -0.014
    1UNL     C4    4   0.457  -0.345  -0.057
    1UNL     O1    5   0.563  -0.140  -0.119
    1UNL     C5    6   0.369  -0.110   0.009
    1UNL     C6    7   0.283  -0.100  -0.124
    1UNL     C7    8   0.159  -0.021  -0.109
    1UNL     C8    9   0.120   0.068  -0.194
    1UNL     C9   10   0.191   0.120  -0.311
    1UNL    C10   11  -0.013   0.136  -0.173
    1UNL     O2   12  -0.013   0.190  -0.040
    1UNL    C11   13  -0.143   0.189   0.015
    1UNL     O3   14  -0.213   0.062  -0.018
    1UNL    C12   15  -0.348   0.058   0.032
    1UNL    C13   16  -0.422  -0.080   0.007
    1UNL     O4   17  -0.412  -0.166   0.114
    1UNL    C14   18  -0.455  -0.118   0.239
    1UNL    C15   19  -0.438  -0.214   0.352
    1UNL     O5   20  -0.503  -0.008   0.250
    1UNL    C16   21  -0.444   0.174  -0.016
    1UNL     O6   22  -0.510   0.227   0.095
    1UNL    C17   23  -0.364   0.280  -0.095
    1UNL     O7   24  -0.336   0.237  -0.230
    1UNL    C18   25  -0.225   0.312  -0.022
    1UNL     O8   26  -0.260   0.374   0.105
    1UNL     H1   27   0.729  -0.082   0.063
    1UNL     H2   28   0.738  -0.134   0.229
    1UNL     H3   29   0.523  -0.254   0.204
    1UNL     H4   30   0.542  -0.404  -0.047
    1UNL     H5   31   0.425  -0.345  -0.168
    1UNL     H6   32   0.363  -0.377   0.003
    1UNL     H7   33   0.633  -0.203  -0.162
    1UNL     H8   34   0.392   0.006   0.027
    1UNL     H9   35   0.307  -0.157   0.083
    1UNL    H10   36   0.347  -0.063  -0.202
    1UNL    H11   37   0.254  -0.204  -0.167
    1UNL    H12   38   0.103  -0.045  -0.022
    1UNL    H13   39   0.138   0.204  -0.351
    1UNL    H14   40   0.288   0.160  -0.278
    1UNL    H15   41   0.216   0.042  -0.385
    1UNL    H16   42  -0.026   0.222  -0.246
    1UNL    H17   43  -0.088   0.054  -0.181
    1UNL    H18   44  -0.128   0.197   0.123
    1UNL    H19   45  -0.351   0.073   0.138
    1UNL    H20   46  -0.530  -0.052  -0.020
    1UNL    H21   47  -0.377  -0.132  -0.084
    1UNL    H22   48  -0.327  -0.230   0.364
    1UNL    H23   49  -0.472  -0.314   0.321
    1UNL    H24   50  -0.485  -0.181   0.437
    1UNL    H25   51  -0.522   0.141  -0.089
    1UNL    H26   52  -0.515   0.154   0.167
    1UNL    H27   53  -0.423   0.375  -0.099
    1UNL    H28   54  -0.285   0.157  -0.228
    1UNL    H29   55  -0.166   0.387  -0.086
    1UNL    H30   56  -0.352   0.349   0.116
   0.00000   0.00000   0.00000   0.00000   0.00000   0.00000   0.00000   0.00000   0.00000
Generated with MDTraj, t= 25.0
 56
    1UNL     C1    1   0.697  -0.187   0.131
    1UNL     C2    2   0.570  -0.178   0.118
    1UNL     C3    3   0.500  -0.201  -0.012
    1UNL     C4    4   0.477  -0.347  -0.044
    1UNL     O1    5   0.574  -0.138  -0.126
    1UNL     C5    6   0.367  -0.124   0.002
    1UNL     C6    7   0.311  -0.075  -0.131
    1UNL     C7    8   0.192   0.017  -0.124
    1UNL     C8    9   0.130   0.085  -0.215
    1UNL     C9   10   0.188   0.106  -0.357
    1UNL    C10   11  -0.002   0.154  -0.180
    1UNL     O2   12  -0.008   0.197  -0.046
    1UNL    C11   13  -0.144   0.185   0.001
    1UNL     O3   14  -0.220   0.064  -0.030
    1UNL    C12   15  -0.344   0.055   0.043
    1UNL    C13   16  -0.398  -0.095   0.032
    1UNL     O4   17  -0.391  -0.166   0.151
    1UNL    C14   18  -0.487  -0.125   0.239
    1UNL    C15   19  -0.520  -0.200   0.365
    1UNL     O5   20  -0.557  -0.028   0.226
    1UNL    C16   21  -0.447   0.177  -0.003
    1UNL     O6   22  -0.505   0.233   0.110
    1UNL    C17   23  -0.361   0.277  -0.089
    1UNL     O7   24  -0.329   0.228  -0.222
    1UNL    C18   25  -0.231   0.311  -0.017
    1UNL     O8   26  -0.262   0.365   0.114
    1UNL     H1   27   0.760  -0.210   0.048
    1UNL     H2   28   0.738  -0.171   0.234
    1UNL     H3   29   0.513  -0.167   0.209
    1UNL     H4   30   0.572  -0.385  -0.073
    1UNL     H5   31   0.406  -0.368  -0.125
    1UNL     H6   32   0.434  -0.403   0.046
    1UNL     H7   33   0.644  -0.205  -0.161
    1UNL     H8   34   0.397  -0.028   0.061
    1UNL     H9   35   0.288  -0.183   0.045
    1UNL    H10   36   0.376  -0.027  -0.200
    1UNL    H11   37   0.276  -0.168  -0.190
    1UNL    H12   38   0.158   0.021  -0.020
    1UNL    H13   39   0.115   0.174  -0.403
    1UNL    H14   40   0.280   0.158  -0.343
    1UNL    H15   41   0.207   0.011  -0.407
    1UNL    H16   42  -0.004   0.243  -0.250
    1UNL    H17   43  -0.080   0.076  -0.198
    1UNL    H18   44  -0.121   0.184   0.108
    1UNL    H19   45  -0.314   0.071   0.146
    1UNL    H20   46  -0.511  -0.087   0.012
    1UNL    H21   47  -0.349  -0.137  -0.061
    1UNL    H22   48  -0.474  -0.302   0.355
    1UNL    H23   49  -0.625  -0.231   0.379
    1UNL    H24   50  -0.489  -0.148   0.451
    1UNL    H25   51  -0.524   0.136  -0.074
    1UNL    H26   52  -0.547   0.161   0.167
    1UNL    H27   53  -0.421   0.373  -0.094
    1UNL    H28   54  -0.303   0.136  -0.201
    1UNL    H29   55  -0.170   0.391  -0.075
    1UNL    H30   56  -0.337   0.311   0.145
   0.00000   0.00000   0.00000   0.00000   0.00000   0.00000   0.00000   0.00000   0.00000
Generated with MDTraj, t= 26.0
 56
    1UNL     C1    1   0.696  -0.241   0.121
    1UNL     C2    2   0.585  -0.173   0.112
    1UNL     C3    3   0.507  -0.179  -0.017
    1UNL     C4    4   0.463  -0.319  -0.052
    1UNL     O1    5   0.591  -0.123  -0.120
    1UNL     C5    6   0.378  -0.086  -0.002
    1UNL     C6    7   0.326  -0.053  -0.136
    1UNL     C7    8   0.191   0.017  -0.129
    1UNL     C8    9   0.125   0.074  -0.225
    1UNL     C9   10   0.162   0.088  -0.367
    1UNL    C10   11  -0.001   0.159  -0.183
    1UNL     O2   12   0.002   0.189  -0.044
    1UNL    C11   13  -0.127   0.172   0.017
    1UNL     O3   14  -0.202   0.057  -0.018
    1UNL    C12   15  -0.329   0.053   0.044
    1UNL    C13   16  -0.391  -0.093   0.049
    1UNL     O4   17  -0.406  -0.149   0.181
    1UNL    C14   18  -0.532  -0.120   0.244
    1UNL    C15   19  -0.555  -0.187   0.377
    1UNL     O5   20  -0.616  -0.047   0.196
    1UNL    C16   21  -0.431   0.158  -0.009
    1UNL     O6   22  -0.504   0.202   0.107
    1UNL    C17   23  -0.349   0.269  -0.082
    1UNL     O7   24  -0.326   0.240  -0.221
    1UNL    C18   25  -0.217   0.301  -0.014
    1UNL     O8   26  -0.241   0.378   0.104
    1UNL     H1   27   0.738  -0.307   0.045
    1UNL     H2   28   0.743  -0.231   0.213
    1UNL     H3   29   0.538  -0.118   0.192
    1UNL     H4   30   0.552  -0.390  -0.059
    1UNL     H5   31   0.406  -0.332  -0.139
    1UNL     H6   32   0.395  -0.350   0.024
    1UNL     H7   33   0.687  -0.160  -0.123
    1UNL     H8   34   0.413   0.009   0.045
    1UNL     H9   35   0.305  -0.138   0.059
    1UNL    H10   36   0.392   0.015  -0.186
    1UNL    H11   37   0.312  -0.132  -0.216
    1UNL    H12   38   0.150   0.020  -0.029
    1UNL    H13   39   0.074   0.122  -0.427
    1UNL    H14   40   0.241   0.159  -0.365
    1UNL    H15   41   0.209  -0.003  -0.399
    1UNL    H16   42  -0.001   0.261  -0.229
    1UNL    H17   43  -0.089   0.097  -0.212
    1UNL    H18   44  -0.097   0.170   0.123
    1UNL    H19   45  -0.312   0.084   0.150
    1UNL    H20   46  -0.492  -0.092  -0.001
    1UNL    H21   47  -0.319  -0.165   0.004
    1UNL    H22   48  -0.600  -0.284   0.360
    1UNL    H23   49  -0.634  -0.142   0.436
    1UNL    H24   50  -0.463  -0.183   0.442
    1UNL    H25   51  -0.495   0.101  -0.083
    1UNL    H26   52  -0.547   0.123   0.154
    1UNL    H27   53  -0.420   0.358  -0.081
    1UNL    H28   54  -0.302   0.139  -0.233
    1UNL    H29   55  -0.154   0.365  -0.086
    1UNL    H30   56  -0.302   0.319   0.165
   0.00000   0.00000   0.00000   0.00000   0.00000   0.00000   0.00000   0.00000   0.00000
Generated with MDTraj, t= 27.0
 56
    1UNL     C1    1   0.685  -0.265   0.124
    1UNL     C2    2   0.589  -0.178   0.103
    1UNL     C3    3   0.523  -0.163  -0.029
    1UNL     C4    4   0.470  -0.299  -0.084
    1UNL     O1    5   0.621  -0.122  -0.129
    1UNL     C5    6   0.407  -0.063  -0.020
    1UNL     C6    7   0.323  -0.045  -0.140
    1UNL     C7    8   0.205   0.040  -0.119
    1UNL     C8    9   0.126   0.082  -0.211
    1UNL     C9   10   0.151   0.060  -0.358
    1UNL    C10   11  -0.009   0.132  -0.175
    1UNL     O2   12  -0.010   0.184  -0.042
    1UNL    C11   13  -0.132   0.172   0.027
    1UNL     O3   14  -0.197   0.053   0.003
    1UNL    C12   15  -0.324   0.044   0.060
    1UNL    C13   16  -0.379  -0.101   0.058
    1UNL     O4   17  -0.413  -0.130   0.198
    1UNL    C14   18  -0.537  -0.097   0.222
    1UNL    C15   19  -0.583  -0.138   0.360
    1UNL     O5   20  -0.615  -0.039   0.153
    1UNL    C16   21  -0.428   0.145  -0.002
    1UNL     O6   22  -0.513   0.203   0.106
    1UNL    C17   23  -0.348   0.260  -0.082
    1UNL     O7   24  -0.322   0.215  -0.213
    1UNL    C18   25  -0.222   0.296  -0.002
    1UNL     O8   26  -0.260   0.350   0.128
    1UNL     H1   27   0.695  -0.358   0.066
    1UNL     H2   28   0.728  -0.263   0.224
    1UNL     H3   29   0.558  -0.096   0.165
    1UNL     H4   30   0.547  -0.378  -0.057
    1UNL     H5   31   0.451  -0.304  -0.188
    1UNL     H6   32   0.381  -0.325  -0.041
    1UNL     H7   33   0.713  -0.150  -0.107
    1UNL     H8   34   0.445   0.034   0.006
    1UNL     H9   35   0.340  -0.105   0.056
    1UNL    H10   36   0.380  -0.007  -0.223
    1UNL    H11   37   0.290  -0.139  -0.174
    1UNL    H12   38   0.179   0.052  -0.014
    1UNL    H13   39   0.066   0.079  -0.426
    1UNL    H14   40   0.230   0.121  -0.392
    1UNL    H15   41   0.190  -0.035  -0.382
    1UNL    H16   42  -0.032   0.211  -0.248
    1UNL    H17   43  -0.076   0.044  -0.177
    1UNL    H18   44  -0.107   0.171   0.135
    1UNL    H19   45  -0.321   0.083   0.167
    1UNL    H20   46  -0.465  -0.119  -0.010
    1UNL    H21   47  -0.290  -0.158   0.040
    1UNL    H22   48  -0.686  -0.149   0.358
    1UNL    H23   49  -0.565  -0.065   0.440
    1UNL    H24   50  -0.523  -0.230   0.397
    1UNL    H25   51  -0.500   0.089  -0.069
    1UNL    H26   52  -0.567   0.128   0.133
    1UNL    H27   53  -0.423   0.348  -0.091
    1UNL    H28   54  -0.284   0.119  -0.209
    1UNL    H29   55  -0.166   0.381  -0.054
    1UNL    H30   56  -0.349   0.334   0.137
   0.00000   0.00000   0.00000   0.00000   0.00000   0.00000   0.00000   0.00000   0.00000
Generated with MDTraj, t= 28.0
 56
    1UNL     C1    1   0.701  -0.278   0.111
    1UNL     C2    2   0.609  -0.186   0.099
    1UNL     C3    3   0.543  -0.168  -0.041
    1UNL     C4    4   0.493  -0.307  -0.095
    1UNL     O1    5   0.640  -0.113  -0.128
    1UNL     C5    6   0.420  -0.070  -0.024
    1UNL     C6    7   0.345  -0.010  -0.151
    1UNL     C7    8   0.213   0.056  -0.126
    1UNL     C8    9   0.125   0.087  -0.214
    1UNL     C9   10   0.142   0.038  -0.360
    1UNL    C10   11  -0.015   0.135  -0.172
    1UNL     O2   12  -0.010   0.183  -0.034
    1UNL    C11   13  -0.136   0.175   0.033
    1UNL     O3   14  -0.200   0.046   0.016
    1UNL    C12   15  -0.330   0.043   0.074
    1UNL    C13   16  -0.391  -0.097   0.076
    1UNL     O4   17  -0.433  -0.137   0.211
    1UNL    C14   18  -0.566  -0.093   0.224
    1UNL    C15   19  -0.610  -0.111   0.362
    1UNL     O5   20  -0.639  -0.043   0.140
    1UNL    C16   21  -0.426   0.143  -0.004
    1UNL     O6   22  -0.521   0.203   0.084
    1UNL    C17   23  -0.348   0.253  -0.078
    1UNL     O7   24  -0.299   0.201  -0.199
    1UNL    C18   25  -0.231   0.298   0.003
    1UNL     O8   26  -0.267   0.355   0.126
    1UNL     H1   27   0.720  -0.351   0.040
    1UNL     H2   28   0.730  -0.292   0.215
    1UNL     H3   29   0.569  -0.126   0.180
    1UNL     H4   30   0.577  -0.357  -0.117
    1UNL     H5   31   0.444  -0.289  -0.189
    1UNL     H6   32   0.428  -0.365  -0.034
    1UNL     H7   33   0.717  -0.167  -0.117
    1UNL     H8   34   0.457   0.010   0.028
    1UNL     H9   35   0.344  -0.122   0.035
    1UNL    H10   36   0.412   0.051  -0.208
    1UNL    H11   37   0.333  -0.090  -0.213
    1UNL    H12   38   0.194   0.083  -0.023
    1UNL    H13   39   0.080   0.084  -0.436
    1UNL    H14   40   0.243   0.040  -0.393
    1UNL    H15   41   0.119  -0.065  -0.367
    1UNL    H16   42  -0.063   0.216  -0.225
    1UNL    H17   43  -0.078   0.048  -0.163
    1UNL    H18   44  -0.107   0.165   0.140
    1UNL    H19   45  -0.316   0.079   0.181
    1UNL    H20   46  -0.475  -0.109   0.007
    1UNL    H21   47  -0.306  -0.158   0.064
    1UNL    H22   48  -0.680  -0.033   0.379
    1UNL    H23   49  -0.525  -0.100   0.433
    1UNL    H24   50  -0.652  -0.214   0.371
    1UNL    H25   51  -0.476   0.080  -0.083
    1UNL    H26   52  -0.570   0.129   0.112
    1UNL    H27   53  -0.415   0.344  -0.107
    1UNL    H28   54  -0.252   0.124  -0.178
    1UNL    H29   55  -0.177   0.379  -0.054
    1UNL    H30   56  -0.350   0.307   0.159
   0.00000   0.00000   0.00000   0.00000   0.00000   0.00000   0.00000   0.00000   0.00000
Generated with MDTraj, t= 29.0
 56
    1UNL     C1    1   0.721  -0.262   0.079
    1UNL     C2    2   0.602  -0.207   0.079
    1UNL     C3    3   0.537  -0.159  -0.045
    1UNL     C4    4   0.500  -0.287  -0.122
    1UNL     O1    5   0.632  -0.079  -0.129
    1UNL     C5    6   0.413  -0.071  -0.019
    1UNL     C6    7   0.355  -0.004  -0.139
    1UNL     C7    8   0.226   0.057  -0.109
    1UNL     C8    9   0.134   0.075  -0.195
    1UNL     C9   10   0.146   0.033  -0.333
    1UNL    C10   11  -0.002   0.120  -0.145
    1UNL     O2   12   0.003   0.147  -0.004
    1UNL    C11   13  -0.133   0.151   0.038
    1UNL     O3   14  -0.209   0.033   0.006
    1UNL    C12   15  -0.339   0.041   0.074
    1UNL    C13   16  -0.404  -0.094   0.096
    1UNL     O4   17  -0.455  -0.109   0.232
    1UNL    C14   18  -0.586  -0.086   0.239
    1UNL    C15   19  -0.646  -0.123   0.374
    1UNL     O5   20  -0.651  -0.035   0.148
    1UNL    C16   21  -0.426   0.137  -0.021
    1UNL     O6   22  -0.519   0.203   0.065
    1UNL    C17   23  -0.330   0.245  -0.093
    1UNL     O7   24  -0.301   0.213  -0.229
    1UNL    C18   25  -0.209   0.284  -0.008
    1UNL     O8   26  -0.249   0.363   0.104
    1UNL     H1   27   0.770  -0.286  -0.016
    1UNL     H2   28   0.787  -0.270   0.166
    1UNL     H3   29   0.551  -0.196   0.172
    1UNL     H4   30   0.572  -0.360  -0.135
    1UNL     H5   31   0.450  -0.268  -0.214
    1UNL     H6   32   0.422  -0.326  -0.062
    1UNL     H7   33   0.684  -0.138  -0.179
    1UNL     H8   34   0.443  -0.003   0.051
    1UNL     H9   35   0.351  -0.144   0.036
    1UNL    H10   36   0.419   0.077  -0.167
    1UNL    H11   37   0.348  -0.057  -0.230
    1UNL    H12   38   0.208   0.080  -0.005
    1UNL    H13   39   0.077   0.076  -0.401
    1UNL    H14   40   0.249   0.038  -0.366
    1UNL    H15   41   0.120  -0.070  -0.333
    1UNL    H16   42  -0.036   0.211  -0.191
    1UNL    H17   43  -0.073   0.039  -0.149
    1UNL    H18   44  -0.119   0.146   0.148
    1UNL    H19   45  -0.307   0.092   0.170
    1UNL    H20   46  -0.486  -0.107   0.026
    1UNL    H21   47  -0.334  -0.170   0.092
    1UNL    H22   48  -0.637  -0.034   0.444
    1UNL    H23   49  -0.595  -0.207   0.422
    1UNL    H24   50  -0.748  -0.150   0.360
    1UNL    H25   51  -0.471   0.080  -0.104
    1UNL    H26   52  -0.582   0.127   0.103
    1UNL    H27   53  -0.398   0.339  -0.105
    1UNL    H28   54  -0.243   0.137  -0.222
    1UNL    H29   55  -0.136   0.353  -0.056
    1UNL    H30   56  -0.335   0.322   0.151
   0.00000   0.00000   0.00000   0.00000   0.00000   0.00000   0.00000   0.00000   0.00000
Generated with MDTraj, t= 30.0
 56
    1UNL     C1    1   0.753  -0.243   0.064
    1UNL     C2    2   0.622  -0.222   0.059
    1UNL     C3    3   0.556  -0.158  -0.062
    1UNL     C4    4   0.517  -0.278  -0.156
    1UNL     O1    5   0.645  -0.063  -0.117
    1UNL     C5    6   0.425  -0.086  -0.017
    1UNL     C6    7   0.373   0.000  -0.127
    1UNL     C7    8   0.232   0.037  -0.100
    1UNL     C8    9   0.131   0.055  -0.178
    1UNL     C9   10   0.152   0.033  -0.327
    1UNL    C10   11  -0.003   0.096  -0.135
    1UNL     O2   12  -0.002   0.151  -0.006
    1UNL    C11   13  -0.135   0.154   0.048
    1UNL     O3   14  -0.216   0.034   0.032
    1UNL    C12   15  -0.352   0.050   0.077
    1UNL    C13   16  -0.418  -0.088   0.089
    1UNL     O4   17  -0.474  -0.124   0.216
    1UNL    C14   18  -0.599  -0.072   0.242
    1UNL    C15   19  -0.664  -0.104   0.377
    1UNL     O5   20  -0.660   0.005   0.167
    1UNL    C16   21  -0.425   0.149  -0.026
    1UNL     O6   22  -0.532   0.215   0.039
    1UNL    C17   23  -0.325   0.241  -0.099
    1UNL     O7   24  -0.284   0.172  -0.216
    1UNL    C18   25  -0.213   0.282   0.000
    1UNL     O8   26  -0.277   0.344   0.111
    1UNL     H1   27   0.828  -0.199  -0.001
    1UNL     H2   28   0.799  -0.311   0.128
    1UNL     H3   29   0.570  -0.269   0.141
    1UNL     H4   30   0.610  -0.338  -0.181
    1UNL     H5   31   0.483  -0.239  -0.244
    1UNL     H6   32   0.441  -0.343  -0.127
    1UNL     H7   33   0.683  -0.099  -0.196
    1UNL     H8   34   0.462  -0.035   0.068
    1UNL     H9   35   0.356  -0.159   0.025
    1UNL    H10   36   0.428   0.088  -0.144
    1UNL    H11   37   0.385  -0.058  -0.221
    1UNL    H12   38   0.222   0.057   0.006
    1UNL    H13   39   0.062   0.009  -0.375
    1UNL    H14   40   0.212   0.110  -0.376
    1UNL    H15   41   0.204  -0.061  -0.334
    1UNL    H16   42  -0.041   0.168  -0.205
    1UNL    H17   43  -0.057   0.002  -0.124
    1UNL    H18   44  -0.121   0.159   0.159
    1UNL    H19   45  -0.342   0.106   0.173
    1UNL    H20   46  -0.509  -0.085   0.027
    1UNL    H21   47  -0.354  -0.167   0.061
    1UNL    H22   48  -0.590  -0.076   0.462
    1UNL    H23   49  -0.685  -0.209   0.390
    1UNL    H24   50  -0.753  -0.049   0.391
    1UNL    H25   51  -0.466   0.093  -0.110
    1UNL    H26   52  -0.581   0.150   0.084
    1UNL    H27   53  -0.382   0.337  -0.139
    1UNL    H28   54  -0.360   0.174  -0.284
    1UNL    H29   55  -0.154   0.363  -0.044
    1UNL    H30   56  -0.357   0.290   0.128
   0.00000   0.00000   0.00000   0.00000   0.00000   0.00000   0.00000   0.00000   0.00000
Generated with MDTraj, t= 31.0
 56
    1UNL     C1    1   0.775  -0.232   0.066
    1UNL     C2    2   0.646  -0.236   0.033
    1UNL     C3    3   0.577  -0.155  -0.075
    1UNL     C4    4   0.561  -0.262  -0.189
    1UNL     O1    5   0.651  -0.036  -0.123
    1UNL     C5    6   0.440  -0.109  -0.031
    1UNL     C6    7   0.361  -0.012  -0.124
    1UNL     C7    8   0.223   0.013  -0.077
    1UNL     C8    9   0.122   0.038  -0.155
    1UNL     C9   10   0.129   0.042  -0.306
    1UNL    C10   11  -0.020   0.071  -0.096
    1UNL     O2   12  -0.019   0.134   0.027
    1UNL    C11   13  -0.151   0.147   0.067
    1UNL     O3   14  -0.222   0.028   0.044
    1UNL    C12   15  -0.365   0.045   0.060
    1UNL    C13   16  -0.446  -0.086   0.069
    1UNL     O4   17  -0.480  -0.121   0.202
    1UNL    C14   18  -0.597  -0.056   0.246
    1UNL    C15   19  -0.655  -0.075   0.382
    1UNL     O5   20  -0.655   0.027   0.178
    1UNL    C16   21  -0.429   0.147  -0.044
    1UNL     O6   22  -0.532   0.228   0.012
    1UNL    C17   23  -0.323   0.232  -0.108
    1UNL     O7   24  -0.261   0.171  -0.220
    1UNL    C18   25  -0.220   0.271   0.004
    1UNL     O8   26  -0.285   0.354   0.104
    1UNL     H1   27   0.839  -0.163   0.017
    1UNL     H2   28   0.827  -0.283   0.148
    1UNL     H3   29   0.583  -0.287   0.104
    1UNL     H4   30   0.661  -0.299  -0.228
    1UNL     H5   31   0.502  -0.217  -0.263
    1UNL     H6   32   0.509  -0.348  -0.162
    1UNL     H7   33   0.746  -0.066  -0.128
    1UNL     H8   34   0.438  -0.062   0.070
    1UNL     H9   35   0.380  -0.198  -0.019
    1UNL    H10   36   0.422   0.070  -0.132
    1UNL    H11   37   0.361  -0.059  -0.228
    1UNL    H12   38   0.206   0.027   0.029
    1UNL    H13   39   0.046   0.083  -0.356
    1UNL    H14   40   0.227   0.081  -0.334
    1UNL    H15   41   0.119  -0.063  -0.329
    1UNL    H16   42  -0.068   0.141  -0.163
    1UNL    H17   43  -0.074  -0.025  -0.077
    1UNL    H18   44  -0.138   0.158   0.176
    1UNL    H19   45  -0.385   0.094   0.156
    1UNL    H20   46  -0.552  -0.088   0.028
    1UNL    H21   47  -0.397  -0.172   0.025
    1UNL    H22   48  -0.582  -0.136   0.438
    1UNL    H23   49  -0.747  -0.134   0.380
    1UNL    H24   50  -0.670   0.019   0.434
    1UNL    H25   51  -0.474   0.087  -0.122
    1UNL    H26   52  -0.589   0.164   0.075
    1UNL    H27   53  -0.377   0.331  -0.145
    1UNL    H28   54  -0.280   0.068  -0.220
    1UNL    H29   55  -0.136   0.326  -0.035
    1UNL    H30   56  -0.376   0.327   0.106
   0.00000   0.00000   0.00000   0.00000   0.00000   0.00000   0.00000   0.00000   0.00000
Generated with MDTraj, t= 32.0
 56
    1UNL     C1    1   0.807  -0.204   0.049
    1UNL     C2    2   0.678  -0.234   0.014
    1UNL     C3    3   0.586  -0.151  -0.080
    1UNL     C4    4   0.585  -0.225  -0.219
    1UNL     O1    5   0.632  -0.016  -0.095
    1UNL     C5    6   0.439  -0.140  -0.028
    1UNL     C6    7   0.346  -0.057  -0.115
    1UNL     C7    8   0.216  -0.013  -0.060
    1UNL     C8    9   0.125   0.029  -0.141
    1UNL     C9   10   0.148   0.062  -0.286
    1UNL    C10   11  -0.012   0.054  -0.091
    1UNL     O2   12  -0.026   0.108   0.042
    1UNL    C11   13  -0.164   0.128   0.080
    1UNL     O3   14  -0.249   0.019   0.045
    1UNL    C12   15  -0.393   0.046   0.050
    1UNL    C13   16  -0.480  -0.077   0.059
    1UNL     O4   17  -0.500  -0.109   0.192
    1UNL    C14   18  -0.596  -0.039   0.248
    1UNL    C15   19  -0.633  -0.060   0.393
    1UNL     O5   20  -0.655   0.048   0.193
    1UNL    C16   21  -0.438   0.147  -0.055
    1UNL     O6   22  -0.533   0.232   0.002
    1UNL    C17   23  -0.318   0.226  -0.113
    1UNL     O7   24  -0.261   0.160  -0.226
    1UNL    C18   25  -0.210   0.259   0.003
    1UNL     O8   26  -0.265   0.359   0.091
    1UNL     H1   27   0.843  -0.107   0.034
    1UNL     H2   28   0.876  -0.263   0.108
    1UNL     H3   29   0.639  -0.334   0.027
    1UNL     H4   30   0.681  -0.259  -0.251
    1UNL     H5   31   0.530  -0.162  -0.292
    1UNL     H6   32   0.521  -0.314  -0.212
    1UNL     H7   33   0.732  -0.022  -0.117
    1UNL     H8   34   0.436  -0.085   0.073
    1UNL     H9   35   0.401  -0.236  -0.005
    1UNL    H10   36   0.396   0.031  -0.145
    1UNL    H11   37   0.325  -0.120  -0.211
    1UNL    H12   38   0.192  -0.021   0.046
    1UNL    H13   39   0.088   0.140  -0.328
    1UNL    H14   40   0.250   0.074  -0.319
    1UNL    H15   41   0.097  -0.014  -0.344
    1UNL    H16   42  -0.065   0.120  -0.160
    1UNL    H17   43  -0.064  -0.045  -0.078
    1UNL    H18   44  -0.173   0.150   0.188
    1UNL    H19   45  -0.419   0.095   0.143
    1UNL    H20   46  -0.586  -0.072   0.012
    1UNL    H21   47  -0.428  -0.166   0.019
    1UNL    H22   48  -0.631  -0.161   0.416
    1UNL    H23   49  -0.740  -0.036   0.415
    1UNL    H24   50  -0.563  -0.006   0.461
    1UNL    H25   51  -0.488   0.090  -0.132
    1UNL    H26   52  -0.582   0.181   0.063
    1UNL    H27   53  -0.369   0.324  -0.156
    1UNL    H28   54  -0.259   0.060  -0.210
    1UNL    H29   55  -0.118   0.296  -0.038
    1UNL    H30   56  -0.370   0.361   0.079
   0.00000   0.00000   0.00000   0.00000   0.00000   0.00000   0.00000   0.00000   0.00000
Generated with MDTraj, t= 33.0
 56
    1UNL     C1    1   0.804  -0.179   0.055
    1UNL     C2    2   0.691  -0.225   0.003
    1UNL     C3    3   0.594  -0.141  -0.083
    1UNL     C4    4   0.609  -0.194  -0.228
    1UNL     O1    5   0.625  -0.002  -0.082
    1UNL     C5    6   0.446  -0.166  -0.036
    1UNL     C6    7   0.366  -0.062  -0.108
    1UNL     C7    8   0.216  -0.059  -0.071
    1UNL     C8    9   0.124   0.007  -0.141
    1UNL     C9   10   0.186   0.091  -0.250
    1UNL    C10   11  -0.021   0.011  -0.099
    1UNL     O2   12  -0.038   0.088   0.021
    1UNL    C11   13  -0.172   0.115   0.057
    1UNL     O3   14  -0.258   0.007   0.031
    1UNL    C12   15  -0.403   0.042   0.043
    1UNL    C13   16  -0.499  -0.072   0.056
    1UNL     O4   17  -0.518  -0.107   0.185
    1UNL    C14   18  -0.598  -0.011   0.254
    1UNL    C15   19  -0.630  -0.054   0.393
    1UNL     O5   20  -0.637   0.094   0.211
    1UNL    C16   21  -0.447   0.166  -0.046
    1UNL     O6   22  -0.524   0.259   0.023
    1UNL    C17   23  -0.323   0.225  -0.119
    1UNL     O7   24  -0.285   0.126  -0.214
    1UNL    C18   25  -0.216   0.247  -0.009
    1UNL     O8   26  -0.266   0.336   0.094
    1UNL     H1   27   0.832  -0.074   0.037
    1UNL     H2   28   0.863  -0.248   0.114
    1UNL     H3   29   0.657  -0.326   0.021
    1UNL     H4   30   0.707  -0.206  -0.251
    1UNL     H5   31   0.566  -0.113  -0.296
    1UNL     H6   32   0.554  -0.291  -0.260
    1UNL     H7   33   0.724   0.008  -0.111
    1UNL     H8   34   0.450  -0.144   0.078
    1UNL     H9   35   0.409  -0.265  -0.038
    1UNL    H10   36   0.395   0.036  -0.092
    1UNL    H11   37   0.362  -0.066  -0.225
    1UNL    H12   38   0.185  -0.113   0.016
    1UNL    H13   39   0.117   0.142  -0.315
    1UNL    H14   40   0.264   0.153  -0.215
    1UNL    H15   41   0.231   0.029  -0.326
    1UNL    H16   42  -0.082   0.064  -0.172
    1UNL    H17   43  -0.057  -0.095  -0.080
    1UNL    H18   44  -0.179   0.134   0.164
    1UNL    H19   45  -0.412   0.090   0.137
    1UNL    H20   46  -0.603  -0.046   0.011
    1UNL    H21   47  -0.455  -0.159   0.004
    1UNL    H22   48  -0.688  -0.138   0.393
    1UNL    H23   49  -0.701   0.021   0.437
    1UNL    H24   50  -0.535  -0.063   0.451
    1UNL    H25   51  -0.516   0.134  -0.124
    1UNL    H26   52  -0.582   0.211   0.095
    1UNL    H27   53  -0.347   0.323  -0.181
    1UNL    H28   54  -0.290   0.042  -0.172
    1UNL    H29   55  -0.128   0.285  -0.057
    1UNL    H30   56  -0.354   0.311   0.110
   0.00000   0.00000   0.00000   0.00000   0.00000   0.00000   0.00000   0.00000   0.00000
Generated with MDTraj, t= 34.0
 56
    1UNL     C1    1   0.792  -0.174   0.089
    1UNL     C2    2   0.696  -0.221   0.011
    1UNL     C3    3   0.606  -0.142  -0.083
    1UNL     C4    4   0.650  -0.179  -0.230
    1UNL     O1    5   0.641  -0.003  -0.064
    1UNL     C5    6   0.457  -0.156  -0.063
    1UNL     C6    7   0.363  -0.051  -0.135
    1UNL     C7    8   0.219  -0.074  -0.103
    1UNL     C8    9   0.126   0.011  -0.137
    1UNL     C9   10   0.149   0.134  -0.220
    1UNL    C10   11  -0.021  -0.018  -0.095
    1UNL     O2   12  -0.043   0.039   0.031
    1UNL    C11   13  -0.177   0.088   0.044
    1UNL     O3   14  -0.284  -0.003   0.015
    1UNL    C12   15  -0.418   0.048   0.047
    1UNL    C13   16  -0.514  -0.065   0.060
    1UNL     O4   17  -0.545  -0.103   0.194
    1UNL    C14   18  -0.604  -0.007   0.272
    1UNL    C15   19  -0.639  -0.055   0.413
    1UNL     O5   20  -0.631   0.106   0.246
    1UNL    C16   21  -0.451   0.166  -0.048
    1UNL     O6   22  -0.500   0.267   0.029
    1UNL    C17   23  -0.324   0.216  -0.128
    1UNL     O7   24  -0.303   0.139  -0.240
    1UNL    C18   25  -0.205   0.230  -0.032
    1UNL     O8   26  -0.220   0.342   0.059
    1UNL     H1   27   0.804  -0.068   0.079
    1UNL     H2   28   0.852  -0.246   0.139
    1UNL     H3   29   0.672  -0.326   0.014
    1UNL     H4   30   0.756  -0.160  -0.256
    1UNL     H5   31   0.575  -0.140  -0.302
    1UNL     H6   32   0.641  -0.291  -0.237
    1UNL     H7   33   0.739   0.018  -0.081
    1UNL     H8   34   0.420  -0.151   0.045
    1UNL     H9   35   0.427  -0.252  -0.103
    1UNL    H10   36   0.385   0.049  -0.110
    1UNL    H11   37   0.375  -0.051  -0.251
    1UNL    H12   38   0.182  -0.159  -0.049
    1UNL    H13   39   0.061   0.150  -0.282
    1UNL    H14   40   0.159   0.214  -0.154
    1UNL    H15   41   0.236   0.129  -0.281
    1UNL    H16   42  -0.090   0.029  -0.167
    1UNL    H17   43  -0.045  -0.127  -0.080
    1UNL    H18   44  -0.187   0.102   0.151
    1UNL    H19   45  -0.409   0.083   0.149
    1UNL    H20   46  -0.611  -0.018   0.021
    1UNL    H21   47  -0.477  -0.142  -0.009
    1UNL    H22   48  -0.742  -0.093   0.419
    1UNL    H23   49  -0.647   0.026   0.486
    1UNL    H24   50  -0.566  -0.131   0.444
    1UNL    H25   51  -0.526   0.126  -0.119
    1UNL    H26   52  -0.544   0.229   0.103
    1UNL    H27   53  -0.344   0.329  -0.157
    1UNL    H28   54  -0.282   0.045  -0.200
    1UNL    H29   55  -0.112   0.251  -0.083
    1UNL    H30   56  -0.304   0.331   0.115
   0.00000   0.00000   0.00000   0.00000   0.00000   0.00000   0.00000   0.00000   0.00000
Generated with MDTraj, t= 35.0
 56
    1UNL     C1    1   0.734  -0.166   0.113
    1UNL     C2    2   0.675  -0.222   0.007
    1UNL     C3    3   0.608  -0.118  -0.090
    1UNL     C4    4   0.643  -0.154  -0.233
    1UNL     O1    5   0.644   0.012  -0.049
    1UNL     C5    6   0.460  -0.144  -0.072
    1UNL     C6    7   0.369  -0.055  -0.157
    1UNL     C7    8   0.222  -0.079  -0.136
    1UNL     C8    9   0.120   0.004  -0.138
    1UNL     C9   10   0.150   0.144  -0.177
    1UNL    C10   11  -0.018  -0.035  -0.099
    1UNL     O2   12  -0.053   0.010   0.031
    1UNL    C11   13  -0.176   0.077   0.038
    1UNL     O3   14  -0.283  -0.011   0.010
    1UNL    C12   15  -0.414   0.049   0.053
    1UNL    C13   16  -0.526  -0.054   0.058
    1UNL     O4   17  -0.553  -0.102   0.188
    1UNL    C14   18  -0.603  -0.003   0.275
    1UNL    C15   19  -0.629  -0.047   0.415
    1UNL     O5   20  -0.620   0.112   0.238
    1UNL    C16   21  -0.445   0.176  -0.029
    1UNL     O6   22  -0.468   0.295   0.047
    1UNL    C17   23  -0.323   0.205  -0.134
    1UNL     O7   24  -0.323   0.105  -0.232
    1UNL    C18   25  -0.192   0.216  -0.049
    1UNL     O8   26  -0.188   0.317   0.048
    1UNL     H1   27   0.722  -0.063   0.140
    1UNL     H2   28   0.794  -0.235   0.174
    1UNL     H3   29   0.687  -0.324  -0.030
    1UNL     H4   30   0.762  -0.147  -0.244
    1UNL     H5   31   0.593  -0.082  -0.296
    1UNL     H6   32   0.613  -0.257  -0.260
    1UNL     H7   33   0.741   0.016  -0.058
    1UNL     H8   34   0.429  -0.117   0.032
    1UNL     H9   35   0.421  -0.246  -0.096
    1UNL    H10   36   0.398   0.047  -0.140
    1UNL    H11   37   0.391  -0.082  -0.264
    1UNL    H12   38   0.194  -0.179  -0.108
    1UNL    H13   39   0.066   0.186  -0.234
    1UNL    H14   40   0.144   0.202  -0.090
    1UNL    H15   41   0.239   0.169  -0.228
    1UNL    H16   42  -0.092   0.011  -0.165
    1UNL    H17   43  -0.023  -0.147  -0.101
    1UNL    H18   44  -0.191   0.094   0.145
    1UNL    H19   45  -0.407   0.088   0.156
    1UNL    H20   46  -0.613  -0.006   0.008
    1UNL    H21   47  -0.490  -0.132  -0.004
    1UNL    H22   48  -0.727   0.003   0.453
    1UNL    H23   49  -0.561  -0.003   0.481
    1UNL    H24   50  -0.625  -0.155   0.424
    1UNL    H25   51  -0.536   0.160  -0.094
    1UNL    H26   52  -0.534   0.269   0.121
    1UNL    H27   53  -0.344   0.303  -0.195
    1UNL    H28   54  -0.322   0.022  -0.188
    1UNL    H29   55  -0.111   0.232  -0.118
    1UNL    H30   56  -0.279   0.351   0.056
   0.00000   0.00000   0.00000   0.00000   0.00000   0.00000   0.00000   0.00000   0.00000
Generated with MDTraj, t= 36.0
 56
    1UNL     C1    1   0.660  -0.184   0.133
    1UNL     C2    2   0.692  -0.180   0.003
    1UNL     C3    3   0.603  -0.115  -0.091
    1UNL     C4    4   0.650  -0.136  -0.235
    1UNL     O1    5   0.610   0.030  -0.062
    1UNL     C5    6   0.456  -0.156  -0.084
    1UNL     C6    7   0.364  -0.059  -0.151
    1UNL     C7    8   0.216  -0.096  -0.125
    1UNL     C8    9   0.126   0.003  -0.144
    1UNL     C9   10   0.158   0.142  -0.176
    1UNL    C10   11  -0.014  -0.026  -0.117
    1UNL     O2   12  -0.045   0.012   0.019
    1UNL    C11   13  -0.171   0.064   0.039
    1UNL     O3   14  -0.283  -0.018   0.014
    1UNL    C12   15  -0.407   0.042   0.056
    1UNL    C13   16  -0.531  -0.053   0.063
    1UNL     O4   17  -0.574  -0.096   0.188
    1UNL    C14   18  -0.602   0.005   0.268
    1UNL    C15   19  -0.621  -0.033   0.409
    1UNL     O5   20  -0.604   0.123   0.237
    1UNL    C16   21  -0.428   0.171  -0.027
    1UNL     O6   22  -0.452   0.280   0.061
    1UNL    C17   23  -0.307   0.196  -0.127
    1UNL     O7   24  -0.322   0.097  -0.224
    1UNL    C18   25  -0.184   0.204  -0.046
    1UNL     O8   26  -0.178   0.310   0.038
    1UNL     H1   27   0.572  -0.140   0.172
    1UNL     H2   28   0.713  -0.247   0.202
    1UNL     H3   29   0.782  -0.224  -0.037
    1UNL     H4   30   0.759  -0.110  -0.239
    1UNL     H5   31   0.595  -0.071  -0.307
    1UNL     H6   32   0.638  -0.244  -0.264
    1UNL     H7   33   0.695   0.067  -0.057
    1UNL     H8   34   0.418  -0.159   0.019
    1UNL     H9   35   0.449  -0.263  -0.126
    1UNL    H10   36   0.360   0.037  -0.100
    1UNL    H11   37   0.378  -0.043  -0.255
    1UNL    H12   38   0.175  -0.193  -0.106
    1UNL    H13   39   0.087   0.204  -0.232
    1UNL    H14   40   0.161   0.190  -0.082
    1UNL    H15   41   0.251   0.158  -0.223
    1UNL    H16   42  -0.080   0.030  -0.182
    1UNL    H17   43  -0.039  -0.133  -0.118
    1UNL    H18   44  -0.184   0.084   0.146
    1UNL    H19   45  -0.388   0.072   0.163
    1UNL    H20   46  -0.612  -0.007   0.009
    1UNL    H21   47  -0.492  -0.132   0.006
    1UNL    H22   48  -0.655   0.063   0.463
    1UNL    H23   49  -0.530  -0.052   0.458
    1UNL    H24   50  -0.686  -0.118   0.424
    1UNL    H25   51  -0.519   0.157  -0.095
    1UNL    H26   52  -0.500   0.248   0.135
    1UNL    H27   53  -0.320   0.299  -0.182
    1UNL    H28   54  -0.309   0.005  -0.181
    1UNL    H29   55  -0.103   0.224  -0.113
    1UNL    H30   56  -0.256   0.325   0.087
   0.00000   0.00000   0.00000   0.00000   0.00000   0.00000   0.00000   0.00000   0.00000
Generated with MDTraj, t= 37.0
 56
    1UNL     C1    1   0.649  -0.174   0.145
    1UNL     C2    2   0.673  -0.192   0.016
    1UNL     C3    3   0.607  -0.107  -0.090
    1UNL     C4    4   0.699  -0.116  -0.217
    1UNL     O1    5   0.595   0.024  -0.042
    1UNL     C5    6   0.464  -0.167  -0.117
    1UNL     C6    7   0.366  -0.064  -0.179
    1UNL     C7    8   0.217  -0.095  -0.136
    1UNL     C8    9   0.110  -0.014  -0.162
    1UNL     C9   10   0.130   0.125  -0.232
    1UNL    C10   11  -0.024  -0.042  -0.107
    1UNL     O2   12  -0.041   0.010   0.029
    1UNL    C11   13  -0.168   0.063   0.046
    1UNL     O3   14  -0.274  -0.026   0.011
    1UNL    C12   15  -0.403   0.042   0.052
    1UNL    C13   16  -0.529  -0.042   0.070
    1UNL     O4   17  -0.539  -0.093   0.199
    1UNL    C14   18  -0.590   0.007   0.279
    1UNL    C15   19  -0.647  -0.033   0.413
    1UNL     O5   20  -0.602   0.123   0.240
    1UNL    C16   21  -0.433   0.171  -0.032
    1UNL     O6   22  -0.477   0.282   0.047
    1UNL    C17   23  -0.306   0.207  -0.120
    1UNL     O7   24  -0.295   0.121  -0.232
    1UNL    C18   25  -0.184   0.211  -0.032
    1UNL     O8   26  -0.183   0.309   0.064
    1UNL     H1   27   0.576  -0.101   0.187
    1UNL     H2   28   0.708  -0.219   0.220
    1UNL     H3   29   0.746  -0.270  -0.000
    1UNL     H4   30   0.799  -0.092  -0.196
    1UNL     H5   31   0.669  -0.044  -0.304
    1UNL     H6   32   0.698  -0.223  -0.260
    1UNL     H7   33   0.678   0.057  -0.017
    1UNL     H8   34   0.424  -0.205  -0.024
    1UNL     H9   35   0.460  -0.263  -0.186
    1UNL    H10   36   0.388   0.041  -0.153
    1UNL    H11   37   0.358  -0.069  -0.283
    1UNL    H12   38   0.191  -0.181  -0.078
    1UNL    H13   39   0.041   0.172  -0.271
    1UNL    H14   40   0.156   0.190  -0.153
    1UNL    H15   41   0.207   0.122  -0.305
    1UNL    H16   42  -0.105   0.000  -0.163
    1UNL    H17   43  -0.040  -0.150  -0.103
    1UNL    H18   44  -0.185   0.060   0.156
    1UNL    H19   45  -0.384   0.074   0.159
    1UNL    H20   46  -0.613   0.025   0.054
    1UNL    H21   47  -0.531  -0.120   0.001
    1UNL    H22   48  -0.645   0.055   0.477
    1UNL    H23   49  -0.575  -0.100   0.464
    1UNL    H24   50  -0.745  -0.078   0.402
    1UNL    H25   51  -0.519   0.137  -0.100
    1UNL    H26   52  -0.543   0.250   0.124
    1UNL    H27   53  -0.314   0.316  -0.162
    1UNL    H28   54  -0.316   0.030  -0.206
    1UNL    H29   55  -0.097   0.225  -0.094
    1UNL    H30   56  -0.283   0.342   0.080
   0.00000   0.00000   0.00000   0.00000   0.00000   0.00000   0.00000   0.00000   0.00000
Generated with MDTraj, t= 38.0
 56
    1UNL     C1    1   0.669  -0.175   0.148
    1UNL     C2    2   0.661  -0.197   0.018
    1UNL     C3    3   0.588  -0.107  -0.077
    1UNL     C4    4   0.669  -0.099  -0.205
    1UNL     O1    5   0.576   0.028  -0.028
    1UNL     C5    6   0.450  -0.161  -0.101
    1UNL     C6    7   0.352  -0.061  -0.183
    1UNL     C7    8   0.210  -0.096  -0.148
    1UNL     C8    9   0.101  -0.033  -0.190
    1UNL     C9   10   0.120   0.084  -0.286
    1UNL    C10   11  -0.020  -0.056  -0.118
    1UNL     O2   12  -0.017   0.024   0.002
    1UNL    C11   13  -0.146   0.065   0.044
    1UNL     O3   14  -0.263  -0.013   0.022
    1UNL    C12   15  -0.387   0.053   0.063
    1UNL    C13   16  -0.510  -0.033   0.066
    1UNL     O4   17  -0.533  -0.088   0.193
    1UNL    C14   18  -0.592   0.004   0.276
    1UNL    C15   19  -0.635  -0.034   0.414
    1UNL     O5   20  -0.620   0.116   0.237
    1UNL    C16   21  -0.422   0.163  -0.033
    1UNL     O6   22  -0.489   0.271   0.034
    1UNL    C17   23  -0.292   0.215  -0.107
    1UNL     O7   24  -0.267   0.130  -0.214
    1UNL    C18   25  -0.179   0.219  -0.008
    1UNL     O8   26  -0.208   0.309   0.092
    1UNL     H1   27   0.632  -0.089   0.198
    1UNL     H2   28   0.718  -0.241   0.218
    1UNL     H3   29   0.707  -0.291  -0.009
    1UNL     H4   30   0.767  -0.057  -0.201
    1UNL     H5   31   0.613  -0.049  -0.291
    1UNL     H6   32   0.683  -0.208  -0.239
    1UNL     H7   33   0.658   0.067   0.005
    1UNL     H8   34   0.400  -0.185  -0.009
    1UNL     H9   35   0.447  -0.260  -0.165
    1UNL    H10   36   0.363   0.048  -0.161
    1UNL    H11   37   0.364  -0.080  -0.282
    1UNL    H12   38   0.182  -0.171  -0.078
    1UNL    H13   39   0.024   0.131  -0.305
    1UNL    H14   40   0.171   0.162  -0.234
    1UNL    H15   41   0.171   0.064  -0.379
    1UNL    H16   42  -0.101  -0.024  -0.181
    1UNL    H17   43  -0.034  -0.159  -0.086
    1UNL    H18   44  -0.154   0.076   0.156
    1UNL    H19   45  -0.375   0.098   0.166
    1UNL    H20   46  -0.597   0.034   0.051
    1UNL    H21   47  -0.514  -0.106  -0.010
    1UNL    H22   48  -0.572   0.012   0.482
    1UNL    H23   49  -0.605  -0.145   0.424
    1UNL    H24   50  -0.742  -0.019   0.428
    1UNL    H25   51  -0.497   0.136  -0.114
    1UNL    H26   52  -0.537   0.232   0.107
    1UNL    H27   53  -0.302   0.322  -0.151
    1UNL    H28   54  -0.273   0.036  -0.178
    1UNL    H29   55  -0.094   0.265  -0.060
    1UNL    H30   56  -0.305   0.306   0.102
   0.00000   0.00000   0.00000   0.00000   0.00000   0.00000   0.00000   0.00000   0.00000
Generated with MDTraj, t= 39.0
 56
    1UNL     C1    1   0.680  -0.177   0.142
    1UNL     C2    2   0.667  -0.181   0.007
    1UNL     C3    3   0.569  -0.102  -0.074
    1UNL     C4    4   0.618  -0.093  -0.219
    1UNL     O1    5   0.563   0.033  -0.021
    1UNL     C5    6   0.435  -0.165  -0.061
    1UNL     C6    7   0.335  -0.100  -0.164
    1UNL     C7    8   0.193  -0.088  -0.114
    1UNL     C8    9   0.110  -0.017  -0.191
    1UNL     C9   10   0.149   0.027  -0.321
    1UNL    C10   11  -0.029   0.006  -0.133
    1UNL     O2   12  -0.026   0.018   0.007
    1UNL    C11   13  -0.151   0.065   0.047
    1UNL     O3   14  -0.262  -0.016   0.009
    1UNL    C12   15  -0.385   0.044   0.054
    1UNL    C13   16  -0.492  -0.063   0.068
    1UNL     O4   17  -0.518  -0.104   0.197
    1UNL    C14   18  -0.583  -0.003   0.259
    1UNL    C15   19  -0.614  -0.014   0.408
    1UNL     O5   20  -0.622   0.098   0.205
    1UNL    C16   21  -0.413   0.177  -0.023
    1UNL     O6   22  -0.483   0.272   0.060
    1UNL    C17   23  -0.284   0.228  -0.103
    1UNL     O7   24  -0.271   0.153  -0.225
    1UNL    C18   25  -0.173   0.223  -0.000
    1UNL     O8   26  -0.200   0.311   0.106
    1UNL     H1   27   0.618  -0.126   0.211
    1UNL     H2   28   0.757  -0.237   0.193
    1UNL     H3   29   0.748  -0.228  -0.046
    1UNL     H4   30   0.725  -0.049  -0.213
    1UNL     H5   31   0.564  -0.021  -0.280
    1UNL     H6   32   0.630  -0.188  -0.276
    1UNL     H7   33   0.655   0.072  -0.010
    1UNL     H8   34   0.395  -0.152   0.041
    1UNL     H9   35   0.433  -0.276  -0.085
    1UNL    H10   36   0.368   0.005  -0.170
    1UNL    H11   37   0.331  -0.143  -0.259
    1UNL    H12   38   0.141  -0.138  -0.032
    1UNL    H13   39   0.057   0.043  -0.372
    1UNL    H14   40   0.183   0.130  -0.319
    1UNL    H15   41   0.228  -0.021  -0.380
    1UNL    H16   42  -0.070   0.098  -0.175
    1UNL    H17   43  -0.082  -0.085  -0.158
    1UNL    H18   44  -0.157   0.052   0.160
    1UNL    H19   45  -0.366   0.075   0.160
    1UNL    H20   46  -0.597  -0.029   0.038
    1UNL    H21   47  -0.471  -0.151   0.008
    1UNL    H22   48  -0.522  -0.018   0.459
    1UNL    H23   49  -0.655  -0.117   0.429
    1UNL    H24   50  -0.684   0.062   0.444
    1UNL    H25   51  -0.492   0.150  -0.097
    1UNL    H26   52  -0.549   0.222   0.121
    1UNL    H27   53  -0.289   0.338  -0.139
    1UNL    H28   54  -0.282   0.059  -0.204
    1UNL    H29   55  -0.074   0.247  -0.045
    1UNL    H30   56  -0.295   0.312   0.120
   0.00000   0.00000   0.00000   0.00000   0.00000   0.00000   0.00000   0.00000   0.00000
Generated with MDTraj, t= 40.0
 56
    1UNL     C1    1   0.681  -0.168   0.155
    1UNL     C2    2   0.686  -0.175   0.022
    1UNL     C3    3   0.587  -0.104  -0.064
    1UNL     C4    4   0.623  -0.124  -0.214
    1UNL     O1    5   0.593   0.034  -0.038
    1UNL     C5    6   0.434  -0.154  -0.045
    1UNL     C6    7   0.343  -0.112  -0.161
    1UNL     C7    8   0.198  -0.089  -0.122
    1UNL     C8    9   0.105  -0.032  -0.202
    1UNL     C9   10   0.145  -0.011  -0.350
    1UNL    C10   11  -0.031   0.008  -0.147
    1UNL     O2   12  -0.019   0.046  -0.013
    1UNL    C11   13  -0.143   0.083   0.034
    1UNL     O3   14  -0.254   0.004  -0.009
    1UNL    C12   15  -0.382   0.045   0.054
    1UNL    C13   16  -0.492  -0.056   0.060
    1UNL     O4   17  -0.527  -0.098   0.184
    1UNL    C14   18  -0.601  -0.012   0.265
    1UNL    C15   19  -0.604  -0.037   0.410
    1UNL     O5   20  -0.658   0.083   0.221
    1UNL    C16   21  -0.425   0.178  -0.011
    1UNL     O6   22  -0.478   0.267   0.078
    1UNL    C17   23  -0.305   0.243  -0.092
    1UNL     O7   24  -0.281   0.174  -0.209
    1UNL    C18   25  -0.179   0.235  -0.002
    1UNL     O8   26  -0.206   0.304   0.116
    1UNL     H1   27   0.600  -0.124   0.211
    1UNL     H2   28   0.761  -0.210   0.210
    1UNL     H3   29   0.770  -0.224  -0.027
    1UNL     H4   30   0.741  -0.113  -0.225
    1UNL     H5   31   0.578  -0.044  -0.269
    1UNL     H6   32   0.604  -0.223  -0.253
    1UNL     H7   33   0.691   0.067  -0.033
    1UNL     H8   34   0.380  -0.111   0.043
    1UNL     H9   35   0.440  -0.265  -0.031
    1UNL    H10   36   0.381  -0.015  -0.197
    1UNL    H11   37   0.347  -0.188  -0.239
    1UNL    H12   38   0.163  -0.121  -0.027
    1UNL    H13   39   0.058   0.030  -0.395
    1UNL    H14   40   0.224   0.062  -0.368
    1UNL    H15   41   0.187  -0.099  -0.402
    1UNL    H16   42  -0.053   0.100  -0.202
    1UNL    H17   43  -0.103  -0.073  -0.154
    1UNL    H18   44  -0.150   0.068   0.145
    1UNL    H19   45  -0.358   0.071   0.157
    1UNL    H20   46  -0.593  -0.016   0.017
    1UNL    H21   47  -0.468  -0.152   0.012
    1UNL    H22   48  -0.512  -0.088   0.444
    1UNL    H23   49  -0.683  -0.103   0.436
    1UNL    H24   50  -0.620   0.058   0.464
    1UNL    H25   51  -0.510   0.149  -0.075
    1UNL    H26   52  -0.541   0.220   0.129
    1UNL    H27   53  -0.326   0.352  -0.118
    1UNL    H28   54  -0.292   0.077  -0.184
    1UNL    H29   55  -0.085   0.280  -0.047
    1UNL    H30   56  -0.311   0.305   0.135
   0.00000   0.00000   0.00000   0.00000   0.00000   0.00000   0.00000   0.00000   0.00000
Generated with MDTraj, t= 41.0
 56
    1UNL     C1    1   0.660  -0.120   0.170
    1UNL     C2    2   0.658  -0.185   0.055
    1UNL     C3    3   0.598  -0.126  -0.069
    1UNL     C4    4   0.655  -0.184  -0.204
    1UNL     O1    5   0.626   0.017  -0.068
    1UNL     C5    6   0.440  -0.143  -0.070
    1UNL     C6    7   0.351  -0.063  -0.167
    1UNL     C7    8   0.208  -0.042  -0.115
    1UNL     C8    9   0.107  -0.038  -0.206
    1UNL     C9   10   0.118  -0.037  -0.354
    1UNL    C10   11  -0.022  -0.022  -0.147
    1UNL     O2   12  -0.023   0.049  -0.018
    1UNL    C11   13  -0.150   0.091   0.025
    1UNL     O3   14  -0.258   0.009  -0.009
    1UNL    C12   15  -0.385   0.053   0.055
    1UNL    C13   16  -0.480  -0.062   0.068
    1UNL     O4   17  -0.514  -0.111   0.193
    1UNL    C14   18  -0.596  -0.031   0.263
    1UNL    C15   19  -0.637  -0.077   0.399
    1UNL     O5   20  -0.636   0.074   0.227
    1UNL    C16   21  -0.429   0.193  -0.004
    1UNL     O6   22  -0.493   0.283   0.080
    1UNL    C17   23  -0.315   0.258  -0.087
    1UNL     O7   24  -0.304   0.205  -0.220
    1UNL    C18   25  -0.183   0.243  -0.002
    1UNL     O8   26  -0.189   0.311   0.127
    1UNL     H1   27   0.603  -0.025   0.174
    1UNL     H2   28   0.709  -0.165   0.253
    1UNL     H3   29   0.701  -0.282   0.047
    1UNL     H4   30   0.763  -0.194  -0.203
    1UNL     H5   31   0.618  -0.127  -0.293
    1UNL     H6   32   0.624  -0.290  -0.202
    1UNL     H7   33   0.729   0.026  -0.057
    1UNL     H8   34   0.411  -0.114   0.035
    1UNL     H9   35   0.407  -0.246  -0.083
    1UNL    H10   36   0.398   0.028  -0.195
    1UNL    H11   37   0.347  -0.135  -0.257
    1UNL    H12   38   0.175  -0.042  -0.011
    1UNL    H13   39   0.031   0.002  -0.401
    1UNL    H14   40   0.207   0.023  -0.372
    1UNL    H15   41   0.153  -0.138  -0.383
    1UNL    H16   42  -0.090   0.037  -0.209
    1UNL    H17   43  -0.059  -0.121  -0.121
    1UNL    H18   44  -0.157   0.085   0.136
    1UNL    H19   45  -0.355   0.088   0.152
    1UNL    H20   46  -0.581  -0.035   0.016
    1UNL    H21   47  -0.442  -0.147   0.007
    1UNL    H22   48  -0.608  -0.186   0.416
    1UNL    H23   49  -0.738  -0.079   0.410
    1UNL    H24   50  -0.595  -0.017   0.481
    1UNL    H25   51  -0.510   0.167  -0.072
    1UNL    H26   52  -0.554   0.221   0.142
    1UNL    H27   53  -0.344   0.364  -0.114
    1UNL    H28   54  -0.275   0.109  -0.205
    1UNL    H29   55  -0.097   0.284  -0.065
    1UNL    H30   56  -0.277   0.325   0.150
   0.00000   0.00000   0.00000   0.00000   0.00000   0.00000   0.00000   0.00000   0.00000
Generated with MDTraj, t= 42.0
 56
    1UNL     C1    1   0.645  -0.086   0.161
    1UNL     C2    2   0.629  -0.175   0.066
    1UNL     C3    3   0.579  -0.134  -0.073
    1UNL     C4    4   0.614  -0.246  -0.175
    1UNL     O1    5   0.643  -0.008  -0.113
    1UNL     C5    6   0.426  -0.124  -0.058
    1UNL     C6    7   0.362  -0.026  -0.164
    1UNL     C7    8   0.220   0.005  -0.125
    1UNL     C8    9   0.107  -0.024  -0.195
    1UNL     C9   10   0.131  -0.064  -0.337
    1UNL    C10   11  -0.031  -0.006  -0.145
    1UNL     O2   12  -0.024   0.069  -0.023
    1UNL    C11   13  -0.145   0.102   0.035
    1UNL     O3   14  -0.250   0.012   0.006
    1UNL    C12   15  -0.387   0.050   0.056
    1UNL    C13   16  -0.487  -0.061   0.047
    1UNL     O4   17  -0.518  -0.121   0.172
    1UNL    C14   18  -0.599  -0.041   0.259
    1UNL    C15   19  -0.639  -0.120   0.381
    1UNL     O5   20  -0.626   0.076   0.244
    1UNL    C16   21  -0.421   0.191  -0.002
    1UNL     O6   22  -0.458   0.271   0.105
    1UNL    C17   23  -0.307   0.254  -0.088
    1UNL     O7   24  -0.302   0.193  -0.209
    1UNL    C18   25  -0.176   0.250  -0.008
    1UNL     O8   26  -0.193   0.328   0.109
    1UNL     H1   27   0.617   0.016   0.145
    1UNL     H2   28   0.678  -0.124   0.256
    1UNL     H3   29   0.654  -0.279   0.090
    1UNL     H4   30   0.714  -0.240  -0.191
    1UNL     H5   31   0.554  -0.227  -0.271
    1UNL     H6   32   0.605  -0.348  -0.134
    1UNL     H7   33   0.744  -0.017  -0.102
    1UNL     H8   34   0.398  -0.098   0.049
    1UNL     H9   35   0.401  -0.228  -0.069
    1UNL    H10   36   0.422   0.061  -0.158
    1UNL    H11   37   0.381  -0.075  -0.270
    1UNL    H12   38   0.208   0.045  -0.026
    1UNL    H13   39   0.035  -0.089  -0.383
    1UNL    H14   40   0.188   0.007  -0.399
    1UNL    H15   41   0.187  -0.159  -0.343
    1UNL    H16   42  -0.081   0.066  -0.213
    1UNL    H17   43  -0.088  -0.097  -0.121
    1UNL    H18   44  -0.136   0.100   0.143
    1UNL    H19   45  -0.365   0.066   0.160
    1UNL    H20   46  -0.587  -0.020   0.009
    1UNL    H21   47  -0.453  -0.135  -0.027
    1UNL    H22   48  -0.663  -0.224   0.348
    1UNL    H23   49  -0.729  -0.081   0.424
    1UNL    H24   50  -0.560  -0.117   0.456
    1UNL    H25   51  -0.508   0.175  -0.064
    1UNL    H26   52  -0.517   0.220   0.156
    1UNL    H27   53  -0.337   0.359  -0.114
    1UNL    H28   54  -0.313   0.102  -0.187
    1UNL    H29   55  -0.078   0.283  -0.060
    1UNL    H30   56  -0.290   0.316   0.138
   0.00000   0.00000   0.00000   0.00000   0.00000   0.00000   0.00000   0.00000   0.00000
Generated with MDTraj, t= 43.0
 56
    1UNL     C1    1   0.669  -0.074   0.157
    1UNL     C2    2   0.640  -0.168   0.066
    1UNL     C3    3   0.564  -0.143  -0.060
    1UNL     C4    4   0.552  -0.271  -0.146
    1UNL     O1    5   0.633  -0.039  -0.139
    1UNL     C5    6   0.416  -0.085  -0.037
    1UNL     C6    7   0.357  -0.018  -0.165
    1UNL     C7    8   0.226   0.040  -0.134
    1UNL     C8    9   0.112  -0.008  -0.191
    1UNL     C9   10   0.116  -0.103  -0.304
    1UNL    C10   11  -0.017   0.056  -0.153
    1UNL     O2   12  -0.020   0.062  -0.013
    1UNL    C11   13  -0.148   0.103   0.038
    1UNL     O3   14  -0.254   0.004   0.015
    1UNL    C12   15  -0.384   0.050   0.057
    1UNL    C13   16  -0.483  -0.058   0.026
    1UNL     O4   17  -0.511  -0.131   0.144
    1UNL    C14   18  -0.576  -0.056   0.238
    1UNL    C15   19  -0.620  -0.136   0.359
    1UNL     O5   20  -0.595   0.064   0.239
    1UNL    C16   21  -0.426   0.194   0.004
    1UNL     O6   22  -0.453   0.273   0.121
    1UNL    C17   23  -0.318   0.251  -0.089
    1UNL     O7   24  -0.314   0.178  -0.210
    1UNL    C18   25  -0.186   0.253  -0.003
    1UNL     O8   26  -0.179   0.347   0.107
    1UNL     H1   27   0.661   0.029   0.135
    1UNL     H2   28   0.711  -0.101   0.255
    1UNL     H3   29   0.659  -0.271   0.086
    1UNL     H4   30   0.648  -0.317  -0.161
    1UNL     H5   31   0.504  -0.247  -0.241
    1UNL     H6   32   0.500  -0.352  -0.092
    1UNL     H7   33   0.713  -0.074  -0.181
    1UNL     H8   34   0.425  -0.021   0.057
    1UNL     H9   35   0.351  -0.162  -0.002
    1UNL    H10   36   0.428   0.049  -0.209
    1UNL    H11   37   0.348  -0.103  -0.245
    1UNL    H12   38   0.221   0.123  -0.063
    1UNL    H13   39   0.010  -0.124  -0.329
    1UNL    H14   40   0.172  -0.082  -0.396
    1UNL    H15   41   0.141  -0.206  -0.278
    1UNL    H16   42  -0.038   0.158  -0.190
    1UNL    H17   43  -0.095  -0.021  -0.171
    1UNL    H18   44  -0.138   0.100   0.145
    1UNL    H19   45  -0.383   0.054   0.166
    1UNL    H20   46  -0.577  -0.008  -0.007
    1UNL    H21   47  -0.450  -0.127  -0.049
    1UNL    H22   48  -0.675  -0.222   0.325
    1UNL    H23   49  -0.695  -0.072   0.417
    1UNL    H24   50  -0.537  -0.161   0.422
    1UNL    H25   51  -0.519   0.181  -0.049
    1UNL    H26   52  -0.517   0.214   0.181
    1UNL    H27   53  -0.340   0.353  -0.119
    1UNL    H28   54  -0.302   0.079  -0.180
    1UNL    H29   55  -0.095   0.282  -0.067
    1UNL    H30   56  -0.272   0.334   0.146
   0.00000   0.00000   0.00000   0.00000   0.00000   0.00000   0.00000   0.00000   0.00000
Generated with MDTraj, t= 44.0
 56
    1UNL     C1    1   0.706  -0.071   0.127
    1UNL     C2    2   0.613  -0.157   0.084
    1UNL     C3    3   0.555  -0.144  -0.058
    1UNL     C4    4   0.511  -0.275  -0.116
    1UNL     O1    5   0.646  -0.081  -0.149
    1UNL     C5    6   0.430  -0.049  -0.044
    1UNL     C6    7   0.368  -0.010  -0.168
    1UNL     C7    8   0.224   0.029  -0.145
    1UNL     C8    9   0.109  -0.026  -0.191
    1UNL     C9   10   0.109  -0.147  -0.265
    1UNL    C10   11  -0.020   0.049  -0.150
    1UNL     O2   12  -0.023   0.089  -0.010
    1UNL    C11   13  -0.153   0.123   0.039
    1UNL     O3   14  -0.252   0.026  -0.006
    1UNL    C12   15  -0.381   0.051   0.046
    1UNL    C13   16  -0.490  -0.057   0.016
    1UNL     O4   17  -0.503  -0.139   0.130
    1UNL    C14   18  -0.563  -0.078   0.236
    1UNL    C15   19  -0.595  -0.163   0.356
    1UNL     O5   20  -0.585   0.042   0.248
    1UNL    C16   21  -0.433   0.189  -0.006
    1UNL     O6   22  -0.476   0.262   0.114
    1UNL    C17   23  -0.324   0.275  -0.073
    1UNL     O7   24  -0.302   0.221  -0.204
    1UNL    C18   25  -0.191   0.272   0.003
    1UNL     O8   26  -0.184   0.352   0.112
    1UNL     H1   27   0.746   0.004   0.060
    1UNL     H2   28   0.763  -0.087   0.215
    1UNL     H3   29   0.592  -0.244   0.145
    1UNL     H4   30   0.569  -0.364  -0.078
    1UNL     H5   31   0.505  -0.273  -0.217
    1UNL     H6   32   0.418  -0.302  -0.069
    1UNL     H7   33   0.689  -0.148  -0.200
    1UNL     H8   34   0.460   0.042   0.021
    1UNL     H9   35   0.364  -0.092   0.027
    1UNL    H10   36   0.427   0.068  -0.217
    1UNL    H11   37   0.389  -0.090  -0.242
    1UNL    H12   38   0.203   0.117  -0.089
    1UNL    H13   39   0.011  -0.161  -0.319
    1UNL    H14   40   0.200  -0.160  -0.325
    1UNL    H15   41   0.104  -0.222  -0.186
    1UNL    H16   42  -0.027   0.145  -0.203
    1UNL    H17   43  -0.108  -0.018  -0.161
    1UNL    H18   44  -0.156   0.117   0.146
    1UNL    H19   45  -0.374   0.058   0.157
    1UNL    H20   46  -0.587  -0.016  -0.008
    1UNL    H21   47  -0.452  -0.113  -0.064
    1UNL    H22   48  -0.653  -0.247   0.330
    1UNL    H23   49  -0.665  -0.100   0.423
    1UNL    H24   50  -0.508  -0.188   0.413
    1UNL    H25   51  -0.522   0.191  -0.070
    1UNL    H26   52  -0.522   0.198   0.161
    1UNL    H27   53  -0.365   0.374  -0.088
    1UNL    H28   54  -0.255   0.141  -0.197
    1UNL    H29   55  -0.105   0.308  -0.067
    1UNL    H30   56  -0.264   0.343   0.157
   0.00000   0.00000   0.00000   0.00000   0.00000   0.00000   0.00000   0.00000   0.00000
Generated with MDTraj, t= 45.0
 56
    1UNL     C1    1   0.738  -0.082   0.103
    1UNL     C2    2   0.621  -0.140   0.079
    1UNL     C3    3   0.543  -0.141  -0.043
    1UNL     C4    4   0.484  -0.282  -0.063
    1UNL     O1    5   0.634  -0.112  -0.153
    1UNL     C5    6   0.428  -0.038  -0.051
    1UNL     C6    7   0.359  -0.018  -0.183
    1UNL     C7    8   0.223   0.037  -0.169
    1UNL     C8    9   0.109  -0.035  -0.174
    1UNL     C9   10   0.111  -0.181  -0.232
    1UNL    C10   11  -0.016   0.035  -0.142
    1UNL     O2   12  -0.018   0.109  -0.021
    1UNL    C11   13  -0.152   0.129   0.029
    1UNL     O3   14  -0.254   0.041  -0.020
    1UNL    C12   15  -0.383   0.072   0.032
    1UNL    C13   16  -0.492  -0.044   0.017
    1UNL     O4   17  -0.471  -0.135   0.126
    1UNL    C14   18  -0.542  -0.094   0.233
    1UNL    C15   19  -0.551  -0.191   0.341
    1UNL     O5   20  -0.590   0.019   0.238
    1UNL    C16   21  -0.440   0.212  -0.013
    1UNL     O6   22  -0.496   0.273   0.107
    1UNL    C17   23  -0.328   0.293  -0.071
    1UNL     O7   24  -0.301   0.256  -0.211
    1UNL    C18   25  -0.200   0.281   0.016
    1UNL     O8   26  -0.216   0.329   0.144
    1UNL     H1   27   0.802  -0.035   0.026
    1UNL     H2   28   0.775  -0.069   0.201
    1UNL     H3   29   0.568  -0.182   0.161
    1UNL     H4   30   0.561  -0.360  -0.094
    1UNL     H5   31   0.416  -0.279  -0.143
    1UNL     H6   32   0.448  -0.332   0.018
    1UNL     H7   33   0.677  -0.189  -0.184
    1UNL     H8   34   0.465   0.065  -0.009
    1UNL     H9   35   0.361  -0.055   0.028
    1UNL    H10   36   0.426   0.054  -0.235
    1UNL    H11   37   0.370  -0.096  -0.255
    1UNL    H12   38   0.215   0.137  -0.127
    1UNL    H13   39   0.011  -0.226  -0.207
    1UNL    H14   40   0.142  -0.190  -0.336
    1UNL    H15   41   0.175  -0.240  -0.167
    1UNL    H16   42  -0.032   0.102  -0.227
    1UNL    H17   43  -0.091  -0.047  -0.127
    1UNL    H18   44  -0.151   0.109   0.135
    1UNL    H19   45  -0.373   0.068   0.144
    1UNL    H20   46  -0.593  -0.008   0.023
    1UNL    H21   47  -0.476  -0.095  -0.071
    1UNL    H22   48  -0.580  -0.289   0.305
    1UNL    H23   49  -0.629  -0.164   0.413
    1UNL    H24   50  -0.456  -0.199   0.396
    1UNL    H25   51  -0.513   0.196  -0.094
    1UNL    H26   52  -0.543   0.200   0.167
    1UNL    H27   53  -0.356   0.395  -0.078
    1UNL    H28   54  -0.277   0.160  -0.212
    1UNL    H29   55  -0.112   0.344  -0.027
    1UNL    H30   56  -0.300   0.293   0.196
   0.00000   0.00000   0.00000   0.00000   0.00000   0.00000   0.00000   0.00000   0.00000
Generated with MDTraj, t= 46.0
 56
    1UNL     C1    1   0.748  -0.068   0.062
    1UNL     C2    2   0.631  -0.128   0.078
    1UNL     C3    3   0.535  -0.149  -0.040
    1UNL     C4    4   0.476  -0.288  -0.031
    1UNL     O1    5   0.605  -0.131  -0.157
    1UNL     C5    6   0.417  -0.051  -0.034
    1UNL     C6    7   0.354  -0.022  -0.175
    1UNL     C7    8   0.213   0.036  -0.174
    1UNL     C8    9   0.101  -0.037  -0.159
    1UNL     C9   10   0.096  -0.186  -0.172
    1UNL    C10   11  -0.030   0.042  -0.156
    1UNL     O2   12  -0.023   0.140  -0.053
    1UNL    C11   13  -0.143   0.137   0.026
    1UNL     O3   14  -0.248   0.040  -0.016
    1UNL    C12   15  -0.381   0.067   0.030
    1UNL    C13   16  -0.484  -0.053  -0.003
    1UNL     O4   17  -0.474  -0.151   0.099
    1UNL    C14   18  -0.523  -0.094   0.212
    1UNL    C15   19  -0.505  -0.179   0.334
    1UNL     O5   20  -0.569   0.019   0.223
    1UNL    C16   21  -0.440   0.208  -0.015
    1UNL     O6   22  -0.502   0.263   0.104
    1UNL    C17   23  -0.324   0.304  -0.060
    1UNL     O7   24  -0.301   0.288  -0.201
    1UNL    C18   25  -0.197   0.282   0.030
    1UNL     O8   26  -0.226   0.305   0.165
    1UNL     H1   27   0.778  -0.020  -0.028
    1UNL     H2   28   0.815  -0.052   0.145
    1UNL     H3   29   0.602  -0.153   0.179
    1UNL     H4   30   0.556  -0.354  -0.004
    1UNL     H5   31   0.426  -0.325  -0.123
    1UNL     H6   32   0.413  -0.302   0.050
    1UNL     H7   33   0.653  -0.212  -0.180
    1UNL     H8   34   0.462   0.048   0.007
    1UNL     H9   35   0.346  -0.060   0.043
    1UNL    H10   36   0.423   0.038  -0.237
    1UNL    H11   37   0.360  -0.113  -0.226
    1UNL    H12   38   0.194   0.141  -0.170
    1UNL    H13   39   0.016  -0.229  -0.106
    1UNL    H14   40   0.101  -0.232  -0.272
    1UNL    H15   41   0.186  -0.227  -0.122
    1UNL    H16   42  -0.045   0.096  -0.249
    1UNL    H17   43  -0.111  -0.031  -0.136
    1UNL    H18   44  -0.118   0.096   0.126
    1UNL    H19   45  -0.382   0.072   0.142
    1UNL    H20   46  -0.586  -0.011   0.000
    1UNL    H21   47  -0.469  -0.097  -0.096
    1UNL    H22   48  -0.481  -0.284   0.304
    1UNL    H23   49  -0.589  -0.187   0.391
    1UNL    H24   50  -0.422  -0.139   0.396
    1UNL    H25   51  -0.517   0.211  -0.096
    1UNL    H26   52  -0.547   0.193   0.152
    1UNL    H27   53  -0.362   0.401  -0.042
    1UNL    H28   54  -0.285   0.187  -0.207
    1UNL    H29   55  -0.108   0.346  -0.007
    1UNL    H30   56  -0.321   0.306   0.177
   0.00000   0.00000   0.00000   0.00000   0.00000   0.00000   0.00000   0.00000   0.00000
Generated with MDTraj, t= 47.0
 56
    1UNL     C1    1   0.730  -0.036   0.045
    1UNL     C2    2   0.630  -0.116   0.072
    1UNL     C3    3   0.535  -0.155  -0.034
    1UNL     C4    4   0.483  -0.298  -0.007
    1UNL     O1    5   0.601  -0.161  -0.163
    1UNL     C5    6   0.424  -0.055  -0.042
    1UNL     C6    7   0.345  -0.061  -0.176
    1UNL     C7    8   0.218   0.015  -0.176
    1UNL     C8    9   0.100  -0.039  -0.147
    1UNL     C9   10   0.087  -0.179  -0.114
    1UNL    C10   11  -0.026   0.043  -0.160
    1UNL     O2   12  -0.036   0.158  -0.078
    1UNL    C11   13  -0.157   0.151   0.000
    1UNL     O3   14  -0.259   0.069  -0.063
    1UNL    C12   15  -0.374   0.077   0.012
    1UNL    C13   16  -0.467  -0.048  -0.009
    1UNL     O4   17  -0.448  -0.142   0.093
    1UNL    C14   18  -0.506  -0.105   0.215
    1UNL    C15   19  -0.495  -0.201   0.330
    1UNL     O5   20  -0.566  -0.001   0.233
    1UNL    C16   21  -0.444   0.216  -0.016
    1UNL     O6   22  -0.523   0.250   0.098
    1UNL    C17   23  -0.330   0.320  -0.044
    1UNL     O7   24  -0.278   0.311  -0.181
    1UNL    C18   25  -0.203   0.292   0.044
    1UNL     O8   26  -0.232   0.296   0.188
    1UNL     H1   27   0.732   0.015  -0.047
    1UNL     H2   28   0.811  -0.013   0.115
    1UNL     H3   29   0.617  -0.152   0.173
    1UNL     H4   30   0.551  -0.367   0.023
    1UNL     H5   31   0.420  -0.322  -0.095
    1UNL     H6   32   0.416  -0.282   0.081
    1UNL     H7   33   0.657  -0.245  -0.171
    1UNL     H8   34   0.449   0.053  -0.015
    1UNL     H9   35   0.360  -0.069   0.042
    1UNL    H10   36   0.408  -0.018  -0.254
    1UNL    H11   37   0.317  -0.157  -0.209
    1UNL    H12   38   0.217   0.119  -0.207
    1UNL    H13   39  -0.020  -0.201  -0.104
    1UNL    H14   40   0.140  -0.253  -0.177
    1UNL    H15   41   0.128  -0.205  -0.013
    1UNL    H16   42  -0.030   0.068  -0.265
    1UNL    H17   43  -0.118  -0.014  -0.137
    1UNL    H18   44  -0.136   0.101   0.099
    1UNL    H19   45  -0.345   0.067   0.118
    1UNL    H20   46  -0.576  -0.017  -0.006
    1UNL    H21   47  -0.443  -0.091  -0.105
    1UNL    H22   48  -0.429  -0.289   0.306
    1UNL    H23   49  -0.590  -0.240   0.355
    1UNL    H24   50  -0.458  -0.143   0.414
    1UNL    H25   51  -0.503   0.203  -0.110
    1UNL    H26   52  -0.539   0.163   0.153
    1UNL    H27   53  -0.369   0.416  -0.029
    1UNL    H28   54  -0.265   0.220  -0.203
    1UNL    H29   55  -0.120   0.366   0.023
    1UNL    H30   56  -0.327   0.273   0.193
   0.00000   0.00000   0.00000   0.00000   0.00000   0.00000   0.00000   0.00000   0.00000
Generated with MDTraj, t= 48.0
 56
    1UNL     C1    1   0.716  -0.002   0.044
    1UNL     C2    2   0.643  -0.108   0.070
    1UNL     C3    3   0.539  -0.162  -0.034
    1UNL     C4    4   0.493  -0.306   0.018
    1UNL     O1    5   0.617  -0.177  -0.156
    1UNL     C5    6   0.426  -0.062  -0.055
    1UNL     C6    7   0.331  -0.112  -0.167
    1UNL     C7    8   0.222  -0.013  -0.201
    1UNL     C8    9   0.099  -0.029  -0.155
    1UNL     C9   10   0.059  -0.139  -0.054
    1UNL    C10   11  -0.023   0.049  -0.189
    1UNL     O2   12  -0.049   0.170  -0.114
    1UNL    C11   13  -0.145   0.151  -0.007
    1UNL     O3   14  -0.247   0.062  -0.049
    1UNL    C12   15  -0.368   0.084   0.023
    1UNL    C13   16  -0.466  -0.029  -0.005
    1UNL     O4   17  -0.458  -0.141   0.078
    1UNL    C14   18  -0.506  -0.116   0.202
    1UNL    C15   19  -0.484  -0.223   0.306
    1UNL     O5   20  -0.561  -0.014   0.233
    1UNL    C16   21  -0.441   0.223  -0.003
    1UNL     O6   22  -0.517   0.254   0.113
    1UNL    C17   23  -0.331   0.325  -0.034
    1UNL     O7   24  -0.307   0.345  -0.173
    1UNL    C18   25  -0.201   0.288   0.039
    1UNL     O8   26  -0.229   0.274   0.183
    1UNL     H1   27   0.711   0.045  -0.053
    1UNL     H2   28   0.772   0.045   0.120
    1UNL     H3   29   0.639  -0.144   0.171
    1UNL     H4   30   0.573  -0.376   0.013
    1UNL     H5   31   0.414  -0.336  -0.047
    1UNL     H6   32   0.458  -0.305   0.126
    1UNL     H7   33   0.677  -0.261  -0.146
    1UNL     H8   34   0.472   0.037  -0.081
    1UNL     H9   35   0.368  -0.034   0.032
    1UNL    H10   36   0.382  -0.123  -0.263
    1UNL    H11   37   0.281  -0.198  -0.134
    1UNL    H12   38   0.242   0.060  -0.278
    1UNL    H13   39  -0.038  -0.111  -0.010
    1UNL    H14   40   0.052  -0.238  -0.105
    1UNL    H15   41   0.134  -0.151   0.028
    1UNL    H16   42  -0.018   0.092  -0.288
    1UNL    H17   43  -0.111  -0.019  -0.183
    1UNL    H18   44  -0.087   0.107   0.080
    1UNL    H19   45  -0.338   0.092   0.128
    1UNL    H20   46  -0.575   0.010  -0.006
    1UNL    H21   47  -0.445  -0.065  -0.108
    1UNL    H22   48  -0.393  -0.276   0.285
    1UNL    H23   49  -0.568  -0.300   0.309
    1UNL    H24   50  -0.479  -0.169   0.399
    1UNL    H25   51  -0.512   0.214  -0.088
    1UNL    H26   52  -0.554   0.170   0.156
    1UNL    H27   53  -0.369   0.414   0.008
    1UNL    H28   54  -0.288   0.262  -0.216
    1UNL    H29   55  -0.116   0.358   0.016
    1UNL    H30   56  -0.332   0.284   0.188
   0.00000   0.00000   0.00000   0.00000   0.00000   0.00000   0.00000   0.00000   0.00000
Generated with MDTraj, t= 49.0
 56
    1UNL     C1    1   0.695   0.019   0.024
    1UNL     C2    2   0.613  -0.072   0.074
    1UNL     C3    3   0.529  -0.160  -0.029
    1UNL     C4    4   0.496  -0.299   0.030
    1UNL     O1    5   0.601  -0.168  -0.154
    1UNL     C5    6   0.405  -0.078  -0.061
    1UNL     C6    7   0.303  -0.151  -0.141
    1UNL     C7    8   0.201  -0.049  -0.193
    1UNL     C8    9   0.083  -0.025  -0.137
    1UNL     C9   10   0.034  -0.094  -0.014
    1UNL    C10   11  -0.019   0.069  -0.203
    1UNL     O2   12  -0.039   0.180  -0.115
    1UNL    C11   13  -0.141   0.154  -0.021
    1UNL     O3   14  -0.250   0.074  -0.070
    1UNL    C12   15  -0.367   0.071   0.012
    1UNL    C13   16  -0.466  -0.042  -0.027
    1UNL     O4   17  -0.449  -0.155   0.062
    1UNL    C14   18  -0.496  -0.119   0.186
    1UNL    C15   19  -0.500  -0.229   0.284
    1UNL     O5   20  -0.540  -0.014   0.225
    1UNL    C16   21  -0.426   0.218   0.019
    1UNL     O6   22  -0.473   0.242   0.149
    1UNL    C17   23  -0.316   0.327  -0.026
    1UNL     O7   24  -0.312   0.334  -0.169
    1UNL    C18   25  -0.178   0.295   0.036
    1UNL     O8   26  -0.195   0.274   0.178
    1UNL     H1   27   0.711   0.015  -0.085
    1UNL     H2   28   0.747   0.094   0.076
    1UNL     H3   29   0.589  -0.088   0.179
    1UNL     H4   30   0.594  -0.354   0.067
    1UNL     H5   31   0.459  -0.354  -0.051
    1UNL     H6   32   0.425  -0.302   0.115
    1UNL     H7   33   0.663  -0.251  -0.165
    1UNL     H8   34   0.428   0.006  -0.125
    1UNL     H9   35   0.352  -0.031   0.026
    1UNL    H10   36   0.358  -0.192  -0.226
    1UNL    H11   37   0.249  -0.215  -0.077
    1UNL    H12   38   0.230  -0.006  -0.288
    1UNL    H13   39  -0.071  -0.120  -0.013
    1UNL    H14   40   0.094  -0.189  -0.016
    1UNL    H15   41   0.061  -0.030   0.073
    1UNL    H16   42   0.024   0.103  -0.296
    1UNL    H17   43  -0.122   0.027  -0.220
    1UNL    H18   44  -0.091   0.096   0.062
    1UNL    H19   45  -0.328   0.051   0.111
    1UNL    H20   46  -0.579  -0.012  -0.031
    1UNL    H21   47  -0.445  -0.081  -0.129
    1UNL    H22   48  -0.409  -0.281   0.281
    1UNL    H23   49  -0.579  -0.309   0.260
    1UNL    H24   50  -0.519  -0.189   0.382
    1UNL    H25   51  -0.509   0.224  -0.053
    1UNL    H26   52  -0.502   0.153   0.182
    1UNL    H27   53  -0.345   0.419   0.016
    1UNL    H28   54  -0.307   0.235  -0.200
    1UNL    H29   55  -0.103   0.375   0.021
    1UNL    H30   56  -0.279   0.238   0.177
   0.00000   0.00000   0.00000   0.00000   0.00000   0.00000   0.00000   0.00000   0.00000
Generated with MDTraj, t= 50.0
 56
    1UNL     C1    1   0.676   0.041   0.013
    1UNL     C2    2   0.601  -0.057   0.060
    1UNL     C3    3   0.516  -0.152  -0.019
    1UNL     C4    4   0.507  -0.278   0.069
    1UNL     O1    5   0.573  -0.175  -0.148
    1UNL     C5    6   0.379  -0.088  -0.048
    1UNL     C6    7   0.297  -0.166  -0.155
    1UNL     C7    8   0.185  -0.080  -0.205
    1UNL     C8    9   0.073  -0.052  -0.143
    1UNL     C9   10   0.035  -0.120  -0.013
    1UNL    C10   11  -0.023   0.047  -0.200
    1UNL     O2   12  -0.025   0.171  -0.122
    1UNL    C11   13  -0.131   0.169  -0.026
    1UNL     O3   14  -0.240   0.084  -0.067
    1UNL    C12   15  -0.352   0.088   0.016
    1UNL    C13   16  -0.448  -0.022  -0.023
    1UNL     O4   17  -0.431  -0.145   0.055
    1UNL    C14   18  -0.495  -0.138   0.180
    1UNL    C15   19  -0.499  -0.271   0.248
    1UNL     O5   20  -0.544  -0.034   0.216
    1UNL    C16   21  -0.424   0.228   0.034
    1UNL     O6   22  -0.460   0.238   0.170
    1UNL    C17   23  -0.322   0.339  -0.018
    1UNL     O7   24  -0.325   0.337  -0.161
    1UNL    C18   25  -0.176   0.313   0.026
    1UNL     O8   26  -0.162   0.323   0.170
    1UNL     H1   27   0.670   0.050  -0.093
    1UNL     H2   28   0.752   0.100   0.064
    1UNL     H3   29   0.612  -0.095   0.159
    1UNL     H4   30   0.606  -0.326   0.107
    1UNL     H5   31   0.458  -0.356   0.006
    1UNL     H6   32   0.444  -0.260   0.155
    1UNL     H7   33   0.668  -0.200  -0.133
    1UNL     H8   34   0.376   0.010  -0.083
    1UNL     H9   35   0.306  -0.089   0.040
    1UNL    H10   36   0.364  -0.179  -0.239
    1UNL    H11   37   0.254  -0.253  -0.112
    1UNL    H12   38   0.221  -0.022  -0.289
    1UNL    H13   39  -0.062  -0.096   0.033
    1UNL    H14   40   0.028  -0.230  -0.038
    1UNL    H15   41   0.106  -0.109   0.071
    1UNL    H16   42   0.012   0.077  -0.299
    1UNL    H17   43  -0.121  -0.008  -0.197
    1UNL    H18   44  -0.089   0.113   0.062
    1UNL    H19   45  -0.306   0.068   0.112
    1UNL    H20   46  -0.561   0.003  -0.020
    1UNL    H21   47  -0.432  -0.055  -0.127
    1UNL    H22   48  -0.408  -0.324   0.227
    1UNL    H23   49  -0.578  -0.339   0.214
    1UNL    H24   50  -0.509  -0.259   0.357
    1UNL    H25   51  -0.507   0.234  -0.038
    1UNL    H26   52  -0.494   0.150   0.204
    1UNL    H27   53  -0.359   0.433   0.016
    1UNL    H28   54  -0.324   0.249  -0.193
    1UNL    H29   55  -0.106   0.380  -0.024
    1UNL    H30   56  -0.250   0.281   0.213
   0.00000   0.00000   0.00000   0.00000   0.00000   0.00000   0.00000   0.00000   0.00000
Generated with MDTraj, t= 51.0
 56
    1UNL     C1    1   0.642   0.061   0.003
    1UNL     C2    2   0.610  -0.055   0.057
    1UNL     C3    3   0.513  -0.150  -0.010
    1UNL     C4    4   0.499  -0.260   0.091
    1UNL     O1    5   0.582  -0.192  -0.132
    1UNL     C5    6   0.377  -0.088  -0.039
    1UNL     C6    7   0.294  -0.163  -0.150
    1UNL     C7    8   0.188  -0.072  -0.200
    1UNL     C8    9   0.068  -0.066  -0.147
    1UNL     C9   10   0.000  -0.148  -0.042
    1UNL    C10   11  -0.017   0.048  -0.202
    1UNL     O2   12  -0.028   0.171  -0.127
    1UNL    C11   13  -0.125   0.166  -0.024
    1UNL     O3   14  -0.241   0.079  -0.059
    1UNL    C12   15  -0.353   0.082   0.022
    1UNL    C13   16  -0.464  -0.016  -0.025
    1UNL     O4   17  -0.446  -0.141   0.035
    1UNL    C14   18  -0.487  -0.139   0.164
    1UNL    C15   19  -0.483  -0.273   0.234
    1UNL     O5   20  -0.531  -0.049   0.233
    1UNL    C16   21  -0.417   0.223   0.044
    1UNL     O6   22  -0.430   0.244   0.185
    1UNL    C17   23  -0.321   0.331  -0.018
    1UNL     O7   24  -0.341   0.352  -0.157
    1UNL    C18   25  -0.170   0.309   0.014
    1UNL     O8   26  -0.141   0.330   0.152
    1UNL     H1   27   0.607   0.085  -0.093
    1UNL     H2   28   0.731   0.117   0.031
    1UNL     H3   29   0.654  -0.085   0.152
    1UNL     H4   30   0.598  -0.302   0.103
    1UNL     H5   31   0.437  -0.352   0.047
    1UNL     H6   32   0.456  -0.227   0.188
    1UNL     H7   33   0.673  -0.178  -0.113
    1UNL     H8   34   0.395   0.012  -0.065
    1UNL     H9   35   0.320  -0.070   0.062
    1UNL    H10   36   0.351  -0.187  -0.237
    1UNL    H11   37   0.248  -0.253  -0.118
    1UNL    H12   38   0.223   0.020  -0.246
    1UNL    H13   39  -0.110  -0.131  -0.029
    1UNL    H14   40   0.010  -0.254  -0.078
    1UNL    H15   41   0.041  -0.134   0.057
    1UNL    H16   42   0.039   0.078  -0.290
    1UNL    H17   43  -0.124   0.020  -0.223
    1UNL    H18   44  -0.083   0.113   0.065
    1UNL    H19   45  -0.322   0.051   0.122
    1UNL    H20   46  -0.569   0.015   0.002
    1UNL    H21   47  -0.465  -0.034  -0.131
    1UNL    H22   48  -0.414  -0.344   0.181
    1UNL    H23   49  -0.573  -0.323   0.239
    1UNL    H24   50  -0.448  -0.256   0.338
    1UNL    H25   51  -0.512   0.237  -0.006
    1UNL    H26   52  -0.471   0.169   0.221
    1UNL    H27   53  -0.353   0.419   0.038
    1UNL    H28   54  -0.341   0.263  -0.199
    1UNL    H29   55  -0.112   0.377  -0.046
    1UNL    H30   56  -0.218   0.332   0.209
   0.00000   0.00000   0.00000   0.00000   0.00000   0.00000   0.00000   0.00000   0.00000
Generated with MDTraj, t= 52.0
 56
    1UNL     C1    1   0.644   0.063   0.017
    1UNL     C2    2   0.625  -0.060   0.060
    1UNL     C3    3   0.515  -0.145  -0.001
    1UNL     C4    4   0.472  -0.252   0.103
    1UNL     O1    5   0.566  -0.198  -0.128
    1UNL     C5    6   0.394  -0.061  -0.042
    1UNL     C6    7   0.280  -0.145  -0.101
    1UNL     C7    8   0.183  -0.057  -0.165
    1UNL     C8    9   0.052  -0.050  -0.156
    1UNL     C9   10  -0.017  -0.161  -0.080
    1UNL    C10   11  -0.027   0.054  -0.229
    1UNL     O2   12  -0.045   0.170  -0.150
    1UNL    C11   13  -0.137   0.150  -0.047
    1UNL     O3   14  -0.256   0.077  -0.095
    1UNL    C12   15  -0.360   0.085   0.003
    1UNL    C13   16  -0.479  -0.013  -0.029
    1UNL     O4   17  -0.459  -0.141   0.029
    1UNL    C14   18  -0.467  -0.136   0.167
    1UNL    C15   19  -0.471  -0.263   0.243
    1UNL     O5   20  -0.474  -0.032   0.231
    1UNL    C16   21  -0.410   0.233   0.058
    1UNL     O6   22  -0.399   0.236   0.202
    1UNL    C17   23  -0.312   0.333  -0.009
    1UNL     O7   24  -0.340   0.340  -0.149
    1UNL    C18   25  -0.162   0.286   0.018
    1UNL     O8   26  -0.141   0.281   0.158
    1UNL     H1   27   0.585   0.115  -0.058
    1UNL     H2   28   0.721   0.127   0.055
    1UNL     H3   29   0.693  -0.104   0.129
    1UNL     H4   30   0.546  -0.320   0.141
    1UNL     H5   31   0.392  -0.316   0.054
    1UNL     H6   32   0.417  -0.194   0.190
    1UNL     H7   33   0.658  -0.211  -0.125
    1UNL     H8   34   0.433   0.005  -0.115
    1UNL     H9   35   0.374   0.013   0.043
    1UNL    H10   36   0.314  -0.222  -0.169
    1UNL    H11   37   0.222  -0.201  -0.032
    1UNL    H12   38   0.225   0.014  -0.235
    1UNL    H13   39  -0.130  -0.165  -0.097
    1UNL    H14   40   0.026  -0.253  -0.125
    1UNL    H15   41  -0.002  -0.149   0.027
    1UNL    H16   42   0.028   0.087  -0.316
    1UNL    H17   43  -0.133   0.028  -0.252
    1UNL    H18   44  -0.092   0.083   0.031
    1UNL    H19   45  -0.321   0.035   0.094
    1UNL    H20   46  -0.578   0.020   0.002
    1UNL    H21   47  -0.483  -0.031  -0.133
    1UNL    H22   48  -0.464  -0.349   0.172
    1UNL    H23   49  -0.558  -0.271   0.302
    1UNL    H24   50  -0.385  -0.257   0.311
    1UNL    H25   51  -0.510   0.260   0.025
    1UNL    H26   52  -0.425   0.138   0.231
    1UNL    H27   53  -0.320   0.435   0.031
    1UNL    H28   54  -0.291   0.262  -0.194
    1UNL    H29   55  -0.097   0.356  -0.028
    1UNL    H30   56  -0.225   0.300   0.209
   0.00000   0.00000   0.00000   0.00000   0.00000   0.00000   0.00000   0.00000   0.00000
Generated with MDTraj, t= 53.0
 56
    1UNL     C1    1   0.696   0.027   0.018
    1UNL     C2    2   0.618  -0.056   0.084
    1UNL     C3    3   0.508  -0.134   0.012
    1UNL     C4    4   0.456  -0.248   0.111
    1UNL     O1    5   0.567  -0.187  -0.105
    1UNL     C5    6   0.393  -0.039  -0.038
    1UNL     C6    7   0.256  -0.100  -0.066
    1UNL     C7    8   0.159  -0.026  -0.147
    1UNL     C8    9   0.032  -0.049  -0.177
    1UNL     C9   10  -0.034  -0.174  -0.122
    1UNL    C10   11  -0.047   0.043  -0.266
    1UNL     O2   12  -0.072   0.164  -0.201
    1UNL    C11   13  -0.145   0.146  -0.078
    1UNL     O3   14  -0.274   0.087  -0.105
    1UNL    C12   15  -0.353   0.086   0.012
    1UNL    C13   16  -0.480  -0.003  -0.008
    1UNL     O4   17  -0.460  -0.138   0.045
    1UNL    C14   18  -0.455  -0.148   0.181
    1UNL    C15   19  -0.447  -0.283   0.243
    1UNL     O5   20  -0.455  -0.050   0.254
    1UNL    C16   21  -0.392   0.230   0.049
    1UNL     O6   22  -0.420   0.241   0.189
    1UNL    C17   23  -0.289   0.329  -0.003
    1UNL     O7   24  -0.321   0.368  -0.136
    1UNL    C18   25  -0.146   0.279   0.014
    1UNL     O8   26  -0.119   0.240   0.153
    1UNL     H1   27   0.664   0.038  -0.086
    1UNL     H2   28   0.765   0.103   0.046
    1UNL     H3   29   0.642  -0.072   0.188
    1UNL     H4   30   0.540  -0.314   0.147
    1UNL     H5   31   0.383  -0.314   0.069
    1UNL     H6   32   0.408  -0.197   0.204
    1UNL     H7   33   0.609  -0.273  -0.096
    1UNL     H8   34   0.434   0.016  -0.122
    1UNL     H9   35   0.368   0.043   0.033
    1UNL    H10   36   0.268  -0.198  -0.111
    1UNL    H11   37   0.218  -0.132   0.028
    1UNL    H12   38   0.202   0.049  -0.212
    1UNL    H13   39  -0.145  -0.169  -0.094
    1UNL    H14   40  -0.028  -0.251  -0.200
    1UNL    H15   41   0.006  -0.209  -0.024
    1UNL    H16   42   0.002   0.086  -0.354
    1UNL    H17   43  -0.144   0.000  -0.292
    1UNL    H18   44  -0.079   0.079  -0.019
    1UNL    H19   45  -0.298   0.042   0.099
    1UNL    H20   46  -0.567   0.043   0.034
    1UNL    H21   47  -0.497  -0.002  -0.111
    1UNL    H22   48  -0.505  -0.351   0.181
    1UNL    H23   49  -0.487  -0.287   0.349
    1UNL    H24   50  -0.344  -0.313   0.246
    1UNL    H25   51  -0.483   0.261  -0.004
    1UNL    H26   52  -0.447   0.160   0.228
    1UNL    H27   53  -0.305   0.417   0.066
    1UNL    H28   54  -0.266   0.321  -0.195
    1UNL    H29   55  -0.067   0.342  -0.016
    1UNL    H30   56  -0.206   0.224   0.200
   0.00000   0.00000   0.00000   0.00000   0.00000   0.00000   0.00000   0.00000   0.00000
Generated with MDTraj, t= 54.0
 56
    1UNL     C1    1   0.717  -0.041   0.027
    1UNL     C2    2   0.598  -0.028   0.080
    1UNL     C3    3   0.478  -0.108   0.026
    1UNL     C4    4   0.444  -0.204   0.137
    1UNL     O1    5   0.513  -0.187  -0.092
    1UNL     C5    6   0.360  -0.013  -0.014
    1UNL     C6    7   0.253  -0.092  -0.086
    1UNL     C7    8   0.147  -0.013  -0.141
    1UNL     C8    9   0.041  -0.061  -0.202
    1UNL     C9   10  -0.005  -0.201  -0.193
    1UNL    C10   11  -0.053   0.037  -0.266
    1UNL     O2   12  -0.076   0.163  -0.200
    1UNL    C11   13  -0.144   0.138  -0.079
    1UNL     O3   14  -0.277   0.093  -0.113
    1UNL    C12   15  -0.348   0.086   0.010
    1UNL    C13   16  -0.472  -0.006   0.005
    1UNL     O4   17  -0.454  -0.136   0.049
    1UNL    C14   18  -0.443  -0.141   0.184
    1UNL    C15   19  -0.406  -0.277   0.235
    1UNL     O5   20  -0.453  -0.045   0.259
    1UNL    C16   21  -0.395   0.230   0.055
    1UNL     O6   22  -0.400   0.240   0.196
    1UNL    C17   23  -0.284   0.328   0.002
    1UNL     O7   24  -0.317   0.365  -0.132
    1UNL    C18   25  -0.139   0.262   0.016
    1UNL     O8   26  -0.111   0.228   0.151
    1UNL     H1   27   0.726  -0.101  -0.059
    1UNL     H2   28   0.811   0.002   0.066
    1UNL     H3   29   0.584   0.046   0.157
    1UNL     H4   30   0.536  -0.275   0.153
    1UNL     H5   31   0.373  -0.270   0.089
    1UNL     H6   32   0.407  -0.167   0.231
    1UNL     H7   33   0.527  -0.285  -0.072
    1UNL     H8   34   0.384   0.064  -0.090
    1UNL     H9   35   0.319   0.043   0.067
    1UNL    H10   36   0.304  -0.153  -0.160
    1UNL    H11   37   0.217  -0.170  -0.023
    1UNL    H12   38   0.162   0.094  -0.154
    1UNL    H13   39  -0.115  -0.219  -0.179
    1UNL    H14   40   0.021  -0.253  -0.287
    1UNL    H15   41   0.030  -0.257  -0.101
    1UNL    H16   42  -0.008   0.066  -0.361
    1UNL    H17   43  -0.158   0.007  -0.284
    1UNL    H18   44  -0.080   0.065  -0.025
    1UNL    H19   45  -0.282   0.040   0.086
    1UNL    H20   46  -0.546   0.046   0.064
    1UNL    H21   47  -0.506  -0.007  -0.094
    1UNL    H22   48  -0.485  -0.348   0.221
    1UNL    H23   49  -0.384  -0.277   0.350
    1UNL    H24   50  -0.319  -0.315   0.189
    1UNL    H25   51  -0.490   0.248   0.003
    1UNL    H26   52  -0.450   0.156   0.241
    1UNL    H27   53  -0.289   0.425   0.062
    1UNL    H28   54  -0.273   0.304  -0.194
    1UNL    H29   55  -0.069   0.335  -0.006
    1UNL    H30   56  -0.198   0.197   0.180
   0.00000   0.00000   0.00000   0.00000   0.00000   0.00000   0.00000   0.00000   0.00000
Generated with MDTraj, t= 55.0
 56
    1UNL     C1    1   0.706  -0.064   0.069
    1UNL     C2    2   0.589  -0.012   0.037
    1UNL     C3    3   0.463  -0.101   0.031
    1UNL     C4    4   0.432  -0.166   0.168
    1UNL     O1    5   0.470  -0.218  -0.063
    1UNL     C5    6   0.350  -0.013  -0.022
    1UNL     C6    7   0.239  -0.097  -0.086
    1UNL     C7    8   0.138  -0.014  -0.154
    1UNL     C8    9   0.037  -0.055  -0.232
    1UNL     C9   10   0.030  -0.195  -0.285
    1UNL    C10   11  -0.064   0.046  -0.280
    1UNL     O2   12  -0.069   0.157  -0.186
    1UNL    C11   13  -0.146   0.133  -0.068
    1UNL     O3   14  -0.276   0.069  -0.094
    1UNL    C12   15  -0.353   0.077   0.021
    1UNL    C13   16  -0.476  -0.019   0.009
    1UNL     O4   17  -0.439  -0.142   0.043
    1UNL    C14   18  -0.430  -0.136   0.181
    1UNL    C15   19  -0.379  -0.260   0.237
    1UNL     O5   20  -0.453  -0.036   0.248
    1UNL    C16   21  -0.383   0.226   0.069
    1UNL     O6   22  -0.371   0.240   0.210
    1UNL    C17   23  -0.282   0.323   0.003
    1UNL     O7   24  -0.328   0.357  -0.123
    1UNL    C18   25  -0.145   0.263   0.015
    1UNL     O8   26  -0.103   0.251   0.149
    1UNL     H1   27   0.721  -0.168   0.077
    1UNL     H2   28   0.790  -0.004   0.100
    1UNL     H3   29   0.575   0.094   0.017
    1UNL     H4   30   0.513  -0.229   0.210
    1UNL     H5   31   0.342  -0.234   0.166
    1UNL     H6   32   0.412  -0.090   0.237
    1UNL     H7   33   0.553  -0.268  -0.028
    1UNL     H8   34   0.389   0.055  -0.105
    1UNL     H9   35   0.316   0.053   0.052
    1UNL    H10   36   0.285  -0.158  -0.164
    1UNL    H11   37   0.193  -0.174  -0.025
    1UNL    H12   38   0.141   0.091  -0.132
    1UNL    H13   39  -0.058  -0.220  -0.346
    1UNL    H14   40   0.121  -0.211  -0.346
    1UNL    H15   41   0.017  -0.269  -0.200
    1UNL    H16   42  -0.034   0.094  -0.374
    1UNL    H17   43  -0.162  -0.003  -0.283
    1UNL    H18   44  -0.085   0.060  -0.018
    1UNL    H19   45  -0.286   0.037   0.098
    1UNL    H20   46  -0.562   0.016   0.070
    1UNL    H21   47  -0.503  -0.011  -0.094
    1UNL    H22   48  -0.463  -0.315   0.278
    1UNL    H23   49  -0.309  -0.235   0.319
    1UNL    H24   50  -0.323  -0.322   0.164
    1UNL    H25   51  -0.488   0.253   0.043
    1UNL    H26   52  -0.390   0.157   0.247
    1UNL    H27   53  -0.283   0.414   0.073
    1UNL    H28   54  -0.294   0.287  -0.190
    1UNL    H29   55  -0.075   0.325  -0.029
    1UNL    H30   56  -0.172   0.194   0.201
   0.00000   0.00000   0.00000   0.00000   0.00000   0.00000   0.00000   0.00000   0.00000
Generated with MDTraj, t= 56.0
 56
    1UNL     C1    1   0.688  -0.057   0.118
    1UNL     C2    2   0.593  -0.039   0.031
    1UNL     C3    3   0.457  -0.113   0.026
    1UNL     C4    4   0.406  -0.121   0.171
    1UNL     O1    5   0.476  -0.245  -0.025
    1UNL     C5    6   0.363  -0.039  -0.076
    1UNL     C6    7   0.224  -0.111  -0.086
    1UNL     C7    8   0.117  -0.023  -0.138
    1UNL     C8    9   0.031  -0.046  -0.241
    1UNL     C9   10   0.053  -0.157  -0.339
    1UNL    C10   11  -0.068   0.061  -0.286
    1UNL     O2   12  -0.075   0.176  -0.210
    1UNL    C11   13  -0.137   0.149  -0.090
    1UNL     O3   14  -0.270   0.084  -0.105
    1UNL    C12   15  -0.339   0.080   0.023
    1UNL    C13   16  -0.462  -0.017   0.026
    1UNL     O4   17  -0.424  -0.145   0.070
    1UNL    C14   18  -0.422  -0.150   0.205
    1UNL    C15   19  -0.390  -0.294   0.246
    1UNL     O5   20  -0.431  -0.053   0.276
    1UNL    C16   21  -0.385   0.217   0.071
    1UNL     O6   22  -0.383   0.237   0.209
    1UNL    C17   23  -0.294   0.327   0.004
    1UNL     O7   24  -0.335   0.368  -0.121
    1UNL    C18   25  -0.142   0.278  -0.000
    1UNL     O8   26  -0.097   0.242   0.134
    1UNL     H1   27   0.689  -0.128   0.202
    1UNL     H2   28   0.782  -0.012   0.094
    1UNL     H3   29   0.607   0.035  -0.046
    1UNL     H4   30   0.470  -0.166   0.236
    1UNL     H5   31   0.310  -0.179   0.177
    1UNL     H6   32   0.389  -0.019   0.204
    1UNL     H7   33   0.545  -0.301   0.029
    1UNL     H8   34   0.432  -0.030  -0.168
    1UNL     H9   35   0.355   0.056  -0.036
    1UNL    H10   36   0.236  -0.211  -0.130
    1UNL    H11   37   0.188  -0.135   0.013
    1UNL    H12   38   0.124   0.078  -0.094
    1UNL    H13   39   0.008  -0.139  -0.436
    1UNL    H14   40   0.165  -0.168  -0.356
    1UNL    H15   41   0.005  -0.252  -0.303
    1UNL    H16   42  -0.029   0.089  -0.386
    1UNL    H17   43  -0.171   0.023  -0.290
    1UNL    H18   44  -0.073   0.076  -0.046
    1UNL    H19   45  -0.267   0.036   0.092
    1UNL    H20   46  -0.533   0.034   0.100
    1UNL    H21   47  -0.514  -0.018  -0.071
    1UNL    H22   48  -0.446  -0.325   0.335
    1UNL    H23   49  -0.287  -0.308   0.253
    1UNL    H24   50  -0.423  -0.362   0.160
    1UNL    H25   51  -0.487   0.229   0.025
    1UNL    H26   52  -0.409   0.145   0.259
    1UNL    H27   53  -0.298   0.422   0.066
    1UNL    H28   54  -0.328   0.289  -0.173
    1UNL    H29   55  -0.080   0.354  -0.033
    1UNL    H30   56  -0.168   0.264   0.193
   0.00000   0.00000   0.00000   0.00000   0.00000   0.00000   0.00000   0.00000   0.00000
Generated with MDTraj, t= 57.0
 56
    1UNL     C1    1   0.676  -0.073   0.119
    1UNL     C2    2   0.581  -0.055   0.033
    1UNL     C3    3   0.444  -0.114   0.034
    1UNL     C4    4   0.369  -0.087   0.172
    1UNL     O1    5   0.456  -0.254   0.013
    1UNL     C5    6   0.369  -0.061  -0.094
    1UNL     C6    7   0.224  -0.097  -0.104
    1UNL     C7    8   0.135   0.001  -0.170
    1UNL     C8    9   0.044  -0.035  -0.263
    1UNL     C9   10   0.063  -0.155  -0.350
    1UNL    C10   11  -0.063   0.065  -0.298
    1UNL     O2   12  -0.070   0.179  -0.209
    1UNL    C11   13  -0.141   0.154  -0.089
    1UNL     O3   14  -0.269   0.092  -0.109
    1UNL    C12   15  -0.333   0.073   0.018
    1UNL    C13   16  -0.450  -0.033   0.012
    1UNL     O4   17  -0.430  -0.160   0.072
    1UNL    C14   18  -0.410  -0.151   0.210
    1UNL    C15   19  -0.392  -0.285   0.273
    1UNL     O5   20  -0.392  -0.049   0.271
    1UNL    C16   21  -0.384   0.207   0.073
    1UNL     O6   22  -0.388   0.211   0.213
    1UNL    C17   23  -0.294   0.329   0.016
    1UNL     O7   24  -0.342   0.370  -0.107
    1UNL    C18   25  -0.148   0.280   0.006
    1UNL     O8   26  -0.095   0.252   0.136
    1UNL     H1   27   0.657  -0.133   0.207
    1UNL     H2   28   0.770  -0.027   0.102
    1UNL     H3   29   0.591   0.015  -0.047
    1UNL     H4   30   0.430  -0.118   0.252
    1UNL     H5   31   0.285  -0.148   0.179
    1UNL     H6   32   0.341   0.018   0.190
    1UNL     H7   33   0.544  -0.284   0.054
    1UNL     H8   34   0.431  -0.101  -0.184
    1UNL     H9   35   0.384   0.043  -0.088
    1UNL    H10   36   0.206  -0.197  -0.144
    1UNL    H11   37   0.191  -0.111  -0.001
    1UNL    H12   38   0.116   0.095  -0.122
    1UNL    H13   39  -0.005  -0.153  -0.435
    1UNL    H14   40   0.170  -0.148  -0.388
    1UNL    H15   41   0.043  -0.246  -0.291
    1UNL    H16   42  -0.058   0.104  -0.403
    1UNL    H17   43  -0.153   0.004  -0.289
    1UNL    H18   44  -0.083   0.084  -0.033
    1UNL    H19   45  -0.257   0.034   0.086
    1UNL    H20   46  -0.548   0.007   0.058
    1UNL    H21   47  -0.473  -0.053  -0.096
    1UNL    H22   48  -0.383  -0.272   0.382
    1UNL    H23   49  -0.308  -0.330   0.229
    1UNL    H24   50  -0.483  -0.348   0.253
    1UNL    H25   51  -0.492   0.230   0.045
    1UNL    H26   52  -0.391   0.128   0.249
    1UNL    H27   53  -0.305   0.416   0.086
    1UNL    H28   54  -0.344   0.294  -0.164
    1UNL    H29   55  -0.089   0.355  -0.034
    1UNL    H30   56  -0.095   0.333   0.188
   0.00000   0.00000   0.00000   0.00000   0.00000   0.00000   0.00000   0.00000   0.00000
Generated with MDTraj, t= 58.0
 56
    1UNL     C1    1   0.666  -0.125   0.115
    1UNL     C2    2   0.583  -0.054   0.040
    1UNL     C3    3   0.435  -0.094   0.043
    1UNL     C4    4   0.368  -0.052   0.173
    1UNL     O1    5   0.412  -0.235   0.025
    1UNL     C5    6   0.362  -0.028  -0.079
    1UNL     C6    7   0.234  -0.097  -0.126
    1UNL     C7    8   0.128  -0.008  -0.174
    1UNL     C8    9   0.026  -0.029  -0.259
    1UNL     C9   10   0.015  -0.158  -0.327
    1UNL    C10   11  -0.056   0.088  -0.301
    1UNL     O2   12  -0.079   0.188  -0.207
    1UNL    C11   13  -0.133   0.146  -0.084
    1UNL     O3   14  -0.263   0.075  -0.095
    1UNL    C12   15  -0.331   0.073   0.027
    1UNL    C13   16  -0.445  -0.030   0.024
    1UNL     O4   17  -0.404  -0.160   0.061
    1UNL    C14   18  -0.395  -0.161   0.194
    1UNL    C15   19  -0.371  -0.290   0.266
    1UNL     O5   20  -0.394  -0.064   0.266
    1UNL    C16   21  -0.372   0.216   0.071
    1UNL     O6   22  -0.370   0.222   0.211
    1UNL    C17   23  -0.285   0.325   0.002
    1UNL     O7   24  -0.327   0.349  -0.133
    1UNL    C18   25  -0.143   0.269   0.008
    1UNL     O8   26  -0.099   0.254   0.139
    1UNL     H1   27   0.634  -0.177   0.203
    1UNL     H2   28   0.775  -0.114   0.112
    1UNL     H3   29   0.614   0.008  -0.044
    1UNL     H4   30   0.402  -0.116   0.257
    1UNL     H5   31   0.268  -0.063   0.167
    1UNL     H6   32   0.391   0.050   0.196
    1UNL     H7   33   0.477  -0.272   0.085
    1UNL     H8   34   0.431  -0.037  -0.174
    1UNL     H9   35   0.353   0.075  -0.062
    1UNL    H10   36   0.273  -0.169  -0.199
    1UNL    H11   37   0.195  -0.166  -0.048
    1UNL    H12   38   0.128   0.092  -0.129
    1UNL    H13   39  -0.064  -0.163  -0.405
    1UNL    H14   40   0.112  -0.186  -0.376
    1UNL    H15   41  -0.012  -0.236  -0.254
    1UNL    H16   42   0.011   0.134  -0.378
    1UNL    H17   43  -0.145   0.069  -0.362
    1UNL    H18   44  -0.063   0.078  -0.042
    1UNL    H19   45  -0.262   0.029   0.099
    1UNL    H20   46  -0.537  -0.015   0.093
    1UNL    H21   47  -0.489  -0.044  -0.079
    1UNL    H22   48  -0.302  -0.276   0.350
    1UNL    H23   49  -0.331  -0.367   0.196
    1UNL    H24   50  -0.460  -0.327   0.311
    1UNL    H25   51  -0.480   0.234   0.048
    1UNL    H26   52  -0.371   0.127   0.249
    1UNL    H27   53  -0.292   0.419   0.061
    1UNL    H28   54  -0.341   0.261  -0.185
    1UNL    H29   55  -0.079   0.340  -0.033
    1UNL    H30   56  -0.161   0.180   0.179
   0.00000   0.00000   0.00000   0.00000   0.00000   0.00000   0.00000   0.00000   0.00000
Generated with MDTraj, t= 59.0
 56
    1UNL     C1    1   0.646  -0.161   0.105
    1UNL     C2    2   0.569  -0.071   0.047
    1UNL     C3    3   0.420  -0.079   0.039
    1UNL     C4    4   0.352  -0.043   0.174
    1UNL     O1    5   0.387  -0.220   0.026
    1UNL     C5    6   0.360  -0.003  -0.080
    1UNL     C6    7   0.227  -0.066  -0.126
    1UNL     C7    8   0.150   0.011  -0.218
    1UNL     C8    9   0.028  -0.029  -0.258
    1UNL     C9   10  -0.017  -0.172  -0.244
    1UNL    C10   11  -0.068   0.079  -0.304
    1UNL     O2   12  -0.082   0.188  -0.217
    1UNL    C11   13  -0.115   0.149  -0.084
    1UNL     O3   14  -0.238   0.071  -0.093
    1UNL    C12   15  -0.315   0.071   0.025
    1UNL    C13   16  -0.431  -0.023   0.009
    1UNL     O4   17  -0.394  -0.152   0.054
    1UNL    C14   18  -0.385  -0.169   0.191
    1UNL    C15   19  -0.324  -0.293   0.250
    1UNL     O5   20  -0.407  -0.075   0.267
    1UNL    C16   21  -0.369   0.213   0.070
    1UNL     O6   22  -0.383   0.218   0.209
    1UNL    C17   23  -0.282   0.325   0.005
    1UNL     O7   24  -0.323   0.344  -0.132
    1UNL    C18   25  -0.132   0.274   0.012
    1UNL     O8   26  -0.097   0.238   0.142
    1UNL     H1   27   0.614  -0.247   0.155
    1UNL     H2   28   0.753  -0.148   0.107
    1UNL     H3   29   0.615   0.017   0.009
    1UNL     H4   30   0.395  -0.096   0.263
    1UNL     H5   31   0.246  -0.065   0.170
    1UNL     H6   32   0.357   0.055   0.195
    1UNL     H7   33   0.389  -0.265   0.108
    1UNL     H8   34   0.438  -0.022  -0.163
    1UNL     H9   35   0.353   0.102  -0.062
    1UNL    H10   36   0.248  -0.165  -0.168
    1UNL    H11   37   0.170  -0.083  -0.030
    1UNL    H12   38   0.167   0.116  -0.233
    1UNL    H13   39  -0.122  -0.194  -0.280
    1UNL    H14   40   0.047  -0.241  -0.302
    1UNL    H15   41  -0.011  -0.204  -0.140
    1UNL    H16   42  -0.053   0.125  -0.406
    1UNL    H17   43  -0.165   0.033  -0.325
    1UNL    H18   44  -0.039   0.085  -0.045
    1UNL    H19   45  -0.255   0.033   0.109
    1UNL    H20   46  -0.528   0.007   0.060
    1UNL    H21   47  -0.462  -0.047  -0.095
    1UNL    H22   48  -0.215  -0.286   0.259
    1UNL    H23   49  -0.348  -0.386   0.187
    1UNL    H24   50  -0.358  -0.310   0.347
    1UNL    H25   51  -0.472   0.220   0.030
    1UNL    H26   52  -0.415   0.135   0.240
    1UNL    H27   53  -0.282   0.420   0.057
    1UNL    H28   54  -0.315   0.262  -0.184
    1UNL    H29   55  -0.053   0.338  -0.016
    1UNL    H30   56  -0.170   0.186   0.179
   0.00000   0.00000   0.00000   0.00000   0.00000   0.00000   0.00000   0.00000   0.00000
Generated with MDTraj, t= 60.0
 56
    1UNL     C1    1   0.648  -0.156   0.101
    1UNL     C2    2   0.564  -0.068   0.054
    1UNL     C3    3   0.419  -0.096   0.047
    1UNL     C4    4   0.346  -0.042   0.176
    1UNL     O1    5   0.403  -0.235   0.044
    1UNL     C5    6   0.362  -0.027  -0.081
    1UNL     C6    7   0.222  -0.082  -0.124
    1UNL     C7    8   0.144   0.002  -0.216
    1UNL     C8    9   0.009  -0.012  -0.241
    1UNL     C9   10  -0.066  -0.127  -0.172
    1UNL    C10   11  -0.073   0.100  -0.307
    1UNL     O2   12  -0.084   0.210  -0.226
    1UNL    C11   13  -0.125   0.167  -0.101
    1UNL     O3   14  -0.243   0.081  -0.114
    1UNL    C12   15  -0.321   0.062   0.001
    1UNL    C13   16  -0.429  -0.052  -0.007
    1UNL     O4   17  -0.382  -0.173   0.055
    1UNL    C14   18  -0.368  -0.171   0.194
    1UNL    C15   19  -0.302  -0.290   0.257
    1UNL     O5   20  -0.389  -0.075   0.268
    1UNL    C16   21  -0.372   0.202   0.051
    1UNL     O6   22  -0.380   0.198   0.195
    1UNL    C17   23  -0.279   0.323   0.006
    1UNL     O7   24  -0.320   0.365  -0.120
    1UNL    C18   25  -0.133   0.278   0.005
    1UNL     O8   26  -0.079   0.235   0.129
    1UNL     H1   27   0.619  -0.258   0.131
    1UNL     H2   28   0.753  -0.139   0.092
    1UNL     H3   29   0.603   0.029   0.025
    1UNL     H4   30   0.387  -0.101   0.255
    1UNL     H5   31   0.235  -0.050   0.183
    1UNL     H6   32   0.372   0.057   0.202
    1UNL     H7   33   0.319  -0.256   0.080
    1UNL     H8   34   0.445  -0.023  -0.160
    1UNL     H9   35   0.350   0.073  -0.046
    1UNL    H10   36   0.222  -0.180  -0.170
    1UNL    H11   37   0.170  -0.088  -0.025
    1UNL    H12   38   0.191   0.087  -0.264
    1UNL    H13   39  -0.163  -0.151  -0.226
    1UNL    H14   40  -0.010  -0.220  -0.170
    1UNL    H15   41  -0.085  -0.100  -0.068
    1UNL    H16   42  -0.052   0.124  -0.415
    1UNL    H17   43  -0.176   0.070  -0.326
    1UNL    H18   44  -0.050   0.100  -0.064
    1UNL    H19   45  -0.241   0.038   0.075
    1UNL    H20   46  -0.527  -0.033   0.038
    1UNL    H21   47  -0.454  -0.065  -0.112
    1UNL    H22   48  -0.205  -0.310   0.210
    1UNL    H23   49  -0.365  -0.379   0.240
    1UNL    H24   50  -0.285  -0.276   0.364
    1UNL    H25   51  -0.472   0.229   0.017
    1UNL    H26   52  -0.379   0.094   0.213
    1UNL    H27   53  -0.294   0.405   0.073
    1UNL    H28   54  -0.304   0.293  -0.190
    1UNL    H29   55  -0.070   0.358  -0.025
    1UNL    H30   56  -0.152   0.189   0.169
   0.00000   0.00000   0.00000   0.00000   0.00000   0.00000   0.00000   0.00000   0.00000
Generated with MDTraj, t= 61.0
 56
    1UNL     C1    1   0.655  -0.134   0.078
    1UNL     C2    2   0.554  -0.052   0.060
    1UNL     C3    3   0.418  -0.113   0.057
    1UNL     C4    4   0.331  -0.056   0.172
    1UNL     O1    5   0.427  -0.257   0.060
    1UNL     C5    6   0.352  -0.074  -0.081
    1UNL     C6    7   0.207  -0.116  -0.108
    1UNL     C7    8   0.145  -0.023  -0.199
    1UNL     C8    9   0.013  -0.023  -0.231
    1UNL     C9   10  -0.080  -0.136  -0.212
    1UNL    C10   11  -0.046   0.098  -0.298
    1UNL     O2   12  -0.058   0.211  -0.214
    1UNL    C11   13  -0.127   0.175  -0.092
    1UNL     O3   14  -0.249   0.100  -0.111
    1UNL    C12   15  -0.325   0.078   0.008
    1UNL    C13   16  -0.402  -0.053  -0.001
    1UNL     O4   17  -0.317  -0.158   0.046
    1UNL    C14   18  -0.341  -0.171   0.180
    1UNL    C15   19  -0.306  -0.304   0.237
    1UNL     O5   20  -0.378  -0.080   0.256
    1UNL    C16   21  -0.388   0.217   0.069
    1UNL     O6   22  -0.366   0.224   0.207
    1UNL    C17   23  -0.313   0.337   0.001
    1UNL     O7   24  -0.373   0.359  -0.120
    1UNL    C18   25  -0.161   0.299  -0.004
    1UNL     O8   26  -0.103   0.261   0.125
    1UNL     H1   27   0.635  -0.239   0.097
    1UNL     H2   28   0.754  -0.101   0.077
    1UNL     H3   29   0.566   0.048   0.024
    1UNL     H4   30   0.373  -0.082   0.261
    1UNL     H5   31   0.227  -0.090   0.166
    1UNL     H6   32   0.331   0.060   0.168
    1UNL     H7   33   0.348  -0.289   0.016
    1UNL     H8   34   0.414  -0.104  -0.172
    1UNL     H9   35   0.368   0.033  -0.092
    1UNL    H10   36   0.213  -0.219  -0.141
    1UNL    H11   37   0.139  -0.115  -0.017
    1UNL    H12   38   0.207   0.054  -0.241
    1UNL    H13   39  -0.179  -0.112  -0.257
    1UNL    H14   40  -0.054  -0.230  -0.260
    1UNL    H15   41  -0.096  -0.158  -0.104
    1UNL    H16   42   0.023   0.124  -0.382
    1UNL    H17   43  -0.135   0.079  -0.357
    1UNL    H18   44  -0.063   0.108  -0.036
    1UNL    H19   45  -0.239   0.054   0.076
    1UNL    H20   46  -0.491  -0.041   0.057
    1UNL    H21   47  -0.441  -0.079  -0.097
    1UNL    H22   48  -0.246  -0.355   0.163
    1UNL    H23   49  -0.392  -0.363   0.255
    1UNL    H24   50  -0.242  -0.294   0.333
    1UNL    H25   51  -0.491   0.206   0.037
    1UNL    H26   52  -0.384   0.142   0.247
    1UNL    H27   53  -0.337   0.421   0.061
    1UNL    H28   54  -0.369   0.280  -0.169
    1UNL    H29   55  -0.105   0.384  -0.040
    1UNL    H30   56  -0.178   0.263   0.196
   0.00000   0.00000   0.00000   0.00000   0.00000   0.00000   0.00000   0.00000   0.00000
Generated with MDTraj, t= 62.0
 56
    1UNL     C1    1   0.654  -0.128   0.056
    1UNL     C2    2   0.541  -0.060   0.072
    1UNL     C3    3   0.409  -0.126   0.053
    1UNL     C4    4   0.314  -0.084   0.177
    1UNL     O1    5   0.431  -0.273   0.056
    1UNL     C5    6   0.351  -0.083  -0.077
    1UNL     C6    7   0.205  -0.123  -0.103
    1UNL     C7    8   0.126  -0.015  -0.166
    1UNL     C8    9   0.002  -0.022  -0.216
    1UNL     C9   10  -0.067  -0.146  -0.222
    1UNL    C10   11  -0.054   0.103  -0.280
    1UNL     O2   12  -0.054   0.221  -0.202
    1UNL    C11   13  -0.116   0.193  -0.076
    1UNL     O3   14  -0.219   0.092  -0.092
    1UNL    C12   15  -0.305   0.066   0.020
    1UNL    C13   16  -0.413  -0.046  -0.006
    1UNL     O4   17  -0.363  -0.171   0.039
    1UNL    C14   18  -0.338  -0.177   0.176
    1UNL    C15   19  -0.261  -0.299   0.219
    1UNL     O5   20  -0.358  -0.081   0.250
    1UNL    C16   21  -0.376   0.198   0.063
    1UNL     O6   22  -0.358   0.217   0.202
    1UNL    C17   23  -0.323   0.326  -0.012
    1UNL     O7   24  -0.388   0.341  -0.137
    1UNL    C18   25  -0.171   0.325  -0.014
    1UNL     O8   26  -0.113   0.355   0.116
    1UNL     H1   27   0.645  -0.233   0.043
    1UNL     H2   28   0.754  -0.080   0.063
    1UNL     H3   29   0.533   0.049   0.082
    1UNL     H4   30   0.363  -0.108   0.268
    1UNL     H5   31   0.216  -0.130   0.173
    1UNL     H6   32   0.297   0.031   0.176
    1UNL     H7   33   0.351  -0.319   0.016
    1UNL     H8   34   0.410  -0.131  -0.160
    1UNL     H9   35   0.363   0.021  -0.113
    1UNL    H10   36   0.201  -0.209  -0.170
    1UNL    H11   37   0.172  -0.152  -0.000
    1UNL    H12   38   0.176   0.082  -0.170
    1UNL    H13   39  -0.175  -0.136  -0.212
    1UNL    H14   40  -0.049  -0.199  -0.317
    1UNL    H15   41  -0.023  -0.206  -0.136
    1UNL    H16   42  -0.008   0.116  -0.380
    1UNL    H17   43  -0.155   0.074  -0.300
    1UNL    H18   44  -0.044   0.143  -0.011
    1UNL    H19   45  -0.230   0.038   0.097
    1UNL    H20   46  -0.509  -0.019   0.033
    1UNL    H21   47  -0.429  -0.056  -0.110
    1UNL    H22   48  -0.250  -0.367   0.134
    1UNL    H23   49  -0.307  -0.351   0.299
    1UNL    H24   50  -0.156  -0.265   0.251
    1UNL    H25   51  -0.482   0.194   0.046
    1UNL    H26   52  -0.359   0.121   0.250
    1UNL    H27   53  -0.359   0.408   0.044
    1UNL    H28   54  -0.342   0.269  -0.196
    1UNL    H29   55  -0.136   0.405  -0.081
    1UNL    H30   56  -0.133   0.289   0.178
   0.00000   0.00000   0.00000   0.00000   0.00000   0.00000   0.00000   0.00000   0.00000
Generated with MDTraj, t= 63.0
 56
    1UNL     C1    1   0.659  -0.138   0.035
    1UNL     C2    2   0.556  -0.091   0.103
    1UNL     C3    3   0.410  -0.139   0.068
    1UNL     C4    4   0.327  -0.115   0.201
    1UNL     O1    5   0.412  -0.280   0.041
    1UNL     C5    6   0.345  -0.056  -0.049
    1UNL     C6    7   0.212  -0.118  -0.101
    1UNL     C7    8   0.142  -0.017  -0.187
    1UNL     C8    9   0.013  -0.023  -0.232
    1UNL     C9   10  -0.079  -0.147  -0.224
    1UNL    C10   11  -0.057   0.105  -0.273
    1UNL     O2   12  -0.052   0.212  -0.184
    1UNL    C11   13  -0.140   0.199  -0.075
    1UNL     O3   14  -0.243   0.105  -0.101
    1UNL    C12   15  -0.312   0.083   0.014
    1UNL    C13   16  -0.409  -0.037   0.005
    1UNL     O4   17  -0.341  -0.156   0.036
    1UNL    C14   18  -0.314  -0.167   0.166
    1UNL    C15   19  -0.248  -0.295   0.203
    1UNL     O5   20  -0.328  -0.080   0.249
    1UNL    C16   21  -0.380   0.208   0.075
    1UNL     O6   22  -0.341   0.216   0.209
    1UNL    C17   23  -0.348   0.327  -0.012
    1UNL     O7   24  -0.399   0.292  -0.148
    1UNL    C18   25  -0.191   0.339  -0.024
    1UNL     O8   26  -0.128   0.378   0.098
    1UNL     H1   27   0.638  -0.206  -0.043
    1UNL     H2   28   0.756  -0.095   0.054
    1UNL     H3   29   0.579  -0.032   0.190
    1UNL     H4   30   0.377  -0.176   0.285
    1UNL     H5   31   0.229  -0.159   0.185
    1UNL     H6   32   0.309  -0.012   0.233
    1UNL     H7   33   0.322  -0.314   0.079
    1UNL     H8   34   0.411  -0.042  -0.136
    1UNL     H9   35   0.345   0.055  -0.024
    1UNL    H10   36   0.239  -0.208  -0.158
    1UNL    H11   37   0.140  -0.145  -0.019
    1UNL    H12   38   0.201   0.069  -0.218
    1UNL    H13   39  -0.169  -0.116  -0.174
    1UNL    H14   40  -0.110  -0.170  -0.329
    1UNL    H15   41  -0.018  -0.227  -0.176
    1UNL    H16   42  -0.016   0.134  -0.372
    1UNL    H17   43  -0.162   0.090  -0.291
    1UNL    H18   44  -0.081   0.147   0.004
    1UNL    H19   45  -0.233   0.043   0.081
    1UNL    H20   46  -0.490  -0.033   0.079
    1UNL    H21   47  -0.456  -0.040  -0.092
    1UNL    H22   48  -0.295  -0.386   0.159
    1UNL    H23   49  -0.247  -0.306   0.312
    1UNL    H24   50  -0.146  -0.293   0.173
    1UNL    H25   51  -0.486   0.195   0.064
    1UNL    H26   52  -0.324   0.131   0.240
    1UNL    H27   53  -0.392   0.419   0.015
    1UNL    H28   54  -0.341   0.222  -0.191
    1UNL    H29   55  -0.162   0.419  -0.096
    1UNL    H30   56  -0.192   0.347   0.173
   0.00000   0.00000   0.00000   0.00000   0.00000   0.00000   0.00000   0.00000   0.00000
Generated with MDTraj, t= 64.0
 56
    1UNL     C1    1   0.640  -0.147   0.008
    1UNL     C2    2   0.546  -0.114   0.096
    1UNL     C3    3   0.405  -0.152   0.081
    1UNL     C4    4   0.324  -0.168   0.215
    1UNL     O1    5   0.388  -0.282   0.011
    1UNL     C5    6   0.340  -0.047  -0.010
    1UNL     C6    7   0.214  -0.089  -0.079
    1UNL     C7    8   0.146   0.021  -0.152
    1UNL     C8    9   0.023   0.000  -0.200
    1UNL     C9   10  -0.054  -0.123  -0.165
    1UNL    C10   11  -0.038   0.105  -0.288
    1UNL     O2   12  -0.067   0.228  -0.220
    1UNL    C11   13  -0.143   0.198  -0.101
    1UNL     O3   14  -0.243   0.095  -0.118
    1UNL    C12   15  -0.302   0.073   0.012
    1UNL    C13   16  -0.399  -0.052   0.016
    1UNL     O4   17  -0.332  -0.171   0.034
    1UNL    C14   18  -0.290  -0.168   0.168
    1UNL    C15   19  -0.230  -0.298   0.217
    1UNL     O5   20  -0.292  -0.074   0.245
    1UNL    C16   21  -0.386   0.197   0.059
    1UNL     O6   22  -0.361   0.216   0.199
    1UNL    C17   23  -0.351   0.326  -0.015
    1UNL     O7   24  -0.440   0.337  -0.135
    1UNL    C18   25  -0.197   0.332  -0.047
    1UNL     O8   26  -0.123   0.367   0.065
    1UNL     H1   27   0.598  -0.204  -0.078
    1UNL     H2   28   0.746  -0.136   0.020
    1UNL     H3   29   0.570  -0.065   0.189
    1UNL     H4   30   0.388  -0.224   0.297
    1UNL     H5   31   0.220  -0.213   0.214
    1UNL     H6   32   0.304  -0.071   0.251
    1UNL     H7   33   0.320  -0.340   0.064
    1UNL     H8   34   0.414   0.004  -0.067
    1UNL     H9   35   0.324   0.044   0.058
    1UNL    H10   36   0.216  -0.170  -0.155
    1UNL    H11   37   0.142  -0.122  -0.002
    1UNL    H12   38   0.209   0.096  -0.198
    1UNL    H13   39  -0.076  -0.136  -0.060
    1UNL    H14   40  -0.160  -0.113  -0.202
    1UNL    H15   41  -0.009  -0.216  -0.206
    1UNL    H16   42   0.020   0.133  -0.378
    1UNL    H17   43  -0.132   0.067  -0.328
    1UNL    H18   44  -0.073   0.154  -0.025
    1UNL    H19   45  -0.232   0.044   0.090
    1UNL    H20   46  -0.464  -0.038   0.105
    1UNL    H21   47  -0.463  -0.063  -0.072
    1UNL    H22   48  -0.299  -0.386   0.217
    1UNL    H23   49  -0.195  -0.279   0.323
    1UNL    H24   50  -0.146  -0.322   0.163
    1UNL    H25   51  -0.492   0.178   0.065
    1UNL    H26   52  -0.343   0.124   0.247
    1UNL    H27   53  -0.370   0.403   0.057
    1UNL    H28   54  -0.418   0.273  -0.200
    1UNL    H29   55  -0.167   0.407  -0.126
    1UNL    H30   56  -0.155   0.311   0.137
   0.00000   0.00000   0.00000   0.00000   0.00000   0.00000   0.00000   0.00000   0.00000
Generated with MDTraj, t= 65.0
 56
    1UNL     C1    1   0.648  -0.148   0.013
    1UNL     C2    2   0.549  -0.158   0.105
    1UNL     C3    3   0.398  -0.171   0.073
    1UNL     C4    4   0.336  -0.203   0.207
    1UNL     O1    5   0.380  -0.281  -0.010
    1UNL     C5    6   0.337  -0.044   0.015
    1UNL     C6    7   0.182  -0.038  -0.002
    1UNL     C7    8   0.127   0.033  -0.127
    1UNL     C8    9   0.011   0.004  -0.185
    1UNL     C9   10  -0.072  -0.111  -0.144
    1UNL    C10   11  -0.038   0.096  -0.295
    1UNL     O2   12  -0.088   0.227  -0.252
    1UNL    C11   13  -0.160   0.207  -0.128
    1UNL     O3   14  -0.261   0.105  -0.139
    1UNL    C12   15  -0.306   0.076  -0.005
    1UNL    C13   16  -0.382  -0.061   0.005
    1UNL     O4   17  -0.292  -0.167   0.039
    1UNL    C14   18  -0.263  -0.163   0.171
    1UNL    C15   19  -0.198  -0.285   0.229
    1UNL     O5   20  -0.289  -0.067   0.234
    1UNL    C16   21  -0.386   0.197   0.055
    1UNL     O6   22  -0.347   0.208   0.194
    1UNL    C17   23  -0.353   0.328  -0.015
    1UNL     O7   24  -0.433   0.345  -0.134
    1UNL    C18   25  -0.204   0.334  -0.052
    1UNL     O8   26  -0.137   0.342   0.071
    1UNL     H1   27   0.639  -0.167  -0.092
    1UNL     H2   28   0.746  -0.138   0.048
    1UNL     H3   29   0.576  -0.129   0.206
    1UNL     H4   30   0.352  -0.311   0.222
    1UNL     H5   31   0.222  -0.184   0.204
    1UNL     H6   32   0.367  -0.145   0.293
    1UNL     H7   33   0.403  -0.249  -0.103
    1UNL     H8   34   0.388  -0.038  -0.078
    1UNL     H9   35   0.399   0.045   0.055
    1UNL    H10   36   0.156  -0.146  -0.009
    1UNL    H11   37   0.131   0.001   0.088
    1UNL    H12   38   0.200   0.094  -0.177
    1UNL    H13   39  -0.075  -0.127  -0.035
    1UNL    H14   40  -0.183  -0.096  -0.157
    1UNL    H15   41  -0.045  -0.204  -0.192
    1UNL    H16   42   0.046   0.115  -0.366
    1UNL    H17   43  -0.124   0.065  -0.358
    1UNL    H18   44  -0.082   0.165  -0.057
    1UNL    H19   45  -0.222   0.051   0.059
    1UNL    H20   46  -0.460  -0.065   0.087
    1UNL    H21   47  -0.430  -0.075  -0.095
    1UNL    H22   48  -0.268  -0.361   0.265
    1UNL    H23   49  -0.130  -0.252   0.312
    1UNL    H24   50  -0.136  -0.331   0.153
    1UNL    H25   51  -0.493   0.175   0.050
    1UNL    H26   52  -0.324   0.119   0.218
    1UNL    H27   53  -0.377   0.411   0.050
    1UNL    H28   54  -0.415   0.273  -0.202
    1UNL    H29   55  -0.173   0.417  -0.124
    1UNL    H30   56  -0.189   0.295   0.133
   0.00000   0.00000   0.00000   0.00000   0.00000   0.00000   0.00000   0.00000   0.00000
Generated with MDTraj, t= 66.0
 56
    1UNL     C1    1   0.617  -0.139  -0.016
    1UNL     C2    2   0.532  -0.156   0.085
    1UNL     C3    3   0.391  -0.174   0.077
    1UNL     C4    4   0.321  -0.213   0.203
    1UNL     O1    5   0.362  -0.276  -0.028
    1UNL     C5    6   0.330  -0.044   0.028
    1UNL     C6    7   0.175  -0.053   0.013
    1UNL     C7    8   0.127   0.030  -0.102
    1UNL     C8    9   0.031  -0.001  -0.184
    1UNL     C9   10  -0.045  -0.142  -0.176
    1UNL    C10   11  -0.015   0.105  -0.283
    1UNL     O2   12  -0.067   0.222  -0.223
    1UNL    C11   13  -0.154   0.199  -0.108
    1UNL     O3   14  -0.257   0.100  -0.131
    1UNL    C12   15  -0.314   0.072   0.000
    1UNL    C13   16  -0.396  -0.061   0.011
    1UNL     O4   17  -0.306  -0.165   0.040
    1UNL    C14   18  -0.260  -0.152   0.170
    1UNL    C15   19  -0.151  -0.245   0.205
    1UNL     O5   20  -0.294  -0.069   0.250
    1UNL    C16   21  -0.389   0.196   0.059
    1UNL     O6   22  -0.366   0.209   0.203
    1UNL    C17   23  -0.359   0.323  -0.025
    1UNL     O7   24  -0.416   0.312  -0.156
    1UNL    C18   25  -0.209   0.339  -0.053
    1UNL     O8   26  -0.136   0.387   0.066
    1UNL     H1   27   0.583  -0.138  -0.117
    1UNL     H2   28   0.725  -0.122   0.002
    1UNL     H3   29   0.571  -0.156   0.185
    1UNL     H4   30   0.367  -0.293   0.251
    1UNL     H5   31   0.215  -0.241   0.172
    1UNL     H6   32   0.304  -0.123   0.275
    1UNL     H7   33   0.440  -0.330  -0.048
    1UNL     H8   34   0.373  -0.019  -0.063
    1UNL     H9   35   0.367   0.049   0.085
    1UNL    H10   36   0.180  -0.164  -0.014
    1UNL    H11   37   0.124  -0.044   0.109
    1UNL    H12   38   0.188   0.117  -0.122
    1UNL    H13   39  -0.107  -0.135  -0.084
    1UNL    H14   40  -0.119  -0.147  -0.256
    1UNL    H15   41   0.029  -0.221  -0.182
    1UNL    H16   42   0.069   0.150  -0.341
    1UNL    H17   43  -0.092   0.066  -0.352
    1UNL    H18   44  -0.093   0.164  -0.019
    1UNL    H19   45  -0.232   0.059   0.070
    1UNL    H20   46  -0.473  -0.058   0.095
    1UNL    H21   47  -0.449  -0.088  -0.085
    1UNL    H22   48  -0.168  -0.290   0.299
    1UNL    H23   49  -0.060  -0.188   0.209
    1UNL    H24   50  -0.143  -0.326   0.123
    1UNL    H25   51  -0.497   0.179   0.041
    1UNL    H26   52  -0.359   0.116   0.243
    1UNL    H27   53  -0.409   0.412   0.017
    1UNL    H28   54  -0.372   0.225  -0.189
    1UNL    H29   55  -0.188   0.416  -0.135
    1UNL    H30   56  -0.183   0.350   0.148
   0.00000   0.00000   0.00000   0.00000   0.00000   0.00000   0.00000   0.00000   0.00000
Generated with MDTraj, t= 67.0
 56
    1UNL     C1    1   0.601  -0.126  -0.035
    1UNL     C2    2   0.539  -0.158   0.080
    1UNL     C3    3   0.386  -0.186   0.081
    1UNL     C4    4   0.346  -0.224   0.219
    1UNL     O1    5   0.355  -0.293  -0.013
    1UNL     C5    6   0.312  -0.055   0.035
    1UNL     C6    7   0.176  -0.089  -0.018
    1UNL     C7    8   0.115   0.022  -0.098
    1UNL     C8    9   0.025  -0.003  -0.190
    1UNL     C9   10  -0.023  -0.145  -0.225
    1UNL    C10   11  -0.039   0.110  -0.270
    1UNL     O2   12  -0.055   0.229  -0.200
    1UNL    C11   13  -0.136   0.213  -0.078
    1UNL     O3   14  -0.230   0.109  -0.095
    1UNL    C12   15  -0.299   0.081   0.021
    1UNL    C13   16  -0.370  -0.053   0.007
    1UNL     O4   17  -0.292  -0.161   0.036
    1UNL    C14   18  -0.249  -0.146   0.167
    1UNL    C15   19  -0.143  -0.246   0.209
    1UNL     O5   20  -0.285  -0.062   0.244
    1UNL    C16   21  -0.403   0.199   0.052
    1UNL     O6   22  -0.375   0.240   0.187
    1UNL    C17   23  -0.373   0.315  -0.048
    1UNL     O7   24  -0.426   0.290  -0.177
    1UNL    C18   25  -0.220   0.344  -0.048
    1UNL     O8   26  -0.174   0.395   0.076
    1UNL     H1   27   0.541  -0.114  -0.120
    1UNL     H2   28   0.706  -0.101  -0.042
    1UNL     H3   29   0.604  -0.184   0.164
    1UNL     H4   30   0.414  -0.302   0.248
    1UNL     H5   31   0.243  -0.251   0.231
    1UNL     H6   32   0.366  -0.132   0.287
    1UNL     H7   33   0.271  -0.323   0.011
    1UNL     H8   34   0.374   0.005  -0.023
    1UNL     H9   35   0.307   0.027   0.119
    1UNL    H10   36   0.191  -0.180  -0.091
    1UNL    H11   37   0.121  -0.125   0.069
    1UNL    H12   38   0.173   0.113  -0.088
    1UNL    H13   39  -0.109  -0.175  -0.160
    1UNL    H14   40  -0.069  -0.146  -0.323
    1UNL    H15   41   0.062  -0.213  -0.230
    1UNL    H16   42   0.023   0.123  -0.360
    1UNL    H17   43  -0.144   0.083  -0.289
    1UNL    H18   44  -0.066   0.187   0.004
    1UNL    H19   45  -0.228   0.088   0.104
    1UNL    H20   46  -0.458  -0.060   0.078
    1UNL    H21   47  -0.411  -0.068  -0.097
    1UNL    H22   48  -0.121  -0.237   0.314
    1UNL    H23   49  -0.051  -0.232   0.154
    1UNL    H24   50  -0.181  -0.352   0.190
    1UNL    H25   51  -0.510   0.162   0.045
    1UNL    H26   52  -0.388   0.165   0.243
    1UNL    H27   53  -0.433   0.403  -0.015
    1UNL    H28   54  -0.360   0.231  -0.209
    1UNL    H29   55  -0.190   0.413  -0.134
    1UNL    H30   56  -0.218   0.337   0.148
   0.00000   0.00000   0.00000   0.00000   0.00000   0.00000   0.00000   0.00000   0.00000
Generated with MDTraj, t= 68.0
 56
    1UNL     C1    1   0.611  -0.147  -0.034
    1UNL     C2    2   0.534  -0.137   0.074
    1UNL     C3    3   0.395  -0.190   0.083
    1UNL     C4    4   0.362  -0.210   0.236
    1UNL     O1    5   0.388  -0.316   0.007
    1UNL     C5    6   0.299  -0.083   0.009
    1UNL     C6    7   0.151  -0.113  -0.031
    1UNL     C7    8   0.096   0.006  -0.109
    1UNL     C8    9   0.011   0.003  -0.207
    1UNL     C9   10  -0.060  -0.106  -0.265
    1UNL    C10   11  -0.028   0.142  -0.261
    1UNL     O2   12  -0.033   0.250  -0.174
    1UNL    C11   13  -0.139   0.226  -0.083
    1UNL     O3   14  -0.207   0.102  -0.095
    1UNL    C12   15  -0.290   0.073   0.013
    1UNL    C13   16  -0.360  -0.059   0.011
    1UNL     O4   17  -0.265  -0.155   0.056
    1UNL    C14   18  -0.236  -0.149   0.189
    1UNL    C15   19  -0.169  -0.273   0.241
    1UNL     O5   20  -0.268  -0.060   0.262
    1UNL    C16   21  -0.400   0.195   0.037
    1UNL     O6   22  -0.397   0.235   0.171
    1UNL    C17   23  -0.379   0.316  -0.056
    1UNL     O7   24  -0.429   0.297  -0.191
    1UNL    C18   25  -0.232   0.351  -0.050
    1UNL     O8   26  -0.194   0.397   0.078
    1UNL     H1   27   0.583  -0.207  -0.123
    1UNL     H2   28   0.711  -0.112  -0.022
    1UNL     H3   29   0.572  -0.083   0.158
    1UNL     H4   30   0.425  -0.295   0.279
    1UNL     H5   31   0.260  -0.229   0.251
    1UNL     H6   32   0.389  -0.123   0.294
    1UNL     H7   33   0.303  -0.360   0.001
    1UNL     H8   34   0.359  -0.034  -0.062
    1UNL     H9   35   0.298   0.012   0.076
    1UNL    H10   36   0.159  -0.208  -0.097
    1UNL    H11   37   0.079  -0.129   0.051
    1UNL    H12   38   0.151   0.094  -0.079
    1UNL    H13   39  -0.072  -0.187  -0.191
    1UNL    H14   40  -0.164  -0.088  -0.285
    1UNL    H15   41  -0.008  -0.143  -0.354
    1UNL    H16   42   0.046   0.173  -0.335
    1UNL    H17   43  -0.126   0.124  -0.306
    1UNL    H18   44  -0.086   0.220   0.013
    1UNL    H19   45  -0.225   0.077   0.104
    1UNL    H20   46  -0.450  -0.066   0.073
    1UNL    H21   47  -0.390  -0.088  -0.093
    1UNL    H22   48  -0.082  -0.251   0.309
    1UNL    H23   49  -0.131  -0.332   0.156
    1UNL    H24   50  -0.241  -0.333   0.293
    1UNL    H25   51  -0.501   0.144   0.019
    1UNL    H26   52  -0.379   0.143   0.219
    1UNL    H27   53  -0.437   0.404  -0.016
    1UNL    H28   54  -0.358   0.247  -0.242
    1UNL    H29   55  -0.203   0.440  -0.116
    1UNL    H30   56  -0.254   0.360   0.139
   0.00000   0.00000   0.00000   0.00000   0.00000   0.00000   0.00000   0.00000   0.00000
Generated with MDTraj, t= 69.0
 56
    1UNL     C1    1   0.622  -0.204   0.008
    1UNL     C2    2   0.535  -0.140   0.086
    1UNL     C3    3   0.386  -0.173   0.062
    1UNL     C4    4   0.312  -0.182   0.199
    1UNL     O1    5   0.372  -0.306  -0.013
    1UNL     C5    6   0.320  -0.067  -0.024
    1UNL     C6    7   0.176  -0.098  -0.060
    1UNL     C7    8   0.118   0.018  -0.131
    1UNL     C8    9   0.018   0.025  -0.211
    1UNL     C9   10  -0.055  -0.109  -0.239
    1UNL    C10   11  -0.031   0.152  -0.269
    1UNL     O2   12  -0.038   0.255  -0.169
    1UNL    C11   13  -0.130   0.223  -0.067
    1UNL     O3   14  -0.213   0.108  -0.102
    1UNL    C12   15  -0.292   0.067   0.007
    1UNL    C13   16  -0.350  -0.075   0.002
    1UNL     O4   17  -0.260  -0.168   0.066
    1UNL    C14   18  -0.253  -0.137   0.200
    1UNL    C15   19  -0.174  -0.236   0.277
    1UNL     O5   20  -0.309  -0.045   0.258
    1UNL    C16   21  -0.399   0.173   0.040
    1UNL     O6   22  -0.414   0.191   0.178
    1UNL    C17   23  -0.371   0.301  -0.043
    1UNL     O7   24  -0.398   0.276  -0.181
    1UNL    C18   25  -0.223   0.345  -0.034
    1UNL     O8   26  -0.184   0.409   0.075
    1UNL     H1   27   0.593  -0.290  -0.050
    1UNL     H2   28   0.722  -0.174   0.017
    1UNL     H3   29   0.565  -0.048   0.135
    1UNL     H4   30   0.365  -0.259   0.267
    1UNL     H5   31   0.207  -0.209   0.189
    1UNL     H6   32   0.320  -0.095   0.251
    1UNL     H7   33   0.280  -0.343  -0.026
    1UNL     H8   34   0.375  -0.041  -0.110
    1UNL     H9   35   0.322   0.039   0.021
    1UNL    H10   36   0.171  -0.189  -0.128
    1UNL    H11   37   0.131  -0.117   0.040
    1UNL    H12   38   0.150   0.112  -0.087
    1UNL    H13   39   0.021  -0.186  -0.246
    1UNL    H14   40  -0.116  -0.134  -0.154
    1UNL    H15   41  -0.102  -0.093  -0.337
    1UNL    H16   42   0.033   0.185  -0.350
    1UNL    H17   43  -0.131   0.150  -0.313
    1UNL    H18   44  -0.066   0.203   0.018
    1UNL    H19   45  -0.224   0.075   0.097
    1UNL    H20   46  -0.449  -0.092   0.038
    1UNL    H21   47  -0.344  -0.110  -0.102
    1UNL    H22   48  -0.061  -0.227   0.258
    1UNL    H23   49  -0.202  -0.337   0.243
    1UNL    H24   50  -0.195  -0.229   0.378
    1UNL    H25   51  -0.503   0.140   0.008
    1UNL    H26   52  -0.384   0.111   0.216
    1UNL    H27   53  -0.442   0.385  -0.014
    1UNL    H28   54  -0.331   0.208  -0.214
    1UNL    H29   55  -0.207   0.413  -0.123
    1UNL    H30   56  -0.214   0.350   0.153
   0.00000   0.00000   0.00000   0.00000   0.00000   0.00000   0.00000   0.00000   0.00000
Generated with MDTraj, t= 70.0
 56
    1UNL     C1    1   0.624  -0.261   0.058
    1UNL     C2    2   0.541  -0.167   0.104
    1UNL     C3    3   0.388  -0.174   0.059
    1UNL     C4    4   0.292  -0.177   0.183
    1UNL     O1    5   0.375  -0.296  -0.021
    1UNL     C5    6   0.355  -0.053  -0.039
    1UNL     C6    7   0.214  -0.068  -0.094
    1UNL     C7    8   0.162   0.041  -0.184
    1UNL     C8    9   0.041   0.042  -0.230
    1UNL     C9   10  -0.038  -0.084  -0.235
    1UNL    C10   11  -0.030   0.154  -0.299
    1UNL     O2   12  -0.075   0.258  -0.212
    1UNL    C11   13  -0.136   0.221  -0.092
    1UNL     O3   14  -0.213   0.101  -0.094
    1UNL    C12   15  -0.291   0.077   0.021
    1UNL    C13   16  -0.347  -0.067   0.022
    1UNL     O4   17  -0.255  -0.158   0.087
    1UNL    C14   18  -0.266  -0.143   0.220
    1UNL    C15   19  -0.167  -0.216   0.303
    1UNL     O5   20  -0.355  -0.082   0.279
    1UNL    C16   21  -0.407   0.175   0.042
    1UNL     O6   22  -0.415   0.203   0.184
    1UNL    C17   23  -0.383   0.304  -0.053
    1UNL     O7   24  -0.408   0.288  -0.193
    1UNL    C18   25  -0.226   0.332  -0.029
    1UNL     O8   26  -0.193   0.356   0.111
    1UNL     H1   27   0.602  -0.325  -0.025
    1UNL     H2   28   0.731  -0.256   0.089
    1UNL     H3   29   0.572  -0.108   0.188
    1UNL     H4   30   0.324  -0.246   0.254
    1UNL     H5   31   0.187  -0.197   0.157
    1UNL     H6   32   0.297  -0.083   0.233
    1UNL     H7   33   0.273  -0.301  -0.035
    1UNL     H8   34   0.423  -0.043  -0.123
    1UNL     H9   35   0.368   0.045   0.010
    1UNL    H10   36   0.211  -0.166  -0.150
    1UNL    H11   37   0.137  -0.065  -0.009
    1UNL    H12   38   0.209   0.140  -0.180
    1UNL    H13   39  -0.071  -0.107  -0.334
    1UNL    H14   40   0.021  -0.170  -0.206
    1UNL    H15   41  -0.130  -0.068  -0.175
    1UNL    H16   42   0.028   0.210  -0.370
    1UNL    H17   43  -0.118   0.127  -0.357
    1UNL    H18   44  -0.056   0.204  -0.022
    1UNL    H19   45  -0.216   0.076   0.106
    1UNL    H20   46  -0.430  -0.084   0.085
    1UNL    H21   47  -0.364  -0.108  -0.076
    1UNL    H22   48  -0.080  -0.253   0.246
    1UNL    H23   49  -0.215  -0.304   0.351
    1UNL    H24   50  -0.131  -0.154   0.383
    1UNL    H25   51  -0.500   0.124   0.007
    1UNL    H26   52  -0.411   0.108   0.232
    1UNL    H27   53  -0.442   0.394  -0.014
    1UNL    H28   54  -0.353   0.215  -0.218
    1UNL    H29   55  -0.192   0.430  -0.069
    1UNL    H30   56  -0.266   0.318   0.173
   0.00000   0.00000   0.00000   0.00000   0.00000   0.00000   0.00000   0.00000   0.00000
Generated with MDTraj, t= 71.0
 56
    1UNL     C1    1   0.610  -0.262   0.115
    1UNL     C2    2   0.535  -0.157   0.085
    1UNL     C3    3   0.393  -0.170   0.046
    1UNL     C4    4   0.303  -0.179   0.171
    1UNL     O1    5   0.371  -0.297  -0.030
    1UNL     C5    6   0.350  -0.046  -0.043
    1UNL     C6    7   0.233  -0.077  -0.133
    1UNL     C7    8   0.169   0.048  -0.191
    1UNL     C8    9   0.041   0.052  -0.229
    1UNL     C9   10  -0.045  -0.066  -0.225
    1UNL    C10   11  -0.019   0.169  -0.296
    1UNL     O2   12  -0.083   0.263  -0.214
    1UNL    C11   13  -0.146   0.217  -0.102
    1UNL     O3   14  -0.226   0.093  -0.111
    1UNL    C12   15  -0.290   0.066   0.010
    1UNL    C13   16  -0.330  -0.087   0.020
    1UNL     O4   17  -0.238  -0.159   0.106
    1UNL    C14   18  -0.265  -0.136   0.239
    1UNL    C15   19  -0.194  -0.215   0.347
    1UNL     O5   20  -0.359  -0.064   0.275
    1UNL    C16   21  -0.402   0.168   0.027
    1UNL     O6   22  -0.426   0.184   0.165
    1UNL    C17   23  -0.373   0.312  -0.035
    1UNL     O7   24  -0.419   0.323  -0.164
    1UNL    C18   25  -0.219   0.324  -0.032
    1UNL     O8   26  -0.175   0.312   0.102
    1UNL     H1   27   0.569  -0.357   0.103
    1UNL     H2   28   0.713  -0.259   0.142
    1UNL     H3   29   0.569  -0.055   0.084
    1UNL     H4   30   0.322  -0.267   0.217
    1UNL     H5   31   0.199  -0.177   0.145
    1UNL     H6   32   0.325  -0.100   0.245
    1UNL     H7   33   0.269  -0.303  -0.046
    1UNL     H8   34   0.431  -0.001  -0.105
    1UNL     H9   35   0.321   0.032   0.024
    1UNL    H10   36   0.262  -0.142  -0.219
    1UNL    H11   37   0.140  -0.121  -0.077
    1UNL    H12   38   0.222   0.138  -0.168
    1UNL    H13   39  -0.150  -0.058  -0.214
    1UNL    H14   40  -0.045  -0.129  -0.314
    1UNL    H15   41  -0.030  -0.135  -0.142
    1UNL    H16   42   0.060   0.219  -0.350
    1UNL    H17   43  -0.092   0.135  -0.372
    1UNL    H18   44  -0.062   0.183  -0.043
    1UNL    H19   45  -0.222   0.086   0.095
    1UNL    H20   46  -0.427  -0.103   0.059
    1UNL    H21   47  -0.321  -0.140  -0.074
    1UNL    H22   48  -0.175  -0.313   0.319
    1UNL    H23   49  -0.259  -0.219   0.437
    1UNL    H24   50  -0.097  -0.165   0.379
    1UNL    H25   51  -0.496   0.136  -0.021
    1UNL    H26   52  -0.418   0.099   0.214
    1UNL    H27   53  -0.437   0.392   0.021
    1UNL    H28   54  -0.363   0.267  -0.226
    1UNL    H29   55  -0.184   0.416  -0.079
    1UNL    H30   56  -0.240   0.268   0.152
   0.00000   0.00000   0.00000   0.00000   0.00000   0.00000   0.00000   0.00000   0.00000
Generated with MDTraj, t= 72.0
 56
    1UNL     C1    1   0.601  -0.232   0.152
    1UNL     C2    2   0.532  -0.142   0.085
    1UNL     C3    3   0.395  -0.171   0.028
    1UNL     C4    4   0.298  -0.176   0.148
    1UNL     O1    5   0.396  -0.292  -0.042
    1UNL     C5    6   0.351  -0.049  -0.054
    1UNL     C6    7   0.209  -0.069  -0.115
    1UNL     C7    8   0.143   0.047  -0.187
    1UNL     C8    9   0.024   0.036  -0.246
    1UNL     C9   10  -0.043  -0.099  -0.275
    1UNL    C10   11  -0.047   0.161  -0.300
    1UNL     O2   12  -0.062   0.262  -0.201
    1UNL    C11   13  -0.120   0.211  -0.083
    1UNL     O3   14  -0.211   0.091  -0.103
    1UNL    C12   15  -0.289   0.068   0.015
    1UNL    C13   16  -0.336  -0.081   0.023
    1UNL     O4   17  -0.249  -0.158   0.103
    1UNL    C14   18  -0.278  -0.133   0.234
    1UNL    C15   19  -0.198  -0.214   0.331
    1UNL     O5   20  -0.374  -0.069   0.276
    1UNL    C16   21  -0.405   0.177   0.036
    1UNL     O6   22  -0.447   0.180   0.177
    1UNL    C17   23  -0.359   0.308  -0.034
    1UNL     O7   24  -0.390   0.309  -0.171
    1UNL    C18   25  -0.202   0.321  -0.018
    1UNL     O8   26  -0.156   0.334   0.121
    1UNL     H1   27   0.548  -0.328   0.176
    1UNL     H2   28   0.690  -0.214   0.209
    1UNL     H3   29   0.582  -0.052   0.052
    1UNL     H4   30   0.333  -0.256   0.215
    1UNL     H5   31   0.205  -0.205   0.122
    1UNL     H6   32   0.294  -0.085   0.209
    1UNL     H7   33   0.308  -0.316  -0.086
    1UNL     H8   34   0.421  -0.047  -0.144
    1UNL     H9   35   0.353   0.040  -0.003
    1UNL    H10   36   0.194  -0.155  -0.185
    1UNL    H11   37   0.145  -0.084  -0.019
    1UNL    H12   38   0.154   0.148  -0.150
    1UNL    H13   39  -0.073  -0.112  -0.377
    1UNL    H14   40   0.025  -0.179  -0.247
    1UNL    H15   41  -0.129  -0.104  -0.210
    1UNL    H16   42   0.007   0.193  -0.389
    1UNL    H17   43  -0.145   0.123  -0.337
    1UNL    H18   44  -0.040   0.177  -0.015
    1UNL    H19   45  -0.215   0.077   0.093
    1UNL    H20   46  -0.434  -0.091   0.065
    1UNL    H21   47  -0.338  -0.121  -0.080
    1UNL    H22   48  -0.235  -0.312   0.327
    1UNL    H23   49  -0.211  -0.179   0.435
    1UNL    H24   50  -0.088  -0.212   0.305
    1UNL    H25   51  -0.487   0.131  -0.019
    1UNL    H26   52  -0.416   0.088   0.218
    1UNL    H27   53  -0.414   0.400   0.012
    1UNL    H28   54  -0.342   0.234  -0.218
    1UNL    H29   55  -0.170   0.418  -0.052
    1UNL    H30   56  -0.219   0.282   0.184
   0.00000   0.00000   0.00000   0.00000   0.00000   0.00000   0.00000   0.00000   0.00000
Generated with MDTraj, t= 73.0
 56
    1UNL     C1    1   0.608  -0.172   0.141
    1UNL     C2    2   0.514  -0.106   0.082
    1UNL     C3    3   0.387  -0.163   0.033
    1UNL     C4    4   0.300  -0.198   0.156
    1UNL     O1    5   0.418  -0.274  -0.041
    1UNL     C5    6   0.313  -0.057  -0.046
    1UNL     C6    7   0.184  -0.101  -0.124
    1UNL     C7    8   0.121   0.015  -0.190
    1UNL     C8    9   0.005   0.014  -0.251
    1UNL     C9   10  -0.060  -0.113  -0.305
    1UNL    C10   11  -0.049   0.146  -0.294
    1UNL     O2   12  -0.039   0.241  -0.188
    1UNL    C11   13  -0.108   0.215  -0.065
    1UNL     O3   14  -0.189   0.095  -0.073
    1UNL    C12   15  -0.282   0.072   0.037
    1UNL    C13   16  -0.354  -0.067   0.028
    1UNL     O4   17  -0.270  -0.158   0.091
    1UNL    C14   18  -0.283  -0.152   0.227
    1UNL    C15   19  -0.195  -0.242   0.302
    1UNL     O5   20  -0.372  -0.093   0.284
    1UNL    C16   21  -0.397   0.185   0.034
    1UNL     O6   22  -0.411   0.217   0.168
    1UNL    C17   23  -0.344   0.313  -0.046
    1UNL     O7   24  -0.351   0.306  -0.185
    1UNL    C18   25  -0.196   0.333  -0.008
    1UNL     O8   26  -0.186   0.348   0.136
    1UNL     H1   27   0.599  -0.276   0.156
    1UNL     H2   28   0.695  -0.130   0.181
    1UNL     H3   29   0.531  -0.000   0.071
    1UNL     H4   30   0.345  -0.263   0.236
    1UNL     H5   31   0.211  -0.245   0.121
    1UNL     H6   32   0.276  -0.108   0.201
    1UNL     H7   33   0.335  -0.307  -0.082
    1UNL     H8   34   0.382  -0.017  -0.127
    1UNL     H9   35   0.284   0.021   0.014
    1UNL    H10   36   0.212  -0.181  -0.200
    1UNL    H11   37   0.103  -0.150  -0.057
    1UNL    H12   38   0.143   0.114  -0.153
    1UNL    H13   39   0.013  -0.194  -0.308
    1UNL    H14   40  -0.140  -0.132  -0.234
    1UNL    H15   41  -0.091  -0.084  -0.403
    1UNL    H16   42   0.013   0.175  -0.379
    1UNL    H17   43  -0.154   0.133  -0.331
    1UNL    H18   44  -0.015   0.197  -0.005
    1UNL    H19   45  -0.223   0.090   0.124
    1UNL    H20   46  -0.449  -0.058   0.082
    1UNL    H21   47  -0.378  -0.089  -0.080
    1UNL    H22   48  -0.260  -0.309   0.364
    1UNL    H23   49  -0.127  -0.188   0.368
    1UNL    H24   50  -0.136  -0.299   0.231
    1UNL    H25   51  -0.492   0.148  -0.002
    1UNL    H26   52  -0.414   0.139   0.221
    1UNL    H27   53  -0.408   0.406  -0.015
    1UNL    H28   54  -0.285   0.242  -0.210
    1UNL    H29   55  -0.156   0.420  -0.052
    1UNL    H30   56  -0.277   0.330   0.177
   0.00000   0.00000   0.00000   0.00000   0.00000   0.00000   0.00000   0.00000   0.00000
Generated with MDTraj, t= 74.0
 56
    1UNL     C1    1   0.619  -0.131   0.109
    1UNL     C2    2   0.495  -0.088   0.112
    1UNL     C3    3   0.380  -0.159   0.050
    1UNL     C4    4   0.299  -0.229   0.153
    1UNL     O1    5   0.436  -0.260  -0.042
    1UNL     C5    6   0.292  -0.059  -0.024
    1UNL     C6    7   0.189  -0.105  -0.123
    1UNL     C7    8   0.109   0.010  -0.176
    1UNL     C8    9   0.000   0.000  -0.254
    1UNL     C9   10  -0.066  -0.129  -0.284
    1UNL    C10   11  -0.057   0.138  -0.293
    1UNL     O2   12  -0.048   0.238  -0.190
    1UNL    C11   13  -0.109   0.204  -0.069
    1UNL     O3   14  -0.187   0.085  -0.080
    1UNL    C12   15  -0.283   0.070   0.021
    1UNL    C13   16  -0.353  -0.073   0.008
    1UNL     O4   17  -0.285  -0.173   0.077
    1UNL    C14   18  -0.280  -0.145   0.211
    1UNL    C15   19  -0.240  -0.263   0.295
    1UNL     O5   20  -0.323  -0.042   0.260
    1UNL    C16   21  -0.383   0.188   0.042
    1UNL     O6   22  -0.410   0.209   0.177
    1UNL    C17   23  -0.339   0.315  -0.025
    1UNL     O7   24  -0.367   0.324  -0.168
    1UNL    C18   25  -0.190   0.330  -0.006
    1UNL     O8   26  -0.147   0.353   0.128
    1UNL     H1   27   0.656  -0.217   0.057
    1UNL     H2   28   0.705  -0.063   0.138
    1UNL     H3   29   0.477  -0.007   0.182
    1UNL     H4   30   0.371  -0.294   0.202
    1UNL     H5   31   0.223  -0.298   0.103
    1UNL     H6   32   0.255  -0.164   0.220
    1UNL     H7   33   0.369  -0.296  -0.097
    1UNL     H8   34   0.358   0.015  -0.076
    1UNL     H9   35   0.251  -0.004   0.058
    1UNL    H10   36   0.231  -0.161  -0.213
    1UNL    H11   37   0.128  -0.188  -0.071
    1UNL    H12   38   0.137   0.108  -0.139
    1UNL    H13   39  -0.140  -0.158  -0.207
    1UNL    H14   40  -0.126  -0.124  -0.374
    1UNL    H15   41   0.000  -0.212  -0.292
    1UNL    H16   42  -0.009   0.186  -0.379
    1UNL    H17   43  -0.163   0.114  -0.323
    1UNL    H18   44  -0.023   0.196   0.002
    1UNL    H19   45  -0.219   0.070   0.106
    1UNL    H20   46  -0.456  -0.060   0.048
    1UNL    H21   47  -0.360  -0.105  -0.101
    1UNL    H22   48  -0.295  -0.259   0.398
    1UNL    H23   49  -0.134  -0.275   0.309
    1UNL    H24   50  -0.272  -0.352   0.247
    1UNL    H25   51  -0.472   0.161  -0.010
    1UNL    H26   52  -0.401   0.116   0.225
    1UNL    H27   53  -0.391   0.406   0.027
    1UNL    H28   54  -0.309   0.256  -0.206
    1UNL    H29   55  -0.170   0.423  -0.054
    1UNL    H30   56  -0.207   0.301   0.179
   0.00000   0.00000   0.00000   0.00000   0.00000   0.00000   0.00000   0.00000   0.00000
Generated with MDTraj, t= 75.0
 56
    1UNL     C1    1   0.611  -0.068   0.093
    1UNL     C2    2   0.506  -0.129   0.146
    1UNL     C3    3   0.387  -0.169   0.061
    1UNL     C4    4   0.289  -0.261   0.132
    1UNL     O1    5   0.438  -0.241  -0.056
    1UNL     C5    6   0.310  -0.042   0.003
    1UNL     C6    7   0.191  -0.079  -0.083
    1UNL     C7    8   0.126   0.027  -0.167
    1UNL     C8    9   0.023   0.003  -0.252
    1UNL     C9   10  -0.053  -0.124  -0.246
    1UNL    C10   11  -0.034   0.127  -0.318
    1UNL     O2   12  -0.067   0.233  -0.223
    1UNL    C11   13  -0.130   0.188  -0.104
    1UNL     O3   14  -0.244   0.098  -0.114
    1UNL    C12   15  -0.301   0.071   0.013
    1UNL    C13   16  -0.381  -0.063   0.020
    1UNL     O4   17  -0.313  -0.164   0.079
    1UNL    C14   18  -0.287  -0.147   0.213
    1UNL    C15   19  -0.256  -0.277   0.282
    1UNL     O5   20  -0.306  -0.049   0.280
    1UNL    C16   21  -0.389   0.194   0.053
    1UNL     O6   22  -0.384   0.208   0.195
    1UNL    C17   23  -0.326   0.327  -0.019
    1UNL     O7   24  -0.379   0.328  -0.154
    1UNL    C18   25  -0.169   0.316  -0.020
    1UNL     O8   26  -0.106   0.311   0.101
    1UNL     H1   27   0.634  -0.038  -0.007
    1UNL     H2   28   0.696  -0.055   0.154
    1UNL     H3   29   0.508  -0.164   0.247
    1UNL     H4   30   0.335  -0.351   0.154
    1UNL     H5   31   0.200  -0.293   0.070
    1UNL     H6   32   0.252  -0.213   0.228
    1UNL     H7   33   0.369  -0.283  -0.102
    1UNL     H8   34   0.393   0.017  -0.038
    1UNL     H9   35   0.273   0.024   0.085
    1UNL    H10   36   0.221  -0.167  -0.150
    1UNL    H11   37   0.114  -0.134  -0.020
    1UNL    H12   38   0.171   0.125  -0.159
    1UNL    H13   39  -0.161  -0.108  -0.263
    1UNL    H14   40  -0.029  -0.192  -0.323
    1UNL    H15   41  -0.045  -0.179  -0.153
    1UNL    H16   42   0.027   0.168  -0.399
    1UNL    H17   43  -0.133   0.109  -0.370
    1UNL    H18   44  -0.043   0.142  -0.050
    1UNL    H19   45  -0.215   0.060   0.076
    1UNL    H20   46  -0.475  -0.051   0.080
    1UNL    H21   47  -0.404  -0.096  -0.087
    1UNL    H22   48  -0.254  -0.259   0.394
    1UNL    H23   49  -0.168  -0.327   0.246
    1UNL    H24   50  -0.338  -0.344   0.266
    1UNL    H25   51  -0.492   0.173   0.025
    1UNL    H26   52  -0.361   0.126   0.234
    1UNL    H27   53  -0.361   0.418   0.047
    1UNL    H28   54  -0.348   0.240  -0.195
    1UNL    H29   55  -0.129   0.401  -0.075
    1UNL    H30   56  -0.155   0.241   0.159
   0.00000   0.00000   0.00000   0.00000   0.00000   0.00000   0.00000   0.00000   0.00000
Generated with MDTraj, t= 76.0
 56
    1UNL     C1    1   0.586  -0.019   0.118
    1UNL     C2    2   0.519  -0.128   0.144
    1UNL     C3    3   0.404  -0.182   0.058
    1UNL     C4    4   0.311  -0.278   0.130
    1UNL     O1    5   0.462  -0.253  -0.051
    1UNL     C5    6   0.323  -0.057  -0.009
    1UNL     C6    7   0.189  -0.089  -0.072
    1UNL     C7    8   0.144   0.020  -0.156
    1UNL     C8    9   0.030   0.010  -0.223
    1UNL     C9   10  -0.059  -0.114  -0.227
    1UNL    C10   11  -0.012   0.117  -0.311
    1UNL     O2   12  -0.111   0.206  -0.258
    1UNL    C11   13  -0.146   0.186  -0.127
    1UNL     O3   14  -0.255   0.092  -0.112
    1UNL    C12   15  -0.312   0.079   0.018
    1UNL    C13   16  -0.408  -0.044   0.023
    1UNL     O4   17  -0.345  -0.166   0.066
    1UNL    C14   18  -0.304  -0.156   0.200
    1UNL    C15   19  -0.226  -0.270   0.252
    1UNL     O5   20  -0.340  -0.069   0.274
    1UNL    C16   21  -0.374   0.211   0.073
    1UNL     O6   22  -0.331   0.223   0.212
    1UNL    C17   23  -0.324   0.333  -0.010
    1UNL     O7   24  -0.394   0.359  -0.135
    1UNL    C18   25  -0.173   0.307  -0.038
    1UNL     O8   26  -0.101   0.293   0.087
    1UNL     H1   27   0.569   0.054   0.033
    1UNL     H2   28   0.675  -0.008   0.178
    1UNL     H3   29   0.544  -0.186   0.231
    1UNL     H4   30   0.364  -0.362   0.167
    1UNL     H5   31   0.231  -0.324   0.071
    1UNL     H6   32   0.270  -0.221   0.223
    1UNL     H7   33   0.400  -0.298  -0.106
    1UNL     H8   34   0.383  -0.003  -0.080
    1UNL     H9   35   0.305   0.020   0.077
    1UNL    H10   36   0.211  -0.192  -0.119
    1UNL    H11   37   0.108  -0.119  -0.000
    1UNL    H12   38   0.209   0.103  -0.180
    1UNL    H13   39  -0.103  -0.111  -0.327
    1UNL    H14   40   0.005  -0.199  -0.228
    1UNL    H15   41  -0.130  -0.109  -0.145
    1UNL    H16   42   0.064   0.182  -0.351
    1UNL    H17   43  -0.059   0.086  -0.408
    1UNL    H18   44  -0.061   0.132  -0.079
    1UNL    H19   45  -0.231   0.063   0.089
    1UNL    H20   46  -0.493  -0.023   0.088
    1UNL    H21   47  -0.445  -0.068  -0.081
    1UNL    H22   48  -0.152  -0.244   0.322
    1UNL    H23   49  -0.190  -0.328   0.163
    1UNL    H24   50  -0.295  -0.339   0.303
    1UNL    H25   51  -0.484   0.207   0.069
    1UNL    H26   52  -0.340   0.128   0.258
    1UNL    H27   53  -0.323   0.435   0.049
    1UNL    H28   54  -0.385   0.293  -0.205
    1UNL    H29   55  -0.129   0.394  -0.091
    1UNL    H30   56  -0.161   0.268   0.161
   0.00000   0.00000   0.00000   0.00000   0.00000   0.00000   0.00000   0.00000   0.00000
Generated with MDTraj, t= 77.0
 56
    1UNL     C1    1   0.593  -0.011   0.119
    1UNL     C2    2   0.507  -0.102   0.159
    1UNL     C3    3   0.407  -0.171   0.065
    1UNL     C4    4   0.328  -0.280   0.137
    1UNL     O1    5   0.491  -0.246  -0.041
    1UNL     C5    6   0.321  -0.065  -0.010
    1UNL     C6    7   0.202  -0.122  -0.092
    1UNL     C7    8   0.138  -0.015  -0.169
    1UNL     C8    9   0.019  -0.016  -0.229
    1UNL     C9   10  -0.073  -0.131  -0.219
    1UNL    C10   11  -0.040   0.102  -0.308
    1UNL     O2   12  -0.086   0.220  -0.241
    1UNL    C11   13  -0.146   0.194  -0.120
    1UNL     O3   14  -0.268   0.101  -0.117
    1UNL    C12   15  -0.320   0.081   0.013
    1UNL    C13   16  -0.425  -0.034   0.011
    1UNL     O4   17  -0.362  -0.161   0.053
    1UNL    C14   18  -0.316  -0.156   0.181
    1UNL    C15   19  -0.221  -0.265   0.225
    1UNL     O5   20  -0.343  -0.077   0.267
    1UNL    C16   21  -0.362   0.212   0.084
    1UNL     O6   22  -0.326   0.211   0.225
    1UNL    C17   23  -0.321   0.340   0.006
    1UNL     O7   24  -0.400   0.351  -0.106
    1UNL    C18   25  -0.173   0.326  -0.045
    1UNL     O8   26  -0.084   0.330   0.067
    1UNL     H1   27   0.588   0.042   0.029
    1UNL     H2   28   0.660   0.020   0.196
    1UNL     H3   29   0.509  -0.143   0.259
    1UNL     H4   30   0.407  -0.350   0.186
    1UNL     H5   31   0.276  -0.347   0.071
    1UNL     H6   32   0.267  -0.242   0.221
    1UNL     H7   33   0.435  -0.311  -0.084
    1UNL     H8   34   0.384  -0.016  -0.079
    1UNL     H9   35   0.282   0.014   0.068
    1UNL    H10   36   0.239  -0.205  -0.163
    1UNL    H11   37   0.150  -0.181  -0.013
    1UNL    H12   38   0.198   0.073  -0.189
    1UNL    H13   39  -0.077  -0.181  -0.314
    1UNL    H14   40  -0.043  -0.212  -0.151
    1UNL    H15   41  -0.176  -0.100  -0.195
    1UNL    H16   42   0.033   0.135  -0.378
    1UNL    H17   43  -0.124   0.068  -0.373
    1UNL    H18   44  -0.077   0.134  -0.059
    1UNL    H19   45  -0.234   0.040   0.071
    1UNL    H20   46  -0.516  -0.028   0.066
    1UNL    H21   47  -0.449  -0.046  -0.098
    1UNL    H22   48  -0.120  -0.252   0.210
    1UNL    H23   49  -0.263  -0.356   0.171
    1UNL    H24   50  -0.230  -0.287   0.333
    1UNL    H25   51  -0.474   0.215   0.088
    1UNL    H26   52  -0.340   0.125   0.254
    1UNL    H27   53  -0.322   0.436   0.072
    1UNL    H28   54  -0.386   0.275  -0.169
    1UNL    H29   55  -0.149   0.416  -0.108
    1UNL    H30   56  -0.126   0.292   0.142
   0.00000   0.00000   0.00000   0.00000   0.00000   0.00000   0.00000   0.00000   0.00000
Generated with MDTraj, t= 78.0
 56
    1UNL     C1    1   0.604  -0.032   0.124
    1UNL     C2    2   0.480  -0.065   0.157
    1UNL     C3    3   0.397  -0.150   0.057
    1UNL     C4    4   0.317  -0.261   0.136
    1UNL     O1    5   0.475  -0.207  -0.053
    1UNL     C5    6   0.293  -0.059  -0.019
    1UNL     C6    7   0.215  -0.130  -0.130
    1UNL     C7    8   0.121  -0.031  -0.182
    1UNL     C8    9  -0.009  -0.050  -0.209
    1UNL     C9   10  -0.077  -0.175  -0.178
    1UNL    C10   11  -0.074   0.071  -0.276
    1UNL     O2   12  -0.056   0.194  -0.204
    1UNL    C11   13  -0.130   0.193  -0.085
    1UNL     O3   14  -0.254   0.122  -0.113
    1UNL    C12   15  -0.312   0.084   0.014
    1UNL    C13   16  -0.408  -0.031  -0.005
    1UNL     O4   17  -0.338  -0.154   0.023
    1UNL    C14   18  -0.307  -0.165   0.161
    1UNL    C15   19  -0.262  -0.298   0.207
    1UNL     O5   20  -0.315  -0.075   0.242
    1UNL    C16   21  -0.366   0.215   0.092
    1UNL     O6   22  -0.308   0.214   0.221
    1UNL    C17   23  -0.318   0.350   0.004
    1UNL     O7   24  -0.389   0.352  -0.116
    1UNL    C18   25  -0.165   0.335  -0.031
    1UNL     O8   26  -0.085   0.361   0.081
    1UNL     H1   27   0.637  -0.048   0.023
    1UNL     H2   28   0.652   0.049   0.185
    1UNL     H3   29   0.434  -0.035   0.249
    1UNL     H4   30   0.389  -0.325   0.204
    1UNL     H5   31   0.269  -0.335   0.069
    1UNL     H6   32   0.249  -0.213   0.202
    1UNL     H7   33   0.434  -0.296  -0.071
    1UNL     H8   34   0.362   0.018  -0.050
    1UNL     H9   35   0.219  -0.018   0.059
    1UNL    H10   36   0.303  -0.159  -0.200
    1UNL    H11   37   0.169  -0.226  -0.103
    1UNL    H12   38   0.166   0.060  -0.220
    1UNL    H13   39  -0.007  -0.255  -0.187
    1UNL    H14   40  -0.121  -0.191  -0.077
    1UNL    H15   41  -0.157  -0.202  -0.246
    1UNL    H16   42  -0.030   0.080  -0.372
    1UNL    H17   43  -0.181   0.047  -0.293
    1UNL    H18   44  -0.071   0.141  -0.009
    1UNL    H19   45  -0.220   0.040   0.065
    1UNL    H20   46  -0.492  -0.030   0.056
    1UNL    H21   47  -0.436  -0.048  -0.110
    1UNL    H22   48  -0.182  -0.348   0.154
    1UNL    H23   49  -0.356  -0.356   0.207
    1UNL    H24   50  -0.224  -0.290   0.310
    1UNL    H25   51  -0.480   0.223   0.101
    1UNL    H26   52  -0.301   0.112   0.255
    1UNL    H27   53  -0.346   0.444   0.060
    1UNL    H28   54  -0.372   0.267  -0.168
    1UNL    H29   55  -0.133   0.400  -0.120
    1UNL    H30   56  -0.135   0.319   0.162
   0.00000   0.00000   0.00000   0.00000   0.00000   0.00000   0.00000   0.00000   0.00000
Generated with MDTraj, t= 79.0
 56
    1UNL     C1    1   0.605  -0.045   0.156
    1UNL     C2    2   0.473  -0.044   0.142
    1UNL     C3    3   0.391  -0.134   0.054
    1UNL     C4    4   0.330  -0.240   0.151
    1UNL     O1    5   0.485  -0.191  -0.041
    1UNL     C5    6   0.281  -0.053  -0.024
    1UNL     C6    7   0.207  -0.128  -0.134
    1UNL     C7    8   0.128  -0.037  -0.213
    1UNL     C8    9  -0.005  -0.039  -0.231
    1UNL     C9   10  -0.104  -0.138  -0.162
    1UNL    C10   11  -0.066   0.077  -0.299
    1UNL     O2   12  -0.059   0.193  -0.225
    1UNL    C11   13  -0.116   0.175  -0.095
    1UNL     O3   14  -0.230   0.084  -0.087
    1UNL    C12   15  -0.299   0.083   0.037
    1UNL    C13   16  -0.415  -0.011   0.038
    1UNL     O4   17  -0.383  -0.149   0.044
    1UNL    C14   18  -0.318  -0.175   0.158
    1UNL    C15   19  -0.281  -0.323   0.169
    1UNL     O5   20  -0.290  -0.093   0.245
    1UNL    C16   21  -0.350   0.218   0.086
    1UNL     O6   22  -0.320   0.231   0.225
    1UNL    C17   23  -0.308   0.332  -0.009
    1UNL     O7   24  -0.386   0.358  -0.127
    1UNL    C18   25  -0.156   0.313  -0.033
    1UNL     O8   26  -0.080   0.336   0.085
    1UNL     H1   27   0.650  -0.132   0.111
    1UNL     H2   28   0.657   0.012   0.225
    1UNL     H3   29   0.410   0.033   0.186
    1UNL     H4   30   0.403  -0.298   0.205
    1UNL     H5   31   0.267  -0.321   0.096
    1UNL     H6   32   0.273  -0.184   0.224
    1UNL     H7   33   0.435  -0.242  -0.116
    1UNL     H8   34   0.335   0.028  -0.072
    1UNL     H9   35   0.223  -0.017   0.064
    1UNL    H10   36   0.265  -0.185  -0.215
    1UNL    H11   37   0.143  -0.198  -0.082
    1UNL    H12   38   0.173   0.047  -0.266
    1UNL    H13   39  -0.041  -0.215  -0.124
    1UNL    H14   40  -0.165  -0.093  -0.082
    1UNL    H15   41  -0.169  -0.168  -0.242
    1UNL    H16   42  -0.016   0.094  -0.392
    1UNL    H17   43  -0.172   0.053  -0.322
    1UNL    H18   44  -0.035   0.140  -0.032
    1UNL    H19   45  -0.208   0.051   0.102
    1UNL    H20   46  -0.470   0.004   0.126
    1UNL    H21   47  -0.478  -0.003  -0.051
    1UNL    H22   48  -0.275  -0.384   0.072
    1UNL    H23   49  -0.360  -0.364   0.225
    1UNL    H24   50  -0.183  -0.341   0.215
    1UNL    H25   51  -0.464   0.222   0.068
    1UNL    H26   52  -0.312   0.144   0.254
    1UNL    H27   53  -0.313   0.424   0.054
    1UNL    H28   54  -0.371   0.287  -0.190
    1UNL    H29   55  -0.120   0.397  -0.103
    1UNL    H30   56  -0.128   0.289   0.157
   0.00000   0.00000   0.00000   0.00000   0.00000   0.00000   0.00000   0.00000   0.00000
Generated with MDTraj, t= 80.0
 56
    1UNL     C1    1   0.587  -0.058   0.202
    1UNL     C2    2   0.477  -0.026   0.136
    1UNL     C3    3   0.401  -0.122   0.044
    1UNL     C4    4   0.324  -0.215   0.141
    1UNL     O1    5   0.494  -0.194  -0.033
    1UNL     C5    6   0.303  -0.038  -0.037
    1UNL     C6    7   0.207  -0.117  -0.129
    1UNL     C7    8   0.122  -0.027  -0.210
    1UNL     C8    9  -0.007  -0.046  -0.245
    1UNL     C9   10  -0.084  -0.156  -0.188
    1UNL    C10   11  -0.095   0.063  -0.308
    1UNL     O2   12  -0.089   0.177  -0.233
    1UNL    C11   13  -0.143   0.163  -0.103
    1UNL     O3   14  -0.270   0.098  -0.095
    1UNL    C12   15  -0.316   0.087   0.041
    1UNL    C13   16  -0.429  -0.017   0.052
    1UNL     O4   17  -0.365  -0.142   0.031
    1UNL    C14   18  -0.315  -0.177   0.156
    1UNL    C15   19  -0.273  -0.317   0.166
    1UNL     O5   20  -0.312  -0.100   0.252
    1UNL    C16   21  -0.349   0.234   0.092
    1UNL     O6   22  -0.299   0.240   0.224
    1UNL    C17   23  -0.285   0.347   0.004
    1UNL     O7   24  -0.355   0.362  -0.118
    1UNL    C18   25  -0.139   0.300  -0.027
    1UNL     O8   26  -0.062   0.295   0.084
    1UNL     H1   27   0.611  -0.165   0.210
    1UNL     H2   28   0.628   0.012   0.275
    1UNL     H3   29   0.440   0.073   0.146
    1UNL     H4   30   0.390  -0.273   0.194
    1UNL     H5   31   0.277  -0.296   0.077
    1UNL     H6   32   0.251  -0.166   0.212
    1UNL     H7   33   0.488  -0.296  -0.008
    1UNL     H8   34   0.374   0.020  -0.097
    1UNL     H9   35   0.243   0.021   0.028
    1UNL    H10   36   0.266  -0.190  -0.188
    1UNL    H11   37   0.136  -0.175  -0.069
    1UNL    H12   38   0.154   0.072  -0.235
    1UNL    H13   39  -0.076  -0.238  -0.261
    1UNL    H14   40  -0.057  -0.200  -0.090
    1UNL    H15   41  -0.189  -0.131  -0.173
    1UNL    H16   42  -0.061   0.089  -0.406
    1UNL    H17   43  -0.203   0.034  -0.317
    1UNL    H18   44  -0.071   0.095  -0.058
    1UNL    H19   45  -0.220   0.064   0.099
    1UNL    H20   46  -0.474  -0.026   0.148
    1UNL    H21   47  -0.502  -0.001  -0.030
    1UNL    H22   48  -0.349  -0.389   0.117
    1UNL    H23   49  -0.278  -0.343   0.267
    1UNL    H24   50  -0.178  -0.332   0.113
    1UNL    H25   51  -0.463   0.239   0.093
    1UNL    H26   52  -0.326   0.153   0.259
    1UNL    H27   53  -0.279   0.441   0.060
    1UNL    H28   54  -0.325   0.293  -0.179
    1UNL    H29   55  -0.099   0.379  -0.101
    1UNL    H30   56  -0.119   0.246   0.144
   0.00000   0.00000   0.00000   0.00000   0.00000   0.00000   0.00000   0.00000   0.00000
Generated with MDTraj, t= 81.0
 56
    1UNL     C1    1   0.560  -0.078   0.220
    1UNL     C2    2   0.485  -0.020   0.127
    1UNL     C3    3   0.390  -0.103   0.045
    1UNL     C4    4   0.301  -0.184   0.138
    1UNL     O1    5   0.467  -0.191  -0.037
    1UNL     C5    6   0.300  -0.013  -0.035
    1UNL     C6    7   0.215  -0.099  -0.133
    1UNL     C7    8   0.117  -0.021  -0.215
    1UNL     C8    9  -0.004  -0.064  -0.242
    1UNL     C9   10  -0.056  -0.194  -0.199
    1UNL    C10   11  -0.101   0.036  -0.301
    1UNL     O2   12  -0.082   0.167  -0.245
    1UNL    C11   13  -0.137   0.160  -0.111
    1UNL     O3   14  -0.269   0.106  -0.120
    1UNL    C12   15  -0.309   0.078   0.017
    1UNL    C13   16  -0.433  -0.014   0.033
    1UNL     O4   17  -0.394  -0.152   0.048
    1UNL    C14   18  -0.324  -0.168   0.163
    1UNL    C15   19  -0.256  -0.295   0.179
    1UNL     O5   20  -0.313  -0.078   0.245
    1UNL    C16   21  -0.345   0.214   0.091
    1UNL     O6   22  -0.315   0.207   0.234
    1UNL    C17   23  -0.270   0.340   0.029
    1UNL     O7   24  -0.341   0.402  -0.079
    1UNL    C18   25  -0.131   0.294  -0.028
    1UNL     O8   26  -0.035   0.278   0.074
    1UNL     H1   27   0.546  -0.179   0.235
    1UNL     H2   28   0.640  -0.025   0.269
    1UNL     H3   29   0.479   0.088   0.115
    1UNL     H4   30   0.345  -0.227   0.226
    1UNL     H5   31   0.264  -0.263   0.082
    1UNL     H6   32   0.216  -0.116   0.175
    1UNL     H7   33   0.569  -0.185  -0.025
    1UNL     H8   34   0.361   0.050  -0.104
    1UNL     H9   35   0.239   0.037   0.031
    1UNL    H10   36   0.280  -0.155  -0.196
    1UNL    H11   37   0.172  -0.174  -0.070
    1UNL    H12   38   0.127   0.087  -0.230
    1UNL    H13   39  -0.139  -0.237  -0.261
    1UNL    H14   40   0.011  -0.278  -0.204
    1UNL    H15   41  -0.092  -0.207  -0.098
    1UNL    H16   42  -0.104   0.033  -0.409
    1UNL    H17   43  -0.206   0.003  -0.273
    1UNL    H18   44  -0.072   0.089  -0.057
    1UNL    H19   45  -0.220   0.033   0.066
    1UNL    H20   46  -0.482   0.018   0.126
    1UNL    H21   47  -0.498  -0.011  -0.060
    1UNL    H22   48  -0.326  -0.375   0.208
    1UNL    H23   49  -0.185  -0.287   0.263
    1UNL    H24   50  -0.212  -0.323   0.083
    1UNL    H25   51  -0.458   0.227   0.087
    1UNL    H26   52  -0.321   0.103   0.250
    1UNL    H27   53  -0.258   0.410   0.110
    1UNL    H28   54  -0.333   0.352  -0.165
    1UNL    H29   55  -0.076   0.374  -0.092
    1UNL    H30   56  -0.073   0.233   0.158
   0.00000   0.00000   0.00000   0.00000   0.00000   0.00000   0.00000   0.00000   0.00000
Generated with MDTraj, t= 82.0
 56
    1UNL     C1    1   0.575  -0.053   0.209
    1UNL     C2    2   0.475  -0.009   0.135
    1UNL     C3    3   0.385  -0.105   0.066
    1UNL     C4    4   0.292  -0.180   0.160
    1UNL     O1    5   0.466  -0.202  -0.003
    1UNL     C5    6   0.289  -0.022  -0.032
    1UNL     C6    7   0.228  -0.100  -0.146
    1UNL     C7    8   0.121  -0.013  -0.220
    1UNL     C8    9  -0.006  -0.046  -0.256
    1UNL     C9   10  -0.059  -0.193  -0.255
    1UNL    C10   11  -0.088   0.055  -0.320
    1UNL     O2   12  -0.091   0.180  -0.257
    1UNL    C11   13  -0.152   0.164  -0.127
    1UNL     O3   14  -0.289   0.111  -0.109
    1UNL    C12   15  -0.309   0.082   0.031
    1UNL    C13   16  -0.431  -0.013   0.045
    1UNL     O4   17  -0.389  -0.147   0.047
    1UNL    C14   18  -0.329  -0.166   0.168
    1UNL    C15   19  -0.274  -0.308   0.204
    1UNL     O5   20  -0.311  -0.077   0.250
    1UNL    C16   21  -0.329   0.219   0.100
    1UNL     O6   22  -0.288   0.213   0.236
    1UNL    C17   23  -0.257   0.330   0.024
    1UNL     O7   24  -0.342   0.387  -0.081
    1UNL    C18   25  -0.125   0.278  -0.033
    1UNL     O8   26  -0.041   0.227   0.072
    1UNL     H1   27   0.597  -0.159   0.210
    1UNL     H2   28   0.643   0.008   0.271
    1UNL     H3   29   0.453   0.096   0.134
    1UNL     H4   30   0.346  -0.266   0.210
    1UNL     H5   31   0.211  -0.220   0.111
    1UNL     H6   32   0.264  -0.112   0.240
    1UNL     H7   33   0.518  -0.156  -0.074
    1UNL     H8   34   0.349   0.063  -0.071
    1UNL     H9   35   0.210   0.010   0.024
    1UNL    H10   36   0.304  -0.128  -0.210
    1UNL    H11   37   0.180  -0.193  -0.119
    1UNL    H12   38   0.143   0.087  -0.250
    1UNL    H13   39  -0.172  -0.203  -0.251
    1UNL    H14   40  -0.028  -0.246  -0.343
    1UNL    H15   41  -0.014  -0.244  -0.174
    1UNL    H16   42  -0.031   0.082  -0.410
    1UNL    H17   43  -0.189   0.020  -0.358
    1UNL    H18   44  -0.095   0.076  -0.087
    1UNL    H19   45  -0.217   0.033   0.060
    1UNL    H20   46  -0.481  -0.002   0.145
    1UNL    H21   47  -0.496   0.000  -0.050
    1UNL    H22   48  -0.305  -0.347   0.297
    1UNL    H23   49  -0.159  -0.306   0.216
    1UNL    H24   50  -0.299  -0.380   0.128
    1UNL    H25   51  -0.437   0.247   0.099
    1UNL    H26   52  -0.295   0.128   0.267
    1UNL    H27   53  -0.242   0.416   0.086
    1UNL    H28   54  -0.360   0.321  -0.150
    1UNL    H29   55  -0.072   0.366  -0.084
    1UNL    H30   56  -0.104   0.202   0.145
   0.00000   0.00000   0.00000   0.00000   0.00000   0.00000   0.00000   0.00000   0.00000
Generated with MDTraj, t= 83.0
 56
    1UNL     C1    1   0.575  -0.041   0.188
    1UNL     C2    2   0.455  -0.003   0.147
    1UNL     C3    3   0.364  -0.095   0.062
    1UNL     C4    4   0.265  -0.171   0.144
    1UNL     O1    5   0.447  -0.193  -0.009
    1UNL     C5    6   0.285   0.001  -0.039
    1UNL     C6    7   0.181  -0.089  -0.114
    1UNL     C7    8   0.113  -0.001  -0.213
    1UNL     C8    9   0.002  -0.036  -0.278
    1UNL     C9   10  -0.047  -0.180  -0.286
    1UNL    C10   11  -0.073   0.075  -0.332
    1UNL     O2   12  -0.090   0.179  -0.240
    1UNL    C11   13  -0.129   0.139  -0.107
    1UNL     O3   14  -0.265   0.086  -0.108
    1UNL    C12   15  -0.311   0.080   0.028
    1UNL    C13   16  -0.431  -0.018   0.049
    1UNL     O4   17  -0.401  -0.155   0.063
    1UNL    C14   18  -0.339  -0.175   0.185
    1UNL    C15   19  -0.302  -0.315   0.212
    1UNL     O5   20  -0.309  -0.085   0.260
    1UNL    C16   21  -0.320   0.222   0.097
    1UNL     O6   22  -0.273   0.208   0.236
    1UNL    C17   23  -0.242   0.330   0.012
    1UNL     O7   24  -0.312   0.351  -0.110
    1UNL    C18   25  -0.106   0.273  -0.028
    1UNL     O8   26  -0.022   0.242   0.086
    1UNL     H1   27   0.617  -0.139   0.167
    1UNL     H2   28   0.634   0.021   0.245
    1UNL     H3   29   0.438   0.105   0.153
    1UNL     H4   30   0.327  -0.218   0.226
    1UNL     H5   31   0.224  -0.255   0.085
    1UNL     H6   32   0.195  -0.112   0.189
    1UNL     H7   33   0.437  -0.176  -0.102
    1UNL     H8   34   0.365   0.054  -0.092
    1UNL     H9   35   0.238   0.072   0.022
    1UNL    H10   36   0.211  -0.175  -0.162
    1UNL    H11   37   0.102  -0.123  -0.046
    1UNL    H12   38   0.139   0.104  -0.226
    1UNL    H13   39  -0.157  -0.189  -0.307
    1UNL    H14   40   0.005  -0.228  -0.367
    1UNL    H15   41  -0.014  -0.230  -0.196
    1UNL    H16   42  -0.027   0.113  -0.424
    1UNL    H17   43  -0.179   0.038  -0.348
    1UNL    H18   44  -0.068   0.052  -0.072
    1UNL    H19   45  -0.229   0.026   0.072
    1UNL    H20   46  -0.467   0.008   0.154
    1UNL    H21   47  -0.509  -0.014  -0.035
    1UNL    H22   48  -0.255  -0.323   0.307
    1UNL    H23   49  -0.218  -0.342   0.138
    1UNL    H24   50  -0.385  -0.383   0.202
    1UNL    H25   51  -0.425   0.250   0.112
    1UNL    H26   52  -0.297   0.108   0.258
    1UNL    H27   53  -0.228   0.418   0.069
    1UNL    H28   54  -0.314   0.258  -0.144
    1UNL    H29   55  -0.046   0.342  -0.094
    1UNL    H30   56  -0.073   0.194   0.153
   0.00000   0.00000   0.00000   0.00000   0.00000   0.00000   0.00000   0.00000   0.00000
Generated with MDTraj, t= 84.0
 56
    1UNL     C1    1   0.584  -0.036   0.186
    1UNL     C2    2   0.463   0.002   0.139
    1UNL     C3    3   0.353  -0.091   0.076
    1UNL     C4    4   0.269  -0.173   0.171
    1UNL     O1    5   0.428  -0.190  -0.012
    1UNL     C5    6   0.264  -0.007  -0.025
    1UNL     C6    7   0.199  -0.091  -0.143
    1UNL     C7    8   0.112  -0.007  -0.228
    1UNL     C8    9   0.002  -0.045  -0.292
    1UNL     C9   10  -0.045  -0.185  -0.306
    1UNL    C10   11  -0.106   0.063  -0.328
    1UNL     O2   12  -0.083   0.188  -0.259
    1UNL    C11   13  -0.115   0.160  -0.123
    1UNL     O3   14  -0.239   0.095  -0.109
    1UNL    C12   15  -0.284   0.071   0.027
    1UNL    C13   16  -0.414  -0.016   0.025
    1UNL     O4   17  -0.380  -0.151   0.062
    1UNL    C14   18  -0.345  -0.163   0.192
    1UNL    C15   19  -0.331  -0.306   0.235
    1UNL     O5   20  -0.314  -0.080   0.273
    1UNL    C16   21  -0.320   0.204   0.096
    1UNL     O6   22  -0.272   0.189   0.230
    1UNL    C17   23  -0.246   0.319   0.025
    1UNL     O7   24  -0.327   0.364  -0.091
    1UNL    C18   25  -0.104   0.275  -0.019
    1UNL     O8   26  -0.033   0.232   0.100
    1UNL     H1   27   0.615  -0.140   0.173
    1UNL     H2   28   0.662   0.032   0.221
    1UNL     H3   29   0.436   0.107   0.138
    1UNL     H4   30   0.330  -0.209   0.252
    1UNL     H5   31   0.219  -0.256   0.114
    1UNL     H6   32   0.196  -0.111   0.214
    1UNL     H7   33   0.514  -0.162  -0.033
    1UNL     H8   34   0.318   0.076  -0.069
    1UNL     H9   35   0.180   0.043   0.029
    1UNL    H10   36   0.283  -0.120  -0.199
    1UNL    H11   37   0.155  -0.184  -0.108
    1UNL    H12   38   0.140   0.096  -0.232
    1UNL    H13   39  -0.106  -0.189  -0.396
    1UNL    H14   40   0.026  -0.265  -0.328
    1UNL    H15   41  -0.107  -0.226  -0.226
    1UNL    H16   42  -0.100   0.080  -0.435
    1UNL    H17   43  -0.204   0.019  -0.296
    1UNL    H18   44  -0.040   0.080  -0.095
    1UNL    H19   45  -0.204   0.020   0.077
    1UNL    H20   46  -0.496   0.030   0.086
    1UNL    H21   47  -0.440  -0.023  -0.085
    1UNL    H22   48  -0.230  -0.321   0.275
    1UNL    H23   49  -0.333  -0.368   0.146
    1UNL    H24   50  -0.408  -0.344   0.304
    1UNL    H25   51  -0.426   0.223   0.093
    1UNL    H26   52  -0.291   0.100   0.250
    1UNL    H27   53  -0.241   0.413   0.076
    1UNL    H28   54  -0.328   0.289  -0.155
    1UNL    H29   55  -0.050   0.356  -0.073
    1UNL    H30   56  -0.100   0.217   0.175
   0.00000   0.00000   0.00000   0.00000   0.00000   0.00000   0.00000   0.00000   0.00000
Generated with MDTraj, t= 85.0
 56
    1UNL     C1    1   0.570  -0.029   0.199
    1UNL     C2    2   0.460   0.002   0.129
    1UNL     C3    3   0.361  -0.105   0.067
    1UNL     C4    4   0.270  -0.180   0.167
    1UNL     O1    5   0.434  -0.198  -0.017
    1UNL     C5    6   0.268  -0.020  -0.030
    1UNL     C6    7   0.223  -0.095  -0.154
    1UNL     C7    8   0.140  -0.009  -0.246
    1UNL     C8    9   0.021  -0.035  -0.297
    1UNL     C9   10  -0.050  -0.165  -0.286
    1UNL    C10   11  -0.076   0.069  -0.344
    1UNL     O2   12  -0.092   0.184  -0.252
    1UNL    C11   13  -0.125   0.150  -0.118
    1UNL     O3   14  -0.252   0.089  -0.113
    1UNL    C12   15  -0.301   0.071   0.017
    1UNL    C13   16  -0.420  -0.028   0.027
    1UNL     O4   17  -0.360  -0.154   0.068
    1UNL    C14   18  -0.355  -0.175   0.208
    1UNL    C15   19  -0.329  -0.315   0.250
    1UNL     O5   20  -0.356  -0.082   0.287
    1UNL    C16   21  -0.322   0.207   0.095
    1UNL     O6   22  -0.269   0.190   0.230
    1UNL    C17   23  -0.254   0.325   0.030
    1UNL     O7   24  -0.331   0.381  -0.079
    1UNL    C18   25  -0.116   0.281  -0.026
    1UNL     O8   26  -0.018   0.254   0.077
    1UNL     H1   27   0.585  -0.130   0.213
    1UNL     H2   28   0.649   0.043   0.212
    1UNL     H3   29   0.430   0.103   0.111
    1UNL     H4   30   0.325  -0.245   0.226
    1UNL     H5   31   0.199  -0.239   0.107
    1UNL     H6   32   0.208  -0.116   0.238
    1UNL     H7   33   0.516  -0.153  -0.037
    1UNL     H8   34   0.321   0.063  -0.069
    1UNL     H9   35   0.171   0.030   0.014
    1UNL    H10   36   0.313  -0.130  -0.203
    1UNL    H11   37   0.180  -0.183  -0.115
    1UNL    H12   38   0.171   0.095  -0.263
    1UNL    H13   39  -0.049  -0.202  -0.386
    1UNL    H14   40   0.003  -0.241  -0.226
    1UNL    H15   41  -0.157  -0.158  -0.256
    1UNL    H16   42  -0.038   0.106  -0.437
    1UNL    H17   43  -0.175   0.021  -0.356
    1UNL    H18   44  -0.046   0.080  -0.078
    1UNL    H19   45  -0.214   0.029   0.064
    1UNL    H20   46  -0.496  -0.001   0.099
    1UNL    H21   47  -0.458  -0.037  -0.076
    1UNL    H22   48  -0.229  -0.340   0.210
    1UNL    H23   49  -0.401  -0.381   0.219
    1UNL    H24   50  -0.330  -0.321   0.362
    1UNL    H25   51  -0.425   0.222   0.113
    1UNL    H26   52  -0.307   0.106   0.277
    1UNL    H27   53  -0.246   0.399   0.110
    1UNL    H28   54  -0.319   0.320  -0.152
    1UNL    H29   55  -0.070   0.366  -0.079
    1UNL    H30   56  -0.069   0.229   0.154
   0.00000   0.00000   0.00000   0.00000   0.00000   0.00000   0.00000   0.00000   0.00000
Generated with MDTraj, t= 86.0
 56
    1UNL     C1    1   0.560  -0.065   0.218
    1UNL     C2    2   0.458  -0.018   0.149
    1UNL     C3    3   0.372  -0.094   0.049
    1UNL     C4    4   0.263  -0.175   0.120
    1UNL     O1    5   0.468  -0.178  -0.024
    1UNL     C5    6   0.310   0.001  -0.053
    1UNL     C6    7   0.217  -0.088  -0.139
    1UNL     C7    8   0.118  -0.006  -0.222
    1UNL     C8    9  -0.004  -0.035  -0.268
    1UNL     C9   10  -0.082  -0.163  -0.250
    1UNL    C10   11  -0.080   0.075  -0.332
    1UNL     O2   12  -0.078   0.192  -0.253
    1UNL    C11   13  -0.122   0.153  -0.122
    1UNL     O3   14  -0.252   0.088  -0.116
    1UNL    C12   15  -0.299   0.066   0.016
    1UNL    C13   16  -0.414  -0.038   0.010
    1UNL     O4   17  -0.371  -0.165   0.067
    1UNL    C14   18  -0.364  -0.165   0.200
    1UNL    C15   19  -0.309  -0.296   0.262
    1UNL     O5   20  -0.379  -0.074   0.278
    1UNL    C16   21  -0.321   0.207   0.098
    1UNL     O6   22  -0.262   0.187   0.227
    1UNL    C17   23  -0.251   0.324   0.022
    1UNL     O7   24  -0.339   0.352  -0.089
    1UNL    C18   25  -0.106   0.279  -0.027
    1UNL     O8   26  -0.017   0.249   0.080
    1UNL     H1   27   0.577  -0.171   0.198
    1UNL     H2   28   0.619  -0.011   0.294
    1UNL     H3   29   0.430   0.086   0.156
    1UNL     H4   30   0.304  -0.236   0.195
    1UNL     H5   31   0.222  -0.239   0.046
    1UNL     H6   32   0.173  -0.115   0.166
    1UNL     H7   33   0.553  -0.123  -0.033
    1UNL     H8   34   0.376   0.063  -0.111
    1UNL     H9   35   0.254   0.083   0.012
    1UNL    H10   36   0.275  -0.159  -0.199
    1UNL    H11   37   0.152  -0.143  -0.080
    1UNL    H12   38   0.141   0.095  -0.248
    1UNL    H13   39  -0.113  -0.189  -0.347
    1UNL    H14   40  -0.004  -0.236  -0.219
    1UNL    H15   41  -0.174  -0.155  -0.186
    1UNL    H16   42  -0.042   0.103  -0.429
    1UNL    H17   43  -0.188   0.055  -0.336
    1UNL    H18   44  -0.039   0.086  -0.084
    1UNL    H19   45  -0.218   0.009   0.061
    1UNL    H20   46  -0.495  -0.001   0.067
    1UNL    H21   47  -0.444  -0.070  -0.090
    1UNL    H22   48  -0.264  -0.359   0.184
    1UNL    H23   49  -0.376  -0.349   0.324
    1UNL    H24   50  -0.226  -0.271   0.331
    1UNL    H25   51  -0.426   0.217   0.105
    1UNL    H26   52  -0.298   0.100   0.251
    1UNL    H27   53  -0.245   0.415   0.086
    1UNL    H28   54  -0.319   0.289  -0.164
    1UNL    H29   55  -0.069   0.357  -0.092
    1UNL    H30   56  -0.082   0.219   0.152
   0.00000   0.00000   0.00000   0.00000   0.00000   0.00000   0.00000   0.00000   0.00000
Generated with MDTraj, t= 87.0
 56
    1UNL     C1    1   0.545  -0.051   0.227
    1UNL     C2    2   0.458  -0.019   0.132
    1UNL     C3    3   0.380  -0.109   0.039
    1UNL     C4    4   0.301  -0.206   0.124
    1UNL     O1    5   0.468  -0.184  -0.037
    1UNL     C5    6   0.286  -0.023  -0.047
    1UNL     C6    7   0.221  -0.109  -0.158
    1UNL     C7    8   0.132  -0.012  -0.234
    1UNL     C8    9   0.004  -0.033  -0.258
    1UNL     C9   10  -0.066  -0.166  -0.227
    1UNL    C10   11  -0.071   0.077  -0.322
    1UNL     O2   12  -0.078   0.197  -0.255
    1UNL    C11   13  -0.113   0.173  -0.121
    1UNL     O3   14  -0.234   0.095  -0.111
    1UNL    C12   15  -0.286   0.063   0.018
    1UNL    C13   16  -0.403  -0.039   0.011
    1UNL     O4   17  -0.367  -0.164   0.061
    1UNL    C14   18  -0.360  -0.166   0.204
    1UNL    C15   19  -0.306  -0.296   0.261
    1UNL     O5   20  -0.376  -0.070   0.278
    1UNL    C16   21  -0.329   0.201   0.088
    1UNL     O6   22  -0.293   0.204   0.226
    1UNL    C17   23  -0.269   0.321   0.017
    1UNL     O7   24  -0.356   0.367  -0.086
    1UNL    C18   25  -0.122   0.295  -0.025
    1UNL     O8   26  -0.040   0.259   0.088
    1UNL     H1   27   0.548  -0.159   0.244
    1UNL     H2   28   0.598   0.009   0.293
    1UNL     H3   29   0.451   0.085   0.106
    1UNL     H4   30   0.367  -0.283   0.175
    1UNL     H5   31   0.222  -0.251   0.068
    1UNL     H6   32   0.246  -0.153   0.205
    1UNL     H7   33   0.549  -0.126  -0.067
    1UNL     H8   34   0.340   0.070  -0.068
    1UNL     H9   35   0.206   0.023   0.025
    1UNL    H10   36   0.292  -0.149  -0.232
    1UNL    H11   37   0.155  -0.187  -0.133
    1UNL    H12   38   0.172   0.089  -0.245
    1UNL    H13   39  -0.167  -0.164  -0.262
    1UNL    H14   40  -0.029  -0.248  -0.292
    1UNL    H15   41  -0.083  -0.211  -0.126
    1UNL    H16   42  -0.022   0.110  -0.412
    1UNL    H17   43  -0.175   0.045  -0.338
    1UNL    H18   44  -0.026   0.117  -0.077
    1UNL    H19   45  -0.195   0.030   0.073
    1UNL    H20   46  -0.491  -0.006   0.058
    1UNL    H21   47  -0.426  -0.052  -0.093
    1UNL    H22   48  -0.345  -0.388   0.220
    1UNL    H23   49  -0.310  -0.288   0.373
    1UNL    H24   50  -0.202  -0.297   0.239
    1UNL    H25   51  -0.434   0.219   0.090
    1UNL    H26   52  -0.330   0.109   0.262
    1UNL    H27   53  -0.257   0.399   0.097
    1UNL    H28   54  -0.357   0.297  -0.155
    1UNL    H29   55  -0.082   0.380  -0.076
    1UNL    H30   56  -0.100   0.233   0.157
   0.00000   0.00000   0.00000   0.00000   0.00000   0.00000   0.00000   0.00000   0.00000
Generated with MDTraj, t= 88.0
 56
    1UNL     C1    1   0.554  -0.066   0.203
    1UNL     C2    2   0.448  -0.020   0.139
    1UNL     C3    3   0.382  -0.122   0.048
    1UNL     C4    4   0.317  -0.228   0.127
    1UNL     O1    5   0.478  -0.179  -0.040
    1UNL     C5    6   0.279  -0.046  -0.036
    1UNL     C6    7   0.233  -0.121  -0.171
    1UNL     C7    8   0.140  -0.027  -0.258
    1UNL     C8    9   0.010  -0.035  -0.269
    1UNL     C9   10  -0.059  -0.151  -0.212
    1UNL    C10   11  -0.067   0.086  -0.318
    1UNL     O2   12  -0.067   0.197  -0.227
    1UNL    C11   13  -0.122   0.164  -0.101
    1UNL     O3   14  -0.248   0.085  -0.112
    1UNL    C12   15  -0.300   0.069   0.017
    1UNL    C13   16  -0.403  -0.040   0.028
    1UNL     O4   17  -0.343  -0.165   0.072
    1UNL    C14   18  -0.344  -0.174   0.206
    1UNL    C15   19  -0.309  -0.309   0.259
    1UNL     O5   20  -0.361  -0.078   0.276
    1UNL    C16   21  -0.358   0.212   0.074
    1UNL     O6   22  -0.339   0.209   0.215
    1UNL    C17   23  -0.284   0.338   0.018
    1UNL     O7   24  -0.344   0.382  -0.106
    1UNL    C18   25  -0.135   0.296  -0.018
    1UNL     O8   26  -0.038   0.315   0.081
    1UNL     H1   27   0.598  -0.163   0.181
    1UNL     H2   28   0.612  -0.016   0.281
    1UNL     H3   29   0.392   0.069   0.168
    1UNL     H4   30   0.392  -0.263   0.210
    1UNL     H5   31   0.294  -0.311   0.059
    1UNL     H6   32   0.222  -0.209   0.167
    1UNL     H7   33   0.537  -0.101  -0.073
    1UNL     H8   34   0.324   0.050  -0.070
    1UNL     H9   35   0.192  -0.008   0.025
    1UNL    H10   36   0.318  -0.150  -0.233
    1UNL    H11   37   0.180  -0.212  -0.144
    1UNL    H12   38   0.182   0.063  -0.297
    1UNL    H13   39  -0.156  -0.130  -0.164
    1UNL    H14   40  -0.074  -0.227  -0.290
    1UNL    H15   41   0.002  -0.198  -0.134
    1UNL    H16   42  -0.023   0.123  -0.410
    1UNL    H17   43  -0.175   0.062  -0.323
    1UNL    H18   44  -0.044   0.107  -0.045
    1UNL    H19   45  -0.209   0.035   0.076
    1UNL    H20   46  -0.483  -0.018   0.093
    1UNL    H21   47  -0.447  -0.058  -0.069
    1UNL    H22   48  -0.387  -0.383   0.273
    1UNL    H23   49  -0.243  -0.292   0.351
    1UNL    H24   50  -0.249  -0.353   0.187
    1UNL    H25   51  -0.459   0.219   0.037
    1UNL    H26   52  -0.353   0.123   0.250
    1UNL    H27   53  -0.280   0.431   0.083
    1UNL    H28   54  -0.355   0.307  -0.165
    1UNL    H29   55  -0.106   0.370  -0.087
    1UNL    H30   56  -0.072   0.294   0.168
   0.00000   0.00000   0.00000   0.00000   0.00000   0.00000   0.00000   0.00000   0.00000
Generated with MDTraj, t= 89.0
 56
    1UNL     C1    1   0.559  -0.039   0.181
    1UNL     C2    2   0.436  -0.080   0.164
    1UNL     C3    3   0.383  -0.146   0.042
    1UNL     C4    4   0.312  -0.269   0.088
    1UNL     O1    5   0.494  -0.184  -0.044
    1UNL     C5    6   0.294  -0.043  -0.039
    1UNL     C6    7   0.227  -0.102  -0.165
    1UNL     C7    8   0.135  -0.016  -0.246
    1UNL     C8    9   0.008  -0.032  -0.243
    1UNL     C9   10  -0.050  -0.139  -0.150
    1UNL    C10   11  -0.080   0.073  -0.299
    1UNL     O2   12  -0.064   0.197  -0.228
    1UNL    C11   13  -0.114   0.180  -0.099
    1UNL     O3   14  -0.235   0.095  -0.104
    1UNL    C12   15  -0.290   0.075   0.023
    1UNL    C13   16  -0.400  -0.032   0.020
    1UNL     O4   17  -0.333  -0.156   0.054
    1UNL    C14   18  -0.330  -0.151   0.192
    1UNL    C15   19  -0.291  -0.282   0.248
    1UNL     O5   20  -0.345  -0.057   0.267
    1UNL    C16   21  -0.354   0.206   0.066
    1UNL     O6   22  -0.338   0.216   0.210
    1UNL    C17   23  -0.296   0.333  -0.007
    1UNL     O7   24  -0.361   0.354  -0.129
    1UNL    C18   25  -0.145   0.304  -0.015
    1UNL     O8   26  -0.093   0.291   0.114
    1UNL     H1   27   0.639  -0.051   0.115
    1UNL     H2   28   0.593   0.014   0.269
    1UNL     H3   29   0.364  -0.058   0.241
    1UNL     H4   30   0.392  -0.331   0.138
    1UNL     H5   31   0.256  -0.319   0.000
    1UNL     H6   32   0.236  -0.251   0.157
    1UNL     H7   33   0.542  -0.103  -0.079
    1UNL     H8   34   0.348   0.046  -0.085
    1UNL     H9   35   0.211  -0.002   0.012
    1UNL    H10   36   0.312  -0.134  -0.223
    1UNL    H11   37   0.172  -0.195  -0.137
    1UNL    H12   38   0.166   0.059  -0.321
    1UNL    H13   39  -0.161  -0.128  -0.139
    1UNL    H14   40  -0.022  -0.237  -0.189
    1UNL    H15   41  -0.004  -0.124  -0.054
    1UNL    H16   42  -0.042   0.092  -0.401
    1UNL    H17   43  -0.189   0.052  -0.290
    1UNL    H18   44  -0.034   0.129  -0.046
    1UNL    H19   45  -0.205   0.045   0.093
    1UNL    H20   46  -0.486  -0.017   0.087
    1UNL    H21   47  -0.436  -0.051  -0.083
    1UNL    H22   48  -0.339  -0.318   0.338
    1UNL    H23   49  -0.181  -0.270   0.264
    1UNL    H24   50  -0.309  -0.358   0.175
    1UNL    H25   51  -0.463   0.208   0.050
    1UNL    H26   52  -0.348   0.119   0.242
    1UNL    H27   53  -0.314   0.417   0.066
    1UNL    H28   54  -0.358   0.272  -0.178
    1UNL    H29   55  -0.095   0.382  -0.063
    1UNL    H30   56  -0.164   0.268   0.183
   0.00000   0.00000   0.00000   0.00000   0.00000   0.00000   0.00000   0.00000   0.00000
Generated with MDTraj, t= 90.0
 56
    1UNL     C1    1   0.535  -0.021   0.168
    1UNL     C2    2   0.442  -0.111   0.170
    1UNL     C3    3   0.392  -0.171   0.037
    1UNL     C4    4   0.333  -0.316   0.065
    1UNL     O1    5   0.497  -0.189  -0.051
    1UNL     C5    6   0.292  -0.071  -0.029
    1UNL     C6    7   0.249  -0.116  -0.163
    1UNL     C7    8   0.166  -0.009  -0.235
    1UNL     C8    9   0.037  -0.009  -0.235
    1UNL     C9   10  -0.040  -0.111  -0.149
    1UNL    C10   11  -0.055   0.095  -0.295
    1UNL     O2   12  -0.070   0.208  -0.214
    1UNL    C11   13  -0.124   0.173  -0.090
    1UNL     O3   14  -0.237   0.082  -0.100
    1UNL    C12   15  -0.308   0.079   0.020
    1UNL    C13   16  -0.418  -0.028   0.038
    1UNL     O4   17  -0.369  -0.159   0.068
    1UNL    C14   18  -0.320  -0.152   0.199
    1UNL    C15   19  -0.242  -0.273   0.241
    1UNL     O5   20  -0.332  -0.050   0.266
    1UNL    C16   21  -0.372   0.215   0.065
    1UNL     O6   22  -0.363   0.233   0.206
    1UNL    C17   23  -0.313   0.330  -0.017
    1UNL     O7   24  -0.365   0.343  -0.149
    1UNL    C18   25  -0.158   0.304  -0.022
    1UNL     O8   26  -0.112   0.315   0.110
    1UNL     H1   27   0.598   0.011   0.086
    1UNL     H2   28   0.558   0.026   0.262
    1UNL     H3   29   0.389  -0.115   0.265
    1UNL     H4   30   0.410  -0.369   0.113
    1UNL     H5   31   0.291  -0.362  -0.031
    1UNL     H6   32   0.242  -0.315   0.131
    1UNL     H7   33   0.529  -0.102  -0.082
    1UNL     H8   34   0.341   0.034  -0.036
    1UNL     H9   35   0.204  -0.064   0.024
    1UNL    H10   36   0.329  -0.132  -0.235
    1UNL    H11   37   0.183  -0.209  -0.151
    1UNL    H12   38   0.215   0.066  -0.293
    1UNL    H13   39  -0.152  -0.089  -0.149
    1UNL    H14   40  -0.035  -0.217  -0.171
    1UNL    H15   41  -0.024  -0.115  -0.043
    1UNL    H16   42  -0.016   0.135  -0.391
    1UNL    H17   43  -0.158   0.055  -0.305
    1UNL    H18   44  -0.051   0.121  -0.030
    1UNL    H19   45  -0.225   0.051   0.090
    1UNL    H20   46  -0.483  -0.009   0.127
    1UNL    H21   47  -0.485  -0.033  -0.055
    1UNL    H22   48  -0.215  -0.271   0.345
    1UNL    H23   49  -0.153  -0.267   0.185
    1UNL    H24   50  -0.297  -0.371   0.223
    1UNL    H25   51  -0.480   0.205   0.035
    1UNL    H26   52  -0.360   0.145   0.250
    1UNL    H27   53  -0.328   0.430   0.031
    1UNL    H28   54  -0.361   0.251  -0.191
    1UNL    H29   55  -0.114   0.380  -0.079
    1UNL    H30   56  -0.158   0.253   0.171
   0.00000   0.00000   0.00000   0.00000   0.00000   0.00000   0.00000   0.00000   0.00000
Generated with MDTraj, t= 91.0
 56
    1UNL     C1    1   0.496  -0.013   0.181
    1UNL     C2    2   0.454  -0.136   0.168
    1UNL     C3    3   0.408  -0.192   0.038
    1UNL     C4    4   0.350  -0.335   0.046
    1UNL     O1    5   0.521  -0.201  -0.064
    1UNL     C5    6   0.301  -0.096  -0.025
    1UNL     C6    7   0.276  -0.114  -0.172
    1UNL     C7    8   0.166  -0.011  -0.222
    1UNL     C8    9   0.036  -0.029  -0.217
    1UNL     C9   10  -0.040  -0.154  -0.184
    1UNL    C10   11  -0.052   0.081  -0.276
    1UNL     O2   12  -0.054   0.199  -0.194
    1UNL    C11   13  -0.148   0.190  -0.087
    1UNL     O3   14  -0.266   0.106  -0.102
    1UNL    C12   15  -0.320   0.088   0.022
    1UNL    C13   16  -0.407  -0.041   0.029
    1UNL     O4   17  -0.331  -0.154   0.061
    1UNL    C14   18  -0.298  -0.142   0.190
    1UNL    C15   19  -0.227  -0.258   0.264
    1UNL     O5   20  -0.319  -0.041   0.255
    1UNL    C16   21  -0.394   0.221   0.062
    1UNL     O6   22  -0.395   0.240   0.198
    1UNL    C17   23  -0.332   0.347  -0.011
    1UNL     O7   24  -0.379   0.355  -0.144
    1UNL    C18   25  -0.175   0.329  -0.020
    1UNL     O8   26  -0.126   0.342   0.113
    1UNL     H1   27   0.495   0.068   0.107
    1UNL     H2   28   0.538   0.012   0.273
    1UNL     H3   29   0.466  -0.205   0.251
    1UNL     H4   30   0.415  -0.387   0.108
    1UNL     H5   31   0.327  -0.375  -0.055
    1UNL     H6   32   0.243  -0.336   0.094
    1UNL     H7   33   0.565  -0.119  -0.073
    1UNL     H8   34   0.345   0.010  -0.012
    1UNL     H9   35   0.214  -0.096   0.032
    1UNL    H10   36   0.364  -0.112  -0.233
    1UNL    H11   37   0.224  -0.215  -0.191
    1UNL    H12   38   0.196   0.087  -0.261
    1UNL    H13   39  -0.139  -0.131  -0.133
    1UNL    H14   40  -0.057  -0.224  -0.267
    1UNL    H15   41   0.003  -0.218  -0.109
    1UNL    H16   42  -0.022   0.112  -0.378
    1UNL    H17   43  -0.162   0.060  -0.276
    1UNL    H18   44  -0.088   0.138  -0.014
    1UNL    H19   45  -0.235   0.080   0.093
    1UNL    H20   46  -0.479  -0.022   0.115
    1UNL    H21   47  -0.471  -0.060  -0.067
    1UNL    H22   48  -0.188  -0.220   0.357
    1UNL    H23   49  -0.144  -0.288   0.210
    1UNL    H24   50  -0.292  -0.348   0.298
    1UNL    H25   51  -0.504   0.213   0.032
    1UNL    H26   52  -0.371   0.156   0.242
    1UNL    H27   53  -0.358   0.438   0.043
    1UNL    H28   54  -0.378   0.268  -0.184
    1UNL    H29   55  -0.126   0.400  -0.079
    1UNL    H30   56  -0.183   0.292   0.176
   0.00000   0.00000   0.00000   0.00000   0.00000   0.00000   0.00000   0.00000   0.00000
Generated with MDTraj, t= 92.0
 56
    1UNL     C1    1   0.499  -0.047   0.212
    1UNL     C2    2   0.457  -0.166   0.168
    1UNL     C3    3   0.414  -0.187   0.024
    1UNL     C4    4   0.360  -0.331   0.007
    1UNL     O1    5   0.522  -0.176  -0.064
    1UNL     C5    6   0.298  -0.090  -0.017
    1UNL     C6    7   0.257  -0.115  -0.167
    1UNL     C7    8   0.151  -0.019  -0.213
    1UNL     C8    9   0.021  -0.029  -0.214
    1UNL     C9   10  -0.062  -0.153  -0.174
    1UNL    C10   11  -0.049   0.085  -0.275
    1UNL     O2   12  -0.050   0.211  -0.202
    1UNL    C11   13  -0.127   0.197  -0.084
    1UNL     O3   14  -0.238   0.110  -0.107
    1UNL    C12   15  -0.308   0.089   0.017
    1UNL    C13   16  -0.404  -0.042   0.029
    1UNL     O4   17  -0.339  -0.155   0.073
    1UNL    C14   18  -0.297  -0.135   0.206
    1UNL    C15   19  -0.206  -0.235   0.264
    1UNL     O5   20  -0.326  -0.032   0.265
    1UNL    C16   21  -0.391   0.219   0.058
    1UNL     O6   22  -0.397   0.234   0.196
    1UNL    C17   23  -0.339   0.336  -0.027
    1UNL     O7   24  -0.386   0.332  -0.161
    1UNL    C18   25  -0.179   0.333  -0.019
    1UNL     O8   26  -0.137   0.339   0.117
    1UNL     H1   27   0.501   0.047   0.161
    1UNL     H2   28   0.522  -0.049   0.319
    1UNL     H3   29   0.459  -0.259   0.221
    1UNL     H4   30   0.441  -0.397   0.047
    1UNL     H5   31   0.316  -0.359  -0.086
    1UNL     H6   32   0.276  -0.345   0.080
    1UNL     H7   33   0.563  -0.093  -0.057
    1UNL     H8   34   0.330   0.016  -0.009
    1UNL     H9   35   0.217  -0.100   0.053
    1UNL    H10   36   0.349  -0.112  -0.223
    1UNL    H11   37   0.221  -0.223  -0.178
    1UNL    H12   38   0.180   0.082  -0.234
    1UNL    H13   39  -0.165  -0.114  -0.186
    1UNL    H14   40  -0.037  -0.238  -0.237
    1UNL    H15   41  -0.052  -0.169  -0.065
    1UNL    H16   42   0.000   0.108  -0.372
    1UNL    H17   43  -0.157   0.064  -0.292
    1UNL    H18   44  -0.059   0.154  -0.013
    1UNL    H19   45  -0.231   0.073   0.091
    1UNL    H20   46  -0.492  -0.017   0.094
    1UNL    H21   47  -0.439  -0.062  -0.079
    1UNL    H22   48  -0.132  -0.179   0.320
    1UNL    H23   49  -0.156  -0.289   0.185
    1UNL    H24   50  -0.253  -0.301   0.340
    1UNL    H25   51  -0.504   0.202   0.036
    1UNL    H26   52  -0.384   0.139   0.231
    1UNL    H27   53  -0.379   0.426   0.017
    1UNL    H28   54  -0.349   0.251  -0.205
    1UNL    H29   55  -0.144   0.416  -0.073
    1UNL    H30   56  -0.220   0.320   0.171
   0.00000   0.00000   0.00000   0.00000   0.00000   0.00000   0.00000   0.00000   0.00000
Generated with MDTraj, t= 93.0
 56
    1UNL     C1    1   0.511  -0.082   0.220
    1UNL     C2    2   0.434  -0.176   0.169
    1UNL     C3    3   0.405  -0.187   0.022
    1UNL     C4    4   0.378  -0.334  -0.019
    1UNL     O1    5   0.514  -0.141  -0.058
    1UNL     C5    6   0.275  -0.106  -0.010
    1UNL     C6    7   0.242  -0.119  -0.158
    1UNL     C7    8   0.149  -0.011  -0.205
    1UNL     C8    9   0.019  -0.004  -0.212
    1UNL     C9   10  -0.064  -0.108  -0.160
    1UNL    C10   11  -0.033   0.109  -0.295
    1UNL     O2   12  -0.081   0.221  -0.222
    1UNL    C11   13  -0.133   0.189  -0.093
    1UNL     O3   14  -0.238   0.092  -0.093
    1UNL    C12   15  -0.312   0.087   0.027
    1UNL    C13   16  -0.397  -0.049   0.036
    1UNL     O4   17  -0.311  -0.149   0.086
    1UNL    C14   18  -0.295  -0.140   0.217
    1UNL    C15   19  -0.213  -0.240   0.285
    1UNL     O5   20  -0.336  -0.046   0.282
    1UNL    C16   21  -0.394   0.220   0.047
    1UNL     O6   22  -0.389   0.247   0.183
    1UNL    C17   23  -0.332   0.329  -0.041
    1UNL     O7   24  -0.369   0.309  -0.175
    1UNL    C18   25  -0.177   0.323  -0.024
    1UNL     O8   26  -0.131   0.335   0.111
    1UNL     H1   27   0.566  -0.015   0.161
    1UNL     H2   28   0.529  -0.091   0.327
    1UNL     H3   29   0.375  -0.247   0.226
    1UNL     H4   30   0.479  -0.392   0.001
    1UNL     H5   31   0.342  -0.350  -0.118
    1UNL     H6   32   0.308  -0.385   0.038
    1UNL     H7   33   0.527  -0.048  -0.055
    1UNL     H8   34   0.286  -0.006   0.025
    1UNL     H9   35   0.198  -0.152   0.057
    1UNL    H10   36   0.336  -0.114  -0.209
    1UNL    H11   37   0.194  -0.223  -0.176
    1UNL    H12   38   0.199   0.077  -0.247
    1UNL    H13   39  -0.165  -0.074  -0.164
    1UNL    H14   40  -0.054  -0.206  -0.209
    1UNL    H15   41  -0.051  -0.115  -0.049
    1UNL    H16   42   0.054   0.149  -0.351
    1UNL    H17   43  -0.109   0.061  -0.357
    1UNL    H18   44  -0.047   0.155  -0.039
    1UNL    H19   45  -0.234   0.078   0.101
    1UNL    H20   46  -0.477  -0.028   0.108
    1UNL    H21   47  -0.441  -0.072  -0.066
    1UNL    H22   48  -0.107  -0.218   0.269
    1UNL    H23   49  -0.229  -0.338   0.232
    1UNL    H24   50  -0.230  -0.248   0.387
    1UNL    H25   51  -0.500   0.200   0.011
    1UNL    H26   52  -0.374   0.168   0.233
    1UNL    H27   53  -0.369   0.426  -0.012
    1UNL    H28   54  -0.295   0.264  -0.219
    1UNL    H29   55  -0.125   0.401  -0.076
    1UNL    H30   56  -0.209   0.353   0.167
   0.00000   0.00000   0.00000   0.00000   0.00000   0.00000   0.00000   0.00000   0.00000
Generated with MDTraj, t= 94.0
 56
    1UNL     C1    1   0.517  -0.120   0.233
    1UNL     C2    2   0.410  -0.167   0.175
    1UNL     C3    3   0.393  -0.185   0.029
    1UNL     C4    4   0.394  -0.334  -0.009
    1UNL     O1    5   0.502  -0.120  -0.047
    1UNL     C5    6   0.262  -0.120  -0.029
    1UNL     C6    7   0.254  -0.099  -0.176
    1UNL     C7    8   0.151   0.003  -0.227
    1UNL     C8    9   0.020  -0.018  -0.236
    1UNL     C9   10  -0.048  -0.140  -0.191
    1UNL    C10   11  -0.055   0.101  -0.301
    1UNL     O2   12  -0.062   0.212  -0.212
    1UNL    C11   13  -0.123   0.190  -0.087
    1UNL     O3   14  -0.218   0.087  -0.103
    1UNL    C12   15  -0.297   0.081   0.013
    1UNL    C13   16  -0.372  -0.059   0.019
    1UNL     O4   17  -0.289  -0.142   0.092
    1UNL    C14   18  -0.294  -0.121   0.232
    1UNL    C15   19  -0.239  -0.237   0.315
    1UNL     O5   20  -0.335  -0.020   0.291
    1UNL    C16   21  -0.392   0.200   0.041
    1UNL     O6   22  -0.399   0.229   0.184
    1UNL    C17   23  -0.340   0.326  -0.026
    1UNL     O7   24  -0.397   0.343  -0.151
    1UNL    C18   25  -0.182   0.324  -0.024
    1UNL     O8   26  -0.127   0.350   0.103
    1UNL     H1   27   0.603  -0.113   0.164
    1UNL     H2   28   0.529  -0.111   0.338
    1UNL     H3   29   0.328  -0.197   0.236
    1UNL     H4   30   0.483  -0.388   0.036
    1UNL     H5   31   0.388  -0.348  -0.117
    1UNL     H6   32   0.312  -0.391   0.022
    1UNL     H7   33   0.503  -0.023  -0.036
    1UNL     H8   34   0.258  -0.030   0.022
    1UNL     H9   35   0.176  -0.183   0.013
    1UNL    H10   36   0.348  -0.057  -0.205
    1UNL    H11   37   0.238  -0.202  -0.223
    1UNL    H12   38   0.187   0.098  -0.262
    1UNL    H13   39  -0.151  -0.125  -0.169
    1UNL    H14   40  -0.032  -0.228  -0.256
    1UNL    H15   41  -0.014  -0.169  -0.088
    1UNL    H16   42   0.005   0.124  -0.391
    1UNL    H17   43  -0.159   0.078  -0.320
    1UNL    H18   44  -0.043   0.154  -0.023
    1UNL    H19   45  -0.223   0.089   0.092
    1UNL    H20   46  -0.463  -0.044   0.071
    1UNL    H21   47  -0.388  -0.104  -0.081
    1UNL    H22   48  -0.148  -0.279   0.269
    1UNL    H23   49  -0.316  -0.317   0.319
    1UNL    H24   50  -0.219  -0.210   0.413
    1UNL    H25   51  -0.494   0.187  -0.002
    1UNL    H26   52  -0.390   0.137   0.239
    1UNL    H27   53  -0.376   0.407   0.033
    1UNL    H28   54  -0.356   0.279  -0.215
    1UNL    H29   55  -0.146   0.409  -0.082
    1UNL    H30   56  -0.202   0.322   0.168
   0.00000   0.00000   0.00000   0.00000   0.00000   0.00000   0.00000   0.00000   0.00000
Generated with MDTraj, t= 95.0
 56
    1UNL     C1    1   0.492  -0.189   0.253
    1UNL     C2    2   0.395  -0.141   0.175
    1UNL     C3    3   0.388  -0.153   0.020
    1UNL     C4    4   0.384  -0.309  -0.005
    1UNL     O1    5   0.506  -0.100  -0.036
    1UNL     C5    6   0.261  -0.086  -0.040
    1UNL     C6    7   0.248  -0.100  -0.190
    1UNL     C7    8   0.161   0.004  -0.252
    1UNL     C8    9   0.031  -0.015  -0.271
    1UNL     C9   10  -0.034  -0.156  -0.235
    1UNL    C10   11  -0.060   0.100  -0.302
    1UNL     O2   12  -0.048   0.211  -0.213
    1UNL    C11   13  -0.110   0.183  -0.083
    1UNL     O3   14  -0.216   0.082  -0.094
    1UNL    C12   15  -0.295   0.074   0.023
    1UNL    C13   16  -0.371  -0.061   0.030
    1UNL     O4   17  -0.308  -0.153   0.118
    1UNL    C14   18  -0.302  -0.128   0.252
    1UNL    C15   19  -0.232  -0.236   0.327
    1UNL     O5   20  -0.346  -0.031   0.310
    1UNL    C16   21  -0.395   0.196   0.041
    1UNL     O6   22  -0.414   0.223   0.185
    1UNL    C17   23  -0.331   0.322  -0.023
    1UNL     O7   24  -0.396   0.343  -0.147
    1UNL    C18   25  -0.166   0.318  -0.030
    1UNL     O8   26  -0.106   0.367   0.084
    1UNL     H1   27   0.575  -0.238   0.205
    1UNL     H2   28   0.495  -0.182   0.358
    1UNL     H3   29   0.305  -0.110   0.230
    1UNL     H4   30   0.452  -0.364   0.045
    1UNL     H5   31   0.385  -0.327  -0.113
    1UNL     H6   32   0.288  -0.357   0.019
    1UNL     H7   33   0.508  -0.003  -0.004
    1UNL     H8   34   0.284   0.014  -0.026
    1UNL     H9   35   0.169  -0.118   0.023
    1UNL    H10   36   0.351  -0.103  -0.221
    1UNL    H11   37   0.210  -0.205  -0.209
    1UNL    H12   38   0.193   0.104  -0.276
    1UNL    H13   39  -0.138  -0.135  -0.219
    1UNL    H14   40  -0.012  -0.231  -0.314
    1UNL    H15   41  -0.001  -0.189  -0.135
    1UNL    H16   42  -0.035   0.148  -0.399
    1UNL    H17   43  -0.161   0.067  -0.301
    1UNL    H18   44  -0.038   0.131  -0.018
    1UNL    H19   45  -0.218   0.068   0.099
    1UNL    H20   46  -0.468  -0.052   0.066
    1UNL    H21   47  -0.373  -0.109  -0.067
    1UNL    H22   48  -0.209  -0.321   0.265
    1UNL    H23   49  -0.303  -0.266   0.403
    1UNL    H24   50  -0.140  -0.200   0.377
    1UNL    H25   51  -0.489   0.167  -0.008
    1UNL    H26   52  -0.395   0.145   0.232
    1UNL    H27   53  -0.363   0.403   0.041
    1UNL    H28   54  -0.360   0.278  -0.215
    1UNL    H29   55  -0.145   0.400  -0.104
    1UNL    H30   56  -0.166   0.375   0.161
   0.00000   0.00000   0.00000   0.00000   0.00000   0.00000   0.00000   0.00000   0.00000
Generated with MDTraj, t= 96.0
 56
    1UNL     C1    1   0.448  -0.206   0.261
    1UNL     C2    2   0.375  -0.139   0.170
    1UNL     C3    3   0.386  -0.147   0.022
    1UNL     C4    4   0.365  -0.298  -0.017
    1UNL     O1    5   0.515  -0.107  -0.030
    1UNL     C5    6   0.276  -0.054  -0.036
    1UNL     C6    7   0.249  -0.070  -0.193
    1UNL     C7    8   0.146   0.032  -0.236
    1UNL     C8    9   0.020  -0.006  -0.263
    1UNL     C9   10  -0.017  -0.144  -0.240
    1UNL    C10   11  -0.085   0.091  -0.308
    1UNL     O2   12  -0.075   0.210  -0.237
    1UNL    C11   13  -0.120   0.186  -0.102
    1UNL     O3   14  -0.221   0.082  -0.093
    1UNL    C12   15  -0.293   0.073   0.035
    1UNL    C13   16  -0.369  -0.064   0.042
    1UNL     O4   17  -0.291  -0.163   0.120
    1UNL    C14   18  -0.299  -0.136   0.251
    1UNL    C15   19  -0.231  -0.233   0.341
    1UNL     O5   20  -0.358  -0.045   0.307
    1UNL    C16   21  -0.378   0.211   0.050
    1UNL     O6   22  -0.372   0.255   0.184
    1UNL    C17   23  -0.314   0.322  -0.037
    1UNL     O7   24  -0.365   0.306  -0.168
    1UNL    C18   25  -0.158   0.312  -0.030
    1UNL     O8   26  -0.111   0.318   0.105
    1UNL     H1   27   0.530  -0.270   0.239
    1UNL     H2   28   0.434  -0.205   0.371
    1UNL     H3   29   0.297  -0.074   0.205
    1UNL     H4   30   0.439  -0.357   0.028
    1UNL     H5   31   0.360  -0.309  -0.122
    1UNL     H6   32   0.268  -0.339   0.017
    1UNL     H7   33   0.539  -0.011   0.000
    1UNL     H8   34   0.297   0.046  -0.007
    1UNL     H9   35   0.187  -0.098   0.019
    1UNL    H10   36   0.342  -0.067  -0.249
    1UNL    H11   37   0.216  -0.175  -0.197
    1UNL    H12   38   0.170   0.136  -0.255
    1UNL    H13   39  -0.124  -0.167  -0.265
    1UNL    H14   40   0.047  -0.215  -0.295
    1UNL    H15   41  -0.013  -0.171  -0.135
    1UNL    H16   42  -0.073   0.107  -0.418
    1UNL    H17   43  -0.186   0.065  -0.289
    1UNL    H18   44  -0.028   0.141  -0.057
    1UNL    H19   45  -0.218   0.072   0.114
    1UNL    H20   46  -0.467  -0.059   0.072
    1UNL    H21   47  -0.365  -0.109  -0.055
    1UNL    H22   48  -0.282  -0.324   0.332
    1UNL    H23   49  -0.243  -0.202   0.442
    1UNL    H24   50  -0.119  -0.252   0.318
    1UNL    H25   51  -0.483   0.204   0.028
    1UNL    H26   52  -0.389   0.175   0.252
    1UNL    H27   53  -0.350   0.417   0.004
    1UNL    H28   54  -0.321   0.230  -0.217
    1UNL    H29   55  -0.110   0.401  -0.082
    1UNL    H30   56  -0.179   0.324   0.171
   0.00000   0.00000   0.00000   0.00000   0.00000   0.00000   0.00000   0.00000   0.00000
Generated with MDTraj, t= 97.0
 56
    1UNL     C1    1   0.454  -0.202   0.244
    1UNL     C2    2   0.351  -0.148   0.178
    1UNL     C3    3   0.354  -0.145   0.031
    1UNL     C4    4   0.315  -0.281  -0.023
    1UNL     O1    5   0.485  -0.107  -0.024
    1UNL     C5    6   0.250  -0.035  -0.024
    1UNL     C6    7   0.269  -0.026  -0.181
    1UNL     C7    8   0.157   0.047  -0.249
    1UNL     C8    9   0.036  -0.009  -0.277
    1UNL     C9   10  -0.001  -0.139  -0.231
    1UNL    C10   11  -0.072   0.081  -0.327
    1UNL     O2   12  -0.079   0.198  -0.249
    1UNL    C11   13  -0.111   0.170  -0.113
    1UNL     O3   14  -0.209   0.070  -0.108
    1UNL    C12   15  -0.277   0.063   0.023
    1UNL    C13   16  -0.365  -0.063   0.045
    1UNL     O4   17  -0.304  -0.172   0.131
    1UNL    C14   18  -0.300  -0.130   0.265
    1UNL    C15   19  -0.228  -0.230   0.352
    1UNL     O5   20  -0.349  -0.027   0.307
    1UNL    C16   21  -0.359   0.197   0.058
    1UNL     O6   22  -0.378   0.239   0.195
    1UNL    C17   23  -0.307   0.314  -0.023
    1UNL     O7   24  -0.372   0.319  -0.149
    1UNL    C18   25  -0.149   0.302  -0.042
    1UNL     O8   26  -0.087   0.297   0.087
    1UNL     H1   27   0.547  -0.226   0.199
    1UNL     H2   28   0.448  -0.226   0.349
    1UNL     H3   29   0.266  -0.108   0.232
    1UNL     H4   30   0.386  -0.350   0.037
    1UNL     H5   31   0.319  -0.298  -0.124
    1UNL     H6   32   0.218  -0.301   0.012
    1UNL     H7   33   0.513  -0.015   0.016
    1UNL     H8   34   0.281   0.053   0.033
    1UNL     H9   35   0.150  -0.064   0.009
    1UNL    H10   36   0.363   0.025  -0.198
    1UNL    H11   37   0.276  -0.120  -0.229
    1UNL    H12   38   0.164   0.155  -0.264
    1UNL    H13   39  -0.111  -0.148  -0.203
    1UNL    H14   40   0.015  -0.218  -0.303
    1UNL    H15   41   0.041  -0.177  -0.141
    1UNL    H16   42  -0.061   0.120  -0.431
    1UNL    H17   43  -0.164   0.026  -0.323
    1UNL    H18   44  -0.013   0.138  -0.067
    1UNL    H19   45  -0.194   0.050   0.094
    1UNL    H20   46  -0.460  -0.049   0.086
    1UNL    H21   47  -0.379  -0.107  -0.053
    1UNL    H22   48  -0.304  -0.276   0.413
    1UNL    H23   49  -0.154  -0.190   0.418
    1UNL    H24   50  -0.182  -0.313   0.293
    1UNL    H25   51  -0.458   0.189   0.022
    1UNL    H26   52  -0.370   0.158   0.238
    1UNL    H27   53  -0.325   0.415   0.020
    1UNL    H28   54  -0.323   0.268  -0.218
    1UNL    H29   55  -0.112   0.397  -0.095
    1UNL    H30   56  -0.159   0.256   0.149
   0.00000   0.00000   0.00000   0.00000   0.00000   0.00000   0.00000   0.00000   0.00000
Generated with MDTraj, t= 98.0
 56
    1UNL     C1    1   0.430  -0.161   0.261
    1UNL     C2    2   0.333  -0.137   0.178
    1UNL     C3    3   0.341  -0.155   0.029
    1UNL     C4    4   0.293  -0.291  -0.011
    1UNL     O1    5   0.479  -0.140  -0.016
    1UNL     C5    6   0.246  -0.039  -0.031
    1UNL     C6    7   0.275  -0.001  -0.177
    1UNL     C7    8   0.161   0.063  -0.245
    1UNL     C8    9   0.044   0.004  -0.282
    1UNL     C9   10   0.020  -0.143  -0.258
    1UNL    C10   11  -0.066   0.081  -0.335
    1UNL     O2   12  -0.094   0.199  -0.264
    1UNL    C11   13  -0.127   0.158  -0.124
    1UNL     O3   14  -0.231   0.060  -0.100
    1UNL    C12   15  -0.277   0.058   0.032
    1UNL    C13   16  -0.358  -0.061   0.058
    1UNL     O4   17  -0.284  -0.159   0.129
    1UNL    C14   18  -0.291  -0.128   0.260
    1UNL    C15   19  -0.232  -0.233   0.348
    1UNL     O5   20  -0.342  -0.033   0.310
    1UNL    C16   21  -0.358   0.191   0.057
    1UNL     O6   22  -0.339   0.219   0.195
    1UNL    C17   23  -0.303   0.312  -0.025
    1UNL     O7   24  -0.372   0.331  -0.147
    1UNL    C18   25  -0.147   0.293  -0.042
    1UNL     O8   26  -0.084   0.295   0.094
    1UNL     H1   27   0.533  -0.175   0.223
    1UNL     H2   28   0.413  -0.146   0.365
    1UNL     H3   29   0.240  -0.116   0.229
    1UNL     H4   30   0.350  -0.368   0.052
    1UNL     H5   31   0.313  -0.307  -0.116
    1UNL     H6   32   0.193  -0.297   0.006
    1UNL     H7   33   0.503  -0.045   0.005
    1UNL     H8   34   0.273   0.051   0.031
    1UNL     H9   35   0.145  -0.073  -0.013
    1UNL    H10   36   0.350   0.080  -0.177
    1UNL    H11   37   0.311  -0.089  -0.222
    1UNL    H12   38   0.154   0.171  -0.259
    1UNL    H13   39  -0.049  -0.149  -0.168
    1UNL    H14   40  -0.034  -0.169  -0.347
    1UNL    H15   41   0.107  -0.203  -0.242
    1UNL    H16   42  -0.040   0.109  -0.441
    1UNL    H17   43  -0.160   0.029  -0.338
    1UNL    H18   44  -0.027   0.118  -0.091
    1UNL    H19   45  -0.186   0.057   0.098
    1UNL    H20   46  -0.449  -0.042   0.112
    1UNL    H21   47  -0.388  -0.114  -0.036
    1UNL    H22   48  -0.256  -0.196   0.451
    1UNL    H23   49  -0.124  -0.246   0.344
    1UNL    H24   50  -0.282  -0.324   0.338
    1UNL    H25   51  -0.462   0.179   0.046
    1UNL    H26   52  -0.354   0.136   0.255
    1UNL    H27   53  -0.316   0.404   0.040
    1UNL    H28   54  -0.309   0.315  -0.225
    1UNL    H29   55  -0.093   0.380  -0.094
    1UNL    H30   56  -0.155   0.276   0.158
   0.00000   0.00000   0.00000   0.00000   0.00000   0.00000   0.00000   0.00000   0.00000
Generated with MDTraj, t= 99.0
 56
    1UNL     C1    1   0.417  -0.141   0.266
    1UNL     C2    2   0.313  -0.127   0.186
    1UNL     C3    3   0.322  -0.144   0.039
    1UNL     C4    4   0.279  -0.283  -0.003
    1UNL     O1    5   0.460  -0.126  -0.000
    1UNL     C5    6   0.245  -0.033  -0.030
    1UNL     C6    7   0.260  -0.032  -0.184
    1UNL     C7    8   0.158   0.046  -0.252
    1UNL     C8    9   0.043  -0.011  -0.292
    1UNL     C9   10   0.020  -0.152  -0.299
    1UNL    C10   11  -0.061   0.088  -0.335
    1UNL     O2   12  -0.089   0.194  -0.247
    1UNL    C11   13  -0.118   0.168  -0.111
    1UNL     O3   14  -0.220   0.076  -0.107
    1UNL    C12   15  -0.270   0.069   0.027
    1UNL    C13   16  -0.351  -0.054   0.064
    1UNL     O4   17  -0.278  -0.156   0.122
    1UNL    C14   18  -0.285  -0.134   0.258
    1UNL    C15   19  -0.214  -0.249   0.334
    1UNL     O5   20  -0.349  -0.046   0.312
    1UNL    C16   21  -0.349   0.197   0.069
    1UNL     O6   22  -0.328   0.214   0.214
    1UNL    C17   23  -0.301   0.315  -0.021
    1UNL     O7   24  -0.364   0.308  -0.152
    1UNL    C18   25  -0.149   0.300  -0.041
    1UNL     O8   26  -0.081   0.304   0.088
    1UNL     H1   27   0.510  -0.173   0.221
    1UNL     H2   28   0.404  -0.118   0.369
    1UNL     H3   29   0.215  -0.105   0.224
    1UNL     H4   30   0.346  -0.354   0.039
    1UNL     H5   31   0.298  -0.288  -0.115
    1UNL     H6   32   0.176  -0.308   0.017
    1UNL     H7   33   0.483  -0.033   0.016
    1UNL     H8   34   0.264   0.070   0.018
    1UNL     H9   35   0.143  -0.062  -0.026
    1UNL    H10   36   0.360   0.011  -0.192
    1UNL    H11   37   0.269  -0.126  -0.229
    1UNL    H12   38   0.144   0.153  -0.252
    1UNL    H13   39   0.074  -0.203  -0.218
    1UNL    H14   40  -0.085  -0.167  -0.292
    1UNL    H15   41   0.057  -0.193  -0.395
    1UNL    H16   42  -0.026   0.140  -0.431
    1UNL    H17   43  -0.150   0.031  -0.355
    1UNL    H18   44  -0.023   0.115  -0.079
    1UNL    H19   45  -0.173   0.066   0.083
    1UNL    H20   46  -0.434  -0.022   0.132
    1UNL    H21   47  -0.400  -0.111  -0.023
    1UNL    H22   48  -0.127  -0.209   0.395
    1UNL    H23   49  -0.167  -0.323   0.270
    1UNL    H24   50  -0.283  -0.294   0.397
    1UNL    H25   51  -0.450   0.178   0.052
    1UNL    H26   52  -0.335   0.131   0.257
    1UNL    H27   53  -0.334   0.413   0.026
    1UNL    H28   54  -0.310   0.263  -0.216
    1UNL    H29   55  -0.116   0.384  -0.111
    1UNL    H30   56  -0.148   0.274   0.152
   0.00000   0.00000   0.00000   0.00000   0.00000   0.00000   0.00000   0.00000   0.00000
