[ moleculetype ]
; name        nrexcl
res           1

[ atoms ]
;    nr  type  resnr resid  atom  cgnr     charge       mass
      1 TC5       1 res   C1        1      0.000     36.000
      2 SP1       1 res   C2        2      0.000     54.000
      3 SC2       1 res   C3        3      0.000     54.000
      4 N3r       1 res   C4        4      0.000     72.000
      5 SN4a      1 res   C5        5      0.000     54.000
      6 N4a       1 res   C6        6      0.000     72.000
      7 SP4       1 res   C7        7      0.000     54.000
      8 TN6       1 res   C8        8      0.000     36.000

[ constraints ]
;  ai    aj   funct      b0(nm)
    5     7     1      0.24815
    7     8     1      0.24431

[ bonds ]
;  ai    aj   funct      b0(nm)          k(kJ/mol/nm^2)
    1     2     1      0.28976           8635.7
    2     3     1      0.30092          18101.8
    4     5     1      0.36367            554.4
    3     4     1      0.33516          13865.6
    5     6     1      0.36699           6512.3
    5     8     1      0.24628           7814.8

[ angles ]
;  ai    aj    ak  funct     th0(deg)        k(kJ/mol/rad^2)
    1     2     3     1     94.21921           100.65
    2     3     4     1    136.39916            82.24
    3     4     5     1    105.52219            24.53
    4     5     6     1    117.54600            25.19
    4     5     7     1    125.09010            18.11
    4     5     8     1    100.09266            15.91
    5     7     8     1     60.09095           286.78
    5     8     7     1     60.81168           500.85
    6     5     7     1     96.11776           146.25
    6     5     8     1    135.82274            41.62
    7     5     8     1     59.09452          1176.56

[ dihedrals ]
;  ai    aj    ak    al  funct   phi0(deg)        k(kJ/mol)   mult
    1     2     3     4     1    -22.70657       25.823      1
    2     3     4     5     1    -54.32831       25.165      1
    3     4     5     6     1    109.88299       29.650      1
    3     4     5     7     1    -13.73392       32.946      1
    3     4     5     8     1    -72.92999       28.077      1
    4     5     7     8     1    108.15431       28.061      1
    4     5     8     7     1    -54.96123       25.674      1
    6     5     7     8     1    -23.27248       19.726      1
    6     5     8     7     1    151.95400       16.710      1
