1TPCN00097
18
    1res  C1    1    0.024  -0.658  -0.110
    1res  C2    2   -0.195  -0.363  -0.009
    1res  C3    3   -0.137  -0.127   0.085
    1res  C4    4   -0.196   0.070   0.114
    1res  C5    5   -0.402   0.024   0.028
    1res  C6    6   -0.601  -0.097   0.048
    1res  C7    7   -0.550   0.233   0.004
    1res  C8    8   -0.362   0.337  -0.044
    1res  C9    9   -0.266   0.278   0.147
    1res  C10   10    0.081  -0.264  -0.063
    1res  C11   11    0.220  -0.122  -0.084
    1res  C12   12    0.162   0.108  -0.012
    1res  C13   13    0.150   0.225  -0.216
    1res  C14   14    0.343   0.301  -0.150
    1res  C15   15    0.312   0.030   0.151
    1res  C16   16    0.450   0.189   0.093
    1res  C17   17    0.606   0.149   0.284
    1res  C18   18    0.638   0.354   0.076
  10.00000  10.00000  10.00000
