1TPCN01013
7
    1res  C1    1   -0.181  -0.224  -0.183
    1res  C2    2   -0.284  -0.113   0.090
    1res  C3    3   -0.166   0.108   0.189
    1res  C4    4   -0.079   0.140  -0.070
    1res  C5    5    0.136   0.009  -0.074
    1res  C6    6    0.287   0.197  -0.002
    1res  C7    7    0.378  -0.075   0.092
  10.00000  10.00000  10.00000
