1TPCN00769
6
    1res  C1    1    0.472   0.058  -0.031
    1res  C2    2    0.210  -0.014   0.035
    1res  C3    3    0.043  -0.002   0.190
    1res  C4    4   -0.221   0.033   0.233
    1res  C5    5   -0.157  -0.034   0.033
    1res  C6    6   -0.288  -0.023  -0.116
  10.00000  10.00000  10.00000
