[ moleculetype ]
; name        nrexcl
res           1

[ atoms ]
;    nr  type resnr resid  atom  cgnr     charge       mass
      1 TP1       1 res   C1        1      0.000     36.000
      2 SX3       1 res   C2        2      0.000     54.000
      3 TX3h      1 res   C3        3      0.000     36.000

[ bonds ]
;  ai    aj   funct      b0(nm)        k
    1     2     1      0.32062    20000
    2     3     1      0.24624    20000
