1TPCN04814
24
    1res  C1    1   -0.969   0.205   0.334
    1res  C2    2   -0.788   0.186   0.110
    1res  C3    3   -0.809   0.465   0.022
    1res  C4    4   -0.588   0.437   0.088
    1res  C5    5   -0.529   0.180   0.053
    1res  C6    6   -0.219   0.198   0.153
    1res  C7    7   -0.041   0.155  -0.088
    1res  C8    8    0.237   0.274   0.034
    1res  C9    9    0.274   0.011   0.175
    1res  C10   10    0.547  -0.099   0.014
    1res  C11   11    0.604   0.205   0.214
    1res  C12   12    0.691   0.238  -0.087
    1res  C13   13    0.816   0.127   0.068
    1res  C14   14    0.987  -0.005  -0.078
    1res  C15   15    0.354  -0.009  -0.165
    1res  C16   16    0.115  -0.104  -0.078
    1res  C17   17   -0.095  -0.178  -0.074
    1res  C18   18   -0.215  -0.463  -0.171
    1res  C19   19   -0.148  -0.662  -0.281
    1res  C20   20    0.030  -0.665  -0.116
    1res  C21   21   -0.033  -0.492   0.040
    1res  C22   22   -0.122  -0.048   0.089
    1res  C23   23   -0.356  -0.094   0.004
    1res  C24   24   -0.752  -0.064  -0.151
  10.00000  10.00000  10.00000
