[ moleculetype ]
; name        nrexcl
res           1

[ atoms ]
;    nr  type resnr resid  atom  cgnr     charge       mass
      1 TC4       1 res   C1        1      0.000     36.000
      2 TC3       1 res   C2        2      0.000     36.000
      3 TC5       1 res   C3        3      0.000     36.000
      4 SN4a      1 res   C4        4      0.000     54.000
      5 SN4a      1 res   C5        5      0.000     54.000
      6 TP1       1 res   C6        6      0.000     36.000
      7 TN6       1 res   C7        7      0.000     36.000
      8 TN6       1 res   C8        8      0.000     36.000
      9 TN6       1 res   C9        9      0.000     36.000
     10 TC3       1 res   C10      10      0.000     36.000
     11 SC4       1 res   C11      11      0.000     54.000
     12 TC3       1 res   C12      12      0.000     36.000
     13 SC4       1 res   C13      13      0.000     54.000
     14 SC4       1 res   C14      14      0.000     54.000
     15 TC3       1 res   C15      15      0.000     36.000
     16 TN6       1 res   C16      16      0.000     36.000
     17 SN4a      1 res   C17      17      0.000     54.000
     18 TN6       1 res   C18      18      0.000     36.000
     19 TN6       1 res   C19      19      0.000     36.000
     20 TN6       1 res   C20      20      0.000     36.000
     21 SC4       1 res   C21      21      0.000     54.000
     22 TC3       1 res   C22      22      0.000     36.000
     23 SN6       1 res   C23      23      0.000     54.000

[ bonds ]
;  ai    aj   funct      b0(nm)        k
    1     2     1      0.27857    20000
    1    23     1      0.28048    20000
    2     3     1      0.29263    20000
    3     4     1      0.24662    20000
    3    10     1      0.29658    20000
    3    11     1      0.24635    20000
    3    23     1      0.27423    20000
    4     5     1      0.28924    20000
    5     6     1      0.24941    20000
    5     7     1      0.25803    20000
    5     9     1      0.27866    20000
    7     8     1      0.23427    20000
    8     9     1      0.24942    20000
   10    11     1      0.27322    20000
   11    12     1      0.39830    20000
   11    13     1      0.28977    20000
   12    13     1      0.33819    20000
   13    14     1      0.33464    20000
   13    22     1      0.28079    20000
   14    15     1      0.30295    20000
   14    21     1      0.33259    20000
   14    22     1      0.37665    20000
   15    16     1      0.25444    20000
   16    17     1      0.33949    20000
   16    21     1      0.24861    20000
   17    18     1      0.28499    20000
   17    20     1      0.28301    20000
   18    19     1      0.20971    20000
   19    20     1      0.25375    20000
