[ moleculetype ]
; name        nrexcl
res           1

[ atoms ]
;    nr  type  resnr resid  atom  cgnr     charge       mass
      1 TC5       1 res   C1        1      0.000     36.000
      2 TX1       1 res   C2        2      0.000     36.000
      3 TC5       1 res   C3        3      0.000     36.000
      4 TN6       1 res   C4        4      0.000     36.000

[ constraints ]
;  ai    aj   funct      b0(nm)
    1     2     1      0.29326
    2     3     1      0.29340

[ bonds ]
;  ai    aj   funct      b0(nm)          k(kJ/mol/nm^2)
    1     4     1      0.29440           8762.2
    3     4     1      0.30066           9333.8

[ angles ]
;  ai    aj    ak  funct     th0(deg)        k(kJ/mol/rad^2)
    1     2     3     1     69.02224          5663.95
    1     4     3     1     67.70995          2423.37
    2     1     4     1    112.45934           402.94
    2     3     4     1    110.62824           393.98

[ dihedrals ]
;  ai    aj    ak    al  funct   phi0(deg)        k(kJ/mol)   mult
    1     2     3     4     1    178.08372        6.323      1
    1     4     3     2     1   -178.08695        6.300      1
    2     1     4     3     1    178.99459        7.040      1
    3     2     1     4     1   -178.97997        7.052      1
