[ moleculetype ]
; name        nrexcl
res           1

[ atoms ]
;    nr  type  resnr resid  atom  cgnr     charge       mass
      1 TC5e      1 res   C1        1      0.000     36.000
      2 TC5       1 res   C2        2      0.000     36.000
      3 TC5e      1 res   C3        3      0.000     36.000
      4 TC5       1 res   C4        4      0.000     36.000
      5 TC5e      1 res   C5        5      0.000     36.000
      6 TC5       1 res   C6        6      0.000     36.000
      7 TC5       1 res   C7        7      0.000     36.000
      8 TC5       1 res   C8        8      0.000     36.000
      9 TC5       1 res   C9        9      0.000     36.000

[ bonds ]
;  ai    aj   funct      b0(nm)          k(kJ/mol/nm^2)
    1     2     1      0.12159         223015.8
    1     8     1      0.25351         248325.1
    1     9     1      0.25267         230703.7
    2     3     1      0.12333         283277.6
    3     4     1      0.12341         216342.6
    4     5     1      0.12158         231326.2
    5     6     1      0.25350         217724.6
    5     7     1      0.25265         264459.9
    6     7     1      0.29052         118559.0
    8     9     1      0.29038         195151.0

[ angles ]
;  ai    aj    ak  funct     th0(deg)        k(kJ/mol/rad^2)
    1     2     3     1    170.61471           280.50
    1     8     9     1     54.85577         11025.25
    1     9     8     1     55.12660         11901.21
    2     1     8     1    144.66586           770.49
    2     1     9     1    143.80062           769.21
    2     3     4     1    170.12620           261.53
    3     4     5     1    170.85422           216.32
    4     5     6     1    144.54748           788.48
    4     5     7     1    143.87036           769.16
    5     6     7     1     54.83174          9271.07
    5     7     6     1     55.10559          9398.73
    6     5     7     1     70.06267          4316.68
    8     1     9     1     70.01762          6449.95

[ dihedrals ]
;  ai    aj    ak    al  funct   phi0(deg)        k(kJ/mol)   mult
    1     2     3     4     1      2.40234       20.885      1
    1     2     3     4     1    167.36575       13.070      2
    1     2     3     4     1    -21.20929        9.004      3
    2     1     8     9     1      0.71679       21.050      1
    2     1     8     9     1   -178.43762       18.334      2
    2     1     8     9     1      2.73152       14.303      3
    2     1     9     8     1      0.20752       19.162      1
    2     1     9     8     1   -179.66783       17.096      2
    2     1     9     8     1      0.25502       13.975      3
    2     3     4     5     1     -8.19680       15.633      1
    2     3     4     5     1    174.98809       12.750      2
    2     3     4     5     1     25.69033        8.022      3
    3     2     1     8     1    155.68784        0.602      1
    3     2     1     8     1     -3.28901       23.936      2
    3     2     1     8     1   -134.97266        5.203      3
    3     2     1     9     1     20.15365       12.204      1
    3     2     1     9     1     -1.12730       21.184      2
    3     2     1     9     1    153.13919       12.330      3
    3     4     5     6     1    -81.02147        1.877      1
    3     4     5     6     1     -2.52464       23.875      2
    3     4     5     6     1   -120.43957        3.628      3
    3     4     5     7     1     18.96586        7.099      1
    3     4     5     7     1     -5.09451       22.448      2
    3     4     5     7     1    167.40417       10.532      3
    4     5     6     7     1      0.88137       21.069      1
    4     5     6     7     1   -178.21854       18.371      2
    4     5     6     7     1      2.72884       14.359      3
    4     5     7     6     1      1.69611       20.365      1
    4     5     7     6     1   -176.58738       17.810      2
    4     5     7     6     1      5.19918       14.009      3
