Generated with MDTraj, t= 0.0
 50
    1UNL     C1    1   0.255  -0.341   0.073
    1UNL     O1    2   0.247  -0.235  -0.017
    1UNL     C2    3   0.249  -0.116   0.051
    1UNL     O2    4   0.252  -0.106   0.172
    1UNL     C3    5   0.252   0.007  -0.036
    1UNL     C4    6   0.344   0.111   0.027
    1UNL     C5    7   0.110   0.057  -0.092
    1UNL     C6    8   0.135   0.187  -0.163
    1UNL     C7    9   0.132   0.299  -0.091
    1UNL     C8   10   0.104   0.302   0.058
    1UNL     N1   11   0.019   0.187   0.106
    1UNL     C9   12   0.046   0.099   0.224
    1UNL    C10   13  -0.023  -0.038   0.195
    1UNL    C11   14  -0.083  -0.031   0.050
    1UNL    C12   15  -0.234  -0.009   0.056
    1UNL    C13   16  -0.284   0.098   0.127
    1UNL    C14   17  -0.420   0.120   0.138
    1UNL    C15   18  -0.508   0.034   0.077
    1UNL    C16   19  -0.460  -0.073   0.004
    1UNL    C17   20  -0.323  -0.095  -0.008
    1UNL     N2   21  -0.276  -0.201  -0.087
    1UNL    C18   22  -0.144  -0.227  -0.116
    1UNL     O3   23  -0.113  -0.317  -0.191
    1UNL    C19   24  -0.036  -0.141  -0.055
    1UNL    C20   25   0.048  -0.068  -0.164
    1UNL    C21   26  -0.014   0.096  -0.005
    1UNL     H1   27   0.349  -0.334   0.128
    1UNL     H2   28   0.252  -0.435   0.016
    1UNL     H3   29   0.171  -0.337   0.142
    1UNL     H4   30   0.304  -0.025  -0.128
    1UNL     H5   31   0.353   0.201  -0.034
    1UNL     H6   32   0.309   0.140   0.126
    1UNL     H7   33   0.444   0.070   0.042
    1UNL     H8   34   0.155   0.188  -0.269
    1UNL     H9   35   0.150   0.393  -0.140
    1UNL    H10   36   0.196   0.305   0.115
    1UNL    H11   37   0.050   0.394   0.083
    1UNL    H12   38   0.005   0.147   0.314
    1UNL    H13   39   0.153   0.087   0.239
    1UNL    H14   40   0.048  -0.121   0.203
    1UNL    H15   41  -0.102  -0.059   0.267
    1UNL    H16   42  -0.215   0.167   0.173
    1UNL    H17   43  -0.457   0.204   0.194
    1UNL    H18   44  -0.615   0.050   0.085
    1UNL    H19   45  -0.529  -0.140  -0.045
    1UNL    H20   46  -0.344  -0.261  -0.132
    1UNL    H21   47   0.030  -0.211  -0.001
    1UNL    H22   48   0.124  -0.134  -0.207
    1UNL    H23   49  -0.017  -0.036  -0.246
    1UNL    H24   50  -0.086   0.149  -0.069
   0.00000   0.00000   0.00000   0.00000   0.00000   0.00000   0.00000   0.00000   0.00000
Generated with MDTraj, t= 1.0
 50
    1UNL     C1    1   0.272  -0.346   0.066
    1UNL     O1    2   0.266  -0.233  -0.027
    1UNL     C2    3   0.258  -0.114   0.046
    1UNL     O2    4   0.253  -0.114   0.170
    1UNL     C3    5   0.250   0.008  -0.037
    1UNL     C4    6   0.336   0.106   0.029
    1UNL     C5    7   0.109   0.053  -0.094
    1UNL     C6    8   0.132   0.191  -0.160
    1UNL     C7    9   0.130   0.306  -0.086
    1UNL     C8   10   0.107   0.305   0.064
    1UNL     N1   11   0.030   0.184   0.113
    1UNL     C9   12   0.035   0.099   0.235
    1UNL    C10   13  -0.036  -0.039   0.200
    1UNL    C11   14  -0.084  -0.028   0.045
    1UNL    C12   15  -0.235  -0.004   0.050
    1UNL    C13   16  -0.284   0.101   0.123
    1UNL    C14   17  -0.420   0.120   0.124
    1UNL    C15   18  -0.516   0.038   0.071
    1UNL    C16   19  -0.465  -0.075   0.003
    1UNL    C17   20  -0.325  -0.092  -0.007
    1UNL     N2   21  -0.281  -0.198  -0.088
    1UNL    C18   22  -0.140  -0.232  -0.106
    1UNL     O3   23  -0.116  -0.326  -0.179
    1UNL    C19   24  -0.037  -0.139  -0.050
    1UNL    C20   25   0.044  -0.068  -0.168
    1UNL    C21   26  -0.012   0.096  -0.005
    1UNL     H1   27   0.260  -0.443   0.019
    1UNL     H2   28   0.187  -0.349   0.135
    1UNL     H3   29   0.361  -0.329   0.128
    1UNL     H4   30   0.301  -0.008  -0.134
    1UNL     H5   31   0.324   0.199  -0.033
    1UNL     H6   32   0.301   0.118   0.140
    1UNL     H7   33   0.437   0.077   0.008
    1UNL     H8   34   0.125   0.186  -0.270
    1UNL     H9   35   0.153   0.404  -0.127
    1UNL    H10   36   0.208   0.300   0.097
    1UNL    H11   37   0.067   0.399   0.105
    1UNL    H12   38  -0.022   0.157   0.311
    1UNL    H13   39   0.140   0.096   0.256
    1UNL    H14   40   0.043  -0.115   0.206
    1UNL    H15   41  -0.119  -0.069   0.259
    1UNL    H16   42  -0.214   0.179   0.154
    1UNL    H17   43  -0.440   0.197   0.186
    1UNL    H18   44  -0.622   0.055   0.095
    1UNL    H19   45  -0.547  -0.144  -0.047
    1UNL    H20   46  -0.343  -0.272  -0.120
    1UNL    H21   47   0.033  -0.204   0.003
    1UNL    H22   48   0.124  -0.140  -0.192
    1UNL    H23   49  -0.023  -0.050  -0.252
    1UNL    H24   50  -0.079   0.162  -0.063
   0.00000   0.00000   0.00000   0.00000   0.00000   0.00000   0.00000   0.00000   0.00000
Generated with MDTraj, t= 2.0
 50
    1UNL     C1    1   0.273  -0.340   0.048
    1UNL     O1    2   0.263  -0.231  -0.028
    1UNL     C2    3   0.243  -0.119   0.046
    1UNL     O2    4   0.234  -0.123   0.170
    1UNL     C3    5   0.252   0.006  -0.040
    1UNL     C4    6   0.343   0.109   0.019
    1UNL     C5    7   0.107   0.057  -0.089
    1UNL     C6    8   0.136   0.195  -0.149
    1UNL     C7    9   0.130   0.308  -0.087
    1UNL     C8   10   0.088   0.306   0.061
    1UNL     N1   11   0.021   0.184   0.113
    1UNL     C9   12   0.047   0.095   0.233
    1UNL    C10   13  -0.030  -0.034   0.211
    1UNL    C11   14  -0.081  -0.024   0.054
    1UNL    C12   15  -0.230  -0.009   0.056
    1UNL    C13   16  -0.285   0.097   0.125
    1UNL    C14   17  -0.424   0.125   0.123
    1UNL    C15   18  -0.504   0.046   0.052
    1UNL    C16   19  -0.457  -0.070  -0.007
    1UNL    C17   20  -0.323  -0.096  -0.008
    1UNL     N2   21  -0.278  -0.209  -0.076
    1UNL    C18   22  -0.140  -0.233  -0.105
    1UNL     O3   23  -0.112  -0.327  -0.173
    1UNL    C19   24  -0.036  -0.137  -0.041
    1UNL    C20   25   0.052  -0.070  -0.160
    1UNL    C21   26  -0.015   0.095  -0.007
    1UNL     H1   27   0.198  -0.337   0.128
    1UNL     H2   28   0.375  -0.361   0.089
    1UNL     H3   29   0.265  -0.414  -0.036
    1UNL     H4   30   0.295  -0.026  -0.138
    1UNL     H5   31   0.357   0.201  -0.054
    1UNL     H6   32   0.303   0.149   0.118
    1UNL     H7   33   0.442   0.072   0.015
    1UNL     H8   34   0.158   0.204  -0.251
    1UNL     H9   35   0.161   0.393  -0.145
    1UNL    H10   36   0.172   0.325   0.118
    1UNL    H11   37   0.020   0.393   0.078
    1UNL    H12   38  -0.000   0.147   0.319
    1UNL    H13   39   0.151   0.092   0.234
    1UNL    H14   40   0.027  -0.127   0.220
    1UNL    H15   41  -0.114  -0.041   0.272
    1UNL    H16   42  -0.215   0.150   0.186
    1UNL    H17   43  -0.462   0.226   0.171
    1UNL    H18   44  -0.609   0.067   0.062
    1UNL    H19   45  -0.528  -0.131  -0.047
    1UNL    H20   46  -0.348  -0.259  -0.132
    1UNL    H21   47   0.035  -0.203   0.010
    1UNL    H22   48   0.130  -0.144  -0.192
    1UNL    H23   49  -0.010  -0.027  -0.237
    1UNL    H24   50  -0.081   0.150  -0.078
   0.00000   0.00000   0.00000   0.00000   0.00000   0.00000   0.00000   0.00000   0.00000
Generated with MDTraj, t= 3.0
 50
    1UNL     C1    1   0.265  -0.345   0.047
    1UNL     O1    2   0.265  -0.234  -0.036
    1UNL     C2    3   0.252  -0.122   0.039
    1UNL     O2    4   0.259  -0.125   0.162
    1UNL     C3    5   0.249   0.016  -0.034
    1UNL     C4    6   0.343   0.110   0.047
    1UNL     C5    7   0.111   0.052  -0.092
    1UNL     C6    8   0.128   0.189  -0.159
    1UNL     C7    9   0.124   0.305  -0.087
    1UNL     C8   10   0.101   0.303   0.060
    1UNL     N1   11   0.021   0.191   0.109
    1UNL     C9   12   0.036   0.099   0.236
    1UNL    C10   13  -0.031  -0.036   0.203
    1UNL    C11   14  -0.079  -0.029   0.054
    1UNL    C12   15  -0.233  -0.007   0.057
    1UNL    C13   16  -0.293   0.101   0.126
    1UNL    C14   17  -0.428   0.129   0.119
    1UNL    C15   18  -0.514   0.038   0.058
    1UNL    C16   19  -0.460  -0.070  -0.007
    1UNL    C17   20  -0.322  -0.098  -0.004
    1UNL     N2   21  -0.270  -0.199  -0.087
    1UNL    C18   22  -0.138  -0.225  -0.106
    1UNL     O3   23  -0.105  -0.328  -0.157
    1UNL    C19   24  -0.036  -0.139  -0.046
    1UNL    C20   25   0.043  -0.075  -0.159
    1UNL    C21   26  -0.017   0.100  -0.007
    1UNL     H1   27   0.367  -0.368   0.082
    1UNL     H2   28   0.209  -0.427  -0.004
    1UNL     H3   29   0.199  -0.318   0.131
    1UNL     H4   30   0.300   0.001  -0.133
    1UNL     H5   31   0.342   0.217  -0.002
    1UNL     H6   32   0.296   0.134   0.145
    1UNL     H7   33   0.449   0.096   0.043
    1UNL     H8   34   0.159   0.162  -0.265
    1UNL     H9   35   0.136   0.402  -0.136
    1UNL    H10   36   0.192   0.306   0.111
    1UNL    H11   37   0.057   0.399   0.094
    1UNL    H12   38  -0.012   0.161   0.314
    1UNL    H13   39   0.136   0.080   0.259
    1UNL    H14   40   0.031  -0.124   0.213
    1UNL    H15   41  -0.118  -0.060   0.257
    1UNL    H16   42  -0.231   0.177   0.177
    1UNL    H17   43  -0.474   0.217   0.155
    1UNL    H18   44  -0.618   0.062   0.033
    1UNL    H19   45  -0.529  -0.141  -0.050
    1UNL    H20   46  -0.330  -0.276  -0.112
    1UNL    H21   47   0.027  -0.205   0.015
    1UNL    H22   48   0.125  -0.136  -0.205
    1UNL    H23   49  -0.032  -0.038  -0.228
    1UNL    H24   50  -0.088   0.146  -0.081
   0.00000   0.00000   0.00000   0.00000   0.00000   0.00000   0.00000   0.00000   0.00000
Generated with MDTraj, t= 4.0
 50
    1UNL     C1    1   0.260  -0.341   0.044
    1UNL     O1    2   0.245  -0.227  -0.033
    1UNL     C2    3   0.251  -0.118   0.050
    1UNL     O2    4   0.242  -0.127   0.170
    1UNL     C3    5   0.252   0.011  -0.025
    1UNL     C4    6   0.340   0.105   0.049
    1UNL     C5    7   0.107   0.068  -0.093
    1UNL     C6    8   0.140   0.196  -0.159
    1UNL     C7    9   0.141   0.307  -0.091
    1UNL     C8   10   0.092   0.302   0.056
    1UNL     N1   11   0.015   0.191   0.104
    1UNL     C9   12   0.039   0.103   0.222
    1UNL    C10   13  -0.032  -0.033   0.199
    1UNL    C11   14  -0.088  -0.035   0.053
    1UNL    C12   15  -0.236  -0.006   0.053
    1UNL    C13   16  -0.287   0.102   0.127
    1UNL    C14   17  -0.419   0.124   0.132
    1UNL    C15   18  -0.504   0.038   0.064
    1UNL    C16   19  -0.461  -0.073  -0.002
    1UNL    C17   20  -0.318  -0.099  -0.007
    1UNL     N2   21  -0.265  -0.206  -0.084
    1UNL    C18   22  -0.134  -0.236  -0.103
    1UNL     O3   23  -0.102  -0.338  -0.162
    1UNL    C19   24  -0.035  -0.138  -0.056
    1UNL    C20   25   0.047  -0.063  -0.163
    1UNL    C21   26  -0.017   0.098  -0.005
    1UNL     H1   27   0.239  -0.427  -0.018
    1UNL     H2   28   0.194  -0.341   0.134
    1UNL     H3   29   0.367  -0.339   0.071
    1UNL     H4   30   0.307  -0.028  -0.116
    1UNL     H5   31   0.374   0.194  -0.012
    1UNL     H6   32   0.285   0.155   0.131
    1UNL     H7   33   0.443   0.067   0.068
    1UNL     H8   34   0.143   0.199  -0.263
    1UNL     H9   35   0.163   0.385  -0.160
    1UNL    H10   36   0.174   0.309   0.125
    1UNL    H11   37   0.033   0.391   0.086
    1UNL    H12   38  -0.009   0.151   0.308
    1UNL    H13   39   0.142   0.091   0.248
    1UNL    H14   40   0.034  -0.116   0.211
    1UNL    H15   41  -0.111  -0.055   0.267
    1UNL    H16   42  -0.222   0.171   0.171
    1UNL    H17   43  -0.459   0.213   0.167
    1UNL    H18   44  -0.608   0.049   0.078
    1UNL    H19   45  -0.528  -0.147  -0.057
    1UNL    H20   46  -0.329  -0.248  -0.150
    1UNL    H21   47   0.031  -0.195   0.011
    1UNL    H22   48   0.121  -0.136  -0.205
    1UNL    H23   49  -0.014  -0.017  -0.241
    1UNL    H24   50  -0.088   0.143  -0.078
   0.00000   0.00000   0.00000   0.00000   0.00000   0.00000   0.00000   0.00000   0.00000
Generated with MDTraj, t= 5.0
 50
    1UNL     C1    1   0.248  -0.346   0.061
    1UNL     O1    2   0.270  -0.236  -0.024
    1UNL     C2    3   0.259  -0.122   0.049
    1UNL     O2    4   0.243  -0.115   0.168
    1UNL     C3    5   0.248   0.009  -0.035
    1UNL     C4    6   0.352   0.113   0.026
    1UNL     C5    7   0.114   0.058  -0.096
    1UNL     C6    8   0.140   0.189  -0.157
    1UNL     C7    9   0.133   0.304  -0.089
    1UNL     C8   10   0.100   0.311   0.057
    1UNL     N1   11   0.024   0.194   0.113
    1UNL     C9   12   0.038   0.109   0.233
    1UNL    C10   13  -0.037  -0.027   0.203
    1UNL    C11   14  -0.088  -0.036   0.053
    1UNL    C12   15  -0.238  -0.005   0.052
    1UNL    C13   16  -0.296   0.097   0.123
    1UNL    C14   17  -0.432   0.115   0.131
    1UNL    C15   18  -0.514   0.025   0.067
    1UNL    C16   19  -0.461  -0.074  -0.003
    1UNL    C17   20  -0.322  -0.095  -0.008
    1UNL     N2   21  -0.265  -0.197  -0.085
    1UNL    C18   22  -0.138  -0.232  -0.110
    1UNL     O3   23  -0.104  -0.323  -0.191
    1UNL    C19   24  -0.034  -0.144  -0.046
    1UNL    C20   25   0.044  -0.067  -0.163
    1UNL    C21   26  -0.012   0.092   0.006
    1UNL     H1   27   0.149  -0.340   0.105
    1UNL     H2   28   0.309  -0.332   0.153
    1UNL     H3   29   0.277  -0.435   0.004
    1UNL     H4   30   0.291  -0.020  -0.135
    1UNL     H5   31   0.394   0.184  -0.039
    1UNL     H6   32   0.304   0.176   0.106
    1UNL     H7   33   0.446   0.052   0.048
    1UNL     H8   34   0.175   0.164  -0.262
    1UNL     H9   35   0.160   0.400  -0.135
    1UNL    H10   36   0.184   0.328   0.127
    1UNL    H11   37   0.040   0.402   0.064
    1UNL    H12   38  -0.003   0.143   0.327
    1UNL    H13   39   0.145   0.093   0.247
    1UNL    H14   40   0.027  -0.105   0.226
    1UNL    H15   41  -0.120  -0.036   0.272
    1UNL    H16   42  -0.233   0.178   0.162
    1UNL    H17   43  -0.482   0.209   0.184
    1UNL    H18   44  -0.621   0.036   0.096
    1UNL    H19   45  -0.518  -0.138  -0.057
    1UNL    H20   46  -0.329  -0.274  -0.103
    1UNL    H21   47   0.040  -0.206   0.005
    1UNL    H22   48   0.125  -0.136  -0.198
    1UNL    H23   49  -0.029  -0.043  -0.243
    1UNL    H24   50  -0.093   0.142  -0.051
   0.00000   0.00000   0.00000   0.00000   0.00000   0.00000   0.00000   0.00000   0.00000
Generated with MDTraj, t= 6.0
 50
    1UNL     C1    1   0.285  -0.338   0.079
    1UNL     O1    2   0.244  -0.234  -0.011
    1UNL     C2    3   0.242  -0.111   0.061
    1UNL     O2    4   0.255  -0.106   0.181
    1UNL     C3    5   0.252   0.005  -0.032
    1UNL     C4    6   0.343   0.107   0.037
    1UNL     C5    7   0.106   0.062  -0.093
    1UNL     C6    8   0.129   0.193  -0.163
    1UNL     C7    9   0.144   0.302  -0.089
    1UNL     C8   10   0.110   0.293   0.062
    1UNL     N1   11   0.018   0.184   0.108
    1UNL     C9   12   0.045   0.107   0.225
    1UNL    C10   13  -0.032  -0.034   0.192
    1UNL    C11   14  -0.087  -0.036   0.045
    1UNL    C12   15  -0.238  -0.007   0.053
    1UNL    C13   16  -0.291   0.102   0.121
    1UNL    C14   17  -0.430   0.122   0.133
    1UNL    C15   18  -0.509   0.026   0.075
    1UNL    C16   19  -0.452  -0.073   0.003
    1UNL    C17   20  -0.321  -0.101  -0.013
    1UNL     N2   21  -0.275  -0.206  -0.087
    1UNL    C18   22  -0.143  -0.227  -0.124
    1UNL     O3   23  -0.121  -0.325  -0.202
    1UNL    C19   24  -0.035  -0.141  -0.060
    1UNL    C20   25   0.051  -0.058  -0.163
    1UNL    C21   26  -0.018   0.098  -0.004
    1UNL     H1   27   0.297  -0.296   0.178
    1UNL     H2   28   0.380  -0.389   0.057
    1UNL     H3   29   0.205  -0.409   0.059
    1UNL     H4   30   0.305  -0.033  -0.121
    1UNL     H5   31   0.340   0.195  -0.016
    1UNL     H6   32   0.312   0.114   0.143
    1UNL     H7   33   0.451   0.072   0.019
    1UNL     H8   34   0.145   0.198  -0.266
    1UNL     H9   35   0.140   0.394  -0.143
    1UNL    H10   36   0.209   0.293   0.117
    1UNL    H11   37   0.051   0.379   0.093
    1UNL    H12   38   0.010   0.164   0.308
    1UNL    H13   39   0.154   0.082   0.238
    1UNL    H14   40   0.047  -0.103   0.203
    1UNL    H15   41  -0.109  -0.058   0.262
    1UNL    H16   42  -0.226   0.172   0.170
    1UNL    H17   43  -0.471   0.198   0.190
    1UNL    H18   44  -0.613   0.034   0.081
    1UNL    H19   45  -0.528  -0.151  -0.027
    1UNL    H20   46  -0.337  -0.261  -0.146
    1UNL    H21   47   0.035  -0.214  -0.015
    1UNL    H22   48   0.119  -0.133  -0.209
    1UNL    H23   49  -0.019  -0.023  -0.244
    1UNL    H24   50  -0.093   0.149  -0.065
   0.00000   0.00000   0.00000   0.00000   0.00000   0.00000   0.00000   0.00000   0.00000
Generated with MDTraj, t= 7.0
 50
    1UNL     C1    1   0.253  -0.334   0.097
    1UNL     O1    2   0.257  -0.234  -0.003
    1UNL     C2    3   0.254  -0.112   0.055
    1UNL     O2    4   0.255  -0.102   0.174
    1UNL     C3    5   0.255   0.013  -0.036
    1UNL     C4    6   0.345   0.119   0.032
    1UNL     C5    7   0.113   0.047  -0.096
    1UNL     C6    8   0.129   0.188  -0.159
    1UNL     C7    9   0.126   0.301  -0.084
    1UNL     C8   10   0.084   0.310   0.061
    1UNL     N1   11   0.017   0.179   0.108
    1UNL     C9   12   0.041   0.092   0.225
    1UNL    C10   13  -0.026  -0.044   0.188
    1UNL    C11   14  -0.081  -0.039   0.042
    1UNL    C12   15  -0.227  -0.013   0.058
    1UNL    C13   16  -0.282   0.103   0.126
    1UNL    C14   17  -0.424   0.118   0.139
    1UNL    C15   18  -0.504   0.032   0.074
    1UNL    C16   19  -0.459  -0.075   0.006
    1UNL    C17   20  -0.319  -0.089  -0.007
    1UNL     N2   21  -0.278  -0.195  -0.088
    1UNL    C18   22  -0.145  -0.220  -0.132
    1UNL     O3   23  -0.117  -0.312  -0.207
    1UNL    C19   24  -0.034  -0.149  -0.065
    1UNL    C20   25   0.057  -0.077  -0.168
    1UNL    C21   26  -0.010   0.084  -0.007
    1UNL     H1   27   0.341  -0.330   0.162
    1UNL     H2   28   0.236  -0.432   0.050
    1UNL     H3   29   0.162  -0.307   0.148
    1UNL     H4   30   0.303  -0.006  -0.134
    1UNL     H5   31   0.359   0.205  -0.030
    1UNL     H6   32   0.295   0.145   0.117
    1UNL     H7   33   0.455   0.083   0.045
    1UNL     H8   34   0.174   0.190  -0.260
    1UNL     H9   35   0.134   0.397  -0.137
    1UNL    H10   36   0.169   0.336   0.134
    1UNL    H11   37   0.009   0.389   0.058
    1UNL    H12   38  -0.003   0.130   0.312
    1UNL    H13   39   0.152   0.087   0.247
    1UNL    H14   40   0.042  -0.125   0.206
    1UNL    H15   41  -0.106  -0.061   0.255
    1UNL    H16   42  -0.219   0.163   0.187
    1UNL    H17   43  -0.463   0.200   0.192
    1UNL    H18   44  -0.612   0.047   0.076
    1UNL    H19   45  -0.528  -0.141  -0.038
    1UNL    H20   46  -0.354  -0.242  -0.137
    1UNL    H21   47   0.015  -0.235  -0.013
    1UNL    H22   48   0.133  -0.145  -0.208
    1UNL    H23   49  -0.006  -0.045  -0.257
    1UNL    H24   50  -0.079   0.128  -0.081
   0.00000   0.00000   0.00000   0.00000   0.00000   0.00000   0.00000   0.00000   0.00000
Generated with MDTraj, t= 8.0
 50
    1UNL     C1    1   0.250  -0.333   0.083
    1UNL     O1    2   0.228  -0.225   0.003
    1UNL     C2    3   0.252  -0.104   0.065
    1UNL     O2    4   0.261  -0.098   0.186
    1UNL     C3    5   0.250   0.010  -0.032
    1UNL     C4    6   0.344   0.112   0.020
    1UNL     C5    7   0.110   0.054  -0.091
    1UNL     C6    8   0.137   0.184  -0.174
    1UNL     C7    9   0.131   0.292  -0.095
    1UNL     C8   10   0.097   0.295   0.053
    1UNL     N1   11   0.023   0.179   0.105
    1UNL     C9   12   0.038   0.099   0.226
    1UNL    C10   13  -0.021  -0.041   0.193
    1UNL    C11   14  -0.082  -0.032   0.045
    1UNL    C12   15  -0.233  -0.017   0.064
    1UNL    C13   16  -0.287   0.085   0.143
    1UNL    C14   17  -0.418   0.111   0.141
    1UNL    C15   18  -0.506   0.033   0.071
    1UNL    C16   19  -0.460  -0.081  -0.005
    1UNL    C17   20  -0.322  -0.093  -0.013
    1UNL     N2   21  -0.268  -0.196  -0.095
    1UNL    C18   22  -0.139  -0.224  -0.126
    1UNL     O3   23  -0.111  -0.299  -0.215
    1UNL    C19   24  -0.036  -0.143  -0.052
    1UNL    C20   25   0.052  -0.071  -0.157
    1UNL    C21   26  -0.013   0.093  -0.007
    1UNL     H1   27   0.351  -0.375   0.072
    1UNL     H2   28   0.178  -0.405   0.037
    1UNL     H3   29   0.232  -0.302   0.186
    1UNL     H4   30   0.293  -0.026  -0.126
    1UNL     H5   31   0.351   0.204  -0.040
    1UNL     H6   32   0.300   0.142   0.108
    1UNL     H7   33   0.453   0.082   0.026
    1UNL     H8   34   0.123   0.180  -0.281
    1UNL     H9   35   0.148   0.387  -0.143
    1UNL    H10   36   0.202   0.294   0.102
    1UNL    H11   37   0.037   0.379   0.083
    1UNL    H12   38  -0.014   0.146   0.305
    1UNL    H13   39   0.145   0.098   0.261
    1UNL    H14   40   0.054  -0.122   0.200
    1UNL    H15   41  -0.096  -0.071   0.260
    1UNL    H16   42  -0.224   0.164   0.185
    1UNL    H17   43  -0.467   0.190   0.216
    1UNL    H18   44  -0.609   0.061   0.062
    1UNL    H19   45  -0.523  -0.143  -0.067
    1UNL    H20   46  -0.334  -0.260  -0.139
    1UNL    H21   47   0.028  -0.209   0.012
    1UNL    H22   48   0.134  -0.131  -0.199
    1UNL    H23   49   0.004  -0.038  -0.254
    1UNL    H24   50  -0.085   0.141  -0.072
   0.00000   0.00000   0.00000   0.00000   0.00000   0.00000   0.00000   0.00000   0.00000
Generated with MDTraj, t= 9.0
 50
    1UNL     C1    1   0.250  -0.344   0.096
    1UNL     O1    2   0.246  -0.237  -0.002
    1UNL     C2    3   0.252  -0.115   0.062
    1UNL     O2    4   0.278  -0.106   0.182
    1UNL     C3    5   0.247   0.008  -0.024
    1UNL     C4    6   0.348   0.109   0.022
    1UNL     C5    7   0.110   0.058  -0.091
    1UNL     C6    8   0.145   0.194  -0.160
    1UNL     C7    9   0.127   0.306  -0.090
    1UNL     C8   10   0.101   0.311   0.057
    1UNL     N1   11   0.013   0.195   0.104
    1UNL     C9   12   0.041   0.094   0.210
    1UNL    C10   13  -0.031  -0.043   0.186
    1UNL    C11   14  -0.086  -0.027   0.043
    1UNL    C12   15  -0.235  -0.006   0.053
    1UNL    C13   16  -0.289   0.091   0.133
    1UNL    C14   17  -0.423   0.104   0.149
    1UNL    C15   18  -0.516   0.022   0.082
    1UNL    C16   19  -0.459  -0.082   0.006
    1UNL    C17   20  -0.325  -0.090  -0.020
    1UNL     N2   21  -0.278  -0.198  -0.105
    1UNL    C18   22  -0.146  -0.228  -0.119
    1UNL     O3   23  -0.112  -0.312  -0.193
    1UNL    C19   24  -0.036  -0.137  -0.063
    1UNL    C20   25   0.053  -0.062  -0.173
    1UNL    C21   26  -0.012   0.097  -0.012
    1UNL     H1   27   0.342  -0.343   0.157
    1UNL     H2   28   0.241  -0.442   0.041
    1UNL     H3   29   0.178  -0.316   0.172
    1UNL     H4   30   0.290  -0.026  -0.120
    1UNL     H5   31   0.361   0.194  -0.047
    1UNL     H6   32   0.301   0.156   0.115
    1UNL     H7   33   0.447   0.063   0.032
    1UNL     H8   34   0.171   0.186  -0.264
    1UNL     H9   35   0.178   0.389  -0.140
    1UNL    H10   36   0.202   0.293   0.110
    1UNL    H11   37   0.058   0.406   0.086
    1UNL    H12   38   0.009   0.137   0.302
    1UNL    H13   39   0.151   0.074   0.222
    1UNL    H14   40   0.035  -0.131   0.191
    1UNL    H15   41  -0.116  -0.067   0.244
    1UNL    H16   42  -0.220   0.163   0.171
    1UNL    H17   43  -0.460   0.177   0.209
    1UNL    H18   44  -0.624   0.028   0.095
    1UNL    H19   45  -0.534  -0.146  -0.047
    1UNL    H20   46  -0.345  -0.238  -0.170
    1UNL    H21   47   0.027  -0.202   0.001
    1UNL    H22   48   0.129  -0.125  -0.225
    1UNL    H23   49   0.004  -0.024  -0.269
    1UNL    H24   50  -0.076   0.143  -0.087
   0.00000   0.00000   0.00000   0.00000   0.00000   0.00000   0.00000   0.00000   0.00000
Generated with MDTraj, t= 10.0
 50
    1UNL     C1    1   0.247  -0.329   0.091
    1UNL     O1    2   0.250  -0.231  -0.008
    1UNL     C2    3   0.237  -0.106   0.047
    1UNL     O2    4   0.234  -0.091   0.170
    1UNL     C3    5   0.250   0.008  -0.040
    1UNL     C4    6   0.345   0.116   0.027
    1UNL     C5    7   0.119   0.057  -0.095
    1UNL     C6    8   0.137   0.195  -0.163
    1UNL     C7    9   0.137   0.302  -0.084
    1UNL     C8   10   0.112   0.297   0.062
    1UNL     N1   11   0.027   0.180   0.105
    1UNL     C9   12   0.037   0.093   0.230
    1UNL    C10   13  -0.033  -0.037   0.200
    1UNL    C11   14  -0.083  -0.026   0.050
    1UNL    C12   15  -0.234  -0.021   0.054
    1UNL    C13   16  -0.281   0.094   0.125
    1UNL    C14   17  -0.415   0.114   0.142
    1UNL    C15   18  -0.500   0.026   0.081
    1UNL    C16   19  -0.460  -0.082   0.003
    1UNL    C17   20  -0.323  -0.104  -0.012
    1UNL     N2   21  -0.274  -0.203  -0.098
    1UNL    C18   22  -0.138  -0.229  -0.127
    1UNL     O3   23  -0.119  -0.320  -0.205
    1UNL    C19   24  -0.032  -0.140  -0.052
    1UNL    C20   25   0.054  -0.066  -0.158
    1UNL    C21   26  -0.012   0.100  -0.013
    1UNL     H1   27   0.267  -0.291   0.192
    1UNL     H2   28   0.325  -0.401   0.055
    1UNL     H3   29   0.146  -0.367   0.099
    1UNL     H4   30   0.298  -0.024  -0.134
    1UNL     H5   31   0.370   0.204  -0.039
    1UNL     H6   32   0.294   0.154   0.122
    1UNL     H7   33   0.436   0.060   0.041
    1UNL     H8   34   0.155   0.189  -0.271
    1UNL     H9   35   0.165   0.393  -0.135
    1UNL    H10   36   0.202   0.288   0.120
    1UNL    H11   37   0.055   0.385   0.095
    1UNL    H12   38  -0.004   0.143   0.318
    1UNL    H13   39   0.143   0.073   0.242
    1UNL    H14   40   0.030  -0.126   0.194
    1UNL    H15   41  -0.115  -0.053   0.267
    1UNL    H16   42  -0.203   0.156   0.166
    1UNL    H17   43  -0.453   0.201   0.189
    1UNL    H18   44  -0.605   0.049   0.086
    1UNL    H19   45  -0.534  -0.145  -0.034
    1UNL    H20   46  -0.333  -0.283  -0.113
    1UNL    H21   47   0.025  -0.215   0.008
    1UNL    H22   48   0.124  -0.132  -0.213
    1UNL    H23   49  -0.018  -0.049  -0.245
    1UNL    H24   50  -0.080   0.159  -0.075
   0.00000   0.00000   0.00000   0.00000   0.00000   0.00000   0.00000   0.00000   0.00000
Generated with MDTraj, t= 11.0
 50
    1UNL     C1    1   0.263  -0.353   0.074
    1UNL     O1    2   0.257  -0.240  -0.014
    1UNL     C2    3   0.252  -0.123   0.052
    1UNL     O2    4   0.264  -0.113   0.173
    1UNL     C3    5   0.253   0.005  -0.024
    1UNL     C4    6   0.351   0.110   0.027
    1UNL     C5    7   0.112   0.059  -0.090
    1UNL     C6    8   0.127   0.191  -0.156
    1UNL     C7    9   0.123   0.307  -0.087
    1UNL     C8   10   0.096   0.314   0.061
    1UNL     N1   11   0.010   0.197   0.108
    1UNL     C9   12   0.046   0.102   0.227
    1UNL    C10   13  -0.023  -0.037   0.201
    1UNL    C11   14  -0.083  -0.032   0.050
    1UNL    C12   15  -0.236  -0.008   0.056
    1UNL    C13   16  -0.290   0.102   0.122
    1UNL    C14   17  -0.428   0.120   0.120
    1UNL    C15   18  -0.515   0.034   0.063
    1UNL    C16   19  -0.465  -0.079  -0.000
    1UNL    C17   20  -0.326  -0.102   0.001
    1UNL     N2   21  -0.280  -0.211  -0.081
    1UNL    C18   22  -0.141  -0.225  -0.120
    1UNL     O3   23  -0.107  -0.313  -0.198
    1UNL    C19   24  -0.039  -0.135  -0.058
    1UNL    C20   25   0.053  -0.069  -0.162
    1UNL    C21   26  -0.011   0.102  -0.004
    1UNL     H1   27   0.332  -0.330   0.154
    1UNL     H2   28   0.311  -0.432   0.014
    1UNL     H3   29   0.168  -0.379   0.117
    1UNL     H4   30   0.294  -0.030  -0.123
    1UNL     H5   31   0.395   0.188  -0.046
    1UNL     H6   32   0.325   0.158   0.125
    1UNL     H7   33   0.438   0.047   0.036
    1UNL     H8   34   0.143   0.188  -0.260
    1UNL     H9   35   0.133   0.392  -0.152
    1UNL    H10   36   0.184   0.306   0.110
    1UNL    H11   37   0.037   0.402   0.097
    1UNL    H12   38   0.016   0.155   0.321
    1UNL    H13   39   0.149   0.096   0.227
    1UNL    H14   40   0.033  -0.125   0.220
    1UNL    H15   41  -0.111  -0.037   0.266
    1UNL    H16   42  -0.224   0.179   0.164
    1UNL    H17   43  -0.465   0.213   0.183
    1UNL    H18   44  -0.623   0.052   0.065
    1UNL    H19   45  -0.532  -0.165  -0.023
    1UNL    H20   46  -0.336  -0.246  -0.156
    1UNL    H21   47   0.037  -0.208  -0.017
    1UNL    H22   48   0.116  -0.148  -0.214
    1UNL    H23   49  -0.008  -0.032  -0.249
    1UNL    H24   50  -0.082   0.154  -0.072
   0.00000   0.00000   0.00000   0.00000   0.00000   0.00000   0.00000   0.00000   0.00000
Generated with MDTraj, t= 12.0
 50
    1UNL     C1    1   0.271  -0.346   0.051
    1UNL     O1    2   0.255  -0.226  -0.027
    1UNL     C2    3   0.259  -0.113   0.052
    1UNL     O2    4   0.251  -0.114   0.174
    1UNL     C3    5   0.258   0.014  -0.029
    1UNL     C4    6   0.330   0.119   0.051
    1UNL     C5    7   0.117   0.055  -0.093
    1UNL     C6    8   0.128   0.183  -0.163
    1UNL     C7    9   0.136   0.297  -0.091
    1UNL     C8   10   0.105   0.298   0.057
    1UNL     N1   11   0.023   0.185   0.105
    1UNL     C9   12   0.031   0.100   0.230
    1UNL    C10   13  -0.028  -0.036   0.196
    1UNL    C11   14  -0.087  -0.028   0.049
    1UNL    C12   15  -0.237  -0.004   0.052
    1UNL    C13   16  -0.284   0.098   0.124
    1UNL    C14   17  -0.425   0.126   0.129
    1UNL    C15   18  -0.513   0.042   0.060
    1UNL    C16   19  -0.465  -0.072  -0.001
    1UNL    C17   20  -0.326  -0.098  -0.010
    1UNL     N2   21  -0.270  -0.204  -0.083
    1UNL    C18   22  -0.141  -0.233  -0.113
    1UNL     O3   23  -0.109  -0.333  -0.178
    1UNL    C19   24  -0.036  -0.141  -0.052
    1UNL    C20   25   0.049  -0.066  -0.158
    1UNL    C21   26  -0.019   0.099  -0.001
    1UNL     H1   27   0.374  -0.369   0.023
    1UNL     H2   28   0.210  -0.431   0.012
    1UNL     H3   29   0.252  -0.337   0.156
    1UNL     H4   30   0.307  -0.005  -0.128
    1UNL     H5   31   0.350   0.223   0.009
    1UNL     H6   32   0.294   0.127   0.155
    1UNL     H7   33   0.433   0.087   0.058
    1UNL     H8   34   0.136   0.174  -0.275
    1UNL     H9   35   0.159   0.393  -0.137
    1UNL    H10   36   0.178   0.303   0.130
    1UNL    H11   37   0.035   0.385   0.064
    1UNL    H12   38  -0.037   0.161   0.296
    1UNL    H13   39   0.123   0.102   0.277
    1UNL    H14   40   0.045  -0.110   0.214
    1UNL    H15   41  -0.114  -0.060   0.261
    1UNL    H16   42  -0.228   0.175   0.167
    1UNL    H17   43  -0.451   0.217   0.164
    1UNL    H18   44  -0.615   0.048   0.093
    1UNL    H19   45  -0.529  -0.139  -0.053
    1UNL    H20   46  -0.336  -0.279  -0.095
    1UNL    H21   47   0.033  -0.210   0.005
    1UNL    H22   48   0.136  -0.134  -0.184
    1UNL    H23   49  -0.012  -0.054  -0.251
    1UNL    H24   50  -0.089   0.158  -0.065
   0.00000   0.00000   0.00000   0.00000   0.00000   0.00000   0.00000   0.00000   0.00000
Generated with MDTraj, t= 13.0
 50
    1UNL     C1    1   0.259  -0.358   0.043
    1UNL     O1    2   0.272  -0.235  -0.035
    1UNL     C2    3   0.249  -0.124   0.045
    1UNL     O2    4   0.226  -0.125   0.161
    1UNL     C3    5   0.256   0.007  -0.028
    1UNL     C4    6   0.338   0.117   0.040
    1UNL     C5    7   0.104   0.057  -0.091
    1UNL     C6    8   0.145   0.184  -0.157
    1UNL     C7    9   0.129   0.298  -0.092
    1UNL     C8   10   0.072   0.320   0.054
    1UNL     N1   11   0.011   0.192   0.105
    1UNL     C9   12   0.030   0.114   0.233
    1UNL    C10   13  -0.032  -0.029   0.208
    1UNL    C11   14  -0.079  -0.033   0.061
    1UNL    C12   15  -0.231  -0.003   0.052
    1UNL    C13   16  -0.288   0.093   0.131
    1UNL    C14   17  -0.424   0.127   0.130
    1UNL    C15   18  -0.508   0.038   0.064
    1UNL    C16   19  -0.451  -0.062  -0.007
    1UNL    C17   20  -0.314  -0.092  -0.011
    1UNL     N2   21  -0.265  -0.195  -0.092
    1UNL    C18   22  -0.135  -0.232  -0.104
    1UNL     O3   23  -0.091  -0.331  -0.164
    1UNL    C19   24  -0.030  -0.145  -0.046
    1UNL    C20   25   0.051  -0.073  -0.162
    1UNL    C21   26  -0.017   0.093   0.003
    1UNL     H1   27   0.318  -0.425  -0.023
    1UNL     H2   28   0.153  -0.392   0.054
    1UNL     H3   29   0.287  -0.348   0.147
    1UNL     H4   30   0.305  -0.018  -0.126
    1UNL     H5   31   0.351   0.218  -0.006
    1UNL     H6   32   0.304   0.113   0.145
    1UNL     H7   33   0.442   0.080   0.036
    1UNL     H8   34   0.182   0.194  -0.253
    1UNL     H9   35   0.148   0.386  -0.149
    1UNL    H10   36   0.152   0.357   0.119
    1UNL    H11   37  -0.016   0.387   0.057
    1UNL    H12   38  -0.012   0.162   0.324
    1UNL    H13   39   0.135   0.106   0.255
    1UNL    H14   40   0.036  -0.111   0.219
    1UNL    H15   41  -0.113  -0.048   0.280
    1UNL    H16   42  -0.216   0.169   0.177
    1UNL    H17   43  -0.468   0.222   0.164
    1UNL    H18   44  -0.617   0.038   0.065
    1UNL    H19   45  -0.504  -0.141  -0.058
    1UNL    H20   46  -0.332  -0.252  -0.145
    1UNL    H21   47   0.028  -0.210   0.025
    1UNL    H22   48   0.136  -0.142  -0.193
    1UNL    H23   49  -0.011  -0.034  -0.244
    1UNL    H24   50  -0.091   0.135  -0.070
   0.00000   0.00000   0.00000   0.00000   0.00000   0.00000   0.00000   0.00000   0.00000
Generated with MDTraj, t= 14.0
 50
    1UNL     C1    1   0.281  -0.347   0.034
    1UNL     O1    2   0.269  -0.226  -0.044
    1UNL     C2    3   0.252  -0.121   0.045
    1UNL     O2    4   0.242  -0.128   0.164
    1UNL     C3    5   0.254   0.009  -0.031
    1UNL     C4    6   0.340   0.100   0.059
    1UNL     C5    7   0.113   0.060  -0.084
    1UNL     C6    8   0.137   0.188  -0.167
    1UNL     C7    9   0.142   0.302  -0.096
    1UNL     C8   10   0.117   0.307   0.051
    1UNL     N1   11   0.021   0.196   0.106
    1UNL     C9   12   0.034   0.119   0.233
    1UNL    C10   13  -0.032  -0.027   0.204
    1UNL    C11   14  -0.092  -0.023   0.058
    1UNL    C12   15  -0.242  -0.005   0.051
    1UNL    C13   16  -0.305   0.101   0.123
    1UNL    C14   17  -0.442   0.119   0.128
    1UNL    C15   18  -0.520   0.030   0.049
    1UNL    C16   19  -0.462  -0.073  -0.016
    1UNL    C17   20  -0.321  -0.101  -0.006
    1UNL     N2   21  -0.267  -0.209  -0.076
    1UNL    C18   22  -0.140  -0.232  -0.101
    1UNL     O3   23  -0.103  -0.332  -0.158
    1UNL    C19   24  -0.037  -0.137  -0.040
    1UNL    C20   25   0.044  -0.067  -0.153
    1UNL    C21   26  -0.022   0.101   0.003
    1UNL     H1   27   0.254  -0.422  -0.045
    1UNL     H2   28   0.215  -0.345   0.125
    1UNL     H3   29   0.378  -0.361   0.077
    1UNL     H4   30   0.302  -0.006  -0.132
    1UNL     H5   31   0.346   0.201   0.025
    1UNL     H6   32   0.282   0.093   0.155
    1UNL     H7   33   0.445   0.064   0.055
    1UNL     H8   34   0.164   0.174  -0.274
    1UNL     H9   35   0.153   0.404  -0.132
    1UNL    H10   36   0.211   0.313   0.122
    1UNL    H11   37   0.074   0.403   0.076
    1UNL    H12   38  -0.005   0.162   0.324
    1UNL    H13   39   0.140   0.099   0.261
    1UNL    H14   40   0.055  -0.096   0.199
    1UNL    H15   41  -0.099  -0.071   0.279
    1UNL    H16   42  -0.241   0.154   0.183
    1UNL    H17   43  -0.493   0.214   0.162
    1UNL    H18   44  -0.628   0.054   0.037
    1UNL    H19   45  -0.525  -0.150  -0.067
    1UNL    H20   46  -0.332  -0.274  -0.124
    1UNL    H21   47   0.042  -0.192   0.018
    1UNL    H22   48   0.132  -0.118  -0.205
    1UNL    H23   49  -0.026  -0.026  -0.227
    1UNL    H24   50  -0.087   0.155  -0.069
   0.00000   0.00000   0.00000   0.00000   0.00000   0.00000   0.00000   0.00000   0.00000
Generated with MDTraj, t= 15.0
 50
    1UNL     C1    1   0.281  -0.350   0.032
    1UNL     O1    2   0.266  -0.230  -0.042
    1UNL     C2    3   0.249  -0.126   0.047
    1UNL     O2    4   0.236  -0.128   0.166
    1UNL     C3    5   0.250   0.008  -0.023
    1UNL     C4    6   0.341   0.104   0.060
    1UNL     C5    7   0.107   0.061  -0.084
    1UNL     C6    8   0.137   0.194  -0.152
    1UNL     C7    9   0.120   0.307  -0.086
    1UNL     C8   10   0.095   0.312   0.059
    1UNL     N1   11   0.006   0.194   0.113
    1UNL     C9   12   0.033   0.108   0.224
    1UNL    C10   13  -0.033  -0.027   0.198
    1UNL    C11   14  -0.083  -0.026   0.048
    1UNL    C12   15  -0.233  -0.002   0.048
    1UNL    C13   16  -0.286   0.116   0.096
    1UNL    C14   17  -0.419   0.135   0.109
    1UNL    C15   18  -0.509   0.028   0.068
    1UNL    C16   19  -0.459  -0.081   0.002
    1UNL    C17   20  -0.324  -0.099  -0.005
    1UNL     N2   21  -0.269  -0.206  -0.075
    1UNL    C18   22  -0.135  -0.235  -0.100
    1UNL     O3   23  -0.107  -0.336  -0.160
    1UNL    C19   24  -0.029  -0.143  -0.045
    1UNL    C20   25   0.043  -0.071  -0.161
    1UNL    C21   26  -0.014   0.100  -0.001
    1UNL     H1   27   0.254  -0.425  -0.045
    1UNL     H2   28   0.213  -0.352   0.119
    1UNL     H3   29   0.382  -0.363   0.062
    1UNL     H4   30   0.299  -0.011  -0.122
    1UNL     H5   31   0.393   0.174  -0.003
    1UNL     H6   32   0.280   0.153   0.133
    1UNL     H7   33   0.426   0.036   0.089
    1UNL     H8   34   0.174   0.205  -0.251
    1UNL     H9   35   0.140   0.398  -0.139
    1UNL    H10   36   0.192   0.331   0.125
    1UNL    H11   37   0.041   0.401   0.091
    1UNL    H12   38   0.001   0.152   0.316
    1UNL    H13   39   0.146   0.096   0.243
    1UNL    H14   40   0.037  -0.113   0.216
    1UNL    H15   41  -0.115  -0.046   0.267
    1UNL    H16   42  -0.211   0.182   0.146
    1UNL    H17   43  -0.442   0.231   0.142
    1UNL    H18   44  -0.611   0.046   0.088
    1UNL    H19   45  -0.519  -0.147  -0.046
    1UNL    H20   46  -0.329  -0.278  -0.116
    1UNL    H21   47   0.040  -0.209   0.014
    1UNL    H22   48   0.123  -0.139  -0.205
    1UNL    H23   49  -0.028  -0.048  -0.243
    1UNL    H24   50  -0.079   0.150  -0.075
   0.00000   0.00000   0.00000   0.00000   0.00000   0.00000   0.00000   0.00000   0.00000
Generated with MDTraj, t= 16.0
 50
    1UNL     C1    1   0.256  -0.347   0.049
    1UNL     O1    2   0.271  -0.231  -0.035
    1UNL     C2    3   0.254  -0.121   0.044
    1UNL     O2    4   0.238  -0.108   0.165
    1UNL     C3    5   0.250   0.009  -0.035
    1UNL     C4    6   0.327   0.116   0.038
    1UNL     C5    7   0.109   0.061  -0.090
    1UNL     C6    8   0.139   0.193  -0.158
    1UNL     C7    9   0.143   0.305  -0.082
    1UNL     C8   10   0.091   0.306   0.056
    1UNL     N1   11   0.023   0.178   0.108
    1UNL     C9   12   0.034   0.106   0.240
    1UNL    C10   13  -0.027  -0.035   0.204
    1UNL    C11   14  -0.086  -0.027   0.055
    1UNL    C12   15  -0.234  -0.006   0.054
    1UNL    C13   16  -0.284   0.106   0.116
    1UNL    C14   17  -0.425   0.128   0.114
    1UNL    C15   18  -0.507   0.035   0.057
    1UNL    C16   19  -0.452  -0.080  -0.007
    1UNL    C17   20  -0.317  -0.100  -0.007
    1UNL     N2   21  -0.277  -0.215  -0.069
    1UNL    C18   22  -0.138  -0.236  -0.099
    1UNL     O3   23  -0.107  -0.320  -0.181
    1UNL    C19   24  -0.036  -0.141  -0.043
    1UNL    C20   25   0.047  -0.069  -0.154
    1UNL    C21   26  -0.012   0.092  -0.000
    1UNL     H1   27   0.306  -0.429  -0.005
    1UNL     H2   28   0.149  -0.369   0.053
    1UNL     H3   29   0.305  -0.336   0.142
    1UNL     H4   30   0.299  -0.019  -0.130
    1UNL     H5   31   0.375   0.190  -0.023
    1UNL     H6   32   0.267   0.158   0.107
    1UNL     H7   33   0.422   0.063   0.073
    1UNL     H8   34   0.145   0.192  -0.266
    1UNL     H9   35   0.165   0.404  -0.121
    1UNL    H10   36   0.178   0.325   0.128
    1UNL    H11   37   0.030   0.393   0.086
    1UNL    H12   38  -0.031   0.167   0.300
    1UNL    H13   39   0.140   0.124   0.280
    1UNL    H14   40   0.043  -0.122   0.219
    1UNL    H15   41  -0.114  -0.044   0.268
    1UNL    H16   42  -0.219   0.185   0.156
    1UNL    H17   43  -0.464   0.197   0.197
    1UNL    H18   44  -0.613   0.049   0.066
    1UNL    H19   45  -0.524  -0.150  -0.061
    1UNL    H20   46  -0.343  -0.271  -0.121
    1UNL    H21   47   0.025  -0.214   0.015
    1UNL    H22   48   0.120  -0.145  -0.193
    1UNL    H23   49  -0.022  -0.055  -0.242
    1UNL    H24   50  -0.082   0.142  -0.068
   0.00000   0.00000   0.00000   0.00000   0.00000   0.00000   0.00000   0.00000   0.00000
Generated with MDTraj, t= 17.0
 50
    1UNL     C1    1   0.277  -0.352   0.065
    1UNL     O1    2   0.249  -0.233  -0.013
    1UNL     C2    3   0.243  -0.118   0.058
    1UNL     O2    4   0.252  -0.113   0.181
    1UNL     C3    5   0.249   0.008  -0.028
    1UNL     C4    6   0.349   0.106   0.033
    1UNL     C5    7   0.108   0.058  -0.089
    1UNL     C6    8   0.123   0.188  -0.160
    1UNL     C7    9   0.125   0.304  -0.090
    1UNL     C8   10   0.103   0.302   0.060
    1UNL     N1   11   0.011   0.192   0.105
    1UNL     C9   12   0.056   0.099   0.220
    1UNL    C10   13  -0.023  -0.029   0.188
    1UNL    C11   14  -0.083  -0.028   0.048
    1UNL    C12   15  -0.237  -0.013   0.061
    1UNL    C13   16  -0.291   0.096   0.125
    1UNL    C14   17  -0.434   0.115   0.127
    1UNL    C15   18  -0.516   0.033   0.064
    1UNL    C16   19  -0.463  -0.080  -0.002
    1UNL    C17   20  -0.324  -0.089  -0.014
    1UNL     N2   21  -0.273  -0.195  -0.094
    1UNL    C18   22  -0.138  -0.223  -0.110
    1UNL     O3   23  -0.101  -0.314  -0.182
    1UNL    C19   24  -0.032  -0.141  -0.045
    1UNL    C20   25   0.048  -0.075  -0.160
    1UNL    C21   26  -0.021   0.103  -0.006
    1UNL     H1   27   0.376  -0.390   0.038
    1UNL     H2   28   0.204  -0.424   0.021
    1UNL     H3   29   0.289  -0.334   0.170
    1UNL     H4   30   0.296  -0.032  -0.119
    1UNL     H5   31   0.337   0.207   0.009
    1UNL     H6   32   0.348   0.112   0.141
    1UNL     H7   33   0.451   0.094  -0.015
    1UNL     H8   34   0.148   0.190  -0.267
    1UNL     H9   35   0.165   0.397  -0.129
    1UNL    H10   36   0.191   0.289   0.121
    1UNL    H11   37   0.063   0.400   0.096
    1UNL    H12   38   0.040   0.146   0.315
    1UNL    H13   39   0.168   0.094   0.208
    1UNL    H14   40   0.038  -0.120   0.201
    1UNL    H15   41  -0.112  -0.036   0.254
    1UNL    H16   42  -0.227   0.163   0.175
    1UNL    H17   43  -0.466   0.194   0.187
    1UNL    H18   44  -0.627   0.031   0.064
    1UNL    H19   45  -0.523  -0.135  -0.070
    1UNL    H20   46  -0.343  -0.257  -0.127
    1UNL    H21   47   0.040  -0.214  -0.005
    1UNL    H22   48   0.127  -0.135  -0.214
    1UNL    H23   49  -0.024  -0.063  -0.248
    1UNL    H24   50  -0.093   0.153  -0.070
   0.00000   0.00000   0.00000   0.00000   0.00000   0.00000   0.00000   0.00000   0.00000
Generated with MDTraj, t= 18.0
 50
    1UNL     C1    1   0.246  -0.333   0.094
    1UNL     O1    2   0.255  -0.235  -0.004
    1UNL     C2    3   0.252  -0.111   0.051
    1UNL     O2    4   0.253  -0.093   0.175
    1UNL     C3    5   0.258   0.008  -0.043
    1UNL     C4    6   0.343   0.111   0.024
    1UNL     C5    7   0.113   0.057  -0.096
    1UNL     C6    8   0.136   0.190  -0.156
    1UNL     C7    9   0.138   0.304  -0.087
    1UNL     C8   10   0.094   0.302   0.062
    1UNL     N1   11   0.028   0.178   0.097
    1UNL     C9   12   0.028   0.095   0.231
    1UNL    C10   13  -0.021  -0.042   0.188
    1UNL    C11   14  -0.084  -0.035   0.045
    1UNL    C12   15  -0.238  -0.012   0.057
    1UNL    C13   16  -0.287   0.092   0.132
    1UNL    C14   17  -0.420   0.110   0.151
    1UNL    C15   18  -0.511   0.030   0.082
    1UNL    C16   19  -0.460  -0.072  -0.001
    1UNL    C17   20  -0.325  -0.087  -0.022
    1UNL     N2   21  -0.274  -0.193  -0.099
    1UNL    C18   22  -0.146  -0.224  -0.119
    1UNL     O3   23  -0.115  -0.321  -0.187
    1UNL    C19   24  -0.032  -0.143  -0.063
    1UNL    C20   25   0.061  -0.072  -0.173
    1UNL    C21   26  -0.012   0.091  -0.011
    1UNL     H1   27   0.314  -0.315   0.180
    1UNL     H2   28   0.273  -0.424   0.034
    1UNL     H3   29   0.151  -0.329   0.145
    1UNL     H4   30   0.315  -0.027  -0.128
    1UNL     H5   31   0.378   0.197  -0.027
    1UNL     H6   32   0.283   0.149   0.113
    1UNL     H7   33   0.440   0.060   0.045
    1UNL     H8   34   0.130   0.203  -0.260
    1UNL     H9   35   0.155   0.401  -0.129
    1UNL    H10   36   0.172   0.328   0.125
    1UNL    H11   37   0.006   0.372   0.075
    1UNL    H12   38  -0.035   0.141   0.307
    1UNL    H13   39   0.129   0.076   0.273
    1UNL    H14   40   0.061  -0.110   0.171
    1UNL    H15   41  -0.097  -0.086   0.259
    1UNL    H16   42  -0.214   0.159   0.186
    1UNL    H17   43  -0.464   0.177   0.227
    1UNL    H18   44  -0.613   0.057   0.062
    1UNL    H19   45  -0.531  -0.142  -0.042
    1UNL    H20   46  -0.346  -0.242  -0.151
    1UNL    H21   47   0.030  -0.216  -0.009
    1UNL    H22   48   0.132  -0.138  -0.227
    1UNL    H23   49   0.003  -0.029  -0.262
    1UNL    H24   50  -0.081   0.151  -0.068
   0.00000   0.00000   0.00000   0.00000   0.00000   0.00000   0.00000   0.00000   0.00000
Generated with MDTraj, t= 19.0
 50
    1UNL     C1    1   0.242  -0.336   0.095
    1UNL     O1    2   0.224  -0.226   0.007
    1UNL     C2    3   0.249  -0.107   0.065
    1UNL     O2    4   0.271  -0.095   0.186
    1UNL     C3    5   0.247   0.009  -0.031
    1UNL     C4    6   0.354   0.105   0.018
    1UNL     C5    7   0.112   0.056  -0.100
    1UNL     C6    8   0.132   0.192  -0.166
    1UNL     C7    9   0.124   0.305  -0.092
    1UNL     C8   10   0.099   0.304   0.060
    1UNL     N1   11   0.022   0.187   0.103
    1UNL     C9   12   0.048   0.102   0.225
    1UNL    C10   13  -0.014  -0.042   0.194
    1UNL    C11   14  -0.085  -0.037   0.050
    1UNL    C12   15  -0.233  -0.021   0.063
    1UNL    C13   16  -0.285   0.093   0.132
    1UNL    C14   17  -0.416   0.115   0.145
    1UNL    C15   18  -0.509   0.026   0.081
    1UNL    C16   19  -0.458  -0.071  -0.000
    1UNL    C17   20  -0.321  -0.097  -0.016
    1UNL     N2   21  -0.274  -0.201  -0.102
    1UNL    C18   22  -0.145  -0.227  -0.131
    1UNL     O3   23  -0.109  -0.306  -0.217
    1UNL    C19   24  -0.037  -0.151  -0.062
    1UNL    C20   25   0.049  -0.075  -0.168
    1UNL    C21   26  -0.016   0.089  -0.004
    1UNL     H1   27   0.224  -0.309   0.201
    1UNL     H2   28   0.348  -0.365   0.078
    1UNL     H3   29   0.177  -0.416   0.067
    1UNL     H4   30   0.303  -0.035  -0.115
    1UNL     H5   31   0.388   0.170  -0.068
    1UNL     H6   32   0.314   0.173   0.097
    1UNL     H7   33   0.446   0.051   0.042
    1UNL     H8   34   0.153   0.192  -0.277
    1UNL     H9   35   0.135   0.408  -0.129
    1UNL    H10   36   0.180   0.296   0.124
    1UNL    H11   37   0.051   0.402   0.087
    1UNL    H12   38   0.019   0.149   0.322
    1UNL    H13   39   0.152   0.085   0.233
    1UNL    H14   40   0.053  -0.126   0.193
    1UNL    H15   41  -0.101  -0.065   0.263
    1UNL    H16   42  -0.211   0.155   0.171
    1UNL    H17   43  -0.461   0.196   0.194
    1UNL    H18   44  -0.612   0.059   0.073
    1UNL    H19   45  -0.527  -0.140  -0.052
    1UNL    H20   46  -0.340  -0.268  -0.146
    1UNL    H21   47   0.012  -0.221   0.004
    1UNL    H22   48   0.133  -0.142  -0.195
    1UNL    H23   49  -0.009  -0.057  -0.264
    1UNL    H24   50  -0.090   0.148  -0.057
   0.00000   0.00000   0.00000   0.00000   0.00000   0.00000   0.00000   0.00000   0.00000
Generated with MDTraj, t= 20.0
 50
    1UNL     C1    1   0.245  -0.330   0.108
    1UNL     O1    2   0.249  -0.240   0.004
    1UNL     C2    3   0.262  -0.116   0.064
    1UNL     O2    4   0.285  -0.092   0.182
    1UNL     C3    5   0.253   0.005  -0.030
    1UNL     C4    6   0.347   0.107   0.023
    1UNL     C5    7   0.106   0.058  -0.089
    1UNL     C6    8   0.135   0.191  -0.160
    1UNL     C7    9   0.132   0.300  -0.088
    1UNL     C8   10   0.115   0.299   0.059
    1UNL     N1   11   0.016   0.188   0.099
    1UNL     C9   12   0.047   0.098   0.207
    1UNL    C10   13  -0.023  -0.036   0.185
    1UNL    C11   14  -0.090  -0.039   0.046
    1UNL    C12   15  -0.240  -0.016   0.051
    1UNL    C13   16  -0.291   0.094   0.124
    1UNL    C14   17  -0.423   0.113   0.146
    1UNL    C15   18  -0.510   0.025   0.081
    1UNL    C16   19  -0.465  -0.080   0.011
    1UNL    C17   20  -0.329  -0.102  -0.009
    1UNL     N2   21  -0.278  -0.206  -0.088
    1UNL    C18   22  -0.149  -0.222  -0.137
    1UNL     O3   23  -0.120  -0.295  -0.230
    1UNL    C19   24  -0.039  -0.144  -0.058
    1UNL    C20   25   0.046  -0.070  -0.164
    1UNL    C21   26  -0.018   0.094  -0.009
    1UNL     H1   27   0.145  -0.327   0.153
    1UNL     H2   28   0.308  -0.287   0.190
    1UNL     H3   29   0.286  -0.425   0.073
    1UNL     H4   30   0.308  -0.037  -0.116
    1UNL     H5   31   0.361   0.205  -0.041
    1UNL     H6   32   0.329   0.133   0.128
    1UNL     H7   33   0.446   0.070   0.021
    1UNL     H8   34   0.162   0.200  -0.258
    1UNL     H9   35   0.150   0.391  -0.142
    1UNL    H10   36   0.206   0.299   0.111
    1UNL    H11   37   0.059   0.387   0.103
    1UNL    H12   38   0.005   0.147   0.299
    1UNL    H13   39   0.149   0.094   0.230
    1UNL    H14   40   0.044  -0.121   0.198
    1UNL    H15   41  -0.107  -0.042   0.262
    1UNL    H16   42  -0.220   0.172   0.162
    1UNL    H17   43  -0.457   0.208   0.204
    1UNL    H18   44  -0.618   0.037   0.112
    1UNL    H19   45  -0.527  -0.139  -0.047
    1UNL    H20   46  -0.343  -0.261  -0.143
    1UNL    H21   47   0.030  -0.205  -0.004
    1UNL    H22   48   0.127  -0.131  -0.206
    1UNL    H23   49  -0.020  -0.031  -0.247
    1UNL    H24   50  -0.094   0.143  -0.071
   0.00000   0.00000   0.00000   0.00000   0.00000   0.00000   0.00000   0.00000   0.00000
Generated with MDTraj, t= 21.0
 50
    1UNL     C1    1   0.263  -0.327   0.095
    1UNL     O1    2   0.247  -0.235  -0.004
    1UNL     C2    3   0.240  -0.115   0.063
    1UNL     O2    4   0.238  -0.092   0.181
    1UNL     C3    5   0.253   0.002  -0.036
    1UNL     C4    6   0.344   0.109   0.027
    1UNL     C5    7   0.122   0.051  -0.097
    1UNL     C6    8   0.144   0.187  -0.169
    1UNL     C7    9   0.140   0.296  -0.088
    1UNL     C8   10   0.096   0.307   0.053
    1UNL     N1   11   0.022   0.178   0.103
    1UNL     C9   12   0.028   0.099   0.226
    1UNL    C10   13  -0.034  -0.046   0.192
    1UNL    C11   14  -0.081  -0.035   0.040
    1UNL    C12   15  -0.229  -0.005   0.046
    1UNL    C13   16  -0.278   0.094   0.125
    1UNL    C14   17  -0.419   0.119   0.147
    1UNL    C15   18  -0.506   0.022   0.099
    1UNL    C16   19  -0.457  -0.077   0.018
    1UNL    C17   20  -0.320  -0.100  -0.005
    1UNL     N2   21  -0.278  -0.195  -0.093
    1UNL    C18   22  -0.145  -0.221  -0.133
    1UNL     O3   23  -0.116  -0.301  -0.219
    1UNL    C19   24  -0.037  -0.148  -0.063
    1UNL    C20   25   0.049  -0.072  -0.168
    1UNL    C21   26  -0.005   0.090  -0.013
    1UNL     H1   27   0.171  -0.324   0.156
    1UNL     H2   28   0.334  -0.288   0.171
    1UNL     H3   29   0.293  -0.414   0.037
    1UNL     H4   30   0.317  -0.041  -0.117
    1UNL     H5   31   0.379   0.187  -0.049
    1UNL     H6   32   0.294   0.160   0.113
    1UNL     H7   33   0.434   0.074   0.073
    1UNL     H8   34   0.179   0.179  -0.275
    1UNL     H9   35   0.151   0.394  -0.133
    1UNL    H10   36   0.169   0.342   0.127
    1UNL    H11   37   0.017   0.384   0.067
    1UNL    H12   38  -0.031   0.155   0.303
    1UNL    H13   39   0.125   0.113   0.266
    1UNL    H14   40   0.047  -0.119   0.213
    1UNL    H15   41  -0.124  -0.075   0.251
    1UNL    H16   42  -0.218   0.173   0.155
    1UNL    H17   43  -0.453   0.191   0.210
    1UNL    H18   44  -0.603   0.021   0.128
    1UNL    H19   45  -0.532  -0.155  -0.019
    1UNL    H20   46  -0.340  -0.228  -0.163
    1UNL    H21   47   0.026  -0.224  -0.019
    1UNL    H22   48   0.131  -0.141  -0.200
    1UNL    H23   49  -0.026  -0.048  -0.249
    1UNL    H24   50  -0.078   0.138  -0.081
   0.00000   0.00000   0.00000   0.00000   0.00000   0.00000   0.00000   0.00000   0.00000
Generated with MDTraj, t= 22.0
 50
    1UNL     C1    1   0.255  -0.352   0.071
    1UNL     O1    2   0.251  -0.233  -0.013
    1UNL     C2    3   0.255  -0.118   0.066
    1UNL     O2    4   0.257  -0.122   0.185
    1UNL     C3    5   0.254   0.008  -0.022
    1UNL     C4    6   0.352   0.109   0.043
    1UNL     C5    7   0.112   0.057  -0.092
    1UNL     C6    8   0.144   0.184  -0.168
    1UNL     C7    9   0.132   0.295  -0.097
    1UNL     C8   10   0.086   0.313   0.046
    1UNL     N1   11   0.015   0.189   0.098
    1UNL     C9   12   0.048   0.107   0.212
    1UNL    C10   13  -0.020  -0.032   0.192
    1UNL    C11   14  -0.083  -0.022   0.048
    1UNL    C12   15  -0.237  -0.005   0.058
    1UNL    C13   16  -0.292   0.095   0.131
    1UNL    C14   17  -0.433   0.106   0.140
    1UNL    C15   18  -0.517   0.022   0.072
    1UNL    C16   19  -0.464  -0.084   0.006
    1UNL    C17   20  -0.322  -0.099   0.002
    1UNL     N2   21  -0.275  -0.192  -0.090
    1UNL    C18   22  -0.142  -0.217  -0.122
    1UNL     O3   23  -0.114  -0.304  -0.198
    1UNL    C19   24  -0.038  -0.133  -0.057
    1UNL    C20   25   0.056  -0.065  -0.168
    1UNL    C21   26  -0.015   0.096  -0.015
    1UNL     H1   27   0.202  -0.326   0.163
    1UNL     H2   28   0.356  -0.373   0.106
    1UNL     H3   29   0.214  -0.432   0.013
    1UNL     H4   30   0.320  -0.024  -0.109
    1UNL     H5   31   0.346   0.204  -0.005
    1UNL     H6   32   0.341   0.107   0.157
    1UNL     H7   33   0.457   0.073   0.030
    1UNL     H8   34   0.191   0.193  -0.263
    1UNL     H9   35   0.155   0.387  -0.150
    1UNL    H10   36   0.178   0.323   0.115
    1UNL    H11   37   0.023   0.402   0.056
    1UNL    H12   38   0.019   0.158   0.306
    1UNL    H13   39   0.155   0.102   0.222
    1UNL    H14   40   0.063  -0.111   0.187
    1UNL    H15   41  -0.088  -0.055   0.276
    1UNL    H16   42  -0.232   0.151   0.205
    1UNL    H17   43  -0.470   0.200   0.182
    1UNL    H18   44  -0.629   0.030   0.090
    1UNL    H19   45  -0.516  -0.166  -0.028
    1UNL    H20   46  -0.340  -0.265  -0.108
    1UNL    H21   47   0.017  -0.209  -0.007
    1UNL    H22   48   0.127  -0.148  -0.200
    1UNL    H23   49  -0.014  -0.022  -0.243
    1UNL    H24   50  -0.091   0.140  -0.085
   0.00000   0.00000   0.00000   0.00000   0.00000   0.00000   0.00000   0.00000   0.00000
Generated with MDTraj, t= 23.0
 50
    1UNL     C1    1   0.248  -0.342   0.058
    1UNL     O1    2   0.242  -0.228  -0.026
    1UNL     C2    3   0.251  -0.116   0.046
    1UNL     O2    4   0.254  -0.119   0.165
    1UNL     C3    5   0.244   0.010  -0.036
    1UNL     C4    6   0.338   0.107   0.045
    1UNL     C5    7   0.108   0.055  -0.094
    1UNL     C6    8   0.134   0.182  -0.168
    1UNL     C7    9   0.137   0.296  -0.095
    1UNL     C8   10   0.103   0.302   0.056
    1UNL     N1   11   0.022   0.190   0.105
    1UNL     C9   12   0.031   0.111   0.229
    1UNL    C10   13  -0.033  -0.028   0.208
    1UNL    C11   14  -0.081  -0.025   0.057
    1UNL    C12   15  -0.230  -0.000   0.051
    1UNL    C13   16  -0.289   0.100   0.125
    1UNL    C14   17  -0.425   0.115   0.133
    1UNL    C15   18  -0.509   0.025   0.071
    1UNL    C16   19  -0.458  -0.080  -0.007
    1UNL    C17   20  -0.315  -0.095  -0.011
    1UNL     N2   21  -0.268  -0.208  -0.083
    1UNL    C18   22  -0.134  -0.226  -0.105
    1UNL     O3   23  -0.105  -0.321  -0.177
    1UNL    C19   24  -0.031  -0.137  -0.046
    1UNL    C20   25   0.054  -0.066  -0.169
    1UNL    C21   26  -0.015   0.097  -0.003
    1UNL     H1   27   0.166  -0.337   0.130
    1UNL     H2   28   0.347  -0.349   0.107
    1UNL     H3   29   0.230  -0.426  -0.006
    1UNL     H4   30   0.307  -0.011  -0.128
    1UNL     H5   31   0.333   0.199  -0.003
    1UNL     H6   32   0.305   0.112   0.146
    1UNL     H7   33   0.453   0.081   0.052
    1UNL     H8   34   0.127   0.189  -0.275
    1UNL     H9   35   0.158   0.393  -0.135
    1UNL    H10   36   0.207   0.316   0.109
    1UNL    H11   37   0.036   0.387   0.068
    1UNL    H12   38  -0.006   0.170   0.313
    1UNL    H13   39   0.134   0.086   0.264
    1UNL    H14   40   0.045  -0.110   0.221
    1UNL    H15   41  -0.114  -0.046   0.282
    1UNL    H16   42  -0.226   0.169   0.181
    1UNL    H17   43  -0.471   0.216   0.177
    1UNL    H18   44  -0.612   0.034   0.078
    1UNL    H19   45  -0.527  -0.157  -0.046
    1UNL    H20   46  -0.333  -0.262  -0.142
    1UNL    H21   47   0.042  -0.196   0.002
    1UNL    H22   48   0.147  -0.125  -0.198
    1UNL    H23   49  -0.014  -0.036  -0.250
    1UNL    H24   50  -0.091   0.155  -0.060
   0.00000   0.00000   0.00000   0.00000   0.00000   0.00000   0.00000   0.00000   0.00000
Generated with MDTraj, t= 24.0
 50
    1UNL     C1    1   0.264  -0.347   0.052
    1UNL     O1    2   0.261  -0.232  -0.030
    1UNL     C2    3   0.247  -0.118   0.044
    1UNL     O2    4   0.245  -0.118   0.166
    1UNL     C3    5   0.241   0.011  -0.040
    1UNL     C4    6   0.341   0.109   0.022
    1UNL     C5    7   0.104   0.063  -0.090
    1UNL     C6    8   0.138   0.196  -0.151
    1UNL     C7    9   0.135   0.308  -0.076
    1UNL     C8   10   0.084   0.314   0.072
    1UNL     N1   11   0.006   0.191   0.110
    1UNL     C9   12   0.050   0.097   0.224
    1UNL    C10   13  -0.035  -0.041   0.203
    1UNL    C11   14  -0.080  -0.034   0.051
    1UNL    C12   15  -0.230  -0.005   0.047
    1UNL    C13   16  -0.284   0.107   0.117
    1UNL    C14   17  -0.420   0.131   0.119
    1UNL    C15   18  -0.506   0.040   0.063
    1UNL    C16   19  -0.458  -0.074  -0.004
    1UNL    C17   20  -0.324  -0.097  -0.009
    1UNL     N2   21  -0.269  -0.207  -0.080
    1UNL    C18   22  -0.135  -0.236  -0.098
    1UNL     O3   23  -0.108  -0.343  -0.155
    1UNL    C19   24  -0.028  -0.147  -0.051
    1UNL    C20   25   0.043  -0.063  -0.164
    1UNL    C21   26  -0.013   0.099  -0.006
    1UNL     H1   27   0.161  -0.361   0.092
    1UNL     H2   28   0.347  -0.334   0.125
    1UNL     H3   29   0.276  -0.440  -0.002
    1UNL     H4   30   0.298  -0.022  -0.131
    1UNL     H5   31   0.405   0.162  -0.048
    1UNL     H6   32   0.301   0.182   0.085
    1UNL     H7   33   0.413   0.061   0.098
    1UNL     H8   34   0.176   0.196  -0.256
    1UNL     H9   35   0.174   0.404  -0.110
    1UNL    H10   36   0.175   0.314   0.147
    1UNL    H11   37   0.021   0.404   0.070
    1UNL    H12   38   0.035   0.142   0.320
    1UNL    H13   39   0.162   0.083   0.223
    1UNL    H14   40   0.012  -0.136   0.229
    1UNL    H15   41  -0.130  -0.034   0.264
    1UNL    H16   42  -0.219   0.186   0.133
    1UNL    H17   43  -0.456   0.215   0.160
    1UNL    H18   44  -0.614   0.067   0.063
    1UNL    H19   45  -0.529  -0.126  -0.064
    1UNL    H20   46  -0.334  -0.289  -0.089
    1UNL    H21   47   0.047  -0.199   0.003
    1UNL    H22   48   0.123  -0.121  -0.220
    1UNL    H23   49  -0.030  -0.016  -0.229
    1UNL    H24   50  -0.083   0.153  -0.075
   0.00000   0.00000   0.00000   0.00000   0.00000   0.00000   0.00000   0.00000   0.00000
Generated with MDTraj, t= 25.0
 50
    1UNL     C1    1   0.282  -0.339   0.053
    1UNL     O1    2   0.270  -0.231  -0.033
    1UNL     C2    3   0.254  -0.119   0.037
    1UNL     O2    4   0.252  -0.115   0.160
    1UNL     C3    5   0.246   0.012  -0.037
    1UNL     C4    6   0.344   0.111   0.032
    1UNL     C5    7   0.105   0.061  -0.088
    1UNL     C6    8   0.115   0.192  -0.161
    1UNL     C7    9   0.126   0.302  -0.090
    1UNL     C8   10   0.116   0.296   0.062
    1UNL     N1   11   0.029   0.185   0.115
    1UNL     C9   12   0.042   0.095   0.235
    1UNL    C10   13  -0.028  -0.033   0.206
    1UNL    C11   14  -0.089  -0.027   0.061
    1UNL    C12   15  -0.243  -0.009   0.065
    1UNL    C13   16  -0.296   0.111   0.124
    1UNL    C14   17  -0.431   0.130   0.113
    1UNL    C15   18  -0.508   0.044   0.040
    1UNL    C16   19  -0.459  -0.072  -0.014
    1UNL    C17   20  -0.328  -0.095  -0.008
    1UNL     N2   21  -0.274  -0.207  -0.080
    1UNL    C18   22  -0.141  -0.242  -0.099
    1UNL     O3   23  -0.110  -0.340  -0.168
    1UNL    C19   24  -0.036  -0.145  -0.042
    1UNL    C20   25   0.037  -0.061  -0.149
    1UNL    C21   26  -0.015   0.097   0.004
    1UNL     H1   27   0.182  -0.360   0.099
    1UNL     H2   28   0.371  -0.321   0.118
    1UNL     H3   29   0.298  -0.433   0.001
    1UNL     H4   30   0.308  -0.017  -0.124
    1UNL     H5   31   0.360   0.198  -0.036
    1UNL     H6   32   0.315   0.137   0.134
    1UNL     H7   33   0.446   0.075   0.052
    1UNL     H8   34   0.120   0.198  -0.264
    1UNL     H9   35   0.135   0.395  -0.140
    1UNL    H10   36   0.223   0.281   0.094
    1UNL    H11   37   0.075   0.387   0.111
    1UNL    H12   38  -0.007   0.146   0.314
    1UNL    H13   39   0.152   0.086   0.264
    1UNL    H14   40   0.037  -0.117   0.224
    1UNL    H15   41  -0.120  -0.041   0.276
    1UNL    H16   42  -0.225   0.179   0.179
    1UNL    H17   43  -0.473   0.218   0.150
    1UNL    H18   44  -0.614   0.055   0.041
    1UNL    H19   45  -0.524  -0.135  -0.076
    1UNL    H20   46  -0.331  -0.243  -0.156
    1UNL    H21   47   0.033  -0.197   0.020
    1UNL    H22   48   0.107  -0.134  -0.201
    1UNL    H23   49  -0.037  -0.028  -0.220
    1UNL    H24   50  -0.089   0.159  -0.050
   0.00000   0.00000   0.00000   0.00000   0.00000   0.00000   0.00000   0.00000   0.00000
Generated with MDTraj, t= 26.0
 50
    1UNL     C1    1   0.281  -0.349   0.056
    1UNL     O1    2   0.272  -0.237  -0.029
    1UNL     C2    3   0.252  -0.122   0.044
    1UNL     O2    4   0.231  -0.121   0.166
    1UNL     C3    5   0.248   0.010  -0.033
    1UNL     C4    6   0.354   0.113   0.028
    1UNL     C5    7   0.113   0.057  -0.092
    1UNL     C6    8   0.133   0.197  -0.157
    1UNL     C7    9   0.115   0.309  -0.086
    1UNL     C8   10   0.083   0.317   0.057
    1UNL     N1   11   0.015   0.192   0.110
    1UNL     C9   12   0.034   0.097   0.225
    1UNL    C10   13  -0.029  -0.040   0.195
    1UNL    C11   14  -0.086  -0.036   0.053
    1UNL    C12   15  -0.235  -0.009   0.068
    1UNL    C13   16  -0.287   0.104   0.135
    1UNL    C14   17  -0.419   0.129   0.125
    1UNL    C15   18  -0.506   0.048   0.058
    1UNL    C16   19  -0.454  -0.058  -0.011
    1UNL    C17   20  -0.318  -0.089  -0.008
    1UNL     N2   21  -0.273  -0.197  -0.090
    1UNL    C18   22  -0.141  -0.242  -0.105
    1UNL     O3   23  -0.107  -0.342  -0.164
    1UNL    C19   24  -0.031  -0.147  -0.049
    1UNL    C20   25   0.043  -0.069  -0.158
    1UNL    C21   26  -0.014   0.092  -0.004
    1UNL     H1   27   0.199  -0.342   0.129
    1UNL     H2   28   0.380  -0.349   0.104
    1UNL     H3   29   0.265  -0.446   0.012
    1UNL     H4   30   0.309  -0.019  -0.118
    1UNL     H5   31   0.360   0.205  -0.037
    1UNL     H6   32   0.329   0.134   0.137
    1UNL     H7   33   0.450   0.074   0.030
    1UNL     H8   34   0.149   0.189  -0.269
    1UNL     H9   35   0.139   0.405  -0.135
    1UNL    H10   36   0.162   0.339   0.129
    1UNL    H11   37   0.007   0.400   0.066
    1UNL    H12   38  -0.003   0.150   0.309
    1UNL    H13   39   0.146   0.085   0.232
    1UNL    H14   40   0.047  -0.116   0.201
    1UNL    H15   41  -0.112  -0.071   0.269
    1UNL    H16   42  -0.226   0.172   0.188
    1UNL    H17   43  -0.474   0.206   0.199
    1UNL    H18   44  -0.612   0.073   0.038
    1UNL    H19   45  -0.524  -0.134  -0.041
    1UNL    H20   46  -0.338  -0.270  -0.103
    1UNL    H21   47   0.045  -0.203   0.003
    1UNL    H22   48   0.113  -0.142  -0.211
    1UNL    H23   49  -0.027  -0.053  -0.240
    1UNL    H24   50  -0.089   0.149  -0.060
   0.00000   0.00000   0.00000   0.00000   0.00000   0.00000   0.00000   0.00000   0.00000
Generated with MDTraj, t= 27.0
 50
    1UNL     C1    1   0.265  -0.340   0.052
    1UNL     O1    2   0.251  -0.230  -0.025
    1UNL     C2    3   0.257  -0.117   0.049
    1UNL     O2    4   0.256  -0.113   0.172
    1UNL     C3    5   0.253   0.009  -0.033
    1UNL     C4    6   0.332   0.119   0.035
    1UNL     C5    7   0.109   0.055  -0.089
    1UNL     C6    8   0.138   0.182  -0.170
    1UNL     C7    9   0.144   0.294  -0.096
    1UNL     C8   10   0.092   0.312   0.053
    1UNL     N1   11   0.037   0.185   0.106
    1UNL     C9   12   0.031   0.106   0.236
    1UNL    C10   13  -0.033  -0.037   0.193
    1UNL    C11   14  -0.090  -0.033   0.050
    1UNL    C12   15  -0.239  -0.008   0.063
    1UNL    C13   16  -0.295   0.098   0.129
    1UNL    C14   17  -0.430   0.121   0.142
    1UNL    C15   18  -0.512   0.038   0.070
    1UNL    C16   19  -0.460  -0.070   0.005
    1UNL    C17   20  -0.322  -0.086  -0.020
    1UNL     N2   21  -0.271  -0.196  -0.095
    1UNL    C18   22  -0.137  -0.236  -0.111
    1UNL     O3   23  -0.112  -0.330  -0.178
    1UNL    C19   24  -0.035  -0.144  -0.047
    1UNL    C20   25   0.057  -0.075  -0.153
    1UNL    C21   26  -0.014   0.094  -0.007
    1UNL     H1   27   0.173  -0.356   0.108
    1UNL     H2   28   0.344  -0.325   0.128
    1UNL     H3   29   0.296  -0.425  -0.005
    1UNL     H4   30   0.316  -0.019  -0.116
    1UNL     H5   31   0.343   0.216  -0.024
    1UNL     H6   32   0.287   0.136   0.134
    1UNL     H7   33   0.432   0.094   0.048
    1UNL     H8   34   0.175   0.179  -0.266
    1UNL     H9   35   0.179   0.377  -0.153
    1UNL    H10   36   0.161   0.346   0.122
    1UNL    H11   37  -0.000   0.380   0.061
    1UNL    H12   38  -0.030   0.161   0.307
    1UNL    H13   39   0.134   0.099   0.273
    1UNL    H14   40   0.047  -0.113   0.187
    1UNL    H15   41  -0.106  -0.078   0.268
    1UNL    H16   42  -0.232   0.162   0.189
    1UNL    H17   43  -0.475   0.199   0.201
    1UNL    H18   44  -0.620   0.049   0.084
    1UNL    H19   45  -0.521  -0.150  -0.031
    1UNL    H20   46  -0.340  -0.243  -0.149
    1UNL    H21   47   0.031  -0.207   0.012
    1UNL    H22   48   0.134  -0.147  -0.193
    1UNL    H23   49   0.004  -0.056  -0.248
    1UNL    H24   50  -0.085   0.158  -0.059
   0.00000   0.00000   0.00000   0.00000   0.00000   0.00000   0.00000   0.00000   0.00000
Generated with MDTraj, t= 28.0
 50
    1UNL     C1    1   0.247  -0.345   0.074
    1UNL     O1    2   0.250  -0.242  -0.016
    1UNL     C2    3   0.247  -0.123   0.056
    1UNL     O2    4   0.252  -0.120   0.176
    1UNL     C3    5   0.239   0.009  -0.023
    1UNL     C4    6   0.344   0.104   0.041
    1UNL     C5    7   0.103   0.059  -0.092
    1UNL     C6    8   0.130   0.185  -0.167
    1UNL     C7    9   0.128   0.299  -0.095
    1UNL     C8   10   0.102   0.306   0.053
    1UNL     N1   11   0.007   0.205   0.102
    1UNL     C9   12   0.042   0.112   0.211
    1UNL    C10   13  -0.022  -0.021   0.189
    1UNL    C11   14  -0.081  -0.027   0.047
    1UNL    C12   15  -0.232  -0.012   0.057
    1UNL    C13   16  -0.283   0.091   0.132
    1UNL    C14   17  -0.420   0.116   0.147
    1UNL    C15   18  -0.503   0.029   0.079
    1UNL    C16   19  -0.458  -0.080   0.013
    1UNL    C17   20  -0.317  -0.097  -0.012
    1UNL     N2   21  -0.269  -0.203  -0.080
    1UNL    C18   22  -0.137  -0.226  -0.126
    1UNL     O3   23  -0.099  -0.309  -0.201
    1UNL    C19   24  -0.035  -0.143  -0.057
    1UNL    C20   25   0.058  -0.070  -0.164
    1UNL    C21   26  -0.028   0.101  -0.010
    1UNL     H1   27   0.170  -0.328   0.150
    1UNL     H2   28   0.337  -0.345   0.140
    1UNL     H3   29   0.254  -0.443   0.027
    1UNL     H4   30   0.290  -0.021  -0.114
    1UNL     H5   31   0.361   0.202  -0.009
    1UNL     H6   32   0.317   0.132   0.137
    1UNL     H7   33   0.446   0.068   0.048
    1UNL     H8   34   0.168   0.178  -0.271
    1UNL     H9   35   0.140   0.397  -0.141
    1UNL    H10   36   0.191   0.302   0.105
    1UNL    H11   37   0.046   0.403   0.074
    1UNL    H12   38   0.004   0.152   0.307
    1UNL    H13   39   0.146   0.108   0.219
    1UNL    H14   40   0.050  -0.105   0.211
    1UNL    H15   41  -0.105  -0.042   0.258
    1UNL    H16   42  -0.215   0.170   0.162
    1UNL    H17   43  -0.457   0.193   0.198
    1UNL    H18   44  -0.604   0.059   0.072
    1UNL    H19   45  -0.527  -0.145  -0.044
    1UNL    H20   46  -0.335  -0.257  -0.136
    1UNL    H21   47   0.015  -0.218   0.007
    1UNL    H22   48   0.148  -0.133  -0.181
    1UNL    H23   49   0.008  -0.063  -0.263
    1UNL    H24   50  -0.112   0.147  -0.063
   0.00000   0.00000   0.00000   0.00000   0.00000   0.00000   0.00000   0.00000   0.00000
Generated with MDTraj, t= 29.0
 50
    1UNL     C1    1   0.240  -0.329   0.090
    1UNL     O1    2   0.242  -0.231  -0.007
    1UNL     C2    3   0.252  -0.110   0.060
    1UNL     O2    4   0.258  -0.099   0.178
    1UNL     C3    5   0.262   0.007  -0.036
    1UNL     C4    6   0.347   0.109   0.029
    1UNL     C5    7   0.114   0.059  -0.095
    1UNL     C6    8   0.138   0.192  -0.170
    1UNL     C7    9   0.145   0.301  -0.094
    1UNL     C8   10   0.106   0.303   0.059
    1UNL     N1   11   0.031   0.184   0.109
    1UNL     C9   12   0.045   0.097   0.224
    1UNL    C10   13  -0.030  -0.041   0.187
    1UNL    C11   14  -0.086  -0.026   0.041
    1UNL    C12   15  -0.237  -0.007   0.046
    1UNL    C13   16  -0.285   0.100   0.119
    1UNL    C14   17  -0.424   0.109   0.138
    1UNL    C15   18  -0.508   0.009   0.094
    1UNL    C16   19  -0.461  -0.091   0.020
    1UNL    C17   20  -0.323  -0.101  -0.008
    1UNL     N2   21  -0.276  -0.206  -0.084
    1UNL    C18   22  -0.146  -0.219  -0.130
    1UNL     O3   23  -0.122  -0.307  -0.210
    1UNL    C19   24  -0.045  -0.140  -0.060
    1UNL    C20   25   0.054  -0.073  -0.161
    1UNL    C21   26  -0.009   0.099  -0.010
    1UNL     H1   27   0.192  -0.291   0.182
    1UNL     H2   28   0.341  -0.345   0.137
    1UNL     H3   29   0.217  -0.429   0.055
    1UNL     H4   30   0.318  -0.035  -0.119
    1UNL     H5   31   0.405   0.166  -0.037
    1UNL     H6   32   0.283   0.175   0.083
    1UNL     H7   33   0.421   0.061   0.095
    1UNL     H8   34   0.137   0.205  -0.279
    1UNL     H9   35   0.144   0.397  -0.142
    1UNL    H10   36   0.186   0.325   0.124
    1UNL    H11   37   0.031   0.387   0.065
    1UNL    H12   38  -0.006   0.153   0.303
    1UNL    H13   39   0.146   0.087   0.246
    1UNL    H14   40   0.039  -0.128   0.210
    1UNL    H15   41  -0.117  -0.058   0.251
    1UNL    H16   42  -0.221   0.178   0.149
    1UNL    H17   43  -0.460   0.207   0.193
    1UNL    H18   44  -0.617   0.038   0.086
    1UNL    H19   45  -0.527  -0.153  -0.037
    1UNL    H20   46  -0.328  -0.287  -0.128
    1UNL    H21   47   0.005  -0.215   0.006
    1UNL    H22   48   0.131  -0.148  -0.183
    1UNL    H23   49   0.000  -0.031  -0.252
    1UNL    H24   50  -0.081   0.157  -0.069
   0.00000   0.00000   0.00000   0.00000   0.00000   0.00000   0.00000   0.00000   0.00000
Generated with MDTraj, t= 30.0
 50
    1UNL     C1    1   0.249  -0.330   0.102
    1UNL     O1    2   0.221  -0.238   0.012
    1UNL     C2    3   0.248  -0.113   0.066
    1UNL     O2    4   0.267  -0.099   0.183
    1UNL     C3    5   0.250   0.006  -0.031
    1UNL     C4    6   0.365   0.104   0.014
    1UNL     C5    7   0.113   0.053  -0.094
    1UNL     C6    8   0.134   0.190  -0.159
    1UNL     C7    9   0.129   0.304  -0.089
    1UNL     C8   10   0.095   0.315   0.056
    1UNL     N1   11   0.014   0.191   0.101
    1UNL     C9   12   0.041   0.100   0.221
    1UNL    C10   13  -0.020  -0.042   0.187
    1UNL    C11   14  -0.081  -0.035   0.042
    1UNL    C12   15  -0.224  -0.014   0.051
    1UNL    C13   16  -0.281   0.094   0.119
    1UNL    C14   17  -0.418   0.111   0.139
    1UNL    C15   18  -0.504   0.023   0.081
    1UNL    C16   19  -0.456  -0.089   0.016
    1UNL    C17   20  -0.319  -0.105  -0.004
    1UNL     N2   21  -0.278  -0.207  -0.087
    1UNL    C18   22  -0.146  -0.222  -0.125
    1UNL     O3   23  -0.123  -0.298  -0.220
    1UNL    C19   24  -0.037  -0.139  -0.064
    1UNL    C20   25   0.047  -0.065  -0.175
    1UNL    C21   26  -0.014   0.094  -0.013
    1UNL     H1   27   0.173  -0.336   0.182
    1UNL     H2   28   0.338  -0.308   0.165
    1UNL     H3   29   0.266  -0.424   0.050
    1UNL     H4   30   0.293  -0.036  -0.123
    1UNL     H5   31   0.328   0.193   0.051
    1UNL     H6   32   0.414   0.054   0.101
    1UNL     H7   33   0.429   0.117  -0.075
    1UNL     H8   34   0.170   0.189  -0.256
    1UNL     H9   35   0.158   0.401  -0.131
    1UNL    H10   36   0.191   0.321   0.109
    1UNL    H11   37   0.036   0.402   0.082
    1UNL    H12   38  -0.004   0.148   0.308
    1UNL    H13   39   0.146   0.092   0.237
    1UNL    H14   40   0.062  -0.117   0.187
    1UNL    H15   41  -0.086  -0.076   0.268
    1UNL    H16   42  -0.222   0.155   0.194
    1UNL    H17   43  -0.457   0.203   0.190
    1UNL    H18   44  -0.604   0.041   0.095
    1UNL    H19   45  -0.525  -0.157  -0.032
    1UNL    H20   46  -0.347  -0.226  -0.163
    1UNL    H21   47   0.036  -0.210  -0.017
    1UNL    H22   48   0.130  -0.127  -0.212
    1UNL    H23   49  -0.025  -0.025  -0.254
    1UNL    H24   50  -0.088   0.140  -0.081
   0.00000   0.00000   0.00000   0.00000   0.00000   0.00000   0.00000   0.00000   0.00000
Generated with MDTraj, t= 31.0
 50
    1UNL     C1    1   0.240  -0.321   0.111
    1UNL     O1    2   0.255  -0.231   0.008
    1UNL     C2    3   0.252  -0.106   0.060
    1UNL     O2    4   0.258  -0.095   0.180
    1UNL     C3    5   0.254   0.013  -0.033
    1UNL     C4    6   0.353   0.114   0.016
    1UNL     C5    7   0.109   0.055  -0.096
    1UNL     C6    8   0.135   0.187  -0.170
    1UNL     C7    9   0.129   0.297  -0.098
    1UNL     C8   10   0.108   0.289   0.051
    1UNL     N1   11   0.014   0.177   0.104
    1UNL     C9   12   0.049   0.089   0.216
    1UNL    C10   13  -0.020  -0.043   0.194
    1UNL    C11   14  -0.084  -0.033   0.051
    1UNL    C12   15  -0.231  -0.015   0.054
    1UNL    C13   16  -0.283   0.083   0.134
    1UNL    C14   17  -0.417   0.112   0.140
    1UNL    C15   18  -0.509   0.027   0.085
    1UNL    C16   19  -0.464  -0.073  -0.001
    1UNL    C17   20  -0.326  -0.098  -0.005
    1UNL     N2   21  -0.279  -0.192  -0.105
    1UNL    C18   22  -0.143  -0.219  -0.126
    1UNL     O3   23  -0.120  -0.299  -0.222
    1UNL    C19   24  -0.034  -0.144  -0.050
    1UNL    C20   25   0.049  -0.073  -0.161
    1UNL    C21   26  -0.019   0.094  -0.011
    1UNL     H1   27   0.158  -0.295   0.179
    1UNL     H2   28   0.322  -0.316   0.184
    1UNL     H3   29   0.221  -0.423   0.082
    1UNL     H4   30   0.297  -0.030  -0.127
    1UNL     H5   31   0.351   0.127   0.128
    1UNL     H6   32   0.457   0.080   0.007
    1UNL     H7   33   0.343   0.208  -0.038
    1UNL     H8   34   0.113   0.194  -0.282
    1UNL     H9   35   0.149   0.390  -0.150
    1UNL    H10   36   0.203   0.273   0.111
    1UNL    H11   37   0.069   0.381   0.082
    1UNL    H12   38   0.018   0.133   0.307
    1UNL    H13   39   0.158   0.080   0.223
    1UNL    H14   40   0.054  -0.119   0.192
    1UNL    H15   41  -0.086  -0.075   0.279
    1UNL    H16   42  -0.222   0.144   0.189
    1UNL    H17   43  -0.451   0.167   0.214
    1UNL    H18   44  -0.621   0.033   0.097
    1UNL    H19   45  -0.532  -0.140  -0.049
    1UNL    H20   46  -0.346  -0.266  -0.122
    1UNL    H21   47   0.030  -0.222   0.000
    1UNL    H22   48   0.121  -0.147  -0.197
    1UNL    H23   49  -0.025  -0.038  -0.240
    1UNL    H24   50  -0.093   0.148  -0.074
   0.00000   0.00000   0.00000   0.00000   0.00000   0.00000   0.00000   0.00000   0.00000
Generated with MDTraj, t= 32.0
 50
    1UNL     C1    1   0.281  -0.331   0.092
    1UNL     O1    2   0.237  -0.238   0.002
    1UNL     C2    3   0.247  -0.113   0.060
    1UNL     O2    4   0.273  -0.105   0.180
    1UNL     C3    5   0.246   0.005  -0.032
    1UNL     C4    6   0.339   0.112   0.019
    1UNL     C5    7   0.111   0.050  -0.095
    1UNL     C6    8   0.143   0.183  -0.160
    1UNL     C7    9   0.141   0.300  -0.093
    1UNL     C8   10   0.085   0.307   0.046
    1UNL     N1   11   0.007   0.185   0.095
    1UNL     C9   12   0.034   0.101   0.222
    1UNL    C10   13  -0.023  -0.049   0.194
    1UNL    C11   14  -0.079  -0.035   0.047
    1UNL    C12   15  -0.236  -0.007   0.055
    1UNL    C13   16  -0.285   0.095   0.141
    1UNL    C14   17  -0.419   0.105   0.150
    1UNL    C15   18  -0.514   0.027   0.089
    1UNL    C16   19  -0.461  -0.060  -0.010
    1UNL    C17   20  -0.324  -0.082  -0.022
    1UNL     N2   21  -0.278  -0.189  -0.105
    1UNL    C18   22  -0.150  -0.221  -0.120
    1UNL     O3   23  -0.115  -0.317  -0.190
    1UNL    C19   24  -0.034  -0.144  -0.060
    1UNL    C20   25   0.055  -0.071  -0.171
    1UNL    C21   26  -0.017   0.093  -0.013
    1UNL     H1   27   0.204  -0.358   0.166
    1UNL     H2   28   0.358  -0.289   0.157
    1UNL     H3   29   0.297  -0.432   0.054
    1UNL     H4   30   0.292  -0.041  -0.125
    1UNL     H5   31   0.311   0.146   0.126
    1UNL     H6   32   0.438   0.080   0.046
    1UNL     H7   33   0.349   0.199  -0.045
    1UNL     H8   34   0.185   0.174  -0.253
    1UNL     H9   35   0.186   0.386  -0.141
    1UNL    H10   36   0.181   0.310   0.110
    1UNL    H11   37   0.026   0.387   0.071
    1UNL    H12   38  -0.002   0.147   0.309
    1UNL    H13   39   0.143   0.094   0.242
    1UNL    H14   40   0.041  -0.132   0.217
    1UNL    H15   41  -0.113  -0.075   0.255
    1UNL    H16   42  -0.213   0.146   0.207
    1UNL    H17   43  -0.462   0.185   0.222
    1UNL    H18   44  -0.605   0.001   0.133
    1UNL    H19   45  -0.532  -0.112  -0.078
    1UNL    H20   46  -0.345  -0.225  -0.166
    1UNL    H21   47   0.030  -0.224  -0.011
    1UNL    H22   48   0.133  -0.141  -0.204
    1UNL    H23   49  -0.004  -0.037  -0.260
    1UNL    H24   50  -0.093   0.141  -0.079
   0.00000   0.00000   0.00000   0.00000   0.00000   0.00000   0.00000   0.00000   0.00000
Generated with MDTraj, t= 33.0
 50
    1UNL     C1    1   0.256  -0.333   0.066
    1UNL     O1    2   0.264  -0.225  -0.013
    1UNL     C2    3   0.256  -0.115   0.054
    1UNL     O2    4   0.240  -0.115   0.176
    1UNL     C3    5   0.254   0.007  -0.030
    1UNL     C4    6   0.344   0.118   0.026
    1UNL     C5    7   0.112   0.049  -0.090
    1UNL     C6    8   0.134   0.179  -0.162
    1UNL     C7    9   0.127   0.298  -0.101
    1UNL     C8   10   0.088   0.305   0.046
    1UNL     N1   11   0.025   0.182   0.102
    1UNL     C9   12   0.043   0.105   0.233
    1UNL    C10   13  -0.018  -0.031   0.206
    1UNL    C11   14  -0.080  -0.032   0.057
    1UNL    C12   15  -0.236  -0.009   0.059
    1UNL    C13   16  -0.294   0.090   0.140
    1UNL    C14   17  -0.428   0.110   0.149
    1UNL    C15   18  -0.508   0.036   0.065
    1UNL    C16   19  -0.461  -0.066  -0.014
    1UNL    C17   20  -0.327  -0.094  -0.010
    1UNL     N2   21  -0.270  -0.193  -0.094
    1UNL    C18   22  -0.142  -0.225  -0.118
    1UNL     O3   23  -0.116  -0.321  -0.188
    1UNL    C19   24  -0.027  -0.148  -0.049
    1UNL    C20   25   0.054  -0.073  -0.161
    1UNL    C21   26  -0.012   0.093  -0.007
    1UNL     H1   27   0.196  -0.327   0.156
    1UNL     H2   28   0.354  -0.357   0.108
    1UNL     H3   29   0.205  -0.416   0.016
    1UNL     H4   30   0.307  -0.027  -0.125
    1UNL     H5   31   0.305   0.139   0.125
    1UNL     H6   32   0.442   0.082   0.048
    1UNL     H7   33   0.344   0.212  -0.038
    1UNL     H8   34   0.171   0.168  -0.267
    1UNL     H9   35   0.156   0.387  -0.156
    1UNL    H10   36   0.173   0.326   0.115
    1UNL    H11   37   0.015   0.380   0.048
    1UNL    H12   38  -0.020   0.148   0.305
    1UNL    H13   39   0.147   0.101   0.271
    1UNL    H14   40   0.047  -0.116   0.225
    1UNL    H15   41  -0.103  -0.038   0.275
    1UNL    H16   42  -0.215   0.167   0.167
    1UNL    H17   43  -0.470   0.201   0.201
    1UNL    H18   44  -0.614   0.071   0.053
    1UNL    H19   45  -0.527  -0.107  -0.083
    1UNL    H20   46  -0.329  -0.261  -0.138
    1UNL    H21   47   0.036  -0.226   0.002
    1UNL    H22   48   0.130  -0.127  -0.222
    1UNL    H23   49  -0.011  -0.034  -0.242
    1UNL    H24   50  -0.085   0.145  -0.073
   0.00000   0.00000   0.00000   0.00000   0.00000   0.00000   0.00000   0.00000   0.00000
Generated with MDTraj, t= 34.0
 50
    1UNL     C1    1   0.259  -0.338   0.049
    1UNL     O1    2   0.257  -0.227  -0.033
    1UNL     C2    3   0.254  -0.117   0.048
    1UNL     O2    4   0.254  -0.130   0.171
    1UNL     C3    5   0.252   0.010  -0.024
    1UNL     C4    6   0.348   0.113   0.048
    1UNL     C5    7   0.107   0.056  -0.090
    1UNL     C6    8   0.131   0.189  -0.163
    1UNL     C7    9   0.118   0.303  -0.094
    1UNL     C8   10   0.104   0.303   0.058
    1UNL     N1   11   0.016   0.193   0.109
    1UNL     C9   12   0.043   0.112   0.233
    1UNL    C10   13  -0.023  -0.028   0.202
    1UNL    C11   14  -0.083  -0.032   0.055
    1UNL    C12   15  -0.233  -0.007   0.057
    1UNL    C13   16  -0.291   0.108   0.121
    1UNL    C14   17  -0.428   0.129   0.119
    1UNL    C15   18  -0.514   0.037   0.058
    1UNL    C16   19  -0.458  -0.074  -0.002
    1UNL    C17   20  -0.320  -0.100  -0.005
    1UNL     N2   21  -0.279  -0.207  -0.084
    1UNL    C18   22  -0.141  -0.239  -0.105
    1UNL     O3   23  -0.101  -0.333  -0.171
    1UNL    C19   24  -0.030  -0.143  -0.054
    1UNL    C20   25   0.042  -0.069  -0.164
    1UNL    C21   26  -0.014   0.096   0.002
    1UNL     H1   27   0.184  -0.332   0.129
    1UNL     H2   28   0.353  -0.344   0.108
    1UNL     H3   29   0.238  -0.441   0.013
    1UNL     H4   30   0.312  -0.017  -0.116
    1UNL     H5   31   0.324   0.103   0.147
    1UNL     H6   32   0.448   0.071   0.043
    1UNL     H7   33   0.344   0.221   0.012
    1UNL     H8   34   0.118   0.195  -0.271
    1UNL     H9   35   0.109   0.397  -0.148
    1UNL    H10   36   0.200   0.292   0.096
    1UNL    H11   37   0.051   0.389   0.091
    1UNL    H12   38   0.007   0.157   0.321
    1UNL    H13   39   0.151   0.100   0.238
    1UNL    H14   40   0.047  -0.114   0.212
    1UNL    H15   41  -0.103  -0.046   0.272
    1UNL    H16   42  -0.231   0.188   0.137
    1UNL    H17   43  -0.463   0.222   0.143
    1UNL    H18   44  -0.612   0.067   0.048
    1UNL    H19   45  -0.532  -0.151  -0.036
    1UNL    H20   46  -0.341  -0.270  -0.135
    1UNL    H21   47   0.039  -0.216  -0.003
    1UNL    H22   48   0.118  -0.120  -0.230
    1UNL    H23   49  -0.026  -0.039  -0.245
    1UNL    H24   50  -0.084   0.145  -0.069
   0.00000   0.00000   0.00000   0.00000   0.00000   0.00000   0.00000   0.00000   0.00000
Generated with MDTraj, t= 35.0
 50
    1UNL     C1    1   0.274  -0.338   0.041
    1UNL     O1    2   0.247  -0.234  -0.040
    1UNL     C2    3   0.252  -0.125   0.038
    1UNL     O2    4   0.252  -0.128   0.159
    1UNL     C3    5   0.254   0.003  -0.035
    1UNL     C4    6   0.336   0.108   0.038
    1UNL     C5    7   0.112   0.056  -0.092
    1UNL     C6    8   0.142   0.198  -0.153
    1UNL     C7    9   0.143   0.304  -0.069
    1UNL     C8   10   0.095   0.313   0.070
    1UNL     N1   11   0.021   0.187   0.105
    1UNL     C9   12   0.036   0.113   0.231
    1UNL    C10   13  -0.039  -0.023   0.200
    1UNL    C11   14  -0.092  -0.026   0.049
    1UNL    C12   15  -0.242  -0.005   0.055
    1UNL    C13   16  -0.289   0.113   0.105
    1UNL    C14   17  -0.426   0.132   0.109
    1UNL    C15   18  -0.509   0.039   0.054
    1UNL    C16   19  -0.462  -0.078   0.004
    1UNL    C17   20  -0.322  -0.098  -0.008
    1UNL     N2   21  -0.273  -0.221  -0.062
    1UNL    C18   22  -0.134  -0.243  -0.094
    1UNL     O3   23  -0.096  -0.335  -0.162
    1UNL    C19   24  -0.034  -0.136  -0.051
    1UNL    C20   25   0.039  -0.062  -0.162
    1UNL    C21   26  -0.022   0.094  -0.004
    1UNL     H1   27   0.192  -0.363   0.108
    1UNL     H2   28   0.362  -0.314   0.103
    1UNL     H3   29   0.305  -0.436  -0.003
    1UNL     H4   30   0.309  -0.020  -0.129
    1UNL     H5   31   0.276   0.156   0.121
    1UNL     H6   32   0.419   0.064   0.094
    1UNL     H7   33   0.378   0.191  -0.019
    1UNL     H8   34   0.186   0.199  -0.246
    1UNL     H9   35   0.180   0.397  -0.106
    1UNL    H10   36   0.173   0.320   0.134
    1UNL    H11   37   0.029   0.396   0.080
    1UNL    H12   38  -0.007   0.175   0.307
    1UNL    H13   39   0.140   0.094   0.250
    1UNL    H14   40   0.038  -0.104   0.203
    1UNL    H15   41  -0.119  -0.049   0.265
    1UNL    H16   42  -0.225   0.192   0.153
    1UNL    H17   43  -0.460   0.240   0.132
    1UNL    H18   44  -0.616   0.039   0.090
    1UNL    H19   45  -0.516  -0.168   0.006
    1UNL    H20   46  -0.338  -0.305  -0.071
    1UNL    H21   47   0.039  -0.203   0.005
    1UNL    H22   48   0.116  -0.119  -0.222
    1UNL    H23   49  -0.033  -0.036  -0.240
    1UNL    H24   50  -0.090   0.144  -0.075
   0.00000   0.00000   0.00000   0.00000   0.00000   0.00000   0.00000   0.00000   0.00000
Generated with MDTraj, t= 36.0
 50
    1UNL     C1    1   0.254  -0.340   0.029
    1UNL     O1    2   0.289  -0.228  -0.033
    1UNL     C2    3   0.252  -0.122   0.048
    1UNL     O2    4   0.217  -0.129   0.160
    1UNL     C3    5   0.255   0.007  -0.028
    1UNL     C4    6   0.345   0.115   0.035
    1UNL     C5    7   0.109   0.053  -0.088
    1UNL     C6    8   0.131   0.189  -0.164
    1UNL     C7    9   0.129   0.298  -0.090
    1UNL     C8   10   0.107   0.308   0.060
    1UNL     N1   11   0.019   0.189   0.114
    1UNL     C9   12   0.047   0.108   0.228
    1UNL    C10   13  -0.038  -0.015   0.210
    1UNL    C11   14  -0.083  -0.027   0.053
    1UNL    C12   15  -0.242  -0.004   0.054
    1UNL    C13   16  -0.295   0.100   0.115
    1UNL    C14   17  -0.436   0.131   0.115
    1UNL    C15   18  -0.514   0.037   0.060
    1UNL    C16   19  -0.463  -0.078   0.000
    1UNL    C17   20  -0.323  -0.099  -0.006
    1UNL     N2   21  -0.269  -0.205  -0.076
    1UNL    C18   22  -0.137  -0.236  -0.100
    1UNL     O3   23  -0.091  -0.323  -0.169
    1UNL    C19   24  -0.030  -0.146  -0.036
    1UNL    C20   25   0.050  -0.077  -0.153
    1UNL    C21   26  -0.012   0.096  -0.001
    1UNL     H1   27   0.180  -0.323   0.105
    1UNL     H2   28   0.342  -0.387   0.073
    1UNL     H3   29   0.220  -0.422  -0.038
    1UNL     H4   30   0.304  -0.020  -0.122
    1UNL     H5   31   0.301   0.162   0.132
    1UNL     H6   32   0.430   0.062   0.078
    1UNL     H7   33   0.385   0.193  -0.025
    1UNL     H8   34   0.153   0.192  -0.276
    1UNL     H9   35   0.138   0.391  -0.146
    1UNL    H10   36   0.190   0.332   0.118
    1UNL    H11   37   0.042   0.390   0.073
    1UNL    H12   38   0.020   0.162   0.316
    1UNL    H13   39   0.150   0.090   0.230
    1UNL    H14   40   0.024  -0.106   0.228
    1UNL    H15   41  -0.120  -0.018   0.278
    1UNL    H16   42  -0.236   0.183   0.152
    1UNL    H17   43  -0.480   0.209   0.170
    1UNL    H18   44  -0.617   0.045   0.068
    1UNL    H19   45  -0.521  -0.174   0.004
    1UNL    H20   46  -0.346  -0.268  -0.108
    1UNL    H21   47   0.036  -0.219   0.016
    1UNL    H22   48   0.130  -0.147  -0.189
    1UNL    H23   49  -0.015  -0.057  -0.237
    1UNL    H24   50  -0.073   0.152  -0.073
   0.00000   0.00000   0.00000   0.00000   0.00000   0.00000   0.00000   0.00000   0.00000
Generated with MDTraj, t= 37.0
 50
    1UNL     C1    1   0.292  -0.347   0.051
    1UNL     O1    2   0.264  -0.237  -0.034
    1UNL     C2    3   0.247  -0.130   0.052
    1UNL     O2    4   0.247  -0.134   0.170
    1UNL     C3    5   0.244   0.001  -0.025
    1UNL     C4    6   0.330   0.102   0.057
    1UNL     C5    7   0.112   0.059  -0.090
    1UNL     C6    8   0.138   0.194  -0.166
    1UNL     C7    9   0.130   0.307  -0.096
    1UNL     C8   10   0.107   0.308   0.051
    1UNL     N1   11   0.014   0.197   0.098
    1UNL     C9   12   0.032   0.124   0.225
    1UNL    C10   13  -0.023  -0.025   0.194
    1UNL    C11   14  -0.083  -0.025   0.049
    1UNL    C12   15  -0.236  -0.006   0.060
    1UNL    C13   16  -0.293   0.097   0.133
    1UNL    C14   17  -0.431   0.118   0.135
    1UNL    C15   18  -0.515   0.038   0.059
    1UNL    C16   19  -0.464  -0.072  -0.004
    1UNL    C17   20  -0.322  -0.096  -0.006
    1UNL     N2   21  -0.271  -0.204  -0.085
    1UNL    C18   22  -0.140  -0.226  -0.109
    1UNL     O3   23  -0.110  -0.332  -0.163
    1UNL    C19   24  -0.034  -0.140  -0.051
    1UNL    C20   25   0.051  -0.067  -0.164
    1UNL    C21   26  -0.018   0.101  -0.007
    1UNL     H1   27   0.258  -0.317   0.148
    1UNL     H2   28   0.396  -0.376   0.055
    1UNL     H3   29   0.240  -0.441   0.028
    1UNL     H4   30   0.297  -0.014  -0.119
    1UNL     H5   31   0.302   0.090   0.157
    1UNL     H6   32   0.436   0.070   0.045
    1UNL     H7   33   0.321   0.201   0.016
    1UNL     H8   34   0.149   0.192  -0.269
    1UNL     H9   35   0.115   0.401  -0.147
    1UNL    H10   36   0.201   0.305   0.104
    1UNL    H11   37   0.068   0.396   0.090
    1UNL    H12   38  -0.032   0.178   0.295
    1UNL    H13   39   0.128   0.129   0.260
    1UNL    H14   40   0.050  -0.101   0.207
    1UNL    H15   41  -0.110  -0.043   0.255
    1UNL    H16   42  -0.229   0.168   0.178
    1UNL    H17   43  -0.473   0.212   0.177
    1UNL    H18   44  -0.625   0.050   0.057
    1UNL    H19   45  -0.526  -0.127  -0.068
    1UNL    H20   46  -0.332  -0.262  -0.138
    1UNL    H21   47   0.035  -0.207   0.004
    1UNL    H22   48   0.137  -0.135  -0.193
    1UNL    H23   49  -0.007  -0.029  -0.247
    1UNL    H24   50  -0.082   0.155  -0.076
   0.00000   0.00000   0.00000   0.00000   0.00000   0.00000   0.00000   0.00000   0.00000
Generated with MDTraj, t= 38.0
 50
    1UNL     C1    1   0.271  -0.343   0.052
    1UNL     O1    2   0.245  -0.226  -0.024
    1UNL     C2    3   0.263  -0.116   0.053
    1UNL     O2    4   0.277  -0.126   0.170
    1UNL     C3    5   0.257   0.008  -0.027
    1UNL     C4    6   0.336   0.120   0.044
    1UNL     C5    7   0.115   0.049  -0.089
    1UNL     C6    8   0.144   0.184  -0.160
    1UNL     C7    9   0.128   0.301  -0.096
    1UNL     C8   10   0.079   0.313   0.047
    1UNL     N1   11   0.020   0.185   0.097
    1UNL     C9   12   0.031   0.107   0.227
    1UNL    C10   13  -0.032  -0.031   0.197
    1UNL    C11   14  -0.084  -0.027   0.056
    1UNL    C12   15  -0.235  -0.005   0.052
    1UNL    C13   16  -0.293   0.104   0.130
    1UNL    C14   17  -0.425   0.120   0.134
    1UNL    C15   18  -0.513   0.027   0.073
    1UNL    C16   19  -0.463  -0.071  -0.007
    1UNL    C17   20  -0.326  -0.090  -0.011
    1UNL     N2   21  -0.275  -0.191  -0.091
    1UNL    C18   22  -0.146  -0.227  -0.109
    1UNL     O3   23  -0.120  -0.329  -0.176
    1UNL    C19   24  -0.036  -0.149  -0.043
    1UNL    C20   25   0.059  -0.086  -0.155
    1UNL    C21   26  -0.012   0.093  -0.007
    1UNL     H1   27   0.179  -0.360   0.107
    1UNL     H2   28   0.354  -0.337   0.122
    1UNL     H3   29   0.284  -0.426  -0.020
    1UNL     H4   30   0.306  -0.017  -0.119
    1UNL     H5   31   0.290   0.144   0.135
    1UNL     H6   32   0.442   0.088   0.056
    1UNL     H7   33   0.339   0.209  -0.018
    1UNL     H8   34   0.207   0.180  -0.249
    1UNL     H9   35   0.178   0.392  -0.129
    1UNL    H10   36   0.163   0.337   0.119
    1UNL    H11   37   0.014   0.392   0.053
    1UNL    H12   38  -0.020   0.160   0.305
    1UNL    H13   39   0.131   0.100   0.259
    1UNL    H14   40   0.039  -0.108   0.210
    1UNL    H15   41  -0.118  -0.049   0.261
    1UNL    H16   42  -0.220   0.171   0.168
    1UNL    H17   43  -0.463   0.207   0.182
    1UNL    H18   44  -0.615   0.060   0.076
    1UNL    H19   45  -0.524  -0.109  -0.091
    1UNL    H20   46  -0.340  -0.250  -0.132
    1UNL    H21   47   0.017  -0.216   0.027
    1UNL    H22   48   0.145  -0.156  -0.162
    1UNL    H23   49   0.017  -0.046  -0.248
    1UNL    H24   50  -0.081   0.142  -0.075
   0.00000   0.00000   0.00000   0.00000   0.00000   0.00000   0.00000   0.00000   0.00000
Generated with MDTraj, t= 39.0
 50
    1UNL     C1    1   0.251  -0.338   0.087
    1UNL     O1    2   0.253  -0.230  -0.006
    1UNL     C2    3   0.243  -0.112   0.054
    1UNL     O2    4   0.237  -0.104   0.175
    1UNL     C3    5   0.244   0.013  -0.036
    1UNL     C4    6   0.345   0.114   0.012
    1UNL     C5    7   0.109   0.057  -0.097
    1UNL     C6    8   0.133   0.189  -0.164
    1UNL     C7    9   0.133   0.303  -0.092
    1UNL     C8   10   0.091   0.307   0.056
    1UNL     N1   11   0.017   0.182   0.102
    1UNL     C9   12   0.039   0.094   0.228
    1UNL    C10   13  -0.025  -0.046   0.206
    1UNL    C11   14  -0.082  -0.035   0.057
    1UNL    C12   15  -0.225  -0.010   0.054
    1UNL    C13   16  -0.280   0.095   0.127
    1UNL    C14   17  -0.411   0.123   0.131
    1UNL    C15   18  -0.500   0.038   0.066
    1UNL    C16   19  -0.450  -0.072   0.000
    1UNL    C17   20  -0.319  -0.097  -0.005
    1UNL     N2   21  -0.271  -0.203  -0.085
    1UNL    C18   22  -0.138  -0.231  -0.113
    1UNL     O3   23  -0.111  -0.313  -0.203
    1UNL    C19   24  -0.032  -0.150  -0.049
    1UNL    C20   25   0.045  -0.071  -0.165
    1UNL    C21   26  -0.015   0.091  -0.006
    1UNL     H1   27   0.152  -0.333   0.132
    1UNL     H2   28   0.326  -0.322   0.166
    1UNL     H3   29   0.261  -0.430   0.023
    1UNL     H4   30   0.279  -0.024  -0.132
    1UNL     H5   31   0.323   0.158   0.117
    1UNL     H6   32   0.439   0.060   0.018
    1UNL     H7   33   0.370   0.203  -0.045
    1UNL     H8   34   0.113   0.201  -0.272
    1UNL     H9   35   0.159   0.398  -0.138
    1UNL    H10   36   0.182   0.329   0.120
    1UNL    H11   37   0.024   0.383   0.072
    1UNL    H12   38   0.011   0.139   0.318
    1UNL    H13   39   0.150   0.076   0.241
    1UNL    H14   40   0.053  -0.118   0.208
    1UNL    H15   41  -0.097  -0.070   0.283
    1UNL    H16   42  -0.209   0.148   0.200
    1UNL    H17   43  -0.456   0.195   0.206
    1UNL    H18   44  -0.603   0.069   0.056
    1UNL    H19   45  -0.519  -0.128  -0.055
    1UNL    H20   46  -0.331  -0.245  -0.156
    1UNL    H21   47   0.034  -0.217   0.005
    1UNL    H22   48   0.123  -0.142  -0.201
    1UNL    H23   49  -0.022  -0.028  -0.239
    1UNL    H24   50  -0.089   0.143  -0.067
   0.00000   0.00000   0.00000   0.00000   0.00000   0.00000   0.00000   0.00000   0.00000
Generated with MDTraj, t= 40.0
 50
    1UNL     C1    1   0.273  -0.330   0.118
    1UNL     O1    2   0.250  -0.236   0.011
    1UNL     C2    3   0.250  -0.108   0.058
    1UNL     O2    4   0.277  -0.093   0.179
    1UNL     C3    5   0.250   0.004  -0.040
    1UNL     C4    6   0.364   0.094   0.004
    1UNL     C5    7   0.106   0.063  -0.094
    1UNL     C6    8   0.122   0.198  -0.162
    1UNL     C7    9   0.138   0.302  -0.081
    1UNL     C8   10   0.117   0.292   0.065
    1UNL     N1   11   0.022   0.184   0.108
    1UNL     C9   12   0.040   0.084   0.221
    1UNL    C10   13  -0.025  -0.054   0.179
    1UNL    C11   14  -0.091  -0.028   0.042
    1UNL    C12   15  -0.239  -0.010   0.052
    1UNL    C13   16  -0.292   0.102   0.118
    1UNL    C14   17  -0.431   0.115   0.120
    1UNL    C15   18  -0.522   0.028   0.078
    1UNL    C16   19  -0.465  -0.081   0.009
    1UNL    C17   20  -0.327  -0.096  -0.012
    1UNL     N2   21  -0.274  -0.201  -0.091
    1UNL    C18   22  -0.142  -0.224  -0.123
    1UNL     O3   23  -0.120  -0.315  -0.199
    1UNL    C19   24  -0.037  -0.133  -0.062
    1UNL    C20   25   0.033  -0.054  -0.172
    1UNL    C21   26  -0.020   0.104  -0.007
    1UNL     H1   27   0.210  -0.296   0.201
    1UNL     H2   28   0.379  -0.319   0.146
    1UNL     H3   29   0.238  -0.425   0.072
    1UNL     H4   30   0.281  -0.051  -0.130
    1UNL     H5   31   0.348   0.139   0.105
    1UNL     H6   32   0.452   0.031   0.006
    1UNL     H7   33   0.393   0.177  -0.064
    1UNL     H8   34   0.135   0.205  -0.264
    1UNL     H9   35   0.165   0.398  -0.119
    1UNL    H10   36   0.210   0.267   0.118
    1UNL    H11   37   0.088   0.387   0.109
    1UNL    H12   38   0.005   0.127   0.309
    1UNL    H13   39   0.150   0.073   0.252
    1UNL    H14   40   0.049  -0.135   0.179
    1UNL    H15   41  -0.095  -0.089   0.251
    1UNL    H16   42  -0.238   0.151   0.190
    1UNL    H17   43  -0.466   0.191   0.184
    1UNL    H18   44  -0.627   0.026   0.101
    1UNL    H19   45  -0.535  -0.146  -0.047
    1UNL    H20   46  -0.340  -0.278  -0.119
    1UNL    H21   47   0.043  -0.198  -0.028
    1UNL    H22   48   0.101  -0.123  -0.223
    1UNL    H23   49  -0.048  -0.013  -0.234
    1UNL    H24   50  -0.091   0.167  -0.063
   0.00000   0.00000   0.00000   0.00000   0.00000   0.00000   0.00000   0.00000   0.00000
Generated with MDTraj, t= 41.0
 50
    1UNL     C1    1   0.250  -0.316   0.118
    1UNL     O1    2   0.221  -0.226   0.009
    1UNL     C2    3   0.247  -0.106   0.055
    1UNL     O2    4   0.278  -0.076   0.172
    1UNL     C3    5   0.253   0.007  -0.044
    1UNL     C4    6   0.374   0.094  -0.005
    1UNL     C5    7   0.110   0.058  -0.090
    1UNL     C6    8   0.125   0.191  -0.159
    1UNL     C7    9   0.138   0.299  -0.082
    1UNL     C8   10   0.110   0.290   0.065
    1UNL     N1   11   0.016   0.179   0.113
    1UNL     C9   12   0.037   0.085   0.224
    1UNL    C10   13  -0.021  -0.051   0.191
    1UNL    C11   14  -0.081  -0.036   0.048
    1UNL    C12   15  -0.236  -0.009   0.050
    1UNL    C13   16  -0.291   0.094   0.119
    1UNL    C14   17  -0.426   0.115   0.136
    1UNL    C15   18  -0.507   0.023   0.085
    1UNL    C16   19  -0.462  -0.077   0.002
    1UNL    C17   20  -0.324  -0.093  -0.014
    1UNL     N2   21  -0.281  -0.205  -0.094
    1UNL    C18   22  -0.146  -0.228  -0.131
    1UNL     O3   23  -0.114  -0.307  -0.212
    1UNL    C19   24  -0.039  -0.139  -0.061
    1UNL    C20   25   0.052  -0.067  -0.165
    1UNL    C21   26  -0.009   0.091  -0.002
    1UNL     H1   27   0.192  -0.276   0.201
    1UNL     H2   28   0.353  -0.290   0.138
    1UNL     H3   29   0.228  -0.419   0.084
    1UNL     H4   30   0.296  -0.042  -0.134
    1UNL     H5   31   0.334   0.161   0.068
    1UNL     H6   32   0.445   0.020   0.031
    1UNL     H7   33   0.417   0.153  -0.093
    1UNL     H8   34   0.150   0.194  -0.270
    1UNL     H9   35   0.153   0.397  -0.129
    1UNL    H10   36   0.196   0.290   0.126
    1UNL    H11   37   0.057   0.385   0.103
    1UNL    H12   38  -0.009   0.124   0.311
    1UNL    H13   39   0.147   0.088   0.247
    1UNL    H14   40   0.048  -0.135   0.216
    1UNL    H15   41  -0.104  -0.060   0.256
    1UNL    H16   42  -0.223   0.169   0.160
    1UNL    H17   43  -0.463   0.176   0.221
    1UNL    H18   44  -0.616   0.026   0.096
    1UNL    H19   45  -0.532  -0.140  -0.052
    1UNL    H20   46  -0.356  -0.241  -0.156
    1UNL    H21   47   0.012  -0.215  -0.003
    1UNL    H22   48   0.130  -0.136  -0.187
    1UNL    H23   49  -0.011  -0.054  -0.256
    1UNL    H24   50  -0.087   0.139  -0.064
   0.00000   0.00000   0.00000   0.00000   0.00000   0.00000   0.00000   0.00000   0.00000
Generated with MDTraj, t= 42.0
 50
    1UNL     C1    1   0.224  -0.325   0.121
    1UNL     O1    2   0.236  -0.236   0.013
    1UNL     C2    3   0.251  -0.110   0.063
    1UNL     O2    4   0.263  -0.087   0.184
    1UNL     C3    5   0.245   0.008  -0.029
    1UNL     C4    6   0.351   0.105   0.021
    1UNL     C5    7   0.105   0.059  -0.095
    1UNL     C6    8   0.135   0.187  -0.170
    1UNL     C7    9   0.124   0.297  -0.094
    1UNL     C8   10   0.086   0.304   0.056
    1UNL     N1   11   0.017   0.186   0.105
    1UNL     C9   12   0.063   0.099   0.213
    1UNL    C10   13  -0.010  -0.042   0.186
    1UNL    C11   14  -0.081  -0.038   0.042
    1UNL    C12   15  -0.229  -0.021   0.064
    1UNL    C13   16  -0.272   0.083   0.138
    1UNL    C14   17  -0.406   0.101   0.160
    1UNL    C15   18  -0.497   0.034   0.081
    1UNL    C16   19  -0.457  -0.068  -0.004
    1UNL    C17   20  -0.320  -0.102  -0.014
    1UNL     N2   21  -0.273  -0.203  -0.094
    1UNL    C18   22  -0.144  -0.224  -0.141
    1UNL     O3   23  -0.119  -0.304  -0.225
    1UNL    C19   24  -0.039  -0.148  -0.065
    1UNL    C20   25   0.046  -0.069  -0.169
    1UNL    C21   26  -0.018   0.093  -0.011
    1UNL     H1   27   0.141  -0.295   0.183
    1UNL     H2   28   0.320  -0.305   0.166
    1UNL     H3   29   0.215  -0.420   0.067
    1UNL     H4   30   0.302  -0.043  -0.112
    1UNL     H5   31   0.322   0.133   0.119
    1UNL     H6   32   0.451   0.056   0.015
    1UNL     H7   33   0.350   0.203  -0.031
    1UNL     H8   34   0.147   0.192  -0.274
    1UNL     H9   35   0.133   0.391  -0.142
    1UNL    H10   36   0.169   0.325   0.116
    1UNL    H11   37   0.008   0.390   0.075
    1UNL    H12   38   0.025   0.144   0.303
    1UNL    H13   39   0.171   0.097   0.222
    1UNL    H14   40   0.061  -0.127   0.189
    1UNL    H15   41  -0.083  -0.066   0.259
    1UNL    H16   42  -0.203   0.167   0.173
    1UNL    H17   43  -0.452   0.186   0.216
    1UNL    H18   44  -0.598   0.069   0.085
    1UNL    H19   45  -0.527  -0.103  -0.075
    1UNL    H20   46  -0.342  -0.259  -0.139
    1UNL    H21   47   0.020  -0.222  -0.013
    1UNL    H22   48   0.131  -0.119  -0.210
    1UNL    H23   49  -0.013  -0.051  -0.261
    1UNL    H24   50  -0.096   0.138  -0.077
   0.00000   0.00000   0.00000   0.00000   0.00000   0.00000   0.00000   0.00000   0.00000
Generated with MDTraj, t= 43.0
 50
    1UNL     C1    1   0.265  -0.341   0.082
    1UNL     O1    2   0.247  -0.229  -0.001
    1UNL     C2    3   0.257  -0.115   0.070
    1UNL     O2    4   0.276  -0.100   0.190
    1UNL     C3    5   0.255   0.010  -0.028
    1UNL     C4    6   0.340   0.115   0.030
    1UNL     C5    7   0.110   0.044  -0.091
    1UNL     C6    8   0.141   0.170  -0.171
    1UNL     C7    9   0.139   0.287  -0.103
    1UNL     C8   10   0.097   0.315   0.042
    1UNL     N1   11   0.037   0.191   0.099
    1UNL     C9   12   0.028   0.114   0.223
    1UNL    C10   13  -0.026  -0.035   0.194
    1UNL    C11   14  -0.091  -0.037   0.050
    1UNL    C12   15  -0.238  -0.008   0.055
    1UNL    C13   16  -0.292   0.097   0.134
    1UNL    C14   17  -0.425   0.102   0.161
    1UNL    C15   18  -0.509   0.013   0.092
    1UNL    C16   19  -0.463  -0.074   0.007
    1UNL    C17   20  -0.327  -0.084  -0.021
    1UNL     N2   21  -0.283  -0.181  -0.114
    1UNL    C18   22  -0.151  -0.219  -0.130
    1UNL     O3   23  -0.114  -0.303  -0.211
    1UNL    C19   24  -0.048  -0.149  -0.053
    1UNL    C20   25   0.053  -0.085  -0.159
    1UNL    C21   26  -0.016   0.088  -0.007
    1UNL     H1   27   0.170  -0.366   0.132
    1UNL     H2   28   0.345  -0.302   0.145
    1UNL     H3   29   0.300  -0.417   0.012
    1UNL     H4   30   0.318  -0.028  -0.114
    1UNL     H5   31   0.303   0.150   0.130
    1UNL     H6   32   0.449   0.089   0.045
    1UNL     H7   33   0.346   0.210  -0.017
    1UNL     H8   34   0.189   0.165  -0.269
    1UNL     H9   35   0.184   0.375  -0.149
    1UNL    H10   36   0.179   0.351   0.105
    1UNL    H11   37   0.016   0.399   0.041
    1UNL    H12   38  -0.035   0.172   0.293
    1UNL    H13   39   0.128   0.100   0.255
    1UNL    H14   40   0.062  -0.096   0.175
    1UNL    H15   41  -0.090  -0.080   0.268
    1UNL    H16   42  -0.235   0.172   0.171
    1UNL    H17   43  -0.457   0.188   0.208
    1UNL    H18   44  -0.615   0.029   0.106
    1UNL    H19   45  -0.524  -0.161  -0.028
    1UNL    H20   46  -0.342  -0.227  -0.178
    1UNL    H21   47   0.007  -0.223   0.002
    1UNL    H22   48   0.129  -0.146  -0.204
    1UNL    H23   49   0.006  -0.051  -0.253
    1UNL    H24   50  -0.090   0.143  -0.069
   0.00000   0.00000   0.00000   0.00000   0.00000   0.00000   0.00000   0.00000   0.00000
Generated with MDTraj, t= 44.0
 50
    1UNL     C1    1   0.284  -0.346   0.069
    1UNL     O1    2   0.286  -0.235  -0.017
    1UNL     C2    3   0.249  -0.123   0.060
    1UNL     O2    4   0.222  -0.123   0.177
    1UNL     C3    5   0.255   0.006  -0.025
    1UNL     C4    6   0.350   0.102   0.051
    1UNL     C5    7   0.119   0.056  -0.095
    1UNL     C6    8   0.149   0.184  -0.168
    1UNL     C7    9   0.140   0.298  -0.099
    1UNL     C8   10   0.092   0.309   0.044
    1UNL     N1   11   0.009   0.194   0.092
    1UNL     C9   12   0.032   0.113   0.212
    1UNL    C10   13  -0.022  -0.024   0.185
    1UNL    C11   14  -0.086  -0.029   0.049
    1UNL    C12   15  -0.240  -0.006   0.055
    1UNL    C13   16  -0.296   0.097   0.135
    1UNL    C14   17  -0.432   0.119   0.150
    1UNL    C15   18  -0.511   0.030   0.084
    1UNL    C16   19  -0.466  -0.071   0.006
    1UNL    C17   20  -0.325  -0.093  -0.014
    1UNL     N2   21  -0.281  -0.204  -0.086
    1UNL    C18   22  -0.148  -0.229  -0.112
    1UNL     O3   23  -0.105  -0.307  -0.202
    1UNL    C19   24  -0.037  -0.143  -0.047
    1UNL    C20   25   0.054  -0.071  -0.154
    1UNL    C21   26  -0.021   0.096  -0.017
    1UNL     H1   27   0.206  -0.341   0.150
    1UNL     H2   28   0.389  -0.350   0.101
    1UNL     H3   29   0.260  -0.424  -0.007
    1UNL     H4   30   0.318  -0.031  -0.112
    1UNL     H5   31   0.334   0.109   0.164
    1UNL     H6   32   0.461   0.089   0.029
    1UNL     H7   33   0.325   0.199   0.021
    1UNL     H8   34   0.173   0.191  -0.277
    1UNL     H9   35   0.132   0.389  -0.156
    1UNL    H10   36   0.179   0.334   0.115
    1UNL    H11   37   0.025   0.401   0.059
    1UNL    H12   38  -0.025   0.155   0.297
    1UNL    H13   39   0.133   0.111   0.231
    1UNL    H14   40   0.050  -0.100   0.180
    1UNL    H15   41  -0.096  -0.064   0.255
    1UNL    H16   42  -0.229   0.170   0.183
    1UNL    H17   43  -0.481   0.205   0.210
    1UNL    H18   44  -0.617   0.049   0.101
    1UNL    H19   45  -0.530  -0.156  -0.001
    1UNL    H20   46  -0.348  -0.270  -0.128
    1UNL    H21   47   0.019  -0.210   0.016
    1UNL    H22   48   0.124  -0.147  -0.180
    1UNL    H23   49   0.005  -0.051  -0.250
    1UNL    H24   50  -0.092   0.144  -0.088
   0.00000   0.00000   0.00000   0.00000   0.00000   0.00000   0.00000   0.00000   0.00000
Generated with MDTraj, t= 45.0
 50
    1UNL     C1    1   0.284  -0.347   0.046
    1UNL     O1    2   0.274  -0.234  -0.043
    1UNL     C2    3   0.252  -0.129   0.041
    1UNL     O2    4   0.230  -0.126   0.158
    1UNL     C3    5   0.247   0.009  -0.030
    1UNL     C4    6   0.333   0.100   0.060
    1UNL     C5    7   0.110   0.057  -0.091
    1UNL     C6    8   0.127   0.185  -0.162
    1UNL     C7    9   0.125   0.302  -0.095
    1UNL     C8   10   0.103   0.312   0.054
    1UNL     N1   11   0.032   0.191   0.110
    1UNL     C9   12   0.041   0.109   0.235
    1UNL    C10   13  -0.028  -0.032   0.199
    1UNL    C11   14  -0.081  -0.028   0.052
    1UNL    C12   15  -0.239   0.002   0.053
    1UNL    C13   16  -0.295   0.115   0.100
    1UNL    C14   17  -0.433   0.131   0.104
    1UNL    C15   18  -0.520   0.034   0.060
    1UNL    C16   19  -0.466  -0.082   0.012
    1UNL    C17   20  -0.328  -0.100   0.002
    1UNL     N2   21  -0.271  -0.208  -0.071
    1UNL    C18   22  -0.141  -0.224  -0.099
    1UNL     O3   23  -0.097  -0.314  -0.172
    1UNL    C19   24  -0.031  -0.144  -0.038
    1UNL    C20   25   0.050  -0.078  -0.150
    1UNL    C21   26  -0.011   0.103  -0.004
    1UNL     H1   27   0.188  -0.373   0.096
    1UNL     H2   28   0.358  -0.313   0.121
    1UNL     H3   29   0.316  -0.436  -0.011
    1UNL     H4   30   0.312   0.002  -0.122
    1UNL     H5   31   0.278   0.134   0.146
    1UNL     H6   32   0.422   0.037   0.091
    1UNL     H7   33   0.364   0.182  -0.006
    1UNL     H8   34   0.166   0.177  -0.256
    1UNL     H9   35   0.141   0.395  -0.146
    1UNL    H10   36   0.197   0.342   0.119
    1UNL    H11   37   0.041   0.405   0.078
    1UNL    H12   38  -0.033   0.164   0.294
    1UNL    H13   39   0.136   0.118   0.280
    1UNL    H14   40   0.038  -0.117   0.207
    1UNL    H15   41  -0.115  -0.055   0.262
    1UNL    H16   42  -0.231   0.197   0.143
    1UNL    H17   43  -0.477   0.217   0.141
    1UNL    H18   44  -0.622   0.034   0.088
    1UNL    H19   45  -0.534  -0.159  -0.025
    1UNL    H20   46  -0.338  -0.284  -0.098
    1UNL    H21   47   0.035  -0.212   0.014
    1UNL    H22   48   0.112  -0.159  -0.184
    1UNL    H23   49  -0.011  -0.049  -0.234
    1UNL    H24   50  -0.082   0.160  -0.067
   0.00000   0.00000   0.00000   0.00000   0.00000   0.00000   0.00000   0.00000   0.00000
Generated with MDTraj, t= 46.0
 50
    1UNL     C1    1   0.258  -0.345   0.004
    1UNL     O1    2   0.274  -0.224  -0.054
    1UNL     C2    3   0.252  -0.124   0.041
    1UNL     O2    4   0.241  -0.132   0.159
    1UNL     C3    5   0.244   0.006  -0.034
    1UNL     C4    6   0.332   0.106   0.041
    1UNL     C5    7   0.107   0.066  -0.088
    1UNL     C6    8   0.134   0.199  -0.144
    1UNL     C7    9   0.143   0.309  -0.073
    1UNL     C8   10   0.094   0.306   0.069
    1UNL     N1   11   0.005   0.194   0.108
    1UNL     C9   12   0.029   0.114   0.232
    1UNL    C10   13  -0.022  -0.026   0.208
    1UNL    C11   14  -0.082  -0.026   0.056
    1UNL    C12   15  -0.238  -0.008   0.046
    1UNL    C13   16  -0.282   0.116   0.094
    1UNL    C14   17  -0.416   0.140   0.088
    1UNL    C15   18  -0.500   0.046   0.045
    1UNL    C16   19  -0.462  -0.077  -0.010
    1UNL    C17   20  -0.326  -0.108   0.001
    1UNL     N2   21  -0.270  -0.228  -0.052
    1UNL    C18   22  -0.136  -0.243  -0.081
    1UNL     O3   23  -0.102  -0.348  -0.132
    1UNL    C19   24  -0.035  -0.143  -0.034
    1UNL    C20   25   0.050  -0.069  -0.151
    1UNL    C21   26  -0.022   0.104  -0.003
    1UNL     H1   27   0.153  -0.381   0.002
    1UNL     H2   28   0.304  -0.346   0.103
    1UNL     H3   29   0.307  -0.412  -0.066
    1UNL     H4   30   0.299  -0.023  -0.127
    1UNL     H5   31   0.281   0.157   0.118
    1UNL     H6   32   0.415   0.054   0.092
    1UNL     H7   33   0.377   0.187  -0.030
    1UNL     H8   34   0.147   0.210  -0.257
    1UNL     H9   35   0.185   0.401  -0.113
    1UNL    H10   36   0.188   0.308   0.139
    1UNL    H11   37   0.048   0.405   0.107
    1UNL    H12   38  -0.014   0.168   0.314
    1UNL    H13   39   0.137   0.118   0.249
    1UNL    H14   40   0.053  -0.101   0.234
    1UNL    H15   41  -0.107  -0.045   0.271
    1UNL    H16   42  -0.221   0.190   0.123
    1UNL    H17   43  -0.454   0.229   0.139
    1UNL    H18   44  -0.608   0.064   0.049
    1UNL    H19   45  -0.533  -0.139  -0.064
    1UNL    H20   46  -0.342  -0.279  -0.110
    1UNL    H21   47   0.039  -0.199   0.022
    1UNL    H22   48   0.132  -0.131  -0.184
    1UNL    H23   49  -0.011  -0.042  -0.234
    1UNL    H24   50  -0.094   0.147  -0.074
   0.00000   0.00000   0.00000   0.00000   0.00000   0.00000   0.00000   0.00000   0.00000
Generated with MDTraj, t= 47.0
 50
    1UNL     C1    1   0.258  -0.358   0.001
    1UNL     O1    2   0.281  -0.231  -0.058
    1UNL     C2    3   0.248  -0.130   0.025
    1UNL     O2    4   0.227  -0.143   0.144
    1UNL     C3    5   0.246   0.011  -0.035
    1UNL     C4    6   0.325   0.096   0.059
    1UNL     C5    7   0.101   0.056  -0.094
    1UNL     C6    8   0.122   0.195  -0.157
    1UNL     C7    9   0.120   0.315  -0.093
    1UNL     C8   10   0.099   0.322   0.057
    1UNL     N1   11   0.034   0.198   0.114
    1UNL     C9   12   0.046   0.112   0.246
    1UNL    C10   13  -0.034  -0.017   0.224
    1UNL    C11   14  -0.083  -0.017   0.070
    1UNL    C12   15  -0.232  -0.003   0.051
    1UNL    C13   16  -0.295   0.109   0.108
    1UNL    C14   17  -0.430   0.121   0.101
    1UNL    C15   18  -0.511   0.038   0.037
    1UNL    C16   19  -0.455  -0.067  -0.036
    1UNL    C17   20  -0.318  -0.095  -0.016
    1UNL     N2   21  -0.264  -0.212  -0.071
    1UNL    C18   22  -0.126  -0.239  -0.067
    1UNL     O3   23  -0.083  -0.341  -0.112
    1UNL    C19   24  -0.031  -0.137  -0.018
    1UNL    C20   25   0.038  -0.075  -0.155
    1UNL    C21   26  -0.012   0.104   0.008
    1UNL     H1   27   0.155  -0.393  -0.006
    1UNL     H2   28   0.286  -0.359   0.106
    1UNL     H3   29   0.313  -0.437  -0.047
    1UNL     H4   30   0.303   0.002  -0.129
    1UNL     H5   31   0.286   0.101   0.164
    1UNL     H6   32   0.426   0.053   0.074
    1UNL     H7   33   0.341   0.205   0.032
    1UNL     H8   34   0.118   0.196  -0.262
    1UNL     H9   35   0.148   0.408  -0.139
    1UNL    H10   36   0.198   0.330   0.110
    1UNL    H11   37   0.051   0.423   0.087
    1UNL    H12   38   0.003   0.170   0.323
    1UNL    H13   39   0.150   0.090   0.291
    1UNL    H14   40   0.033  -0.105   0.238
    1UNL    H15   41  -0.114  -0.028   0.295
    1UNL    H16   42  -0.236   0.182   0.171
    1UNL    H17   43  -0.479   0.215   0.140
    1UNL    H18   44  -0.615   0.056   0.020
    1UNL    H19   45  -0.511  -0.112  -0.117
    1UNL    H20   46  -0.320  -0.294  -0.091
    1UNL    H21   47   0.043  -0.186   0.043
    1UNL    H22   48   0.114  -0.137  -0.202
    1UNL    H23   49  -0.049  -0.056  -0.213
    1UNL    H24   50  -0.083   0.156  -0.055
   0.00000   0.00000   0.00000   0.00000   0.00000   0.00000   0.00000   0.00000   0.00000
Generated with MDTraj, t= 48.0
 50
    1UNL     C1    1   0.281  -0.351  -0.008
    1UNL     O1    2   0.288  -0.221  -0.058
    1UNL     C2    3   0.253  -0.121   0.027
    1UNL     O2    4   0.219  -0.141   0.145
    1UNL     C3    5   0.261   0.012  -0.028
    1UNL     C4    6   0.345   0.098   0.062
    1UNL     C5    7   0.106   0.057  -0.078
    1UNL     C6    8   0.141   0.186  -0.151
    1UNL     C7    9   0.138   0.303  -0.089
    1UNL     C8   10   0.094   0.305   0.056
    1UNL     N1   11   0.013   0.193   0.093
    1UNL     C9   12   0.022   0.131   0.233
    1UNL    C10   13  -0.026  -0.021   0.213
    1UNL    C11   14  -0.085  -0.024   0.065
    1UNL    C12   15  -0.234  -0.006   0.057
    1UNL    C13   16  -0.298   0.100   0.123
    1UNL    C14   17  -0.431   0.127   0.115
    1UNL    C15   18  -0.515   0.044   0.040
    1UNL    C16   19  -0.458  -0.064  -0.023
    1UNL    C17   20  -0.325  -0.091  -0.018
    1UNL     N2   21  -0.269  -0.205  -0.082
    1UNL    C18   22  -0.136  -0.242  -0.067
    1UNL     O3   23  -0.102  -0.348  -0.105
    1UNL    C19   24  -0.032  -0.138  -0.029
    1UNL    C20   25   0.048  -0.070  -0.148
    1UNL    C21   26  -0.027   0.097  -0.009
    1UNL     H1   27   0.178  -0.388  -0.001
    1UNL     H2   28   0.323  -0.363   0.092
    1UNL     H3   29   0.331  -0.422  -0.071
    1UNL     H4   30   0.316  -0.001  -0.121
    1UNL     H5   31   0.325   0.060   0.168
    1UNL     H6   32   0.455   0.076   0.041
    1UNL     H7   33   0.319   0.205   0.052
    1UNL     H8   34   0.158   0.179  -0.257
    1UNL     H9   35   0.161   0.396  -0.139
    1UNL    H10   36   0.178   0.323   0.123
    1UNL    H11   37   0.030   0.402   0.078
    1UNL    H12   38  -0.036   0.175   0.309
    1UNL    H13   39   0.128   0.126   0.278
    1UNL    H14   40   0.065  -0.085   0.219
    1UNL    H15   41  -0.097  -0.057   0.287
    1UNL    H16   42  -0.242   0.157   0.199
    1UNL    H17   43  -0.466   0.209   0.163
    1UNL    H18   44  -0.616   0.079   0.035
    1UNL    H19   45  -0.529  -0.121  -0.082
    1UNL    H20   46  -0.325  -0.273  -0.124
    1UNL    H21   47   0.043  -0.189   0.034
    1UNL    H22   48   0.130  -0.128  -0.186
    1UNL    H23   49  -0.023  -0.050  -0.225
    1UNL    H24   50  -0.098   0.134  -0.083
   0.00000   0.00000   0.00000   0.00000   0.00000   0.00000   0.00000   0.00000   0.00000
Generated with MDTraj, t= 49.0
 50
    1UNL     C1    1   0.307  -0.354   0.001
    1UNL     O1    2   0.289  -0.229  -0.045
    1UNL     C2    3   0.261  -0.130   0.042
    1UNL     O2    4   0.232  -0.148   0.162
    1UNL     C3    5   0.255   0.009  -0.027
    1UNL     C4    6   0.321   0.109   0.068
    1UNL     C5    7   0.114   0.047  -0.091
    1UNL     C6    8   0.135   0.182  -0.168
    1UNL     C7    9   0.130   0.295  -0.100
    1UNL     C8   10   0.090   0.311   0.046
    1UNL     N1   11   0.029   0.193   0.108
    1UNL     C9   12   0.005   0.123   0.242
    1UNL    C10   13  -0.029  -0.021   0.209
    1UNL    C11   14  -0.080  -0.021   0.061
    1UNL    C12   15  -0.235   0.001   0.057
    1UNL    C13   16  -0.299   0.114   0.114
    1UNL    C14   17  -0.435   0.138   0.108
    1UNL    C15   18  -0.522   0.041   0.066
    1UNL    C16   19  -0.463  -0.066   0.004
    1UNL    C17   20  -0.323  -0.089  -0.004
    1UNL     N2   21  -0.277  -0.198  -0.076
    1UNL    C18   22  -0.142  -0.236  -0.095
    1UNL     O3   23  -0.094  -0.332  -0.150
    1UNL    C19   24  -0.034  -0.144  -0.039
    1UNL    C20   25   0.041  -0.081  -0.155
    1UNL    C21   26  -0.006   0.094  -0.001
    1UNL     H1   27   0.212  -0.395   0.040
    1UNL     H2   28   0.379  -0.367   0.084
    1UNL     H3   29   0.339  -0.424  -0.076
    1UNL     H4   30   0.318   0.000  -0.114
    1UNL     H5   31   0.252   0.126   0.144
    1UNL     H6   32   0.414   0.055   0.115
    1UNL     H7   33   0.345   0.206   0.018
    1UNL     H8   34   0.180   0.175  -0.270
    1UNL     H9   35   0.148   0.385  -0.158
    1UNL    H10   36   0.171   0.346   0.105
    1UNL    H11   37   0.017   0.403   0.056
    1UNL    H12   38  -0.081   0.159   0.295
    1UNL    H13   39   0.087   0.130   0.314
    1UNL    H14   40   0.061  -0.083   0.223
    1UNL    H15   41  -0.108  -0.058   0.276
    1UNL    H16   42  -0.236   0.180   0.155
    1UNL    H17   43  -0.477   0.231   0.164
    1UNL    H18   44  -0.629   0.060   0.072
    1UNL    H19   45  -0.530  -0.135  -0.043
    1UNL    H20   46  -0.339  -0.264  -0.120
    1UNL    H21   47   0.038  -0.207   0.017
    1UNL    H22   48   0.117  -0.137  -0.207
    1UNL    H23   49  -0.027  -0.055  -0.232
    1UNL    H24   50  -0.084   0.133  -0.067
   0.00000   0.00000   0.00000   0.00000   0.00000   0.00000   0.00000   0.00000   0.00000
Generated with MDTraj, t= 50.0
 50
    1UNL     C1    1   0.297  -0.346   0.031
    1UNL     O1    2   0.295  -0.231  -0.037
    1UNL     C2    3   0.254  -0.126   0.044
    1UNL     O2    4   0.217  -0.123   0.161
    1UNL     C3    5   0.260   0.004  -0.028
    1UNL     C4    6   0.316   0.104   0.064
    1UNL     C5    7   0.114   0.051  -0.085
    1UNL     C6    8   0.141   0.179  -0.165
    1UNL     C7    9   0.132   0.295  -0.098
    1UNL     C8   10   0.100   0.312   0.049
    1UNL     N1   11   0.031   0.187   0.106
    1UNL     C9   12   0.020   0.119   0.236
    1UNL    C10   13  -0.030  -0.030   0.200
    1UNL    C11   14  -0.088  -0.030   0.055
    1UNL    C12   15  -0.243  -0.003   0.054
    1UNL    C13   16  -0.290   0.118   0.096
    1UNL    C14   17  -0.426   0.138   0.113
    1UNL    C15   18  -0.511   0.042   0.061
    1UNL    C16   19  -0.465  -0.082   0.021
    1UNL    C17   20  -0.324  -0.106   0.013
    1UNL     N2   21  -0.267  -0.222  -0.045
    1UNL    C18   22  -0.141  -0.227  -0.105
    1UNL     O3   23  -0.117  -0.302  -0.198
    1UNL    C19   24  -0.034  -0.144  -0.048
    1UNL    C20   25   0.049  -0.072  -0.156
    1UNL    C21   26  -0.010   0.093  -0.003
    1UNL     H1   27   0.203  -0.358   0.087
    1UNL     H2   28   0.378  -0.362   0.106
    1UNL     H3   29   0.303  -0.434  -0.032
    1UNL     H4   30   0.323  -0.018  -0.112
    1UNL     H5   31   0.246   0.132   0.143
    1UNL     H6   32   0.412   0.070   0.117
    1UNL     H7   33   0.337   0.199   0.014
    1UNL     H8   34   0.151   0.167  -0.266
    1UNL     H9   35   0.127   0.384  -0.157
    1UNL    H10   36   0.188   0.344   0.101
    1UNL    H11   37   0.029   0.398   0.060
    1UNL    H12   38  -0.046   0.180   0.300
    1UNL    H13   39   0.117   0.129   0.281
    1UNL    H14   40   0.043  -0.108   0.222
    1UNL    H15   41  -0.118  -0.048   0.265
    1UNL    H16   42  -0.220   0.202   0.125
    1UNL    H17   43  -0.463   0.221   0.164
    1UNL    H18   44  -0.618   0.051   0.076
    1UNL    H19   45  -0.532  -0.157  -0.018
    1UNL    H20   46  -0.332  -0.297  -0.081
    1UNL    H21   47   0.025  -0.219   0.007
    1UNL    H22   48   0.117  -0.138  -0.207
    1UNL    H23   49  -0.010  -0.039  -0.240
    1UNL    H24   50  -0.083   0.143  -0.068
   0.00000   0.00000   0.00000   0.00000   0.00000   0.00000   0.00000   0.00000   0.00000
Generated with MDTraj, t= 51.0
 50
    1UNL     C1    1   0.280  -0.350   0.050
    1UNL     O1    2   0.269  -0.240  -0.030
    1UNL     C2    3   0.254  -0.126   0.053
    1UNL     O2    4   0.239  -0.109   0.171
    1UNL     C3    5   0.255   0.007  -0.027
    1UNL     C4    6   0.355   0.099   0.045
    1UNL     C5    7   0.116   0.055  -0.089
    1UNL     C6    8   0.149   0.185  -0.158
    1UNL     C7    9   0.133   0.298  -0.090
    1UNL     C8   10   0.099   0.313   0.060
    1UNL     N1   11   0.010   0.201   0.108
    1UNL     C9   12   0.044   0.115   0.223
    1UNL    C10   13  -0.034  -0.018   0.194
    1UNL    C11   14  -0.093  -0.026   0.050
    1UNL    C12   15  -0.245  -0.006   0.056
    1UNL    C13   16  -0.293   0.113   0.093
    1UNL    C14   17  -0.431   0.133   0.113
    1UNL    C15   18  -0.509   0.022   0.089
    1UNL    C16   19  -0.465  -0.092   0.026
    1UNL    C17   20  -0.330  -0.108   0.000
    1UNL     N2   21  -0.280  -0.220  -0.068
    1UNL    C18   22  -0.152  -0.230  -0.113
    1UNL     O3   23  -0.112  -0.307  -0.201
    1UNL    C19   24  -0.037  -0.142  -0.048
    1UNL    C20   25   0.055  -0.071  -0.162
    1UNL    C21   26  -0.014   0.101  -0.004
    1UNL     H1   27   0.180  -0.380   0.084
    1UNL     H2   28   0.337  -0.334   0.143
    1UNL     H3   29   0.323  -0.436   0.004
    1UNL     H4   30   0.304  -0.019  -0.122
    1UNL     H5   31   0.335   0.117   0.159
    1UNL     H6   32   0.460   0.069   0.033
    1UNL     H7   33   0.346   0.200   0.004
    1UNL     H8   34   0.197   0.195  -0.260
    1UNL     H9   35   0.162   0.387  -0.143
    1UNL    H10   36   0.198   0.316   0.106
    1UNL    H11   37   0.055   0.407   0.073
    1UNL    H12   38   0.012   0.173   0.313
    1UNL    H13   39   0.147   0.110   0.224
    1UNL    H14   40   0.027  -0.108   0.203
    1UNL    H15   41  -0.115  -0.024   0.275
    1UNL    H16   42  -0.240   0.205   0.107
    1UNL    H17   43  -0.469   0.227   0.149
    1UNL    H18   44  -0.614   0.028   0.103
    1UNL    H19   45  -0.527  -0.177  -0.000
    1UNL    H20   46  -0.359  -0.266  -0.118
    1UNL    H21   47   0.021  -0.222   0.003
    1UNL    H22   48   0.133  -0.138  -0.186
    1UNL    H23   49   0.003  -0.064  -0.257
    1UNL    H24   50  -0.077   0.165  -0.070
   0.00000   0.00000   0.00000   0.00000   0.00000   0.00000   0.00000   0.00000   0.00000
Generated with MDTraj, t= 52.0
 50
    1UNL     C1    1   0.243  -0.342   0.081
    1UNL     O1    2   0.247  -0.240  -0.009
    1UNL     C2    3   0.243  -0.117   0.058
    1UNL     O2    4   0.239  -0.095   0.174
    1UNL     C3    5   0.250   0.005  -0.035
    1UNL     C4    6   0.340   0.104   0.037
    1UNL     C5    7   0.112   0.065  -0.096
    1UNL     C6    8   0.143   0.195  -0.174
    1UNL     C7    9   0.148   0.307  -0.098
    1UNL     C8   10   0.113   0.310   0.053
    1UNL     N1   11   0.032   0.190   0.100
    1UNL     C9   12   0.049   0.110   0.224
    1UNL    C10   13  -0.019  -0.024   0.193
    1UNL    C11   14  -0.085  -0.028   0.050
    1UNL    C12   15  -0.237  -0.013   0.057
    1UNL    C13   16  -0.287   0.090   0.132
    1UNL    C14   17  -0.423   0.096   0.153
    1UNL    C15   18  -0.510   0.018   0.078
    1UNL    C16   19  -0.464  -0.085  -0.000
    1UNL    C17   20  -0.323  -0.094  -0.019
    1UNL     N2   21  -0.280  -0.206  -0.100
    1UNL    C18   22  -0.147  -0.227  -0.118
    1UNL     O3   23  -0.105  -0.323  -0.186
    1UNL    C19   24  -0.036  -0.138  -0.053
    1UNL    C20   25   0.043  -0.059  -0.165
    1UNL    C21   26  -0.013   0.098  -0.007
    1UNL     H1   27   0.145  -0.344   0.130
    1UNL     H2   28   0.322  -0.336   0.156
    1UNL     H3   29   0.251  -0.433   0.028
    1UNL     H4   30   0.309  -0.034  -0.120
    1UNL     H5   31   0.304   0.115   0.142
    1UNL     H6   32   0.441   0.064   0.034
    1UNL     H7   33   0.333   0.204  -0.017
    1UNL     H8   34   0.166   0.188  -0.278
    1UNL     H9   35   0.184   0.400  -0.140
    1UNL    H10   36   0.205   0.327   0.110
    1UNL    H11   37   0.058   0.394   0.059
    1UNL    H12   38   0.003   0.173   0.305
    1UNL    H13   39   0.149   0.094   0.236
    1UNL    H14   40   0.048  -0.111   0.195
    1UNL    H15   41  -0.100  -0.045   0.270
    1UNL    H16   42  -0.219   0.161   0.177
    1UNL    H17   43  -0.469   0.181   0.218
    1UNL    H18   44  -0.617   0.044   0.070
    1UNL    H19   45  -0.522  -0.163  -0.043
    1UNL    H20   46  -0.332  -0.293  -0.096
    1UNL    H21   47   0.036  -0.214  -0.014
    1UNL    H22   48   0.109  -0.122  -0.217
    1UNL    H23   49  -0.024  -0.015  -0.240
    1UNL    H24   50  -0.087   0.168  -0.055
   0.00000   0.00000   0.00000   0.00000   0.00000   0.00000   0.00000   0.00000   0.00000
Generated with MDTraj, t= 53.0
 50
    1UNL     C1    1   0.227  -0.343   0.092
    1UNL     O1    2   0.220  -0.230   0.007
    1UNL     C2    3   0.251  -0.107   0.065
    1UNL     O2    4   0.275  -0.083   0.178
    1UNL     C3    5   0.257   0.010  -0.040
    1UNL     C4    6   0.356   0.114   0.008
    1UNL     C5    7   0.116   0.053  -0.093
    1UNL     C6    8   0.129   0.187  -0.168
    1UNL     C7    9   0.123   0.295  -0.091
    1UNL     C8   10   0.086   0.308   0.056
    1UNL     N1   11   0.018   0.185   0.099
    1UNL     C9   12   0.039   0.097   0.225
    1UNL    C10   13  -0.019  -0.043   0.189
    1UNL    C11   14  -0.073  -0.036   0.046
    1UNL    C12   15  -0.229  -0.020   0.056
    1UNL    C13   16  -0.278   0.079   0.146
    1UNL    C14   17  -0.414   0.096   0.159
    1UNL    C15   18  -0.507   0.026   0.079
    1UNL    C16   19  -0.460  -0.060  -0.018
    1UNL    C17   20  -0.322  -0.077  -0.032
    1UNL     N2   21  -0.276  -0.184  -0.110
    1UNL    C18   22  -0.146  -0.227  -0.109
    1UNL     O3   23  -0.106  -0.317  -0.180
    1UNL    C19   24  -0.028  -0.149  -0.056
    1UNL    C20   25   0.052  -0.078  -0.166
    1UNL    C21   26  -0.013   0.095  -0.009
    1UNL     H1   27   0.177  -0.318   0.187
    1UNL     H2   28   0.334  -0.365   0.110
    1UNL     H3   29   0.179  -0.425   0.045
    1UNL     H4   30   0.306  -0.044  -0.124
    1UNL     H5   31   0.322   0.153   0.100
    1UNL     H6   32   0.451   0.066   0.033
    1UNL     H7   33   0.372   0.201  -0.067
    1UNL     H8   34   0.153   0.194  -0.271
    1UNL     H9   35   0.125   0.383  -0.152
    1UNL    H10   36   0.174   0.330   0.113
    1UNL    H11   37   0.023   0.385   0.073
    1UNL    H12   38  -0.014   0.146   0.309
    1UNL    H13   39   0.143   0.087   0.241
    1UNL    H14   40   0.056  -0.126   0.195
    1UNL    H15   41  -0.107  -0.078   0.253
    1UNL    H16   42  -0.201   0.137   0.196
    1UNL    H17   43  -0.447   0.162   0.227
    1UNL    H18   44  -0.610   0.039   0.097
    1UNL    H19   45  -0.534  -0.126  -0.067
    1UNL    H20   46  -0.313  -0.202  -0.201
    1UNL    H21   47   0.028  -0.222   0.007
    1UNL    H22   48   0.128  -0.131  -0.215
    1UNL    H23   49  -0.020  -0.036  -0.236
    1UNL    H24   50  -0.095   0.148  -0.065
   0.00000   0.00000   0.00000   0.00000   0.00000   0.00000   0.00000   0.00000   0.00000
Generated with MDTraj, t= 54.0
 50
    1UNL     C1    1   0.273  -0.332   0.118
    1UNL     O1    2   0.239  -0.228   0.024
    1UNL     C2    3   0.267  -0.104   0.064
    1UNL     O2    4   0.300  -0.078   0.175
    1UNL     C3    5   0.254   0.013  -0.040
    1UNL     C4    6   0.339   0.120   0.018
    1UNL     C5    7   0.106   0.055  -0.095
    1UNL     C6    8   0.124   0.188  -0.172
    1UNL     C7    9   0.122   0.295  -0.092
    1UNL     C8   10   0.097   0.292   0.055
    1UNL     N1   11   0.014   0.171   0.097
    1UNL     C9   12   0.056   0.071   0.212
    1UNL    C10   13  -0.015  -0.060   0.192
    1UNL    C11   14  -0.087  -0.041   0.052
    1UNL    C12   15  -0.234  -0.018   0.061
    1UNL    C13   16  -0.288   0.085   0.144
    1UNL    C14   17  -0.421   0.119   0.146
    1UNL    C15   18  -0.509   0.050   0.062
    1UNL    C16   19  -0.467  -0.061  -0.012
    1UNL    C17   20  -0.333  -0.091  -0.016
    1UNL     N2   21  -0.289  -0.193  -0.103
    1UNL    C18   22  -0.154  -0.217  -0.130
    1UNL     O3   23  -0.120  -0.299  -0.210
    1UNL    C19   24  -0.041  -0.150  -0.054
    1UNL    C20   25   0.050  -0.081  -0.160
    1UNL    C21   26  -0.023   0.086  -0.011
    1UNL     H1   27   0.213  -0.320   0.212
    1UNL     H2   28   0.382  -0.319   0.134
    1UNL     H3   29   0.251  -0.426   0.069
    1UNL     H4   30   0.307  -0.040  -0.123
    1UNL     H5   31   0.315   0.138   0.122
    1UNL     H6   32   0.446   0.088   0.032
    1UNL     H7   33   0.345   0.214  -0.038
    1UNL     H8   34   0.143   0.178  -0.282
    1UNL     H9   35   0.140   0.392  -0.140
    1UNL    H10   36   0.180   0.301   0.116
    1UNL    H11   37   0.045   0.379   0.080
    1UNL    H12   38   0.016   0.107   0.306
    1UNL    H13   39   0.169   0.061   0.214
    1UNL    H14   40   0.053  -0.150   0.196
    1UNL    H15   41  -0.101  -0.068   0.267
    1UNL    H16   42  -0.211   0.149   0.182
    1UNL    H17   43  -0.453   0.188   0.229
    1UNL    H18   44  -0.615   0.081   0.064
    1UNL    H19   45  -0.540  -0.106  -0.071
    1UNL    H20   46  -0.349  -0.270  -0.118
    1UNL    H21   47   0.010  -0.234   0.004
    1UNL    H22   48   0.141  -0.130  -0.185
    1UNL    H23   49  -0.005  -0.050  -0.248
    1UNL    H24   50  -0.104   0.132  -0.072
   0.00000   0.00000   0.00000   0.00000   0.00000   0.00000   0.00000   0.00000   0.00000
Generated with MDTraj, t= 55.0
 50
    1UNL     C1    1   0.280  -0.334   0.120
    1UNL     O1    2   0.260  -0.233   0.017
    1UNL     C2    3   0.254  -0.106   0.065
    1UNL     O2    4   0.264  -0.069   0.181
    1UNL     C3    5   0.247   0.005  -0.041
    1UNL     C4    6   0.353   0.112  -0.001
    1UNL     C5    7   0.106   0.051  -0.096
    1UNL     C6    8   0.133   0.186  -0.164
    1UNL     C7    9   0.115   0.292  -0.085
    1UNL     C8   10   0.092   0.294   0.067
    1UNL     N1   11   0.015   0.173   0.104
    1UNL     C9   12   0.030   0.092   0.227
    1UNL    C10   13  -0.018  -0.057   0.195
    1UNL    C11   14  -0.082  -0.040   0.046
    1UNL    C12   15  -0.234  -0.020   0.059
    1UNL    C13   16  -0.276   0.094   0.128
    1UNL    C14   17  -0.408   0.129   0.131
    1UNL    C15   18  -0.505   0.044   0.084
    1UNL    C16   19  -0.463  -0.071   0.008
    1UNL    C17   20  -0.328  -0.099  -0.004
    1UNL     N2   21  -0.288  -0.193  -0.105
    1UNL    C18   22  -0.153  -0.221  -0.136
    1UNL     O3   23  -0.127  -0.302  -0.224
    1UNL    C19   24  -0.038  -0.149  -0.058
    1UNL    C20   25   0.053  -0.079  -0.174
    1UNL    C21   26  -0.018   0.087  -0.008
    1UNL     H1   27   0.200  -0.326   0.198
    1UNL     H2   28   0.382  -0.306   0.157
    1UNL     H3   29   0.279  -0.430   0.072
    1UNL     H4   30   0.292  -0.053  -0.127
    1UNL     H5   31   0.328   0.161   0.098
    1UNL     H6   32   0.448   0.055   0.023
    1UNL     H7   33   0.375   0.175  -0.082
    1UNL     H8   34   0.140   0.196  -0.265
    1UNL     H9   35   0.132   0.386  -0.133
    1UNL    H10   36   0.185   0.293   0.109
    1UNL    H11   37   0.043   0.381   0.103
    1UNL    H12   38  -0.024   0.139   0.305
    1UNL    H13   39   0.142   0.094   0.260
    1UNL    H14   40   0.061  -0.136   0.213
    1UNL    H15   41  -0.101  -0.091   0.266
    1UNL    H16   42  -0.209   0.161   0.180
    1UNL    H17   43  -0.445   0.230   0.172
    1UNL    H18   44  -0.607   0.064   0.107
    1UNL    H19   45  -0.533  -0.116  -0.068
    1UNL    H20   46  -0.357  -0.229  -0.168
    1UNL    H21   47   0.023  -0.233  -0.014
    1UNL    H22   48   0.141  -0.136  -0.198
    1UNL    H23   49  -0.003  -0.056  -0.264
    1UNL    H24   50  -0.091   0.140  -0.072
   0.00000   0.00000   0.00000   0.00000   0.00000   0.00000   0.00000   0.00000   0.00000
Generated with MDTraj, t= 56.0
 50
    1UNL     C1    1   0.257  -0.342   0.098
    1UNL     O1    2   0.250  -0.235   0.003
    1UNL     C2    3   0.247  -0.116   0.062
    1UNL     O2    4   0.252  -0.083   0.182
    1UNL     C3    5   0.251  -0.003  -0.039
    1UNL     C4    6   0.348   0.103   0.018
    1UNL     C5    7   0.116   0.055  -0.093
    1UNL     C6    8   0.137   0.191  -0.162
    1UNL     C7    9   0.142   0.303  -0.088
    1UNL     C8   10   0.118   0.311   0.060
    1UNL     N1   11   0.029   0.191   0.099
    1UNL     C9   12   0.042   0.105   0.217
    1UNL    C10   13  -0.027  -0.033   0.195
    1UNL    C11   14  -0.086  -0.025   0.042
    1UNL    C12   15  -0.239  -0.001   0.043
    1UNL    C13   16  -0.291   0.097   0.126
    1UNL    C14   17  -0.429   0.100   0.145
    1UNL    C15   18  -0.518   0.015   0.086
    1UNL    C16   19  -0.467  -0.082   0.006
    1UNL    C17   20  -0.326  -0.102  -0.004
    1UNL     N2   21  -0.275  -0.205  -0.086
    1UNL    C18   22  -0.144  -0.230  -0.127
    1UNL     O3   23  -0.124  -0.318  -0.209
    1UNL    C19   24  -0.035  -0.138  -0.060
    1UNL    C20   25   0.050  -0.060  -0.173
    1UNL    C21   26  -0.007   0.099  -0.011
    1UNL     H1   27   0.159  -0.358   0.145
    1UNL     H2   28   0.338  -0.307   0.166
    1UNL     H3   29   0.288  -0.428   0.043
    1UNL     H4   30   0.304  -0.051  -0.126
    1UNL     H5   31   0.305   0.137   0.117
    1UNL     H6   32   0.445   0.049   0.037
    1UNL     H7   33   0.364   0.176  -0.056
    1UNL     H8   34   0.154   0.199  -0.273
    1UNL     H9   35   0.172   0.402  -0.127
    1UNL    H10   36   0.213   0.307   0.108
    1UNL    H11   37   0.074   0.407   0.076
    1UNL    H12   38   0.007   0.161   0.301
    1UNL    H13   39   0.153   0.091   0.248
    1UNL    H14   40   0.039  -0.123   0.214
    1UNL    H15   41  -0.103  -0.059   0.278
    1UNL    H16   42  -0.225   0.146   0.195
    1UNL    H17   43  -0.458   0.169   0.209
    1UNL    H18   44  -0.627   0.028   0.076
    1UNL    H19   45  -0.525  -0.141  -0.055
    1UNL    H20   46  -0.351  -0.254  -0.138
    1UNL    H21   47   0.020  -0.225  -0.012
    1UNL    H22   48   0.118  -0.132  -0.213
    1UNL    H23   49  -0.016  -0.026  -0.249
    1UNL    H24   50  -0.070   0.148  -0.085
   0.00000   0.00000   0.00000   0.00000   0.00000   0.00000   0.00000   0.00000   0.00000
Generated with MDTraj, t= 57.0
 50
    1UNL     C1    1   0.224  -0.351   0.060
    1UNL     O1    2   0.234  -0.238  -0.022
    1UNL     C2    3   0.248  -0.125   0.050
    1UNL     O2    4   0.253  -0.114   0.174
    1UNL     C3    5   0.257   0.004  -0.031
    1UNL     C4    6   0.343   0.102   0.051
    1UNL     C5    7   0.118   0.057  -0.090
    1UNL     C6    8   0.140   0.188  -0.169
    1UNL     C7    9   0.138   0.301  -0.095
    1UNL     C8   10   0.106   0.316   0.052
    1UNL     N1   11   0.018   0.204   0.093
    1UNL     C9   12   0.040   0.125   0.218
    1UNL    C10   13  -0.029  -0.010   0.201
    1UNL    C11   14  -0.084  -0.015   0.050
    1UNL    C12   15  -0.236   0.003   0.048
    1UNL    C13   16  -0.292   0.099   0.126
    1UNL    C14   17  -0.432   0.107   0.142
    1UNL    C15   18  -0.514   0.005   0.088
    1UNL    C16   19  -0.456  -0.089   0.010
    1UNL    C17   20  -0.315  -0.098  -0.010
    1UNL     N2   21  -0.263  -0.203  -0.090
    1UNL    C18   22  -0.132  -0.234  -0.117
    1UNL     O3   23  -0.097  -0.328  -0.187
    1UNL    C19   24  -0.032  -0.133  -0.048
    1UNL    C20   25   0.051  -0.072  -0.157
    1UNL    C21   26  -0.009   0.108  -0.015
    1UNL     H1   27   0.131  -0.348   0.117
    1UNL     H2   28   0.317  -0.353   0.118
    1UNL     H3   29   0.221  -0.431  -0.009
    1UNL     H4   30   0.312  -0.032  -0.121
    1UNL     H5   31   0.308   0.114   0.151
    1UNL     H6   32   0.449   0.069   0.056
    1UNL     H7   33   0.355   0.200   0.000
    1UNL     H8   34   0.178   0.190  -0.269
    1UNL     H9   35   0.144   0.395  -0.146
    1UNL    H10   36   0.201   0.320   0.109
    1UNL    H11   37   0.052   0.406   0.065
    1UNL    H12   38   0.018   0.178   0.310
    1UNL    H13   39   0.147   0.104   0.225
    1UNL    H14   40   0.046  -0.092   0.213
    1UNL    H15   41  -0.102  -0.032   0.287
    1UNL    H16   42  -0.231   0.161   0.191
    1UNL    H17   43  -0.487   0.187   0.202
    1UNL    H18   44  -0.618   0.012   0.100
    1UNL    H19   45  -0.527  -0.161  -0.043
    1UNL    H20   46  -0.330  -0.279  -0.120
    1UNL    H21   47   0.034  -0.205   0.009
    1UNL    H22   48   0.116  -0.152  -0.194
    1UNL    H23   49  -0.007  -0.043  -0.241
    1UNL    H24   50  -0.080   0.144  -0.088
   0.00000   0.00000   0.00000   0.00000   0.00000   0.00000   0.00000   0.00000   0.00000
Generated with MDTraj, t= 58.0
 50
    1UNL     C1    1   0.251  -0.355   0.027
    1UNL     O1    2   0.259  -0.228  -0.039
    1UNL     C2    3   0.248  -0.121   0.047
    1UNL     O2    4   0.235  -0.116   0.169
    1UNL     C3    5   0.246   0.015  -0.024
    1UNL     C4    6   0.324   0.112   0.064
    1UNL     C5    7   0.110   0.053  -0.092
    1UNL     C6    8   0.151   0.180  -0.164
    1UNL     C7    9   0.144   0.292  -0.091
    1UNL     C8   10   0.093   0.311   0.049
    1UNL     N1   11   0.017   0.196   0.091
    1UNL     C9   12   0.028   0.122   0.224
    1UNL    C10   13  -0.030  -0.023   0.202
    1UNL    C11   14  -0.086  -0.029   0.057
    1UNL    C12   15  -0.231  -0.002   0.056
    1UNL    C13   16  -0.289   0.107   0.125
    1UNL    C14   17  -0.424   0.131   0.124
    1UNL    C15   18  -0.505   0.034   0.070
    1UNL    C16   19  -0.451  -0.081   0.019
    1UNL    C17   20  -0.314  -0.098  -0.002
    1UNL     N2   21  -0.269  -0.211  -0.075
    1UNL    C18   22  -0.135  -0.242  -0.102
    1UNL     O3   23  -0.093  -0.332  -0.175
    1UNL    C19   24  -0.034  -0.139  -0.050
    1UNL    C20   25   0.050  -0.078  -0.163
    1UNL    C21   26  -0.018   0.099  -0.012
    1UNL     H1   27   0.240  -0.342   0.136
    1UNL     H2   28   0.340  -0.413  -0.000
    1UNL     H3   29   0.164  -0.407  -0.006
    1UNL     H4   30   0.303  -0.006  -0.115
    1UNL     H5   31   0.264   0.147   0.144
    1UNL     H6   32   0.420   0.081   0.104
    1UNL     H7   33   0.359   0.204   0.006
    1UNL     H8   34   0.192   0.176  -0.262
    1UNL     H9   35   0.164   0.382  -0.148
    1UNL    H10   36   0.170   0.339   0.128
    1UNL    H11   37   0.021   0.390   0.049
    1UNL    H12   38  -0.035   0.181   0.293
    1UNL    H13   39   0.125   0.114   0.261
    1UNL    H14   40   0.048  -0.097   0.217
    1UNL    H15   41  -0.118  -0.045   0.274
    1UNL    H16   42  -0.222   0.175   0.177
    1UNL    H17   43  -0.464   0.221   0.182
    1UNL    H18   44  -0.613   0.051   0.096
    1UNL    H19   45  -0.506  -0.160  -0.019
    1UNL    H20   46  -0.328  -0.272  -0.130
    1UNL    H21   47   0.039  -0.198   0.013
    1UNL    H22   48   0.131  -0.143  -0.198
    1UNL    H23   49  -0.002  -0.051  -0.251
    1UNL    H24   50  -0.099   0.139  -0.073
   0.00000   0.00000   0.00000   0.00000   0.00000   0.00000   0.00000   0.00000   0.00000
Generated with MDTraj, t= 59.0
 50
    1UNL     C1    1   0.301  -0.350   0.021
    1UNL     O1    2   0.295  -0.231  -0.045
    1UNL     C2    3   0.264  -0.127   0.042
    1UNL     O2    4   0.243  -0.136   0.160
    1UNL     C3    5   0.259   0.006  -0.039
    1UNL     C4    6   0.339   0.096   0.055
    1UNL     C5    7   0.106   0.057  -0.091
    1UNL     C6    8   0.129   0.180  -0.165
    1UNL     C7    9   0.122   0.293  -0.094
    1UNL     C8   10   0.096   0.306   0.058
    1UNL     N1   11   0.011   0.198   0.108
    1UNL     C9   12   0.022   0.115   0.237
    1UNL    C10   13  -0.034  -0.027   0.206
    1UNL    C11   14  -0.092  -0.022   0.059
    1UNL    C12   15  -0.241  -0.001   0.059
    1UNL    C13   16  -0.299   0.119   0.108
    1UNL    C14   17  -0.434   0.144   0.105
    1UNL    C15   18  -0.518   0.046   0.047
    1UNL    C16   19  -0.464  -0.073   0.009
    1UNL    C17   20  -0.325  -0.096   0.006
    1UNL     N2   21  -0.269  -0.204  -0.064
    1UNL    C18   22  -0.137  -0.234  -0.095
    1UNL     O3   23  -0.103  -0.332  -0.159
    1UNL    C19   24  -0.034  -0.144  -0.036
    1UNL    C20   25   0.044  -0.070  -0.152
    1UNL    C21   26  -0.019   0.099  -0.001
    1UNL     H1   27   0.394  -0.359   0.083
    1UNL     H2   28   0.298  -0.429  -0.058
    1UNL     H3   29   0.218  -0.367   0.088
    1UNL     H4   30   0.317  -0.017  -0.128
    1UNL     H5   31   0.273   0.112   0.150
    1UNL     H6   32   0.434   0.057   0.080
    1UNL     H7   33   0.369   0.193   0.005
    1UNL     H8   34   0.145   0.166  -0.276
    1UNL     H9   35   0.149   0.382  -0.151
    1UNL    H10   36   0.186   0.302   0.127
    1UNL    H11   37   0.046   0.400   0.083
    1UNL    H12   38  -0.052   0.161   0.306
    1UNL    H13   39   0.121   0.105   0.266
    1UNL    H14   40   0.034  -0.113   0.214
    1UNL    H15   41  -0.134  -0.043   0.259
    1UNL    H16   42  -0.237   0.200   0.134
    1UNL    H17   43  -0.469   0.227   0.149
    1UNL    H18   44  -0.618   0.068   0.029
    1UNL    H19   45  -0.531  -0.150  -0.034
    1UNL    H20   46  -0.323  -0.286  -0.072
    1UNL    H21   47   0.030  -0.207   0.033
    1UNL    H22   48   0.126  -0.132  -0.182
    1UNL    H23   49  -0.015  -0.038  -0.237
    1UNL    H24   50  -0.093   0.150  -0.064
   0.00000   0.00000   0.00000   0.00000   0.00000   0.00000   0.00000   0.00000   0.00000
Generated with MDTraj, t= 60.0
 50
    1UNL     C1    1   0.325  -0.340   0.018
    1UNL     O1    2   0.314  -0.217  -0.041
    1UNL     C2    3   0.246  -0.127   0.038
    1UNL     O2    4   0.202  -0.140   0.146
    1UNL     C3    5   0.247   0.007  -0.031
    1UNL     C4    6   0.343   0.095   0.046
    1UNL     C5    7   0.104   0.059  -0.086
    1UNL     C6    8   0.127   0.185  -0.160
    1UNL     C7    9   0.123   0.302  -0.095
    1UNL     C8   10   0.104   0.310   0.057
    1UNL     N1   11   0.021   0.195   0.113
    1UNL     C9   12   0.035   0.107   0.236
    1UNL    C10   13  -0.038  -0.028   0.215
    1UNL    C11   14  -0.085  -0.031   0.061
    1UNL    C12   15  -0.239  -0.006   0.069
    1UNL    C13   16  -0.293   0.115   0.111
    1UNL    C14   17  -0.429   0.137   0.102
    1UNL    C15   18  -0.512   0.048   0.039
    1UNL    C16   19  -0.458  -0.068  -0.014
    1UNL    C17   20  -0.324  -0.091  -0.006
    1UNL     N2   21  -0.277  -0.212  -0.057
    1UNL    C18   22  -0.147  -0.238  -0.085
    1UNL     O3   23  -0.116  -0.342  -0.140
    1UNL    C19   24  -0.036  -0.149  -0.038
    1UNL    C20   25   0.049  -0.070  -0.155
    1UNL    C21   26  -0.019   0.101   0.003
    1UNL     H1   27   0.410  -0.398  -0.026
    1UNL     H2   28   0.226  -0.392   0.009
    1UNL     H3   29   0.350  -0.342   0.123
    1UNL     H4   30   0.292  -0.007  -0.129
    1UNL     H5   31   0.298   0.117   0.149
    1UNL     H6   32   0.436   0.043   0.047
    1UNL     H7   33   0.369   0.186  -0.016
    1UNL     H8   34   0.134   0.183  -0.263
    1UNL     H9   35   0.131   0.393  -0.150
    1UNL    H10   36   0.204   0.316   0.109
    1UNL    H11   37   0.042   0.400   0.091
    1UNL    H12   38  -0.011   0.164   0.318
    1UNL    H13   39   0.137   0.094   0.247
    1UNL    H14   40   0.014  -0.124   0.233
    1UNL    H15   41  -0.133  -0.032   0.276
    1UNL    H16   42  -0.231   0.193   0.158
    1UNL    H17   43  -0.480   0.236   0.131
    1UNL    H18   44  -0.617   0.066   0.012
    1UNL    H19   45  -0.523  -0.139  -0.063
    1UNL    H20   46  -0.334  -0.255  -0.126
    1UNL    H21   47   0.036  -0.218   0.014
    1UNL    H22   48   0.130  -0.118  -0.208
    1UNL    H23   49  -0.035  -0.040  -0.218
    1UNL    H24   50  -0.091   0.163  -0.053
   0.00000   0.00000   0.00000   0.00000   0.00000   0.00000   0.00000   0.00000   0.00000
Generated with MDTraj, t= 61.0
 50
    1UNL     C1    1   0.316  -0.350   0.032
    1UNL     O1    2   0.318  -0.230  -0.038
    1UNL     C2    3   0.255  -0.124   0.029
    1UNL     O2    4   0.209  -0.130   0.140
    1UNL     C3    5   0.255   0.007  -0.042
    1UNL     C4    6   0.331   0.107   0.034
    1UNL     C5    7   0.106   0.062  -0.092
    1UNL     C6    8   0.129   0.197  -0.162
    1UNL     C7    9   0.130   0.306  -0.085
    1UNL     C8   10   0.094   0.308   0.063
    1UNL     N1   11   0.019   0.184   0.115
    1UNL     C9   12   0.032   0.105   0.244
    1UNL    C10   13  -0.043  -0.023   0.212
    1UNL    C11   14  -0.086  -0.029   0.061
    1UNL    C12   15  -0.239  -0.001   0.057
    1UNL    C13   16  -0.289   0.113   0.116
    1UNL    C14   17  -0.428   0.129   0.113
    1UNL    C15   18  -0.508   0.045   0.048
    1UNL    C16   19  -0.462  -0.069  -0.022
    1UNL    C17   20  -0.323  -0.083  -0.021
    1UNL     N2   21  -0.277  -0.204  -0.085
    1UNL    C18   22  -0.146  -0.238  -0.080
    1UNL     O3   23  -0.121  -0.346  -0.127
    1UNL    C19   24  -0.034  -0.148  -0.027
    1UNL    C20   25   0.044  -0.073  -0.146
    1UNL    C21   26  -0.015   0.095  -0.001
    1UNL     H1   27   0.303  -0.441  -0.030
    1UNL     H2   28   0.240  -0.346   0.111
    1UNL     H3   29   0.409  -0.373   0.080
    1UNL     H4   30   0.301  -0.011  -0.139
    1UNL     H5   31   0.295   0.119   0.131
    1UNL     H6   32   0.437   0.076   0.033
    1UNL     H7   33   0.339   0.206  -0.019
    1UNL     H8   34   0.166   0.204  -0.268
    1UNL     H9   35   0.157   0.404  -0.123
    1UNL    H10   36   0.183   0.319   0.127
    1UNL    H11   37   0.025   0.405   0.076
    1UNL    H12   38   0.003   0.170   0.326
    1UNL    H13   39   0.138   0.093   0.258
    1UNL    H14   40   0.027  -0.109   0.234
    1UNL    H15   41  -0.127  -0.047   0.280
    1UNL    H16   42  -0.219   0.185   0.148
    1UNL    H17   43  -0.471   0.216   0.162
    1UNL    H18   44  -0.610   0.069   0.032
    1UNL    H19   45  -0.531  -0.139  -0.068
    1UNL    H20   46  -0.350  -0.276  -0.079
    1UNL    H21   47   0.049  -0.205   0.021
    1UNL    H22   48   0.124  -0.124  -0.195
    1UNL    H23   49  -0.039  -0.060  -0.218
    1UNL    H24   50  -0.087   0.153  -0.065
   0.00000   0.00000   0.00000   0.00000   0.00000   0.00000   0.00000   0.00000   0.00000
Generated with MDTraj, t= 62.0
 50
    1UNL     C1    1   0.293  -0.347   0.037
    1UNL     O1    2   0.267  -0.236  -0.034
    1UNL     C2    3   0.255  -0.124   0.046
    1UNL     O2    4   0.258  -0.119   0.169
    1UNL     C3    5   0.244   0.009  -0.027
    1UNL     C4    6   0.328   0.114   0.045
    1UNL     C5    7   0.099   0.057  -0.094
    1UNL     C6    8   0.124   0.187  -0.166
    1UNL     C7    9   0.128   0.297  -0.093
    1UNL     C8   10   0.107   0.302   0.057
    1UNL     N1   11   0.012   0.194   0.108
    1UNL     C9   12   0.042   0.104   0.220
    1UNL    C10   13  -0.032  -0.029   0.196
    1UNL    C11   14  -0.084  -0.027   0.055
    1UNL    C12   15  -0.240  -0.007   0.060
    1UNL    C13   16  -0.289   0.101   0.132
    1UNL    C14   17  -0.424   0.123   0.123
    1UNL    C15   18  -0.506   0.046   0.044
    1UNL    C16   19  -0.462  -0.068  -0.026
    1UNL    C17   20  -0.325  -0.088  -0.018
    1UNL     N2   21  -0.280  -0.204  -0.081
    1UNL    C18   22  -0.144  -0.234  -0.083
    1UNL     O3   23  -0.102  -0.328  -0.148
    1UNL    C19   24  -0.029  -0.142  -0.037
    1UNL    C20   25   0.042  -0.075  -0.159
    1UNL    C21   26  -0.023   0.096   0.000
    1UNL     H1   27   0.331  -0.431  -0.021
    1UNL     H2   28   0.207  -0.376   0.098
    1UNL     H3   29   0.371  -0.326   0.106
    1UNL     H4   30   0.290  -0.009  -0.125
    1UNL     H5   31   0.314   0.116   0.151
    1UNL     H6   32   0.438   0.096   0.031
    1UNL     H7   33   0.325   0.212   0.002
    1UNL     H8   34   0.144   0.189  -0.271
    1UNL     H9   35   0.159   0.390  -0.136
    1UNL    H10   36   0.203   0.302   0.112
    1UNL    H11   37   0.054   0.400   0.098
    1UNL    H12   38   0.018   0.155   0.311
    1UNL    H13   39   0.154   0.106   0.233
    1UNL    H14   40   0.037  -0.116   0.216
    1UNL    H15   41  -0.110  -0.045   0.271
    1UNL    H16   42  -0.224   0.172   0.183
    1UNL    H17   43  -0.461   0.201   0.182
    1UNL    H18   44  -0.615   0.056   0.051
    1UNL    H19   45  -0.535  -0.134  -0.079
    1UNL    H20   46  -0.345  -0.261  -0.139
    1UNL    H21   47   0.048  -0.199   0.023
    1UNL    H22   48   0.117  -0.136  -0.206
    1UNL    H23   49  -0.040  -0.063  -0.233
    1UNL    H24   50  -0.102   0.140  -0.067
   0.00000   0.00000   0.00000   0.00000   0.00000   0.00000   0.00000   0.00000   0.00000
Generated with MDTraj, t= 63.0
 50
    1UNL     C1    1   0.228  -0.341   0.070
    1UNL     O1    2   0.243  -0.234  -0.014
    1UNL     C2    3   0.254  -0.114   0.052
    1UNL     O2    4   0.257  -0.098   0.177
    1UNL     C3    5   0.259   0.006  -0.035
    1UNL     C4    6   0.345   0.114   0.024
    1UNL     C5    7   0.114   0.055  -0.092
    1UNL     C6    8   0.133   0.187  -0.164
    1UNL     C7    9   0.120   0.299  -0.093
    1UNL     C8   10   0.087   0.306   0.053
    1UNL     N1   11   0.017   0.183   0.103
    1UNL     C9   12   0.036   0.106   0.228
    1UNL    C10   13  -0.016  -0.041   0.194
    1UNL    C11   14  -0.081  -0.033   0.051
    1UNL    C12   15  -0.232  -0.014   0.060
    1UNL    C13   16  -0.281   0.100   0.127
    1UNL    C14   17  -0.415   0.127   0.128
    1UNL    C15   18  -0.503   0.036   0.063
    1UNL    C16   19  -0.458  -0.078   0.004
    1UNL    C17   20  -0.326  -0.107  -0.004
    1UNL     N2   21  -0.272  -0.205  -0.086
    1UNL    C18   22  -0.137  -0.225  -0.109
    1UNL     O3   23  -0.097  -0.308  -0.188
    1UNL    C19   24  -0.028  -0.146  -0.050
    1UNL    C20   25   0.056  -0.073  -0.158
    1UNL    C21   26  -0.017   0.090  -0.009
    1UNL     H1   27   0.271  -0.430   0.025
    1UNL     H2   28   0.123  -0.356   0.102
    1UNL     H3   29   0.286  -0.323   0.157
    1UNL     H4   30   0.310  -0.031  -0.127
    1UNL     H5   31   0.281   0.161   0.101
    1UNL     H6   32   0.440   0.076   0.073
    1UNL     H7   33   0.377   0.174  -0.054
    1UNL     H8   34   0.137   0.186  -0.269
    1UNL     H9   35   0.109   0.390  -0.149
    1UNL    H10   36   0.167   0.333   0.128
    1UNL    H11   37   0.010   0.392   0.072
    1UNL    H12   38  -0.024   0.151   0.302
    1UNL    H13   39   0.142   0.113   0.275
    1UNL    H14   40   0.065  -0.119   0.207
    1UNL    H15   41  -0.095  -0.062   0.266
    1UNL    H16   42  -0.213   0.171   0.171
    1UNL    H17   43  -0.460   0.218   0.182
    1UNL    H18   44  -0.604   0.055   0.080
    1UNL    H19   45  -0.523  -0.148  -0.035
    1UNL    H20   46  -0.331  -0.279  -0.131
    1UNL    H21   47   0.027  -0.222   0.009
    1UNL    H22   48   0.126  -0.136  -0.211
    1UNL    H23   49  -0.005  -0.038  -0.245
    1UNL    H24   50  -0.084   0.139  -0.084
   0.00000   0.00000   0.00000   0.00000   0.00000   0.00000   0.00000   0.00000   0.00000
Generated with MDTraj, t= 64.0
 50
    1UNL     C1    1   0.250  -0.330   0.117
    1UNL     O1    2   0.225  -0.231   0.022
    1UNL     C2    3   0.242  -0.106   0.069
    1UNL     O2    4   0.251  -0.082   0.193
    1UNL     C3    5   0.252   0.004  -0.039
    1UNL     C4    6   0.355   0.105   0.020
    1UNL     C5    7   0.117   0.058  -0.104
    1UNL     C6    8   0.150   0.194  -0.165
    1UNL     C7    9   0.141   0.307  -0.090
    1UNL     C8   10   0.106   0.310   0.056
    1UNL     N1   11   0.027   0.187   0.100
    1UNL     C9   12   0.046   0.095   0.217
    1UNL    C10   13  -0.021  -0.042   0.178
    1UNL    C11   14  -0.081  -0.031   0.034
    1UNL    C12   15  -0.234  -0.015   0.042
    1UNL    C13   16  -0.290   0.096   0.118
    1UNL    C14   17  -0.424   0.111   0.150
    1UNL    C15   18  -0.512   0.009   0.102
    1UNL    C16   19  -0.464  -0.088   0.023
    1UNL    C17   20  -0.327  -0.109  -0.003
    1UNL     N2   21  -0.283  -0.210  -0.090
    1UNL    C18   22  -0.152  -0.223  -0.141
    1UNL     O3   23  -0.111  -0.306  -0.220
    1UNL    C19   24  -0.040  -0.145  -0.074
    1UNL    C20   25   0.053  -0.070  -0.179
    1UNL    C21   26  -0.009   0.101  -0.016
    1UNL     H1   27   0.233  -0.427   0.069
    1UNL     H2   28   0.191  -0.307   0.209
    1UNL     H3   29   0.356  -0.323   0.137
    1UNL     H4   30   0.302  -0.042  -0.127
    1UNL     H5   31   0.299   0.158   0.096
    1UNL     H6   32   0.448   0.063   0.068
    1UNL     H7   33   0.387   0.168  -0.059
    1UNL     H8   34   0.210   0.196  -0.261
    1UNL     H9   35   0.168   0.401  -0.136
    1UNL    H10   36   0.202   0.313   0.122
    1UNL    H11   37   0.046   0.402   0.084
    1UNL    H12   38   0.008   0.130   0.308
    1UNL    H13   39   0.153   0.066   0.243
    1UNL    H14   40   0.051  -0.123   0.195
    1UNL    H15   41  -0.104  -0.057   0.247
    1UNL    H16   42  -0.223   0.171   0.154
    1UNL    H17   43  -0.465   0.190   0.204
    1UNL    H18   44  -0.619   0.030   0.125
    1UNL    H19   45  -0.535  -0.167  -0.015
    1UNL    H20   46  -0.350  -0.283  -0.120
    1UNL    H21   47   0.024  -0.221  -0.029
    1UNL    H22   48   0.130  -0.129  -0.228
    1UNL    H23   49   0.006  -0.032  -0.271
    1UNL    H24   50  -0.068   0.169  -0.079
   0.00000   0.00000   0.00000   0.00000   0.00000   0.00000   0.00000   0.00000   0.00000
Generated with MDTraj, t= 65.0
 50
    1UNL     C1    1   0.250  -0.324   0.148
    1UNL     O1    2   0.225  -0.238   0.040
    1UNL     C2    3   0.258  -0.110   0.073
    1UNL     O2    4   0.286  -0.073   0.188
    1UNL     C3    5   0.254  -0.010  -0.038
    1UNL     C4    6   0.362   0.090  -0.007
    1UNL     C5    7   0.112   0.054  -0.089
    1UNL     C6    8   0.151   0.182  -0.159
    1UNL     C7    9   0.144   0.300  -0.095
    1UNL     C8   10   0.121   0.299   0.053
    1UNL     N1   11   0.025   0.190   0.088
    1UNL     C9   12   0.037   0.117   0.218
    1UNL    C10   13  -0.026  -0.028   0.186
    1UNL    C11   14  -0.093  -0.031   0.042
    1UNL    C12   15  -0.247  -0.013   0.044
    1UNL    C13   16  -0.298   0.084   0.123
    1UNL    C14   17  -0.426   0.090   0.158
    1UNL    C15   18  -0.516  -0.001   0.110
    1UNL    C16   19  -0.470  -0.094   0.022
    1UNL    C17   20  -0.329  -0.108  -0.014
    1UNL     N2   21  -0.283  -0.204  -0.107
    1UNL    C18   22  -0.147  -0.215  -0.151
    1UNL     O3   23  -0.117  -0.276  -0.254
    1UNL    C19   24  -0.045  -0.136  -0.068
    1UNL    C20   25   0.057  -0.066  -0.167
    1UNL    C21   26  -0.023   0.097  -0.015
    1UNL     H1   27   0.206  -0.422   0.123
    1UNL     H2   28   0.214  -0.271   0.240
    1UNL     H3   29   0.360  -0.332   0.145
    1UNL     H4   30   0.287  -0.069  -0.127
    1UNL     H5   31   0.363   0.113   0.096
    1UNL     H6   32   0.466   0.066  -0.034
    1UNL     H7   33   0.349   0.183  -0.067
    1UNL     H8   34   0.148   0.187  -0.262
    1UNL     H9   35   0.148   0.394  -0.150
    1UNL    H10   36   0.222   0.291   0.113
    1UNL    H11   37   0.065   0.394   0.078
    1UNL    H12   38  -0.016   0.162   0.301
    1UNL    H13   39   0.144   0.113   0.245
    1UNL    H14   40   0.054  -0.098   0.184
    1UNL    H15   41  -0.095  -0.050   0.269
    1UNL    H16   42  -0.221   0.149   0.167
    1UNL    H17   43  -0.459   0.182   0.214
    1UNL    H18   44  -0.619  -0.005   0.140
    1UNL    H19   45  -0.536  -0.161  -0.024
    1UNL    H20   46  -0.351  -0.230  -0.176
    1UNL    H21   47   0.010  -0.208  -0.009
    1UNL    H22   48   0.127  -0.143  -0.204
    1UNL    H23   49   0.013  -0.024  -0.257
    1UNL    H24   50  -0.091   0.152  -0.080
   0.00000   0.00000   0.00000   0.00000   0.00000   0.00000   0.00000   0.00000   0.00000
Generated with MDTraj, t= 66.0
 50
    1UNL     C1    1   0.229  -0.318   0.146
    1UNL     O1    2   0.212  -0.221   0.043
    1UNL     C2    3   0.249  -0.096   0.080
    1UNL     O2    4   0.277  -0.064   0.194
    1UNL     C3    5   0.255   0.005  -0.036
    1UNL     C4    6   0.360   0.117   0.007
    1UNL     C5    7   0.115   0.044  -0.104
    1UNL     C6    8   0.140   0.179  -0.165
    1UNL     C7    9   0.142   0.294  -0.093
    1UNL     C8   10   0.090   0.309   0.051
    1UNL     N1   11   0.017   0.186   0.095
    1UNL     C9   12   0.051   0.093   0.211
    1UNL    C10   13  -0.016  -0.049   0.182
    1UNL    C11   14  -0.080  -0.043   0.035
    1UNL    C12   15  -0.232  -0.019   0.051
    1UNL    C13   16  -0.274   0.069   0.138
    1UNL    C14   17  -0.411   0.094   0.164
    1UNL    C15   18  -0.509   0.019   0.109
    1UNL    C16   19  -0.463  -0.073   0.015
    1UNL    C17   20  -0.326  -0.101  -0.010
    1UNL     N2   21  -0.282  -0.194  -0.111
    1UNL    C18   22  -0.153  -0.217  -0.157
    1UNL     O3   23  -0.120  -0.281  -0.254
    1UNL    C19   24  -0.041  -0.155  -0.076
    1UNL    C20   25   0.051  -0.087  -0.175
    1UNL    C21   26  -0.007   0.082  -0.013
    1UNL     H1   27   0.218  -0.418   0.103
    1UNL     H2   28   0.156  -0.286   0.224
    1UNL     H3   29   0.332  -0.298   0.177
    1UNL     H4   30   0.304  -0.051  -0.119
    1UNL     H5   31   0.331   0.164   0.097
    1UNL     H6   32   0.457   0.082   0.025
    1UNL     H7   33   0.378   0.190  -0.079
    1UNL     H8   34   0.179   0.178  -0.269
    1UNL     H9   35   0.175   0.385  -0.139
    1UNL    H10   36   0.173   0.326   0.126
    1UNL    H11   37   0.017   0.396   0.050
    1UNL    H12   38   0.015   0.148   0.296
    1UNL    H13   39   0.155   0.098   0.214
    1UNL    H14   40   0.060  -0.123   0.179
    1UNL    H15   41  -0.085  -0.082   0.259
    1UNL    H16   42  -0.204   0.134   0.182
    1UNL    H17   43  -0.441   0.171   0.225
    1UNL    H18   44  -0.610   0.042   0.128
    1UNL    H19   45  -0.538  -0.115  -0.049
    1UNL    H20   46  -0.354  -0.258  -0.133
    1UNL    H21   47   0.010  -0.235  -0.026
    1UNL    H22   48   0.131  -0.163  -0.185
    1UNL    H23   49  -0.008  -0.077  -0.266
    1UNL    H24   50  -0.074   0.133  -0.083
   0.00000   0.00000   0.00000   0.00000   0.00000   0.00000   0.00000   0.00000   0.00000
Generated with MDTraj, t= 67.0
 50
    1UNL     C1    1   0.248  -0.331   0.126
    1UNL     O1    2   0.226  -0.236   0.026
    1UNL     C2    3   0.263  -0.111   0.069
    1UNL     O2    4   0.300  -0.090   0.180
    1UNL     C3    5   0.257   0.006  -0.026
    1UNL     C4    6   0.338   0.123   0.038
    1UNL     C5    7   0.115   0.049  -0.094
    1UNL     C6    8   0.129   0.182  -0.172
    1UNL     C7    9   0.119   0.292  -0.106
    1UNL     C8   10   0.085   0.298   0.038
    1UNL     N1   11   0.025   0.173   0.092
    1UNL     C9   12   0.047   0.090   0.216
    1UNL    C10   13  -0.007  -0.043   0.186
    1UNL    C11   14  -0.087  -0.036   0.044
    1UNL    C12   15  -0.238  -0.011   0.051
    1UNL    C13   16  -0.291   0.089   0.139
    1UNL    C14   17  -0.424   0.110   0.157
    1UNL    C15   18  -0.502   0.030   0.089
    1UNL    C16   19  -0.456  -0.074   0.006
    1UNL    C17   20  -0.327  -0.095  -0.019
    1UNL     N2   21  -0.279  -0.193  -0.108
    1UNL    C18   22  -0.150  -0.214  -0.138
    1UNL     O3   23  -0.118  -0.295  -0.222
    1UNL    C19   24  -0.046  -0.135  -0.064
    1UNL    C20   25   0.061  -0.073  -0.163
    1UNL    C21   26  -0.016   0.083  -0.017
    1UNL     H1   27   0.233  -0.429   0.083
    1UNL     H2   28   0.177  -0.302   0.205
    1UNL     H3   29   0.352  -0.315   0.155
    1UNL     H4   30   0.316  -0.033  -0.111
    1UNL     H5   31   0.312   0.139   0.147
    1UNL     H6   32   0.436   0.092   0.043
    1UNL     H7   33   0.341   0.210  -0.032
    1UNL     H8   34   0.153   0.177  -0.275
    1UNL     H9   35   0.129   0.386  -0.160
    1UNL    H10   36   0.171   0.328   0.099
    1UNL    H11   37   0.001   0.373   0.057
    1UNL    H12   38  -0.007   0.150   0.290
    1UNL    H13   39   0.146   0.089   0.238
    1UNL    H14   40   0.072  -0.122   0.179
    1UNL    H15   41  -0.073  -0.081   0.261
    1UNL    H16   42  -0.222   0.149   0.204
    1UNL    H17   43  -0.458   0.188   0.230
    1UNL    H18   44  -0.614   0.029   0.102
    1UNL    H19   45  -0.526  -0.142  -0.045
    1UNL    H20   46  -0.336  -0.222  -0.184
    1UNL    H21   47   0.014  -0.206  -0.010
    1UNL    H22   48   0.138  -0.148  -0.197
    1UNL    H23   49  -0.007  -0.042  -0.242
    1UNL    H24   50  -0.076   0.139  -0.089
   0.00000   0.00000   0.00000   0.00000   0.00000   0.00000   0.00000   0.00000   0.00000
Generated with MDTraj, t= 68.0
 50
    1UNL     C1    1   0.260  -0.338   0.064
    1UNL     O1    2   0.260  -0.221  -0.016
    1UNL     C2    3   0.246  -0.108   0.061
    1UNL     O2    4   0.249  -0.097   0.178
    1UNL     C3    5   0.251   0.014  -0.029
    1UNL     C4    6   0.367   0.109   0.021
    1UNL     C5    7   0.108   0.051  -0.092
    1UNL     C6    8   0.137   0.183  -0.166
    1UNL     C7    9   0.126   0.294  -0.097
    1UNL     C8   10   0.101   0.298   0.053
    1UNL     N1   11   0.009   0.194   0.109
    1UNL     C9   12   0.042   0.104   0.224
    1UNL    C10   13  -0.024  -0.040   0.197
    1UNL    C11   14  -0.083  -0.032   0.054
    1UNL    C12   15  -0.233  -0.016   0.062
    1UNL    C13   16  -0.294   0.098   0.127
    1UNL    C14   17  -0.433   0.117   0.126
    1UNL    C15   18  -0.515   0.031   0.063
    1UNL    C16   19  -0.464  -0.075  -0.012
    1UNL    C17   20  -0.326  -0.093  -0.007
    1UNL     N2   21  -0.273  -0.203  -0.079
    1UNL    C18   22  -0.140  -0.224  -0.111
    1UNL     O3   23  -0.106  -0.310  -0.191
    1UNL    C19   24  -0.035  -0.149  -0.045
    1UNL    C20   25   0.046  -0.081  -0.157
    1UNL    C21   26  -0.012   0.091  -0.003
    1UNL     H1   27   0.213  -0.421   0.014
    1UNL     H2   28   0.204  -0.311   0.155
    1UNL     H3   29   0.363  -0.354   0.090
    1UNL     H4   30   0.294  -0.028  -0.121
    1UNL     H5   31   0.364   0.133   0.133
    1UNL     H6   32   0.463   0.063   0.012
    1UNL     H7   33   0.377   0.195  -0.040
    1UNL     H8   34   0.167   0.169  -0.268
    1UNL     H9   35   0.155   0.385  -0.144
    1UNL    H10   36   0.192   0.283   0.107
    1UNL    H11   37   0.058   0.399   0.082
    1UNL    H12   38   0.006   0.147   0.317
    1UNL    H13   39   0.147   0.099   0.224
    1UNL    H14   40   0.047  -0.128   0.195
    1UNL    H15   41  -0.102  -0.067   0.262
    1UNL    H16   42  -0.236   0.164   0.182
    1UNL    H17   43  -0.474   0.197   0.186
    1UNL    H18   44  -0.619   0.040   0.063
    1UNL    H19   45  -0.537  -0.136  -0.057
    1UNL    H20   46  -0.330  -0.275  -0.122
    1UNL    H21   47   0.022  -0.215   0.017
    1UNL    H22   48   0.123  -0.152  -0.198
    1UNL    H23   49  -0.027  -0.055  -0.233
    1UNL    H24   50  -0.081   0.142  -0.070
   0.00000   0.00000   0.00000   0.00000   0.00000   0.00000   0.00000   0.00000   0.00000
Generated with MDTraj, t= 69.0
 50
    1UNL     C1    1   0.277  -0.344   0.048
    1UNL     O1    2   0.273  -0.238  -0.040
    1UNL     C2    3   0.243  -0.123   0.033
    1UNL     O2    4   0.230  -0.124   0.151
    1UNL     C3    5   0.240   0.003  -0.049
    1UNL     C4    6   0.311   0.094   0.044
    1UNL     C5    7   0.108   0.066  -0.089
    1UNL     C6    8   0.141   0.198  -0.159
    1UNL     C7    9   0.142   0.311  -0.084
    1UNL     C8   10   0.095   0.309   0.063
    1UNL     N1   11   0.019   0.188   0.115
    1UNL     C9   12   0.039   0.107   0.238
    1UNL    C10   13  -0.030  -0.033   0.200
    1UNL    C11   14  -0.083  -0.025   0.058
    1UNL    C12   15  -0.232  -0.000   0.049
    1UNL    C13   16  -0.286   0.117   0.089
    1UNL    C14   17  -0.421   0.126   0.101
    1UNL    C15   18  -0.509   0.028   0.059
    1UNL    C16   19  -0.455  -0.083  -0.006
    1UNL    C17   20  -0.320  -0.096  -0.010
    1UNL     N2   21  -0.264  -0.210  -0.067
    1UNL    C18   22  -0.130  -0.239  -0.081
    1UNL     O3   23  -0.100  -0.341  -0.138
    1UNL    C19   24  -0.029  -0.137  -0.039
    1UNL    C20   25   0.033  -0.049  -0.159
    1UNL    C21   26  -0.012   0.101   0.001
    1UNL     H1   27   0.305  -0.435  -0.002
    1UNL     H2   28   0.174  -0.362   0.089
    1UNL     H3   29   0.346  -0.314   0.127
    1UNL     H4   30   0.288  -0.017  -0.146
    1UNL     H5   31   0.248   0.126   0.123
    1UNL     H6   32   0.402   0.051   0.094
    1UNL     H7   33   0.342   0.176  -0.011
    1UNL     H8   34   0.160   0.200  -0.268
    1UNL     H9   35   0.174   0.401  -0.135
    1UNL    H10   36   0.181   0.323   0.124
    1UNL    H11   37   0.018   0.391   0.077
    1UNL    H12   38  -0.025   0.151   0.311
    1UNL    H13   39   0.140   0.100   0.275
    1UNL    H14   40   0.051  -0.110   0.208
    1UNL    H15   41  -0.109  -0.061   0.265
    1UNL    H16   42  -0.217   0.202   0.110
    1UNL    H17   43  -0.461   0.207   0.152
    1UNL    H18   44  -0.615   0.053   0.083
    1UNL    H19   45  -0.525  -0.163  -0.038
    1UNL    H20   46  -0.334  -0.276  -0.106
    1UNL    H21   47   0.039  -0.187   0.026
    1UNL    H22   48   0.109  -0.102  -0.219
    1UNL    H23   49  -0.039  -0.009  -0.230
    1UNL    H24   50  -0.096   0.145  -0.056
   0.00000   0.00000   0.00000   0.00000   0.00000   0.00000   0.00000   0.00000   0.00000
Generated with MDTraj, t= 70.0
 50
    1UNL     C1    1   0.270  -0.343  -0.017
    1UNL     O1    2   0.297  -0.215  -0.053
    1UNL     C2    3   0.255  -0.119   0.033
    1UNL     O2    4   0.227  -0.142   0.148
    1UNL     C3    5   0.248   0.019  -0.030
    1UNL     C4    6   0.337   0.104   0.057
    1UNL     C5    7   0.106   0.059  -0.084
    1UNL     C6    8   0.133   0.189  -0.159
    1UNL     C7    9   0.135   0.304  -0.085
    1UNL     C8   10   0.107   0.306   0.061
    1UNL     N1   11   0.016   0.200   0.116
    1UNL     C9   12   0.026   0.117   0.236
    1UNL    C10   13  -0.041  -0.020   0.208
    1UNL    C11   14  -0.083  -0.024   0.061
    1UNL    C12   15  -0.236  -0.001   0.052
    1UNL    C13   16  -0.297   0.115   0.087
    1UNL    C14   17  -0.431   0.127   0.096
    1UNL    C15   18  -0.515   0.032   0.039
    1UNL    C16   19  -0.457  -0.074  -0.017
    1UNL    C17   20  -0.318  -0.095  -0.011
    1UNL     N2   21  -0.275  -0.219  -0.048
    1UNL    C18   22  -0.140  -0.247  -0.062
    1UNL     O3   23  -0.102  -0.344  -0.121
    1UNL    C19   24  -0.033  -0.143  -0.024
    1UNL    C20   25   0.045  -0.079  -0.146
    1UNL    C21   26  -0.007   0.101   0.003
    1UNL     H1   27   0.333  -0.418  -0.064
    1UNL     H2   28   0.165  -0.371  -0.046
    1UNL     H3   29   0.280  -0.350   0.093
    1UNL     H4   30   0.297   0.014  -0.127
    1UNL     H5   31   0.298   0.129   0.148
    1UNL     H6   32   0.431   0.043   0.077
    1UNL     H7   33   0.364   0.189   0.002
    1UNL     H8   34   0.175   0.192  -0.254
    1UNL     H9   35   0.172   0.394  -0.132
    1UNL    H10   36   0.203   0.293   0.107
    1UNL    H11   37   0.061   0.405   0.077
    1UNL    H12   38  -0.011   0.166   0.319
    1UNL    H13   39   0.131   0.095   0.257
    1UNL    H14   40   0.032  -0.096   0.246
    1UNL    H15   41  -0.129  -0.026   0.268
    1UNL    H16   42  -0.232   0.196   0.107
    1UNL    H17   43  -0.480   0.228   0.127
    1UNL    H18   44  -0.620   0.038   0.046
    1UNL    H19   45  -0.516  -0.144  -0.067
    1UNL    H20   46  -0.344  -0.283  -0.091
    1UNL    H21   47   0.039  -0.200   0.030
    1UNL    H22   48   0.113  -0.153  -0.192
    1UNL    H23   49  -0.022  -0.049  -0.229
    1UNL    H24   50  -0.086   0.147  -0.060
   0.00000   0.00000   0.00000   0.00000   0.00000   0.00000   0.00000   0.00000   0.00000
Generated with MDTraj, t= 71.0
 50
    1UNL     C1    1   0.285  -0.357  -0.024
    1UNL     O1    2   0.293  -0.231  -0.063
    1UNL     C2    3   0.250  -0.133   0.025
    1UNL     O2    4   0.216  -0.167   0.140
    1UNL     C3    5   0.252   0.008  -0.026
    1UNL     C4    6   0.330   0.091   0.072
    1UNL     C5    7   0.112   0.058  -0.079
    1UNL     C6    8   0.128   0.186  -0.159
    1UNL     C7    9   0.119   0.306  -0.097
    1UNL     C8   10   0.086   0.320   0.049
    1UNL     N1   11   0.015   0.200   0.102
    1UNL     C9   12   0.011   0.142   0.242
    1UNL    C10   13  -0.026  -0.008   0.218
    1UNL    C11   14  -0.088  -0.020   0.069
    1UNL    C12   15  -0.237  -0.011   0.068
    1UNL    C13   16  -0.293   0.110   0.118
    1UNL    C14   17  -0.430   0.135   0.097
    1UNL    C15   18  -0.504   0.044   0.024
    1UNL    C16   19  -0.450  -0.069  -0.019
    1UNL    C17   20  -0.311  -0.098  -0.006
    1UNL     N2   21  -0.262  -0.212  -0.066
    1UNL    C18   22  -0.125  -0.233  -0.071
    1UNL     O3   23  -0.091  -0.339  -0.115
    1UNL    C19   24  -0.029  -0.137  -0.018
    1UNL    C20   25   0.044  -0.070  -0.137
    1UNL    C21   26  -0.017   0.100   0.002
    1UNL     H1   27   0.340  -0.427  -0.084
    1UNL     H2   28   0.180  -0.395  -0.037
    1UNL     H3   29   0.315  -0.370   0.081
    1UNL     H4   30   0.308   0.007  -0.119
    1UNL     H5   31   0.268   0.100   0.165
    1UNL     H6   32   0.425   0.048   0.102
    1UNL     H7   33   0.343   0.190   0.033
    1UNL     H8   34   0.129   0.175  -0.270
    1UNL     H9   35   0.107   0.396  -0.156
    1UNL    H10   36   0.178   0.334   0.104
    1UNL    H11   37   0.019   0.402   0.065
    1UNL    H12   38  -0.051   0.187   0.310
    1UNL    H13   39   0.113   0.155   0.290
    1UNL    H14   40   0.062  -0.070   0.224
    1UNL    H15   41  -0.087  -0.044   0.301
    1UNL    H16   42  -0.241   0.202   0.145
    1UNL    H17   43  -0.480   0.218   0.127
    1UNL    H18   44  -0.604   0.069  -0.019
    1UNL    H19   45  -0.515  -0.150  -0.058
    1UNL    H20   46  -0.317  -0.295  -0.084
    1UNL    H21   47   0.041  -0.203   0.028
    1UNL    H22   48   0.109  -0.144  -0.182
    1UNL    H23   49  -0.036  -0.045  -0.211
    1UNL    H24   50  -0.092   0.145  -0.067
   0.00000   0.00000   0.00000   0.00000   0.00000   0.00000   0.00000   0.00000   0.00000
Generated with MDTraj, t= 72.0
 50
    1UNL     C1    1   0.296  -0.348  -0.019
    1UNL     O1    2   0.286  -0.220  -0.064
    1UNL     C2    3   0.255  -0.124   0.030
    1UNL     O2    4   0.233  -0.150   0.149
    1UNL     C3    5   0.249   0.016  -0.017
    1UNL     C4    6   0.311   0.107   0.089
    1UNL     C5    7   0.109   0.047  -0.091
    1UNL     C6    8   0.142   0.183  -0.160
    1UNL     C7    9   0.143   0.297  -0.096
    1UNL     C8   10   0.099   0.318   0.050
    1UNL     N1   11   0.023   0.193   0.098
    1UNL     C9   12   0.002   0.132   0.235
    1UNL    C10   13  -0.034  -0.016   0.200
    1UNL    C11   14  -0.092  -0.024   0.057
    1UNL    C12   15  -0.241  -0.006   0.063
    1UNL    C13   16  -0.296   0.103   0.122
    1UNL    C14   17  -0.430   0.135   0.111
    1UNL    C15   18  -0.510   0.048   0.045
    1UNL    C16   19  -0.463  -0.067  -0.005
    1UNL    C17   20  -0.329  -0.094  -0.008
    1UNL     N2   21  -0.271  -0.202  -0.072
    1UNL    C18   22  -0.130  -0.240  -0.075
    1UNL     O3   23  -0.096  -0.353  -0.109
    1UNL    C19   24  -0.032  -0.140  -0.037
    1UNL    C20   25   0.055  -0.083  -0.161
    1UNL    C21   26  -0.010   0.093  -0.004
    1UNL     H1   27   0.295  -0.432  -0.083
    1UNL     H2   28   0.210  -0.371   0.048
    1UNL     H3   29   0.382  -0.358   0.047
    1UNL     H4   30   0.321   0.023  -0.100
    1UNL     H5   31   0.251   0.106   0.179
    1UNL     H6   32   0.408   0.079   0.119
    1UNL     H7   33   0.317   0.214   0.053
    1UNL     H8   34   0.166   0.181  -0.261
    1UNL     H9   35   0.182   0.381  -0.151
    1UNL    H10   36   0.173   0.345   0.127
    1UNL    H11   37   0.032   0.395   0.057
    1UNL    H12   38  -0.073   0.180   0.287
    1UNL    H13   39   0.085   0.148   0.311
    1UNL    H14   40   0.056  -0.070   0.210
    1UNL    H15   41  -0.108  -0.067   0.264
    1UNL    H16   42  -0.239   0.177   0.178
    1UNL    H17   43  -0.464   0.236   0.145
    1UNL    H18   44  -0.612   0.070   0.049
    1UNL    H19   45  -0.523  -0.154  -0.033
    1UNL    H20   46  -0.329  -0.242  -0.143
    1UNL    H21   47   0.035  -0.201   0.022
    1UNL    H22   48   0.132  -0.156  -0.185
    1UNL    H23   49  -0.012  -0.064  -0.249
    1UNL    H24   50  -0.084   0.142  -0.071
   0.00000   0.00000   0.00000   0.00000   0.00000   0.00000   0.00000   0.00000   0.00000
Generated with MDTraj, t= 73.0
 50
    1UNL     C1    1   0.292  -0.354   0.012
    1UNL     O1    2   0.290  -0.233  -0.044
    1UNL     C2    3   0.260  -0.128   0.040
    1UNL     O2    4   0.231  -0.143   0.157
    1UNL     C3    5   0.259   0.005  -0.025
    1UNL     C4    6   0.339   0.109   0.050
    1UNL     C5    7   0.112   0.056  -0.082
    1UNL     C6    8   0.132   0.190  -0.161
    1UNL     C7    9   0.126   0.303  -0.093
    1UNL     C8   10   0.102   0.301   0.054
    1UNL     N1   11   0.010   0.194   0.103
    1UNL     C9   12   0.032   0.122   0.226
    1UNL    C10   13  -0.052  -0.010   0.207
    1UNL    C11   14  -0.094  -0.020   0.056
    1UNL    C12   15  -0.247   0.002   0.047
    1UNL    C13   16  -0.304   0.109   0.109
    1UNL    C14   17  -0.439   0.136   0.115
    1UNL    C15   18  -0.518   0.042   0.058
    1UNL    C16   19  -0.465  -0.077   0.006
    1UNL    C17   20  -0.326  -0.100  -0.003
    1UNL     N2   21  -0.265  -0.207  -0.071
    1UNL    C18   22  -0.130  -0.235  -0.099
    1UNL     O3   23  -0.085  -0.333  -0.157
    1UNL    C19   24  -0.038  -0.140  -0.033
    1UNL    C20   25   0.055  -0.079  -0.139
    1UNL    C21   26  -0.017   0.100  -0.000
    1UNL     H1   27   0.290  -0.440  -0.050
    1UNL     H2   28   0.203  -0.371   0.075
    1UNL     H3   29   0.376  -0.365   0.079
    1UNL     H4   30   0.317  -0.011  -0.119
    1UNL     H5   31   0.300   0.128   0.145
    1UNL     H6   32   0.440   0.081   0.063
    1UNL     H7   33   0.342   0.207  -0.010
    1UNL     H8   34   0.138   0.179  -0.271
    1UNL     H9   35   0.143   0.402  -0.134
    1UNL    H10   36   0.195   0.289   0.108
    1UNL    H11   37   0.063   0.387   0.092
    1UNL    H12   38   0.013   0.182   0.312
    1UNL    H13   39   0.136   0.090   0.230
    1UNL    H14   40   0.010  -0.091   0.237
    1UNL    H15   41  -0.143  -0.004   0.269
    1UNL    H16   42  -0.242   0.188   0.153
    1UNL    H17   43  -0.474   0.232   0.161
    1UNL    H18   44  -0.626   0.060   0.074
    1UNL    H19   45  -0.534  -0.143  -0.032
    1UNL    H20   46  -0.313  -0.293  -0.057
    1UNL    H21   47   0.017  -0.197   0.041
    1UNL    H22   48   0.139  -0.146  -0.161
    1UNL    H23   49  -0.003  -0.058  -0.233
    1UNL    H24   50  -0.094   0.145  -0.067
   0.00000   0.00000   0.00000   0.00000   0.00000   0.00000   0.00000   0.00000   0.00000
Generated with MDTraj, t= 74.0
 50
    1UNL     C1    1   0.278  -0.343   0.077
    1UNL     O1    2   0.274  -0.245  -0.014
    1UNL     C2    3   0.248  -0.121   0.045
    1UNL     O2    4   0.232  -0.106   0.162
    1UNL     C3    5   0.244   0.005  -0.041
    1UNL     C4    6   0.332   0.114   0.021
    1UNL     C5    7   0.107   0.061  -0.090
    1UNL     C6    8   0.132   0.199  -0.152
    1UNL     C7    9   0.139   0.313  -0.082
    1UNL     C8   10   0.118   0.312   0.066
    1UNL     N1   11   0.033   0.190   0.109
    1UNL     C9   12   0.052   0.106   0.229
    1UNL    C10   13  -0.036  -0.023   0.203
    1UNL    C11   14  -0.085  -0.029   0.047
    1UNL    C12   15  -0.234  -0.013   0.055
    1UNL    C13   16  -0.298   0.100   0.114
    1UNL    C14   17  -0.432   0.130   0.105
    1UNL    C15   18  -0.516   0.036   0.062
    1UNL    C16   19  -0.457  -0.077   0.005
    1UNL    C17   20  -0.316  -0.113   0.014
    1UNL     N2   21  -0.266  -0.229  -0.062
    1UNL    C18   22  -0.143  -0.238  -0.111
    1UNL     O3   23  -0.117  -0.319  -0.196
    1UNL    C19   24  -0.043  -0.145  -0.062
    1UNL    C20   25   0.039  -0.063  -0.169
    1UNL    C21   26  -0.013   0.097  -0.001
    1UNL     H1   27   0.330  -0.435   0.059
    1UNL     H2   28   0.175  -0.379   0.099
    1UNL     H3   29   0.316  -0.306   0.173
    1UNL     H4   30   0.294  -0.021  -0.137
    1UNL     H5   31   0.290   0.154   0.116
    1UNL     H6   32   0.425   0.067   0.045
    1UNL     H7   33   0.359   0.199  -0.041
    1UNL     H8   34   0.146   0.213  -0.258
    1UNL     H9   35   0.141   0.407  -0.134
    1UNL    H10   36   0.210   0.316   0.118
    1UNL    H11   37   0.062   0.395   0.090
    1UNL    H12   38   0.007   0.157   0.316
    1UNL    H13   39   0.153   0.080   0.248
    1UNL    H14   40   0.021  -0.115   0.216
    1UNL    H15   41  -0.120  -0.014   0.272
    1UNL    H16   42  -0.227   0.170   0.149
    1UNL    H17   43  -0.469   0.217   0.142
    1UNL    H18   44  -0.622   0.042   0.062
    1UNL    H19   45  -0.531  -0.151  -0.045
    1UNL    H20   46  -0.333  -0.274  -0.124
    1UNL    H21   47   0.030  -0.199  -0.000
    1UNL    H22   48   0.118  -0.121  -0.223
    1UNL    H23   49  -0.023  -0.021  -0.250
    1UNL    H24   50  -0.084   0.149  -0.066
   0.00000   0.00000   0.00000   0.00000   0.00000   0.00000   0.00000   0.00000   0.00000
Generated with MDTraj, t= 75.0
 50
    1UNL     C1    1   0.251  -0.333   0.094
    1UNL     O1    2   0.236  -0.226   0.009
    1UNL     C2    3   0.253  -0.100   0.062
    1UNL     O2    4   0.268  -0.084   0.177
    1UNL     C3    5   0.262   0.006  -0.043
    1UNL     C4    6   0.358   0.119   0.005
    1UNL     C5    7   0.114   0.053  -0.091
    1UNL     C6    8   0.132   0.193  -0.157
    1UNL     C7    9   0.131   0.307  -0.081
    1UNL     C8   10   0.106   0.294   0.066
    1UNL     N1   11   0.012   0.181   0.107
    1UNL     C9   12   0.032   0.099   0.224
    1UNL    C10   13  -0.026  -0.041   0.191
    1UNL    C11   14  -0.081  -0.035   0.045
    1UNL    C12   15  -0.230  -0.009   0.045
    1UNL    C13   16  -0.283   0.103   0.111
    1UNL    C14   17  -0.415   0.118   0.128
    1UNL    C15   18  -0.507   0.028   0.084
    1UNL    C16   19  -0.461  -0.089   0.021
    1UNL    C17   20  -0.328  -0.103  -0.003
    1UNL     N2   21  -0.272  -0.196  -0.099
    1UNL    C18   22  -0.147  -0.231  -0.134
    1UNL     O3   23  -0.123  -0.329  -0.201
    1UNL    C19   24  -0.041  -0.146  -0.062
    1UNL    C20   25   0.048  -0.072  -0.165
    1UNL    C21   26  -0.012   0.090  -0.007
    1UNL     H1   27   0.246  -0.429   0.046
    1UNL     H2   28   0.170  -0.332   0.171
    1UNL     H3   29   0.341  -0.331   0.158
    1UNL     H4   30   0.310  -0.039  -0.133
    1UNL     H5   31   0.331   0.168   0.104
    1UNL     H6   32   0.457   0.076   0.021
    1UNL     H7   33   0.373   0.193  -0.063
    1UNL     H8   34   0.148   0.202  -0.261
    1UNL     H9   35   0.138   0.408  -0.123
    1UNL    H10   36   0.194   0.285   0.116
    1UNL    H11   37   0.060   0.382   0.101
    1UNL    H12   38  -0.024   0.150   0.307
    1UNL    H13   39   0.132   0.089   0.252
    1UNL    H14   40   0.056  -0.116   0.181
    1UNL    H15   41  -0.106  -0.079   0.253
    1UNL    H16   42  -0.213   0.159   0.173
    1UNL    H17   43  -0.463   0.214   0.166
    1UNL    H18   44  -0.615   0.041   0.104
    1UNL    H19   45  -0.529  -0.156  -0.018
    1UNL    H20   46  -0.347  -0.259  -0.132
    1UNL    H21   47   0.027  -0.213  -0.006
    1UNL    H22   48   0.126  -0.145  -0.203
    1UNL    H23   49  -0.008  -0.043  -0.254
    1UNL    H24   50  -0.072   0.144  -0.080
   0.00000   0.00000   0.00000   0.00000   0.00000   0.00000   0.00000   0.00000   0.00000
Generated with MDTraj, t= 76.0
 50
    1UNL     C1    1   0.230  -0.333   0.129
    1UNL     O1    2   0.219  -0.231   0.031
    1UNL     C2    3   0.256  -0.102   0.068
    1UNL     O2    4   0.286  -0.083   0.181
    1UNL     C3    5   0.248   0.011  -0.036
    1UNL     C4    6   0.347   0.118   0.022
    1UNL     C5    7   0.111   0.051  -0.102
    1UNL     C6    8   0.137   0.181  -0.174
    1UNL     C7    9   0.124   0.296  -0.105
    1UNL     C8   10   0.098   0.301   0.042
    1UNL     N1   11   0.019   0.181   0.097
    1UNL     C9   12   0.061   0.089   0.208
    1UNL    C10   13  -0.012  -0.048   0.182
    1UNL    C11   14  -0.082  -0.027   0.044
    1UNL    C12   15  -0.234  -0.013   0.058
    1UNL    C13   16  -0.292   0.069   0.157
    1UNL    C14   17  -0.422   0.093   0.162
    1UNL    C15   18  -0.508   0.015   0.081
    1UNL    C16   19  -0.457  -0.072  -0.008
    1UNL    C17   20  -0.322  -0.090  -0.014
    1UNL     N2   21  -0.276  -0.193  -0.097
    1UNL    C18   22  -0.141  -0.214  -0.131
    1UNL     O3   23  -0.111  -0.296  -0.218
    1UNL    C19   24  -0.038  -0.136  -0.063
    1UNL    C20   25   0.050  -0.067  -0.174
    1UNL    C21   26  -0.017   0.091  -0.012
    1UNL     H1   27   0.156  -0.411   0.125
    1UNL     H2   28   0.238  -0.290   0.233
    1UNL     H3   29   0.325  -0.388   0.126
    1UNL     H4   30   0.301  -0.031  -0.125
    1UNL     H5   31   0.320   0.170   0.114
    1UNL     H6   32   0.439   0.063   0.047
    1UNL     H7   33   0.373   0.189  -0.051
    1UNL     H8   34   0.130   0.184  -0.287
    1UNL     H9   35   0.139   0.391  -0.155
    1UNL    H10   36   0.185   0.305   0.094
    1UNL    H11   37   0.044   0.385   0.071
    1UNL    H12   38   0.042   0.136   0.308
    1UNL    H13   39   0.166   0.089   0.208
    1UNL    H14   40   0.054  -0.140   0.186
    1UNL    H15   41  -0.094  -0.072   0.247
    1UNL    H16   42  -0.226   0.128   0.221
    1UNL    H17   43  -0.465   0.157   0.232
    1UNL    H18   44  -0.612   0.034   0.074
    1UNL    H19   45  -0.527  -0.133  -0.069
    1UNL    H20   46  -0.349  -0.242  -0.153
    1UNL    H21   47   0.026  -0.209  -0.008
    1UNL    H22   48   0.123  -0.146  -0.210
    1UNL    H23   49  -0.007  -0.041  -0.263
    1UNL    H24   50  -0.079   0.145  -0.083
   0.00000   0.00000   0.00000   0.00000   0.00000   0.00000   0.00000   0.00000   0.00000
Generated with MDTraj, t= 77.0
 50
    1UNL     C1    1   0.232  -0.322   0.125
    1UNL     O1    2   0.220  -0.220   0.030
    1UNL     C2    3   0.252  -0.096   0.071
    1UNL     O2    4   0.285  -0.067   0.182
    1UNL     C3    5   0.254   0.004  -0.038
    1UNL     C4    6   0.353   0.110   0.012
    1UNL     C5    7   0.115   0.043  -0.094
    1UNL     C6    8   0.140   0.169  -0.173
    1UNL     C7    9   0.135   0.282  -0.106
    1UNL     C8   10   0.090   0.291   0.039
    1UNL     N1   11  -0.002   0.182   0.091
    1UNL     C9   12   0.028   0.095   0.212
    1UNL    C10   13  -0.024  -0.046   0.187
    1UNL    C11   14  -0.083  -0.038   0.040
    1UNL    C12   15  -0.231  -0.014   0.054
    1UNL    C13   16  -0.279   0.074   0.154
    1UNL    C14   17  -0.414   0.081   0.177
    1UNL    C15   18  -0.501   0.012   0.100
    1UNL    C16   19  -0.452  -0.068   0.003
    1UNL    C17   20  -0.316  -0.085  -0.027
    1UNL     N2   21  -0.278  -0.175  -0.117
    1UNL    C18   22  -0.145  -0.203  -0.134
    1UNL     O3   23  -0.119  -0.285  -0.222
    1UNL    C19   24  -0.036  -0.149  -0.061
    1UNL    C20   25   0.060  -0.080  -0.163
    1UNL    C21   26  -0.014   0.087  -0.016
    1UNL     H1   27   0.181  -0.410   0.092
    1UNL     H2   28   0.206  -0.284   0.228
    1UNL     H3   29   0.335  -0.355   0.139
    1UNL     H4   30   0.303  -0.048  -0.125
    1UNL     H5   31   0.324   0.150   0.104
    1UNL     H6   32   0.448   0.061   0.035
    1UNL     H7   33   0.367   0.191  -0.063
    1UNL     H8   34   0.165   0.167  -0.272
    1UNL     H9   35   0.172   0.372  -0.152
    1UNL    H10   36   0.173   0.287   0.105
    1UNL    H11   37   0.043   0.380   0.065
    1UNL    H12   38  -0.007   0.140   0.306
    1UNL    H13   39   0.137   0.113   0.227
    1UNL    H14   40   0.063  -0.116   0.186
    1UNL    H15   41  -0.085  -0.076   0.270
    1UNL    H16   42  -0.207   0.135   0.198
    1UNL    H17   43  -0.448   0.152   0.254
    1UNL    H18   44  -0.605   0.018   0.137
    1UNL    H19   45  -0.514  -0.120  -0.064
    1UNL    H20   46  -0.340  -0.225  -0.182
    1UNL    H21   47   0.026  -0.232  -0.013
    1UNL    H22   48   0.139  -0.155  -0.195
    1UNL    H23   49   0.008  -0.055  -0.256
    1UNL    H24   50  -0.078   0.134  -0.090
   0.00000   0.00000   0.00000   0.00000   0.00000   0.00000   0.00000   0.00000   0.00000
Generated with MDTraj, t= 78.0
 50
    1UNL     C1    1   0.260  -0.326   0.129
    1UNL     O1    2   0.254  -0.230   0.028
    1UNL     C2    3   0.250  -0.103   0.074
    1UNL     O2    4   0.268  -0.076   0.192
    1UNL     C3    5   0.244   0.004  -0.032
    1UNL     C4    6   0.340   0.108   0.027
    1UNL     C5    7   0.108   0.052  -0.094
    1UNL     C6    8   0.143   0.177  -0.175
    1UNL     C7    9   0.141   0.292  -0.110
    1UNL     C8   10   0.104   0.296   0.036
    1UNL     N1   11   0.017   0.187   0.099
    1UNL     C9   12   0.050   0.095   0.215
    1UNL    C10   13  -0.017  -0.044   0.179
    1UNL    C11   14  -0.082  -0.036   0.043
    1UNL    C12   15  -0.234  -0.015   0.058
    1UNL    C13   16  -0.277   0.082   0.130
    1UNL    C14   17  -0.418   0.094   0.155
    1UNL    C15   18  -0.507   0.010   0.094
    1UNL    C16   19  -0.463  -0.084   0.011
    1UNL    C17   20  -0.326  -0.099  -0.008
    1UNL     N2   21  -0.286  -0.187  -0.106
    1UNL    C18   22  -0.154  -0.212  -0.140
    1UNL     O3   23  -0.140  -0.288  -0.233
    1UNL    C19   24  -0.041  -0.143  -0.069
    1UNL    C20   25   0.046  -0.066  -0.168
    1UNL    C21   26  -0.011   0.094  -0.009
    1UNL     H1   27   0.302  -0.414   0.088
    1UNL     H2   28   0.157  -0.337   0.172
    1UNL     H3   29   0.323  -0.290   0.211
    1UNL     H4   30   0.293  -0.045  -0.119
    1UNL     H5   31   0.303   0.145   0.120
    1UNL     H6   32   0.433   0.063   0.054
    1UNL     H7   33   0.360   0.197  -0.040
    1UNL     H8   34   0.187   0.164  -0.277
    1UNL     H9   35   0.165   0.389  -0.152
    1UNL    H10   36   0.196   0.310   0.098
    1UNL    H11   37   0.047   0.380   0.052
    1UNL    H12   38   0.036   0.138   0.313
    1UNL    H13   39   0.163   0.076   0.219
    1UNL    H14   40   0.054  -0.122   0.192
    1UNL    H15   41  -0.098  -0.052   0.253
    1UNL    H16   42  -0.207   0.158   0.168
    1UNL    H17   43  -0.448   0.176   0.216
    1UNL    H18   44  -0.607   0.026   0.123
    1UNL    H19   45  -0.539  -0.153  -0.029
    1UNL    H20   46  -0.355  -0.236  -0.157
    1UNL    H21   47   0.027  -0.219  -0.019
    1UNL    H22   48   0.119  -0.127  -0.226
    1UNL    H23   49  -0.030  -0.024  -0.238
    1UNL    H24   50  -0.083   0.147  -0.072
   0.00000   0.00000   0.00000   0.00000   0.00000   0.00000   0.00000   0.00000   0.00000
Generated with MDTraj, t= 79.0
 50
    1UNL     C1    1   0.272  -0.342   0.094
    1UNL     O1    2   0.259  -0.235  -0.002
    1UNL     C2    3   0.252  -0.112   0.053
    1UNL     O2    4   0.241  -0.091   0.174
    1UNL     C3    5   0.257   0.007  -0.035
    1UNL     C4    6   0.368   0.097   0.017
    1UNL     C5    7   0.117   0.058  -0.086
    1UNL     C6    8   0.146   0.185  -0.159
    1UNL     C7    9   0.129   0.300  -0.097
    1UNL     C8   10   0.096   0.300   0.055
    1UNL     N1   11   0.006   0.192   0.100
    1UNL     C9   12   0.032   0.116   0.223
    1UNL    C10   13  -0.034  -0.032   0.196
    1UNL    C11   14  -0.081  -0.031   0.051
    1UNL    C12   15  -0.234  -0.008   0.053
    1UNL    C13   16  -0.284   0.106   0.107
    1UNL    C14   17  -0.420   0.114   0.128
    1UNL    C15   18  -0.506   0.016   0.088
    1UNL    C16   19  -0.464  -0.086   0.008
    1UNL    C17   20  -0.324  -0.103  -0.002
    1UNL     N2   21  -0.280  -0.210  -0.072
    1UNL    C18   22  -0.152  -0.230  -0.121
    1UNL     O3   23  -0.126  -0.297  -0.218
    1UNL    C19   24  -0.037  -0.147  -0.059
    1UNL    C20   25   0.051  -0.068  -0.160
    1UNL    C21   26  -0.009   0.090  -0.004
    1UNL     H1   27   0.316  -0.426   0.048
    1UNL     H2   28   0.171  -0.371   0.132
    1UNL     H3   29   0.333  -0.300   0.177
    1UNL     H4   30   0.296  -0.038  -0.128
    1UNL     H5   31   0.335   0.138   0.116
    1UNL     H6   32   0.464   0.051   0.029
    1UNL     H7   33   0.379   0.187  -0.048
    1UNL     H8   34   0.171   0.190  -0.266
    1UNL     H9   35   0.129   0.393  -0.152
    1UNL    H10   36   0.191   0.292   0.118
    1UNL    H11   37   0.049   0.391   0.075
    1UNL    H12   38  -0.007   0.162   0.310
    1UNL    H13   39   0.143   0.096   0.251
    1UNL    H14   40   0.033  -0.113   0.201
    1UNL    H15   41  -0.124  -0.039   0.259
    1UNL    H16   42  -0.226   0.198   0.140
    1UNL    H17   43  -0.457   0.201   0.185
    1UNL    H18   44  -0.613   0.010   0.106
    1UNL    H19   45  -0.521  -0.176  -0.007
    1UNL    H20   46  -0.346  -0.239  -0.142
    1UNL    H21   47   0.025  -0.222  -0.001
    1UNL    H22   48   0.132  -0.130  -0.202
    1UNL    H23   49  -0.020  -0.033  -0.240
    1UNL    H24   50  -0.077   0.139  -0.076
   0.00000   0.00000   0.00000   0.00000   0.00000   0.00000   0.00000   0.00000   0.00000
Generated with MDTraj, t= 80.0
 50
    1UNL     C1    1   0.262  -0.349   0.050
    1UNL     O1    2   0.256  -0.230  -0.028
    1UNL     C2    3   0.249  -0.115   0.045
    1UNL     O2    4   0.230  -0.118   0.167
    1UNL     C3    5   0.257   0.017  -0.033
    1UNL     C4    6   0.337   0.116   0.049
    1UNL     C5    7   0.115   0.062  -0.095
    1UNL     C6    8   0.136   0.189  -0.167
    1UNL     C7    9   0.136   0.303  -0.093
    1UNL     C8   10   0.101   0.311   0.056
    1UNL     N1   11   0.028   0.186   0.106
    1UNL     C9   12   0.052   0.101   0.223
    1UNL    C10   13  -0.026  -0.029   0.201
    1UNL    C11   14  -0.088  -0.024   0.056
    1UNL    C12   15  -0.238  -0.006   0.054
    1UNL    C13   16  -0.295   0.113   0.100
    1UNL    C14   17  -0.431   0.126   0.115
    1UNL    C15   18  -0.516   0.031   0.061
    1UNL    C16   19  -0.462  -0.085   0.007
    1UNL    C17   20  -0.322  -0.099  -0.002
    1UNL     N2   21  -0.266  -0.215  -0.068
    1UNL    C18   22  -0.137  -0.236  -0.101
    1UNL     O3   23  -0.104  -0.332  -0.162
    1UNL    C19   24  -0.036  -0.139  -0.050
    1UNL    C20   25   0.042  -0.065  -0.161
    1UNL    C21   26  -0.008   0.093  -0.004
    1UNL     H1   27   0.227  -0.426  -0.015
    1UNL     H2   28   0.188  -0.338   0.135
    1UNL     H3   29   0.369  -0.357   0.079
    1UNL     H4   30   0.316  -0.012  -0.120
    1UNL     H5   31   0.286   0.126   0.147
    1UNL     H6   32   0.440   0.085   0.062
    1UNL     H7   33   0.342   0.213  -0.001
    1UNL     H8   34   0.141   0.183  -0.270
    1UNL     H9   35   0.177   0.393  -0.134
    1UNL    H10   36   0.196   0.334   0.112
    1UNL    H11   37   0.033   0.394   0.073
    1UNL    H12   38   0.020   0.148   0.316
    1UNL    H13   39   0.158   0.072   0.245
    1UNL    H14   40   0.034  -0.115   0.210
    1UNL    H15   41  -0.111  -0.031   0.271
    1UNL    H16   42  -0.244   0.195   0.127
    1UNL    H17   43  -0.484   0.217   0.143
    1UNL    H18   44  -0.621   0.032   0.084
    1UNL    H19   45  -0.510  -0.176  -0.030
    1UNL    H20   46  -0.320  -0.302  -0.070
    1UNL    H21   47   0.039  -0.205   0.005
    1UNL    H22   48   0.117  -0.127  -0.212
    1UNL    H23   49  -0.026  -0.024  -0.242
    1UNL    H24   50  -0.080   0.150  -0.065
   0.00000   0.00000   0.00000   0.00000   0.00000   0.00000   0.00000   0.00000   0.00000
Generated with MDTraj, t= 81.0
 50
    1UNL     C1    1   0.259  -0.362   0.017
    1UNL     O1    2   0.263  -0.238  -0.051
    1UNL     C2    3   0.251  -0.130   0.030
    1UNL     O2    4   0.252  -0.139   0.152
    1UNL     C3    5   0.248   0.013  -0.034
    1UNL     C4    6   0.332   0.117   0.039
    1UNL     C5    7   0.104   0.054  -0.086
    1UNL     C6    8   0.127   0.186  -0.153
    1UNL     C7    9   0.129   0.294  -0.078
    1UNL     C8   10   0.096   0.307   0.062
    1UNL     N1   11   0.004   0.199   0.109
    1UNL     C9   12   0.022   0.132   0.235
    1UNL    C10   13  -0.015  -0.019   0.209
    1UNL    C11   14  -0.085  -0.029   0.066
    1UNL    C12   15  -0.236  -0.010   0.063
    1UNL    C13   16  -0.302   0.104   0.118
    1UNL    C14   17  -0.433   0.139   0.107
    1UNL    C15   18  -0.513   0.049   0.040
    1UNL    C16   19  -0.453  -0.066  -0.017
    1UNL    C17   20  -0.317  -0.097  -0.013
    1UNL     N2   21  -0.256  -0.211  -0.075
    1UNL    C18   22  -0.124  -0.242  -0.079
    1UNL     O3   23  -0.081  -0.348  -0.113
    1UNL    C19   24  -0.027  -0.136  -0.039
    1UNL    C20   25   0.040  -0.067  -0.163
    1UNL    C21   26  -0.019   0.101   0.001
    1UNL     H1   27   0.226  -0.428  -0.061
    1UNL     H2   28   0.176  -0.355   0.095
    1UNL     H3   29   0.365  -0.377   0.047
    1UNL     H4   30   0.300  -0.007  -0.129
    1UNL     H5   31   0.307   0.122   0.142
    1UNL     H6   32   0.441   0.092   0.025
    1UNL     H7   33   0.325   0.213  -0.009
    1UNL     H8   34   0.143   0.196  -0.267
    1UNL     H9   35   0.150   0.385  -0.133
    1UNL    H10   36   0.186   0.294   0.124
    1UNL    H11   37   0.055   0.412   0.085
    1UNL    H12   38  -0.043   0.190   0.309
    1UNL    H13   39   0.120   0.156   0.268
    1UNL    H14   40   0.073  -0.079   0.216
    1UNL    H15   41  -0.085  -0.057   0.283
    1UNL    H16   42  -0.231   0.187   0.138
    1UNL    H17   43  -0.469   0.231   0.147
    1UNL    H18   44  -0.618   0.073   0.027
    1UNL    H19   45  -0.522  -0.137  -0.059
    1UNL    H20   46  -0.316  -0.265  -0.142
    1UNL    H21   47   0.049  -0.197   0.019
    1UNL    H22   48   0.115  -0.126  -0.221
    1UNL    H23   49  -0.035  -0.033  -0.240
    1UNL    H24   50  -0.096   0.151  -0.061
   0.00000   0.00000   0.00000   0.00000   0.00000   0.00000   0.00000   0.00000   0.00000
Generated with MDTraj, t= 82.0
 50
    1UNL     C1    1   0.284  -0.349  -0.010
    1UNL     O1    2   0.265  -0.218  -0.069
    1UNL     C2    3   0.249  -0.124   0.032
    1UNL     O2    4   0.234  -0.146   0.149
    1UNL     C3    5   0.253   0.018  -0.024
    1UNL     C4    6   0.324   0.118   0.060
    1UNL     C5    7   0.114   0.051  -0.082
    1UNL     C6    8   0.129   0.180  -0.161
    1UNL     C7    9   0.120   0.301  -0.101
    1UNL     C8   10   0.096   0.313   0.048
    1UNL     N1   11   0.029   0.185   0.109
    1UNL     C9   12   0.038   0.121   0.244
    1UNL    C10   13  -0.034  -0.013   0.219
    1UNL    C11   14  -0.085  -0.024   0.068
    1UNL    C12   15  -0.237  -0.004   0.060
    1UNL    C13   16  -0.301   0.105   0.123
    1UNL    C14   17  -0.434   0.131   0.114
    1UNL    C15   18  -0.511   0.054   0.027
    1UNL    C16   19  -0.458  -0.058  -0.035
    1UNL    C17   20  -0.320  -0.090  -0.018
    1UNL     N2   21  -0.269  -0.213  -0.068
    1UNL    C18   22  -0.132  -0.248  -0.076
    1UNL     O3   23  -0.088  -0.361  -0.106
    1UNL    C19   24  -0.033  -0.140  -0.027
    1UNL    C20   25   0.048  -0.075  -0.148
    1UNL    C21   26  -0.006   0.090   0.006
    1UNL     H1   27   0.303  -0.414  -0.091
    1UNL     H2   28   0.185  -0.371   0.040
    1UNL     H3   29   0.377  -0.335   0.048
    1UNL     H4   30   0.315  -0.001  -0.113
    1UNL     H5   31   0.262   0.167   0.132
    1UNL     H6   32   0.411   0.070   0.113
    1UNL     H7   33   0.371   0.191  -0.002
    1UNL     H8   34   0.147   0.167  -0.261
    1UNL     H9   35   0.119   0.390  -0.162
    1UNL    H10   36   0.186   0.344   0.100
    1UNL    H11   37   0.013   0.396   0.070
    1UNL    H12   38  -0.020   0.192   0.314
    1UNL    H13   39   0.137   0.127   0.277
    1UNL    H14   40   0.030  -0.099   0.244
    1UNL    H15   41  -0.117  -0.020   0.286
    1UNL    H16   42  -0.223   0.167   0.178
    1UNL    H17   43  -0.474   0.228   0.157
    1UNL    H18   44  -0.614   0.084   0.007
    1UNL    H19   45  -0.537  -0.105  -0.094
    1UNL    H20   46  -0.332  -0.296  -0.068
    1UNL    H21   47   0.034  -0.204   0.036
    1UNL    H22   48   0.121  -0.151  -0.183
    1UNL    H23   49  -0.018  -0.058  -0.236
    1UNL    H24   50  -0.087   0.136  -0.057
   0.00000   0.00000   0.00000   0.00000   0.00000   0.00000   0.00000   0.00000   0.00000
Generated with MDTraj, t= 83.0
 50
    1UNL     C1    1   0.304  -0.347   0.019
    1UNL     O1    2   0.317  -0.227  -0.058
    1UNL     C2    3   0.264  -0.134   0.023
    1UNL     O2    4   0.221  -0.151   0.132
    1UNL     C3    5   0.264   0.010  -0.033
    1UNL     C4    6   0.325   0.101   0.067
    1UNL     C5    7   0.117   0.053  -0.083
    1UNL     C6    8   0.129   0.189  -0.154
    1UNL     C7    9   0.111   0.305  -0.091
    1UNL     C8   10   0.092   0.311   0.057
    1UNL     N1   11   0.003   0.202   0.103
    1UNL     C9   12   0.022   0.135   0.234
    1UNL    C10   13  -0.030  -0.011   0.208
    1UNL    C11   14  -0.081  -0.024   0.059
    1UNL    C12   15  -0.235  -0.010   0.057
    1UNL    C13   16  -0.285   0.110   0.116
    1UNL    C14   17  -0.420   0.137   0.102
    1UNL    C15   18  -0.513   0.052   0.046
    1UNL    C16   19  -0.466  -0.064  -0.011
    1UNL    C17   20  -0.332  -0.092  -0.002
    1UNL     N2   21  -0.282  -0.211  -0.066
    1UNL    C18   22  -0.146  -0.244  -0.078
    1UNL     O3   23  -0.107  -0.353  -0.128
    1UNL    C19   24  -0.040  -0.144  -0.032
    1UNL    C20   25   0.047  -0.078  -0.153
    1UNL    C21   26  -0.010   0.095   0.002
    1UNL     H1   27   0.367  -0.415  -0.031
    1UNL     H2   28   0.194  -0.369   0.013
    1UNL     H3   29   0.345  -0.321   0.118
    1UNL     H4   30   0.328   0.002  -0.123
    1UNL     H5   31   0.257   0.120   0.156
    1UNL     H6   32   0.420   0.055   0.097
    1UNL     H7   33   0.347   0.194   0.017
    1UNL     H8   34   0.158   0.192  -0.259
    1UNL     H9   35   0.126   0.399  -0.142
    1UNL    H10   36   0.187   0.297   0.108
    1UNL    H11   37   0.039   0.413   0.087
    1UNL    H12   38  -0.048   0.195   0.305
    1UNL    H13   39   0.121   0.138   0.271
    1UNL    H14   40   0.052  -0.086   0.218
    1UNL    H15   41  -0.108  -0.050   0.270
    1UNL    H16   42  -0.220   0.172   0.166
    1UNL    H17   43  -0.458   0.225   0.136
    1UNL    H18   44  -0.615   0.087   0.053
    1UNL    H19   45  -0.532  -0.135  -0.058
    1UNL    H20   46  -0.343  -0.282  -0.105
    1UNL    H21   47   0.032  -0.211   0.020
    1UNL    H22   48   0.119  -0.154  -0.195
    1UNL    H23   49  -0.018  -0.046  -0.235
    1UNL    H24   50  -0.085   0.134  -0.069
   0.00000   0.00000   0.00000   0.00000   0.00000   0.00000   0.00000   0.00000   0.00000
Generated with MDTraj, t= 84.0
 50
    1UNL     C1    1   0.328  -0.341   0.027
    1UNL     O1    2   0.328  -0.214  -0.035
    1UNL     C2    3   0.252  -0.134   0.045
    1UNL     O2    4   0.201  -0.166   0.149
    1UNL     C3    5   0.244   0.005  -0.024
    1UNL     C4    6   0.323   0.106   0.053
    1UNL     C5    7   0.109   0.055  -0.082
    1UNL     C6    8   0.149   0.176  -0.162
    1UNL     C7    9   0.137   0.293  -0.101
    1UNL     C8   10   0.111   0.305   0.047
    1UNL     N1   11   0.023   0.197   0.098
    1UNL     C9   12   0.036   0.128   0.230
    1UNL    C10   13  -0.033  -0.009   0.212
    1UNL    C11   14  -0.092  -0.020   0.059
    1UNL    C12   15  -0.238  -0.004   0.047
    1UNL    C13   16  -0.294   0.112   0.096
    1UNL    C14   17  -0.430   0.135   0.099
    1UNL    C15   18  -0.518   0.036   0.067
    1UNL    C16   19  -0.468  -0.086   0.024
    1UNL    C17   20  -0.330  -0.110   0.007
    1UNL     N2   21  -0.282  -0.214  -0.071
    1UNL    C18   22  -0.150  -0.228  -0.091
    1UNL     O3   23  -0.112  -0.315  -0.167
    1UNL    C19   24  -0.047  -0.140  -0.032
    1UNL    C20   25   0.037  -0.071  -0.151
    1UNL    C21   26  -0.022   0.103  -0.002
    1UNL     H1   27   0.402  -0.388  -0.034
    1UNL     H2   28   0.223  -0.374   0.012
    1UNL     H3   29   0.362  -0.321   0.129
    1UNL     H4   30   0.298  -0.020  -0.119
    1UNL     H5   31   0.276   0.129   0.150
    1UNL     H6   32   0.420   0.060   0.067
    1UNL     H7   33   0.341   0.201  -0.005
    1UNL     H8   34   0.156   0.176  -0.273
    1UNL     H9   35   0.156   0.387  -0.152
    1UNL    H10   36   0.206   0.297   0.104
    1UNL    H11   37   0.056   0.404   0.069
    1UNL    H12   38  -0.010   0.188   0.315
    1UNL    H13   39   0.139   0.098   0.251
    1UNL    H14   40   0.037  -0.091   0.234
    1UNL    H15   41  -0.118  -0.034   0.271
    1UNL    H16   42  -0.237   0.196   0.137
    1UNL    H17   43  -0.462   0.226   0.162
    1UNL    H18   44  -0.625   0.041   0.082
    1UNL    H19   45  -0.535  -0.167   0.003
    1UNL    H20   46  -0.349  -0.268  -0.121
    1UNL    H21   47   0.017  -0.209   0.025
    1UNL    H22   48   0.111  -0.143  -0.198
    1UNL    H23   49  -0.030  -0.033  -0.228
    1UNL    H24   50  -0.089   0.155  -0.071
   0.00000   0.00000   0.00000   0.00000   0.00000   0.00000   0.00000   0.00000   0.00000
Generated with MDTraj, t= 85.0
 50
    1UNL     C1    1   0.316  -0.343   0.068
    1UNL     O1    2   0.321  -0.228  -0.025
    1UNL     C2    3   0.255  -0.130   0.037
    1UNL     O2    4   0.201  -0.145   0.145
    1UNL     C3    5   0.263   0.005  -0.036
    1UNL     C4    6   0.339   0.106   0.045
    1UNL     C5    7   0.119   0.052  -0.095
    1UNL     C6    8   0.159   0.181  -0.165
    1UNL     C7    9   0.138   0.297  -0.098
    1UNL     C8   10   0.104   0.308   0.050
    1UNL     N1   11   0.009   0.199   0.096
    1UNL     C9   12   0.021   0.110   0.223
    1UNL    C10   13  -0.052  -0.020   0.198
    1UNL    C11   14  -0.091  -0.019   0.046
    1UNL    C12   15  -0.247   0.002   0.044
    1UNL    C13   16  -0.298   0.108   0.100
    1UNL    C14   17  -0.436   0.124   0.129
    1UNL    C15   18  -0.519   0.026   0.089
    1UNL    C16   19  -0.469  -0.083   0.023
    1UNL    C17   20  -0.327  -0.101   0.007
    1UNL     N2   21  -0.275  -0.216  -0.050
    1UNL    C18   22  -0.149  -0.217  -0.100
    1UNL     O3   23  -0.117  -0.294  -0.186
    1UNL    C19   24  -0.038  -0.138  -0.041
    1UNL    C20   25   0.049  -0.082  -0.161
    1UNL    C21   26  -0.011   0.103  -0.013
    1UNL     H1   27   0.365  -0.420   0.010
    1UNL     H2   28   0.207  -0.356   0.089
    1UNL     H3   29   0.372  -0.314   0.158
    1UNL     H4   30   0.317  -0.025  -0.129
    1UNL     H5   31   0.301   0.112   0.144
    1UNL     H6   32   0.443   0.077   0.054
    1UNL     H7   33   0.338   0.213  -0.001
    1UNL     H8   34   0.211   0.175  -0.253
    1UNL     H9   35   0.155   0.390  -0.145
    1UNL    H10   36   0.195   0.301   0.122
    1UNL    H11   37   0.056   0.404   0.073
    1UNL    H12   38  -0.025   0.155   0.315
    1UNL    H13   39   0.130   0.087   0.245
    1UNL    H14   40   0.012  -0.107   0.208
    1UNL    H15   41  -0.129  -0.038   0.271
    1UNL    H16   42  -0.239   0.186   0.148
    1UNL    H17   43  -0.475   0.212   0.174
    1UNL    H18   44  -0.623   0.021   0.118
    1UNL    H19   45  -0.539  -0.152  -0.025
    1UNL    H20   46  -0.339  -0.288  -0.077
    1UNL    H21   47   0.016  -0.201   0.031
    1UNL    H22   48   0.121  -0.162  -0.196
    1UNL    H23   49  -0.016  -0.051  -0.244
    1UNL    H24   50  -0.077   0.146  -0.088
   0.00000   0.00000   0.00000   0.00000   0.00000   0.00000   0.00000   0.00000   0.00000
Generated with MDTraj, t= 86.0
 50
    1UNL     C1    1   0.290  -0.341   0.081
    1UNL     O1    2   0.273  -0.233  -0.016
    1UNL     C2    3   0.252  -0.123   0.056
    1UNL     O2    4   0.239  -0.118   0.180
    1UNL     C3    5   0.255   0.004  -0.032
    1UNL     C4    6   0.344   0.108   0.034
    1UNL     C5    7   0.113   0.058  -0.087
    1UNL     C6    8   0.138   0.181  -0.169
    1UNL     C7    9   0.130   0.297  -0.107
    1UNL     C8   10   0.097   0.301   0.036
    1UNL     N1   11   0.012   0.184   0.095
    1UNL     C9   12   0.037   0.111   0.224
    1UNL    C10   13  -0.025  -0.039   0.195
    1UNL    C11   14  -0.087  -0.031   0.051
    1UNL    C12   15  -0.242  -0.004   0.051
    1UNL    C13   16  -0.289   0.103   0.116
    1UNL    C14   17  -0.427   0.120   0.131
    1UNL    C15   18  -0.509   0.023   0.091
    1UNL    C16   19  -0.466  -0.086   0.026
    1UNL    C17   20  -0.327  -0.102   0.004
    1UNL     N2   21  -0.277  -0.193  -0.088
    1UNL    C18   22  -0.143  -0.216  -0.119
    1UNL     O3   23  -0.118  -0.309  -0.188
    1UNL    C19   24  -0.032  -0.133  -0.053
    1UNL    C20   25   0.049  -0.063  -0.163
    1UNL    C21   26  -0.019   0.095  -0.007
    1UNL     H1   27   0.342  -0.412   0.017
    1UNL     H2   28   0.187  -0.367   0.115
    1UNL     H3   29   0.352  -0.304   0.165
    1UNL     H4   30   0.294  -0.033  -0.130
    1UNL     H5   31   0.310   0.121   0.135
    1UNL     H6   32   0.450   0.075   0.041
    1UNL     H7   33   0.342   0.207  -0.020
    1UNL     H8   34   0.169   0.171  -0.279
    1UNL     H9   35   0.128   0.389  -0.167
    1UNL    H10   36   0.190   0.309   0.105
    1UNL    H11   37   0.038   0.386   0.064
    1UNL    H12   38  -0.015   0.165   0.305
    1UNL    H13   39   0.152   0.101   0.240
    1UNL    H14   40   0.044  -0.116   0.214
    1UNL    H15   41  -0.108  -0.056   0.262
    1UNL    H16   42  -0.214   0.169   0.147
    1UNL    H17   43  -0.474   0.209   0.181
    1UNL    H18   44  -0.613   0.050   0.087
    1UNL    H19   45  -0.525  -0.164  -0.018
    1UNL    H20   46  -0.339  -0.227  -0.164
    1UNL    H21   47   0.037  -0.194   0.005
    1UNL    H22   48   0.131  -0.128  -0.202
    1UNL    H23   49  -0.017  -0.040  -0.251
    1UNL    H24   50  -0.093   0.131  -0.079
   0.00000   0.00000   0.00000   0.00000   0.00000   0.00000   0.00000   0.00000   0.00000
Generated with MDTraj, t= 87.0
 50
    1UNL     C1    1   0.233  -0.331   0.090
    1UNL     O1    2   0.230  -0.221  -0.004
    1UNL     C2    3   0.259  -0.107   0.062
    1UNL     O2    4   0.295  -0.100   0.181
    1UNL     C3    5   0.254   0.019  -0.028
    1UNL     C4    6   0.355   0.129   0.017
    1UNL     C5    7   0.106   0.055  -0.096
    1UNL     C6    8   0.127   0.184  -0.177
    1UNL     C7    9   0.134   0.295  -0.104
    1UNL     C8   10   0.099   0.304   0.044
    1UNL     N1   11   0.009   0.188   0.105
    1UNL     C9   12   0.037   0.107   0.225
    1UNL    C10   13  -0.018  -0.038   0.198
    1UNL    C11   14  -0.080  -0.041   0.051
    1UNL    C12   15  -0.229  -0.023   0.064
    1UNL    C13   16  -0.283   0.078   0.144
    1UNL    C14   17  -0.414   0.103   0.145
    1UNL    C15   18  -0.512   0.029   0.068
    1UNL    C16   19  -0.459  -0.068  -0.006
    1UNL    C17   20  -0.326  -0.097  -0.007
    1UNL     N2   21  -0.277  -0.194  -0.087
    1UNL    C18   22  -0.147  -0.231  -0.120
    1UNL     O3   23  -0.119  -0.321  -0.195
    1UNL    C19   24  -0.033  -0.152  -0.059
    1UNL    C20   25   0.044  -0.072  -0.169
    1UNL    C21   26  -0.012   0.089  -0.003
    1UNL     H1   27   0.199  -0.408   0.023
    1UNL     H2   28   0.165  -0.307   0.175
    1UNL     H3   29   0.336  -0.348   0.124
    1UNL     H4   30   0.293  -0.026  -0.123
    1UNL     H5   31   0.311   0.187   0.098
    1UNL     H6   32   0.441   0.072   0.064
    1UNL     H7   33   0.391   0.193  -0.062
    1UNL     H8   34   0.146   0.180  -0.280
    1UNL     H9   35   0.153   0.388  -0.151
    1UNL    H10   36   0.188   0.315   0.109
    1UNL    H11   37   0.039   0.392   0.059
    1UNL    H12   38  -0.020   0.152   0.308
    1UNL    H13   39   0.152   0.101   0.239
    1UNL    H14   40   0.054  -0.111   0.223
    1UNL    H15   41  -0.100  -0.052   0.268
    1UNL    H16   42  -0.222   0.148   0.203
    1UNL    H17   43  -0.440   0.195   0.187
    1UNL    H18   44  -0.616   0.062   0.061
    1UNL    H19   45  -0.523  -0.107  -0.085
    1UNL    H20   46  -0.346  -0.261  -0.127
    1UNL    H21   47   0.040  -0.221  -0.023
    1UNL    H22   48   0.113  -0.140  -0.222
    1UNL    H23   49  -0.027  -0.040  -0.250
    1UNL    H24   50  -0.084   0.136  -0.071
   0.00000   0.00000   0.00000   0.00000   0.00000   0.00000   0.00000   0.00000   0.00000
Generated with MDTraj, t= 88.0
 50
    1UNL     C1    1   0.240  -0.327   0.127
    1UNL     O1    2   0.223  -0.237   0.012
    1UNL     C2    3   0.255  -0.111   0.054
    1UNL     O2    4   0.277  -0.081   0.171
    1UNL     C3    5   0.251   0.009  -0.042
    1UNL     C4    6   0.349   0.121  -0.005
    1UNL     C5    7   0.104   0.058  -0.095
    1UNL     C6    8   0.114   0.192  -0.168
    1UNL     C7    9   0.113   0.299  -0.090
    1UNL     C8   10   0.097   0.294   0.057
    1UNL     N1   11   0.022   0.173   0.102
    1UNL     C9   12   0.059   0.090   0.220
    1UNL    C10   13  -0.029  -0.036   0.205
    1UNL    C11   14  -0.083  -0.039   0.053
    1UNL    C12   15  -0.227  -0.015   0.054
    1UNL    C13   16  -0.283   0.090   0.137
    1UNL    C14   17  -0.414   0.107   0.154
    1UNL    C15   18  -0.501   0.028   0.078
    1UNL    C16   19  -0.446  -0.061  -0.018
    1UNL    C17   20  -0.314  -0.082  -0.030
    1UNL     N2   21  -0.271  -0.195  -0.100
    1UNL    C18   22  -0.138  -0.231  -0.122
    1UNL     O3   23  -0.114  -0.328  -0.194
    1UNL    C19   24  -0.031  -0.150  -0.063
    1UNL    C20   25   0.048  -0.059  -0.169
    1UNL    C21   26  -0.022   0.085  -0.005
    1UNL     H1   27   0.144  -0.374   0.127
    1UNL     H2   28   0.257  -0.276   0.225
    1UNL     H3   29   0.323  -0.395   0.107
    1UNL     H4   30   0.279  -0.033  -0.140
    1UNL     H5   31   0.325   0.153   0.097
    1UNL     H6   32   0.457   0.082   0.001
    1UNL     H7   33   0.346   0.204  -0.069
    1UNL     H8   34   0.106   0.206  -0.273
    1UNL     H9   35   0.132   0.398  -0.130
    1UNL    H10   36   0.190   0.293   0.103
    1UNL    H11   37   0.036   0.380   0.089
    1UNL    H12   38   0.038   0.143   0.318
    1UNL    H13   39   0.166   0.066   0.209
    1UNL    H14   40   0.032  -0.126   0.209
    1UNL    H15   41  -0.099  -0.040   0.285
    1UNL    H16   42  -0.215   0.157   0.186
    1UNL    H17   43  -0.455   0.175   0.233
    1UNL    H18   44  -0.604   0.025   0.103
    1UNL    H19   45  -0.513  -0.127  -0.068
    1UNL    H20   46  -0.337  -0.260  -0.142
    1UNL    H21   47   0.033  -0.224  -0.025
    1UNL    H22   48   0.124  -0.120  -0.221
    1UNL    H23   49  -0.022  -0.032  -0.254
    1UNL    H24   50  -0.092   0.144  -0.066
   0.00000   0.00000   0.00000   0.00000   0.00000   0.00000   0.00000   0.00000   0.00000
Generated with MDTraj, t= 89.0
 50
    1UNL     C1    1   0.282  -0.319   0.120
    1UNL     O1    2   0.247  -0.234   0.009
    1UNL     C2    3   0.254  -0.106   0.053
    1UNL     O2    4   0.268  -0.074   0.169
    1UNL     C3    5   0.256   0.006  -0.047
    1UNL     C4    6   0.361   0.117  -0.007
    1UNL     C5    7   0.110   0.053  -0.106
    1UNL     C6    8   0.139   0.194  -0.165
    1UNL     C7    9   0.146   0.300  -0.081
    1UNL     C8   10   0.108   0.298   0.071
    1UNL     N1   11   0.011   0.182   0.105
    1UNL     C9   12   0.027   0.095   0.230
    1UNL    C10   13  -0.029  -0.047   0.186
    1UNL    C11   14  -0.082  -0.035   0.046
    1UNL    C12   15  -0.238  -0.017   0.066
    1UNL    C13   16  -0.296   0.091   0.136
    1UNL    C14   17  -0.436   0.117   0.145
    1UNL    C15   18  -0.515   0.038   0.075
    1UNL    C16   19  -0.464  -0.073  -0.001
    1UNL    C17   20  -0.326  -0.097  -0.005
    1UNL     N2   21  -0.280  -0.202  -0.094
    1UNL    C18   22  -0.149  -0.231  -0.124
    1UNL     O3   23  -0.129  -0.327  -0.199
    1UNL    C19   24  -0.036  -0.150  -0.065
    1UNL    C20   25   0.050  -0.076  -0.176
    1UNL    C21   26  -0.013   0.088  -0.011
    1UNL     H1   27   0.195  -0.321   0.184
    1UNL     H2   28   0.367  -0.288   0.187
    1UNL     H3   29   0.308  -0.415   0.074
    1UNL     H4   30   0.288  -0.041  -0.142
    1UNL     H5   31   0.340   0.144   0.097
    1UNL     H6   32   0.464   0.075  -0.002
    1UNL     H7   33   0.367   0.208  -0.066
    1UNL     H8   34   0.182   0.202  -0.270
    1UNL     H9   35   0.190   0.394  -0.113
    1UNL    H10   36   0.191   0.291   0.130
    1UNL    H11   37   0.055   0.390   0.096
    1UNL    H12   38  -0.021   0.153   0.317
    1UNL    H13   39   0.128   0.089   0.258
    1UNL    H14   40   0.039  -0.135   0.190
    1UNL    H15   41  -0.106  -0.084   0.250
    1UNL    H16   42  -0.217   0.154   0.175
    1UNL    H17   43  -0.478   0.181   0.215
    1UNL    H18   44  -0.623   0.055   0.084
    1UNL    H19   45  -0.535  -0.151  -0.033
    1UNL    H20   46  -0.356  -0.245  -0.142
    1UNL    H21   47   0.026  -0.220  -0.017
    1UNL    H22   48   0.124  -0.135  -0.234
    1UNL    H23   49  -0.021  -0.043  -0.259
    1UNL    H24   50  -0.085   0.146  -0.072
   0.00000   0.00000   0.00000   0.00000   0.00000   0.00000   0.00000   0.00000   0.00000
Generated with MDTraj, t= 90.0
 50
    1UNL     C1    1   0.277  -0.339   0.097
    1UNL     O1    2   0.274  -0.233   0.004
    1UNL     C2    3   0.248  -0.114   0.070
    1UNL     O2    4   0.241  -0.098   0.187
    1UNL     C3    5   0.249  -0.003  -0.033
    1UNL     C4    6   0.344   0.116  -0.002
    1UNL     C5    7   0.111   0.054  -0.092
    1UNL     C6    8   0.133   0.187  -0.165
    1UNL     C7    9   0.118   0.303  -0.100
    1UNL     C8   10   0.105   0.305   0.048
    1UNL     N1   11   0.032   0.181   0.106
    1UNL     C9   12   0.050   0.088   0.223
    1UNL    C10   13  -0.029  -0.042   0.192
    1UNL    C11   14  -0.081  -0.030   0.052
    1UNL    C12   15  -0.242  -0.006   0.063
    1UNL    C13   16  -0.295   0.108   0.114
    1UNL    C14   17  -0.431   0.125   0.126
    1UNL    C15   18  -0.514   0.026   0.075
    1UNL    C16   19  -0.463  -0.097   0.027
    1UNL    C17   20  -0.324  -0.104   0.004
    1UNL     N2   21  -0.268  -0.193  -0.094
    1UNL    C18   22  -0.143  -0.223  -0.128
    1UNL     O3   23  -0.114  -0.311  -0.210
    1UNL    C19   24  -0.037  -0.142  -0.057
    1UNL    C20   25   0.043  -0.066  -0.161
    1UNL    C21   26  -0.010   0.095  -0.005
    1UNL     H1   27   0.260  -0.303   0.198
    1UNL     H2   28   0.373  -0.398   0.101
    1UNL     H3   29   0.198  -0.403   0.058
    1UNL     H4   30   0.283  -0.052  -0.125
    1UNL     H5   31   0.321   0.144   0.102
    1UNL     H6   32   0.444   0.078   0.001
    1UNL     H7   33   0.339   0.203  -0.074
    1UNL     H8   34   0.134   0.185  -0.267
    1UNL     H9   35   0.104   0.393  -0.156
    1UNL    H10   36   0.196   0.321   0.101
    1UNL    H11   37   0.041   0.385   0.076
    1UNL    H12   38  -0.006   0.145   0.308
    1UNL    H13   39   0.150   0.084   0.253
    1UNL    H14   40   0.027  -0.137   0.207
    1UNL    H15   41  -0.109  -0.052   0.260
    1UNL    H16   42  -0.231   0.183   0.153
    1UNL    H17   43  -0.460   0.228   0.164
    1UNL    H18   44  -0.623   0.029   0.068
    1UNL    H19   45  -0.535  -0.167  -0.005
    1UNL    H20   46  -0.338  -0.250  -0.134
    1UNL    H21   47   0.032  -0.202  -0.004
    1UNL    H22   48   0.117  -0.117  -0.229
    1UNL    H23   49  -0.025  -0.022  -0.240
    1UNL    H24   50  -0.084   0.157  -0.061
   0.00000   0.00000   0.00000   0.00000   0.00000   0.00000   0.00000   0.00000   0.00000
Generated with MDTraj, t= 91.0
 50
    1UNL     C1    1   0.259  -0.338   0.058
    1UNL     O1    2   0.254  -0.228  -0.025
    1UNL     C2    3   0.254  -0.117   0.055
    1UNL     O2    4   0.247  -0.115   0.172
    1UNL     C3    5   0.256   0.009  -0.022
    1UNL     C4    6   0.336   0.116   0.046
    1UNL     C5    7   0.119   0.052  -0.096
    1UNL     C6    8   0.151   0.182  -0.162
    1UNL     C7    9   0.135   0.296  -0.095
    1UNL     C8   10   0.094   0.311   0.045
    1UNL     N1   11   0.011   0.195   0.093
    1UNL     C9   12   0.016   0.117   0.219
    1UNL    C10   13  -0.038  -0.023   0.190
    1UNL    C11   14  -0.087  -0.020   0.040
    1UNL    C12   15  -0.234  -0.002   0.049
    1UNL    C13   16  -0.284   0.099   0.131
    1UNL    C14   17  -0.423   0.118   0.137
    1UNL    C15   18  -0.507   0.025   0.083
    1UNL    C16   19  -0.460  -0.084   0.013
    1UNL    C17   20  -0.320  -0.105  -0.003
    1UNL     N2   21  -0.271  -0.226  -0.055
    1UNL    C18   22  -0.140  -0.235  -0.105
    1UNL     O3   23  -0.106  -0.307  -0.199
    1UNL    C19   24  -0.037  -0.142  -0.057
    1UNL    C20   25   0.058  -0.079  -0.157
    1UNL    C21   26  -0.011   0.097  -0.017
    1UNL     H1   27   0.347  -0.340   0.122
    1UNL     H2   28   0.271  -0.435   0.001
    1UNL     H3   29   0.166  -0.339   0.113
    1UNL     H4   30   0.315  -0.018  -0.111
    1UNL     H5   31   0.300   0.133   0.151
    1UNL     H6   32   0.433   0.075   0.059
    1UNL     H7   33   0.344   0.213  -0.015
    1UNL     H8   34   0.203   0.180  -0.260
    1UNL     H9   35   0.171   0.385  -0.146
    1UNL    H10   36   0.187   0.303   0.104
    1UNL    H11   37   0.048   0.397   0.073
    1UNL    H12   38  -0.047   0.171   0.298
    1UNL    H13   39   0.118   0.125   0.251
    1UNL    H14   40   0.031  -0.106   0.221
    1UNL    H15   41  -0.122  -0.042   0.253
    1UNL    H16   42  -0.219   0.184   0.160
    1UNL    H17   43  -0.471   0.205   0.174
    1UNL    H18   44  -0.609   0.052   0.070
    1UNL    H19   45  -0.521  -0.158  -0.040
    1UNL    H20   46  -0.340  -0.283  -0.106
    1UNL    H21   47   0.015  -0.203   0.013
    1UNL    H22   48   0.148  -0.145  -0.177
    1UNL    H23   49   0.018  -0.067  -0.260
    1UNL    H24   50  -0.070   0.154  -0.093
   0.00000   0.00000   0.00000   0.00000   0.00000   0.00000   0.00000   0.00000   0.00000
Generated with MDTraj, t= 92.0
 50
    1UNL     C1    1   0.250  -0.350   0.034
    1UNL     O1    2   0.254  -0.234  -0.041
    1UNL     C2    3   0.253  -0.125   0.044
    1UNL     O2    4   0.253  -0.141   0.162
    1UNL     C3    5   0.253   0.012  -0.022
    1UNL     C4    6   0.320   0.104   0.070
    1UNL     C5    7   0.116   0.054  -0.090
    1UNL     C6    8   0.143   0.180  -0.168
    1UNL     C7    9   0.134   0.299  -0.104
    1UNL     C8   10   0.095   0.321   0.042
    1UNL     N1   11   0.013   0.207   0.096
    1UNL     C9   12   0.028   0.136   0.226
    1UNL    C10   13  -0.034  -0.009   0.204
    1UNL    C11   14  -0.085  -0.011   0.053
    1UNL    C12   15  -0.234  -0.005   0.039
    1UNL    C13   16  -0.289   0.101   0.111
    1UNL    C14   17  -0.425   0.112   0.124
    1UNL    C15   18  -0.509   0.014   0.072
    1UNL    C16   19  -0.455  -0.099   0.029
    1UNL    C17   20  -0.320  -0.105  -0.004
    1UNL     N2   21  -0.273  -0.207  -0.092
    1UNL    C18   22  -0.134  -0.227  -0.103
    1UNL     O3   23  -0.089  -0.323  -0.161
    1UNL    C19   24  -0.035  -0.132  -0.032
    1UNL    C20   25   0.057  -0.076  -0.145
    1UNL    C21   26  -0.014   0.106  -0.012
    1UNL     H1   27   0.285  -0.438  -0.019
    1UNL     H2   28   0.146  -0.383   0.059
    1UNL     H3   29   0.302  -0.336   0.127
    1UNL     H4   30   0.317   0.003  -0.111
    1UNL     H5   31   0.263   0.128   0.159
    1UNL     H6   32   0.403   0.049   0.112
    1UNL     H7   33   0.364   0.201   0.027
    1UNL     H8   34   0.160   0.176  -0.277
    1UNL     H9   35   0.162   0.389  -0.155
    1UNL    H10   36   0.182   0.334   0.110
    1UNL    H11   37   0.035   0.403   0.051
    1UNL    H12   38  -0.037   0.198   0.295
    1UNL    H13   39   0.133   0.136   0.261
    1UNL    H14   40   0.046  -0.078   0.219
    1UNL    H15   41  -0.106  -0.021   0.282
    1UNL    H16   42  -0.235   0.179   0.156
    1UNL    H17   43  -0.468   0.201   0.164
    1UNL    H18   44  -0.616   0.039   0.083
    1UNL    H19   45  -0.508  -0.181  -0.011
    1UNL    H20   46  -0.334  -0.290  -0.115
    1UNL    H21   47   0.026  -0.194   0.031
    1UNL    H22   48   0.140  -0.148  -0.174
    1UNL    H23   49  -0.004  -0.064  -0.237
    1UNL    H24   50  -0.070   0.164  -0.089
   0.00000   0.00000   0.00000   0.00000   0.00000   0.00000   0.00000   0.00000   0.00000
Generated with MDTraj, t= 93.0
 50
    1UNL     C1    1   0.266  -0.345   0.017
    1UNL     O1    2   0.286  -0.226  -0.043
    1UNL     C2    3   0.242  -0.123   0.037
    1UNL     O2    4   0.223  -0.143   0.156
    1UNL     C3    5   0.249   0.011  -0.027
    1UNL     C4    6   0.330   0.104   0.060
    1UNL     C5    7   0.109   0.060  -0.091
    1UNL     C6    8   0.140   0.189  -0.162
    1UNL     C7    9   0.152   0.304  -0.092
    1UNL     C8   10   0.111   0.329   0.054
    1UNL     N1   11   0.020   0.213   0.096
    1UNL     C9   12   0.024   0.135   0.224
    1UNL    C10   13  -0.032  -0.016   0.199
    1UNL    C11   14  -0.083  -0.019   0.056
    1UNL    C12   15  -0.236  -0.013   0.054
    1UNL    C13   16  -0.295   0.093   0.116
    1UNL    C14   17  -0.425   0.117   0.104
    1UNL    C15   18  -0.512   0.025   0.049
    1UNL    C16   19  -0.465  -0.091   0.002
    1UNL    C17   20  -0.326  -0.114   0.003
    1UNL     N2   21  -0.272  -0.215  -0.065
    1UNL    C18   22  -0.134  -0.237  -0.085
    1UNL     O3   23  -0.098  -0.342  -0.131
    1UNL    C19   24  -0.030  -0.133  -0.035
    1UNL    C20   25   0.047  -0.066  -0.158
    1UNL    C21   26  -0.019   0.107  -0.009
    1UNL     H1   27   0.161  -0.357   0.040
    1UNL     H2   28   0.315  -0.362   0.117
    1UNL     H3   29   0.302  -0.427  -0.042
    1UNL     H4   30   0.307  -0.002  -0.122
    1UNL     H5   31   0.274   0.138   0.144
    1UNL     H6   32   0.421   0.054   0.103
    1UNL     H7   33   0.367   0.192   0.005
    1UNL     H8   34   0.147   0.191  -0.264
    1UNL     H9   35   0.160   0.395  -0.149
    1UNL    H10   36   0.195   0.337   0.123
    1UNL    H11   37   0.046   0.414   0.063
    1UNL    H12   38  -0.036   0.190   0.300
    1UNL    H13   39   0.131   0.117   0.262
    1UNL    H14   40   0.049  -0.080   0.221
    1UNL    H15   41  -0.110  -0.034   0.273
    1UNL    H16   42  -0.227   0.156   0.174
    1UNL    H17   43  -0.460   0.211   0.160
    1UNL    H18   44  -0.617   0.032   0.068
    1UNL    H19   45  -0.546  -0.158  -0.030
    1UNL    H20   46  -0.328  -0.275  -0.127
    1UNL    H21   47   0.046  -0.191   0.016
    1UNL    H22   48   0.129  -0.141  -0.186
    1UNL    H23   49  -0.015  -0.042  -0.246
    1UNL    H24   50  -0.085   0.156  -0.082
   0.00000   0.00000   0.00000   0.00000   0.00000   0.00000   0.00000   0.00000   0.00000
Generated with MDTraj, t= 94.0
 50
    1UNL     C1    1   0.303  -0.347   0.016
    1UNL     O1    2   0.297  -0.227  -0.047
    1UNL     C2    3   0.255  -0.122   0.034
    1UNL     O2    4   0.221  -0.140   0.153
    1UNL     C3    5   0.252   0.014  -0.039
    1UNL     C4    6   0.347   0.108   0.030
    1UNL     C5    7   0.112   0.062  -0.086
    1UNL     C6    8   0.118   0.196  -0.168
    1UNL     C7    9   0.109   0.306  -0.095
    1UNL     C8   10   0.094   0.308   0.056
    1UNL     N1   11   0.024   0.193   0.116
    1UNL     C9   12   0.024   0.108   0.241
    1UNL    C10   13  -0.053  -0.027   0.218
    1UNL    C11   14  -0.089  -0.024   0.067
    1UNL    C12   15  -0.241   0.004   0.040
    1UNL    C13   16  -0.294   0.117   0.097
    1UNL    C14   17  -0.432   0.136   0.096
    1UNL    C15   18  -0.512   0.041   0.045
    1UNL    C16   19  -0.461  -0.067  -0.024
    1UNL    C17   20  -0.325  -0.095  -0.008
    1UNL     N2   21  -0.266  -0.218  -0.057
    1UNL    C18   22  -0.132  -0.242  -0.077
    1UNL     O3   23  -0.093  -0.345  -0.124
    1UNL    C19   24  -0.034  -0.141  -0.025
    1UNL    C20   25   0.048  -0.076  -0.141
    1UNL    C21   26  -0.012   0.097   0.006
    1UNL     H1   27   0.354  -0.335   0.112
    1UNL     H2   28   0.358  -0.428  -0.039
    1UNL     H3   29   0.205  -0.386   0.034
    1UNL     H4   30   0.295   0.000  -0.141
    1UNL     H5   31   0.308   0.113   0.131
    1UNL     H6   32   0.452   0.062   0.038
    1UNL     H7   33   0.347   0.203  -0.014
    1UNL     H8   34   0.155   0.198  -0.277
    1UNL     H9   35   0.116   0.403  -0.143
    1UNL    H10   36   0.188   0.309   0.106
    1UNL    H11   37   0.030   0.396   0.091
    1UNL    H12   38  -0.030   0.158   0.324
    1UNL    H13   39   0.133   0.086   0.276
    1UNL    H14   40   0.001  -0.113   0.250
    1UNL    H15   41  -0.137  -0.029   0.287
    1UNL    H16   42  -0.221   0.175   0.152
    1UNL    H17   43  -0.475   0.212   0.145
    1UNL    H18   44  -0.618   0.066   0.061
    1UNL    H19   45  -0.528  -0.136  -0.069
    1UNL    H20   46  -0.324  -0.298  -0.070
    1UNL    H21   47   0.032  -0.202   0.042
    1UNL    H22   48   0.125  -0.155  -0.170
    1UNL    H23   49  -0.005  -0.043  -0.232
    1UNL    H24   50  -0.084   0.148  -0.059
   0.00000   0.00000   0.00000   0.00000   0.00000   0.00000   0.00000   0.00000   0.00000
Generated with MDTraj, t= 95.0
 50
    1UNL     C1    1   0.318  -0.335   0.032
    1UNL     O1    2   0.296  -0.227  -0.042
    1UNL     C2    3   0.260  -0.117   0.032
    1UNL     O2    4   0.239  -0.121   0.154
    1UNL     C3    5   0.235   0.018  -0.026
    1UNL     C4    6   0.329   0.120   0.035
    1UNL     C5    7   0.095   0.061  -0.085
    1UNL     C6    8   0.125   0.189  -0.162
    1UNL     C7    9   0.116   0.300  -0.089
    1UNL     C8   10   0.092   0.302   0.060
    1UNL     N1   11   0.019   0.182   0.112
    1UNL     C9   12   0.037   0.100   0.231
    1UNL    C10   13  -0.019  -0.041   0.205
    1UNL    C11   14  -0.086  -0.037   0.067
    1UNL    C12   15  -0.240  -0.008   0.064
    1UNL    C13   16  -0.294   0.114   0.108
    1UNL    C14   17  -0.426   0.142   0.089
    1UNL    C15   18  -0.509   0.062   0.024
    1UNL    C16   19  -0.458  -0.057  -0.029
    1UNL    C17   20  -0.327  -0.097   0.000
    1UNL     N2   21  -0.272  -0.216  -0.060
    1UNL    C18   22  -0.139  -0.246  -0.075
    1UNL     O3   23  -0.107  -0.354  -0.125
    1UNL    C19   24  -0.035  -0.150  -0.033
    1UNL    C20   25   0.034  -0.072  -0.150
    1UNL    C21   26  -0.026   0.094  -0.000
    1UNL     H1   27   0.394  -0.399  -0.018
    1UNL     H2   28   0.228  -0.400   0.039
    1UNL     H3   29   0.345  -0.310   0.132
    1UNL     H4   30   0.279   0.003  -0.130
    1UNL     H5   31   0.304   0.136   0.139
    1UNL     H6   32   0.439   0.087   0.038
    1UNL     H7   33   0.323   0.213  -0.013
    1UNL     H8   34   0.155   0.178  -0.261
    1UNL     H9   35   0.128   0.396  -0.137
    1UNL    H10   36   0.181   0.304   0.117
    1UNL    H11   37   0.021   0.389   0.097
    1UNL    H12   38  -0.021   0.145   0.315
    1UNL    H13   39   0.146   0.100   0.264
    1UNL    H14   40   0.054  -0.119   0.209
    1UNL    H15   41  -0.087  -0.083   0.278
    1UNL    H16   42  -0.240   0.184   0.167
    1UNL    H17   43  -0.462   0.250   0.109
    1UNL    H18   44  -0.611   0.085   0.004
    1UNL    H19   45  -0.514  -0.113  -0.106
    1UNL    H20   46  -0.336  -0.267  -0.115
    1UNL    H21   47   0.034  -0.210   0.032
    1UNL    H22   48   0.119  -0.136  -0.188
    1UNL    H23   49  -0.022  -0.040  -0.243
    1UNL    H24   50  -0.101   0.143  -0.062
   0.00000   0.00000   0.00000   0.00000   0.00000   0.00000   0.00000   0.00000   0.00000
Generated with MDTraj, t= 96.0
 50
    1UNL     C1    1   0.288  -0.344   0.046
    1UNL     O1    2   0.275  -0.228  -0.032
    1UNL     C2    3   0.258  -0.112   0.040
    1UNL     O2    4   0.244  -0.108   0.163
    1UNL     C3    5   0.256   0.017  -0.039
    1UNL     C4    6   0.329   0.124   0.037
    1UNL     C5    7   0.107   0.049  -0.091
    1UNL     C6    8   0.114   0.181  -0.162
    1UNL     C7    9   0.119   0.296  -0.094
    1UNL     C8   10   0.086   0.315   0.052
    1UNL     N1   11   0.014   0.191   0.110
    1UNL     C9   12   0.041   0.107   0.230
    1UNL    C10   13  -0.018  -0.039   0.210
    1UNL    C11   14  -0.088  -0.036   0.068
    1UNL    C12   15  -0.233  -0.012   0.064
    1UNL    C13   16  -0.293   0.103   0.118
    1UNL    C14   17  -0.426   0.135   0.105
    1UNL    C15   18  -0.508   0.045   0.048
    1UNL    C16   19  -0.455  -0.063  -0.019
    1UNL    C17   20  -0.319  -0.093  -0.016
    1UNL     N2   21  -0.265  -0.191  -0.100
    1UNL    C18   22  -0.139  -0.244  -0.090
    1UNL     O3   23  -0.101  -0.353  -0.141
    1UNL    C19   24  -0.036  -0.152  -0.024
    1UNL    C20   25   0.038  -0.080  -0.147
    1UNL    C21   26  -0.017   0.087   0.003
    1UNL     H1   27   0.196  -0.406   0.049
    1UNL     H2   28   0.311  -0.315   0.151
    1UNL     H3   29   0.376  -0.398   0.018
    1UNL     H4   30   0.311  -0.004  -0.134
    1UNL     H5   31   0.292   0.123   0.138
    1UNL     H6   32   0.437   0.113   0.047
    1UNL     H7   33   0.312   0.225  -0.001
    1UNL     H8   34   0.118   0.183  -0.271
    1UNL     H9   35   0.146   0.381  -0.154
    1UNL    H10   36   0.170   0.331   0.118
    1UNL    H11   37   0.003   0.397   0.067
    1UNL    H12   38  -0.007   0.168   0.313
    1UNL    H13   39   0.149   0.100   0.251
    1UNL    H14   40   0.060  -0.113   0.215
    1UNL    H15   41  -0.087  -0.087   0.279
    1UNL    H16   42  -0.242   0.197   0.156
    1UNL    H17   43  -0.467   0.225   0.144
    1UNL    H18   44  -0.615   0.057   0.028
    1UNL    H19   45  -0.523  -0.112  -0.085
    1UNL    H20   46  -0.340  -0.248  -0.142
    1UNL    H21   47   0.035  -0.213   0.038
    1UNL    H22   48   0.102  -0.155  -0.199
    1UNL    H23   49  -0.038  -0.045  -0.225
    1UNL    H24   50  -0.087   0.136  -0.064
   0.00000   0.00000   0.00000   0.00000   0.00000   0.00000   0.00000   0.00000   0.00000
Generated with MDTraj, t= 97.0
 50
    1UNL     C1    1   0.251  -0.346   0.070
    1UNL     O1    2   0.247  -0.229  -0.009
    1UNL     C2    3   0.246  -0.111   0.060
    1UNL     O2    4   0.251  -0.097   0.180
    1UNL     C3    5   0.256   0.010  -0.028
    1UNL     C4    6   0.354   0.116   0.037
    1UNL     C5    7   0.111   0.054  -0.094
    1UNL     C6    8   0.136   0.181  -0.164
    1UNL     C7    9   0.134   0.300  -0.100
    1UNL     C8   10   0.096   0.316   0.041
    1UNL     N1   11   0.013   0.196   0.095
    1UNL     C9   12   0.038   0.117   0.217
    1UNL    C10   13  -0.023  -0.021   0.198
    1UNL    C11   14  -0.084  -0.028   0.047
    1UNL    C12   15  -0.236  -0.008   0.049
    1UNL    C13   16  -0.294   0.088   0.136
    1UNL    C14   17  -0.432   0.093   0.151
    1UNL    C15   18  -0.510   0.027   0.066
    1UNL    C16   19  -0.459  -0.070  -0.012
    1UNL    C17   20  -0.322  -0.086  -0.030
    1UNL     N2   21  -0.270  -0.213  -0.082
    1UNL    C18   22  -0.137  -0.239  -0.108
    1UNL     O3   23  -0.093  -0.337  -0.171
    1UNL    C19   24  -0.034  -0.138  -0.048
    1UNL    C20   25   0.050  -0.070  -0.162
    1UNL    C21   26  -0.021   0.098  -0.015
    1UNL     H1   27   0.287  -0.324   0.173
    1UNL     H2   28   0.321  -0.410   0.015
    1UNL     H3   29   0.157  -0.397   0.064
    1UNL     H4   30   0.311  -0.026  -0.116
    1UNL     H5   31   0.318   0.127   0.139
    1UNL     H6   32   0.451   0.078   0.046
    1UNL     H7   33   0.356   0.216  -0.017
    1UNL     H8   34   0.170   0.173  -0.271
    1UNL     H9   35   0.157   0.392  -0.155
    1UNL    H10   36   0.186   0.318   0.110
    1UNL    H11   37   0.024   0.405   0.055
    1UNL    H12   38  -0.014   0.174   0.304
    1UNL    H13   39   0.146   0.116   0.223
    1UNL    H14   40   0.058  -0.093   0.197
    1UNL    H15   41  -0.083  -0.057   0.280
    1UNL    H16   42  -0.236   0.149   0.194
    1UNL    H17   43  -0.481   0.140   0.235
    1UNL    H18   44  -0.613   0.046   0.082
    1UNL    H19   45  -0.519  -0.144  -0.065
    1UNL    H20   46  -0.333  -0.283  -0.128
    1UNL    H21   47   0.042  -0.199   0.006
    1UNL    H22   48   0.126  -0.143  -0.200
    1UNL    H23   49  -0.026  -0.044  -0.244
    1UNL    H24   50  -0.103   0.141  -0.073
   0.00000   0.00000   0.00000   0.00000   0.00000   0.00000   0.00000   0.00000   0.00000
Generated with MDTraj, t= 98.0
 50
    1UNL     C1    1   0.234  -0.340   0.109
    1UNL     O1    2   0.240  -0.234   0.011
    1UNL     C2    3   0.250  -0.110   0.071
    1UNL     O2    4   0.254  -0.080   0.185
    1UNL     C3    5   0.249   0.006  -0.027
    1UNL     C4    6   0.342   0.104   0.038
    1UNL     C5    7   0.116   0.057  -0.101
    1UNL     C6    8   0.144   0.179  -0.175
    1UNL     C7    9   0.130   0.296  -0.110
    1UNL     C8   10   0.102   0.312   0.038
    1UNL     N1   11   0.030   0.196   0.104
    1UNL     C9   12   0.042   0.115   0.229
    1UNL    C10   13  -0.027  -0.022   0.188
    1UNL    C11   14  -0.080  -0.022   0.034
    1UNL    C12   15  -0.233  -0.011   0.049
    1UNL    C13   16  -0.294   0.092   0.118
    1UNL    C14   17  -0.428   0.093   0.147
    1UNL    C15   18  -0.508  -0.010   0.104
    1UNL    C16   19  -0.459  -0.099   0.018
    1UNL    C17   20  -0.319  -0.099  -0.024
    1UNL     N2   21  -0.274  -0.202  -0.101
    1UNL    C18   22  -0.142  -0.224  -0.128
    1UNL     O3   23  -0.104  -0.307  -0.207
    1UNL    C19   24  -0.033  -0.135  -0.067
    1UNL    C20   25   0.059  -0.070  -0.169
    1UNL    C21   26  -0.007   0.107  -0.017
    1UNL     H1   27   0.296  -0.421   0.065
    1UNL     H2   28   0.130  -0.367   0.119
    1UNL     H3   29   0.273  -0.307   0.204
    1UNL     H4   30   0.305  -0.030  -0.113
    1UNL     H5   31   0.291   0.144   0.127
    1UNL     H6   32   0.421   0.049   0.078
    1UNL     H7   33   0.385   0.187  -0.026
    1UNL     H8   34   0.160   0.182  -0.276
    1UNL     H9   35   0.135   0.385  -0.167
    1UNL    H10   36   0.202   0.326   0.098
    1UNL    H11   37   0.024   0.397   0.049
    1UNL    H12   38  -0.024   0.171   0.307
    1UNL    H13   39   0.144   0.106   0.260
    1UNL    H14   40   0.047  -0.099   0.210
    1UNL    H15   41  -0.112  -0.047   0.247
    1UNL    H16   42  -0.219   0.164   0.162
    1UNL    H17   43  -0.472   0.168   0.217
    1UNL    H18   44  -0.615  -0.004   0.136
    1UNL    H19   45  -0.532  -0.174  -0.005
    1UNL    H20   46  -0.335  -0.271  -0.148
    1UNL    H21   47   0.026  -0.209  -0.003
    1UNL    H22   48   0.136  -0.146  -0.199
    1UNL    H23   49  -0.013  -0.048  -0.256
    1UNL    H24   50  -0.085   0.154  -0.078
   0.00000   0.00000   0.00000   0.00000   0.00000   0.00000   0.00000   0.00000   0.00000
Generated with MDTraj, t= 99.0
 50
    1UNL     C1    1   0.243  -0.322   0.122
    1UNL     O1    2   0.233  -0.220   0.023
    1UNL     C2    3   0.250  -0.098   0.084
    1UNL     O2    4   0.252  -0.061   0.196
    1UNL     C3    5   0.259  -0.001  -0.029
    1UNL     C4    6   0.350   0.101   0.026
    1UNL     C5    7   0.117   0.054  -0.090
    1UNL     C6    8   0.147   0.184  -0.167
    1UNL     C7    9   0.144   0.298  -0.099
    1UNL     C8   10   0.097   0.302   0.044
    1UNL     N1   11   0.004   0.192   0.088
    1UNL     C9   12   0.038   0.110   0.201
    1UNL    C10   13  -0.017  -0.036   0.178
    1UNL    C11   14  -0.081  -0.042   0.039
    1UNL    C12   15  -0.231  -0.027   0.058
    1UNL    C13   16  -0.282   0.088   0.115
    1UNL    C14   17  -0.414   0.106   0.136
    1UNL    C15   18  -0.501   0.004   0.090
    1UNL    C16   19  -0.457  -0.109   0.037
    1UNL    C17   20  -0.322  -0.123   0.011
    1UNL     N2   21  -0.282  -0.209  -0.092
    1UNL    C18   22  -0.151  -0.217  -0.143
    1UNL     O3   23  -0.125  -0.276  -0.244
    1UNL    C19   24  -0.038  -0.147  -0.069
    1UNL    C20   25   0.065  -0.073  -0.161
    1UNL    C21   26  -0.018   0.094  -0.022
    1UNL     H1   27   0.143  -0.369   0.119
    1UNL     H2   28   0.271  -0.276   0.218
    1UNL     H3   29   0.315  -0.393   0.084
    1UNL     H4   30   0.308  -0.053  -0.111
    1UNL     H5   31   0.307   0.137   0.121
    1UNL     H6   32   0.447   0.069   0.061
    1UNL     H7   33   0.373   0.187  -0.037
    1UNL     H8   34   0.180   0.180  -0.274
    1UNL     H9   35   0.188   0.391  -0.136
    1UNL    H10   36   0.189   0.288   0.115
    1UNL    H11   37   0.040   0.397   0.075
    1UNL    H12   38  -0.020   0.152   0.292
    1UNL    H13   39   0.145   0.112   0.220
    1UNL    H14   40   0.057  -0.115   0.191
    1UNL    H15   41  -0.097  -0.061   0.244
    1UNL    H16   42  -0.225   0.178   0.129
    1UNL    H17   43  -0.448   0.188   0.193
    1UNL    H18   44  -0.604   0.025   0.088
    1UNL    H19   45  -0.533  -0.175  -0.005
    1UNL    H20   46  -0.347  -0.273  -0.130
    1UNL    H21   47   0.010  -0.234  -0.013
    1UNL    H22   48   0.154  -0.135  -0.190
    1UNL    H23   49   0.015  -0.038  -0.256
    1UNL    H24   50  -0.096   0.130  -0.093
   0.00000   0.00000   0.00000   0.00000   0.00000   0.00000   0.00000   0.00000   0.00000
