1TPCN00978
6
    1res  C1    1   -0.073   0.224  -0.012
    1res  C2    2   -0.288   0.009   0.002
    1res  C3    3   -0.097  -0.280  -0.026
    1res  C4    4    0.177  -0.191   0.047
    1res  C5    5    0.386  -0.096  -0.107
    1res  C6    6    0.298   0.095   0.015
  10.00000  10.00000  10.00000
