[ moleculetype ]
; name        nrexcl
res           1

[ atoms ]
;    nr  type resnr resid  atom  cgnr     charge       mass
      1 TC3       1 res   C1        1      0.000     36.000
      2 TN6d      1 res   C2        2      0.000     36.000
      3 TC5       1 res   C3        3      0.000     36.000
      4 N4a       1 res   C4        4      0.000     72.000
      5 TC5       1 res   C5        5      0.000     36.000
      6 TC5       1 res   C6        6      0.000     36.000
      7 TC5       1 res   C7        7      0.000     36.000
      8 SP3       1 res   C8        8      0.000     54.000
      9 TC3       1 res   C9        9      0.000     36.000
     10 TN6       1 res   C10      10      0.000     36.000
     11 TC5       1 res   C11      11      0.000     36.000
     12 TC5       1 res   C12      12      0.000     36.000
     13 TC3       1 res   C13      13      0.000     36.000
     14 TC3       1 res   C14      14      0.000     36.000
     15 TN3r      1 res   C15      15      0.000     36.000
     16 TN6       1 res   C16      16      0.000     36.000
     17 TN6       1 res   C17      17      0.000     36.000
     18 SN6       1 res   C18      18      0.000     54.000
     19 TN3r      1 res   C19      19      0.000     36.000

[ bonds ]
;  ai    aj   funct      b0(nm)        k
    1     2     1      0.27448    20000
    2     3     1      0.27787    20000
    2    11     1      0.28949    20000
    3     4     1      0.32126    20000
    3     9     1      0.25438    20000
    3    11     1      0.27461    20000
    3    18     1      0.29126    20000
    4     5     1      0.32265    20000
    5     6     1      0.25786    20000
    5     7     1      0.30562    20000
    6     7     1      0.25787    20000
    7     8     1      0.32865    20000
    9    10     1      0.26002    20000
   10    11     1      0.26440    20000
   11    12     1      0.22408    20000
   11    18     1      0.25456    20000
   12    13     1      0.25607    20000
   12    16     1      0.28275    20000
   12    17     1      0.22600    20000
   13    14     1      0.31773    20000
   13    17     1      0.28688    20000
   14    15     1      0.30713    20000
   14    16     1      0.25986    20000
   16    18     1      0.32407    20000
   18    19     1      0.32992    20000
