1TPCN01948
19
    1res  C1    1    0.202  -0.541  -0.089
    1res  C2    2    0.176  -0.194  -0.342
    1res  C3    3    0.128   0.037  -0.180
    1res  C4    4    0.279   0.065   0.023
    1res  C5    5    0.258  -0.049   0.241
    1res  C6    6    0.293  -0.040   0.497
    1res  C7    7    0.389   0.197   0.358
    1res  C8    8   -0.003   0.242  -0.084
    1res  C9    9   -0.042   0.462   0.031
    1res  C10   10   -0.038   0.588   0.256
    1res  C11   11    0.044   0.310   0.278
    1res  C12   12   -0.165  -0.022  -0.236
    1res  C13   13   -0.227  -0.217  -0.002
    1res  C14   14   -0.221   0.050   0.153
    1res  C15   15   -0.326   0.265   0.094
    1res  C16   16   -0.415   0.493   0.175
    1res  C17   17   -0.323   0.322   0.391
    1res  C18   18   -0.171  -0.396  -0.270
    1res  C19   19   -0.008  -0.181  -0.346
  10.00000  10.00000  10.00000
