[ moleculetype ]
; name        nrexcl
res           1

[ atoms ]
;    nr  type resnr resid  atom  cgnr     charge       mass
      1 SN4a      1 res   C1        1      0.000     54.000
      2 SC3       1 res   C2        2      0.000     54.000
      3 TC3       1 res   C3        3      0.000     36.000
      4 SN4a      1 res   C4        4      0.000     54.000
      5 TC5       1 res   C5        5      0.000     36.000
      6 TC5       1 res   C6        6      0.000     36.000
      7 TC5       1 res   C7        7      0.000     36.000
      8 SN4a      1 res   C8        8      0.000     54.000
      9 TC5       1 res   C9        9      0.000     36.000
     10 TC5       1 res   C10      10      0.000     36.000
     11 TC5       1 res   C11      11      0.000     36.000
     12 SC4       1 res   C12      12      0.000     54.000
     13 SC3       1 res   C13      13      0.000     54.000
     14 SN4a      1 res   C14      14      0.000     54.000
     15 TC5       1 res   C15      15      0.000     36.000
     16 TC5       1 res   C16      16      0.000     36.000
     17 TC5       1 res   C17      17      0.000     36.000
     18 TC4       1 res   C18      18      0.000     36.000
     19 TN2a      1 res   C19      19      0.000     36.000

[ bonds ]
;  ai    aj   funct      b0(nm)        k
    1     2     1      0.43002    20000
    2     3     1      0.28601    20000
    2    12     1      0.39569    20000
    2    19     1      0.18434    20000
    3     4     1      0.25465    20000
    3     8     1      0.26097    20000
    3    12     1      0.30369    20000
    4     5     1      0.24689    20000
    5     6     1      0.25813    20000
    5     7     1      0.30219    20000
    6     7     1      0.29081    20000
    8     9     1      0.25150    20000
    9    10     1      0.25814    20000
    9    11     1      0.30213    20000
   10    11     1      0.29075    20000
   12    13     1      0.31077    20000
   12    18     1      0.37511    20000
   12    19     1      0.24889    20000
   13    14     1      0.30812    20000
   13    18     1      0.32696    20000
   14    15     1      0.24666    20000
   15    16     1      0.25803    20000
   15    17     1      0.30195    20000
   16    17     1      0.29083    20000
