[ moleculetype ]
; name        nrexcl
res           1

[ atoms ]
;    nr  type  resnr resid  atom  cgnr     charge       mass
      1 SC2       1 res   C1        1      0.000     54.000
      2 SP1       1 res   C2        2      0.000     54.000
      3 C4        1 res   C3        3      0.000     72.000
      4 SN4a      1 res   C4        4      0.000     54.000
      5 SN6       1 res   C5        5      0.000     54.000
      6 TN4a      1 res   C6        6      0.000     36.000
      7 SP4       1 res   C7        7      0.000     54.000
      8 TN6       1 res   C8        8      0.000     36.000
      9 TC4       1 res   C9        9      0.000     36.000
     10 TN4a      1 res   C10      10      0.000     36.000
     11 SN3r      1 res   C11      11      0.000     54.000
     12 TC3       1 res   C12      12      0.000     36.000
     13 SC2       1 res   C13      13      0.000     54.000
     14 N3r       1 res   C14      14      0.000     72.000
     15 TN4a      1 res   C15      15      0.000     36.000
     16 TC4       1 res   C16      16      0.000     36.000
     17 SP4       1 res   C17      17      0.000     54.000
     18 TN6       1 res   C18      18      0.000     36.000
     19 TC4       1 res   C19      19      0.000     36.000
     20 TN6       1 res   C20      20      0.000     36.000
     21 TN4a      1 res   C21      21      0.000     36.000
     22 TC4       1 res   C22      22      0.000     36.000
     23 SP4       1 res   C23      23      0.000     54.000
     24 TN6       1 res   C24      24      0.000     36.000

[ constraints ]
;  ai    aj   funct      b0(nm)
   17    18     1      0.29720
   21    24     1      0.23395
   23    24     1      0.28731
    9    10     1      0.30355
    5     6     1      0.26777
   15    16     1      0.30203
    6    19     1      0.32365
    5    21     1      0.29996
    1     2     1      0.30508
   11    12     1      0.35146
   16    17     1      0.34296
   21    22     1      0.32364
    5    20     1      0.24524
   15    18     1      0.24092
    3     4     1      0.30015
    7    10     1      0.25296

[ bonds ]
;  ai    aj   funct      b0(nm)          k(kJ/mol/nm^2)
    4     5     1      0.24959           7538.4
   13    14     1      0.32524           8089.1
   22    23     1      0.30420          16200.1
    1     3     1      0.42004           2471.6
   14    15     1      0.33091           1488.5
   19    20     1      0.25703           7138.1
    6     7     1      0.32323          12371.2
   10    11     1      0.28121           7328.2
    7     8     1      0.29422          10686.0
   12    13     1      0.33694          16605.6
    8     9     1      0.27667          15148.2

[ angles ]
;  ai    aj    ak  funct     th0(deg)        k(kJ/mol/rad^2)
    1     3     4     1    126.63183           108.48
    2     1     3     1     93.40056            35.51
    3     4     5     1    139.93619           173.07
    4     5     6     1     80.42480            91.29
    4     5    20     1    156.97567           119.64
    4     5    21     1    122.51126           150.58
    5     6     7     1     71.58707           334.58
    5     6    19     1     80.52532           396.91
    5    20    19     1    100.53866            93.87
    5    21    22     1    117.06955           128.92
    5    21    24     1     70.77554           301.66
    6     5    20     1     91.20980           158.49
    6     5    21     1    155.41240           259.50
    6     7     8     1     75.20835           173.63
    6     7    10     1    132.90174           149.79
    6    19    20     1     77.29804           301.59
    7     6    19     1    106.62358           187.66
    7     8     9     1     81.00721            45.88
    7    10     9     1     82.55720            69.78
    7    10    11     1    103.21157            55.98
    8     7    10     1     64.66623            84.84
    8     9    10     1     60.94667           105.77
    9    10    11     1    114.47741            79.10
   10    11    12     1    143.08307            10.87
   11    12    13     1     61.87357           445.20
   12    13    14     1    146.24562            54.69
   13    14    15     1    105.67057            41.65
   14    15    16     1    114.40230            67.08
   14    15    18     1    111.88203            73.31
   15    16    17     1     59.50175          2894.85
   15    18    17     1     72.70135          1121.19
   16    15    18     1    124.55826           713.55
   16    17    18     1     97.25069          1518.47
   20     5    21     1     69.44147           239.68
   21    22    23     1     66.23907          1272.66
   21    24    23     1     81.73872          1195.81
   22    21    24     1    106.00222           431.68
   22    23    24     1     98.66415           325.35

[ dihedrals ]
;  ai    aj    ak    al  funct   phi0(deg)        k(kJ/mol)   mult
    1     3     4     5     1     88.70563        3.810      1
    2     1     3     4     1    -47.27254        9.647      1
    3     4     5     6     1    -49.54136       21.567      1
    3     4     5    20     1     -4.75634       27.567      1
    3     4     5    21     1    134.54039       21.988      1
    4     5     6     7     1     95.12195       17.089      1
    4     5     6    19     1    -24.24678       19.048      1
    4     5    20    19     1    127.96347       20.171      1
    4     5    21    22     1    131.01971       25.578      1
    4     5    21    24     1   -132.19075       22.012      1
    5     6     7     8     1    -32.88249       22.227      1
    5     6     7    10     1    -31.79129       29.808      1
    5     6    19    20     1   -162.92844       20.969      1
    5    20    19     6     1    162.96386       20.597      1
    5    21    22    23     1   -125.29984       20.240      1
    5    21    24    23     1     81.08760       12.953      1
    6     5    20    19     1   -163.11774       22.443      1
    6     5    21    22     1    -40.56516       29.983      1
    6     5    21    24     1     59.29753       30.100      1
    6     7     8     9     1    -50.12471       23.609      1
    6     7    10     9     1   -132.00289       28.262      1
    6     7    10    11     1    -15.14536       28.053      1
    7     6     5    20     1    -82.98916       18.936      1
    7     6     5    21     1    -97.03375       27.592      1
    7     6    19    20     1    133.71013       21.923      1
    7     8     9    10     1   -149.16471       17.625      1
    7    10     9     8     1    137.83408       20.499      1
    7    10    11    12     1    -89.34874       11.570      1
    8     7     6    19     1     41.92205       22.864      1
    8     7    10     9     1   -147.36630       18.097      1
    8     7    10    11     1    -20.44671       25.177      1
    8     9    10    11     1     21.19631       27.429      1
    9     8     7    10     1    137.23433       20.867      1
    9    10    11    12     1    -24.24890       10.301      1
   10     7     6    19     1     40.47106       29.687      1
   10    11    12    13     1    145.58337        7.929      1
   11    12    13    14     1     -4.01612       12.275      1
   12    13    14    15     1    -34.30036       26.510      1
   13    14    15    16     1     18.87901       30.920      1
   13    14    15    18     1   -138.07166       30.756      1
   14    15    16    17     1      7.91766       20.830      1
   14    15    18    17     1     -9.73234       21.528      1
   15    16    17    18     1   -167.06501       10.049      1
   15    18    17    16     1    165.08012       11.469      1
   16    15    18    17     1   -159.12438       15.674      1
   17    16    15    18     1    159.48067       14.307      1
   19     6     5    20     1    162.16872       19.949      1
   19     6     5    21     1    150.78078       25.322      1
   19    20     5    21     1      6.87589       26.903      1
   20     5    21    22     1    -64.99920       26.196      1
   20     5    21    24     1     30.45125       25.522      1
   21    22    23    24     1   -164.31176       17.730      1
   21    24    23    22     1    162.18249       20.310      1
   22    21    24    23     1   -162.63799       19.614      1
   23    22    21    24     1    161.67331       18.929      1
