[ moleculetype ]
; name        nrexcl
res           1

[ atoms ]
;    nr  type  resnr resid  atom  cgnr     charge       mass
      1 TC3       1 res   C1        1      0.000     36.000
      2 TC3       1 res   C2        2      0.000     36.000
      3 TN6d      1 res   C3        3      0.000     36.000
      4 SC3       1 res   C4        4      0.000     54.000
      5 TP1       1 res   C5        5      0.000     36.000
      6 TC3       1 res   C6        6      0.000     36.000
      7 TC5       1 res   C7        7      0.000     36.000
      8 TN6d      1 res   C8        8      0.000     36.000
      9 TC5       1 res   C9        9      0.000     36.000
     10 TC5       1 res   C10      10      0.000     36.000
     11 TC5       1 res   C11      11      0.000     36.000
     12 TN2a      1 res   C12      12      0.000     36.000

[ constraints ]
;  ai    aj   funct      b0(nm)
    1     2     1      0.33076
   10    11     1      0.30242
    2     3     1      0.23688
   11    12     1      0.32068
    4     5     1      0.35042
    7     9     1      0.18384
    9    11     1      0.22300
    3     4     1      0.24657
    7     8     1      0.21798
    9    10     1      0.24965
    3     7     1      0.22298
    6     7     1      0.24531
    8     9     1      0.21908
    3     6     1      0.30755
    2     4     1      0.30353
    4     6     1      0.33724

[ bonds ]
;  ai    aj   funct      b0(nm)          k(kJ/mol/nm^2)

[ angles ]
;  ai    aj    ak  funct     th0(deg)        k(kJ/mol/rad^2)
    1     2     3     1    119.17074           679.98
    1     2     4     1     72.24027          1734.44
    2     3     4     1     77.77276          1758.92
    2     3     6     1     85.03555          1358.75
    2     3     7     1    136.76896          1114.27
    2     4     3     1     49.70486          1795.38
    2     4     5     1     79.38413           708.56
    2     4     6     1     70.64869          2682.77
    3     2     4     1     52.52224          7085.28
    3     4     5     1    108.81353          1047.61
    3     4     6     1     61.26172          4243.48
    3     6     4     1     44.66075          9079.86
    3     6     7     1     45.87276          8983.79
    3     7     6     1     81.96781          3322.02
    3     7     8     1     87.84323          1289.56
    3     7     9     1    151.33754           970.82
    4     3     6     1     74.07741          2246.76
    4     3     7     1     84.80768          1723.91
    4     6     7     1     63.67247          2400.10
    5     4     6     1     56.48443          1358.38
    6     3     7     1     52.15939          7190.53
    6     7     8     1    168.49007          1353.57
    6     7     9     1    124.67962          1673.29
    7     8     9     1     49.75181          5655.44
    7     9     8     1     64.81522          5045.60
    7     9    10     1    160.94123          1338.36
    7     9    11     1    118.92029          1480.26
    8     7     9     1     65.43295          5336.53
    8     9    10     1     96.70707          1481.10
    8     9    11     1    173.88511          1039.97
    9    10    11     1     46.43689         10128.29
    9    11    10     1     54.21915          7456.42
    9    11    12     1    123.22615          1360.71
   10     9    11     1     79.34398          4673.02
   10    11    12     1     69.32356          1677.43

[ dihedrals ]
;  ai    aj    ak    al  funct   phi0(deg)        k(kJ/mol)   mult
    1     2     3     4     1   -151.10641       10.038      1
    1     2     3     6     1    -77.05381       10.007      1
    1     2     3     7     1    -81.06459       11.529      1
    1     2     4     3     1     26.86589       10.038      1
    1     2     4     5     1    -98.99808       10.022      1
    1     2     4     6     1    -41.92727        9.321      1
    2     3     4     5     1   -122.09851        7.770      1
    2     3     4     6     1    -91.27423        5.511      1
    2     3     6     4     1    101.92165        4.765      1
    2     3     6     7     1      5.01158        7.081      1
    2     3     7     6     1   -172.95991        8.626      1
    2     3     7     8     1      9.96093       10.784      1
    2     3     7     9     1     -8.22853       16.399      1
    2     4     3     6     1     91.27423        5.511      1
    2     4     3     7     1     39.95837        6.293      1
    2     4     6     3     1   -126.93330        5.552      1
    2     4     6     7     1    -72.82352        7.061      1
    3     2     4     5     1     53.95639        6.310      1
    3     2     4     6     1    111.04385        4.027      1
    3     4     6     7     1   -127.95167        4.773      1
    3     6     4     5     1    -37.10790        8.567      1
    3     6     7     8     1   -169.31515       31.645      1
    3     6     7     9     1      9.87022       10.765      1
    3     7     6     4     1    128.98257        3.981      1
    3     7     8     9     1      9.98824        9.313      1
    3     7     9     8     1   -159.98584       16.485      1
    3     7     9    10     1   -158.82807       26.980      1
    3     7     9    11     1     18.68389       13.628      1
    4     2     3     6     1   -104.07613        4.776      1
    4     2     3     7     1   -111.03198        7.094      1
    4     3     6     7     1     83.05381        7.016      1
    4     3     7     6     1   -106.01204        6.281      1
    4     3     7     8     1     74.10001        7.826      1
    4     3     7     9     1     58.14020       15.034      1
    4     6     3     7     1    -83.05381        7.016      1
    4     6     7     8     1    138.37789       27.257      1
    4     6     7     9     1    -41.94457       12.173      1
    5     4     3     6     1    149.00673        7.090      1
    5     4     3     7     1     97.91293        7.814      1
    5     4     6     7     1     14.83079       10.034      1
    6     3     7     8     1      1.82348        9.311      1
    6     3     7     9     1    -16.56703       15.725      1
    6     4     3     7     1    128.91186        3.953      1
    6     7     8     9     1     -0.15319       30.733      1
    6     7     9     8     1      0.00049       12.225      1
    6     7     9    10     1     -1.96107       22.924      1
    6     7     9    11     1   -179.11120       12.941      1
    7     8     9    10     1     -0.80274       10.008      1
    7     8     9    11     1     -1.85435       29.600      1
    7     9    10    11     1     -2.65946       22.190      1
    7     9    11    10     1     -0.00033       12.147      1
    7     9    11    12     1      1.26681       14.295      1
    8     7     9    10     1   -179.07610       23.609      1
    8     7     9    11     1     -1.05424       11.483      1
    8     9    10    11     1     -0.14114       10.706      1
    8     9    11    10     1   -177.59644       30.342      1
    8     9    11    12     1    177.31051       27.549      1
    9    10    11    12     1      2.03735       12.162      1
   10     9    11    12     1   -178.06304       13.585      1
