1TPCN06281
12
    1res  C1    1   -0.935  -0.094  -0.055
    1res  C2    2   -0.495  -0.181  -0.059
    1res  C3    3   -0.331  -0.062   0.113
    1res  C4    4   -0.249   0.248   0.074
    1res  C5    5   -0.091   0.042   0.097
    1res  C6    6   -0.000  -0.183  -0.053
    1res  C7    7    0.047   0.076  -0.184
    1res  C8    8    0.225   0.188  -0.031
    1res  C9    9    0.424  -0.083  -0.103
    1res  C10   10    0.669  -0.134   0.079
    1res  C11   11    0.867   0.056   0.046
    1res  C12   12   -0.615   0.103   0.106
  10.00000  10.00000  10.00000
