1TPCN04681
26
    1res  C1    1    0.767  -0.288   0.213
    1res  C2    2    0.750  -0.074   0.111
    1res  C3    3    0.645   0.101   0.163
    1res  C4    4    0.515   0.224   0.070
    1res  C5    5    0.397   0.299  -0.137
    1res  C6    6    0.305   0.028  -0.063
    1res  C7    7    0.015  -0.101  -0.112
    1res  C8    8   -0.190   0.134  -0.139
    1res  C9    9   -0.197  -0.066   0.187
    1res  C10   10   -0.406   0.023   0.050
    1res  C11   11   -0.509   0.008  -0.194
    1res  C12   12   -0.466  -0.276  -0.006
    1res  C13   13   -0.825  -0.199   0.028
    1res  C14   14   -1.029   0.062  -0.006
    1res  C15   15   -0.947  -0.086   0.237
    1res  C16   16   -0.582  -0.253   0.240
    1res  C17   17    0.056   0.217   0.056
    1res  C18   18    0.451   0.016  -0.264
    1res  C19   19    0.350  -0.075  -0.490
    1res  C20   20    0.376   0.205  -0.381
    1res  C21   21    0.631   0.444   0.165
    1res  C22   22    0.572   0.340   0.390
    1res  C23   23    0.725   0.158   0.361
    1res  C24   24    0.774  -0.006  -0.115
    1res  C25   25    0.955  -0.159  -0.099
    1res  C26   26    0.821  -0.355  -0.046
  10.00000  10.00000  10.00000
