[ moleculetype ]
; name        nrexcl
res           1

[ atoms ]
;    nr  type  resnr resid  atom  cgnr     charge       mass
      1 SC4       1 res   C1        1      0.000     54.000
      2 SN6       1 res   C2        2      0.000     54.000
      3 SN4a      1 res   C3        3      0.000     54.000
      4 TP1       1 res   C4        4      0.000     36.000
      5 TN6       1 res   C5        5      0.000     36.000
      6 TN6       1 res   C6        6      0.000     36.000
      7 TN6       1 res   C7        7      0.000     36.000
      8 SC2       1 res   C8        8      0.000     54.000
      9 SN6       1 res   C9        9      0.000     54.000

[ bonds ]
;  ai    aj   funct      b0(nm)          k(kJ/mol/nm^2)
    1     2     1      0.35356         115136.8
    1     9     1      0.32418          61599.1
    2     3     1      0.32154           3890.1
    2     8     1      0.28488          47581.7
    2     9     1      0.35025         200694.2
    3     4     1      0.22074           9833.8
    3     5     1      0.27258          21232.1
    3     7     1      0.29417          31437.7
    5     6     1      0.21114          18081.9
    6     7     1      0.23021          16933.7

[ angles ]
;  ai    aj    ak  funct     th0(deg)        k(kJ/mol/rad^2)
    1     2     3     1    101.94860            65.70
    1     2     8     1    132.39750           931.02
    1     2     9     1     54.85031          4847.71
    1     9     2     1     63.09866          5002.40
    2     1     9     1     62.05106          8107.96
    2     3     4     1    113.13487            59.48
    2     3     5     1    147.42552            94.55
    2     3     7     1     76.83004           189.50
    3     2     8     1    106.97287            65.84
    3     2     9     1    126.92976            54.75
    3     5     6     1     81.18363           427.47
    3     7     6     1     73.47615           603.25
    4     3     5     1     90.50596           435.12
    4     3     7     1    133.43481            22.70
    5     3     7     1     78.80116           311.66
    5     6     7     1    109.45851           179.73
    8     2     9     1     78.16540          1085.87
