[ moleculetype ]
; name        nrexcl
res           1

[ atoms ]
;    nr  type  resnr resid  atom  cgnr     charge       mass
      1 SN6a      1 res   C1        1      0.000     54.000
      2 SN6a      1 res   C2        2      0.000     54.000
      3 TC6       1 res   C3        3      0.000     36.000

[ constraints ]
;  ai    aj   funct      b0(nm)
    1     2     1      0.45420
    1     3     1      0.25469
    2     3     1      0.26337

[ bonds ]
;  ai    aj   funct      b0(nm)          k(kJ/mol/nm^2)

[ angles ]
;  ai    aj    ak  funct     th0(deg)        k(kJ/mol/rad^2)
    1     2     3     1     28.17918          4704.46
    1     3     2     1    122.58781          1188.78
    2     1     3     1     29.23303          4286.17

[ dihedrals ]
;  ai    aj    ak    al  funct   phi0(deg)        k(kJ/mol)   mult
