1TPCN03567
34
    1res  C1    1    1.229   0.323  -0.093
    1res  C2    2    1.011   0.272   0.137
    1res  C3    3    0.910   0.102   0.280
    1res  C4    4    1.067  -0.139   0.223
    1res  C5    5    0.809  -0.119   0.124
    1res  C6    6    0.565  -0.237   0.199
    1res  C7    7    0.552  -0.096  -0.173
    1res  C8    8    0.403  -0.343  -0.023
    1res  C9    9    0.225  -0.054  -0.227
    1res  C10   10    0.047  -0.272  -0.208
    1res  C11   11   -0.119  -0.126  -0.080
    1res  C12   12   -0.335  -0.291  -0.105
    1res  C13   13   -0.475  -0.475  -0.342
    1res  C14   14   -0.537  -0.348  -0.005
    1res  C15   15   -0.607  -0.154  -0.092
    1res  C16   16   -0.890  -0.225  -0.124
    1res  C17   17   -1.134  -0.206  -0.067
    1res  C18   18   -1.095  -0.007   0.005
    1res  C19   19   -0.868  -0.027   0.083
    1res  C20   20   -0.945   0.276   0.213
    1res  C21   21   -0.980   0.304   0.434
    1res  C22   22   -0.753   0.214   0.433
    1res  C23   23   -0.668   0.219   0.213
    1res  C24   24   -0.434  -0.041  -0.057
    1res  C25   25   -0.600   0.192  -0.131
    1res  C26   26   -0.839   0.193  -0.330
    1res  C27   27   -0.548   0.239  -0.428
    1res  C28   28   -0.369   0.277  -0.312
    1res  C29   29   -0.405   0.333  -0.083
    1res  C30   30   -0.000   0.099  -0.196
    1res  C31   31   -0.145   0.123   0.170
    1res  C32   32    0.201  -0.161   0.140
    1res  C33   33    0.536   0.041   0.245
    1res  C34   34    0.700   0.178  -0.060
  10.00000  10.00000  10.00000
