[ moleculetype ]
; name        nrexcl
res           1

[ atoms ]
;    nr  type  resnr resid  atom  cgnr     charge       mass
      1 TX2       1 res   C1        1      0.000     36.000
      2 TX4e      1 res   C2        2      0.000     36.000
      3 TX3       1 res   C3        3      0.000     36.000
      4 TX3       1 res   C4        4      0.000     36.000
      5 TX3       1 res   C5        5      0.000     36.000
      6 TX3       1 res   C6        6      0.000     36.000

[ bonds ]
;  ai    aj   funct      b0(nm)          k(kJ/mol/nm^2)
    1     2     1      0.22060          57190.6
    1     6     1      0.22610          45602.3
    2     3     1      0.21730         100177.6
    3     4     1      0.22747         140515.1
    4     5     1      0.22853         100568.0
    5     6     1      0.22172         144126.9

[ angles ]
;  ai    aj    ak  funct     th0(deg)        k(kJ/mol/rad^2)
    1     2     3     1     97.66775          1095.43
    1     6     5     1     95.36844          1363.55
    2     1     6     1    100.62717           653.49
    2     3     4     1     95.87883           831.08
    3     4     5     1     92.43090          1340.81
    4     5     6     1     98.06268          1250.80

[ dihedrals ]
;  ai    aj    ak    al  funct   phi0(deg)        k(kJ/mol)   mult
    1     2     3     4     1     96.92563        8.540      1
    1     2     3     4     1     13.85003        8.388      2
    1     2     3     4     1    -69.22808        8.139      3
    1     6     5     4     1    -99.01728        7.085      1
    1     6     5     4     1    -18.03467        7.001      2
    1     6     5     4     1     62.94772        6.862      3
    2     1     6     5     1    102.94732        5.542      1
    2     1     6     5     1     25.89444        5.503      2
    2     1     6     5     1    -51.15884        5.438      3
    2     3     4     5     1    -96.86930        7.037      1
    2     3     4     5     1    -13.73693        6.953      2
    2     3     4     5     1     69.39885        6.815      3
    3     2     1     6     1    -99.04815        8.511      1
    3     2     1     6     1    -18.09692        8.361      2
    3     2     1     6     1     62.85301        8.115      3
    3     4     5     6     1     94.98418        7.053      1
    3     4     5     6     1      9.96803        6.970      2
    3     4     5     6     1    -75.04877        6.832      3
