1TPCN03497
14
    1res  C1    1    0.844   0.095  -0.366
    1res  C2    2    0.652   0.038  -0.025
    1res  C3    3    0.408  -0.050   0.192
    1res  C4    4    0.164  -0.071   0.384
    1res  C5    5   -0.078   0.020   0.262
    1res  C6    6   -0.000  -0.042   0.050
    1res  C7    7   -0.122   0.023  -0.194
    1res  C8    8   -0.089   0.279  -0.024
    1res  C9    9   -0.322   0.253  -0.108
    1res  C10   10   -0.591   0.177  -0.080
    1res  C11   11   -0.487  -0.073  -0.261
    1res  C12   12   -0.306  -0.004   0.005
    1res  C13   13   -0.166  -0.228   0.118
    1res  C14   14   -0.529  -0.331   0.095
  10.00000  10.00000  10.00000
