1TPCN04052
34
    1res  C1    1    0.830  -0.301  -0.312
    1res  C2    2    0.970  -0.216  -0.121
    1res  C3    3    1.045  -0.025   0.009
    1res  C4    4    0.981   0.247  -0.096
    1res  C5    5    0.779   0.105   0.035
    1res  C6    6    0.495  -0.065   0.232
    1res  C7    7    0.423   0.171   0.061
    1res  C8    8    0.468  -0.111  -0.114
    1res  C9    9    0.168  -0.111  -0.086
    1res  C10   10    0.021   0.103  -0.074
    1res  C11   11   -0.106   0.040   0.128
    1res  C12   12   -0.305   0.214   0.241
    1res  C13   13   -0.567   0.226   0.444
    1res  C14   14   -0.392   0.439   0.170
    1res  C15   15   -0.491   0.310   0.022
    1res  C16   16   -0.626   0.413  -0.201
    1res  C17   17   -0.864   0.503  -0.316
    1res  C18   18   -0.925   0.320  -0.230
    1res  C19   19   -0.821   0.262  -0.055
    1res  C20   20   -0.979   0.008  -0.066
    1res  C21   21   -1.057  -0.226   0.074
    1res  C22   22   -1.021  -0.069   0.252
    1res  C23   23   -0.872   0.111   0.187
    1res  C24   24   -0.406   0.119   0.007
    1res  C25   25   -0.477  -0.102  -0.147
    1res  C26   26   -0.668  -0.101  -0.395
    1res  C27   27   -0.650  -0.349  -0.177
    1res  C28   28   -0.678  -0.301   0.040
    1res  C29   29   -0.460  -0.224   0.110
    1res  C30   30   -0.057  -0.196   0.165
    1res  C31   31    0.288  -0.299   0.073
    1res  C32   32    0.669  -0.284   0.116
    1res  C33   33    0.809  -0.216   0.274
    1res  C34   34    0.949   0.043   0.331
  10.00000  10.00000  10.00000
