1TPCN04625
14
    1res  C1    1   -0.028   0.078   0.229
    1res  C2    2   -0.218  -0.063   0.179
    1res  C3    3   -0.393  -0.035  -0.047
    1res  C4    4   -0.471   0.150  -0.191
    1res  C5    5   -0.678   0.053  -0.013
    1res  C6    6   -0.522   0.126   0.187
    1res  C7    7   -0.236  -0.187  -0.116
    1res  C8    8   -0.057  -0.002  -0.247
    1res  C9    9    0.154  -0.254  -0.246
    1res  C10   10    0.140  -0.188   0.058
    1res  C11   11    0.374  -0.028  -0.090
    1res  C12   12    0.532   0.216  -0.121
    1res  C13   13    0.626   0.247   0.162
    1res  C14   14   -0.064  -0.377  -0.119
  10.00000  10.00000  10.00000
