[ moleculetype ]
; name        nrexcl
res           1

[ atoms ]
;    nr  type resnr resid  atom  cgnr     charge       mass
      1 SC4       1 res   C1        1      0.000     54.000
      2 TC3       1 res   C2        2      0.000     36.000
      3 TC5       1 res   C3        3      0.000     36.000
      4 SN4a      1 res   C4        4      0.000     54.000
      5 SN4a      1 res   C5        5      0.000     54.000
      6 TN3r      1 res   C6        6      0.000     36.000
      7 SN4a      1 res   C7        7      0.000     54.000
      8 TP1       1 res   C8        8      0.000     36.000
      9 TN6       1 res   C9        9      0.000     36.000
     10 TN4a      1 res   C10      10      0.000     36.000
     11 TC4       1 res   C11      11      0.000     36.000
     12 TN6       1 res   C12      12      0.000     36.000
     13 TN6       1 res   C13      13      0.000     36.000
     14 TN6       1 res   C14      14      0.000     36.000
     15 TN6       1 res   C15      15      0.000     36.000
     16 TN6       1 res   C16      16      0.000     36.000
     17 TN6       1 res   C17      17      0.000     36.000
     18 TN6       1 res   C18      18      0.000     36.000
     19 TN6       1 res   C19      19      0.000     36.000
     20 TC3       1 res   C20      20      0.000     36.000
     21 SC4       1 res   C21      21      0.000     54.000
     22 TC3       1 res   C22      22      0.000     36.000
     23 SC4       1 res   C23      23      0.000     54.000
     24 SC4       1 res   C24      24      0.000     54.000
     25 SC3       1 res   C25      25      0.000     54.000
     26 TN6       1 res   C26      26      0.000     36.000
     27 TN4a      1 res   C27      27      0.000     36.000
     28 TN6       1 res   C28      28      0.000     36.000
     29 TN6       1 res   C29      29      0.000     36.000
     30 TN6       1 res   C30      30      0.000     36.000
     31 TN4a      1 res   C31      31      0.000     36.000
     32 TC4       1 res   C32      32      0.000     36.000
     33 TN6       1 res   C33      33      0.000     36.000
     34 TN6       1 res   C34      34      0.000     36.000
     35 TN6       1 res   C35      35      0.000     36.000
     36 TC4       1 res   C36      36      0.000     36.000
     37 TP1       1 res   C37      37      0.000     36.000
     38 TC3       1 res   C38      38      0.000     36.000

[ bonds ]
;  ai    aj   funct      b0(nm)        k
    1     2     1      0.29739    20000
    1     3     1      0.30927    20000
    2     3     1      0.28424    20000
    3     4     1      0.24181    20000
    3    20     1      0.30034    20000
    3    21     1      0.35382    20000
    4     5     1      0.32480    20000
    5     6     1      0.28848    20000
    5    17     1      0.25353    20000
    5    19     1      0.27462    20000
    6     7     1      0.27824    20000
    7     8     1      0.29495    20000
    7     9     1      0.26400    20000
    7    16     1      0.25381    20000
    9    10     1      0.20231    20000
    9    15     1      0.22279    20000
   10    11     1      0.26266    20000
   10    14     1      0.22969    20000
   11    12     1      0.26963    20000
   12    13     1      0.24944    20000
   13    14     1      0.21944    20000
   15    16     1      0.24708    20000
   17    18     1      0.26305    20000
   18    19     1      0.25830    20000
   20    21     1      0.30900    20000
   21    22     1      0.30657    20000
   21    23     1      0.34556    20000
   22    23     1      0.34160    20000
   23    24     1      0.31799    20000
   23    38     1      0.27867    20000
   24    25     1      0.28705    20000
   24    36     1      0.40813    20000
   24    38     1      0.33157    20000
   25    26     1      0.28945    20000
   25    36     1      0.30534    20000
   26    27     1      0.28028    20000
   26    30     1      0.21131    20000
   27    28     1      0.24796    20000
   28    29     1      0.24689    20000
   29    30     1      0.22499    20000
   30    31     1      0.22261    20000
   31    32     1      0.30360    20000
   31    35     1      0.25917    20000
   32    33     1      0.29996    20000
   33    34     1      0.23746    20000
   34    35     1      0.22007    20000
   36    37     1      0.28551    20000
