[ moleculetype ]
; name        nrexcl
res           1

[ atoms ]
;    nr  type  resnr resid  atom  cgnr     charge       mass
      1 TC4       1 res   C1        1      0.000     36.000
      2 SN6       1 res   C2        2      0.000     54.000
      3 SC3       1 res   C3        3      0.000     54.000
      4 TN6       1 res   C4        4      0.000     36.000
      5 SN4a      1 res   C5        5      0.000     54.000
      6 N4a       1 res   C6        6      0.000     72.000
      7 TC5       1 res   C7        7      0.000     36.000
      8 SP4       1 res   C8        8      0.000     54.000
      9 SN6       1 res   C9        9      0.000     54.000
     10 SP4       1 res   C10      10      0.000     54.000
     11 TN6       1 res   C11      11      0.000     36.000
     12 TP1       1 res   C12      12      0.000     36.000
     13 SN4a      1 res   C13      13      0.000     54.000

[ constraints ]
;  ai    aj   funct      b0(nm)
    1     2     1      0.36052
   10    11     1      0.27993
    2     3     1      0.26633
    4     5     1      0.26846
    5    10     1      0.28696
    7     9     1      0.33923
    1     4     1      0.26174
    3     4     1      0.22396
    1    13     1      0.35052
    5     6     1      0.29100
    7     8     1      0.28239
    3    13     1      0.33580
    6     7     1      0.34769
    8     9     1      0.36340

[ bonds ]
;  ai    aj   funct      b0(nm)          k(kJ/mol/nm^2)
    5    11     1      0.28938          18845.0
    3    12     1      0.28311          19768.6

[ angles ]
;  ai    aj    ak  funct     th0(deg)        k(kJ/mol/rad^2)
    1     2     3     1     75.84749          1555.28
    1     4     3     1    107.53822          1198.45
    1     4     5     1    117.74348           542.93
    1    13     3     1     69.69889          2511.56
    2     1     4     1     73.45054          2596.06
    2     1    13     1     57.53795          2086.10
    2     3     4     1    101.47339          1900.88
    2     3    12     1    132.17540           535.57
    2     3    13     1     68.18060          1839.91
    3     4     5     1    126.93654           693.63
    4     1    13     1     58.10993          2120.15
    4     3    12     1     76.72733           712.12
    4     3    13     1     62.94605          1492.71
    4     5     6     1     82.38510           556.68
    4     5    10     1    125.91938           607.21
    4     5    11     1     74.51585          1077.86
    5     6     7     1    140.81455           239.17
    5    10    11     1     61.37160          1344.06
    5    11    10     1     60.54090          1746.45
    6     5    10     1     77.60387           381.20
    6     5    11     1     93.85663           138.44
    6     7     8     1    154.63742           690.32
    6     7     9     1     84.84549           847.22
    7     8     9     1     61.88328          7253.14
    7     9     8     1     47.23576         10557.22
    8     7     9     1     70.88094          5537.56
   10     5    11     1     58.08756          3248.19
   12     3    13     1     69.23019          1346.95

[ dihedrals ]
;  ai    aj    ak    al  funct   phi0(deg)        k(kJ/mol)   mult
    1     2     3     4     1    172.00285        7.807      1
    1     2     3    12     1     91.89262       12.167      1
    1     2     3    13     1    117.00974        4.025      1
    1     4     3     2     1   -168.95874       10.021      1
    1     4     3    12     1    -36.97137        8.524      1
    1     4     3    13     1   -110.03472        7.786      1
    1     4     5     6     1    -58.83217       11.450      1
    1     4     5    10     1   -125.77587       13.624      1
    1     4     5    11     1   -154.92409       14.443      1
    1    13     3     2     1   -108.07977        6.280      1
    1    13     3     4     1    134.95105        5.534      1
    1    13     3    12     1     49.05118        8.570      1
    2     1     4     3     1    171.94760        7.825      1
    2     1     4     5     1    -36.73402       10.054      1
    2     1    13     3     1    129.04697        4.018      1
    2     3     4     5     1     43.48607       10.785      1
    3     2     1     4     1   -173.92377        6.321      1
    3     2     1    13     1   -110.01391        6.193      1
    3     4     1    13     1    109.21244        7.047      1
    3     4     5     6     1     89.13656       11.436      1
    3     4     5    10     1     20.00366       12.265      1
    3     4     5    11     1     -8.77419       14.322      1
    3    13     1     4     1   -140.93885        4.017      1
    4     5     6     7     1     65.56380       14.350      1
    4     5    10    11     1    148.93243       12.945      1
    4     5    11    10     1    -26.96846       11.554      1
    5     4     1    13     1    -98.82374       10.059      1
    5     4     3    12     1    175.00041       11.486      1
    5     4     3    13     1    101.82254       10.799      1
    5     6     7     8     1     48.45547       22.847      1
    5     6     7     9     1     58.16791       17.794      1
    6     5    10    11     1     76.11099       12.237      1
    6     5    11    10     1   -106.99858        8.498      1
    6     7     8     9     1   -168.19912       22.185      1
    6     7     9     8     1      5.99643       12.207      1
    7     6     5    10     1   -164.11827       16.428      1
    7     6     5    11     1    140.00676       16.418      1
