[ moleculetype ]
; name        nrexcl
res           1

[ atoms ]
;    nr  type  resnr resid  atom  cgnr     charge       mass
      1 SN6       1 res   C1        1      0.000     54.000
      2 TC5       1 res   C2        2      0.000     36.000
      3 TC5e      1 res   C3        3      0.000     36.000
      4 TC5       1 res   C4        4      0.000     36.000
      5 TC5       1 res   C5        5      0.000     36.000

[ constraints ]
;  ai    aj   funct      b0(nm)
    1     2     1      0.33319
    3     5     1      0.25155
    2     3     1      0.25272
    4     5     1      0.28943
    3     4     1      0.25219
    1     3     1      0.25758

[ bonds ]
;  ai    aj   funct      b0(nm)          k(kJ/mol/nm^2)

[ angles ]
;  ai    aj    ak  funct     th0(deg)        k(kJ/mol/rad^2)
    1     2     3     1     49.87232         14256.72
    1     3     2     1     81.51917          9584.90
    1     3     4     1    168.79346          3301.43
    1     3     5     1     99.22131          3751.83
    2     1     3     1     48.60850         13435.63
    2     3     4     1    109.08808          4861.65
    2     3     5     1    176.40029          2320.43
    3     4     5     1     54.82451         12124.46
    3     5     4     1     55.03681         10315.41
    4     3     5     1     70.13870          8528.63

[ dihedrals ]
;  ai    aj    ak    al  funct   phi0(deg)        k(kJ/mol)   mult
    1     2     3     4     1      0.94647        8.519      1
    1     2     3     5     1    -14.19826       10.832      1
    1     3     4     5     1   -175.69595       23.541      1
    1     3     5     4     1      0.96507        8.497      1
    2     1     3     4     1     -1.89481       24.920      1
    2     1     3     5     1     -0.00615        7.801      1
    2     3     4     5     1     -0.00567        7.802      1
    2     3     5     4     1   -167.21605       11.242      1
