1TPCN01638
6
    1res  C1    1    0.360   0.028  -0.100
    1res  C2    2    0.119   0.001   0.007
    1res  C3    3   -0.150  -0.261   0.017
    1res  C4    4   -0.288  -0.013   0.075
    1res  C5    5   -0.331   0.202   0.083
    1res  C6    6   -0.111   0.295  -0.013
  10.00000  10.00000  10.00000
