1TPCN04924
16
    1res  C1    1   -0.531   0.163  -0.195
    1res  C2    2   -0.733   0.045   0.045
    1res  C3    3   -0.988   0.027   0.071
    1res  C4    4   -0.445  -0.051  -0.036
    1res  C5    5   -0.228  -0.069  -0.025
    1res  C6    6   -0.005  -0.032   0.018
    1res  C7    7    0.095  -0.271   0.010
    1res  C8    8    0.173  -0.023   0.076
    1res  C9    9    0.441  -0.214   0.047
    1res  C10   10    0.518  -0.010  -0.064
    1res  C11   11    0.793   0.151  -0.001
    1res  C12   12    0.925   0.006   0.189
    1res  C13   13    0.964  -0.134  -0.011
    1res  C14   14    0.806  -0.047  -0.207
    1res  C15   15    0.352   0.164   0.011
    1res  C16   16   -0.088   0.206  -0.025
  10.00000  10.00000  10.00000
