1TPCN05469
37
    1res  C1    1    0.053   0.299  -0.330
    1res  C2    2    0.111   0.437  -0.077
    1res  C3    3    0.088   0.140  -0.067
    1res  C4    4    0.312   0.147   0.026
    1res  C5    5    0.557   0.048  -0.044
    1res  C6    6    0.762  -0.063   0.131
    1res  C7    7    0.993  -0.122   0.064
    1res  C8    8    1.108  -0.299  -0.173
    1res  C9    9    1.239  -0.073  -0.035
    1res  C10   10    1.442  -0.058   0.034
    1res  C11   11    1.577   0.135   0.136
    1res  C12   12    1.758   0.008   0.023
    1res  C13   13    1.706  -0.254   0.043
    1res  C14   14    1.512  -0.268  -0.092
    1res  C15   15    1.168   0.127   0.050
    1res  C16   16    1.084   0.016   0.283
    1res  C17   17    0.750  -0.055  -0.202
    1res  C18   18    0.572  -0.221  -0.166
    1res  C19   19    0.403  -0.086  -0.269
    1res  C20   20    0.020   0.165   0.184
    1res  C21   21   -0.212   0.223   0.073
    1res  C22   22   -0.289   0.130  -0.203
    1res  C23   23   -0.200  -0.116   0.014
    1res  C24   24   -0.492  -0.222  -0.058
    1res  C25   25   -0.700  -0.043  -0.138
    1res  C26   26   -0.962  -0.100  -0.020
    1res  C27   27   -0.982  -0.354  -0.074
    1res  C28   28   -1.167  -0.447   0.066
    1res  C29   29   -1.105  -0.263   0.224
    1res  C30   30   -1.152  -0.097   0.078
    1res  C31   31   -1.381   0.089   0.077
    1res  C32   32   -1.664   0.121   0.013
    1res  C33   33   -1.406   0.334   0.034
    1res  C34   34   -1.325   0.269  -0.183
    1res  C35   35   -1.233   0.067  -0.165
    1res  C36   36   -0.678   0.046   0.187
    1res  C37   37   -0.383  -0.083   0.223
  10.00000  10.00000  10.00000
