[ moleculetype ]
; name        nrexcl
res           1

[ atoms ]
;    nr  type resnr resid  atom  cgnr     charge       mass
      1 TC4       1 res   C1        1      0.000     36.000
      2 TN4a      1 res   C2        2      0.000     36.000
      3 TN6       1 res   C3        3      0.000     36.000
      4 TN6       1 res   C4        4      0.000     36.000
      5 SN6       1 res   C5        5      0.000     54.000
      6 TN4a      1 res   C6        6      0.000     36.000
      7 TN6       1 res   C7        7      0.000     36.000
      8 SC3       1 res   C8        8      0.000     54.000
      9 SC4       1 res   C9        9      0.000     54.000
     10 TC3       1 res   C10      10      0.000     36.000
     11 SC4       1 res   C11      11      0.000     54.000
     12 TC3       1 res   C12      12      0.000     36.000
     13 SC4       1 res   C13      13      0.000     54.000
     14 TN2a      1 res   C14      14      0.000     36.000
     15 SC3       1 res   C15      15      0.000     54.000
     16 TC3       1 res   C16      16      0.000     36.000
     17 SC4       1 res   C17      17      0.000     54.000
     18 SP2       1 res   C18      18      0.000     54.000
     19 SN6       1 res   C19      19      0.000     54.000
     20 SC4       1 res   C20      20      0.000     54.000
     21 TN6       1 res   C21      21      0.000     36.000
     22 SN4a      1 res   C22      22      0.000     54.000
     23 TP1       1 res   C23      23      0.000     36.000
     24 TN6       1 res   C24      24      0.000     36.000
     25 TN6       1 res   C25      25      0.000     36.000
     26 TN6       1 res   C26      26      0.000     36.000
     27 TN4a      1 res   C27      27      0.000     36.000
     28 TP1       1 res   C28      28      0.000     36.000
     29 TN6       1 res   C29      29      0.000     36.000
     30 TN6       1 res   C30      30      0.000     36.000
     31 TN6       1 res   C31      31      0.000     36.000
     32 TN6       1 res   C32      32      0.000     36.000
     33 TN6       1 res   C33      33      0.000     36.000

[ bonds ]
;  ai    aj   funct      b0(nm)        k
    1     2     1      0.29810    20000
    1    33     1      0.25055    20000
    2     3     1      0.20875    20000
    2    31     1      0.22854    20000
    3     4     1      0.21199    20000
    3    30     1      0.23915    20000
    4     5     1      0.22905    20000
    4    27     1      0.22716    20000
    5     6     1      0.29674    20000
    5    21     1      0.21975    20000
    6     7     1      0.26029    20000
    7     8     1      0.32787    20000
    7    21     1      0.21102    20000
    8     9     1      0.24649    20000
    8    20     1      0.36408    20000
    9    10     1      0.33064    20000
    9    11     1      0.34462    20000
    9    20     1      0.32490    20000
   10    11     1      0.30776    20000
   11    12     1      0.37025    20000
   11    13     1      0.26660    20000
   12    13     1      0.34051    20000
   13    14     1      0.22910    20000
   13    15     1      0.32722    20000
   13    19     1      0.31430    20000
   14    15     1      0.16952    20000
   15    16     1      0.25616    20000
   15    17     1      0.35302    20000
   15    19     1      0.28906    20000
   16    17     1      0.30653    20000
   17    18     1      0.30889    20000
   21    22     1      0.27426    20000
   22    23     1      0.29061    20000
   22    24     1      0.28330    20000
   22    26     1      0.29618    20000
   24    25     1      0.23423    20000
   25    26     1      0.21732    20000
   27    28     1      0.24124    20000
   27    29     1      0.25830    20000
   29    30     1      0.22371    20000
   31    32     1      0.23011    20000
   32    33     1      0.24754    20000
