[ moleculetype ]
; name        nrexcl
res           1

[ atoms ]
;    nr  type resnr resid  atom  cgnr     charge       mass
      1 TN3r      1 res   C1        1      0.000     36.000
      2 TN4a      1 res   C2        2      0.000     36.000
      3 SC3       1 res   C3        3      0.000     54.000
      4 SC5       1 res   C4        4      0.000     54.000
      5 TC3       1 res   C5        5      0.000     36.000
      6 TC4       1 res   C6        6      0.000     36.000
      7 SC3       1 res   C7        7      0.000     54.000
      8 SC2       1 res   C8        8      0.000     54.000
      9 TC5       1 res   C9        9      0.000     36.000
     10 P1        1 res   C10      10      0.000     72.000
     11 TC4       1 res   C11      11      0.000     36.000
     12 TC3       1 res   C12      12      0.000     36.000
     13 TN6       1 res   C13      13      0.000     36.000
     14 SC4       1 res   C14      14      0.000     54.000

[ bonds ]
;  ai    aj   funct      b0(nm)        k
    1     2     1      0.26299    20000
    2     3     1      0.22371    20000
    3     4     1      0.24133    20000
    3     5     1      0.34076    20000
    3    12     1      0.26347    20000
    3    14     1      0.34478    20000
    4    11     1      0.31984    20000
    5     6     1      0.32422    20000
    6     7     1      0.31944    20000
    6    11     1      0.27941    20000
    7     8     1      0.32867    20000
    7    11     1      0.31913    20000
    8     9     1      0.27265    20000
    9    10     1      0.25401    20000
   12    13     1      0.28259    20000
   13    14     1      0.24300    20000
