1TPCN01806
11
    1res  C1    1   -0.066   0.307   0.071
    1res  C2    2    0.153   0.099   0.106
    1res  C3    3    0.370   0.040  -0.083
    1res  C4    4    0.611   0.032   0.007
    1res  C5    5    0.221  -0.216   0.087
    1res  C6    6    0.090  -0.331  -0.107
    1res  C7    7   -0.074  -0.196   0.053
    1res  C8    8   -0.117   0.012   0.016
    1res  C9    9   -0.138   0.158  -0.217
    1res  C10   10   -0.349   0.031   0.066
    1res  C11   11   -0.476  -0.162  -0.177
  10.00000  10.00000  10.00000
