1TPCN00667
17
    1res  C1    1    0.100   0.331  -0.150
    1res  C2    2    0.080  -0.005   0.035
    1res  C3    3    0.074  -0.096  -0.245
    1res  C4    4   -0.138  -0.084  -0.101
    1res  C5    5   -0.209  -0.146   0.159
    1res  C6    6   -0.477   0.035  -0.013
    1res  C7    7   -0.672   0.003  -0.260
    1res  C8    8   -0.685   0.167   0.104
    1res  C9    9   -0.451   0.099   0.230
    1res  C10   10    0.107  -0.268  -0.054
    1res  C11   11    0.247  -0.184   0.195
    1res  C12   12    0.320  -0.020   0.008
    1res  C13   13    0.370   0.088  -0.176
    1res  C14   14    0.494  -0.001  -0.021
    1res  C15   15    0.707   0.068  -0.131
    1res  C16   16    0.639  -0.082   0.125
    1res  C17   17    0.969  -0.057   0.099
  10.00000  10.00000  10.00000
