[ moleculetype ]
; name        nrexcl
res           1

[ atoms ]
;    nr  type  resnr resid  atom  cgnr     charge       mass
      1 SC4       1 res   C1        1      0.000     54.000
      2 SC3       1 res   C2        2      0.000     54.000
      3 SC5       1 res   C3        3      0.000     54.000
      4 TN3r      1 res   C4        4      0.000     36.000
      5 SN4a      1 res   C5        5      0.000     54.000
      6 TN3r      1 res   C6        6      0.000     36.000
      7 SN4a      1 res   C7        7      0.000     54.000
      8 SP4       1 res   C8        8      0.000     54.000
      9 TP1       1 res   C9        9      0.000     36.000
     10 SP4       1 res   C10      10      0.000     54.000
     11 TN6       1 res   C11      11      0.000     36.000

[ constraints ]
;  ai    aj   funct      b0(nm)
    1     2     1      0.29555
    5    11     1      0.28259
   10    11     1      0.27065
    2     3     1      0.21722
    4     5     1      0.32010
    5    10     1      0.23811
    3     4     1      0.22211
    7     8     1      0.24647
    1     3     1      0.30338
    5     6     1      0.25739
    6     7     1      0.34068
    8     9     1      0.26348

[ bonds ]
;  ai    aj   funct      b0(nm)          k(kJ/mol/nm^2)

[ angles ]
;  ai    aj    ak  funct     th0(deg)        k(kJ/mol/rad^2)
    1     2     3     1     70.69959          1442.76
    1     3     2     1     66.81450          2095.43
    1     3     4     1    126.70727           448.89
    2     1     3     1     42.48563          7170.70
    2     3     4     1    162.41130           313.14
    3     4     5     1     73.87633           397.08
    4     5     6     1     83.56291           665.84
    4     5    10     1    126.26229           156.16
    4     5    11     1     77.11145           399.86
    5     6     7     1    158.18166           346.48
    5    10    11     1     67.16195          1072.12
    5    11    10     1     50.91936          1810.46
    6     5    10     1     87.20459          1258.87
    6     5    11     1    117.17556           108.74
    6     7     8     1     75.71063           773.68
    7     8     9     1     80.52961           380.99
   10     5    11     1     61.91846          2021.43

[ dihedrals ]
;  ai    aj    ak    al  funct   phi0(deg)        k(kJ/mol)   mult
    1     2     3     4     1    -33.00711       18.821      1
    1     3     4     5     1    -43.08168       19.790      1
    2     1     3     4     1     12.95225       11.432      1
    2     3     4     5     1    179.71417       20.227      1
    3     4     5     6     1     82.09793       12.226      1
    3     4     5    10     1      0.11880       12.267      1
    3     4     5    11     1    -35.06955       14.364      1
    4     5     6     7     1     22.71996       29.060      1
    4     5    10    11     1    136.45436       17.689      1
    4     5    11    10     1    -35.97943       17.772      1
    5     6     7     8     1     42.40243       29.967      1
    6     5    10    11     1     55.06068       17.133      1
    6     5    11    10     1   -112.95815       12.865      1
    6     7     8     9     1    -78.10066       14.977      1
    7     6     5    10     1    153.42669       26.483      1
    7     6     5    11     1     95.28907       28.551      1
