[ moleculetype ]
; name        nrexcl
res           1

[ atoms ]
;    nr  type  resnr resid  atom  cgnr     charge       mass
      1 TC5       1 res   C1        1      0.000     36.000
      2 TC5       1 res   C2        2      0.000     36.000
      3 TC5e      1 res   C3        3      0.000     36.000
      4 TC5       1 res   C4        4      0.000     36.000
      5 TC5e      1 res   C5        5      0.000     36.000
      6 TC5       1 res   C6        6      0.000     36.000
      7 TC5       1 res   C7        7      0.000     36.000

[ bonds ]
;  ai    aj   funct      b0(nm)          k(kJ/mol/nm^2)
    1     2     1      0.29055         187623.5
    1     3     1      0.25263         322531.4
    2     3     1      0.25249         293995.7
    3     4     1      0.12158         389929.1
    4     5     1      0.12152         436672.7
    5     6     1      0.25265         388220.5
    5     7     1      0.25246         316970.4
    6     7     1      0.29026         272682.1

[ angles ]
;  ai    aj    ak  funct     th0(deg)        k(kJ/mol/rad^2)
    1     2     3     1     54.91079         12377.76
    1     3     2     1     70.22641          9037.47
    1     3     4     1    144.55831          2699.90
    2     1     3     1     54.86280         12999.89
    2     3     4     1    144.64047          2733.10
    3     4     5     1    173.76753           535.77
    4     5     6     1    144.57545          2958.05
    4     5     7     1    144.64253          2860.22
    5     6     7     1     54.89649         13193.73
    5     7     6     1     54.95434         15931.61
    6     5     7     1     70.14918         11344.77

[ dihedrals ]
;  ai    aj    ak    al  funct   phi0(deg)        k(kJ/mol)   mult
    1     2     3     4     1      1.82414       16.341      1
    1     2     3     4     1   -176.30575       15.135      2
    1     2     3     4     1      5.66850       13.252      3
    1     3     4     5     1    -72.69077        5.401      1
    1     3     4     5     1      0.16714       20.207      2
    1     3     4     5     1    172.96179        8.662      3
    2     1     3     4     1     -1.04569       15.632      1
    2     1     3     4     1    177.90292       14.482      2
    2     1     3     4     1     -3.16182       12.690      3
    2     3     4     5     1     95.42301        9.117      1
    2     3     4     5     1     -5.16349       19.947      2
    2     3     4     5     1    -20.77684        3.150      3
    3     4     5     6     1    -80.03854        7.019      1
    3     4     5     6     1      2.51493       22.614      2
    3     4     5     6     1     86.57217        1.386      3
    3     4     5     7     1     75.42215        8.394      1
    3     4     5     7     1     -9.26638       19.542      2
    3     4     5     7     1    164.49545        9.698      3
    4     5     6     7     1     -2.27814       13.679      1
    4     5     6     7     1    175.52941       12.950      2
    4     5     6     7     1     -6.48083       11.797      3
    4     5     7     6     1      2.92197       14.391      1
    4     5     7     6     1   -174.16003       13.625      2
    4     5     7     6     1      8.74912       12.403      3
