[ moleculetype ]
; name        nrexcl
res           1

[ atoms ]
;    nr  type  resnr resid  atom  cgnr     charge       mass
      1 TC3       1 res   C1        1      0.000     36.000
      2 TC5       1 res   C2        2      0.000     36.000
      3 TC3       1 res   C3        3      0.000     36.000
      4 TN6d      1 res   C4        4      0.000     36.000
      5 TC3       1 res   C5        5      0.000     36.000
      6 TC5       1 res   C6        6      0.000     36.000
      7 N6a       1 res   C7        7      0.000     72.000
      8 TN3r      1 res   C8        8      0.000     36.000
      9 TN6d      1 res   C9        9      0.000     36.000
     10 TC5       1 res   C10      10      0.000     36.000
     11 TC5       1 res   C11      11      0.000     36.000
     12 TC5       1 res   C12      12      0.000     36.000

[ bonds ]
;  ai    aj   funct      b0(nm)          k(kJ/mol/nm^2)
    1     2     1      0.26478          22484.4
    2     3     1      0.25688         111858.4
    2     4     1      0.27375         139449.6
    3     4     1      0.29708          71126.8
    4     5     1      0.26749          10019.3
    5     6     1      0.24138          42139.4
    6     7     1      0.26984          54847.3
    6     9     1      0.21839         167120.5
    6    10     1      0.18400         353716.0
    9    10     1      0.21745         257201.2
   10    11     1      0.25026         282412.6
   10    12     1      0.25053         302133.0
   11    12     1      0.29161         144687.1

[ angles ]
;  ai    aj    ak  funct     th0(deg)        k(kJ/mol/rad^2)
    1     2     3     1    144.72676           310.56
    1     2     4     1     79.25199           379.92
    2     3     4     1     58.69079          5382.97
    2     4     3     1     53.30342          4287.24
    2     4     5     1     99.76814            16.52
    3     2     4     1     68.00572          3528.80
    3     4     5     1     73.64004            78.34
    4     5     6     1    133.21995            65.22
    5     6     7     1    110.91513           366.97
    5     6     9     1    158.51797           179.89
    5     6    10     1    107.39587           445.33
    6     9    10     1     49.94135          7015.82
    6    10     9     1     65.29850          3579.48
    6    10    11     1    161.31706          1837.20
    6    10    12     1    126.64832          1593.64
    7     6     9     1     74.10672          1206.57
    7     6    10     1    138.38501          1158.36
    9     6    10     1     64.76015          5372.58
    9    10    11     1     96.59185          1712.90
    9    10    12     1    166.84040          1018.99
   10    11    12     1     54.42511         17222.90
   10    12    11     1     54.34562          9211.91
   11    10    12     1     71.22928          6250.04
