[ moleculetype ]
; name        nrexcl
res           1

[ atoms ]
;    nr  type resnr resid  atom  cgnr     charge       mass
      1 SC4       1 res   C1        1      0.000     54.000
      2 TP1       1 res   C2        2      0.000     36.000
      3 TC3       1 res   C3        3      0.000     36.000
      4 TC5       1 res   C4        4      0.000     36.000
      5 TN2a      1 res   C5        5      0.000     36.000
      6 TC3       1 res   C6        6      0.000     36.000
      7 TC5       1 res   C7        7      0.000     36.000
      8 TC3       1 res   C8        8      0.000     36.000
      9 SC4       1 res   C9        9      0.000     54.000
     10 TC3       1 res   C10      10      0.000     36.000
     11 SC4       1 res   C11      11      0.000     54.000
     12 SC4       1 res   C12      12      0.000     54.000
     13 SC3       1 res   C13      13      0.000     54.000
     14 TN6       1 res   C14      14      0.000     36.000
     15 TN4a      1 res   C15      15      0.000     36.000
     16 TP1       1 res   C16      16      0.000     36.000
     17 TN6       1 res   C17      17      0.000     36.000
     18 TN6       1 res   C18      18      0.000     36.000
     19 TN6       1 res   C19      19      0.000     36.000

[ bonds ]
;  ai    aj   funct      b0(nm)        k
    1     2     1      0.25115    20000
    1     3     1      0.29701    20000
    1     4     1      0.25398    20000
    3     4     1      0.27688    20000
    4     5     1      0.25986    20000
    4     6     1      0.29425    20000
    4     7     1      0.26989    20000
    6     7     1      0.25174    20000
    7     8     1      0.28592    20000
    7     9     1      0.24136    20000
    8     9     1      0.27564    20000
    9    10     1      0.25947    20000
    9    11     1      0.37029    20000
   10    11     1      0.34436    20000
   11    12     1      0.39042    20000
   11    13     1      0.25718    20000
   12    13     1      0.32428    20000
   13    14     1      0.29623    20000
   14    15     1      0.26703    20000
   14    19     1      0.21629    20000
   15    16     1      0.23603    20000
   15    17     1      0.22723    20000
   17    18     1      0.23702    20000
   18    19     1      0.21935    20000
