[ moleculetype ]
; name        nrexcl
res           1

[ atoms ]
;    nr  type  resnr resid  atom  cgnr     charge       mass
      1 TC4       1 res   C1        1      0.000     36.000
      2 SN6       1 res   C2        2      0.000     54.000
      3 SN5a      1 res   C3        3      0.000     54.000
      4 SC5       1 res   C4        4      0.000     54.000
      5 N4a       1 res   C5        5      0.000     72.000
      6 TC5       1 res   C6        6      0.000     36.000
      7 SN6       1 res   C7        7      0.000     54.000
      8 TC5       1 res   C8        8      0.000     36.000
      9 TN6       1 res   C9        9      0.000     36.000
     10 SN4a      1 res   C10      10      0.000     54.000
     11 TP1       1 res   C11      11      0.000     36.000
     12 SP4       1 res   C12      12      0.000     54.000
     13 TN6       1 res   C13      13      0.000     36.000

[ constraints ]
;  ai    aj   funct      b0(nm)
    1     2     1      0.36210
   10    11     1      0.29144
    4     9     1      0.22422
    2     3     1      0.28563
    4     5     1      0.33353
   10    13     1      0.27091
    6     8     1      0.29816
    3     4     1      0.31843
    7     8     1      0.28372
    1     3     1      0.36029
    5     6     1      0.35032
    9    10     1      0.28496
    6     7     1      0.30127
   12    13     1      0.28286
   10    12     1      0.28381
    1     9     1      0.26927
    2     4     1      0.28441

[ bonds ]
;  ai    aj   funct      b0(nm)          k(kJ/mol/nm^2)

[ angles ]
;  ai    aj    ak  funct     th0(deg)        k(kJ/mol/rad^2)
    1     2     3     1     66.37240          3615.33
    1     2     4     1     73.80777          2577.77
    1     3     2     1     67.04985          2490.07
    1     3     4     1     70.49954          2785.20
    1     9     4     1    105.29454          1637.64
    1     9    10     1     94.32140           193.30
    2     1     3     1     46.57779          5024.51
    2     1     9     1     75.49139          2540.99
    2     3     4     1     55.85415          3096.00
    2     4     3     1     56.21001          5530.92
    2     4     5     1    108.43638          1316.54
    2     4     9     1    100.68302          2170.91
    3     1     9     1     58.10836          3938.83
    3     2     4     1     67.93588          2995.85
    3     4     5     1     57.05480          1546.04
    3     4     9     1     68.71409          2682.34
    4     5     6     1    127.67263            99.83
    4     9    10     1    132.60744           380.13
    5     4     9     1     76.35443           837.80
    5     6     7     1    139.78485          1329.25
    5     6     8     1     83.78324          1337.31
    6     7     8     1     61.19768          9570.68
    6     8     7     1     62.30707          7981.57
    7     6     8     1     56.49522          9946.88
    9    10    11     1    130.72805           523.27
    9    10    12     1    126.09579          1121.31
    9    10    13     1     66.07852          1144.18
   10    12    13     1     57.08079          3323.57
   10    13    12     1     61.66691          1316.62
   11    10    12     1     91.34812          2186.64
   11    10    13     1    129.15201           397.63
   12    10    13     1     61.25207          1384.03

[ dihedrals ]
;  ai    aj    ak    al  funct   phi0(deg)        k(kJ/mol)   mult
    1     2     3     4     1     99.89869        4.766      1
    1     2     4     3     1   -109.06497        3.992      1
    1     2     4     5     1    -86.13672        7.798      1
    1     2     4     9     1   -164.98990        5.538      1
    1     3     2     4     1    -99.89869        4.766      1
    1     3     4     2     1    105.00160        5.498      1
    1     3     4     5     1    -47.22136        8.505      1
    1     3     4     9     1   -134.99881        4.046      1
    1     9     4     2     1    159.94957        7.740      1
    1     9     4     3     1    111.99645        4.803      1
    1     9     4     5     1     52.02348        6.344      1
    1     9    10    11     1    -34.32306       21.681      1
    1     9    10    12     1     97.15039       22.677      1
    1     9    10    13     1     85.38942       18.331      1
    2     1     3     4     1   -120.92372        4.010      1
    2     1     9     4     1   -164.91626        5.540      1
    2     1     9    10     1     59.00855        7.045      1
    2     3     1     9     1     79.97195        6.245      1
    2     3     4     5     1     27.92379        7.817      1
    2     3     4     9     1    -59.06907        5.533      1
    2     4     5     6     1   -138.52082       16.380      1
    2     4     9    10     1    -88.89402       12.957      1
    3     1     2     4     1    107.04253        4.028      1
    3     1     9     4     1   -116.00268        4.789      1
    3     1     9    10     1    106.07507        6.315      1
    3     2     1     9     1   -120.01339        4.781      1
    3     2     4     5     1   -156.00340        7.782      1
    3     2     4     9     1    124.98363        5.493      1
    3     4     5     6     1   -116.11973       17.766      1
    3     4     9    10     1   -133.21658       12.945      1
    4     2     1     9     1    167.92879        4.755      1
    4     3     1     9     1    140.89969        3.970      1
    4     5     6     7     1   -115.08634       23.401      1
    4     5     6     8     1   -117.78485       26.344      1
    4     9    10    11     1   -151.23321       17.688      1
    4     9    10    12     1    -19.07724       22.316      1
    4     9    10    13     1    -30.51613       16.403      1
    5     4     9    10     1    166.11162       13.612      1
    5     6     7     8     1    176.07850       16.329      1
    5     6     8     7     1     -1.78990       12.140      1
    6     5     4     9     1    -40.30249       15.032      1
    9    10    12    13     1    168.84307       15.686      1
    9    10    13    12     1    -10.06934       13.618      1
   11    10    12    13     1    -46.87596       10.066      1
   11    10    13    12     1    114.96848       10.019      1
