[ moleculetype ]
; name        nrexcl
res           1

[ atoms ]
;    nr  type resnr resid  atom  cgnr     charge       mass
      1 TN2a      1 res   C1        1      0.000     36.000
      2 SC6       1 res   C2        2      0.000     54.000
      3 SN2       1 res   C3        3      0.000     54.000
      4 TC6       1 res   C4        4      0.000     36.000

[ bonds ]
;  ai    aj   funct      b0(nm)        k
    1     2     1      0.25703    20000
    1     4     1      0.21517    20000
    2     3     1      0.32222    20000
    2     4     1      0.26509    20000
