[ moleculetype ]
; name        nrexcl
res           1

[ atoms ]
;    nr  type  resnr resid  atom  cgnr     charge       mass
      1 TC3       1 res   C1        1      0.000     36.000
      2 TC5       1 res   C2        2      0.000     36.000
      3 TC3       1 res   C3        3      0.000     36.000
      4 TN6d      1 res   C4        4      0.000     36.000
      5 TC3       1 res   C5        5      0.000     36.000
      6 TC5       1 res   C6        6      0.000     36.000
      7 TC3       1 res   C7        7      0.000     36.000
      8 TN6d      1 res   C8        8      0.000     36.000
      9 TC5       1 res   C9        9      0.000     36.000
     10 TC5       1 res   C10      10      0.000     36.000
     11 TC5       1 res   C11      11      0.000     36.000

[ constraints ]
;  ai    aj   funct      b0(nm)
   10    11     1      0.29157
    2     3     1      0.25724
    4     5     1      0.25997
    6     9     1      0.18436
    9    11     1      0.25043
    6     8     1      0.21837
    3     4     1      0.29406
    5     6     1      0.24071
    9    10     1      0.25018
    6     7     1      0.26216
    2     4     1      0.27168
    8     9     1      0.21792

[ bonds ]
;  ai    aj   funct      b0(nm)          k(kJ/mol/nm^2)
    1     2     1      0.26698          10129.8

[ angles ]
;  ai    aj    ak  funct     th0(deg)        k(kJ/mol/rad^2)
    1     2     3     1    141.42168           203.38
    1     2     4     1     79.36017           150.51
    2     3     4     1     58.59979          4354.96
    2     4     3     1     53.91467          4008.89
    2     4     5     1     97.20205           248.35
    3     2     4     1     67.48546          4094.83
    3     4     5     1     81.34530          1155.44
    4     5     6     1    159.27758           367.75
    5     6     7     1    106.72182           129.37
    5     6     8     1    160.50209           457.57
    5     6     9     1    108.41012           474.68
    6     8     9     1     50.00027          6480.94
    6     9     8     1     65.12794          5679.14
    6     9    10     1    161.37282          2034.49
    6     9    11     1    126.58959          2697.56
    7     6     8     1     79.54384           169.66
    7     6     9     1    140.18640           227.49
    8     6     9     1     64.87180          6655.72
    8     9    10     1     96.70047          2246.56
    8     9    11     1    167.11964          1311.49
    9    10    11     1     54.41377         13808.60
    9    11    10     1     54.33794          9943.60
   10     9    11     1     71.24827          6524.02

[ dihedrals ]
;  ai    aj    ak    al  funct   phi0(deg)        k(kJ/mol)   mult
    1     2     3     4     1    148.03007       19.118      1
    1     2     4     3     1    -17.08599       10.067      1
    1     2     4     5     1     54.99157       15.734      1
    2     3     4     5     1     73.10866       12.948      1
    2     4     5     6     1    -61.55209       22.804      1
    3     2     4     5     1   -106.22854        9.308      1
    3     4     5     6     1    -10.96484       23.523      1
    4     5     6     7     1    -72.04912       30.533      1
    4     5     6     8     1     42.68957       28.566      1
    4     5     6     9     1    105.19921       29.390      1
    5     6     8     9     1   -107.36506       22.148      1
    5     6     9     8     1     20.20227       10.691      1
    5     6     9    10     1     20.35884       20.211      1
    5     6     9    11     1   -161.07627       12.920      1
    6     8     9    10     1      0.01494        9.262      1
    6     8     9    11     1      2.25803       26.019      1
    6     9    10    11     1     -2.40791       22.182      1
    6     9    11    10     1      1.48040       12.143      1
    7     6     8     9     1      0.27518       20.260      1
    7     6     9     8     1   -179.80643       28.541      1
    7     6     9    10     1   -170.74473       29.115      1
    7     6     9    11     1      1.55515       29.772      1
    8     6     9    10     1   -179.00470       19.760      1
    8     6     9    11     1      0.78197       12.829      1
    8     9    10    11     1     -0.65520        9.945      1
    8     9    11    10     1    177.94061       25.488      1
