[ moleculetype ]
; name        nrexcl
res           1

[ atoms ]
;    nr  type  resnr resid  atom  cgnr     charge       mass
      1 TC4       1 res   C1        1      0.000     36.000
      2 SN6       1 res   C2        2      0.000     54.000
      3 SN5a      1 res   C3        3      0.000     54.000
      4 SC5       1 res   C4        4      0.000     54.000
      5 N4a       1 res   C5        5      0.000     72.000
      6 TC5       1 res   C6        6      0.000     36.000
      7 TC5       1 res   C7        7      0.000     36.000
      8 TC5       1 res   C8        8      0.000     36.000
      9 TN6       1 res   C9        9      0.000     36.000
     10 TC3       1 res   C10      10      0.000     36.000
     11 TN4a      1 res   C11      11      0.000     36.000
     12 TP1       1 res   C12      12      0.000     36.000
     13 SP4       1 res   C13      13      0.000     54.000
     14 SN4a      1 res   C14      14      0.000     54.000
     15 TC5       1 res   C15      15      0.000     36.000
     16 TC5       1 res   C16      16      0.000     36.000
     17 TC5       1 res   C17      17      0.000     36.000

[ constraints ]
;  ai    aj   funct      b0(nm)
    6     8     1      0.29752
   15    17     1      0.29720
    1     3     1      0.35861
    9    10     1      0.22509
    1     9     1      0.26936
   11    13     1      0.27400
    2     4     1      0.28334
   14    15     1      0.24171
    5     6     1      0.31522
    6     7     1      0.25612
   15    16     1      0.25589
    1     2     1      0.36313
   10    11     1      0.23096
    2     3     1      0.28594
   10    14     1      0.25026
   11    12     1      0.22414
    7     8     1      0.28769
   16    17     1      0.28763
    4     9     1      0.22380
   10    13     1      0.28437
    3     4     1      0.31841

[ bonds ]
;  ai    aj   funct      b0(nm)          k(kJ/mol/nm^2)
    4     5     1      0.29347           8184.4

[ angles ]
;  ai    aj    ak  funct     th0(deg)        k(kJ/mol/rad^2)
    1     2     3     1     65.82559          3857.14
    1     2     4     1     74.14576          2477.66
    1     3     2     1     67.50337          2597.19
    1     3     4     1     71.10275          2374.06
    1     9     4     1    106.06807          1925.84
    1     9    10     1    107.99786           384.71
    2     1     3     1     46.67101          5361.88
    2     1     9     1     75.08866          2086.23
    2     3     4     1     55.60108          2010.11
    2     4     3     1     56.37067          4670.49
    2     4     5     1    120.55888           372.54
    2     4     9     1    100.80758          1666.66
    3     1     9     1     58.87162          3584.84
    3     2     4     1     68.02827          2873.44
    3     4     5     1     71.74044           543.03
    3     4     9     1     69.40622          2539.61
    4     5     6     1    121.47154            55.39
    4     9    10     1    138.78240           323.44
    5     4     9     1     84.36402           950.93
    5     6     7     1    161.19297           535.32
    5     6     8     1    100.72199           711.33
    6     7     8     1     66.04432          6533.99
    6     8     7     1     51.87337          8634.11
    7     6     8     1     62.08228          7957.09
    9    10    11     1     82.44068           413.81
    9    10    13     1    139.49790           164.48
    9    10    14     1    125.94403           268.79
   10    11    12     1    165.00485           294.26
   10    11    13     1     67.97946          1290.69
   10    13    11     1     48.80202          2123.37
   10    14    15     1    112.55032           166.26
   11    10    13     1     63.21847          2520.10
   11    10    14     1    140.49842           592.93
   12    11    13     1     98.86526           585.98
   13    10    14     1     79.75127          1829.59
   14    15    16     1    147.37492          1417.61
   14    15    17     1     85.58876          1849.16
   15    16    17     1     65.99325          8800.01
   15    17    16     1     51.86522          8105.84
   16    15    17     1     62.14151          8324.55

[ dihedrals ]
;  ai    aj    ak    al  funct   phi0(deg)        k(kJ/mol)   mult
    1     2     3     4     1     97.98909        4.779      1
    1     2     4     3     1   -109.08062        4.009      1
    1     2     4     5     1    -75.86145        7.837      1
    1     2     4     9     1   -167.13496        7.025      1
    1     3     2     4     1    -97.98909        4.779      1
    1     3     4     2     1    105.01137        5.514      1
    1     3     4     5     1    -44.06628        7.773      1
    1     3     4     9     1   -135.05735        5.497      1
    1     9     4     2     1    162.11332        9.248      1
    1     9     4     3     1    114.19791        6.297      1
    1     9     4     5     1     41.00464       11.432      1
    1     9    10    11     1    130.15137       14.234      1
    1     9    10    13     1    103.33108       19.571      1
    1     9    10    14     1    -19.04752       15.799      1
    2     1     3     4     1   -120.03215        4.793      1
    2     1     9     4     1   -165.91874        7.775      1
    2     1     9    10     1     37.98877       10.777      1
    2     3     1     9     1     80.96045        7.058      1
    2     3     4     5     1     30.35234        9.227      1
    2     3     4     9     1    -61.15821        6.991      1
    2     4     5     6     1   -138.00203       20.288      1
    2     4     9    10     1    -52.38066       13.588      1
    3     1     2     4     1    107.03112        4.020      1
    3     1     9     4     1   -117.03283        6.977      1
    3     1     9    10     1     85.97693       10.712      1
    3     2     1     9     1   -119.02472        5.559      1
    3     2     4     5     1   -145.99637        9.211      1
    3     2     4     9     1    123.78706        6.269      1
    3     4     5     6     1   -107.50357       20.924      1
    3     4     9    10     1   -100.05489       12.168      1
    4     2     1     9     1    168.95497        6.979      1
    4     3     1     9     1    140.06435        4.745      1
    4     5     6     7     1    -87.59075       29.914      1
    4     5     6     8     1   -101.97725       29.803      1
    4     9    10    11     1    -17.24649       12.903      1
    4     9    10    13     1    -43.38602       18.280      1
    4     9    10    14     1   -166.96762       14.297      1
    5     4     9    10     1   -173.11033       12.840      1
    5     6     7     8     1    173.72577       26.803      1
    5     6     8     7     1     -2.74059       14.266      1
    6     5     4     9     1    -38.23692       20.294      1
    9    10    11    12     1      8.29834       24.066      1
    9    10    11    13     1     23.84551       14.983      1
    9    10    13    11     1   -148.27311       14.990      1
    9    10    14    15     1     96.76339       17.011      1
   10    13    11    12     1     -5.82781       10.761      1
   10    14    15    16     1    -31.95385       25.963      1
   10    14    15    17     1    -31.63866       21.796      1
   11    10    14    15     1    -31.23943       21.047      1
   11    13    10    14     1    -11.07938       14.377      1
   12    11    10    13     1    166.51946       24.485      1
   12    11    10    14     1    149.78101       28.587      1
   13    10    14    15     1    -50.27483       17.670      1
   13    11    10    14     1    166.62241       19.754      1
   14    15    16    17     1   -176.57752       14.335      1
   14    15    17    16     1      3.09735        8.565      1
