1TPCN00326
8
    1res  C1    1   -0.348  -0.119   0.047
    1res  C2    2   -0.207   0.215  -0.030
    1res  C3    3   -0.068   0.001  -0.137
    1res  C4    4    0.221  -0.063  -0.100
    1res  C5    5    0.289   0.209  -0.096
    1res  C6    6    0.476  -0.040   0.004
    1res  C7    7    0.409  -0.227   0.101
    1res  C8    8    0.195  -0.151   0.164
  10.00000  10.00000  10.00000
