[ moleculetype ]
; name        nrexcl
res           1

[ atoms ]
;    nr  type  resnr resid  atom  cgnr     charge       mass
      1 N4a       1 res   C1        1      0.000     72.000
      2 TC5       1 res   C2        2      0.000     36.000
      3 TN4a      1 res   C3        3      0.000     36.000
      4 SP4       1 res   C4        4      0.000     54.000
      5 TN4a      1 res   C5        5      0.000     36.000
      6 TP1       1 res   C6        6      0.000     36.000
      7 SP4       1 res   C7        7      0.000     54.000
      8 TC5       1 res   C8        8      0.000     36.000
      9 TC5       1 res   C9        9      0.000     36.000
     10 TN2a      1 res   C10      10      0.000     36.000
     11 TN6       1 res   C11      11      0.000     36.000

[ constraints ]
;  ai    aj   funct      b0(nm)
    1     2     1      0.32550
    2     3     1      0.24952
    4     5     1      0.26968
    3     8     1      0.20652
    8    11     1      0.24978
    5     7     1      0.25247
    9    11     1      0.25711
    2     8     1      0.24872
    5     6     1      0.20168
    9    10     1      0.26235
    4     7     1      0.29450
    8     9     1      0.24139

[ bonds ]
;  ai    aj   funct      b0(nm)          k(kJ/mol/nm^2)
    3     4     1      0.35411          14116.2

[ angles ]
;  ai    aj    ak  funct     th0(deg)        k(kJ/mol/rad^2)
    1     2     3     1    153.66404           411.19
    1     2     8     1    109.42853           656.83
    2     3     4     1    121.57028           136.26
    2     3     8     1     65.31318          1247.95
    2     8     3     1     65.75135           976.27
    2     8     9     1    164.38452           479.33
    2     8    11     1    104.77512           876.87
    3     2     8     1     48.93581          2835.70
    3     4     5     1     57.67838           399.04
    3     4     7     1    109.72736           349.40
    3     8     9     1    128.64100           589.92
    3     8    11     1    158.81185           361.13
    4     3     8     1    103.53946            38.66
    4     5     6     1    156.35420           131.49
    4     5     7     1     68.59167          1618.87
    4     7     5     1     58.49360          1690.47
    5     4     7     1     52.91460          3028.00
    6     5     7     1    106.77890           225.00
    8     9    10     1     93.82946           451.89
    8     9    11     1     60.03999          1679.07
    8    11     9     1     56.83697          3115.31
    9     8    11     1     63.12321          1579.50
   10     9    11     1    152.48801           313.27

[ dihedrals ]
;  ai    aj    ak    al  funct   phi0(deg)        k(kJ/mol)   mult
    1     2     3     4     1    -51.51100       29.796      1
    1     2     3     8     1   -149.07641       23.205      1
    1     2     8     3     1     16.75318       15.756      1
    1     2     8     9     1   -150.95874       25.050      1
    1     2     8    11     1    174.67778       18.486      1
    2     3     4     5     1    -79.54173       27.244      1
    2     3     4     7     1    -85.02977       29.334      1
    2     3     8     9     1     -5.56230       10.024      1
    2     3     8    11     1    117.94487       24.968      1
    2     8     3     4     1     62.89186       15.744      1
    2     8     9    10     1    -35.36934       26.565      1
    2     8     9    11     1    147.01495       24.917      1
    2     8    11     9     1    -10.20778       10.738      1
    3     2     8     9     1      9.78396       22.711      1
    3     2     8    11     1    -21.17792       12.866      1
    3     4     5     6     1     90.35356       26.990      1
    3     4     5     7     1      1.67731       17.758      1
    3     4     7     5     1   -176.32841       16.436      1
    3     8     9    10     1    155.37953       17.049      1
    3     8     9    11     1    -20.42151       14.936      1
    3     8    11     9     1     45.18322       24.602      1
    4     3     2     8     1    -76.16406       16.198      1
    4     3     8     9     1   -122.83895       15.741      1
    4     3     8    11     1      0.90288       22.608      1
    4     7     5     6     1     23.16142       12.872      1
    5     4     3     8     1     -6.27089       25.105      1
    6     5     4     7     1    -91.18445       21.655      1
    7     4     3     8     1    -16.65880       27.087      1
    8    11     9    10     1    175.88630       24.578      1
   10     9     8    11     1     -2.05620       13.737      1
