1TPCN04451
28
    1res  C1    1   -1.172  -0.101   0.084
    1res  C2    2   -0.899   0.022   0.201
    1res  C3    3   -0.638   0.105   0.136
    1res  C4    4   -0.715   0.288   0.028
    1res  C5    5   -0.940   0.351  -0.072
    1res  C6    6   -0.455  -0.089   0.111
    1res  C7    7   -0.662  -0.094  -0.166
    1res  C8    8   -0.657  -0.152   0.295
    1res  C9    9   -0.292  -0.138  -0.191
    1res  C10   10   -0.097  -0.115   0.154
    1res  C11   11   -0.012  -0.003  -0.193
    1res  C12   12    0.232   0.004  -0.106
    1res  C13   13    0.318  -0.060   0.155
    1res  C14   14    0.506  -0.148  -0.006
    1res  C15   15    0.742  -0.082  -0.215
    1res  C16   16    0.940   0.276  -0.300
    1res  C17   17    0.993  -0.112  -0.208
    1res  C18   18    0.937  -0.033   0.009
    1res  C19   19    0.941   0.226   0.141
    1res  C20   20    1.120   0.420   0.121
    1res  C21   21    1.273   0.239   0.093
    1res  C22   22    1.166   0.072   0.243
    1res  C23   23    0.730  -0.035   0.068
    1res  C24   24    0.424  -0.303  -0.189
    1res  C25   25    0.328  -0.457   0.179
    1res  C26   26    0.027  -0.298  -0.145
    1res  C27   27   -0.230   0.137  -0.122
    1res  C28   28   -0.449   0.154  -0.184
  10.00000  10.00000  10.00000
