1TPCN03435
15
    1res  C1    1   -0.131  -0.449  -0.081
    1res  C2    2    0.036  -0.258   0.081
    1res  C3    3   -0.254  -0.091   0.222
    1res  C4    4   -0.323  -0.438   0.308
    1res  C5    5   -0.337  -0.143  -0.062
    1res  C6    6   -0.091  -0.098  -0.130
    1res  C7    7   -0.159   0.127  -0.234
    1res  C8    8   -0.111   0.344  -0.331
    1res  C9    9   -0.303   0.339  -0.116
    1res  C10   10   -0.346   0.157   0.015
    1res  C11   11   -0.510   0.304   0.067
    1res  C12   12   -0.667   0.094   0.116
    1res  C13   13    0.187   0.022   0.036
    1res  C14   14    0.543   0.223   0.077
    1res  C15   15    0.852   0.066  -0.069
  10.00000  10.00000  10.00000
