1TPCN02668
14
    1res  C1    1   -0.309   0.025   0.347
    1res  C2    2   -0.308   0.064   0.081
    1res  C3    3   -0.105   0.076  -0.120
    1res  C4    4   -0.458   0.110  -0.269
    1res  C5    5   -0.287  -0.236  -0.105
    1res  C6    6   -0.095  -0.273   0.090
    1res  C7    7   -0.043  -0.043   0.115
    1res  C8    8    0.167  -0.099   0.068
    1res  C9    9    0.284  -0.040  -0.111
    1res  C10   10    0.240   0.229  -0.073
    1res  C11   11    0.442   0.240  -0.288
    1res  C12   12    0.196   0.157   0.185
    1res  C13   13    0.482  -0.280   0.161
    1res  C14   14   -0.036   0.234   0.106
  10.00000  10.00000  10.00000
