[ moleculetype ]
; name        nrexcl
res           1

[ atoms ]
;    nr  type resnr resid  atom  cgnr     charge       mass
      1 TC3       1 res   C1        1      0.000     36.000
      2 TN6d      1 res   C2        2      0.000     36.000
      3 SC4       1 res   C3        3      0.000     54.000
      4 SN3r      1 res   C4        4      0.000     54.000
      5 TC3       1 res   C5        5      0.000     36.000
      6 TN6       1 res   C6        6      0.000     36.000
      7 TC5       1 res   C7        7      0.000     36.000
      8 TC5       1 res   C8        8      0.000     36.000
      9 SC3       1 res   C9        9      0.000     54.000
     10 TC3       1 res   C10      10      0.000     36.000
     11 TN3r      1 res   C11      11      0.000     36.000
     12 TN6       1 res   C12      12      0.000     36.000
     13 SN4a      1 res   C13      13      0.000     54.000
     14 TN6       1 res   C14      14      0.000     36.000

[ bonds ]
;  ai    aj   funct      b0(nm)        k
    1     2     1      0.26853    20000
    2     3     1      0.28508    20000
    2     7     1      0.28716    20000
    3     4     1      0.38424    20000
    3     5     1      0.36115    20000
    3     7     1      0.27029    20000
    3    14     1      0.28406    20000
    5     6     1      0.27608    20000
    6     7     1      0.23678    20000
    7     8     1      0.22286    20000
    7    14     1      0.27790    20000
    8     9     1      0.22148    20000
    8    12     1      0.28385    20000
    9    10     1      0.27498    20000
    9    13     1      0.41360    20000
   10    11     1      0.29577    20000
   10    12     1      0.27113    20000
   12    14     1      0.25699    20000
