1TPCN01756
7
    1res  C1    1   -0.227  -0.280   0.022
    1res  C2    2   -0.353   0.034  -0.081
    1res  C3    3   -0.124  -0.031   0.072
    1res  C4    4   -0.069   0.232   0.055
    1res  C5    5    0.273   0.058  -0.095
    1res  C6    6    0.281  -0.162   0.026
    1res  C7    7    0.041  -0.128  -0.054
  10.00000  10.00000  10.00000
