[ moleculetype ]
; name        nrexcl
res           1

[ atoms ]
;    nr  type resnr resid  atom  cgnr     charge       mass
      1 TC4       1 res   C1        1      0.000     36.000
      2 TC3       1 res   C2        2      0.000     36.000
      3 SC4       1 res   C3        3      0.000     54.000
      4 TC3       1 res   C4        4      0.000     36.000
      5 TC4       1 res   C5        5      0.000     36.000
      6 TC5       1 res   C6        6      0.000     36.000
      7 TC3       1 res   C7        7      0.000     36.000
      8 SC4       1 res   C8        8      0.000     54.000
      9 SC4       1 res   C9        9      0.000     54.000
     10 TN6       1 res   C10      10      0.000     36.000
     11 TC3       1 res   C11      11      0.000     36.000
     12 TC3       1 res   C12      12      0.000     36.000
     13 TC4       1 res   C13      13      0.000     36.000
     14 TC4       1 res   C14      14      0.000     36.000

[ bonds ]
;  ai    aj   funct      b0(nm)        k
    1     2     1      0.30812    20000
    1    14     1      0.26272    20000
    2     3     1      0.30876    20000
    3     4     1      0.31386    20000
    3    13     1      0.33818    20000
    3    14     1      0.35898    20000
    4     5     1      0.31928    20000
    5     6     1      0.26130    20000
    5    13     1      0.38889    20000
    6     7     1      0.28621    20000
    6     8     1      0.25635    20000
    6    12     1      0.23967    20000
    7     8     1      0.37183    20000
    8     9     1      0.32794    20000
    8    11     1      0.28698    20000
    9    10     1      0.28236    20000
   10    11     1      0.26112    20000
   12    13     1      0.27630    20000
