[ moleculetype ]
; name        nrexcl
res           1

[ atoms ]
;    nr  type resnr resid  atom  cgnr     charge       mass
      1 SC2       1 res   C1        1      0.000     54.000
      2 TN4a      1 res   C2        2      0.000     36.000
      3 TN6a      1 res   C3        3      0.000     36.000
      4 SC4       1 res   C4        4      0.000     54.000
      5 SC4       1 res   C5        5      0.000     54.000
      6 SP1       1 res   C6        6      0.000     54.000

[ bonds ]
;  ai    aj   funct      b0(nm)        k
    1     2     1      0.31679    20000
    1     5     1      0.35051    20000
    2     3     1      0.27611    20000
    2     4     1      0.29677    20000
    3     4     1      0.23821    20000
    4     5     1      0.27703    20000
    5     6     1      0.37678    20000
