[ moleculetype ]
; name        nrexcl
res           1

[ atoms ]
;    nr  type resnr resid  atom  cgnr     charge       mass
      1 SN6       1 res   C1        1      0.000     54.000
      2 SX2       1 res   C2        2      0.000     54.000
      3 SX2       1 res   C3        3      0.000     54.000

[ bonds ]
;  ai    aj   funct      b0(nm)        k
    1     2     1      0.32489    20000
    1     3     1      0.35541    20000
    2     3     1      0.32270    20000
