Generated with MDTraj, t= 0.0
 58
    1UNL     C1    1   0.493  -0.027   0.121
    1UNL     C2    2   0.415  -0.147   0.083
    1UNL     C3    3   0.283  -0.152   0.083
    1UNL     C4    4   0.205  -0.273   0.039
    1UNL     N1    5   0.064  -0.230   0.009
    1UNL     C5    6  -0.009  -0.188   0.136
    1UNL     C6    7   0.087  -0.098   0.219
    1UNL     C7    8   0.191  -0.037   0.121
    1UNL     C8    9   0.119   0.014  -0.009
    1UNL     C9   10   0.215   0.095  -0.096
    1UNL     O1   11   0.304   0.157  -0.044
    1UNL     O2   12   0.191   0.090  -0.230
    1UNL    C10   13   0.281   0.173  -0.295
    1UNL    C11   14   0.068  -0.114  -0.086
    1UNL    C12   15  -0.074  -0.084  -0.130
    1UNL    C13   16  -0.128  -0.007  -0.008
    1UNL    C14   17  -0.273   0.033  -0.030
    1UNL    C15   18  -0.328   0.141  -0.096
    1UNL    C16   19  -0.465   0.143  -0.116
    1UNL    C17   20  -0.545   0.038  -0.072
    1UNL    C18   21  -0.490  -0.071  -0.008
    1UNL    C19   22  -0.353  -0.074   0.014
    1UNL     N2   23  -0.273  -0.168   0.084
    1UNL    C20   24  -0.302  -0.309   0.103
    1UNL    C21   25  -0.140  -0.107   0.111
    1UNL    C22   26  -0.013   0.096   0.022
    1UNL     O3   27  -0.025   0.212  -0.058
    1UNL    C23   28  -0.022   0.325   0.019
    1UNL    C24   29  -0.018   0.454  -0.055
    1UNL     O4   30  -0.020   0.325   0.140
    1UNL     H1   31   0.600  -0.041   0.107
    1UNL     H2   32   0.476  -0.001   0.225
    1UNL     H3   33   0.463   0.059   0.060
    1UNL     H4   34   0.469  -0.235   0.052
    1UNL     H5   35   0.204  -0.350   0.116
    1UNL     H6   36   0.249  -0.317  -0.051
    1UNL     H7   37  -0.034  -0.280   0.191
    1UNL     H8   38   0.139  -0.157   0.295
    1UNL     H9   39   0.033  -0.020   0.273
    1UNL    H10   40   0.247   0.045   0.166
    1UNL    H11   41   0.259   0.174  -0.402
    1UNL    H12   42   0.272   0.274  -0.255
    1UNL    H13   43   0.383   0.137  -0.279
    1UNL    H14   44   0.134  -0.137  -0.171
    1UNL    H15   45  -0.132  -0.176  -0.148
    1UNL    H16   46  -0.078  -0.022  -0.220
    1UNL    H17   47  -0.264   0.220  -0.130
    1UNL    H18   48  -0.510   0.227  -0.166
    1UNL    H19   49  -0.651   0.041  -0.089
    1UNL    H20   50  -0.552  -0.152   0.028
    1UNL    H21   51  -0.237  -0.369   0.038
    1UNL    H22   52  -0.284  -0.338   0.206
    1UNL    H23   53  -0.405  -0.331   0.077
    1UNL    H24   54  -0.157  -0.047   0.202
    1UNL    H25   55  -0.016   0.127   0.127
    1UNL    H26   56  -0.047   0.439  -0.159
    1UNL    H27   57   0.083   0.495  -0.053
    1UNL    H28   58  -0.085   0.526  -0.009
   0.00000   0.00000   0.00000   0.00000   0.00000   0.00000   0.00000   0.00000   0.00000
Generated with MDTraj, t= 1.0
 58
    1UNL     C1    1   0.509  -0.046   0.142
    1UNL     C2    2   0.413  -0.148   0.107
    1UNL     C3    3   0.282  -0.148   0.088
    1UNL     C4    4   0.209  -0.267   0.038
    1UNL     N1    5   0.069  -0.229   0.007
    1UNL     C5    6  -0.010  -0.191   0.132
    1UNL     C6    7   0.084  -0.101   0.219
    1UNL     C7    8   0.187  -0.039   0.127
    1UNL     C8    9   0.111   0.008  -0.010
    1UNL     C9   10   0.210   0.100  -0.091
    1UNL     O1   11   0.285   0.173  -0.030
    1UNL     O2   12   0.203   0.095  -0.227
    1UNL    C10   13   0.285   0.191  -0.280
    1UNL    C11   14   0.063  -0.114  -0.092
    1UNL    C12   15  -0.080  -0.089  -0.132
    1UNL    C13   16  -0.134  -0.007  -0.010
    1UNL    C14   17  -0.281   0.025  -0.037
    1UNL    C15   18  -0.336   0.139  -0.105
    1UNL    C16   19  -0.472   0.139  -0.112
    1UNL    C17   20  -0.554   0.048  -0.043
    1UNL    C18   21  -0.496  -0.057   0.028
    1UNL    C19   22  -0.361  -0.067   0.027
    1UNL     N2   23  -0.277  -0.170   0.080
    1UNL    C20   24  -0.279  -0.321   0.067
    1UNL    C21   25  -0.140  -0.114   0.107
    1UNL    C22   26  -0.020   0.092   0.016
    1UNL     O3   27  -0.025   0.206  -0.071
    1UNL    C23   28  -0.008   0.323   0.001
    1UNL    C24   29  -0.033   0.445  -0.075
    1UNL     O4   30   0.021   0.330   0.116
    1UNL     H1   31   0.608  -0.073   0.128
    1UNL     H2   32   0.490  -0.019   0.251
    1UNL     H3   33   0.485   0.043   0.085
    1UNL     H4   34   0.456  -0.239   0.086
    1UNL     H5   35   0.219  -0.348   0.109
    1UNL     H6   36   0.268  -0.298  -0.049
    1UNL     H7   37  -0.034  -0.291   0.167
    1UNL     H8   38   0.153  -0.134   0.298
    1UNL     H9   39   0.021  -0.029   0.272
    1UNL    H10   40   0.230   0.049   0.173
    1UNL    H11   41   0.340   0.250  -0.201
    1UNL    H12   42   0.368   0.137  -0.334
    1UNL    H13   43   0.230   0.255  -0.345
    1UNL    H14   44   0.122  -0.129  -0.183
    1UNL    H15   45  -0.136  -0.174  -0.160
    1UNL    H16   46  -0.077  -0.025  -0.224
    1UNL    H17   47  -0.269   0.211  -0.154
    1UNL    H18   48  -0.534   0.206  -0.183
    1UNL    H19   49  -0.662   0.050  -0.047
    1UNL    H20   50  -0.548  -0.149   0.046
    1UNL    H21   51  -0.205  -0.350  -0.005
    1UNL    H22   52  -0.239  -0.361   0.155
    1UNL    H23   53  -0.385  -0.360   0.049
    1UNL    H24   54  -0.159  -0.050   0.192
    1UNL    H25   55  -0.022   0.133   0.118
    1UNL    H26   56  -0.127   0.484  -0.050
    1UNL    H27   57  -0.041   0.430  -0.191
    1UNL    H28   58   0.035   0.517  -0.061
   0.00000   0.00000   0.00000   0.00000   0.00000   0.00000   0.00000   0.00000   0.00000
Generated with MDTraj, t= 2.0
 58
    1UNL     C1    1   0.482  -0.026   0.152
    1UNL     C2    2   0.405  -0.138   0.098
    1UNL     C3    3   0.273  -0.141   0.091
    1UNL     C4    4   0.199  -0.267   0.034
    1UNL     N1    5   0.062  -0.229   0.005
    1UNL     C5    6  -0.011  -0.202   0.132
    1UNL     C6    7   0.077  -0.105   0.218
    1UNL     C7    8   0.180  -0.032   0.130
    1UNL     C8    9   0.114   0.019  -0.003
    1UNL     C9   10   0.217   0.102  -0.088
    1UNL     O1   11   0.303   0.161  -0.030
    1UNL     O2   12   0.202   0.109  -0.229
    1UNL    C10   13   0.299   0.184  -0.294
    1UNL    C11   14   0.067  -0.108  -0.090
    1UNL    C12   15  -0.075  -0.082  -0.131
    1UNL    C13   16  -0.131  -0.007  -0.003
    1UNL    C14   17  -0.273   0.023  -0.025
    1UNL    C15   18  -0.337   0.143  -0.072
    1UNL    C16   19  -0.475   0.149  -0.096
    1UNL    C17   20  -0.556   0.041  -0.048
    1UNL    C18   21  -0.490  -0.072   0.003
    1UNL    C19   22  -0.355  -0.082   0.023
    1UNL     N2   23  -0.267  -0.186   0.078
    1UNL    C20   24  -0.290  -0.332   0.065
    1UNL    C21   25  -0.142  -0.115   0.107
    1UNL    C22   26  -0.016   0.093   0.024
    1UNL     O3   27  -0.043   0.208  -0.069
    1UNL    C23   28  -0.005   0.326  -0.005
    1UNL    C24   29  -0.008   0.441  -0.099
    1UNL     O4   30   0.026   0.334   0.110
    1UNL     H1   31   0.584  -0.033   0.140
    1UNL     H2   32   0.456  -0.023   0.264
    1UNL     H3   33   0.451   0.069   0.109
    1UNL     H4   34   0.457  -0.235   0.054
    1UNL     H5   35   0.216  -0.342   0.109
    1UNL     H6   36   0.247  -0.307  -0.056
    1UNL     H7   37  -0.046  -0.290   0.186
    1UNL     H8   38   0.128  -0.161   0.298
    1UNL     H9   39   0.039  -0.021   0.278
    1UNL    H10   40   0.235   0.050   0.174
    1UNL    H11   41   0.332   0.126  -0.388
    1UNL    H12   42   0.252   0.278  -0.336
    1UNL    H13   43   0.372   0.213  -0.226
    1UNL    H14   44   0.134  -0.131  -0.175
    1UNL    H15   45  -0.123  -0.173  -0.157
    1UNL    H16   46  -0.077  -0.018  -0.222
    1UNL    H17   47  -0.271   0.221  -0.104
    1UNL    H18   48  -0.521   0.231  -0.131
    1UNL    H19   49  -0.667   0.034  -0.045
    1UNL    H20   50  -0.552  -0.158   0.025
    1UNL    H21   51  -0.217  -0.366  -0.006
    1UNL    H22   52  -0.261  -0.380   0.153
    1UNL    H23   53  -0.404  -0.343   0.044
    1UNL    H24   54  -0.169  -0.071   0.202
    1UNL    H25   55  -0.028   0.136   0.126
    1UNL    H26   56   0.031   0.530  -0.063
    1UNL    H27   57  -0.114   0.472  -0.115
    1UNL    H28   58   0.030   0.422  -0.197
   0.00000   0.00000   0.00000   0.00000   0.00000   0.00000   0.00000   0.00000   0.00000
Generated with MDTraj, t= 3.0
 58
    1UNL     C1    1   0.487  -0.010   0.138
    1UNL     C2    2   0.412  -0.129   0.090
    1UNL     C3    3   0.279  -0.141   0.092
    1UNL     C4    4   0.214  -0.265   0.038
    1UNL     N1    5   0.072  -0.227   0.013
    1UNL     C5    6  -0.009  -0.196   0.133
    1UNL     C6    7   0.078  -0.114   0.224
    1UNL     C7    8   0.177  -0.034   0.129
    1UNL     C8    9   0.112   0.020   0.000
    1UNL     C9   10   0.216   0.099  -0.083
    1UNL     O1   11   0.316   0.138  -0.028
    1UNL     O2   12   0.186   0.109  -0.220
    1UNL    C10   13   0.278   0.172  -0.307
    1UNL    C11   14   0.065  -0.107  -0.082
    1UNL    C12   15  -0.075  -0.081  -0.136
    1UNL    C13   16  -0.132  -0.009  -0.014
    1UNL    C14   17  -0.278   0.032  -0.028
    1UNL    C15   18  -0.344   0.147  -0.061
    1UNL    C16   19  -0.484   0.139  -0.074
    1UNL    C17   20  -0.558   0.021  -0.070
    1UNL    C18   21  -0.489  -0.101  -0.026
    1UNL    C19   22  -0.355  -0.083  -0.003
    1UNL     N2   23  -0.271  -0.178   0.063
    1UNL    C20   24  -0.307  -0.316   0.089
    1UNL    C21   25  -0.146  -0.114   0.107
    1UNL    C22   26  -0.025   0.097   0.024
    1UNL     O3   27  -0.044   0.216  -0.063
    1UNL    C23   28   0.001   0.327  -0.001
    1UNL    C24   29   0.036   0.442  -0.092
    1UNL     O4   30   0.016   0.344   0.117
    1UNL     H1   31   0.584  -0.029   0.181
    1UNL     H2   32   0.423   0.031   0.217
    1UNL     H3   33   0.501   0.066   0.064
    1UNL     H4   34   0.459  -0.209   0.043
    1UNL     H5   35   0.225  -0.344   0.109
    1UNL     H6   36   0.264  -0.298  -0.053
    1UNL     H7   37  -0.046  -0.285   0.181
    1UNL     H8   38   0.129  -0.171   0.303
    1UNL     H9   39   0.033  -0.037   0.289
    1UNL    H10   40   0.225   0.043   0.183
    1UNL    H11   41   0.217   0.244  -0.374
    1UNL    H12   42   0.352   0.235  -0.251
    1UNL    H13   43   0.331   0.102  -0.358
    1UNL    H14   44   0.140  -0.098  -0.164
    1UNL    H15   45  -0.130  -0.173  -0.153
    1UNL    H16   46  -0.082  -0.013  -0.222
    1UNL    H17   47  -0.285   0.239  -0.067
    1UNL    H18   48  -0.542   0.239  -0.078
    1UNL    H19   49  -0.662   0.025  -0.069
    1UNL    H20   50  -0.534  -0.182   0.028
    1UNL    H21   51  -0.223  -0.372   0.049
    1UNL    H22   52  -0.301  -0.335   0.195
    1UNL    H23   53  -0.409  -0.329   0.053
    1UNL    H24   54  -0.159  -0.062   0.202
    1UNL    H25   55  -0.038   0.136   0.129
    1UNL    H26   56   0.129   0.436  -0.146
    1UNL    H27   57   0.044   0.523  -0.038
    1UNL    H28   58  -0.048   0.451  -0.161
   0.00000   0.00000   0.00000   0.00000   0.00000   0.00000   0.00000   0.00000   0.00000
Generated with MDTraj, t= 4.0
 58
    1UNL     C1    1   0.495  -0.018   0.131
    1UNL     C2    2   0.408  -0.139   0.109
    1UNL     C3    3   0.276  -0.149   0.096
    1UNL     C4    4   0.204  -0.269   0.039
    1UNL     N1    5   0.064  -0.227   0.011
    1UNL     C5    6  -0.012  -0.181   0.134
    1UNL     C6    7   0.075  -0.094   0.221
    1UNL     C7    8   0.189  -0.029   0.126
    1UNL     C8    9   0.117   0.019  -0.012
    1UNL     C9   10   0.206   0.106  -0.094
    1UNL     O1   11   0.295   0.158  -0.030
    1UNL     O2   12   0.175   0.114  -0.230
    1UNL    C10   13   0.265   0.190  -0.314
    1UNL    C11   14   0.073  -0.111  -0.086
    1UNL    C12   15  -0.071  -0.092  -0.139
    1UNL    C13   16  -0.129  -0.013  -0.021
    1UNL    C14   17  -0.276   0.023  -0.037
    1UNL    C15   18  -0.336   0.132  -0.091
    1UNL    C16   19  -0.476   0.133  -0.108
    1UNL    C17   20  -0.554   0.022  -0.072
    1UNL    C18   21  -0.494  -0.090  -0.014
    1UNL    C19   22  -0.351  -0.092  -0.003
    1UNL     N2   23  -0.260  -0.187   0.056
    1UNL    C20   24  -0.315  -0.307   0.128
    1UNL    C21   25  -0.147  -0.114   0.108
    1UNL    C22   26  -0.029   0.098   0.019
    1UNL     O3   27  -0.049   0.219  -0.051
    1UNL    C23   28   0.009   0.325   0.017
    1UNL    C24   29   0.050   0.446  -0.066
    1UNL     O4   30   0.031   0.325   0.137
    1UNL     H1   31   0.587  -0.013   0.065
    1UNL     H2   32   0.522  -0.026   0.232
    1UNL     H3   33   0.447   0.076   0.115
    1UNL     H4   34   0.456  -0.229   0.083
    1UNL     H5   35   0.200  -0.342   0.115
    1UNL     H6   36   0.258  -0.309  -0.048
    1UNL     H7   37  -0.041  -0.274   0.183
    1UNL     H8   38   0.130  -0.147   0.298
    1UNL     H9   39   0.017  -0.021   0.281
    1UNL    H10   40   0.238   0.059   0.161
    1UNL    H11   41   0.194   0.269  -0.359
    1UNL    H12   42   0.348   0.241  -0.262
    1UNL    H13   43   0.296   0.131  -0.390
    1UNL    H14   44   0.138  -0.130  -0.174
    1UNL    H15   45  -0.126  -0.187  -0.154
    1UNL    H16   46  -0.073  -0.030  -0.226
    1UNL    H17   47  -0.273   0.212  -0.118
    1UNL    H18   48  -0.511   0.208  -0.173
    1UNL    H19   49  -0.667   0.017  -0.093
    1UNL    H20   50  -0.543  -0.164   0.046
    1UNL    H21   51  -0.235  -0.376   0.152
    1UNL    H22   52  -0.355  -0.281   0.230
    1UNL    H23   53  -0.396  -0.342   0.076
    1UNL    H24   54  -0.168  -0.057   0.200
    1UNL    H25   55  -0.032   0.132   0.128
    1UNL    H26   56   0.023   0.434  -0.169
    1UNL    H27   57   0.161   0.455  -0.059
    1UNL    H28   58  -0.004   0.522  -0.020
   0.00000   0.00000   0.00000   0.00000   0.00000   0.00000   0.00000   0.00000   0.00000
Generated with MDTraj, t= 5.0
 58
    1UNL     C1    1   0.481  -0.004   0.129
    1UNL     C2    2   0.419  -0.129   0.086
    1UNL     C3    3   0.286  -0.140   0.082
    1UNL     C4    4   0.212  -0.261   0.033
    1UNL     N1    5   0.062  -0.232   0.006
    1UNL     C5    6  -0.005  -0.189   0.141
    1UNL     C6    7   0.081  -0.094   0.218
    1UNL     C7    8   0.192  -0.036   0.125
    1UNL     C8    9   0.119   0.017  -0.010
    1UNL     C9   10   0.211   0.106  -0.089
    1UNL     O1   11   0.290   0.176  -0.027
    1UNL     O2   12   0.188   0.097  -0.224
    1UNL    C10   13   0.245   0.201  -0.313
    1UNL    C11   14   0.066  -0.115  -0.092
    1UNL    C12   15  -0.079  -0.088  -0.141
    1UNL    C13   16  -0.136  -0.015  -0.020
    1UNL    C14   17  -0.279   0.020  -0.051
    1UNL    C15   18  -0.332   0.121  -0.119
    1UNL    C16   19  -0.468   0.116  -0.151
    1UNL    C17   20  -0.552   0.018  -0.089
    1UNL    C18   21  -0.497  -0.075  -0.010
    1UNL    C19   22  -0.357  -0.085   0.006
    1UNL     N2   23  -0.276  -0.178   0.073
    1UNL    C20   24  -0.335  -0.271   0.175
    1UNL    C21   25  -0.149  -0.112   0.102
    1UNL    C22   26  -0.017   0.085   0.014
    1UNL     O3   27  -0.026   0.213  -0.051
    1UNL    C23   28   0.022   0.307   0.029
    1UNL    C24   29   0.020   0.449  -0.028
    1UNL     O4   30   0.053   0.293   0.147
    1UNL     H1   31   0.593  -0.014   0.148
    1UNL     H2   32   0.435   0.012   0.220
    1UNL     H3   33   0.466   0.076   0.061
    1UNL     H4   34   0.477  -0.217   0.036
    1UNL     H5   35   0.236  -0.339   0.100
    1UNL     H6   36   0.248  -0.288  -0.067
    1UNL     H7   37  -0.024  -0.282   0.193
    1UNL     H8   38   0.133  -0.151   0.294
    1UNL     H9   39   0.028  -0.006   0.260
    1UNL    H10   40   0.249   0.047   0.158
    1UNL    H11   41   0.174   0.288  -0.313
    1UNL    H12   42   0.340   0.241  -0.279
    1UNL    H13   43   0.245   0.168  -0.411
    1UNL    H14   44   0.136  -0.147  -0.173
    1UNL    H15   45  -0.117  -0.188  -0.175
    1UNL    H16   46  -0.071  -0.019  -0.221
    1UNL    H17   47  -0.264   0.192  -0.171
    1UNL    H18   48  -0.500   0.167  -0.243
    1UNL    H19   49  -0.646   0.003  -0.121
    1UNL    H20   50  -0.559  -0.148   0.040
    1UNL    H21   51  -0.261  -0.314   0.241
    1UNL    H22   52  -0.401  -0.220   0.250
    1UNL    H23   53  -0.399  -0.341   0.133
    1UNL    H24   54  -0.173  -0.053   0.195
    1UNL    H25   55  -0.045   0.113   0.121
    1UNL    H26   56  -0.073   0.493  -0.015
    1UNL    H27   57   0.043   0.444  -0.144
    1UNL    H28   58   0.089   0.506   0.026
   0.00000   0.00000   0.00000   0.00000   0.00000   0.00000   0.00000   0.00000   0.00000
Generated with MDTraj, t= 6.0
 58
    1UNL     C1    1   0.488   0.000   0.109
    1UNL     C2    2   0.412  -0.123   0.085
    1UNL     C3    3   0.281  -0.146   0.076
    1UNL     C4    4   0.215  -0.275   0.035
    1UNL     N1    5   0.069  -0.234   0.009
    1UNL     C5    6  -0.009  -0.197   0.133
    1UNL     C6    7   0.085  -0.099   0.220
    1UNL     C7    8   0.188  -0.034   0.115
    1UNL     C8    9   0.120   0.016  -0.013
    1UNL     C9   10   0.206   0.106  -0.100
    1UNL     O1   11   0.294   0.165  -0.037
    1UNL     O2   12   0.175   0.117  -0.232
    1UNL    C10   13   0.272   0.183  -0.312
    1UNL    C11   14   0.074  -0.117  -0.086
    1UNL    C12   15  -0.066  -0.092  -0.142
    1UNL    C13   16  -0.135  -0.020  -0.019
    1UNL    C14   17  -0.278   0.014  -0.055
    1UNL    C15   18  -0.329   0.119  -0.122
    1UNL    C16   19  -0.464   0.114  -0.162
    1UNL    C17   20  -0.543   0.012  -0.116
    1UNL    C18   21  -0.496  -0.083  -0.027
    1UNL    C19   22  -0.358  -0.086   0.005
    1UNL     N2   23  -0.286  -0.181   0.080
    1UNL    C20   24  -0.335  -0.235   0.205
    1UNL    C21   25  -0.149  -0.117   0.099
    1UNL    C22   26  -0.023   0.089   0.020
    1UNL     O3   27  -0.034   0.213  -0.037
    1UNL    C23   28   0.013   0.316   0.045
    1UNL    C24   29  -0.005   0.453  -0.007
    1UNL     O4   30   0.054   0.304   0.160
    1UNL     H1   31   0.599  -0.004   0.094
    1UNL     H2   32   0.473   0.016   0.212
    1UNL     H3   33   0.454   0.086   0.055
    1UNL     H4   34   0.469  -0.203   0.062
    1UNL     H5   35   0.207  -0.347   0.111
    1UNL     H6   36   0.267  -0.311  -0.055
    1UNL     H7   37  -0.019  -0.284   0.197
    1UNL     H8   38   0.156  -0.141   0.291
    1UNL     H9   39   0.023  -0.021   0.270
    1UNL    H10   40   0.238   0.043   0.168
    1UNL    H11   41   0.307   0.281  -0.272
    1UNL    H12   42   0.360   0.120  -0.313
    1UNL    H13   43   0.224   0.205  -0.405
    1UNL    H14   44   0.141  -0.141  -0.170
    1UNL    H15   45  -0.122  -0.181  -0.175
    1UNL    H16   46  -0.058  -0.026  -0.224
    1UNL    H17   47  -0.264   0.196  -0.158
    1UNL    H18   48  -0.505   0.189  -0.231
    1UNL    H19   49  -0.655   0.035  -0.134
    1UNL    H20   50  -0.556  -0.163   0.014
    1UNL    H21   51  -0.264  -0.279   0.273
    1UNL    H22   52  -0.383  -0.161   0.267
    1UNL    H23   53  -0.416  -0.305   0.185
    1UNL    H24   54  -0.169  -0.063   0.198
    1UNL    H25   55  -0.027   0.119   0.131
    1UNL    H26   56   0.017   0.531   0.066
    1UNL    H27   57  -0.106   0.466  -0.048
    1UNL    H28   58   0.068   0.470  -0.087
   0.00000   0.00000   0.00000   0.00000   0.00000   0.00000   0.00000   0.00000   0.00000
Generated with MDTraj, t= 7.0
 58
    1UNL     C1    1   0.502  -0.028   0.107
    1UNL     C2    2   0.417  -0.142   0.083
    1UNL     C3    3   0.283  -0.142   0.080
    1UNL     C4    4   0.208  -0.264   0.041
    1UNL     N1    5   0.064  -0.227   0.016
    1UNL     C5    6  -0.012  -0.188   0.136
    1UNL     C6    7   0.087  -0.096   0.219
    1UNL     C7    8   0.189  -0.027   0.123
    1UNL     C8    9   0.117   0.023  -0.004
    1UNL     C9   10   0.215   0.097  -0.100
    1UNL     O1   11   0.319   0.135  -0.046
    1UNL     O2   12   0.175   0.108  -0.231
    1UNL    C10   13   0.269   0.177  -0.308
    1UNL    C11   14   0.073  -0.112  -0.080
    1UNL    C12   15  -0.063  -0.079  -0.143
    1UNL    C13   16  -0.125  -0.014  -0.022
    1UNL    C14   17  -0.274   0.019  -0.049
    1UNL    C15   18  -0.337   0.119  -0.114
    1UNL    C16   19  -0.468   0.116  -0.153
    1UNL    C17   20  -0.544   0.005  -0.115
    1UNL    C18   21  -0.492  -0.094  -0.033
    1UNL    C19   22  -0.355  -0.082   0.007
    1UNL     N2   23  -0.273  -0.175   0.080
    1UNL    C20   24  -0.323  -0.257   0.180
    1UNL    C21   25  -0.137  -0.110   0.103
    1UNL    C22   26  -0.022   0.100   0.022
    1UNL     O3   27  -0.045   0.223  -0.042
    1UNL    C23   28  -0.010   0.329   0.037
    1UNL    C24   29  -0.011   0.468  -0.010
    1UNL     O4   30   0.016   0.311   0.155
    1UNL     H1   31   0.600  -0.027   0.065
    1UNL     H2   32   0.511  -0.030   0.216
    1UNL     H3   33   0.452   0.064   0.080
    1UNL     H4   34   0.470  -0.232   0.051
    1UNL     H5   35   0.219  -0.337   0.115
    1UNL     H6   36   0.243  -0.295  -0.058
    1UNL     H7   37  -0.036  -0.282   0.186
    1UNL     H8   38   0.143  -0.165   0.281
    1UNL     H9   39   0.034  -0.020   0.285
    1UNL    H10   40   0.234   0.044   0.188
    1UNL    H11   41   0.295   0.275  -0.272
    1UNL    H12   42   0.361   0.122  -0.301
    1UNL    H13   43   0.222   0.190  -0.407
    1UNL    H14   44   0.147  -0.140  -0.157
    1UNL    H15   45  -0.122  -0.161  -0.178
    1UNL    H16   46  -0.062  -0.004  -0.222
    1UNL    H17   47  -0.274   0.202  -0.145
    1UNL    H18   48  -0.506   0.208  -0.192
    1UNL    H19   49  -0.648   0.014  -0.113
    1UNL    H20   50  -0.557  -0.169   0.010
    1UNL    H21   51  -0.251  -0.315   0.232
    1UNL    H22   52  -0.366  -0.203   0.257
    1UNL    H23   53  -0.401  -0.326   0.134
    1UNL    H24   54  -0.167  -0.044   0.189
    1UNL    H25   55  -0.033   0.122   0.134
    1UNL    H26   56   0.095   0.504  -0.045
    1UNL    H27   57  -0.043   0.540   0.053
    1UNL    H28   58  -0.072   0.483  -0.101
   0.00000   0.00000   0.00000   0.00000   0.00000   0.00000   0.00000   0.00000   0.00000
Generated with MDTraj, t= 8.0
 58
    1UNL     C1    1   0.490  -0.034   0.137
    1UNL     C2    2   0.415  -0.153   0.094
    1UNL     C3    3   0.280  -0.152   0.089
    1UNL     C4    4   0.197  -0.281   0.037
    1UNL     N1    5   0.062  -0.228   0.018
    1UNL     C5    6  -0.006  -0.182   0.146
    1UNL     C6    7   0.103  -0.097   0.229
    1UNL     C7    8   0.196  -0.038   0.123
    1UNL     C8    9   0.117   0.016  -0.009
    1UNL     C9   10   0.212   0.098  -0.106
    1UNL     O1   11   0.306   0.152  -0.051
    1UNL     O2   12   0.180   0.105  -0.238
    1UNL    C10   13   0.262   0.198  -0.305
    1UNL    C11   14   0.071  -0.111  -0.081
    1UNL    C12   15  -0.071  -0.073  -0.134
    1UNL    C13   16  -0.123  -0.003  -0.015
    1UNL    C14   17  -0.268   0.029  -0.035
    1UNL    C15   18  -0.334   0.136  -0.099
    1UNL    C16   19  -0.469   0.124  -0.130
    1UNL    C17   20  -0.544   0.013  -0.089
    1UNL    C18   21  -0.477  -0.089  -0.025
    1UNL    C19   22  -0.346  -0.079   0.012
    1UNL     N2   23  -0.266  -0.167   0.082
    1UNL    C20   24  -0.322  -0.293   0.123
    1UNL    C21   25  -0.135  -0.103   0.114
    1UNL    C22   26  -0.008   0.096   0.018
    1UNL     O3   27  -0.021   0.214  -0.059
    1UNL    C23   28  -0.014   0.325   0.022
    1UNL    C24   29  -0.017   0.456  -0.045
    1UNL     O4   30  -0.018   0.320   0.144
    1UNL     H1   31   0.584  -0.056   0.170
    1UNL     H2   32   0.437  -0.005   0.232
    1UNL     H3   33   0.489   0.045   0.062
    1UNL     H4   34   0.473  -0.246   0.055
    1UNL     H5   35   0.198  -0.355   0.111
    1UNL     H6   36   0.225  -0.322  -0.061
    1UNL     H7   37  -0.034  -0.272   0.202
    1UNL     H8   38   0.144  -0.175   0.294
    1UNL     H9   39   0.061  -0.011   0.287
    1UNL    H10   40   0.261   0.041   0.152
    1UNL    H11   41   0.249   0.295  -0.266
    1UNL    H12   42   0.366   0.177  -0.280
    1UNL    H13   43   0.235   0.200  -0.415
    1UNL    H14   44   0.143  -0.159  -0.149
    1UNL    H15   45  -0.130  -0.151  -0.172
    1UNL    H16   46  -0.054  -0.004  -0.217
    1UNL    H17   47  -0.280   0.220  -0.137
    1UNL    H18   48  -0.520   0.197  -0.196
    1UNL    H19   49  -0.649   0.007  -0.113
    1UNL    H20   50  -0.536  -0.166   0.019
    1UNL    H21   51  -0.244  -0.361   0.145
    1UNL    H22   52  -0.371  -0.284   0.214
    1UNL    H23   53  -0.387  -0.332   0.037
    1UNL    H24   54  -0.166  -0.027   0.190
    1UNL    H25   55  -0.005   0.122   0.130
    1UNL    H26   56  -0.019   0.450  -0.159
    1UNL    H27   57   0.072   0.514  -0.022
    1UNL    H28   58  -0.099   0.519  -0.009
   0.00000   0.00000   0.00000   0.00000   0.00000   0.00000   0.00000   0.00000   0.00000
Generated with MDTraj, t= 9.0
 58
    1UNL     C1    1   0.504  -0.040   0.148
    1UNL     C2    2   0.420  -0.152   0.108
    1UNL     C3    3   0.286  -0.152   0.086
    1UNL     C4    4   0.211  -0.270   0.033
    1UNL     N1    5   0.066  -0.230   0.013
    1UNL     C5    6  -0.009  -0.185   0.142
    1UNL     C6    7   0.093  -0.100   0.231
    1UNL     C7    8   0.196  -0.039   0.128
    1UNL     C8    9   0.121   0.011  -0.007
    1UNL     C9   10   0.208   0.093  -0.102
    1UNL     O1   11   0.288   0.157  -0.042
    1UNL     O2   12   0.187   0.100  -0.239
    1UNL    C10   13   0.273   0.196  -0.295
    1UNL    C11   14   0.071  -0.114  -0.088
    1UNL    C12   15  -0.071  -0.078  -0.134
    1UNL    C13   16  -0.125  -0.016  -0.005
    1UNL    C14   17  -0.266   0.022  -0.032
    1UNL    C15   18  -0.315   0.142  -0.093
    1UNL    C16   19  -0.454   0.153  -0.101
    1UNL    C17   20  -0.538   0.050  -0.063
    1UNL    C18   21  -0.484  -0.062  -0.002
    1UNL    C19   22  -0.351  -0.076   0.016
    1UNL     N2   23  -0.273  -0.176   0.083
    1UNL    C20   24  -0.297  -0.323   0.078
    1UNL    C21   25  -0.138  -0.115   0.116
    1UNL    C22   26  -0.017   0.091   0.024
    1UNL     O3   27  -0.025   0.203  -0.064
    1UNL    C23   28  -0.032   0.325   0.006
    1UNL    C24   29  -0.027   0.447  -0.087
    1UNL     O4   30  -0.055   0.340   0.125
    1UNL     H1   31   0.602  -0.039   0.115
    1UNL     H2   32   0.508  -0.045   0.259
    1UNL     H3   33   0.462   0.057   0.122
    1UNL     H4   34   0.471  -0.234   0.085
    1UNL     H5   35   0.203  -0.345   0.107
    1UNL     H6   36   0.264  -0.297  -0.059
    1UNL     H7   37  -0.031  -0.283   0.187
    1UNL     H8   38   0.145  -0.167   0.302
    1UNL     H9   39   0.039  -0.033   0.301
    1UNL    H10   40   0.246   0.035   0.185
    1UNL    H11   41   0.264   0.282  -0.238
    1UNL    H12   42   0.378   0.166  -0.279
    1UNL    H13   43   0.249   0.217  -0.407
    1UNL    H14   44   0.140  -0.124  -0.173
    1UNL    H15   45  -0.131  -0.159  -0.161
    1UNL    H16   46  -0.074  -0.009  -0.219
    1UNL    H17   47  -0.246   0.219  -0.127
    1UNL    H18   48  -0.500   0.208  -0.180
    1UNL    H19   49  -0.649   0.050  -0.094
    1UNL    H20   50  -0.553  -0.138   0.036
    1UNL    H21   51  -0.198  -0.362   0.070
    1UNL    H22   52  -0.330  -0.357   0.176
    1UNL    H23   53  -0.360  -0.342  -0.008
    1UNL    H24   54  -0.157  -0.042   0.196
    1UNL    H25   55  -0.002   0.129   0.131
    1UNL    H26   56  -0.124   0.465  -0.125
    1UNL    H27   57   0.043   0.420  -0.178
    1UNL    H28   58   0.020   0.532  -0.028
   0.00000   0.00000   0.00000   0.00000   0.00000   0.00000   0.00000   0.00000   0.00000
Generated with MDTraj, t= 10.0
 58
    1UNL     C1    1   0.500  -0.018   0.127
    1UNL     C2    2   0.420  -0.142   0.101
    1UNL     C3    3   0.286  -0.150   0.098
    1UNL     C4    4   0.213  -0.267   0.038
    1UNL     N1    5   0.070  -0.227   0.007
    1UNL     C5    6  -0.009  -0.194   0.129
    1UNL     C6    7   0.081  -0.107   0.222
    1UNL     C7    8   0.194  -0.038   0.139
    1UNL     C8    9   0.121   0.017   0.001
    1UNL     C9   10   0.223   0.089  -0.083
    1UNL     O1   11   0.307   0.148  -0.021
    1UNL     O2   12   0.210   0.084  -0.223
    1UNL    C10   13   0.299   0.168  -0.286
    1UNL    C11   14   0.069  -0.114  -0.082
    1UNL    C12   15  -0.061  -0.076  -0.142
    1UNL    C13   16  -0.129  -0.013  -0.013
    1UNL    C14   17  -0.274   0.027  -0.034
    1UNL    C15   18  -0.328   0.149  -0.069
    1UNL    C16   19  -0.462   0.160  -0.075
    1UNL    C17   20  -0.549   0.060  -0.035
    1UNL    C18   21  -0.491  -0.057   0.012
    1UNL    C19   22  -0.355  -0.072   0.018
    1UNL     N2   23  -0.273  -0.175   0.081
    1UNL    C20   24  -0.281  -0.315   0.044
    1UNL    C21   25  -0.136  -0.107   0.101
    1UNL    C22   26  -0.013   0.096   0.020
    1UNL     O3   27  -0.016   0.203  -0.076
    1UNL    C23   28  -0.045   0.318  -0.015
    1UNL    C24   29  -0.053   0.444  -0.094
    1UNL     O4   30  -0.076   0.321   0.099
    1UNL     H1   31   0.606  -0.031   0.158
    1UNL     H2   32   0.454   0.032   0.211
    1UNL     H3   33   0.499   0.050   0.046
    1UNL     H4   34   0.477  -0.230   0.058
    1UNL     H5   35   0.216  -0.345   0.111
    1UNL     H6   36   0.249  -0.289  -0.064
    1UNL     H7   37  -0.041  -0.286   0.181
    1UNL     H8   38   0.122  -0.172   0.302
    1UNL     H9   39   0.018  -0.043   0.287
    1UNL    H10   40   0.242   0.045   0.187
    1UNL    H11   41   0.279   0.263  -0.248
    1UNL    H12   42   0.403   0.144  -0.259
    1UNL    H13   43   0.285   0.157  -0.403
    1UNL    H14   44   0.139  -0.137  -0.161
    1UNL    H15   45  -0.120  -0.157  -0.173
    1UNL    H16   46  -0.054  -0.003  -0.222
    1UNL    H17   47  -0.257   0.224  -0.107
    1UNL    H18   48  -0.502   0.250  -0.125
    1UNL    H19   49  -0.649   0.060  -0.037
    1UNL    H20   50  -0.554  -0.124   0.065
    1UNL    H21   51  -0.197  -0.327  -0.022
    1UNL    H22   52  -0.257  -0.374   0.138
    1UNL    H23   53  -0.374  -0.323  -0.001
    1UNL    H24   54  -0.149  -0.053   0.194
    1UNL    H25   55  -0.022   0.135   0.125
    1UNL    H26   56  -0.090   0.518  -0.028
    1UNL    H27   57  -0.132   0.416  -0.173
    1UNL    H28   58   0.053   0.461  -0.140
   0.00000   0.00000   0.00000   0.00000   0.00000   0.00000   0.00000   0.00000   0.00000
Generated with MDTraj, t= 11.0
 58
    1UNL     C1    1   0.492  -0.027   0.120
    1UNL     C2    2   0.413  -0.151   0.082
    1UNL     C3    3   0.277  -0.157   0.091
    1UNL     C4    4   0.203  -0.284   0.047
    1UNL     N1    5   0.067  -0.230   0.013
    1UNL     C5    6  -0.007  -0.188   0.143
    1UNL     C6    7   0.085  -0.092   0.217
    1UNL     C7    8   0.190  -0.042   0.121
    1UNL     C8    9   0.128   0.017  -0.011
    1UNL     C9   10   0.232   0.096  -0.089
    1UNL     O1   11   0.305   0.164  -0.022
    1UNL     O2   12   0.237   0.082  -0.231
    1UNL    C10   13   0.346   0.150  -0.280
    1UNL    C11   14   0.075  -0.114  -0.085
    1UNL    C12   15  -0.060  -0.075  -0.134
    1UNL    C13   16  -0.122  -0.007  -0.009
    1UNL    C14   17  -0.266   0.033  -0.027
    1UNL    C15   18  -0.328   0.153  -0.059
    1UNL    C16   19  -0.468   0.158  -0.068
    1UNL    C17   20  -0.549   0.049  -0.037
    1UNL    C18   21  -0.489  -0.067   0.007
    1UNL    C19   22  -0.351  -0.076   0.012
    1UNL     N2   23  -0.272  -0.174   0.073
    1UNL    C20   24  -0.288  -0.320   0.051
    1UNL    C21   25  -0.140  -0.108   0.108
    1UNL    C22   26  -0.001   0.100   0.016
    1UNL     O3   27  -0.013   0.212  -0.072
    1UNL    C23   28  -0.068   0.326  -0.007
    1UNL    C24   29  -0.071   0.456  -0.090
    1UNL     O4   30  -0.116   0.328   0.103
    1UNL     H1   31   0.592  -0.055   0.170
    1UNL     H2   32   0.443   0.030   0.194
    1UNL     H3   33   0.510   0.032   0.034
    1UNL     H4   34   0.470  -0.242   0.047
    1UNL     H5   35   0.193  -0.355   0.127
    1UNL     H6   36   0.254  -0.320  -0.043
    1UNL     H7   37  -0.033  -0.281   0.199
    1UNL     H8   38   0.128  -0.150   0.302
    1UNL     H9   39   0.033  -0.012   0.271
    1UNL    H10   40   0.252   0.041   0.152
    1UNL    H11   41   0.340   0.246  -0.240
    1UNL    H12   42   0.440   0.107  -0.237
    1UNL    H13   43   0.355   0.132  -0.398
    1UNL    H14   44   0.136  -0.147  -0.167
    1UNL    H15   45  -0.108  -0.167  -0.161
    1UNL    H16   46  -0.052  -0.006  -0.214
    1UNL    H17   47  -0.272   0.236  -0.086
    1UNL    H18   48  -0.515   0.251  -0.084
    1UNL    H19   49  -0.656   0.083  -0.012
    1UNL    H20   50  -0.554  -0.136   0.060
    1UNL    H21   51  -0.234  -0.350  -0.036
    1UNL    H22   52  -0.259  -0.381   0.143
    1UNL    H23   53  -0.388  -0.325   0.029
    1UNL    H24   54  -0.146  -0.045   0.197
    1UNL    H25   55  -0.012   0.131   0.121
    1UNL    H26   56   0.026   0.524  -0.079
    1UNL    H27   57  -0.160   0.510  -0.061
    1UNL    H28   58  -0.084   0.418  -0.196
   0.00000   0.00000   0.00000   0.00000   0.00000   0.00000   0.00000   0.00000   0.00000
Generated with MDTraj, t= 12.0
 58
    1UNL     C1    1   0.513  -0.052   0.123
    1UNL     C2    2   0.426  -0.163   0.076
    1UNL     C3    3   0.289  -0.155   0.075
    1UNL     C4    4   0.208  -0.276   0.023
    1UNL     N1    5   0.065  -0.230   0.005
    1UNL     C5    6  -0.005  -0.181   0.138
    1UNL     C6    7   0.096  -0.097   0.217
    1UNL     C7    8   0.203  -0.041   0.123
    1UNL     C8    9   0.134   0.012  -0.005
    1UNL     C9   10   0.228   0.099  -0.088
    1UNL     O1   11   0.280   0.191  -0.031
    1UNL     O2   12   0.251   0.049  -0.211
    1UNL    C10   13   0.339   0.130  -0.282
    1UNL    C11   14   0.071  -0.108  -0.085
    1UNL    C12   15  -0.072  -0.061  -0.134
    1UNL    C13   16  -0.122   0.006  -0.009
    1UNL    C14   17  -0.274   0.046  -0.028
    1UNL    C15   18  -0.335   0.156  -0.082
    1UNL    C16   19  -0.472   0.152  -0.100
    1UNL    C17   20  -0.550   0.042  -0.065
    1UNL    C18   21  -0.491  -0.066  -0.006
    1UNL    C19   22  -0.349  -0.066   0.016
    1UNL     N2   23  -0.263  -0.157   0.077
    1UNL    C20   24  -0.279  -0.308   0.097
    1UNL    C21   25  -0.136  -0.099   0.112
    1UNL    C22   26  -0.005   0.102   0.028
    1UNL     O3   27  -0.013   0.215  -0.054
    1UNL    C23   28  -0.077   0.321   0.005
    1UNL    C24   29  -0.070   0.447  -0.067
    1UNL     O4   30  -0.141   0.313   0.105
    1UNL     H1   31   0.575  -0.006   0.039
    1UNL     H2   32   0.584  -0.089   0.192
    1UNL     H3   33   0.459   0.032   0.163
    1UNL     H4   34   0.472  -0.246   0.046
    1UNL     H5   35   0.206  -0.359   0.092
    1UNL     H6   36   0.257  -0.298  -0.073
    1UNL     H7   37  -0.037  -0.279   0.179
    1UNL     H8   38   0.141  -0.145   0.307
    1UNL     H9   39   0.031  -0.022   0.263
    1UNL    H10   40   0.257   0.039   0.173
    1UNL    H11   41   0.314   0.231  -0.267
    1UNL    H12   42   0.439   0.121  -0.234
    1UNL    H13   43   0.350   0.087  -0.391
    1UNL    H14   44   0.130  -0.122  -0.175
    1UNL    H15   45  -0.128  -0.153  -0.153
    1UNL    H16   46  -0.076   0.014  -0.207
    1UNL    H17   47  -0.276   0.236  -0.125
    1UNL    H18   48  -0.523   0.240  -0.149
    1UNL    H19   49  -0.654   0.054  -0.064
    1UNL    H20   50  -0.553  -0.148   0.025
    1UNL    H21   51  -0.219  -0.371   0.034
    1UNL    H22   52  -0.259  -0.332   0.202
    1UNL    H23   53  -0.382  -0.330   0.075
    1UNL    H24   54  -0.147  -0.037   0.201
    1UNL    H25   55  -0.001   0.134   0.133
    1UNL    H26   56   0.000   0.451  -0.162
    1UNL    H27   57  -0.044   0.534  -0.003
    1UNL    H28   58  -0.170   0.469  -0.105
   0.00000   0.00000   0.00000   0.00000   0.00000   0.00000   0.00000   0.00000   0.00000
Generated with MDTraj, t= 13.0
 58
    1UNL     C1    1   0.498  -0.044   0.115
    1UNL     C2    2   0.422  -0.165   0.077
    1UNL     C3    3   0.287  -0.167   0.075
    1UNL     C4    4   0.198  -0.276   0.015
    1UNL     N1    5   0.060  -0.224  -0.004
    1UNL     C5    6   0.000  -0.187   0.130
    1UNL     C6    7   0.103  -0.097   0.212
    1UNL     C7    8   0.206  -0.046   0.114
    1UNL     C8    9   0.133   0.017  -0.011
    1UNL     C9   10   0.230   0.101  -0.092
    1UNL     O1   11   0.278   0.200  -0.038
    1UNL     O2   12   0.255   0.050  -0.217
    1UNL    C10   13   0.346   0.132  -0.291
    1UNL    C11   14   0.068  -0.103  -0.089
    1UNL    C12   15  -0.079  -0.066  -0.132
    1UNL    C13   16  -0.124   0.002   0.001
    1UNL    C14   17  -0.271   0.051  -0.022
    1UNL    C15   18  -0.317   0.144  -0.107
    1UNL    C16   19  -0.450   0.132  -0.145
    1UNL    C17   20  -0.532   0.034  -0.092
    1UNL    C18   21  -0.485  -0.063  -0.008
    1UNL    C19   22  -0.347  -0.052   0.037
    1UNL     N2   23  -0.264  -0.155   0.092
    1UNL    C20   24  -0.309  -0.291   0.139
    1UNL    C21   25  -0.130  -0.101   0.119
    1UNL    C22   26  -0.002   0.105   0.032
    1UNL     O3   27  -0.021   0.217  -0.052
    1UNL    C23   28  -0.082   0.318   0.021
    1UNL    C24   29  -0.076   0.455  -0.039
    1UNL     O4   30  -0.143   0.298   0.126
    1UNL     H1   31   0.441   0.050   0.125
    1UNL     H2   32   0.570  -0.025   0.040
    1UNL     H3   33   0.548  -0.048   0.213
    1UNL     H4   34   0.477  -0.263   0.049
    1UNL     H5   35   0.202  -0.355   0.091
    1UNL     H6   36   0.223  -0.304  -0.089
    1UNL     H7   37  -0.016  -0.270   0.203
    1UNL     H8   38   0.140  -0.159   0.299
    1UNL     H9   39   0.053  -0.012   0.257
    1UNL    H10   40   0.257   0.039   0.163
    1UNL    H11   41   0.302   0.218  -0.329
    1UNL    H12   42   0.419   0.168  -0.216
    1UNL    H13   43   0.402   0.069  -0.369
    1UNL    H14   44   0.132  -0.140  -0.169
    1UNL    H15   45  -0.141  -0.154  -0.150
    1UNL    H16   46  -0.071   0.007  -0.206
    1UNL    H17   47  -0.250   0.208  -0.166
    1UNL    H18   48  -0.478   0.188  -0.228
    1UNL    H19   49  -0.626   0.014  -0.142
    1UNL    H20   50  -0.540  -0.153   0.016
    1UNL    H21   51  -0.239  -0.368   0.114
    1UNL    H22   52  -0.320  -0.284   0.242
    1UNL    H23   53  -0.407  -0.329   0.096
    1UNL    H24   54  -0.146  -0.048   0.215
    1UNL    H25   55  -0.009   0.146   0.131
    1UNL    H26   56  -0.118   0.467  -0.133
    1UNL    H27   57   0.027   0.507  -0.047
    1UNL    H28   58  -0.137   0.530   0.020
   0.00000   0.00000   0.00000   0.00000   0.00000   0.00000   0.00000   0.00000   0.00000
Generated with MDTraj, t= 14.0
 58
    1UNL     C1    1   0.508  -0.038   0.087
    1UNL     C2    2   0.423  -0.154   0.049
    1UNL     C3    3   0.292  -0.162   0.079
    1UNL     C4    4   0.213  -0.284   0.040
    1UNL     N1    5   0.069  -0.228   0.011
    1UNL     C5    6  -0.006  -0.182   0.139
    1UNL     C6    7   0.095  -0.090   0.220
    1UNL     C7    8   0.203  -0.045   0.114
    1UNL     C8    9   0.132   0.016  -0.007
    1UNL     C9   10   0.231   0.099  -0.093
    1UNL     O1   11   0.284   0.189  -0.030
    1UNL     O2   12   0.243   0.062  -0.223
    1UNL    C10   13   0.342   0.139  -0.279
    1UNL    C11   14   0.083  -0.115  -0.089
    1UNL    C12   15  -0.063  -0.083  -0.137
    1UNL    C13   16  -0.121  -0.004  -0.012
    1UNL    C14   17  -0.265   0.035  -0.047
    1UNL    C15   18  -0.315   0.133  -0.124
    1UNL    C16   19  -0.455   0.138  -0.142
    1UNL    C17   20  -0.539   0.038  -0.096
    1UNL    C18   21  -0.488  -0.066  -0.024
    1UNL    C19   22  -0.351  -0.066   0.002
    1UNL     N2   23  -0.271  -0.164   0.079
    1UNL    C20   24  -0.341  -0.248   0.177
    1UNL    C21   25  -0.132  -0.098   0.109
    1UNL    C22   26   0.000   0.096   0.023
    1UNL     O3   27  -0.016   0.226  -0.047
    1UNL    C23   28  -0.074   0.317   0.033
    1UNL    C24   29  -0.097   0.453  -0.017
    1UNL     O4   30  -0.121   0.295   0.145
    1UNL     H1   31   0.454   0.050   0.104
    1UNL     H2   32   0.578  -0.024   0.007
    1UNL     H3   33   0.560  -0.059   0.185
    1UNL     H4   34   0.467  -0.244   0.010
    1UNL     H5   35   0.202  -0.358   0.121
    1UNL     H6   36   0.263  -0.321  -0.051
    1UNL     H7   37  -0.031  -0.279   0.190
    1UNL     H8   38   0.135  -0.150   0.306
    1UNL     H9   39   0.044  -0.004   0.262
    1UNL    H10   40   0.267   0.028   0.168
    1UNL    H11   41   0.331   0.241  -0.254
    1UNL    H12   42   0.441   0.106  -0.241
    1UNL    H13   43   0.334   0.132  -0.389
    1UNL    H14   44   0.154  -0.141  -0.169
    1UNL    H15   45  -0.118  -0.173  -0.160
    1UNL    H16   46  -0.054  -0.020  -0.219
    1UNL    H17   47  -0.257   0.212  -0.162
    1UNL    H18   48  -0.495   0.216  -0.214
    1UNL    H19   49  -0.646   0.054  -0.124
    1UNL    H20   50  -0.544  -0.147   0.023
    1UNL    H21   51  -0.282  -0.337   0.191
    1UNL    H22   52  -0.351  -0.193   0.264
    1UNL    H23   53  -0.441  -0.295   0.151
    1UNL    H24   54  -0.168  -0.044   0.201
    1UNL    H25   55  -0.010   0.122   0.124
    1UNL    H26   56  -0.198   0.475  -0.027
    1UNL    H27   57  -0.044   0.472  -0.115
    1UNL    H28   58  -0.055   0.531   0.057
   0.00000   0.00000   0.00000   0.00000   0.00000   0.00000   0.00000   0.00000   0.00000
Generated with MDTraj, t= 15.0
 58
    1UNL     C1    1   0.496  -0.020   0.071
    1UNL     C2    2   0.419  -0.145   0.070
    1UNL     C3    3   0.286  -0.157   0.092
    1UNL     C4    4   0.213  -0.282   0.049
    1UNL     N1    5   0.073  -0.238   0.006
    1UNL     C5    6  -0.014  -0.189   0.125
    1UNL     C6    7   0.083  -0.099   0.215
    1UNL     C7    8   0.195  -0.036   0.131
    1UNL     C8    9   0.127   0.010  -0.003
    1UNL     C9   10   0.224   0.097  -0.087
    1UNL     O1   11   0.304   0.164  -0.024
    1UNL     O2   12   0.223   0.079  -0.225
    1UNL    C10   13   0.320   0.162  -0.283
    1UNL    C11   14   0.088  -0.117  -0.087
    1UNL    C12   15  -0.055  -0.088  -0.143
    1UNL    C13   16  -0.114  -0.005  -0.025
    1UNL    C14   17  -0.261   0.025  -0.050
    1UNL    C15   18  -0.312   0.138  -0.111
    1UNL    C16   19  -0.446   0.150  -0.137
    1UNL    C17   20  -0.534   0.048  -0.101
    1UNL    C18   21  -0.480  -0.060  -0.034
    1UNL    C19   22  -0.347  -0.076  -0.004
    1UNL     N2   23  -0.277  -0.163   0.078
    1UNL    C20   24  -0.331  -0.229   0.196
    1UNL    C21   25  -0.135  -0.108   0.094
    1UNL    C22   26  -0.003   0.091   0.018
    1UNL     O3   27  -0.010   0.218  -0.051
    1UNL    C23   28  -0.069   0.309   0.032
    1UNL    C24   29  -0.097   0.445  -0.025
    1UNL     O4   30  -0.105   0.280   0.147
    1UNL     H1   31   0.525   0.001  -0.026
    1UNL     H2   32   0.585  -0.028   0.134
    1UNL     H3   33   0.432   0.066   0.102
    1UNL     H4   34   0.468  -0.232   0.040
    1UNL     H5   35   0.203  -0.357   0.132
    1UNL     H6   36   0.271  -0.320  -0.036
    1UNL     H7   37  -0.031  -0.284   0.181
    1UNL     H8   38   0.129  -0.149   0.305
    1UNL     H9   39   0.016  -0.027   0.262
    1UNL    H10   40   0.249   0.044   0.189
    1UNL    H11   41   0.309   0.263  -0.254
    1UNL    H12   42   0.422   0.124  -0.262
    1UNL    H13   43   0.302   0.166  -0.389
    1UNL    H14   44   0.153  -0.138  -0.173
    1UNL    H15   45  -0.112  -0.175  -0.163
    1UNL    H16   46  -0.051  -0.038  -0.236
    1UNL    H17   47  -0.251   0.227  -0.134
    1UNL    H18   48  -0.489   0.240  -0.165
    1UNL    H19   49  -0.637   0.055  -0.098
    1UNL    H20   50  -0.544  -0.124   0.021
    1UNL    H21   51  -0.250  -0.256   0.262
    1UNL    H22   52  -0.408  -0.175   0.248
    1UNL    H23   53  -0.363  -0.329   0.175
    1UNL    H24   54  -0.164  -0.049   0.186
    1UNL    H25   55  -0.015   0.105   0.121
    1UNL    H26   56  -0.159   0.507   0.049
    1UNL    H27   57  -0.145   0.428  -0.119
    1UNL    H28   58   0.003   0.486  -0.039
   0.00000   0.00000   0.00000   0.00000   0.00000   0.00000   0.00000   0.00000   0.00000
Generated with MDTraj, t= 16.0
 58
    1UNL     C1    1   0.503  -0.043   0.134
    1UNL     C2    2   0.423  -0.156   0.084
    1UNL     C3    3   0.290  -0.156   0.081
    1UNL     C4    4   0.210  -0.275   0.031
    1UNL     N1    5   0.075  -0.230   0.000
    1UNL     C5    6  -0.003  -0.188   0.132
    1UNL     C6    7   0.094  -0.102   0.218
    1UNL     C7    8   0.198  -0.039   0.124
    1UNL     C8    9   0.127   0.011  -0.007
    1UNL     C9   10   0.224   0.099  -0.096
    1UNL     O1   11   0.308   0.166  -0.040
    1UNL     O2   12   0.206   0.091  -0.232
    1UNL    C10   13   0.282   0.189  -0.293
    1UNL    C11   14   0.074  -0.110  -0.090
    1UNL    C12   15  -0.066  -0.092  -0.132
    1UNL    C13   16  -0.116  -0.015  -0.009
    1UNL    C14   17  -0.255   0.026  -0.039
    1UNL    C15   18  -0.304   0.134  -0.117
    1UNL    C16   19  -0.439   0.146  -0.147
    1UNL    C17   20  -0.527   0.054  -0.094
    1UNL    C18   21  -0.480  -0.046  -0.009
    1UNL    C19   22  -0.345  -0.064   0.013
    1UNL     N2   23  -0.276  -0.160   0.093
    1UNL    C20   24  -0.331  -0.274   0.162
    1UNL    C21   25  -0.134  -0.113   0.110
    1UNL    C22   26  -0.004   0.093   0.022
    1UNL     O3   27  -0.010   0.210  -0.051
    1UNL    C23   28  -0.069   0.309   0.021
    1UNL    C24   29  -0.065   0.444  -0.047
    1UNL     O4   30  -0.123   0.297   0.132
    1UNL     H1   31   0.590  -0.073   0.189
    1UNL     H2   32   0.450   0.022   0.206
    1UNL     H3   33   0.539   0.015   0.052
    1UNL     H4   34   0.468  -0.257   0.044
    1UNL     H5   35   0.222  -0.352   0.113
    1UNL     H6   36   0.239  -0.318  -0.066
    1UNL     H7   37  -0.032  -0.282   0.188
    1UNL     H8   38   0.135  -0.174   0.293
    1UNL     H9   39   0.041  -0.029   0.281
    1UNL    H10   40   0.244   0.055   0.167
    1UNL    H11   41   0.239   0.286  -0.275
    1UNL    H12   42   0.392   0.185  -0.271
    1UNL    H13   43   0.269   0.175  -0.396
    1UNL    H14   44   0.150  -0.126  -0.169
    1UNL    H15   45  -0.119  -0.175  -0.168
    1UNL    H16   46  -0.054  -0.025  -0.216
    1UNL    H17   47  -0.227   0.196  -0.152
    1UNL    H18   48  -0.482   0.234  -0.201
    1UNL    H19   49  -0.639   0.062  -0.107
    1UNL    H20   50  -0.557  -0.113   0.035
    1UNL    H21   51  -0.263  -0.307   0.240
    1UNL    H22   52  -0.435  -0.261   0.198
    1UNL    H23   53  -0.324  -0.354   0.101
    1UNL    H24   54  -0.148  -0.043   0.198
    1UNL    H25   55  -0.013   0.114   0.125
    1UNL    H26   56  -0.015   0.521   0.029
    1UNL    H27   57  -0.164   0.470  -0.082
    1UNL    H28   58   0.001   0.425  -0.126
   0.00000   0.00000   0.00000   0.00000   0.00000   0.00000   0.00000   0.00000   0.00000
Generated with MDTraj, t= 17.0
 58
    1UNL     C1    1   0.505  -0.079   0.185
    1UNL     C2    2   0.418  -0.179   0.113
    1UNL     C3    3   0.288  -0.159   0.085
    1UNL     C4    4   0.205  -0.279   0.029
    1UNL     N1    5   0.071  -0.226   0.007
    1UNL     C5    6   0.005  -0.179   0.135
    1UNL     C6    7   0.102  -0.098   0.221
    1UNL     C7    8   0.202  -0.039   0.122
    1UNL     C8    9   0.132   0.009  -0.011
    1UNL     C9   10   0.226   0.097  -0.100
    1UNL     O1   11   0.317   0.161  -0.053
    1UNL     O2   12   0.188   0.097  -0.234
    1UNL    C10   13   0.264   0.195  -0.299
    1UNL    C11   14   0.070  -0.112  -0.091
    1UNL    C12   15  -0.063  -0.081  -0.134
    1UNL    C13   16  -0.118   0.001  -0.011
    1UNL    C14   17  -0.257   0.042  -0.034
    1UNL    C15   18  -0.327   0.145  -0.097
    1UNL    C16   19  -0.462   0.139  -0.117
    1UNL    C17   20  -0.538   0.033  -0.071
    1UNL    C18   21  -0.472  -0.072  -0.002
    1UNL    C19   22  -0.338  -0.065   0.012
    1UNL     N2   23  -0.262  -0.157   0.084
    1UNL    C20   24  -0.307  -0.285   0.112
    1UNL    C21   25  -0.126  -0.098   0.112
    1UNL    C22   26  -0.006   0.102   0.015
    1UNL     O3   27  -0.001   0.218  -0.056
    1UNL    C23   28  -0.067   0.321   0.004
    1UNL    C24   29  -0.060   0.450  -0.064
    1UNL     O4   30  -0.125   0.314   0.111
    1UNL     H1   31   0.576  -0.138   0.251
    1UNL     H2   32   0.455  -0.010   0.251
    1UNL     H3   33   0.562  -0.034   0.110
    1UNL     H4   34   0.451  -0.271   0.082
    1UNL     H5   35   0.191  -0.372   0.094
    1UNL     H6   36   0.253  -0.315  -0.063
    1UNL     H7   37  -0.038  -0.270   0.185
    1UNL     H8   38   0.147  -0.179   0.283
    1UNL     H9   39   0.058  -0.031   0.299
    1UNL    H10   40   0.269   0.045   0.159
    1UNL    H11   41   0.251   0.293  -0.251
    1UNL    H12   42   0.374   0.171  -0.317
    1UNL    H13   43   0.229   0.205  -0.396
    1UNL    H14   44   0.145  -0.127  -0.171
    1UNL    H15   45  -0.130  -0.159  -0.151
    1UNL    H16   46  -0.067  -0.019  -0.222
    1UNL    H17   47  -0.260   0.227  -0.137
    1UNL    H18   48  -0.503   0.210  -0.184
    1UNL    H19   49  -0.636   0.032  -0.106
    1UNL    H20   50  -0.523  -0.164   0.002
    1UNL    H21   51  -0.232  -0.340   0.166
    1UNL    H22   52  -0.406  -0.278   0.161
    1UNL    H23   53  -0.318  -0.336   0.022
    1UNL    H24   54  -0.134  -0.051   0.212
    1UNL    H25   55   0.002   0.127   0.118
    1UNL    H26   56   0.039   0.484  -0.054
    1UNL    H27   57  -0.129   0.518  -0.009
    1UNL    H28   58  -0.089   0.442  -0.168
   0.00000   0.00000   0.00000   0.00000   0.00000   0.00000   0.00000   0.00000   0.00000
Generated with MDTraj, t= 18.0
 58
    1UNL     C1    1   0.499  -0.078   0.191
    1UNL     C2    2   0.408  -0.180   0.133
    1UNL     C3    3   0.283  -0.157   0.086
    1UNL     C4    4   0.197  -0.267   0.031
    1UNL     N1    5   0.060  -0.226   0.004
    1UNL     C5    6  -0.008  -0.179   0.137
    1UNL     C6    7   0.094  -0.097   0.218
    1UNL     C7    8   0.199  -0.033   0.124
    1UNL     C8    9   0.129   0.018  -0.017
    1UNL     C9   10   0.232   0.091  -0.102
    1UNL     O1   11   0.338   0.132  -0.058
    1UNL     O2   12   0.189   0.112  -0.236
    1UNL    C10   13   0.290   0.183  -0.302
    1UNL    C11   14   0.070  -0.108  -0.088
    1UNL    C12   15  -0.069  -0.074  -0.128
    1UNL    C13   16  -0.119   0.007  -0.007
    1UNL    C14   17  -0.262   0.046  -0.021
    1UNL    C15   18  -0.331   0.152  -0.072
    1UNL    C16   19  -0.465   0.148  -0.089
    1UNL    C17   20  -0.537   0.033  -0.060
    1UNL    C18   21  -0.470  -0.077  -0.008
    1UNL    C19   22  -0.334  -0.070   0.014
    1UNL     N2   23  -0.248  -0.169   0.063
    1UNL    C20   24  -0.279  -0.310   0.092
    1UNL    C21   25  -0.132  -0.099   0.105
    1UNL    C22   26   0.002   0.108   0.012
    1UNL     O3   27  -0.014   0.217  -0.069
    1UNL    C23   28  -0.075   0.324  -0.003
    1UNL    C24   29  -0.074   0.453  -0.082
    1UNL     O4   30  -0.115   0.317   0.111
    1UNL     H1   31   0.602  -0.087   0.143
    1UNL     H2   32   0.512  -0.084   0.297
    1UNL     H3   33   0.462   0.014   0.158
    1UNL     H4   34   0.442  -0.282   0.129
    1UNL     H5   35   0.193  -0.357   0.101
    1UNL     H6   36   0.242  -0.305  -0.061
    1UNL     H7   37  -0.036  -0.264   0.203
    1UNL     H8   38   0.133  -0.157   0.303
    1UNL     H9   39   0.045  -0.016   0.280
    1UNL    H10   40   0.266   0.045   0.174
    1UNL    H11   41   0.295   0.291  -0.269
    1UNL    H12   42   0.394   0.134  -0.301
    1UNL    H13   43   0.271   0.183  -0.403
    1UNL    H14   44   0.137  -0.121  -0.175
    1UNL    H15   45  -0.127  -0.156  -0.152
    1UNL    H16   46  -0.088  -0.006  -0.210
    1UNL    H17   47  -0.273   0.238  -0.092
    1UNL    H18   48  -0.512   0.240  -0.122
    1UNL    H19   49  -0.643   0.013  -0.092
    1UNL    H20   50  -0.530  -0.171  -0.001
    1UNL    H21   51  -0.195  -0.357   0.134
    1UNL    H22   52  -0.363  -0.301   0.158
    1UNL    H23   53  -0.313  -0.366   0.005
    1UNL    H24   54  -0.141  -0.045   0.199
    1UNL    H25   55   0.003   0.131   0.116
    1UNL    H26   56   0.003   0.463  -0.147
    1UNL    H27   57  -0.063   0.537  -0.015
    1UNL    H28   58  -0.165   0.479  -0.142
   0.00000   0.00000   0.00000   0.00000   0.00000   0.00000   0.00000   0.00000   0.00000
Generated with MDTraj, t= 19.0
 58
    1UNL     C1    1   0.501  -0.034   0.160
    1UNL     C2    2   0.420  -0.137   0.095
    1UNL     C3    3   0.290  -0.146   0.088
    1UNL     C4    4   0.215  -0.267   0.035
    1UNL     N1    5   0.071  -0.229   0.006
    1UNL     C5    6  -0.008  -0.193   0.136
    1UNL     C6    7   0.087  -0.107   0.218
    1UNL     C7    8   0.192  -0.040   0.131
    1UNL     C8    9   0.126   0.020  -0.004
    1UNL     C9   10   0.241   0.094  -0.094
    1UNL     O1   11   0.347   0.131  -0.046
    1UNL     O2   12   0.208   0.100  -0.224
    1UNL    C10   13   0.311   0.164  -0.290
    1UNL    C11   14   0.074  -0.111  -0.082
    1UNL    C12   15  -0.070  -0.079  -0.131
    1UNL    C13   16  -0.128  -0.003  -0.008
    1UNL    C14   17  -0.272   0.038  -0.026
    1UNL    C15   18  -0.330   0.151  -0.088
    1UNL    C16   19  -0.469   0.160  -0.095
    1UNL    C17   20  -0.546   0.054  -0.055
    1UNL    C18   21  -0.493  -0.063  -0.000
    1UNL    C19   22  -0.352  -0.069   0.011
    1UNL     N2   23  -0.269  -0.170   0.069
    1UNL    C20   24  -0.298  -0.314   0.078
    1UNL    C21   25  -0.138  -0.110   0.100
    1UNL    C22   26  -0.008   0.098   0.018
    1UNL     O3   27  -0.012   0.211  -0.062
    1UNL    C23   28  -0.070   0.319   0.003
    1UNL    C24   29  -0.076   0.437  -0.085
    1UNL     O4   30  -0.103   0.318   0.117
    1UNL     H1   31   0.608  -0.065   0.174
    1UNL     H2   32   0.465   0.002   0.252
    1UNL     H3   33   0.508   0.051   0.092
    1UNL     H4   34   0.465  -0.234   0.054
    1UNL     H5   35   0.229  -0.355   0.108
    1UNL     H6   36   0.256  -0.310  -0.057
    1UNL     H7   37  -0.036  -0.294   0.175
    1UNL     H8   38   0.140  -0.168   0.292
    1UNL     H9   39   0.024  -0.039   0.283
    1UNL    H10   40   0.244   0.050   0.181
    1UNL    H11   41   0.350   0.254  -0.229
    1UNL    H12   42   0.401   0.097  -0.314
    1UNL    H13   43   0.284   0.197  -0.384
    1UNL    H14   44   0.141  -0.134  -0.166
    1UNL    H15   45  -0.132  -0.163  -0.150
    1UNL    H16   46  -0.074  -0.036  -0.230
    1UNL    H17   47  -0.276   0.242  -0.097
    1UNL    H18   48  -0.519   0.257  -0.111
    1UNL    H19   49  -0.650   0.073  -0.049
    1UNL    H20   50  -0.550  -0.138   0.046
    1UNL    H21   51  -0.211  -0.371   0.056
    1UNL    H22   52  -0.333  -0.321   0.174
    1UNL    H23   53  -0.383  -0.347   0.013
    1UNL    H24   54  -0.158  -0.069   0.198
    1UNL    H25   55   0.003   0.122   0.123
    1UNL    H26   56  -0.086   0.411  -0.193
    1UNL    H27   57   0.008   0.494  -0.077
    1UNL    H28   58  -0.159   0.503  -0.064
   0.00000   0.00000   0.00000   0.00000   0.00000   0.00000   0.00000   0.00000   0.00000
Generated with MDTraj, t= 20.0
 58
    1UNL     C1    1   0.494  -0.016   0.092
    1UNL     C2    2   0.415  -0.144   0.080
    1UNL     C3    3   0.283  -0.156   0.092
    1UNL     C4    4   0.209  -0.279   0.053
    1UNL     N1    5   0.075  -0.234   0.009
    1UNL     C5    6  -0.012  -0.202   0.131
    1UNL     C6    7   0.085  -0.113   0.220
    1UNL     C7    8   0.188  -0.040   0.131
    1UNL     C8    9   0.126   0.013  -0.006
    1UNL     C9   10   0.225   0.104  -0.081
    1UNL     O1   11   0.295   0.185  -0.022
    1UNL     O2   12   0.218   0.083  -0.216
    1UNL    C10   13   0.312   0.163  -0.270
    1UNL    C11   14   0.087  -0.117  -0.086
    1UNL    C12   15  -0.061  -0.099  -0.139
    1UNL    C13   16  -0.120  -0.020  -0.012
    1UNL    C14   17  -0.264   0.031  -0.041
    1UNL    C15   18  -0.315   0.142  -0.101
    1UNL    C16   19  -0.454   0.162  -0.114
    1UNL    C17   20  -0.534   0.064  -0.057
    1UNL    C18   21  -0.491  -0.053   0.002
    1UNL    C19   22  -0.352  -0.073   0.004
    1UNL     N2   23  -0.274  -0.166   0.085
    1UNL    C20   24  -0.304  -0.310   0.093
    1UNL    C21   25  -0.137  -0.115   0.106
    1UNL    C22   26  -0.009   0.092   0.017
    1UNL     O3   27  -0.012   0.211  -0.064
    1UNL    C23   28  -0.061   0.322   0.007
    1UNL    C24   29  -0.063   0.455  -0.063
    1UNL     O4   30  -0.100   0.319   0.119
    1UNL     H1   31   0.573  -0.024   0.163
    1UNL     H2   32   0.433   0.071   0.111
    1UNL     H3   33   0.542  -0.004  -0.008
    1UNL     H4   34   0.468  -0.223   0.053
    1UNL     H5   35   0.197  -0.369   0.123
    1UNL     H6   36   0.273  -0.323  -0.026
    1UNL     H7   37  -0.033  -0.298   0.182
    1UNL     H8   38   0.140  -0.175   0.292
    1UNL     H9   39   0.023  -0.041   0.280
    1UNL    H10   40   0.244   0.038   0.194
    1UNL    H11   41   0.300   0.271  -0.234
    1UNL    H12   42   0.417   0.131  -0.239
    1UNL    H13   43   0.311   0.157  -0.374
    1UNL    H14   44   0.162  -0.149  -0.159
    1UNL    H15   45  -0.121  -0.185  -0.164
    1UNL    H16   46  -0.050  -0.062  -0.241
    1UNL    H17   47  -0.247   0.223  -0.134
    1UNL    H18   48  -0.491   0.255  -0.150
    1UNL    H19   49  -0.640   0.085  -0.064
    1UNL    H20   50  -0.555  -0.128   0.049
    1UNL    H21   51  -0.264  -0.357   0.004
    1UNL    H22   52  -0.262  -0.348   0.180
    1UNL    H23   53  -0.412  -0.326   0.099
    1UNL    H24   54  -0.152  -0.040   0.186
    1UNL    H25   55  -0.017   0.117   0.125
    1UNL    H26   56  -0.149   0.451  -0.138
    1UNL    H27   57   0.031   0.465  -0.111
    1UNL    H28   58  -0.081   0.528   0.003
   0.00000   0.00000   0.00000   0.00000   0.00000   0.00000   0.00000   0.00000   0.00000
Generated with MDTraj, t= 21.0
 58
    1UNL     C1    1   0.491  -0.026   0.063
    1UNL     C2    2   0.417  -0.156   0.056
    1UNL     C3    3   0.286  -0.157   0.079
    1UNL     C4    4   0.204  -0.274   0.047
    1UNL     N1    5   0.066  -0.230   0.005
    1UNL     C5    6  -0.006  -0.184   0.141
    1UNL     C6    7   0.095  -0.089   0.220
    1UNL     C7    8   0.202  -0.034   0.121
    1UNL     C8    9   0.126   0.014  -0.001
    1UNL     C9   10   0.221   0.105  -0.082
    1UNL     O1   11   0.256   0.208  -0.027
    1UNL     O2   12   0.260   0.061  -0.201
    1UNL    C10   13   0.317   0.168  -0.267
    1UNL    C11   14   0.071  -0.113  -0.080
    1UNL    C12   15  -0.076  -0.091  -0.129
    1UNL    C13   16  -0.124  -0.008  -0.008
    1UNL    C14   17  -0.271   0.034  -0.035
    1UNL    C15   18  -0.314   0.141  -0.103
    1UNL    C16   19  -0.449   0.145  -0.131
    1UNL    C17   20  -0.532   0.040  -0.088
    1UNL    C18   21  -0.490  -0.063  -0.010
    1UNL    C19   22  -0.351  -0.075   0.008
    1UNL     N2   23  -0.272  -0.168   0.079
    1UNL    C20   24  -0.322  -0.301   0.110
    1UNL    C21   25  -0.139  -0.101   0.118
    1UNL    C22   26  -0.010   0.091   0.027
    1UNL     O3   27  -0.013   0.206  -0.056
    1UNL    C23   28  -0.056   0.312   0.018
    1UNL    C24   29  -0.037   0.454  -0.041
    1UNL     O4   30  -0.100   0.302   0.130
    1UNL     H1   31   0.492   0.018   0.156
    1UNL     H2   32   0.451   0.047  -0.011
    1UNL     H3   33   0.597  -0.048   0.036
    1UNL     H4   34   0.476  -0.247   0.020
    1UNL     H5   35   0.204  -0.356   0.126
    1UNL     H6   36   0.246  -0.333  -0.037
    1UNL     H7   37  -0.023  -0.262   0.217
    1UNL     H8   38   0.137  -0.142   0.307
    1UNL     H9   39   0.036   0.000   0.254
    1UNL    H10   40   0.267   0.035   0.185
    1UNL    H11   41   0.237   0.239  -0.301
    1UNL    H12   42   0.377   0.233  -0.197
    1UNL    H13   43   0.374   0.134  -0.348
    1UNL    H14   44   0.148  -0.138  -0.155
    1UNL    H15   45  -0.126  -0.188  -0.133
    1UNL    H16   46  -0.098  -0.043  -0.221
    1UNL    H17   47  -0.250   0.211  -0.147
    1UNL    H18   48  -0.487   0.230  -0.194
    1UNL    H19   49  -0.629   0.022  -0.139
    1UNL    H20   50  -0.549  -0.152   0.005
    1UNL    H21   51  -0.318  -0.353   0.016
    1UNL    H22   52  -0.266  -0.356   0.186
    1UNL    H23   53  -0.420  -0.295   0.143
    1UNL    H24   54  -0.179  -0.043   0.203
    1UNL    H25   55   0.013   0.117   0.134
    1UNL    H26   56  -0.134   0.500  -0.034
    1UNL    H27   57  -0.001   0.435  -0.140
    1UNL    H28   58   0.034   0.507   0.019
   0.00000   0.00000   0.00000   0.00000   0.00000   0.00000   0.00000   0.00000   0.00000
Generated with MDTraj, t= 22.0
 58
    1UNL     C1    1   0.490  -0.025   0.077
    1UNL     C2    2   0.411  -0.151   0.052
    1UNL     C3    3   0.283  -0.157   0.070
    1UNL     C4    4   0.202  -0.272   0.025
    1UNL     N1    5   0.063  -0.217  -0.007
    1UNL     C5    6  -0.005  -0.185   0.133
    1UNL     C6    7   0.092  -0.095   0.217
    1UNL     C7    8   0.199  -0.041   0.117
    1UNL     C8    9   0.122   0.022  -0.005
    1UNL     C9   10   0.223   0.099  -0.085
    1UNL     O1   11   0.276   0.197  -0.034
    1UNL     O2   12   0.248   0.045  -0.209
    1UNL    C10   13   0.344   0.128  -0.265
    1UNL    C11   14   0.068  -0.100  -0.096
    1UNL    C12   15  -0.075  -0.066  -0.132
    1UNL    C13   16  -0.126   0.002  -0.004
    1UNL    C14   17  -0.273   0.038  -0.025
    1UNL    C15   18  -0.322   0.138  -0.105
    1UNL    C16   19  -0.459   0.124  -0.143
    1UNL    C17   20  -0.534   0.013  -0.107
    1UNL    C18   21  -0.484  -0.086  -0.028
    1UNL    C19   22  -0.344  -0.077   0.001
    1UNL     N2   23  -0.266  -0.170   0.076
    1UNL    C20   24  -0.319  -0.287   0.154
    1UNL    C21   25  -0.136  -0.106   0.118
    1UNL    C22   26  -0.010   0.107   0.029
    1UNL     O3   27  -0.019   0.228  -0.036
    1UNL    C23   28  -0.063   0.330   0.042
    1UNL    C24   29  -0.040   0.456  -0.036
    1UNL     O4   30  -0.101   0.324   0.158
    1UNL     H1   31   0.449   0.068   0.106
    1UNL     H2   32   0.552   0.003  -0.011
    1UNL     H3   33   0.565  -0.050   0.152
    1UNL     H4   34   0.465  -0.234   0.008
    1UNL     H5   35   0.192  -0.364   0.089
    1UNL     H6   36   0.248  -0.320  -0.064
    1UNL     H7   37  -0.032  -0.273   0.192
    1UNL     H8   38   0.137  -0.154   0.298
    1UNL     H9   39   0.032  -0.014   0.262
    1UNL    H10   40   0.257   0.039   0.172
    1UNL    H11   41   0.302   0.227  -0.284
    1UNL    H12   42   0.421   0.151  -0.190
    1UNL    H13   43   0.378   0.084  -0.358
    1UNL    H14   44   0.139  -0.129  -0.174
    1UNL    H15   45  -0.126  -0.164  -0.136
    1UNL    H16   46  -0.086  -0.013  -0.222
    1UNL    H17   47  -0.259   0.223  -0.136
    1UNL    H18   48  -0.506   0.196  -0.201
    1UNL    H19   49  -0.630   0.008  -0.150
    1UNL    H20   50  -0.530  -0.182  -0.016
    1UNL    H21   51  -0.325  -0.369   0.086
    1UNL    H22   52  -0.250  -0.328   0.233
    1UNL    H23   53  -0.408  -0.273   0.201
    1UNL    H24   54  -0.171  -0.034   0.197
    1UNL    H25   55  -0.014   0.124   0.141
    1UNL    H26   56  -0.079   0.530   0.021
    1UNL    H27   57  -0.083   0.437  -0.131
    1UNL    H28   58   0.074   0.471  -0.046
   0.00000   0.00000   0.00000   0.00000   0.00000   0.00000   0.00000   0.00000   0.00000
Generated with MDTraj, t= 23.0
 58
    1UNL     C1    1   0.496  -0.024   0.106
    1UNL     C2    2   0.419  -0.148   0.069
    1UNL     C3    3   0.285  -0.153   0.075
    1UNL     C4    4   0.210  -0.269   0.024
    1UNL     N1    5   0.072  -0.222  -0.014
    1UNL     C5    6  -0.006  -0.187   0.114
    1UNL     C6    7   0.088  -0.109   0.203
    1UNL     C7    8   0.194  -0.040   0.114
    1UNL     C8    9   0.121   0.024  -0.010
    1UNL     C9   10   0.226   0.101  -0.087
    1UNL     O1   11   0.303   0.181  -0.034
    1UNL     O2   12   0.239   0.067  -0.221
    1UNL    C10   13   0.362   0.115  -0.265
    1UNL    C11   14   0.075  -0.103  -0.097
    1UNL    C12   15  -0.068  -0.069  -0.145
    1UNL    C13   16  -0.129  -0.001  -0.015
    1UNL    C14   17  -0.275   0.038  -0.026
    1UNL    C15   18  -0.337   0.139  -0.104
    1UNL    C16   19  -0.472   0.122  -0.137
    1UNL    C17   20  -0.547   0.008  -0.100
    1UNL    C18   21  -0.480  -0.090  -0.032
    1UNL    C19   22  -0.349  -0.079   0.006
    1UNL     N2   23  -0.270  -0.160   0.087
    1UNL    C20   24  -0.330  -0.266   0.174
    1UNL    C21   25  -0.129  -0.100   0.103
    1UNL    C22   26  -0.016   0.106   0.021
    1UNL     O3   27  -0.026   0.225  -0.048
    1UNL    C23   28  -0.063   0.327   0.038
    1UNL    C24   29  -0.070   0.462  -0.022
    1UNL     O4   30  -0.082   0.313   0.160
    1UNL     H1   31   0.538   0.038   0.023
    1UNL     H2   32   0.584  -0.059   0.161
    1UNL     H3   33   0.438   0.031   0.176
    1UNL     H4   34   0.476  -0.216   0.019
    1UNL     H5   35   0.204  -0.364   0.081
    1UNL     H6   36   0.264  -0.308  -0.066
    1UNL     H7   37  -0.032  -0.281   0.163
    1UNL     H8   38   0.134  -0.170   0.284
    1UNL     H9   39   0.039  -0.028   0.258
    1UNL    H10   40   0.242   0.053   0.157
    1UNL    H11   41   0.388   0.203  -0.210
    1UNL    H12   42   0.437   0.045  -0.236
    1UNL    H13   43   0.345   0.134  -0.373
    1UNL    H14   44   0.123  -0.127  -0.192
    1UNL    H15   45  -0.133  -0.156  -0.164
    1UNL    H16   46  -0.064  -0.006  -0.228
    1UNL    H17   47  -0.294   0.234  -0.119
    1UNL    H18   48  -0.531   0.217  -0.153
    1UNL    H19   49  -0.656  -0.002  -0.125
    1UNL    H20   50  -0.532  -0.182  -0.000
    1UNL    H21   51  -0.351  -0.353   0.118
    1UNL    H22   52  -0.267  -0.302   0.257
    1UNL    H23   53  -0.420  -0.232   0.218
    1UNL    H24   54  -0.145  -0.030   0.189
    1UNL    H25   55  -0.004   0.130   0.133
    1UNL    H26   56  -0.036   0.536   0.050
    1UNL    H27   57  -0.168   0.483  -0.053
    1UNL    H28   58  -0.002   0.475  -0.111
   0.00000   0.00000   0.00000   0.00000   0.00000   0.00000   0.00000   0.00000   0.00000
Generated with MDTraj, t= 24.0
 58
    1UNL     C1    1   0.504  -0.035   0.139
    1UNL     C2    2   0.420  -0.145   0.084
    1UNL     C3    3   0.287  -0.148   0.080
    1UNL     C4    4   0.210  -0.270   0.032
    1UNL     N1    5   0.076  -0.229  -0.009
    1UNL     C5    6  -0.009  -0.192   0.122
    1UNL     C6    7   0.078  -0.102   0.204
    1UNL     C7    8   0.193  -0.038   0.120
    1UNL     C8    9   0.127   0.016  -0.013
    1UNL     C9   10   0.227   0.098  -0.093
    1UNL     O1   11   0.308   0.171  -0.039
    1UNL     O2   12   0.234   0.083  -0.228
    1UNL    C10   13   0.330   0.172  -0.273
    1UNL    C11   14   0.082  -0.113  -0.093
    1UNL    C12   15  -0.058  -0.080  -0.148
    1UNL    C13   16  -0.124  -0.013  -0.023
    1UNL    C14   17  -0.268   0.029  -0.051
    1UNL    C15   18  -0.322   0.133  -0.125
    1UNL    C16   19  -0.459   0.145  -0.116
    1UNL    C17   20  -0.545   0.043  -0.068
    1UNL    C18   21  -0.485  -0.063  -0.005
    1UNL    C19   22  -0.349  -0.069   0.006
    1UNL     N2   23  -0.275  -0.170   0.077
    1UNL    C20   24  -0.327  -0.267   0.170
    1UNL    C21   25  -0.133  -0.114   0.093
    1UNL    C22   26  -0.004   0.089   0.011
    1UNL     O3   27  -0.028   0.214  -0.061
    1UNL    C23   28  -0.069   0.314   0.021
    1UNL    C24   29  -0.090   0.450  -0.025
    1UNL     O4   30  -0.085   0.295   0.142
    1UNL     H1   31   0.602  -0.004   0.089
    1UNL     H2   32   0.534  -0.064   0.236
    1UNL     H3   33   0.445   0.052   0.158
    1UNL     H4   34   0.489  -0.229   0.041
    1UNL     H5   35   0.206  -0.348   0.111
    1UNL     H6   36   0.254  -0.332  -0.051
    1UNL     H7   37  -0.035  -0.286   0.168
    1UNL     H8   38   0.134  -0.156   0.285
    1UNL     H9   39   0.026  -0.028   0.263
    1UNL    H10   40   0.253   0.039   0.173
    1UNL    H11   41   0.303   0.270  -0.237
    1UNL    H12   42   0.418   0.148  -0.221
    1UNL    H13   43   0.329   0.162  -0.387
    1UNL    H14   44   0.154  -0.122  -0.174
    1UNL    H15   45  -0.103  -0.180  -0.158
    1UNL    H16   46  -0.067  -0.011  -0.228
    1UNL    H17   47  -0.251   0.217  -0.139
    1UNL    H18   48  -0.501   0.237  -0.135
    1UNL    H19   49  -0.649   0.045  -0.074
    1UNL    H20   50  -0.549  -0.141   0.021
    1UNL    H21   51  -0.393  -0.331   0.118
    1UNL    H22   52  -0.253  -0.325   0.215
    1UNL    H23   53  -0.382  -0.207   0.245
    1UNL    H24   54  -0.144  -0.055   0.188
    1UNL    H25   55  -0.016   0.113   0.123
    1UNL    H26   56   0.006   0.513  -0.023
    1UNL    H27   57  -0.164   0.505   0.034
    1UNL    H28   58  -0.122   0.464  -0.123
   0.00000   0.00000   0.00000   0.00000   0.00000   0.00000   0.00000   0.00000   0.00000
Generated with MDTraj, t= 25.0
 58
    1UNL     C1    1   0.501  -0.033   0.138
    1UNL     C2    2   0.420  -0.154   0.113
    1UNL     C3    3   0.290  -0.158   0.090
    1UNL     C4    4   0.215  -0.284   0.037
    1UNL     N1    5   0.080  -0.239  -0.000
    1UNL     C5    6  -0.005  -0.204   0.123
    1UNL     C6    7   0.087  -0.113   0.216
    1UNL     C7    8   0.198  -0.046   0.127
    1UNL     C8    9   0.135   0.003  -0.011
    1UNL     C9   10   0.222   0.094  -0.092
    1UNL     O1   11   0.296   0.177  -0.044
    1UNL     O2   12   0.199   0.102  -0.228
    1UNL    C10   13   0.265   0.216  -0.274
    1UNL    C11   14   0.084  -0.116  -0.096
    1UNL    C12   15  -0.055  -0.084  -0.143
    1UNL    C13   16  -0.114  -0.015  -0.015
    1UNL    C14   17  -0.256   0.028  -0.045
    1UNL    C15   18  -0.304   0.142  -0.119
    1UNL    C16   19  -0.439   0.169  -0.112
    1UNL    C17   20  -0.521   0.081  -0.048
    1UNL    C18   21  -0.477  -0.045  -0.001
    1UNL    C19   22  -0.342  -0.069   0.001
    1UNL     N2   23  -0.270  -0.173   0.062
    1UNL    C20   24  -0.320  -0.281   0.153
    1UNL    C21   25  -0.135  -0.117   0.094
    1UNL    C22   26  -0.001   0.085   0.021
    1UNL     O3   27  -0.003   0.206  -0.058
    1UNL    C23   28  -0.070   0.303   0.011
    1UNL    C24   29  -0.080   0.432  -0.063
    1UNL     O4   30  -0.124   0.290   0.122
    1UNL     H1   31   0.592  -0.039   0.203
    1UNL     H2   32   0.443   0.034   0.192
    1UNL     H3   33   0.525   0.027   0.050
    1UNL     H4   34   0.479  -0.234   0.085
    1UNL     H5   35   0.202  -0.377   0.094
    1UNL     H6   36   0.274  -0.320  -0.052
    1UNL     H7   37  -0.034  -0.294   0.173
    1UNL     H8   38   0.131  -0.177   0.297
    1UNL     H9   39   0.039  -0.036   0.271
    1UNL    H10   40   0.235   0.046   0.175
    1UNL    H11   41   0.202   0.304  -0.260
    1UNL    H12   42   0.344   0.226  -0.210
    1UNL    H13   43   0.301   0.196  -0.382
    1UNL    H14   44   0.157  -0.142  -0.173
    1UNL    H15   45  -0.115  -0.174  -0.156
    1UNL    H16   46  -0.046  -0.011  -0.223
    1UNL    H17   47  -0.227   0.207  -0.159
    1UNL    H18   48  -0.485   0.259  -0.160
    1UNL    H19   49  -0.630   0.096  -0.071
    1UNL    H20   50  -0.555  -0.125   0.003
    1UNL    H21   51  -0.419  -0.313   0.126
    1UNL    H22   52  -0.255  -0.360   0.157
    1UNL    H23   53  -0.327  -0.228   0.250
    1UNL    H24   54  -0.141  -0.073   0.195
    1UNL    H25   55  -0.013   0.117   0.131
    1UNL    H26   56   0.014   0.451  -0.122
    1UNL    H27   57  -0.095   0.520   0.010
    1UNL    H28   58  -0.156   0.440  -0.133
   0.00000   0.00000   0.00000   0.00000   0.00000   0.00000   0.00000   0.00000   0.00000
Generated with MDTraj, t= 26.0
 58
    1UNL     C1    1   0.513  -0.046   0.136
    1UNL     C2    2   0.430  -0.159   0.094
    1UNL     C3    3   0.298  -0.158   0.095
    1UNL     C4    4   0.222  -0.275   0.034
    1UNL     N1    5   0.079  -0.234   0.005
    1UNL     C5    6  -0.001  -0.192   0.132
    1UNL     C6    7   0.096  -0.111   0.217
    1UNL     C7    8   0.203  -0.051   0.126
    1UNL     C8    9   0.135   0.007   0.000
    1UNL     C9   10   0.233   0.088  -0.088
    1UNL     O1   11   0.327   0.148  -0.042
    1UNL     O2   12   0.194   0.099  -0.215
    1UNL    C10   13   0.248   0.215  -0.265
    1UNL    C11   14   0.077  -0.115  -0.083
    1UNL    C12   15  -0.061  -0.080  -0.135
    1UNL    C13   16  -0.118  -0.004  -0.009
    1UNL    C14   17  -0.262   0.035  -0.038
    1UNL    C15   18  -0.319   0.141  -0.107
    1UNL    C16   19  -0.452   0.160  -0.119
    1UNL    C17   20  -0.532   0.065  -0.058
    1UNL    C18   21  -0.482  -0.057  -0.009
    1UNL    C19   22  -0.345  -0.076  -0.007
    1UNL     N2   23  -0.264  -0.167   0.064
    1UNL    C20   24  -0.323  -0.278   0.132
    1UNL    C21   25  -0.133  -0.117   0.102
    1UNL    C22   26  -0.003   0.096   0.022
    1UNL     O3   27  -0.008   0.214  -0.061
    1UNL    C23   28  -0.076   0.313   0.002
    1UNL    C24   29  -0.063   0.448  -0.062
    1UNL     O4   30  -0.143   0.293   0.100
    1UNL     H1   31   0.616  -0.076   0.158
    1UNL     H2   32   0.462  -0.013   0.226
    1UNL     H3   33   0.502   0.032   0.060
    1UNL     H4   34   0.483  -0.240   0.047
    1UNL     H5   35   0.220  -0.360   0.101
    1UNL     H6   36   0.262  -0.319  -0.061
    1UNL     H7   37  -0.032  -0.286   0.175
    1UNL     H8   38   0.148  -0.175   0.293
    1UNL     H9   39   0.041  -0.036   0.269
    1UNL    H10   40   0.248   0.033   0.178
    1UNL    H11   41   0.282   0.278  -0.182
    1UNL    H12   42   0.333   0.180  -0.313
    1UNL    H13   43   0.169   0.268  -0.337
    1UNL    H14   44   0.144  -0.134  -0.167
    1UNL    H15   45  -0.116  -0.168  -0.152
    1UNL    H16   46  -0.045  -0.013  -0.222
    1UNL    H17   47  -0.244   0.203  -0.151
    1UNL    H18   48  -0.487   0.251  -0.159
    1UNL    H19   49  -0.637   0.070  -0.065
    1UNL    H20   50  -0.553  -0.131   0.012
    1UNL    H21   51  -0.419  -0.300   0.088
    1UNL    H22   52  -0.254  -0.359   0.121
    1UNL    H23   53  -0.327  -0.247   0.234
    1UNL    H24   54  -0.145  -0.064   0.197
    1UNL    H25   55  -0.001   0.139   0.129
    1UNL    H26   56  -0.028   0.435  -0.163
    1UNL    H27   57   0.005   0.504   0.008
    1UNL    H28   58  -0.169   0.498  -0.059
   0.00000   0.00000   0.00000   0.00000   0.00000   0.00000   0.00000   0.00000   0.00000
Generated with MDTraj, t= 27.0
 58
    1UNL     C1    1   0.501  -0.051   0.120
    1UNL     C2    2   0.414  -0.167   0.090
    1UNL     C3    3   0.282  -0.168   0.082
    1UNL     C4    4   0.191  -0.282   0.048
    1UNL     N1    5   0.066  -0.225   0.006
    1UNL     C5    6  -0.010  -0.183   0.132
    1UNL     C6    7   0.091  -0.098   0.214
    1UNL     C7    8   0.201  -0.043   0.117
    1UNL     C8    9   0.133   0.017  -0.012
    1UNL     C9   10   0.232   0.101  -0.091
    1UNL     O1   11   0.345   0.119  -0.052
    1UNL     O2   12   0.195   0.147  -0.215
    1UNL    C10   13   0.313   0.189  -0.279
    1UNL    C11   14   0.083  -0.107  -0.090
    1UNL    C12   15  -0.065  -0.079  -0.128
    1UNL    C13   16  -0.117   0.005  -0.010
    1UNL    C14   17  -0.268   0.041  -0.027
    1UNL    C15   18  -0.329   0.137  -0.102
    1UNL    C16   19  -0.462   0.135  -0.126
    1UNL    C17   20  -0.534   0.020  -0.099
    1UNL    C18   21  -0.478  -0.080  -0.018
    1UNL    C19   22  -0.344  -0.074   0.007
    1UNL     N2   23  -0.262  -0.165   0.075
    1UNL    C20   24  -0.307  -0.287   0.145
    1UNL    C21   25  -0.136  -0.103   0.108
    1UNL    C22   26   0.006   0.104   0.022
    1UNL     O3   27  -0.011   0.221  -0.056
    1UNL    C23   28  -0.072   0.317   0.016
    1UNL    C24   29  -0.072   0.458  -0.046
    1UNL     O4   30  -0.129   0.307   0.120
    1UNL     H1   31   0.548  -0.004   0.039
    1UNL     H2   32   0.577  -0.082   0.195
    1UNL     H3   33   0.442   0.024   0.174
    1UNL     H4   34   0.472  -0.262   0.055
    1UNL     H5   35   0.182  -0.353   0.127
    1UNL     H6   36   0.226  -0.334  -0.045
    1UNL     H7   37  -0.038  -0.271   0.189
    1UNL     H8   38   0.126  -0.167   0.296
    1UNL     H9   39   0.043  -0.014   0.259
    1UNL    H10   40   0.265   0.030   0.164
    1UNL    H11   41   0.372   0.256  -0.213
    1UNL    H12   42   0.367   0.100  -0.294
    1UNL    H13   43   0.288   0.238  -0.384
    1UNL    H14   44   0.139  -0.133  -0.182
    1UNL    H15   45  -0.112  -0.170  -0.148
    1UNL    H16   46  -0.068  -0.015  -0.218
    1UNL    H17   47  -0.281   0.228  -0.135
    1UNL    H18   48  -0.517   0.227  -0.153
    1UNL    H19   49  -0.642   0.027  -0.114
    1UNL    H20   50  -0.526  -0.165   0.036
    1UNL    H21   51  -0.351  -0.353   0.072
    1UNL    H22   52  -0.218  -0.343   0.184
    1UNL    H23   53  -0.363  -0.263   0.227
    1UNL    H24   54  -0.161  -0.051   0.200
    1UNL    H25   55   0.001   0.142   0.131
    1UNL    H26   56  -0.118   0.456  -0.147
    1UNL    H27   57   0.033   0.492  -0.038
    1UNL    H28   58  -0.133   0.526   0.027
   0.00000   0.00000   0.00000   0.00000   0.00000   0.00000   0.00000   0.00000   0.00000
Generated with MDTraj, t= 28.0
 58
    1UNL     C1    1   0.518  -0.061   0.131
    1UNL     C2    2   0.422  -0.162   0.075
    1UNL     C3    3   0.291  -0.154   0.077
    1UNL     C4    4   0.205  -0.275   0.042
    1UNL     N1    5   0.069  -0.222   0.006
    1UNL     C5    6  -0.007  -0.183   0.128
    1UNL     C6    7   0.089  -0.093   0.214
    1UNL     C7    8   0.201  -0.035   0.119
    1UNL     C8    9   0.131   0.024  -0.006
    1UNL     C9   10   0.235   0.091  -0.094
    1UNL     O1   11   0.343   0.125  -0.054
    1UNL     O2   12   0.208   0.102  -0.225
    1UNL    C10   13   0.308   0.181  -0.288
    1UNL    C11   14   0.078  -0.102  -0.091
    1UNL    C12   15  -0.068  -0.073  -0.129
    1UNL    C13   16  -0.125   0.007  -0.015
    1UNL    C14   17  -0.274   0.043  -0.031
    1UNL    C15   18  -0.327   0.142  -0.106
    1UNL    C16   19  -0.462   0.128  -0.148
    1UNL    C17   20  -0.533   0.015  -0.107
    1UNL    C18   21  -0.486  -0.086  -0.032
    1UNL    C19   22  -0.346  -0.072   0.002
    1UNL     N2   23  -0.266  -0.165   0.080
    1UNL    C20   24  -0.325  -0.275   0.156
    1UNL    C21   25  -0.134  -0.100   0.107
    1UNL    C22   26  -0.004   0.100   0.026
    1UNL     O3   27  -0.011   0.223  -0.038
    1UNL    C23   28  -0.070   0.326   0.036
    1UNL    C24   29  -0.100   0.455  -0.040
    1UNL     O4   30  -0.103   0.313   0.150
    1UNL     H1   31   0.482   0.031   0.165
    1UNL     H2   32   0.602  -0.036   0.065
    1UNL     H3   33   0.566  -0.107   0.218
    1UNL     H4   34   0.454  -0.247   0.034
    1UNL     H5   35   0.182  -0.338   0.125
    1UNL     H6   36   0.258  -0.330  -0.038
    1UNL     H7   37  -0.030  -0.269   0.190
    1UNL     H8   38   0.131  -0.165   0.287
    1UNL     H9   39   0.033  -0.018   0.270
    1UNL    H10   40   0.264   0.038   0.166
    1UNL    H11   41   0.306   0.286  -0.245
    1UNL    H12   42   0.404   0.137  -0.273
    1UNL    H13   43   0.288   0.186  -0.401
    1UNL    H14   44   0.135  -0.116  -0.185
    1UNL    H15   45  -0.124  -0.160  -0.150
    1UNL    H16   46  -0.069  -0.019  -0.224
    1UNL    H17   47  -0.275   0.230  -0.140
    1UNL    H18   48  -0.513   0.210  -0.198
    1UNL    H19   49  -0.637   0.007  -0.141
    1UNL    H20   50  -0.542  -0.167   0.007
    1UNL    H21   51  -0.345  -0.358   0.089
    1UNL    H22   52  -0.246  -0.320   0.221
    1UNL    H23   53  -0.398  -0.247   0.223
    1UNL    H24   54  -0.166  -0.058   0.202
    1UNL    H25   55  -0.022   0.131   0.135
    1UNL    H26   56  -0.204   0.452  -0.094
    1UNL    H27   57  -0.015   0.480  -0.111
    1UNL    H28   58  -0.101   0.538   0.026
   0.00000   0.00000   0.00000   0.00000   0.00000   0.00000   0.00000   0.00000   0.00000
Generated with MDTraj, t= 29.0
 58
    1UNL     C1    1   0.496  -0.039   0.133
    1UNL     C2    2   0.415  -0.162   0.096
    1UNL     C3    3   0.286  -0.159   0.090
    1UNL     C4    4   0.210  -0.274   0.034
    1UNL     N1    5   0.072  -0.227  -0.003
    1UNL     C5    6   0.001  -0.193   0.128
    1UNL     C6    7   0.096  -0.106   0.217
    1UNL     C7    8   0.196  -0.039   0.116
    1UNL     C8    9   0.131   0.013  -0.012
    1UNL     C9   10   0.222   0.099  -0.091
    1UNL     O1   11   0.284   0.189  -0.042
    1UNL     O2   12   0.201   0.077  -0.222
    1UNL    C10   13   0.273   0.171  -0.292
    1UNL    C11   14   0.083  -0.113  -0.095
    1UNL    C12   15  -0.058  -0.085  -0.139
    1UNL    C13   16  -0.111  -0.005  -0.012
    1UNL    C14   17  -0.258   0.037  -0.046
    1UNL    C15   18  -0.299   0.140  -0.121
    1UNL    C16   19  -0.434   0.145  -0.149
    1UNL    C17   20  -0.524   0.048  -0.098
    1UNL    C18   21  -0.479  -0.058  -0.028
    1UNL    C19   22  -0.340  -0.073   0.003
    1UNL     N2   23  -0.261  -0.166   0.077
    1UNL    C20   24  -0.327  -0.256   0.169
    1UNL    C21   25  -0.124  -0.109   0.107
    1UNL    C22   26  -0.000   0.093   0.015
    1UNL     O3   27  -0.017   0.217  -0.048
    1UNL    C23   28  -0.069   0.310   0.039
    1UNL    C24   29  -0.089   0.439  -0.027
    1UNL     O4   30  -0.097   0.290   0.152
    1UNL     H1   31   0.530  -0.050   0.238
    1UNL     H2   32   0.432   0.047   0.125
    1UNL     H3   33   0.576  -0.039   0.062
    1UNL     H4   34   0.462  -0.260   0.060
    1UNL     H5   35   0.217  -0.341   0.116
    1UNL     H6   36   0.250  -0.314  -0.060
    1UNL     H7   37  -0.016  -0.286   0.179
    1UNL     H8   38   0.144  -0.165   0.297
    1UNL     H9   39   0.030  -0.030   0.262
    1UNL    H10   40   0.239   0.044   0.168
    1UNL    H11   41   0.241   0.272  -0.252
    1UNL    H12   42   0.380   0.152  -0.282
    1UNL    H13   43   0.248   0.169  -0.399
    1UNL    H14   44   0.152  -0.119  -0.183
    1UNL    H15   45  -0.120  -0.170  -0.166
    1UNL    H16   46  -0.049  -0.026  -0.228
    1UNL    H17   47  -0.228   0.216  -0.154
    1UNL    H18   48  -0.465   0.217  -0.222
    1UNL    H19   49  -0.620   0.045  -0.140
    1UNL    H20   50  -0.545  -0.146  -0.011
    1UNL    H21   51  -0.371  -0.337   0.116
    1UNL    H22   52  -0.261  -0.304   0.239
    1UNL    H23   53  -0.396  -0.201   0.232
    1UNL    H24   54  -0.155  -0.059   0.199
    1UNL    H25   55  -0.012   0.121   0.126
    1UNL    H26   56  -0.185   0.496  -0.003
    1UNL    H27   57  -0.088   0.423  -0.143
    1UNL    H28   58  -0.012   0.510  -0.019
   0.00000   0.00000   0.00000   0.00000   0.00000   0.00000   0.00000   0.00000   0.00000
Generated with MDTraj, t= 30.0
 58
    1UNL     C1    1   0.503  -0.018   0.118
    1UNL     C2    2   0.423  -0.143   0.100
    1UNL     C3    3   0.294  -0.149   0.083
    1UNL     C4    4   0.217  -0.272   0.038
    1UNL     N1    5   0.079  -0.234   0.007
    1UNL     C5    6   0.001  -0.192   0.130
    1UNL     C6    7   0.099  -0.097   0.210
    1UNL     C7    8   0.196  -0.033   0.118
    1UNL     C8    9   0.124   0.010  -0.011
    1UNL     C9   10   0.219   0.097  -0.088
    1UNL     O1   11   0.283   0.186  -0.034
    1UNL     O2   12   0.220   0.077  -0.225
    1UNL    C10   13   0.293   0.179  -0.282
    1UNL    C11   14   0.088  -0.119  -0.096
    1UNL    C12   15  -0.063  -0.105  -0.139
    1UNL    C13   16  -0.116  -0.012  -0.025
    1UNL    C14   17  -0.258   0.024  -0.064
    1UNL    C15   18  -0.301   0.136  -0.126
    1UNL    C16   19  -0.439   0.152  -0.129
    1UNL    C17   20  -0.529   0.059  -0.077
    1UNL    C18   21  -0.485  -0.055  -0.011
    1UNL    C19   22  -0.346  -0.074  -0.001
    1UNL     N2   23  -0.275  -0.166   0.070
    1UNL    C20   24  -0.355  -0.245   0.163
    1UNL    C21   25  -0.131  -0.113   0.098
    1UNL    C22   26  -0.013   0.086   0.019
    1UNL     O3   27  -0.017   0.207  -0.055
    1UNL    C23   28  -0.068   0.302   0.033
    1UNL    C24   29  -0.055   0.436  -0.017
    1UNL     O4   30  -0.117   0.277   0.140
    1UNL     H1   31   0.604  -0.040   0.163
    1UNL     H2   32   0.452   0.047   0.188
    1UNL     H3   33   0.516   0.022   0.023
    1UNL     H4   34   0.478  -0.235   0.076
    1UNL     H5   35   0.219  -0.339   0.120
    1UNL     H6   36   0.273  -0.307  -0.050
    1UNL     H7   37  -0.018  -0.279   0.190
    1UNL     H8   38   0.149  -0.150   0.290
    1UNL     H9   39   0.034  -0.016   0.252
    1UNL    H10   40   0.251   0.052   0.154
    1UNL    H11   41   0.215   0.259  -0.290
    1UNL    H12   42   0.386   0.204  -0.228
    1UNL    H13   43   0.322   0.163  -0.383
    1UNL    H14   44   0.163  -0.137  -0.177
    1UNL    H15   45  -0.116  -0.200  -0.156
    1UNL    H16   46  -0.054  -0.055  -0.230
    1UNL    H17   47  -0.225   0.204  -0.163
    1UNL    H18   48  -0.479   0.242  -0.176
    1UNL    H19   49  -0.637   0.088  -0.096
    1UNL    H20   50  -0.560  -0.128   0.006
    1UNL    H21   51  -0.443  -0.279   0.114
    1UNL    H22   52  -0.308  -0.327   0.202
    1UNL    H23   53  -0.380  -0.178   0.250
    1UNL    H24   54  -0.150  -0.060   0.194
    1UNL    H25   55  -0.027   0.110   0.129
    1UNL    H26   56  -0.082   0.520   0.047
    1UNL    H27   57  -0.119   0.448  -0.110
    1UNL    H28   58   0.047   0.462  -0.059
   0.00000   0.00000   0.00000   0.00000   0.00000   0.00000   0.00000   0.00000   0.00000
Generated with MDTraj, t= 31.0
 58
    1UNL     C1    1   0.486  -0.017   0.118
    1UNL     C2    2   0.415  -0.137   0.076
    1UNL     C3    3   0.287  -0.144   0.086
    1UNL     C4    4   0.208  -0.273   0.048
    1UNL     N1    5   0.070  -0.231   0.003
    1UNL     C5    6  -0.013  -0.194   0.124
    1UNL     C6    7   0.075  -0.106   0.216
    1UNL     C7    8   0.182  -0.042   0.124
    1UNL     C8    9   0.125   0.011  -0.011
    1UNL     C9   10   0.227   0.098  -0.087
    1UNL     O1   11   0.311   0.164  -0.029
    1UNL     O2   12   0.237   0.080  -0.218
    1UNL    C10   13   0.330   0.163  -0.271
    1UNL    C11   14   0.085  -0.114  -0.098
    1UNL    C12   15  -0.057  -0.092  -0.151
    1UNL    C13   16  -0.115  -0.007  -0.032
    1UNL    C14   17  -0.266   0.030  -0.052
    1UNL    C15   18  -0.326   0.141  -0.111
    1UNL    C16   19  -0.461   0.147  -0.121
    1UNL    C17   20  -0.541   0.045  -0.066
    1UNL    C18   21  -0.482  -0.068  -0.005
    1UNL    C19   22  -0.342  -0.072   0.001
    1UNL     N2   23  -0.268  -0.176   0.067
    1UNL    C20   24  -0.316  -0.274   0.167
    1UNL    C21   25  -0.137  -0.111   0.090
    1UNL    C22   26  -0.004   0.092   0.015
    1UNL     O3   27  -0.012   0.215  -0.051
    1UNL    C23   28  -0.068   0.315   0.017
    1UNL    C24   29  -0.050   0.456  -0.032
    1UNL     O4   30  -0.131   0.299   0.119
    1UNL     H1   31   0.560   0.016   0.045
    1UNL     H2   32   0.543  -0.034   0.208
    1UNL     H3   33   0.423   0.070   0.126
    1UNL     H4   34   0.461  -0.221   0.038
    1UNL     H5   35   0.194  -0.334   0.134
    1UNL     H6   36   0.270  -0.322  -0.025
    1UNL     H7   37  -0.047  -0.291   0.159
    1UNL     H8   38   0.123  -0.171   0.288
    1UNL     H9   39   0.018  -0.033   0.282
    1UNL    H10   40   0.236   0.039   0.168
    1UNL    H11   41   0.294   0.264  -0.243
    1UNL    H12   42   0.437   0.139  -0.252
    1UNL    H13   43   0.318   0.168  -0.372
    1UNL    H14   44   0.173  -0.114  -0.168
    1UNL    H15   45  -0.107  -0.193  -0.155
    1UNL    H16   46  -0.050  -0.041  -0.241
    1UNL    H17   47  -0.264   0.219  -0.148
    1UNL    H18   48  -0.495   0.245  -0.143
    1UNL    H19   49  -0.641   0.063  -0.056
    1UNL    H20   50  -0.553  -0.135   0.043
    1UNL    H21   51  -0.401  -0.325   0.129
    1UNL    H22   52  -0.242  -0.341   0.197
    1UNL    H23   53  -0.339  -0.211   0.257
    1UNL    H24   54  -0.149  -0.049   0.184
    1UNL    H25   55  -0.020   0.115   0.123
    1UNL    H26   56  -0.001   0.523   0.040
    1UNL    H27   57  -0.147   0.493  -0.056
    1UNL    H28   58   0.010   0.465  -0.136
   0.00000   0.00000   0.00000   0.00000   0.00000   0.00000   0.00000   0.00000   0.00000
Generated with MDTraj, t= 32.0
 58
    1UNL     C1    1   0.517  -0.046   0.123
    1UNL     C2    2   0.417  -0.146   0.078
    1UNL     C3    3   0.287  -0.156   0.091
    1UNL     C4    4   0.204  -0.276   0.033
    1UNL     N1    5   0.069  -0.226  -0.010
    1UNL     C5    6  -0.006  -0.199   0.122
    1UNL     C6    7   0.088  -0.116   0.215
    1UNL     C7    8   0.191  -0.038   0.128
    1UNL     C8    9   0.126   0.021  -0.006
    1UNL     C9   10   0.231   0.109  -0.076
    1UNL     O1   11   0.316   0.183  -0.025
    1UNL     O2   12   0.236   0.092  -0.214
    1UNL    C10   13   0.353   0.142  -0.271
    1UNL    C11   14   0.078  -0.101  -0.093
    1UNL    C12   15  -0.066  -0.072  -0.136
    1UNL    C13   16  -0.123   0.002  -0.008
    1UNL    C14   17  -0.268   0.037  -0.023
    1UNL    C15   18  -0.334   0.150  -0.077
    1UNL    C16   19  -0.467   0.149  -0.110
    1UNL    C17   20  -0.543   0.036  -0.088
    1UNL    C18   21  -0.488  -0.077  -0.021
    1UNL    C19   22  -0.351  -0.075   0.007
    1UNL     N2   23  -0.268  -0.174   0.070
    1UNL    C20   24  -0.314  -0.295   0.146
    1UNL    C21   25  -0.137  -0.112   0.099
    1UNL    C22   26  -0.009   0.108   0.027
    1UNL     O3   27  -0.015   0.213  -0.060
    1UNL    C23   28  -0.076   0.317   0.001
    1UNL    C24   29  -0.072   0.445  -0.078
    1UNL     O4   30  -0.128   0.318   0.114
    1UNL     H1   31   0.580  -0.020   0.040
    1UNL     H2   32   0.577  -0.087   0.203
    1UNL     H3   33   0.458   0.048   0.150
    1UNL     H4   34   0.466  -0.241   0.028
    1UNL     H5   35   0.203  -0.342   0.118
    1UNL     H6   36   0.239  -0.325  -0.056
    1UNL     H7   37  -0.030  -0.293   0.172
    1UNL     H8   38   0.127  -0.181   0.293
    1UNL     H9   39   0.036  -0.044   0.284
    1UNL    H10   40   0.231   0.050   0.176
    1UNL    H11   41   0.366   0.245  -0.235
    1UNL    H12   42   0.440   0.076  -0.256
    1UNL    H13   43   0.342   0.156  -0.369
    1UNL    H14   44   0.131  -0.117  -0.189
    1UNL    H15   45  -0.128  -0.164  -0.148
    1UNL    H16   46  -0.070   0.001  -0.213
    1UNL    H17   47  -0.273   0.240  -0.088
    1UNL    H18   48  -0.518   0.236  -0.155
    1UNL    H19   49  -0.656   0.036  -0.102
    1UNL    H20   50  -0.551  -0.159   0.013
    1UNL    H21   51  -0.368  -0.357   0.079
    1UNL    H22   52  -0.226  -0.345   0.191
    1UNL    H23   53  -0.369  -0.255   0.226
    1UNL    H24   54  -0.148  -0.068   0.203
    1UNL    H25   55  -0.003   0.153   0.129
    1UNL    H26   56   0.030   0.493  -0.065
    1UNL    H27   57  -0.154   0.499  -0.035
    1UNL    H28   58  -0.100   0.423  -0.183
   0.00000   0.00000   0.00000   0.00000   0.00000   0.00000   0.00000   0.00000   0.00000
Generated with MDTraj, t= 33.0
 58
    1UNL     C1    1   0.508  -0.053   0.124
    1UNL     C2    2   0.424  -0.170   0.077
    1UNL     C3    3   0.293  -0.159   0.071
    1UNL     C4    4   0.203  -0.270   0.018
    1UNL     N1    5   0.059  -0.229   0.002
    1UNL     C5    6  -0.006  -0.190   0.132
    1UNL     C6    7   0.092  -0.115   0.218
    1UNL     C7    8   0.196  -0.049   0.122
    1UNL     C8    9   0.123   0.015  -0.000
    1UNL     C9   10   0.236   0.096  -0.076
    1UNL     O1   11   0.302   0.182  -0.020
    1UNL     O2   12   0.250   0.072  -0.209
    1UNL    C10   13   0.332   0.170  -0.265
    1UNL    C11   14   0.067  -0.107  -0.086
    1UNL    C12   15  -0.070  -0.067  -0.121
    1UNL    C13   16  -0.126   0.005   0.007
    1UNL    C14   17  -0.264   0.042  -0.023
    1UNL    C15   18  -0.328   0.151  -0.079
    1UNL    C16   19  -0.464   0.144  -0.105
    1UNL    C17   20  -0.542   0.031  -0.075
    1UNL    C18   21  -0.482  -0.083  -0.024
    1UNL    C19   22  -0.348  -0.073   0.000
    1UNL     N2   23  -0.259  -0.166   0.069
    1UNL    C20   24  -0.309  -0.293   0.117
    1UNL    C21   25  -0.136  -0.107   0.116
    1UNL    C22   26  -0.002   0.111   0.029
    1UNL     O3   27  -0.012   0.223  -0.059
    1UNL    C23   28  -0.075   0.324  -0.005
    1UNL    C24   29  -0.095   0.442  -0.097
    1UNL     O4   30  -0.116   0.331   0.110
    1UNL     H1   31   0.603  -0.073   0.166
    1UNL     H2   32   0.450   0.002   0.198
    1UNL     H3   33   0.528   0.010   0.033
    1UNL     H4   34   0.473  -0.252   0.042
    1UNL     H5   35   0.194  -0.355   0.085
    1UNL     H6   36   0.243  -0.299  -0.076
    1UNL     H7   37  -0.033  -0.284   0.180
    1UNL     H8   38   0.149  -0.178   0.285
    1UNL     H9   39   0.030  -0.055   0.291
    1UNL    H10   40   0.256   0.022   0.175
    1UNL    H11   41   0.286   0.271  -0.258
    1UNL    H12   42   0.429   0.174  -0.213
    1UNL    H13   43   0.354   0.152  -0.362
    1UNL    H14   44   0.129  -0.111  -0.177
    1UNL    H15   45  -0.129  -0.158  -0.127
    1UNL    H16   46  -0.081   0.002  -0.203
    1UNL    H17   47  -0.265   0.232  -0.113
    1UNL    H18   48  -0.510   0.208  -0.177
    1UNL    H19   49  -0.638   0.025  -0.119
    1UNL    H20   50  -0.534  -0.174  -0.006
    1UNL    H21   51  -0.282  -0.366   0.041
    1UNL    H22   52  -0.258  -0.316   0.215
    1UNL    H23   53  -0.407  -0.285   0.141
    1UNL    H24   54  -0.158  -0.061   0.216
    1UNL    H25   55  -0.006   0.152   0.129
    1UNL    H26   56   0.008   0.464  -0.139
    1UNL    H27   57  -0.139   0.524  -0.033
    1UNL    H28   58  -0.166   0.416  -0.164
   0.00000   0.00000   0.00000   0.00000   0.00000   0.00000   0.00000   0.00000   0.00000
Generated with MDTraj, t= 34.0
 58
    1UNL     C1    1   0.499  -0.038   0.118
    1UNL     C2    2   0.415  -0.163   0.087
    1UNL     C3    3   0.284  -0.161   0.076
    1UNL     C4    4   0.196  -0.276   0.024
    1UNL     N1    5   0.064  -0.228   0.001
    1UNL     C5    6  -0.003  -0.185   0.137
    1UNL     C6    7   0.094  -0.101   0.225
    1UNL     C7    8   0.199  -0.042   0.121
    1UNL     C8    9   0.123   0.014  -0.005
    1UNL     C9   10   0.221   0.105  -0.078
    1UNL     O1   11   0.288   0.187  -0.018
    1UNL     O2   12   0.231   0.085  -0.212
    1UNL    C10   13   0.319   0.173  -0.266
    1UNL    C11   14   0.076  -0.108  -0.090
    1UNL    C12   15  -0.063  -0.079  -0.129
    1UNL    C13   16  -0.122   0.000  -0.010
    1UNL    C14   17  -0.266   0.030  -0.046
    1UNL    C15   18  -0.322   0.140  -0.111
    1UNL    C16   19  -0.460   0.149  -0.114
    1UNL    C17   20  -0.538   0.047  -0.057
    1UNL    C18   21  -0.479  -0.068  -0.004
    1UNL    C19   22  -0.342  -0.074   0.005
    1UNL     N2   23  -0.260  -0.171   0.074
    1UNL    C20   24  -0.308  -0.303   0.117
    1UNL    C21   25  -0.135  -0.096   0.107
    1UNL    C22   26  -0.009   0.095   0.022
    1UNL     O3   27  -0.009   0.210  -0.063
    1UNL    C23   28  -0.067   0.316   0.002
    1UNL    C24   29  -0.058   0.450  -0.066
    1UNL     O4   30  -0.116   0.303   0.113
    1UNL     H1   31   0.459   0.036   0.190
    1UNL     H2   32   0.503   0.027   0.028
    1UNL     H3   33   0.600  -0.056   0.150
    1UNL     H4   34   0.474  -0.251   0.063
    1UNL     H5   35   0.185  -0.354   0.099
    1UNL     H6   36   0.244  -0.312  -0.065
    1UNL     H7   37  -0.030  -0.281   0.181
    1UNL     H8   38   0.138  -0.176   0.291
    1UNL     H9   39   0.045  -0.022   0.286
    1UNL    H10   40   0.264   0.037   0.158
    1UNL    H11   41   0.289   0.281  -0.256
    1UNL    H12   42   0.413   0.163  -0.207
    1UNL    H13   43   0.342   0.136  -0.363
    1UNL    H14   44   0.140  -0.141  -0.173
    1UNL    H15   45  -0.113  -0.171  -0.136
    1UNL    H16   46  -0.068  -0.011  -0.215
    1UNL    H17   47  -0.274   0.218  -0.164
    1UNL    H18   48  -0.503   0.230  -0.174
    1UNL    H19   49  -0.646   0.046  -0.063
    1UNL    H20   50  -0.534  -0.148   0.049
    1UNL    H21   51  -0.244  -0.380   0.075
    1UNL    H22   52  -0.314  -0.317   0.225
    1UNL    H23   53  -0.408  -0.323   0.089
    1UNL    H24   54  -0.164  -0.033   0.195
    1UNL    H25   55  -0.003   0.126   0.125
    1UNL    H26   56   0.029   0.445  -0.127
    1UNL    H27   57  -0.050   0.537   0.006
    1UNL    H28   58  -0.145   0.469  -0.126
   0.00000   0.00000   0.00000   0.00000   0.00000   0.00000   0.00000   0.00000   0.00000
Generated with MDTraj, t= 35.0
 58
    1UNL     C1    1   0.505  -0.016   0.114
    1UNL     C2    2   0.424  -0.140   0.090
    1UNL     C3    3   0.292  -0.144   0.100
    1UNL     C4    4   0.218  -0.267   0.053
    1UNL     N1    5   0.077  -0.226   0.005
    1UNL     C5    6  -0.002  -0.191   0.128
    1UNL     C6    7   0.084  -0.096   0.218
    1UNL     C7    8   0.191  -0.030   0.124
    1UNL     C8    9   0.125   0.012  -0.016
    1UNL     C9   10   0.228   0.096  -0.089
    1UNL     O1   11   0.309   0.165  -0.029
    1UNL     O2   12   0.229   0.077  -0.226
    1UNL    C10   13   0.307   0.176  -0.287
    1UNL    C11   14   0.082  -0.114  -0.098
    1UNL    C12   15  -0.062  -0.087  -0.143
    1UNL    C13   16  -0.124  -0.018  -0.022
    1UNL    C14   17  -0.269   0.028  -0.049
    1UNL    C15   18  -0.316   0.143  -0.103
    1UNL    C16   19  -0.457   0.158  -0.117
    1UNL    C17   20  -0.540   0.054  -0.073
    1UNL    C18   21  -0.494  -0.059  -0.008
    1UNL    C19   22  -0.352  -0.073   0.007
    1UNL     N2   23  -0.278  -0.175   0.076
    1UNL    C20   24  -0.331  -0.295   0.131
    1UNL    C21   25  -0.134  -0.125   0.092
    1UNL    C22   26  -0.013   0.086   0.012
    1UNL     O3   27  -0.019   0.209  -0.062
    1UNL    C23   28  -0.069   0.311   0.020
    1UNL    C24   29  -0.036   0.447  -0.024
    1UNL     O4   30  -0.125   0.299   0.126
    1UNL     H1   31   0.445   0.075   0.072
    1UNL     H2   32   0.591  -0.014   0.047
    1UNL     H3   33   0.528  -0.004   0.217
    1UNL     H4   34   0.489  -0.228   0.055
    1UNL     H5   35   0.221  -0.330   0.144
    1UNL     H6   36   0.260  -0.317  -0.031
    1UNL     H7   37  -0.016  -0.282   0.187
    1UNL     H8   38   0.142  -0.151   0.294
    1UNL     H9   39   0.016  -0.028   0.269
    1UNL    H10   40   0.239   0.055   0.174
    1UNL    H11   41   0.305   0.269  -0.225
    1UNL    H12   42   0.412   0.136  -0.271
    1UNL    H13   43   0.297   0.181  -0.397
    1UNL    H14   44   0.157  -0.148  -0.170
    1UNL    H15   45  -0.105  -0.181  -0.153
    1UNL    H16   46  -0.071  -0.025  -0.235
    1UNL    H17   47  -0.242   0.216  -0.138
    1UNL    H18   48  -0.507   0.249  -0.147
    1UNL    H19   49  -0.647   0.081  -0.045
    1UNL    H20   50  -0.551  -0.121   0.054
    1UNL    H21   51  -0.256  -0.369   0.143
    1UNL    H22   52  -0.382  -0.281   0.221
    1UNL    H23   53  -0.409  -0.337   0.063
    1UNL    H24   54  -0.153  -0.042   0.164
    1UNL    H25   55  -0.014   0.107   0.115
    1UNL    H26   56   0.013   0.443  -0.114
    1UNL    H27   57   0.030   0.502   0.039
    1UNL    H28   58  -0.127   0.513  -0.043
   0.00000   0.00000   0.00000   0.00000   0.00000   0.00000   0.00000   0.00000   0.00000
Generated with MDTraj, t= 36.0
 58
    1UNL     C1    1   0.491  -0.012   0.137
    1UNL     C2    2   0.418  -0.135   0.087
    1UNL     C3    3   0.286  -0.149   0.092
    1UNL     C4    4   0.214  -0.278   0.054
    1UNL     N1    5   0.077  -0.236   0.002
    1UNL     C5    6  -0.004  -0.199   0.118
    1UNL     C6    7   0.079  -0.105   0.213
    1UNL     C7    8   0.187  -0.037   0.122
    1UNL     C8    9   0.125   0.009  -0.013
    1UNL     C9   10   0.216   0.093  -0.101
    1UNL     O1   11   0.296   0.161  -0.043
    1UNL     O2   12   0.197   0.084  -0.233
    1UNL    C10   13   0.291   0.155  -0.303
    1UNL    C11   14   0.088  -0.124  -0.090
    1UNL    C12   15  -0.049  -0.087  -0.147
    1UNL    C13   16  -0.116  -0.012  -0.026
    1UNL    C14   17  -0.261   0.031  -0.043
    1UNL    C15   18  -0.312   0.150  -0.085
    1UNL    C16   19  -0.451   0.156  -0.117
    1UNL    C17   20  -0.530   0.042  -0.090
    1UNL    C18   21  -0.479  -0.074  -0.040
    1UNL    C19   22  -0.346  -0.079  -0.002
    1UNL     N2   23  -0.262  -0.173   0.060
    1UNL    C20   24  -0.316  -0.258   0.162
    1UNL    C21   25  -0.129  -0.108   0.088
    1UNL    C22   26  -0.010   0.097   0.027
    1UNL     O3   27  -0.005   0.222  -0.040
    1UNL    C23   28  -0.063   0.318   0.034
    1UNL    C24   29  -0.060   0.452  -0.025
    1UNL     O4   30  -0.108   0.297   0.142
    1UNL     H1   31   0.540   0.039   0.049
    1UNL     H2   32   0.576  -0.037   0.200
    1UNL     H3   33   0.423   0.056   0.189
    1UNL     H4   34   0.475  -0.205   0.045
    1UNL     H5   35   0.185  -0.347   0.137
    1UNL     H6   36   0.272  -0.329  -0.020
    1UNL     H7   37  -0.031  -0.296   0.164
    1UNL     H8   38   0.127  -0.162   0.296
    1UNL     H9   39   0.017  -0.035   0.266
    1UNL    H10   40   0.222   0.054   0.172
    1UNL    H11   41   0.289   0.260  -0.267
    1UNL    H12   42   0.389   0.116  -0.265
    1UNL    H13   43   0.289   0.132  -0.413
    1UNL    H14   44   0.167  -0.139  -0.162
    1UNL    H15   45  -0.109  -0.170  -0.169
    1UNL    H16   46  -0.045  -0.031  -0.242
    1UNL    H17   47  -0.248   0.229  -0.118
    1UNL    H18   48  -0.492   0.247  -0.158
    1UNL    H19   49  -0.630   0.059  -0.095
    1UNL    H20   50  -0.539  -0.161  -0.006
    1UNL    H21   51  -0.243  -0.309   0.218
    1UNL    H22   52  -0.378  -0.202   0.224
    1UNL    H23   53  -0.387  -0.337   0.119
    1UNL    H24   54  -0.161  -0.045   0.170
    1UNL    H25   55   0.005   0.122   0.129
    1UNL    H26   56  -0.078   0.460  -0.130
    1UNL    H27   57   0.026   0.504  -0.010
    1UNL    H28   58  -0.144   0.512   0.025
   0.00000   0.00000   0.00000   0.00000   0.00000   0.00000   0.00000   0.00000   0.00000
Generated with MDTraj, t= 37.0
 58
    1UNL     C1    1   0.509  -0.053   0.145
    1UNL     C2    2   0.423  -0.160   0.091
    1UNL     C3    3   0.293  -0.151   0.078
    1UNL     C4    4   0.214  -0.267   0.032
    1UNL     N1    5   0.076  -0.223  -0.001
    1UNL     C5    6   0.001  -0.189   0.133
    1UNL     C6    7   0.094  -0.089   0.216
    1UNL     C7    8   0.199  -0.039   0.119
    1UNL     C8    9   0.126   0.022  -0.012
    1UNL     C9   10   0.228   0.094  -0.094
    1UNL     O1   11   0.317   0.158  -0.039
    1UNL     O2   12   0.207   0.090  -0.233
    1UNL    C10   13   0.290   0.173  -0.302
    1UNL    C11   14   0.084  -0.108  -0.091
    1UNL    C12   15  -0.062  -0.070  -0.130
    1UNL    C13   16  -0.119  -0.003  -0.007
    1UNL    C14   17  -0.265   0.031  -0.047
    1UNL    C15   18  -0.316   0.136  -0.119
    1UNL    C16   19  -0.456   0.137  -0.141
    1UNL    C17   20  -0.533   0.025  -0.098
    1UNL    C18   21  -0.480  -0.076  -0.025
    1UNL    C19   22  -0.344  -0.068   0.005
    1UNL     N2   23  -0.274  -0.173   0.070
    1UNL    C20   24  -0.349  -0.262   0.160
    1UNL    C21   25  -0.136  -0.111   0.107
    1UNL    C22   26   0.002   0.104   0.028
    1UNL     O3   27  -0.021   0.219  -0.052
    1UNL    C23   28  -0.068   0.314   0.037
    1UNL    C24   29  -0.091   0.451  -0.032
    1UNL     O4   30  -0.084   0.299   0.156
    1UNL     H1   31   0.507   0.034   0.082
    1UNL     H2   32   0.618  -0.073   0.144
    1UNL     H3   33   0.485  -0.018   0.251
    1UNL     H4   34   0.474  -0.255   0.056
    1UNL     H5   35   0.206  -0.346   0.110
    1UNL     H6   36   0.252  -0.311  -0.059
    1UNL     H7   37  -0.018  -0.278   0.195
    1UNL     H8   38   0.147  -0.153   0.290
    1UNL     H9   39   0.052  -0.012   0.278
    1UNL    H10   40   0.262   0.037   0.166
    1UNL    H11   41   0.269   0.273  -0.267
    1UNL    H12   42   0.393   0.147  -0.272
    1UNL    H13   43   0.265   0.164  -0.415
    1UNL    H14   44   0.150  -0.137  -0.171
    1UNL    H15   45  -0.117  -0.160  -0.155
    1UNL    H16   46  -0.087  -0.020  -0.225
    1UNL    H17   47  -0.254   0.211  -0.168
    1UNL    H18   48  -0.488   0.199  -0.223
    1UNL    H19   49  -0.641   0.008  -0.137
    1UNL    H20   50  -0.542  -0.155   0.006
    1UNL    H21   51  -0.289  -0.319   0.226
    1UNL    H22   52  -0.420  -0.201   0.211
    1UNL    H23   53  -0.411  -0.331   0.099
    1UNL    H24   54  -0.158  -0.048   0.193
    1UNL    H25   55   0.003   0.128   0.130
    1UNL    H26   56  -0.150   0.450  -0.126
    1UNL    H27   57   0.002   0.497  -0.053
    1UNL    H28   58  -0.144   0.503   0.039
   0.00000   0.00000   0.00000   0.00000   0.00000   0.00000   0.00000   0.00000   0.00000
Generated with MDTraj, t= 38.0
 58
    1UNL     C1    1   0.502  -0.060   0.126
    1UNL     C2    2   0.416  -0.177   0.107
    1UNL     C3    3   0.284  -0.168   0.082
    1UNL     C4    4   0.199  -0.278   0.026
    1UNL     N1    5   0.058  -0.227   0.001
    1UNL     C5    6   0.001  -0.182   0.139
    1UNL     C6    7   0.102  -0.093   0.220
    1UNL     C7    8   0.200  -0.043   0.117
    1UNL     C8    9   0.125   0.017  -0.013
    1UNL     C9   10   0.224   0.101  -0.090
    1UNL     O1   11   0.315   0.150  -0.028
    1UNL     O2   12   0.214   0.111  -0.221
    1UNL    C10   13   0.303   0.202  -0.283
    1UNL    C11   14   0.067  -0.111  -0.095
    1UNL    C12   15  -0.076  -0.073  -0.134
    1UNL    C13   16  -0.120  -0.002  -0.010
    1UNL    C14   17  -0.264   0.041  -0.039
    1UNL    C15   18  -0.315   0.127  -0.135
    1UNL    C16   19  -0.450   0.121  -0.165
    1UNL    C17   20  -0.531   0.030  -0.099
    1UNL    C18   21  -0.474  -0.071  -0.017
    1UNL    C19   22  -0.341  -0.062   0.018
    1UNL     N2   23  -0.265  -0.150   0.098
    1UNL    C20   24  -0.300  -0.284   0.156
    1UNL    C21   25  -0.130  -0.093   0.117
    1UNL    C22   26  -0.006   0.102   0.016
    1UNL     O3   27  -0.027   0.216  -0.057
    1UNL    C23   28  -0.071   0.313   0.022
    1UNL    C24   29  -0.091   0.449  -0.039
    1UNL     O4   30  -0.092   0.304   0.139
    1UNL     H1   31   0.445   0.024   0.151
    1UNL     H2   32   0.541  -0.035   0.023
    1UNL     H3   33   0.587  -0.077   0.201
    1UNL     H4   34   0.476  -0.263   0.070
    1UNL     H5   35   0.198  -0.370   0.089
    1UNL     H6   36   0.238  -0.311  -0.069
    1UNL     H7   37  -0.036  -0.275   0.185
    1UNL     H8   38   0.156  -0.144   0.302
    1UNL     H9   39   0.048  -0.013   0.265
    1UNL    H10   40   0.265   0.038   0.152
    1UNL    H11   41   0.294   0.294  -0.232
    1UNL    H12   42   0.405   0.167  -0.274
    1UNL    H13   43   0.258   0.226  -0.390
    1UNL    H14   44   0.124  -0.143  -0.181
    1UNL    H15   45  -0.144  -0.158  -0.150
    1UNL    H16   46  -0.100  -0.023  -0.227
    1UNL    H17   47  -0.242   0.184  -0.186
    1UNL    H18   48  -0.492   0.158  -0.259
    1UNL    H19   49  -0.631   0.025  -0.120
    1UNL    H20   50  -0.537  -0.145   0.036
    1UNL    H21   51  -0.219  -0.355   0.145
    1UNL    H22   52  -0.334  -0.269   0.259
    1UNL    H23   53  -0.384  -0.312   0.101
    1UNL    H24   54  -0.139  -0.028   0.203
    1UNL    H25   55   0.006   0.130   0.117
    1UNL    H26   56  -0.160   0.443  -0.123
    1UNL    H27   57   0.009   0.480  -0.071
    1UNL    H28   58  -0.131   0.500   0.039
   0.00000   0.00000   0.00000   0.00000   0.00000   0.00000   0.00000   0.00000   0.00000
Generated with MDTraj, t= 39.0
 58
    1UNL     C1    1   0.513  -0.049   0.109
    1UNL     C2    2   0.425  -0.158   0.067
    1UNL     C3    3   0.293  -0.163   0.090
    1UNL     C4    4   0.206  -0.279   0.044
    1UNL     N1    5   0.067  -0.232   0.016
    1UNL     C5    6  -0.010  -0.183   0.141
    1UNL     C6    7   0.092  -0.106   0.225
    1UNL     C7    8   0.201  -0.047   0.127
    1UNL     C8    9   0.136   0.011  -0.001
    1UNL     C9   10   0.228   0.096  -0.080
    1UNL     O1   11   0.324   0.145  -0.027
    1UNL     O2   12   0.200   0.114  -0.214
    1UNL    C10   13   0.296   0.198  -0.285
    1UNL    C11   14   0.079  -0.118  -0.085
    1UNL    C12   15  -0.053  -0.077  -0.126
    1UNL    C13   16  -0.113  -0.003  -0.003
    1UNL    C14   17  -0.261   0.035  -0.039
    1UNL    C15   18  -0.323   0.136  -0.117
    1UNL    C16   19  -0.463   0.136  -0.136
    1UNL    C17   20  -0.547   0.033  -0.089
    1UNL    C18   21  -0.484  -0.074  -0.029
    1UNL    C19   22  -0.352  -0.070   0.002
    1UNL     N2   23  -0.266  -0.158   0.074
    1UNL    C20   24  -0.315  -0.284   0.132
    1UNL    C21   25  -0.140  -0.095   0.117
    1UNL    C22   26   0.002   0.101   0.034
    1UNL     O3   27   0.001   0.213  -0.043
    1UNL    C23   28  -0.072   0.317   0.013
    1UNL    C24   29  -0.070   0.447  -0.070
    1UNL     O4   30  -0.135   0.313   0.115
    1UNL     H1   31   0.558  -0.064   0.207
    1UNL     H2   32   0.454   0.046   0.110
    1UNL     H3   33   0.597  -0.036   0.036
    1UNL     H4   34   0.470  -0.222   0.003
    1UNL     H5   35   0.194  -0.355   0.123
    1UNL     H6   36   0.252  -0.337  -0.038
    1UNL     H7   37  -0.039  -0.276   0.193
    1UNL     H8   38   0.141  -0.170   0.301
    1UNL     H9   39   0.045  -0.030   0.282
    1UNL    H10   40   0.256   0.031   0.182
    1UNL    H11   41   0.281   0.291  -0.241
    1UNL    H12   42   0.395   0.165  -0.266
    1UNL    H13   43   0.260   0.221  -0.395
    1UNL    H14   44   0.149  -0.156  -0.160
    1UNL    H15   45  -0.118  -0.159  -0.164
    1UNL    H16   46  -0.050  -0.021  -0.215
    1UNL    H17   47  -0.254   0.209  -0.157
    1UNL    H18   48  -0.503   0.223  -0.184
    1UNL    H19   49  -0.656   0.051  -0.076
    1UNL    H20   50  -0.552  -0.135   0.025
    1UNL    H21   51  -0.332  -0.355   0.052
    1UNL    H22   52  -0.243  -0.325   0.206
    1UNL    H23   53  -0.400  -0.259   0.182
    1UNL    H24   54  -0.149  -0.031   0.205
    1UNL    H25   55  -0.003   0.139   0.133
    1UNL    H26   56  -0.131   0.440  -0.152
    1UNL    H27   57   0.033   0.444  -0.107
    1UNL    H28   58  -0.094   0.537  -0.009
   0.00000   0.00000   0.00000   0.00000   0.00000   0.00000   0.00000   0.00000   0.00000
Generated with MDTraj, t= 40.0
 58
    1UNL     C1    1   0.507  -0.028   0.100
    1UNL     C2    2   0.420  -0.145   0.090
    1UNL     C3    3   0.288  -0.160   0.101
    1UNL     C4    4   0.208  -0.283   0.057
    1UNL     N1    5   0.078  -0.240   0.011
    1UNL     C5    6  -0.008  -0.203   0.131
    1UNL     C6    7   0.073  -0.110   0.226
    1UNL     C7    8   0.191  -0.050   0.132
    1UNL     C8    9   0.132   0.017   0.002
    1UNL     C9   10   0.234   0.095  -0.085
    1UNL     O1   11   0.316   0.158  -0.027
    1UNL     O2   12   0.213   0.096  -0.216
    1UNL    C10   13   0.297   0.180  -0.296
    1UNL    C11   14   0.079  -0.110  -0.077
    1UNL    C12   15  -0.053  -0.072  -0.130
    1UNL    C13   16  -0.117  -0.003  -0.006
    1UNL    C14   17  -0.259   0.034  -0.028
    1UNL    C15   18  -0.311   0.156  -0.073
    1UNL    C16   19  -0.446   0.158  -0.097
    1UNL    C17   20  -0.531   0.047  -0.091
    1UNL    C18   21  -0.481  -0.069  -0.031
    1UNL    C19   22  -0.346  -0.071   0.003
    1UNL     N2   23  -0.267  -0.182   0.053
    1UNL    C20   24  -0.318  -0.290   0.136
    1UNL    C21   25  -0.138  -0.120   0.100
    1UNL    C22   26  -0.002   0.105   0.030
    1UNL     O3   27  -0.003   0.215  -0.059
    1UNL    C23   28  -0.075   0.319  -0.007
    1UNL    C24   29  -0.068   0.451  -0.065
    1UNL     O4   30  -0.149   0.310   0.089
    1UNL     H1   31   0.608  -0.039   0.050
    1UNL     H2   32   0.529   0.007   0.205
    1UNL     H3   33   0.468   0.058   0.049
    1UNL     H4   34   0.468  -0.236   0.034
    1UNL     H5   35   0.203  -0.351   0.144
    1UNL     H6   36   0.252  -0.350  -0.020
    1UNL     H7   37  -0.028  -0.300   0.181
    1UNL     H8   38   0.113  -0.170   0.308
    1UNL     H9   39   0.017  -0.031   0.273
    1UNL    H10   40   0.245   0.028   0.190
    1UNL    H11   41   0.280   0.274  -0.257
    1UNL    H12   42   0.399   0.153  -0.288
    1UNL    H13   43   0.247   0.191  -0.403
    1UNL    H14   44   0.151  -0.138  -0.157
    1UNL    H15   45  -0.104  -0.162  -0.172
    1UNL    H16   46  -0.054  -0.009  -0.213
    1UNL    H17   47  -0.243   0.234  -0.105
    1UNL    H18   48  -0.492   0.255  -0.125
    1UNL    H19   49  -0.642   0.054  -0.097
    1UNL    H20   50  -0.551  -0.151  -0.008
    1UNL    H21   51  -0.423  -0.297   0.122
    1UNL    H22   52  -0.278  -0.384   0.097
    1UNL    H23   53  -0.295  -0.275   0.238
    1UNL    H24   54  -0.160  -0.087   0.204
    1UNL    H25   55  -0.000   0.139   0.131
    1UNL    H26   56  -0.145   0.484  -0.127
    1UNL    H27   57   0.019   0.445  -0.123
    1UNL    H28   58  -0.058   0.533   0.016
   0.00000   0.00000   0.00000   0.00000   0.00000   0.00000   0.00000   0.00000   0.00000
Generated with MDTraj, t= 41.0
 58
    1UNL     C1    1   0.508  -0.043   0.150
    1UNL     C2    2   0.424  -0.152   0.101
    1UNL     C3    3   0.288  -0.147   0.088
    1UNL     C4    4   0.209  -0.264   0.037
    1UNL     N1    5   0.068  -0.234   0.010
    1UNL     C5    6  -0.009  -0.190   0.133
    1UNL     C6    7   0.088  -0.094   0.214
    1UNL     C7    8   0.195  -0.031   0.121
    1UNL     C8    9   0.123   0.014  -0.015
    1UNL     C9   10   0.221   0.101  -0.088
    1UNL     O1   11   0.278   0.185  -0.023
    1UNL     O2   12   0.234   0.076  -0.220
    1UNL    C10   13   0.329   0.159  -0.287
    1UNL    C11   14   0.074  -0.113  -0.096
    1UNL    C12   15  -0.064  -0.078  -0.140
    1UNL    C13   16  -0.123  -0.003  -0.022
    1UNL    C14   17  -0.266   0.035  -0.048
    1UNL    C15   18  -0.333   0.144  -0.101
    1UNL    C16   19  -0.468   0.146  -0.120
    1UNL    C17   20  -0.540   0.047  -0.061
    1UNL    C18   21  -0.479  -0.070  -0.007
    1UNL    C19   22  -0.340  -0.073  -0.000
    1UNL     N2   23  -0.262  -0.177   0.066
    1UNL    C20   24  -0.316  -0.297   0.141
    1UNL    C21   25  -0.134  -0.106   0.099
    1UNL    C22   26  -0.006   0.097   0.013
    1UNL     O3   27  -0.020   0.212  -0.067
    1UNL    C23   28  -0.064   0.318   0.008
    1UNL    C24   29  -0.060   0.457  -0.052
    1UNL     O4   30  -0.100   0.298   0.124
    1UNL     H1   31   0.614  -0.045   0.102
    1UNL     H2   32   0.512  -0.044   0.261
    1UNL     H3   33   0.459   0.044   0.112
    1UNL     H4   34   0.473  -0.228   0.052
    1UNL     H5   35   0.208  -0.343   0.112
    1UNL     H6   36   0.264  -0.311  -0.050
    1UNL     H7   37  -0.038  -0.284   0.184
    1UNL     H8   38   0.140  -0.152   0.288
    1UNL     H9   39   0.027  -0.019   0.266
    1UNL    H10   40   0.247   0.050   0.176
    1UNL    H11   41   0.284   0.253  -0.275
    1UNL    H12   42   0.422   0.157  -0.237
    1UNL    H13   43   0.336   0.143  -0.404
    1UNL    H14   44   0.130  -0.138  -0.189
    1UNL    H15   45  -0.129  -0.164  -0.168
    1UNL    H16   46  -0.071  -0.019  -0.227
    1UNL    H17   47  -0.268   0.209  -0.158
    1UNL    H18   48  -0.521   0.211  -0.184
    1UNL    H19   49  -0.642   0.050  -0.068
    1UNL    H20   50  -0.528  -0.161   0.020
    1UNL    H21   51  -0.369  -0.274   0.230
    1UNL    H22   52  -0.382  -0.348   0.079
    1UNL    H23   53  -0.235  -0.367   0.171
    1UNL    H24   54  -0.162  -0.044   0.189
    1UNL    H25   55  -0.029   0.119   0.116
    1UNL    H26   56  -0.154   0.519  -0.064
    1UNL    H27   57  -0.015   0.459  -0.146
    1UNL    H28   58   0.005   0.522   0.010
   0.00000   0.00000   0.00000   0.00000   0.00000   0.00000   0.00000   0.00000   0.00000
Generated with MDTraj, t= 42.0
 58
    1UNL     C1    1   0.478  -0.025   0.173
    1UNL     C2    2   0.412  -0.140   0.112
    1UNL     C3    3   0.284  -0.144   0.071
    1UNL     C4    4   0.214  -0.264   0.012
    1UNL     N1    5   0.067  -0.223  -0.007
    1UNL     C5    6  -0.002  -0.188   0.120
    1UNL     C6    7   0.098  -0.097   0.211
    1UNL     C7    8   0.188  -0.039   0.104
    1UNL     C8    9   0.118   0.016  -0.024
    1UNL     C9   10   0.223   0.101  -0.099
    1UNL     O1   11   0.270   0.189  -0.030
    1UNL     O2   12   0.259   0.062  -0.224
    1UNL    C10   13   0.357   0.143  -0.284
    1UNL    C11   14   0.071  -0.106  -0.106
    1UNL    C12   15  -0.070  -0.079  -0.146
    1UNL    C13   16  -0.130  -0.005  -0.018
    1UNL    C14   17  -0.273   0.023  -0.053
    1UNL    C15   18  -0.333   0.127  -0.118
    1UNL    C16   19  -0.472   0.133  -0.127
    1UNL    C17   20  -0.545   0.027  -0.066
    1UNL    C18   21  -0.488  -0.079  -0.007
    1UNL    C19   22  -0.351  -0.083   0.005
    1UNL     N2   23  -0.264  -0.166   0.082
    1UNL    C20   24  -0.320  -0.276   0.153
    1UNL    C21   25  -0.135  -0.110   0.102
    1UNL    C22   26  -0.011   0.093   0.015
    1UNL     O3   27  -0.030   0.216  -0.050
    1UNL    C23   28  -0.050   0.322   0.032
    1UNL    C24   29  -0.072   0.445  -0.048
    1UNL     O4   30  -0.049   0.328   0.156
    1UNL     H1   31   0.580  -0.047   0.220
    1UNL     H2   32   0.415   0.024   0.248
    1UNL     H3   33   0.494   0.046   0.091
    1UNL     H4   34   0.470  -0.223   0.073
    1UNL     H5   35   0.220  -0.343   0.089
    1UNL     H6   36   0.250  -0.309  -0.086
    1UNL     H7   37  -0.019  -0.285   0.171
    1UNL     H8   38   0.152  -0.154   0.284
    1UNL     H9   39   0.044  -0.017   0.266
    1UNL    H10   40   0.243   0.048   0.146
    1UNL    H11   41   0.298   0.230  -0.305
    1UNL    H12   42   0.436   0.164  -0.212
    1UNL    H13   43   0.393   0.094  -0.384
    1UNL    H14   44   0.131  -0.127  -0.199
    1UNL    H15   45  -0.135  -0.161  -0.177
    1UNL    H16   46  -0.072  -0.012  -0.230
    1UNL    H17   47  -0.284   0.208  -0.168
    1UNL    H18   48  -0.516   0.209  -0.197
    1UNL    H19   49  -0.659   0.036  -0.071
    1UNL    H20   50  -0.547  -0.157   0.039
    1UNL    H21   51  -0.248  -0.330   0.213
    1UNL    H22   52  -0.391  -0.239   0.215
    1UNL    H23   53  -0.364  -0.354   0.088
    1UNL    H24   54  -0.159  -0.052   0.195
    1UNL    H25   55  -0.003   0.118   0.121
    1UNL    H26   56  -0.150   0.515   0.000
    1UNL    H27   57  -0.087   0.435  -0.157
    1UNL    H28   58   0.015   0.500  -0.040
   0.00000   0.00000   0.00000   0.00000   0.00000   0.00000   0.00000   0.00000   0.00000
Generated with MDTraj, t= 43.0
 58
    1UNL     C1    1   0.496  -0.027   0.160
    1UNL     C2    2   0.414  -0.138   0.109
    1UNL     C3    3   0.283  -0.137   0.078
    1UNL     C4    4   0.210  -0.255   0.020
    1UNL     N1    5   0.071  -0.220  -0.010
    1UNL     C5    6  -0.006  -0.189   0.112
    1UNL     C6    7   0.089  -0.108   0.208
    1UNL     C7    8   0.185  -0.028   0.120
    1UNL     C8    9   0.118   0.023  -0.011
    1UNL     C9   10   0.217   0.111  -0.091
    1UNL     O1   11   0.254   0.211  -0.032
    1UNL     O2   12   0.255   0.060  -0.216
    1UNL    C10   13   0.354   0.124  -0.287
    1UNL    C11   14   0.078  -0.101  -0.104
    1UNL    C12   15  -0.068  -0.081  -0.146
    1UNL    C13   16  -0.129  -0.009  -0.023
    1UNL    C14   17  -0.279   0.019  -0.042
    1UNL    C15   18  -0.327   0.131  -0.098
    1UNL    C16   19  -0.465   0.138  -0.113
    1UNL    C17   20  -0.538   0.019  -0.097
    1UNL    C18   21  -0.494  -0.097  -0.036
    1UNL    C19   22  -0.356  -0.090   0.005
    1UNL     N2   23  -0.274  -0.172   0.077
    1UNL    C20   24  -0.319  -0.270   0.173
    1UNL    C21   25  -0.140  -0.110   0.094
    1UNL    C22   26  -0.021   0.095   0.016
    1UNL     O3   27  -0.047   0.215  -0.058
    1UNL    C23   28  -0.043   0.322   0.022
    1UNL    C24   29  -0.051   0.453  -0.041
    1UNL     O4   30  -0.026   0.316   0.144
    1UNL     H1   31   0.582   0.007   0.100
    1UNL     H2   32   0.532  -0.036   0.262
    1UNL     H3   33   0.428   0.066   0.161
    1UNL     H4   34   0.467  -0.230   0.065
    1UNL     H5   35   0.202  -0.327   0.102
    1UNL     H6   36   0.248  -0.310  -0.073
    1UNL     H7   37  -0.039  -0.286   0.157
    1UNL     H8   38   0.137  -0.182   0.267
    1UNL     H9   39   0.031  -0.044   0.279
    1UNL    H10   40   0.228   0.054   0.183
    1UNL    H11   41   0.333   0.231  -0.278
    1UNL    H12   42   0.450   0.094  -0.239
    1UNL    H13   43   0.352   0.088  -0.392
    1UNL    H14   44   0.163  -0.112  -0.178
    1UNL    H15   45  -0.120  -0.167  -0.181
    1UNL    H16   46  -0.065  -0.001  -0.221
    1UNL    H17   47  -0.267   0.221  -0.114
    1UNL    H18   48  -0.516   0.223  -0.143
    1UNL    H19   49  -0.639   0.026  -0.114
    1UNL    H20   50  -0.559  -0.164   0.021
    1UNL    H21   51  -0.295  -0.370   0.142
    1UNL    H22   52  -0.265  -0.245   0.261
    1UNL    H23   53  -0.424  -0.275   0.199
    1UNL    H24   54  -0.156  -0.048   0.186
    1UNL    H25   55  -0.037   0.119   0.123
    1UNL    H26   56  -0.093   0.524   0.034
    1UNL    H27   57  -0.101   0.461  -0.146
    1UNL    H28   58   0.047   0.479  -0.062
   0.00000   0.00000   0.00000   0.00000   0.00000   0.00000   0.00000   0.00000   0.00000
Generated with MDTraj, t= 44.0
 58
    1UNL     C1    1   0.502  -0.012   0.116
    1UNL     C2    2   0.421  -0.132   0.078
    1UNL     C3    3   0.284  -0.142   0.090
    1UNL     C4    4   0.209  -0.265   0.054
    1UNL     N1    5   0.066  -0.228   0.011
    1UNL     C5    6  -0.014  -0.194   0.132
    1UNL     C6    7   0.078  -0.102   0.225
    1UNL     C7    8   0.182  -0.030   0.128
    1UNL     C8    9   0.116   0.014  -0.006
    1UNL     C9   10   0.209   0.106  -0.084
    1UNL     O1   11   0.255   0.201  -0.023
    1UNL     O2   12   0.248   0.074  -0.216
    1UNL    C10   13   0.337   0.163  -0.283
    1UNL    C11   14   0.077  -0.108  -0.089
    1UNL    C12   15  -0.066  -0.087  -0.146
    1UNL    C13   16  -0.128  -0.011  -0.023
    1UNL    C14   17  -0.280   0.022  -0.046
    1UNL    C15   18  -0.342   0.129  -0.102
    1UNL    C16   19  -0.478   0.127  -0.130
    1UNL    C17   20  -0.550   0.020  -0.085
    1UNL    C18   21  -0.492  -0.092  -0.027
    1UNL    C19   22  -0.349  -0.094  -0.003
    1UNL     N2   23  -0.272  -0.187   0.073
    1UNL    C20   24  -0.340  -0.297   0.141
    1UNL    C21   25  -0.144  -0.116   0.100
    1UNL    C22   26  -0.024   0.096   0.015
    1UNL     O3   27  -0.022   0.220  -0.062
    1UNL    C23   28  -0.019   0.331   0.018
    1UNL    C24   29   0.004   0.468  -0.049
    1UNL     O4   30  -0.034   0.321   0.140
    1UNL     H1   31   0.531   0.046   0.031
    1UNL     H2   32   0.590  -0.043   0.176
    1UNL     H3   33   0.433   0.053   0.181
    1UNL     H4   34   0.465  -0.203   0.024
    1UNL     H5   35   0.189  -0.331   0.141
    1UNL     H6   36   0.257  -0.323  -0.029
    1UNL     H7   37  -0.048  -0.290   0.180
    1UNL     H8   38   0.134  -0.166   0.289
    1UNL     H9   39   0.018  -0.040   0.295
    1UNL    H10   40   0.238   0.060   0.162
    1UNL    H11   41   0.288   0.261  -0.302
    1UNL    H12   42   0.419   0.175  -0.205
    1UNL    H13   43   0.382   0.121  -0.370
    1UNL    H14   44   0.161  -0.118  -0.162
    1UNL    H15   45  -0.109  -0.182  -0.161
    1UNL    H16   46  -0.068  -0.020  -0.235
    1UNL    H17   47  -0.284   0.213  -0.130
    1UNL    H18   48  -0.527   0.212  -0.185
    1UNL    H19   49  -0.663   0.024  -0.095
    1UNL    H20   50  -0.549  -0.162   0.033
    1UNL    H21   51  -0.417  -0.322   0.076
    1UNL    H22   52  -0.262  -0.378   0.142
    1UNL    H23   53  -0.381  -0.279   0.238
    1UNL    H24   54  -0.169  -0.065   0.195
    1UNL    H25   55  -0.035   0.123   0.122
    1UNL    H26   56  -0.033   0.549   0.008
    1UNL    H27   57  -0.030   0.467  -0.159
    1UNL    H28   58   0.115   0.474  -0.069
   0.00000   0.00000   0.00000   0.00000   0.00000   0.00000   0.00000   0.00000   0.00000
Generated with MDTraj, t= 45.0
 58
    1UNL     C1    1   0.481   0.004   0.090
    1UNL     C2    2   0.406  -0.123   0.077
    1UNL     C3    3   0.275  -0.142   0.100
    1UNL     C4    4   0.203  -0.271   0.057
    1UNL     N1    5   0.061  -0.231   0.020
    1UNL     C5    6  -0.010  -0.190   0.152
    1UNL     C6    7   0.081  -0.103   0.231
    1UNL     C7    8   0.178  -0.030   0.130
    1UNL     C8    9   0.112   0.014  -0.003
    1UNL     C9   10   0.207   0.105  -0.078
    1UNL     O1   11   0.265   0.188  -0.012
    1UNL     O2   12   0.229   0.085  -0.213
    1UNL    C10   13   0.299   0.186  -0.276
    1UNL    C11   14   0.068  -0.114  -0.078
    1UNL    C12   15  -0.071  -0.078  -0.130
    1UNL    C13   16  -0.132  -0.011  -0.008
    1UNL    C14   17  -0.273   0.024  -0.050
    1UNL    C15   18  -0.328   0.128  -0.117
    1UNL    C16   19  -0.465   0.130  -0.142
    1UNL    C17   20  -0.543   0.024  -0.091
    1UNL    C18   21  -0.492  -0.075  -0.012
    1UNL    C19   22  -0.357  -0.083  -0.000
    1UNL     N2   23  -0.274  -0.181   0.070
    1UNL    C20   24  -0.292  -0.327   0.100
    1UNL    C21   25  -0.146  -0.108   0.109
    1UNL    C22   26  -0.023   0.095   0.022
    1UNL     O3   27  -0.030   0.204  -0.060
    1UNL    C23   28  -0.015   0.321   0.012
    1UNL    C24   29   0.041   0.429  -0.063
    1UNL     O4   30  -0.033   0.336   0.132
    1UNL     H1   31   0.428   0.093   0.052
    1UNL     H2   32   0.583  -0.001   0.040
    1UNL     H3   33   0.496   0.022   0.199
    1UNL     H4   34   0.455  -0.214   0.026
    1UNL     H5   35   0.199  -0.338   0.146
    1UNL     H6   36   0.242  -0.327  -0.033
    1UNL     H7   37  -0.020  -0.290   0.203
    1UNL     H8   38   0.133  -0.160   0.305
    1UNL     H9   39   0.021  -0.033   0.292
    1UNL    H10   40   0.230   0.065   0.159
    1UNL    H11   41   0.246   0.284  -0.271
    1UNL    H12   42   0.398   0.186  -0.219
    1UNL    H13   43   0.327   0.150  -0.369
    1UNL    H14   44   0.132  -0.130  -0.167
    1UNL    H15   45  -0.120  -0.165  -0.166
    1UNL    H16   46  -0.059  -0.000  -0.210
    1UNL    H17   47  -0.264   0.200  -0.169
    1UNL    H18   48  -0.496   0.200  -0.214
    1UNL    H19   49  -0.644   0.025  -0.122
    1UNL    H20   50  -0.556  -0.158   0.015
    1UNL    H21   51  -0.386  -0.342   0.140
    1UNL    H22   52  -0.276  -0.380   0.001
    1UNL    H23   53  -0.216  -0.361   0.165
    1UNL    H24   54  -0.167  -0.045   0.195
    1UNL    H25   55  -0.038   0.133   0.128
    1UNL    H26   56   0.003   0.525  -0.033
    1UNL    H27   57   0.033   0.401  -0.169
    1UNL    H28   58   0.158   0.416  -0.049
   0.00000   0.00000   0.00000   0.00000   0.00000   0.00000   0.00000   0.00000   0.00000
Generated with MDTraj, t= 46.0
 58
    1UNL     C1    1   0.494  -0.007   0.113
    1UNL     C2    2   0.417  -0.131   0.108
    1UNL     C3    3   0.285  -0.137   0.084
    1UNL     C4    4   0.207  -0.259   0.050
    1UNL     N1    5   0.060  -0.227   0.021
    1UNL     C5    6  -0.009  -0.188   0.148
    1UNL     C6    7   0.080  -0.097   0.230
    1UNL     C7    8   0.192  -0.032   0.135
    1UNL     C8    9   0.113   0.018   0.007
    1UNL     C9   10   0.205   0.109  -0.077
    1UNL     O1   11   0.282   0.186  -0.021
    1UNL     O2   12   0.197   0.089  -0.215
    1UNL    C10   13   0.276   0.174  -0.295
    1UNL    C11   14   0.068  -0.113  -0.074
    1UNL    C12   15  -0.070  -0.080  -0.122
    1UNL    C13   16  -0.132  -0.009   0.000
    1UNL    C14   17  -0.277   0.031  -0.025
    1UNL    C15   18  -0.331   0.138  -0.100
    1UNL    C16   19  -0.463   0.119  -0.142
    1UNL    C17   20  -0.550   0.020  -0.106
    1UNL    C18   21  -0.496  -0.085  -0.028
    1UNL    C19   22  -0.358  -0.083   0.009
    1UNL     N2   23  -0.277  -0.180   0.071
    1UNL    C20   24  -0.295  -0.323   0.055
    1UNL    C21   25  -0.146  -0.114   0.111
    1UNL    C22   26  -0.020   0.103   0.045
    1UNL     O3   27  -0.043   0.202  -0.049
    1UNL    C23   28  -0.009   0.319   0.007
    1UNL    C24   29   0.035   0.437  -0.082
    1UNL     O4   30  -0.008   0.333   0.126
    1UNL     H1   31   0.457   0.080   0.052
    1UNL     H2   32   0.603  -0.022   0.075
    1UNL     H3   33   0.500   0.032   0.213
    1UNL     H4   34   0.468  -0.226   0.090
    1UNL     H5   35   0.215  -0.331   0.138
    1UNL     H6   36   0.253  -0.301  -0.043
    1UNL     H7   37  -0.021  -0.283   0.204
    1UNL     H8   38   0.130  -0.154   0.307
    1UNL     H9   39   0.015  -0.034   0.290
    1UNL    H10   40   0.247   0.054   0.179
    1UNL    H11   41   0.284   0.274  -0.249
    1UNL    H12   42   0.376   0.123  -0.298
    1UNL    H13   43   0.252   0.170  -0.393
    1UNL    H14   44   0.134  -0.131  -0.159
    1UNL    H15   45  -0.116  -0.174  -0.150
    1UNL    H16   46  -0.060  -0.019  -0.211
    1UNL    H17   47  -0.264   0.206  -0.144
    1UNL    H18   48  -0.509   0.191  -0.211
    1UNL    H19   49  -0.653   0.018  -0.138
    1UNL    H20   50  -0.551  -0.176  -0.023
    1UNL    H21   51  -0.379  -0.340   0.117
    1UNL    H22   52  -0.322  -0.346  -0.050
    1UNL    H23   53  -0.209  -0.380   0.083
    1UNL    H24   54  -0.166  -0.062   0.204
    1UNL    H25   55  -0.036   0.141   0.151
    1UNL    H26   56  -0.020   0.535  -0.062
    1UNL    H27   57   0.033   0.407  -0.184
    1UNL    H28   58   0.148   0.450  -0.068
   0.00000   0.00000   0.00000   0.00000   0.00000   0.00000   0.00000   0.00000   0.00000
Generated with MDTraj, t= 47.0
 58
    1UNL     C1    1   0.469  -0.008   0.166
    1UNL     C2    2   0.412  -0.133   0.110
    1UNL     C3    3   0.275  -0.144   0.094
    1UNL     C4    4   0.202  -0.269   0.059
    1UNL     N1    5   0.061  -0.231   0.027
    1UNL     C5    6  -0.012  -0.190   0.156
    1UNL     C6    7   0.081  -0.087   0.228
    1UNL     C7    8   0.184  -0.031   0.122
    1UNL     C8    9   0.108   0.017  -0.005
    1UNL     C9   10   0.210   0.098  -0.087
    1UNL     O1   11   0.313   0.139  -0.040
    1UNL     O2   12   0.178   0.111  -0.219
    1UNL    C10   13   0.274   0.171  -0.299
    1UNL    C11   14   0.066  -0.118  -0.075
    1UNL    C12   15  -0.073  -0.087  -0.127
    1UNL    C13   16  -0.131  -0.006  -0.010
    1UNL    C14   17  -0.278   0.025  -0.034
    1UNL    C15   18  -0.341   0.135  -0.092
    1UNL    C16   19  -0.473   0.122  -0.121
    1UNL    C17   20  -0.546   0.008  -0.097
    1UNL    C18   21  -0.482  -0.100  -0.038
    1UNL    C19   22  -0.348  -0.091  -0.005
    1UNL     N2   23  -0.270  -0.184   0.071
    1UNL    C20   24  -0.284  -0.334   0.048
    1UNL    C21   25  -0.145  -0.106   0.116
    1UNL    C22   26  -0.024   0.107   0.018
    1UNL     O3   27  -0.038   0.227  -0.064
    1UNL    C23   28   0.004   0.340   0.005
    1UNL    C24   29  -0.008   0.472  -0.060
    1UNL     O4   30   0.046   0.344   0.118
    1UNL     H1   31   0.451   0.085   0.100
    1UNL     H2   32   0.581  -0.021   0.173
    1UNL     H3   33   0.427   0.011   0.262
    1UNL     H4   34   0.475  -0.200   0.065
    1UNL     H5   35   0.211  -0.345   0.144
    1UNL     H6   36   0.258  -0.305  -0.031
    1UNL     H7   37  -0.032  -0.277   0.221
    1UNL     H8   38   0.136  -0.139   0.306
    1UNL     H9   39   0.018  -0.017   0.279
    1UNL    H10   40   0.235   0.060   0.161
    1UNL    H11   41   0.279   0.278  -0.277
    1UNL    H12   42   0.372   0.126  -0.271
    1UNL    H13   43   0.271   0.147  -0.397
    1UNL    H14   44   0.135  -0.140  -0.156
    1UNL    H15   45  -0.135  -0.178  -0.143
    1UNL    H16   46  -0.078  -0.024  -0.213
    1UNL    H17   47  -0.280   0.227  -0.095
    1UNL    H18   48  -0.524   0.216  -0.140
    1UNL    H19   49  -0.657   0.000  -0.107
    1UNL    H20   50  -0.548  -0.181  -0.003
    1UNL    H21   51  -0.314  -0.371   0.147
    1UNL    H22   52  -0.357  -0.361  -0.022
    1UNL    H23   53  -0.191  -0.380   0.016
    1UNL    H24   54  -0.175  -0.046   0.201
    1UNL    H25   55  -0.029   0.142   0.127
    1UNL    H26   56  -0.086   0.534   0.003
    1UNL    H27   57  -0.030   0.469  -0.167
    1UNL    H28   58   0.091   0.513  -0.051
   0.00000   0.00000   0.00000   0.00000   0.00000   0.00000   0.00000   0.00000   0.00000
Generated with MDTraj, t= 48.0
 58
    1UNL     C1    1   0.487  -0.018   0.192
    1UNL     C2    2   0.410  -0.137   0.149
    1UNL     C3    3   0.277  -0.130   0.118
    1UNL     C4    4   0.208  -0.255   0.053
    1UNL     N1    5   0.068  -0.214   0.014
    1UNL     C5    6  -0.014  -0.176   0.139
    1UNL     C6    7   0.074  -0.076   0.224
    1UNL     C7    8   0.178  -0.017   0.127
    1UNL     C8    9   0.116   0.026  -0.008
    1UNL     C9   10   0.221   0.094  -0.095
    1UNL     O1   11   0.332   0.122  -0.060
    1UNL     O2   12   0.180   0.124  -0.221
    1UNL    C10   13   0.264   0.192  -0.299
    1UNL    C11   14   0.078  -0.106  -0.090
    1UNL    C12   15  -0.066  -0.082  -0.148
    1UNL    C13   16  -0.134  -0.012  -0.020
    1UNL    C14   17  -0.282   0.016  -0.053
    1UNL    C15   18  -0.345   0.127  -0.110
    1UNL    C16   19  -0.482   0.127  -0.119
    1UNL    C17   20  -0.559   0.014  -0.083
    1UNL    C18   21  -0.498  -0.094  -0.021
    1UNL    C19   22  -0.363  -0.092  -0.006
    1UNL     N2   23  -0.277  -0.179   0.077
    1UNL    C20   24  -0.278  -0.327   0.071
    1UNL    C21   25  -0.151  -0.105   0.105
    1UNL    C22   26  -0.026   0.096   0.015
    1UNL     O3   27  -0.052   0.219  -0.059
    1UNL    C23   28   0.008   0.317   0.011
    1UNL    C24   29  -0.028   0.453  -0.050
    1UNL     O4   30   0.076   0.300   0.110
    1UNL     H1   31   0.475   0.075   0.125
    1UNL     H2   32   0.595  -0.040   0.185
    1UNL     H3   33   0.463   0.006   0.298
    1UNL     H4   34   0.473  -0.223   0.100
    1UNL     H5   35   0.216  -0.336   0.134
    1UNL     H6   36   0.272  -0.291  -0.029
    1UNL     H7   37  -0.035  -0.263   0.203
    1UNL     H8   38   0.116  -0.131   0.310
    1UNL     H9   39   0.015   0.000   0.267
    1UNL    H10   40   0.223   0.071   0.177
    1UNL    H11   41   0.305   0.276  -0.242
    1UNL    H12   42   0.343   0.122  -0.334
    1UNL    H13   43   0.217   0.221  -0.386
    1UNL    H14   44   0.153  -0.137  -0.160
    1UNL    H15   45  -0.125  -0.176  -0.164
    1UNL    H16   46  -0.066  -0.024  -0.235
    1UNL    H17   47  -0.284   0.216  -0.107
    1UNL    H18   48  -0.530   0.216  -0.151
    1UNL    H19   49  -0.661   0.027  -0.094
    1UNL    H20   50  -0.563  -0.163   0.025
    1UNL    H21   51  -0.227  -0.369   0.161
    1UNL    H22   52  -0.375  -0.360   0.073
    1UNL    H23   53  -0.233  -0.363  -0.020
    1UNL    H24   54  -0.179  -0.031   0.181
    1UNL    H25   55  -0.028   0.116   0.127
    1UNL    H26   56  -0.110   0.500   0.008
    1UNL    H27   57  -0.060   0.451  -0.160
    1UNL    H28   58   0.061   0.508  -0.045
   0.00000   0.00000   0.00000   0.00000   0.00000   0.00000   0.00000   0.00000   0.00000
Generated with MDTraj, t= 49.0
 58
    1UNL     C1    1   0.465   0.009   0.188
    1UNL     C2    2   0.406  -0.122   0.143
    1UNL     C3    3   0.279  -0.134   0.098
    1UNL     C4    4   0.207  -0.257   0.048
    1UNL     N1    5   0.069  -0.224   0.009
    1UNL     C5    6  -0.015  -0.190   0.126
    1UNL     C6    7   0.071  -0.086   0.218
    1UNL     C7    8   0.177  -0.027   0.126
    1UNL     C8    9   0.114   0.012  -0.008
    1UNL     C9   10   0.205   0.103  -0.098
    1UNL     O1   11   0.315   0.132  -0.061
    1UNL     O2   12   0.165   0.141  -0.222
    1UNL    C10   13   0.258   0.224  -0.288
    1UNL    C11   14   0.076  -0.119  -0.090
    1UNL    C12   15  -0.071  -0.099  -0.143
    1UNL    C13   16  -0.131  -0.023  -0.020
    1UNL    C14   17  -0.278   0.013  -0.042
    1UNL    C15   18  -0.325   0.118  -0.121
    1UNL    C16   19  -0.460   0.118  -0.145
    1UNL    C17   20  -0.547   0.028  -0.081
    1UNL    C18   21  -0.500  -0.081  -0.007
    1UNL    C19   22  -0.362  -0.088   0.010
    1UNL     N2   23  -0.274  -0.176   0.078
    1UNL    C20   24  -0.298  -0.322   0.098
    1UNL    C21   25  -0.144  -0.115   0.098
    1UNL    C22   26  -0.022   0.087   0.023
    1UNL     O3   27  -0.039   0.208  -0.052
    1UNL    C23   28   0.017   0.315   0.016
    1UNL    C24   29   0.011   0.437  -0.064
    1UNL     O4   30   0.066   0.314   0.127
    1UNL     H1   31   0.450   0.093   0.115
    1UNL     H2   32   0.572   0.008   0.201
    1UNL     H3   33   0.418   0.046   0.287
    1UNL     H4   34   0.474  -0.193   0.121
    1UNL     H5   35   0.207  -0.333   0.133
    1UNL     H6   36   0.266  -0.301  -0.033
    1UNL     H7   37  -0.044  -0.280   0.180
    1UNL     H8   38   0.119  -0.131   0.306
    1UNL     H9   39   0.002  -0.014   0.253
    1UNL    H10   40   0.219   0.063   0.176
    1UNL    H11   41   0.300   0.287  -0.209
    1UNL    H12   42   0.342   0.165  -0.330
    1UNL    H13   43   0.220   0.285  -0.368
    1UNL    H14   44   0.156  -0.138  -0.161
    1UNL    H15   45  -0.120  -0.199  -0.144
    1UNL    H16   46  -0.072  -0.054  -0.240
    1UNL    H17   47  -0.262   0.193  -0.165
    1UNL    H18   48  -0.513   0.182  -0.221
    1UNL    H19   49  -0.656   0.022  -0.113
    1UNL    H20   50  -0.560  -0.167   0.028
    1UNL    H21   51  -0.254  -0.370   0.185
    1UNL    H22   52  -0.405  -0.338   0.103
    1UNL    H23   53  -0.270  -0.374   0.009
    1UNL    H24   54  -0.169  -0.051   0.184
    1UNL    H25   55  -0.016   0.111   0.133
    1UNL    H26   56  -0.064   0.499  -0.034
    1UNL    H27   57  -0.009   0.415  -0.176
    1UNL    H28   58   0.112   0.478  -0.052
   0.00000   0.00000   0.00000   0.00000   0.00000   0.00000   0.00000   0.00000   0.00000
Generated with MDTraj, t= 50.0
 58
    1UNL     C1    1   0.486  -0.007   0.160
    1UNL     C2    2   0.414  -0.117   0.090
    1UNL     C3    3   0.282  -0.132   0.097
    1UNL     C4    4   0.217  -0.253   0.048
    1UNL     N1    5   0.078  -0.228   0.016
    1UNL     C5    6  -0.007  -0.196   0.139
    1UNL     C6    7   0.078  -0.097   0.225
    1UNL     C7    8   0.178  -0.028   0.133
    1UNL     C8    9   0.107   0.014  -0.004
    1UNL     C9   10   0.198   0.104  -0.080
    1UNL     O1   11   0.301   0.146  -0.032
    1UNL     O2   12   0.149   0.138  -0.202
    1UNL    C10   13   0.244   0.205  -0.267
    1UNL    C11   14   0.074  -0.116  -0.080
    1UNL    C12   15  -0.072  -0.089  -0.127
    1UNL    C13   16  -0.135  -0.014  -0.012
    1UNL    C14   17  -0.280   0.020  -0.050
    1UNL    C15   18  -0.333   0.128  -0.117
    1UNL    C16   19  -0.471   0.123  -0.141
    1UNL    C17   20  -0.541   0.006  -0.104
    1UNL    C18   21  -0.490  -0.093  -0.032
    1UNL    C19   22  -0.353  -0.088  -0.009
    1UNL     N2   23  -0.273  -0.187   0.061
    1UNL    C20   24  -0.329  -0.310   0.126
    1UNL    C21   25  -0.142  -0.120   0.101
    1UNL    C22   26  -0.025   0.094   0.018
    1UNL     O3   27  -0.032   0.211  -0.065
    1UNL    C23   28   0.018   0.319   0.007
    1UNL    C24   29   0.048   0.443  -0.069
    1UNL     O4   30   0.044   0.323   0.125
    1UNL     H1   31   0.469   0.094   0.117
    1UNL     H2   32   0.594  -0.025   0.153
    1UNL     H3   33   0.451  -0.002   0.271
    1UNL     H4   34   0.472  -0.185   0.023
    1UNL     H5   35   0.217  -0.338   0.123
    1UNL     H6   36   0.270  -0.291  -0.041
    1UNL     H7   37  -0.025  -0.290   0.190
    1UNL     H8   38   0.130  -0.154   0.303
    1UNL     H9   39   0.020  -0.023   0.272
    1UNL    H10   40   0.224   0.060   0.183
    1UNL    H11   41   0.228   0.309  -0.242
    1UNL    H12   42   0.348   0.175  -0.242
    1UNL    H13   43   0.225   0.196  -0.378
    1UNL    H14   44   0.141  -0.140  -0.162
    1UNL    H15   45  -0.110  -0.189  -0.141
    1UNL    H16   46  -0.090  -0.035  -0.220
    1UNL    H17   47  -0.268   0.204  -0.163
    1UNL    H18   48  -0.514   0.198  -0.197
    1UNL    H19   49  -0.637  -0.018  -0.134
    1UNL    H20   50  -0.534  -0.186  -0.007
    1UNL    H21   51  -0.303  -0.320   0.226
    1UNL    H22   52  -0.442  -0.326   0.120
    1UNL    H23   53  -0.287  -0.391   0.072
    1UNL    H24   54  -0.172  -0.059   0.189
    1UNL    H25   55  -0.032   0.118   0.126
    1UNL    H26   56  -0.004   0.531  -0.042
    1UNL    H27   57   0.022   0.429  -0.171
    1UNL    H28   58   0.159   0.459  -0.065
   0.00000   0.00000   0.00000   0.00000   0.00000   0.00000   0.00000   0.00000   0.00000
Generated with MDTraj, t= 51.0
 58
    1UNL     C1    1   0.482  -0.015   0.105
    1UNL     C2    2   0.403  -0.143   0.103
    1UNL     C3    3   0.272  -0.147   0.104
    1UNL     C4    4   0.200  -0.270   0.053
    1UNL     N1    5   0.067  -0.221   0.005
    1UNL     C5    6  -0.010  -0.190   0.134
    1UNL     C6    7   0.067  -0.085   0.220
    1UNL     C7    8   0.179  -0.028   0.130
    1UNL     C8    9   0.116   0.028  -0.004
    1UNL     C9   10   0.215   0.109  -0.083
    1UNL     O1   11   0.288   0.194  -0.036
    1UNL     O2   12   0.210   0.091  -0.216
    1UNL    C10   13   0.299   0.183  -0.281
    1UNL    C11   14   0.075  -0.098  -0.085
    1UNL    C12   15  -0.061  -0.068  -0.137
    1UNL    C13   16  -0.135  -0.010  -0.013
    1UNL    C14   17  -0.285   0.022  -0.034
    1UNL    C15   18  -0.346   0.126  -0.097
    1UNL    C16   19  -0.483   0.114  -0.138
    1UNL    C17   20  -0.547  -0.008  -0.117
    1UNL    C18   21  -0.478  -0.113  -0.058
    1UNL    C19   22  -0.348  -0.104  -0.017
    1UNL     N2   23  -0.265  -0.188   0.068
    1UNL    C20   24  -0.323  -0.284   0.151
    1UNL    C21   25  -0.140  -0.115   0.097
    1UNL    C22   26  -0.029   0.100   0.031
    1UNL     O3   27  -0.051   0.218  -0.038
    1UNL    C23   28   0.005   0.328   0.027
    1UNL    C24   29   0.016   0.450  -0.059
    1UNL     O4   30   0.037   0.317   0.143
    1UNL     H1   31   0.453   0.062   0.031
    1UNL     H2   32   0.587  -0.045   0.078
    1UNL     H3   33   0.478   0.035   0.207
    1UNL     H4   34   0.450  -0.241   0.076
    1UNL     H5   35   0.185  -0.356   0.124
    1UNL     H6   36   0.248  -0.321  -0.033
    1UNL     H7   37  -0.029  -0.282   0.187
    1UNL     H8   38   0.114  -0.137   0.305
    1UNL     H9   39   0.012  -0.010   0.274
    1UNL    H10   40   0.240   0.056   0.172
    1UNL    H11   41   0.298   0.274  -0.224
    1UNL    H12   42   0.403   0.151  -0.292
    1UNL    H13   43   0.248   0.212  -0.383
    1UNL    H14   44   0.136  -0.128  -0.171
    1UNL    H15   45  -0.098  -0.166  -0.157
    1UNL    H16   46  -0.066  -0.004  -0.229
    1UNL    H17   47  -0.289   0.206  -0.130
    1UNL    H18   48  -0.540   0.202  -0.180
    1UNL    H19   49  -0.658  -0.001  -0.131
    1UNL    H20   50  -0.520  -0.212  -0.035
    1UNL    H21   51  -0.339  -0.251   0.248
    1UNL    H22   52  -0.419  -0.321   0.104
    1UNL    H23   53  -0.256  -0.367   0.141
    1UNL    H24   54  -0.163  -0.055   0.188
    1UNL    H25   55  -0.035   0.129   0.137
    1UNL    H26   56  -0.018   0.549  -0.019
    1UNL    H27   57  -0.039   0.440  -0.142
    1UNL    H28   58   0.121   0.457  -0.089
   0.00000   0.00000   0.00000   0.00000   0.00000   0.00000   0.00000   0.00000   0.00000
Generated with MDTraj, t= 52.0
 58
    1UNL     C1    1   0.478  -0.002   0.111
    1UNL     C2    2   0.416  -0.125   0.063
    1UNL     C3    3   0.285  -0.141   0.078
    1UNL     C4    4   0.210  -0.259   0.039
    1UNL     N1    5   0.070  -0.223   0.008
    1UNL     C5    6  -0.014  -0.184   0.129
    1UNL     C6    7   0.076  -0.093   0.212
    1UNL     C7    8   0.182  -0.021   0.123
    1UNL     C8    9   0.116   0.024  -0.008
    1UNL     C9   10   0.214   0.099  -0.090
    1UNL     O1   11   0.275   0.192  -0.040
    1UNL     O2   12   0.234   0.060  -0.215
    1UNL    C10   13   0.347   0.145  -0.258
    1UNL    C11   14   0.067  -0.107  -0.086
    1UNL    C12   15  -0.066  -0.083  -0.134
    1UNL    C13   16  -0.134  -0.011  -0.016
    1UNL    C14   17  -0.282   0.025  -0.043
    1UNL    C15   18  -0.337   0.119  -0.128
    1UNL    C16   19  -0.475   0.117  -0.151
    1UNL    C17   20  -0.547   0.004  -0.104
    1UNL    C18   21  -0.492  -0.104  -0.033
    1UNL    C19   22  -0.358  -0.090   0.004
    1UNL     N2   23  -0.280  -0.174   0.076
    1UNL    C20   24  -0.321  -0.287   0.151
    1UNL    C21   25  -0.148  -0.107   0.103
    1UNL    C22   26  -0.023   0.100   0.022
    1UNL     O3   27  -0.049   0.221  -0.041
    1UNL    C23   28  -0.015   0.325   0.037
    1UNL    C24   29  -0.006   0.459  -0.026
    1UNL     O4   30   0.005   0.320   0.156
    1UNL     H1   31   0.448   0.089   0.057
    1UNL     H2   32   0.592  -0.009   0.096
    1UNL     H3   33   0.451   0.016   0.216
    1UNL     H4   34   0.474  -0.198   0.026
    1UNL     H5   35   0.210  -0.349   0.103
    1UNL     H6   36   0.251  -0.298  -0.058
    1UNL     H7   37  -0.037  -0.278   0.177
    1UNL     H8   38   0.130  -0.148   0.288
    1UNL     H9   39   0.016  -0.029   0.277
    1UNL    H10   40   0.234   0.062   0.175
    1UNL    H11   41   0.312   0.246  -0.260
    1UNL    H12   42   0.430   0.145  -0.190
    1UNL    H13   43   0.379   0.120  -0.371
    1UNL    H14   44   0.136  -0.124  -0.171
    1UNL    H15   45  -0.114  -0.175  -0.151
    1UNL    H16   46  -0.061  -0.025  -0.231
    1UNL    H17   47  -0.273   0.197  -0.178
    1UNL    H18   48  -0.523   0.203  -0.184
    1UNL    H19   49  -0.653  -0.004  -0.121
    1UNL    H20   50  -0.551  -0.184   0.009
    1UNL    H21   51  -0.421  -0.272   0.188
    1UNL    H22   52  -0.320  -0.373   0.088
    1UNL    H23   53  -0.244  -0.300   0.228
    1UNL    H24   54  -0.157  -0.034   0.188
    1UNL    H25   55  -0.027   0.128   0.128
    1UNL    H26   56  -0.047   0.539   0.042
    1UNL    H27   57  -0.068   0.465  -0.114
    1UNL    H28   58   0.092   0.474  -0.048
   0.00000   0.00000   0.00000   0.00000   0.00000   0.00000   0.00000   0.00000   0.00000
Generated with MDTraj, t= 53.0
 58
    1UNL     C1    1   0.487   0.013   0.127
    1UNL     C2    2   0.420  -0.112   0.077
    1UNL     C3    3   0.291  -0.140   0.087
    1UNL     C4    4   0.218  -0.259   0.023
    1UNL     N1    5   0.079  -0.227  -0.007
    1UNL     C5    6  -0.002  -0.196   0.122
    1UNL     C6    7   0.081  -0.101   0.215
    1UNL     C7    8   0.188  -0.035   0.129
    1UNL     C8    9   0.116   0.020  -0.006
    1UNL     C9   10   0.208   0.099  -0.092
    1UNL     O1   11   0.252   0.207  -0.056
    1UNL     O2   12   0.247   0.043  -0.208
    1UNL    C10   13   0.349   0.126  -0.257
    1UNL    C11   14   0.072  -0.104  -0.094
    1UNL    C12   15  -0.071  -0.088  -0.139
    1UNL    C13   16  -0.130  -0.010  -0.020
    1UNL    C14   17  -0.278   0.023  -0.049
    1UNL    C15   18  -0.330   0.125  -0.133
    1UNL    C16   19  -0.472   0.130  -0.142
    1UNL    C17   20  -0.549   0.027  -0.083
    1UNL    C18   21  -0.494  -0.073  -0.006
    1UNL    C19   22  -0.355  -0.077   0.012
    1UNL     N2   23  -0.279  -0.174   0.073
    1UNL    C20   24  -0.327  -0.286   0.152
    1UNL    C21   25  -0.143  -0.123   0.096
    1UNL    C22   26  -0.020   0.092   0.014
    1UNL     O3   27  -0.021   0.220  -0.060
    1UNL    C23   28  -0.029   0.322   0.033
    1UNL    C24   29  -0.021   0.466  -0.014
    1UNL     O4   30  -0.049   0.306   0.152
    1UNL     H1   31   0.437   0.111   0.105
    1UNL     H2   32   0.587   0.018   0.068
    1UNL     H3   33   0.502   0.007   0.234
    1UNL     H4   34   0.489  -0.199   0.043
    1UNL     H5   35   0.213  -0.345   0.090
    1UNL     H6   36   0.260  -0.302  -0.073
    1UNL     H7   37  -0.018  -0.292   0.169
    1UNL     H8   38   0.124  -0.158   0.297
    1UNL     H9   39   0.020  -0.021   0.260
    1UNL    H10   40   0.242   0.038   0.192
    1UNL    H11   41   0.309   0.217  -0.301
    1UNL    H12   42   0.426   0.147  -0.186
    1UNL    H13   43   0.390   0.053  -0.341
    1UNL    H14   44   0.141  -0.129  -0.178
    1UNL    H15   45  -0.126  -0.178  -0.154
    1UNL    H16   46  -0.089  -0.027  -0.232
    1UNL    H17   47  -0.263   0.198  -0.163
    1UNL    H18   48  -0.518   0.203  -0.215
    1UNL    H19   49  -0.652   0.018  -0.103
    1UNL    H20   50  -0.566  -0.147   0.028
    1UNL    H21   51  -0.404  -0.330   0.088
    1UNL    H22   52  -0.256  -0.357   0.165
    1UNL    H23   53  -0.365  -0.255   0.252
    1UNL    H24   54  -0.158  -0.077   0.196
    1UNL    H25   55  -0.027   0.114   0.120
    1UNL    H26   56  -0.086   0.523   0.047
    1UNL    H27   57  -0.059   0.479  -0.120
    1UNL    H28   58   0.079   0.490  -0.005
   0.00000   0.00000   0.00000   0.00000   0.00000   0.00000   0.00000   0.00000   0.00000
Generated with MDTraj, t= 54.0
 58
    1UNL     C1    1   0.479  -0.016   0.120
    1UNL     C2    2   0.414  -0.147   0.099
    1UNL     C3    3   0.283  -0.151   0.098
    1UNL     C4    4   0.212  -0.266   0.038
    1UNL     N1    5   0.077  -0.225  -0.004
    1UNL     C5    6  -0.009  -0.188   0.116
    1UNL     C6    7   0.080  -0.085   0.208
    1UNL     C7    8   0.189  -0.035   0.119
    1UNL     C8    9   0.123   0.017  -0.017
    1UNL     C9   10   0.229   0.109  -0.096
    1UNL     O1   11   0.263   0.220  -0.058
    1UNL     O2   12   0.278   0.051  -0.204
    1UNL    C10   13   0.354   0.152  -0.272
    1UNL    C11   14   0.085  -0.106  -0.102
    1UNL    C12   15  -0.063  -0.084  -0.143
    1UNL    C13   16  -0.127  -0.017  -0.017
    1UNL    C14   17  -0.271   0.018  -0.038
    1UNL    C15   18  -0.324   0.138  -0.080
    1UNL    C16   19  -0.460   0.153  -0.100
    1UNL    C17   20  -0.544   0.046  -0.064
    1UNL    C18   21  -0.487  -0.077  -0.028
    1UNL    C19   22  -0.352  -0.093  -0.010
    1UNL     N2   23  -0.268  -0.191   0.056
    1UNL    C20   24  -0.325  -0.281   0.170
    1UNL    C21   25  -0.141  -0.119   0.095
    1UNL    C22   26  -0.016   0.088   0.013
    1UNL     O3   27  -0.037   0.208  -0.059
    1UNL    C23   28  -0.062   0.317   0.021
    1UNL    C24   29  -0.036   0.452  -0.042
    1UNL     O4   30  -0.099   0.307   0.137
    1UNL     H1   31   0.468   0.055   0.032
    1UNL     H2   32   0.590  -0.040   0.121
    1UNL     H3   33   0.442   0.035   0.208
    1UNL     H4   34   0.472  -0.234   0.093
    1UNL     H5   35   0.209  -0.353   0.103
    1UNL     H6   36   0.272  -0.294  -0.055
    1UNL     H7   37  -0.033  -0.285   0.158
    1UNL     H8   38   0.122  -0.139   0.290
    1UNL     H9   39   0.019   0.004   0.237
    1UNL    H10   40   0.240   0.053   0.161
    1UNL    H11   41   0.313   0.253  -0.262
    1UNL    H12   42   0.454   0.148  -0.238
    1UNL    H13   43   0.366   0.121  -0.383
    1UNL    H14   44   0.164  -0.127  -0.178
    1UNL    H15   45  -0.138  -0.159  -0.172
    1UNL    H16   46  -0.069  -0.013  -0.226
    1UNL    H17   47  -0.249   0.219  -0.085
    1UNL    H18   48  -0.497   0.237  -0.152
    1UNL    H19   49  -0.652   0.067  -0.094
    1UNL    H20   50  -0.554  -0.161  -0.017
    1UNL    H21   51  -0.318  -0.382   0.131
    1UNL    H22   52  -0.274  -0.278   0.263
    1UNL    H23   53  -0.427  -0.256   0.201
    1UNL    H24   54  -0.169  -0.068   0.188
    1UNL    H25   55  -0.028   0.113   0.117
    1UNL    H26   56  -0.115   0.514  -0.029
    1UNL    H27   57  -0.020   0.445  -0.153
    1UNL    H28   58   0.059   0.489   0.003
   0.00000   0.00000   0.00000   0.00000   0.00000   0.00000   0.00000   0.00000   0.00000
Generated with MDTraj, t= 55.0
 58
    1UNL     C1    1   0.497  -0.038   0.143
    1UNL     C2    2   0.426  -0.147   0.067
    1UNL     C3    3   0.295  -0.160   0.076
    1UNL     C4    4   0.217  -0.279   0.024
    1UNL     N1    5   0.073  -0.228   0.003
    1UNL     C5    6  -0.002  -0.190   0.127
    1UNL     C6    7   0.098  -0.101   0.213
    1UNL     C7    8   0.199  -0.043   0.121
    1UNL     C8    9   0.124   0.013  -0.003
    1UNL     C9   10   0.224   0.098  -0.075
    1UNL     O1   11   0.287   0.183  -0.015
    1UNL     O2   12   0.244   0.067  -0.209
    1UNL    C10   13   0.343   0.157  -0.253
    1UNL    C11   14   0.080  -0.110  -0.087
    1UNL    C12   15  -0.067  -0.083  -0.135
    1UNL    C13   16  -0.126   0.001  -0.017
    1UNL    C14   17  -0.268   0.037  -0.051
    1UNL    C15   18  -0.337   0.149  -0.088
    1UNL    C16   19  -0.472   0.149  -0.088
    1UNL    C17   20  -0.557   0.042  -0.054
    1UNL    C18   21  -0.489  -0.073  -0.010
    1UNL    C19   22  -0.347  -0.071  -0.007
    1UNL     N2   23  -0.261  -0.165   0.058
    1UNL    C20   24  -0.305  -0.281   0.132
    1UNL    C21   25  -0.127  -0.107   0.096
    1UNL    C22   26  -0.008   0.105   0.020
    1UNL     O3   27  -0.014   0.214  -0.065
    1UNL    C23   28  -0.076   0.317  -0.004
    1UNL    C24   29  -0.070   0.441  -0.078
    1UNL     O4   30  -0.133   0.313   0.104
    1UNL     H1   31   0.491   0.067   0.100
    1UNL     H2   32   0.606  -0.058   0.136
    1UNL     H3   33   0.458  -0.031   0.249
    1UNL     H4   34   0.484  -0.236   0.050
    1UNL     H5   35   0.226  -0.351   0.104
    1UNL     H6   36   0.256  -0.323  -0.072
    1UNL     H7   37  -0.019  -0.285   0.176
    1UNL     H8   38   0.150  -0.153   0.291
    1UNL     H9   39   0.043  -0.013   0.257
    1UNL    H10   40   0.245   0.037   0.180
    1UNL    H11   41   0.307   0.252  -0.296
    1UNL    H12   42   0.413   0.167  -0.174
    1UNL    H13   43   0.401   0.099  -0.327
    1UNL    H14   44   0.154  -0.126  -0.170
    1UNL    H15   45  -0.129  -0.175  -0.151
    1UNL    H16   46  -0.072  -0.038  -0.232
    1UNL    H17   47  -0.281   0.239  -0.115
    1UNL    H18   48  -0.516   0.250  -0.098
    1UNL    H19   49  -0.658   0.042  -0.051
    1UNL    H20   50  -0.544  -0.157   0.028
    1UNL    H21   51  -0.222  -0.349   0.127
    1UNL    H22   52  -0.331  -0.257   0.238
    1UNL    H23   53  -0.395  -0.320   0.096
    1UNL    H24   54  -0.151  -0.060   0.191
    1UNL    H25   55  -0.013   0.142   0.121
    1UNL    H26   56  -0.167   0.474  -0.106
    1UNL    H27   57  -0.016   0.433  -0.167
    1UNL    H28   58  -0.015   0.520  -0.015
   0.00000   0.00000   0.00000   0.00000   0.00000   0.00000   0.00000   0.00000   0.00000
Generated with MDTraj, t= 56.0
 58
    1UNL     C1    1   0.497  -0.046   0.138
    1UNL     C2    2   0.419  -0.172   0.098
    1UNL     C3    3   0.287  -0.162   0.086
    1UNL     C4    4   0.209  -0.278   0.021
    1UNL     N1    5   0.070  -0.227  -0.013
    1UNL     C5    6  -0.003  -0.201   0.117
    1UNL     C6    7   0.095  -0.118   0.210
    1UNL     C7    8   0.197  -0.043   0.124
    1UNL     C8    9   0.131   0.021   0.001
    1UNL     C9   10   0.240   0.098  -0.081
    1UNL     O1   11   0.328   0.153  -0.021
    1UNL     O2   12   0.230   0.101  -0.216
    1UNL    C10   13   0.337   0.177  -0.256
    1UNL    C11   14   0.082  -0.098  -0.092
    1UNL    C12   15  -0.064  -0.063  -0.132
    1UNL    C13   16  -0.114   0.004  -0.003
    1UNL    C14   17  -0.260   0.045  -0.014
    1UNL    C15   18  -0.323   0.144  -0.092
    1UNL    C16   19  -0.462   0.139  -0.114
    1UNL    C17   20  -0.541   0.038  -0.069
    1UNL    C18   21  -0.485  -0.058   0.015
    1UNL    C19   22  -0.344  -0.056   0.035
    1UNL     N2   23  -0.263  -0.167   0.084
    1UNL    C20   24  -0.320  -0.302   0.109
    1UNL    C21   25  -0.132  -0.107   0.107
    1UNL    C22   26   0.003   0.109   0.031
    1UNL     O3   27  -0.006   0.216  -0.060
    1UNL    C23   28  -0.091   0.318  -0.019
    1UNL    C24   29  -0.105   0.439  -0.104
    1UNL     O4   30  -0.154   0.311   0.085
    1UNL     H1   31   0.461   0.052   0.095
    1UNL     H2   32   0.594  -0.051   0.090
    1UNL     H3   33   0.504  -0.028   0.253
    1UNL     H4   34   0.470  -0.275   0.110
    1UNL     H5   35   0.204  -0.369   0.082
    1UNL     H6   36   0.267  -0.298  -0.072
    1UNL     H7   37  -0.017  -0.297   0.163
    1UNL     H8   38   0.147  -0.179   0.282
    1UNL     H9   39   0.043  -0.045   0.277
    1UNL    H10   40   0.248   0.037   0.180
    1UNL    H11   41   0.341   0.282  -0.218
    1UNL    H12   42   0.426   0.120  -0.236
    1UNL    H13   43   0.325   0.184  -0.363
    1UNL    H14   44   0.145  -0.105  -0.184
    1UNL    H15   45  -0.108  -0.159  -0.175
    1UNL    H16   46  -0.080   0.009  -0.207
    1UNL    H17   47  -0.268   0.214  -0.144
    1UNL    H18   48  -0.507   0.220  -0.165
    1UNL    H19   49  -0.656   0.048  -0.070
    1UNL    H20   50  -0.538  -0.143   0.059
    1UNL    H21   51  -0.250  -0.353   0.172
    1UNL    H22   52  -0.417  -0.292   0.165
    1UNL    H23   53  -0.347  -0.355   0.026
    1UNL    H24   54  -0.146  -0.061   0.204
    1UNL    H25   55  -0.001   0.139   0.134
    1UNL    H26   56  -0.201   0.432  -0.166
    1UNL    H27   57  -0.029   0.449  -0.172
    1UNL    H28   58  -0.104   0.534  -0.044
   0.00000   0.00000   0.00000   0.00000   0.00000   0.00000   0.00000   0.00000   0.00000
Generated with MDTraj, t= 57.0
 58
    1UNL     C1    1   0.509  -0.071   0.146
    1UNL     C2    2   0.414  -0.171   0.078
    1UNL     C3    3   0.282  -0.159   0.086
    1UNL     C4    4   0.199  -0.270   0.034
    1UNL     N1    5   0.064  -0.222   0.004
    1UNL     C5    6  -0.000  -0.188   0.138
    1UNL     C6    7   0.091  -0.100   0.226
    1UNL     C7    8   0.196  -0.039   0.131
    1UNL     C8    9   0.130   0.016  -0.001
    1UNL     C9   10   0.233   0.107  -0.081
    1UNL     O1   11   0.336   0.152  -0.037
    1UNL     O2   12   0.203   0.112  -0.216
    1UNL    C10   13   0.301   0.202  -0.271
    1UNL    C11   14   0.073  -0.105  -0.091
    1UNL    C12   15  -0.065  -0.073  -0.140
    1UNL    C13   16  -0.115  -0.007  -0.010
    1UNL    C14   17  -0.260   0.036  -0.031
    1UNL    C15   18  -0.310   0.135  -0.108
    1UNL    C16   19  -0.445   0.143  -0.137
    1UNL    C17   20  -0.529   0.054  -0.074
    1UNL    C18   21  -0.487  -0.056  -0.001
    1UNL    C19   22  -0.349  -0.067   0.020
    1UNL     N2   23  -0.263  -0.159   0.102
    1UNL    C20   24  -0.287  -0.300   0.113
    1UNL    C21   25  -0.136  -0.097   0.117
    1UNL    C22   26  -0.004   0.098   0.022
    1UNL     O3   27  -0.005   0.211  -0.062
    1UNL    C23   28  -0.084   0.307  -0.005
    1UNL    C24   29  -0.093   0.438  -0.078
    1UNL     O4   30  -0.143   0.291   0.098
    1UNL     H1   31   0.544   0.013   0.081
    1UNL     H2   32   0.605  -0.121   0.159
    1UNL     H3   33   0.467  -0.032   0.247
    1UNL     H4   34   0.455  -0.261   0.067
    1UNL     H5   35   0.198  -0.350   0.110
    1UNL     H6   36   0.246  -0.308  -0.058
    1UNL     H7   37  -0.037  -0.276   0.187
    1UNL     H8   38   0.141  -0.162   0.299
    1UNL     H9   39   0.030  -0.032   0.292
    1UNL    H10   40   0.253   0.044   0.175
    1UNL    H11   41   0.332   0.285  -0.201
    1UNL    H12   42   0.389   0.149  -0.308
    1UNL    H13   43   0.255   0.259  -0.345
    1UNL    H14   44   0.144  -0.125  -0.175
    1UNL    H15   45  -0.116  -0.172  -0.159
    1UNL    H16   46  -0.066  -0.016  -0.231
    1UNL    H17   47  -0.239   0.198  -0.166
    1UNL    H18   48  -0.481   0.211  -0.215
    1UNL    H19   49  -0.634   0.067  -0.092
    1UNL    H20   50  -0.551  -0.132   0.039
    1UNL    H21   51  -0.258  -0.328   0.212
    1UNL    H22   52  -0.393  -0.327   0.102
    1UNL    H23   53  -0.236  -0.357   0.040
    1UNL    H24   54  -0.154  -0.030   0.201
    1UNL    H25   55  -0.019   0.120   0.125
    1UNL    H26   56  -0.190   0.432  -0.139
    1UNL    H27   57  -0.007   0.447  -0.150
    1UNL    H28   58  -0.089   0.521  -0.012
   0.00000   0.00000   0.00000   0.00000   0.00000   0.00000   0.00000   0.00000   0.00000
Generated with MDTraj, t= 58.0
 58
    1UNL     C1    1   0.509  -0.046   0.136
    1UNL     C2    2   0.422  -0.160   0.094
    1UNL     C3    3   0.292  -0.159   0.100
    1UNL     C4    4   0.202  -0.275   0.063
    1UNL     N1    5   0.066  -0.234   0.023
    1UNL     C5    6  -0.001  -0.178   0.143
    1UNL     C6    7   0.099  -0.099   0.230
    1UNL     C7    8   0.208  -0.037   0.125
    1UNL     C8    9   0.138   0.006  -0.012
    1UNL     C9   10   0.227   0.091  -0.104
    1UNL     O1   11   0.328   0.137  -0.060
    1UNL     O2   12   0.179   0.102  -0.232
    1UNL    C10   13   0.260   0.201  -0.283
    1UNL    C11   14   0.080  -0.126  -0.081
    1UNL    C12   15  -0.059  -0.098  -0.129
    1UNL    C13   16  -0.114  -0.003  -0.018
    1UNL    C14   17  -0.259   0.038  -0.059
    1UNL    C15   18  -0.319   0.147  -0.120
    1UNL    C16   19  -0.456   0.145  -0.133
    1UNL    C17   20  -0.531   0.033  -0.100
    1UNL    C18   21  -0.480  -0.071  -0.025
    1UNL    C19   22  -0.344  -0.066   0.002
    1UNL     N2   23  -0.269  -0.155   0.079
    1UNL    C20   24  -0.315  -0.287   0.111
    1UNL    C21   25  -0.135  -0.090   0.109
    1UNL    C22   26   0.001   0.097   0.017
    1UNL     O3   27   0.012   0.230  -0.045
    1UNL    C23   28  -0.070   0.316   0.029
    1UNL    C24   29  -0.075   0.450  -0.037
    1UNL     O4   30  -0.129   0.301   0.134
    1UNL     H1   31   0.503   0.046   0.073
    1UNL     H2   32   0.612  -0.076   0.104
    1UNL     H3   33   0.501  -0.022   0.245
    1UNL     H4   34   0.476  -0.262   0.100
    1UNL     H5   35   0.200  -0.347   0.148
    1UNL     H6   36   0.238  -0.325  -0.026
    1UNL     H7   37  -0.046  -0.255   0.203
    1UNL     H8   38   0.151  -0.157   0.306
    1UNL     H9   39   0.038  -0.031   0.292
    1UNL    H10   40   0.264   0.045   0.169
    1UNL    H11   41   0.204   0.302  -0.271
    1UNL    H12   42   0.364   0.203  -0.239
    1UNL    H13   43   0.259   0.190  -0.384
    1UNL    H14   44   0.142  -0.154  -0.169
    1UNL    H15   45  -0.117  -0.191  -0.141
    1UNL    H16   46  -0.045  -0.048  -0.226
    1UNL    H17   47  -0.263   0.230  -0.158
    1UNL    H18   48  -0.506   0.221  -0.191
    1UNL    H19   49  -0.626   0.017  -0.139
    1UNL    H20   50  -0.542  -0.146   0.020
    1UNL    H21   51  -0.407  -0.279   0.162
    1UNL    H22   52  -0.325  -0.347   0.025
    1UNL    H23   53  -0.240  -0.341   0.173
    1UNL    H24   54  -0.149  -0.015   0.187
    1UNL    H25   55   0.014   0.111   0.122
    1UNL    H26   56  -0.183   0.465  -0.053
    1UNL    H27   57  -0.021   0.447  -0.143
    1UNL    H28   58  -0.029   0.522   0.026
   0.00000   0.00000   0.00000   0.00000   0.00000   0.00000   0.00000   0.00000   0.00000
Generated with MDTraj, t= 59.0
 58
    1UNL     C1    1   0.488  -0.017   0.121
    1UNL     C2    2   0.422  -0.149   0.106
    1UNL     C3    3   0.290  -0.153   0.095
    1UNL     C4    4   0.207  -0.274   0.052
    1UNL     N1    5   0.065  -0.232   0.018
    1UNL     C5    6  -0.007  -0.189   0.144
    1UNL     C6    7   0.083  -0.096   0.221
    1UNL     C7    8   0.194  -0.032   0.126
    1UNL     C8    9   0.123   0.017  -0.004
    1UNL     C9   10   0.222   0.094  -0.104
    1UNL     O1   11   0.330   0.143  -0.073
    1UNL     O2   12   0.168   0.089  -0.230
    1UNL    C10   13   0.258   0.164  -0.311
    1UNL    C11   14   0.080  -0.116  -0.079
    1UNL    C12   15  -0.063  -0.092  -0.134
    1UNL    C13   16  -0.118  -0.007  -0.010
    1UNL    C14   17  -0.262   0.038  -0.031
    1UNL    C15   18  -0.302   0.151  -0.104
    1UNL    C16   19  -0.431   0.141  -0.153
    1UNL    C17   20  -0.509   0.034  -0.120
    1UNL    C18   21  -0.467  -0.072  -0.048
    1UNL    C19   22  -0.335  -0.073  -0.001
    1UNL     N2   23  -0.262  -0.171   0.063
    1UNL    C20   24  -0.325  -0.280   0.131
    1UNL    C21   25  -0.135  -0.108   0.109
    1UNL    C22   26  -0.010   0.094   0.028
    1UNL     O3   27  -0.024   0.222  -0.044
    1UNL    C23   28  -0.064   0.320   0.042
    1UNL    C24   29  -0.053   0.465  -0.009
    1UNL     O4   30  -0.096   0.295   0.155
    1UNL     H1   31   0.466   0.057   0.038
    1UNL     H2   32   0.597  -0.038   0.091
    1UNL     H3   33   0.480   0.028   0.219
    1UNL     H4   34   0.479  -0.233   0.135
    1UNL     H5   35   0.191  -0.351   0.131
    1UNL     H6   36   0.252  -0.323  -0.031
    1UNL     H7   37  -0.027  -0.280   0.199
    1UNL     H8   38   0.132  -0.153   0.301
    1UNL     H9   39   0.036  -0.016   0.280
    1UNL    H10   40   0.250   0.049   0.172
    1UNL    H11   41   0.259   0.274  -0.272
    1UNL    H12   42   0.362   0.122  -0.305
    1UNL    H13   43   0.222   0.171  -0.407
    1UNL    H14   44   0.156  -0.126  -0.158
    1UNL    H15   45  -0.103  -0.192  -0.138
    1UNL    H16   46  -0.070  -0.034  -0.230
    1UNL    H17   47  -0.238   0.233  -0.126
    1UNL    H18   48  -0.467   0.211  -0.225
    1UNL    H19   49  -0.620   0.046  -0.152
    1UNL    H20   50  -0.541  -0.142  -0.010
    1UNL    H21   51  -0.386  -0.331   0.063
    1UNL    H22   52  -0.257  -0.342   0.178
    1UNL    H23   53  -0.385  -0.237   0.217
    1UNL    H24   54  -0.151  -0.037   0.193
    1UNL    H25   55  -0.014   0.109   0.134
    1UNL    H26   56  -0.144   0.513   0.024
    1UNL    H27   57  -0.049   0.475  -0.120
    1UNL    H28   58   0.040   0.519   0.032
   0.00000   0.00000   0.00000   0.00000   0.00000   0.00000   0.00000   0.00000   0.00000
Generated with MDTraj, t= 60.0
 58
    1UNL     C1    1   0.500  -0.025   0.138
    1UNL     C2    2   0.417  -0.141   0.079
    1UNL     C3    3   0.288  -0.144   0.085
    1UNL     C4    4   0.214  -0.264   0.035
    1UNL     N1    5   0.068  -0.224   0.012
    1UNL     C5    6  -0.007  -0.185   0.138
    1UNL     C6    7   0.093  -0.094   0.222
    1UNL     C7    8   0.194  -0.027   0.127
    1UNL     C8    9   0.124   0.017  -0.010
    1UNL     C9   10   0.224   0.100  -0.091
    1UNL     O1   11   0.310   0.179  -0.049
    1UNL     O2   12   0.195   0.068  -0.224
    1UNL    C10   13   0.276   0.142  -0.302
    1UNL    C11   14   0.079  -0.107  -0.082
    1UNL    C12   15  -0.067  -0.081  -0.129
    1UNL    C13   16  -0.126  -0.008  -0.012
    1UNL    C14   17  -0.268   0.032  -0.049
    1UNL    C15   18  -0.319   0.135  -0.122
    1UNL    C16   19  -0.450   0.131  -0.163
    1UNL    C17   20  -0.532   0.028  -0.122
    1UNL    C18   21  -0.486  -0.069  -0.041
    1UNL    C19   22  -0.350  -0.075  -0.007
    1UNL     N2   23  -0.267  -0.171   0.061
    1UNL    C20   24  -0.321  -0.272   0.155
    1UNL    C21   25  -0.136  -0.103   0.104
    1UNL    C22   26  -0.005   0.096   0.027
    1UNL     O3   27  -0.023   0.215  -0.042
    1UNL    C23   28  -0.052   0.313   0.048
    1UNL    C24   29  -0.046   0.446  -0.010
    1UNL     O4   30  -0.069   0.298   0.167
    1UNL     H1   31   0.491   0.069   0.079
    1UNL     H2   32   0.612  -0.050   0.116
    1UNL     H3   33   0.475  -0.010   0.241
    1UNL     H4   34   0.465  -0.233   0.056
    1UNL     H5   35   0.221  -0.352   0.101
    1UNL     H6   36   0.247  -0.296  -0.062
    1UNL     H7   37  -0.036  -0.281   0.179
    1UNL     H8   38   0.157  -0.151   0.290
    1UNL     H9   39   0.050  -0.016   0.284
    1UNL    H10   40   0.241   0.063   0.165
    1UNL    H11   41   0.331   0.225  -0.240
    1UNL    H12   42   0.347   0.073  -0.353
    1UNL    H13   43   0.210   0.185  -0.371
    1UNL    H14   44   0.143  -0.142  -0.162
    1UNL    H15   45  -0.122  -0.173  -0.129
    1UNL    H16   46  -0.077  -0.019  -0.225
    1UNL    H17   47  -0.248   0.213  -0.157
    1UNL    H18   48  -0.492   0.220  -0.216
    1UNL    H19   49  -0.632   0.039  -0.138
    1UNL    H20   50  -0.562  -0.129   0.007
    1UNL    H21   51  -0.263  -0.361   0.157
    1UNL    H22   52  -0.336  -0.226   0.250
    1UNL    H23   53  -0.423  -0.293   0.119
    1UNL    H24   54  -0.170  -0.052   0.198
    1UNL    H25   55  -0.002   0.123   0.131
    1UNL    H26   56  -0.118   0.508   0.049
    1UNL    H27   57  -0.072   0.452  -0.110
    1UNL    H28   58   0.061   0.495   0.000
   0.00000   0.00000   0.00000   0.00000   0.00000   0.00000   0.00000   0.00000   0.00000
Generated with MDTraj, t= 61.0
 58
    1UNL     C1    1   0.483  -0.019   0.123
    1UNL     C2    2   0.410  -0.153   0.093
    1UNL     C3    3   0.280  -0.163   0.085
    1UNL     C4    4   0.206  -0.281   0.040
    1UNL     N1    5   0.069  -0.232   0.000
    1UNL     C5    6  -0.009  -0.193   0.122
    1UNL     C6    7   0.084  -0.101   0.210
    1UNL     C7    8   0.186  -0.043   0.118
    1UNL     C8    9   0.123   0.014  -0.015
    1UNL     C9   10   0.228   0.104  -0.099
    1UNL     O1   11   0.293   0.183  -0.030
    1UNL     O2   12   0.240   0.092  -0.232
    1UNL    C10   13   0.337   0.179  -0.273
    1UNL    C11   14   0.074  -0.117  -0.096
    1UNL    C12   15  -0.071  -0.094  -0.134
    1UNL    C13   16  -0.126  -0.013  -0.020
    1UNL    C14   17  -0.272   0.023  -0.057
    1UNL    C15   18  -0.336   0.126  -0.120
    1UNL    C16   19  -0.472   0.120  -0.141
    1UNL    C17   20  -0.551   0.020  -0.089
    1UNL    C18   21  -0.494  -0.084  -0.018
    1UNL    C19   22  -0.355  -0.082  -0.003
    1UNL     N2   23  -0.275  -0.173   0.072
    1UNL    C20   24  -0.331  -0.264   0.171
    1UNL    C21   25  -0.136  -0.111   0.096
    1UNL    C22   26  -0.010   0.096   0.015
    1UNL     O3   27  -0.007   0.226  -0.048
    1UNL    C23   28  -0.036   0.331   0.038
    1UNL    C24   29  -0.049   0.467  -0.030
    1UNL     O4   30  -0.046   0.326   0.161
    1UNL     H1   31   0.439   0.067   0.068
    1UNL     H2   32   0.588  -0.013   0.075
    1UNL     H3   33   0.486   0.009   0.228
    1UNL     H4   34   0.469  -0.252   0.086
    1UNL     H5   35   0.190  -0.356   0.117
    1UNL     H6   36   0.247  -0.329  -0.048
    1UNL     H7   37  -0.027  -0.287   0.174
    1UNL     H8   38   0.148  -0.151   0.285
    1UNL     H9   39   0.034  -0.014   0.249
    1UNL    H10   40   0.237   0.040   0.165
    1UNL    H11   41   0.341   0.270  -0.201
    1UNL    H12   42   0.436   0.131  -0.267
    1UNL    H13   43   0.311   0.198  -0.375
    1UNL    H14   44   0.142  -0.146  -0.175
    1UNL    H15   45  -0.131  -0.184  -0.134
    1UNL    H16   46  -0.082  -0.036  -0.231
    1UNL    H17   47  -0.279   0.195  -0.172
    1UNL    H18   48  -0.519   0.190  -0.202
    1UNL    H19   49  -0.662   0.023  -0.106
    1UNL    H20   50  -0.559  -0.163   0.011
    1UNL    H21   51  -0.285  -0.253   0.270
    1UNL    H22   52  -0.438  -0.250   0.171
    1UNL    H23   53  -0.312  -0.358   0.135
    1UNL    H24   54  -0.151  -0.047   0.186
    1UNL    H25   55  -0.006   0.131   0.118
    1UNL    H26   56  -0.128   0.530   0.022
    1UNL    H27   57  -0.080   0.457  -0.132
    1UNL    H28   58   0.044   0.524  -0.037
   0.00000   0.00000   0.00000   0.00000   0.00000   0.00000   0.00000   0.00000   0.00000
Generated with MDTraj, t= 62.0
 58
    1UNL     C1    1   0.496  -0.032   0.122
    1UNL     C2    2   0.416  -0.150   0.068
    1UNL     C3    3   0.285  -0.147   0.079
    1UNL     C4    4   0.213  -0.258   0.020
    1UNL     N1    5   0.075  -0.222  -0.015
    1UNL     C5    6  -0.011  -0.198   0.110
    1UNL     C6    7   0.074  -0.114   0.212
    1UNL     C7    8   0.182  -0.038   0.128
    1UNL     C8    9   0.113   0.023  -0.000
    1UNL     C9   10   0.219   0.111  -0.058
    1UNL     O1   11   0.290   0.189   0.008
    1UNL     O2   12   0.236   0.091  -0.196
    1UNL    C10   13   0.340   0.178  -0.254
    1UNL    C11   14   0.073  -0.099  -0.099
    1UNL    C12   15  -0.070  -0.088  -0.144
    1UNL    C13   16  -0.132  -0.013  -0.023
    1UNL    C14   17  -0.278   0.018  -0.041
    1UNL    C15   18  -0.330   0.136  -0.100
    1UNL    C16   19  -0.469   0.136  -0.115
    1UNL    C17   20  -0.547   0.035  -0.077
    1UNL    C18   21  -0.487  -0.081  -0.017
    1UNL    C19   22  -0.353  -0.087   0.012
    1UNL     N2   23  -0.275  -0.185   0.077
    1UNL    C20   24  -0.326  -0.276   0.174
    1UNL    C21   25  -0.144  -0.116   0.094
    1UNL    C22   26  -0.031   0.091   0.011
    1UNL     O3   27  -0.043   0.208  -0.073
    1UNL    C23   28  -0.033   0.321  -0.003
    1UNL    C24   29  -0.022   0.451  -0.069
    1UNL     O4   30  -0.030   0.320   0.119
    1UNL     H1   31   0.509   0.041   0.039
    1UNL     H2   32   0.604  -0.057   0.139
    1UNL     H3   33   0.452   0.015   0.214
    1UNL     H4   34   0.465  -0.229   0.029
    1UNL     H5   35   0.202  -0.341   0.087
    1UNL     H6   36   0.266  -0.293  -0.069
    1UNL     H7   37  -0.027  -0.301   0.140
    1UNL     H8   38   0.127  -0.182   0.281
    1UNL     H9   39   0.015  -0.035   0.256
    1UNL    H10   40   0.229   0.024   0.203
    1UNL    H11   41   0.298   0.274  -0.293
    1UNL    H12   42   0.412   0.205  -0.178
    1UNL    H13   43   0.388   0.111  -0.327
    1UNL    H14   44   0.150  -0.117  -0.174
    1UNL    H15   45  -0.113  -0.188  -0.162
    1UNL    H16   46  -0.087  -0.030  -0.236
    1UNL    H17   47  -0.272   0.217  -0.150
    1UNL    H18   48  -0.510   0.211  -0.189
    1UNL    H19   49  -0.653   0.036  -0.102
    1UNL    H20   50  -0.550  -0.171  -0.007
    1UNL    H21   51  -0.405  -0.230   0.237
    1UNL    H22   52  -0.362  -0.365   0.126
    1UNL    H23   53  -0.251  -0.302   0.238
    1UNL    H24   54  -0.155  -0.049   0.181
    1UNL    H25   55  -0.046   0.126   0.113
    1UNL    H26   56  -0.113   0.510  -0.043
    1UNL    H27   57  -0.017   0.433  -0.181
    1UNL    H28   58   0.062   0.502  -0.042
   0.00000   0.00000   0.00000   0.00000   0.00000   0.00000   0.00000   0.00000   0.00000
Generated with MDTraj, t= 63.0
 58
    1UNL     C1    1   0.466  -0.011   0.144
    1UNL     C2    2   0.405  -0.129   0.078
    1UNL     C3    3   0.279  -0.160   0.085
    1UNL     C4    4   0.209  -0.277   0.019
    1UNL     N1    5   0.071  -0.235  -0.019
    1UNL     C5    6  -0.006  -0.209   0.110
    1UNL     C6    7   0.076  -0.122   0.215
    1UNL     C7    8   0.181  -0.049   0.127
    1UNL     C8    9   0.116   0.014  -0.005
    1UNL     C9   10   0.219   0.105  -0.073
    1UNL     O1   11   0.261   0.197  -0.006
    1UNL     O2   12   0.246   0.081  -0.200
    1UNL    C10   13   0.321   0.192  -0.253
    1UNL    C11   14   0.073  -0.102  -0.104
    1UNL    C12   15  -0.066  -0.079  -0.139
    1UNL    C13   16  -0.125  -0.014  -0.011
    1UNL    C14   17  -0.265   0.030  -0.034
    1UNL    C15   18  -0.330   0.142  -0.088
    1UNL    C16   19  -0.471   0.146  -0.090
    1UNL    C17   20  -0.546   0.034  -0.061
    1UNL    C18   21  -0.488  -0.081  -0.016
    1UNL    C19   22  -0.353  -0.078   0.009
    1UNL     N2   23  -0.271  -0.182   0.060
    1UNL    C20   24  -0.321  -0.297   0.134
    1UNL    C21   25  -0.140  -0.127   0.099
    1UNL    C22   26  -0.018   0.092   0.026
    1UNL     O3   27  -0.034   0.201  -0.059
    1UNL    C23   28  -0.020   0.325   0.000
    1UNL    C24   29   0.000   0.429  -0.109
    1UNL     O4   30  -0.029   0.359   0.118
    1UNL     H1   31   0.425   0.086   0.110
    1UNL     H2   32   0.567  -0.002   0.101
    1UNL     H3   33   0.468  -0.023   0.260
    1UNL     H4   34   0.478  -0.196   0.022
    1UNL     H5   35   0.209  -0.360   0.083
    1UNL     H6   36   0.261  -0.309  -0.073
    1UNL     H7   37  -0.043  -0.302   0.156
    1UNL     H8   38   0.134  -0.189   0.281
    1UNL     H9   39   0.012  -0.054   0.267
    1UNL    H10   40   0.233   0.030   0.180
    1UNL    H11   41   0.270   0.288  -0.240
    1UNL    H12   42   0.410   0.206  -0.200
    1UNL    H13   43   0.346   0.154  -0.357
    1UNL    H14   44   0.134  -0.122  -0.192
    1UNL    H15   45  -0.121  -0.175  -0.169
    1UNL    H16   46  -0.090  -0.015  -0.221
    1UNL    H17   47  -0.270   0.227  -0.110
    1UNL    H18   48  -0.522   0.233  -0.113
    1UNL    H19   49  -0.652   0.028  -0.064
    1UNL    H20   50  -0.552  -0.152   0.028
    1UNL    H21   51  -0.405  -0.351   0.096
    1UNL    H22   52  -0.237  -0.357   0.157
    1UNL    H23   53  -0.350  -0.257   0.230
    1UNL    H24   54  -0.159  -0.070   0.190
    1UNL    H25   55  -0.021   0.124   0.131
    1UNL    H26   56  -0.091   0.473  -0.138
    1UNL    H27   57   0.040   0.365  -0.197
    1UNL    H28   58   0.078   0.501  -0.092
   0.00000   0.00000   0.00000   0.00000   0.00000   0.00000   0.00000   0.00000   0.00000
Generated with MDTraj, t= 64.0
 58
    1UNL     C1    1   0.493  -0.017   0.136
    1UNL     C2    2   0.418  -0.132   0.099
    1UNL     C3    3   0.288  -0.142   0.093
    1UNL     C4    4   0.217  -0.263   0.034
    1UNL     N1    5   0.077  -0.235   0.001
    1UNL     C5    6  -0.006  -0.198   0.121
    1UNL     C6    7   0.067  -0.100   0.211
    1UNL     C7    8   0.180  -0.035   0.127
    1UNL     C8    9   0.113   0.015  -0.007
    1UNL     C9   10   0.212   0.107  -0.082
    1UNL     O1   11   0.274   0.188  -0.017
    1UNL     O2   12   0.222   0.091  -0.213
    1UNL    C10   13   0.331   0.172  -0.264
    1UNL    C11   14   0.071  -0.114  -0.093
    1UNL    C12   15  -0.068  -0.085  -0.142
    1UNL    C13   16  -0.132  -0.013  -0.017
    1UNL    C14   17  -0.277   0.026  -0.030
    1UNL    C15   18  -0.340   0.140  -0.072
    1UNL    C16   19  -0.474   0.149  -0.075
    1UNL    C17   20  -0.556   0.039  -0.047
    1UNL    C18   21  -0.495  -0.081  -0.023
    1UNL    C19   22  -0.356  -0.086  -0.002
    1UNL     N2   23  -0.275  -0.182   0.062
    1UNL    C20   24  -0.325  -0.314   0.090
    1UNL    C21   25  -0.144  -0.121   0.096
    1UNL    C22   26  -0.018   0.094   0.023
    1UNL     O3   27  -0.031   0.202  -0.066
    1UNL    C23   28  -0.014   0.322  -0.003
    1UNL    C24   29   0.008   0.437  -0.090
    1UNL     O4   30  -0.026   0.337   0.116
    1UNL     H1   31   0.493   0.065   0.060
    1UNL     H2   32   0.598  -0.043   0.127
    1UNL     H3   33   0.478   0.020   0.245
    1UNL     H4   34   0.473  -0.222   0.071
    1UNL     H5   35   0.218  -0.335   0.110
    1UNL     H6   36   0.270  -0.310  -0.049
    1UNL     H7   37  -0.035  -0.290   0.173
    1UNL     H8   38   0.111  -0.155   0.294
    1UNL     H9   39   0.006  -0.025   0.257
    1UNL    H10   40   0.221   0.049   0.181
    1UNL    H11   41   0.343   0.262  -0.205
    1UNL    H12   42   0.422   0.125  -0.264
    1UNL    H13   43   0.300   0.192  -0.373
    1UNL    H14   44   0.138  -0.120  -0.179
    1UNL    H15   45  -0.134  -0.177  -0.158
    1UNL    H16   46  -0.080  -0.038  -0.238
    1UNL    H17   47  -0.287   0.231  -0.088
    1UNL    H18   48  -0.532   0.241  -0.097
    1UNL    H19   49  -0.662   0.058  -0.027
    1UNL    H20   50  -0.542  -0.169   0.022
    1UNL    H21   51  -0.258  -0.384   0.057
    1UNL    H22   52  -0.348  -0.331   0.194
    1UNL    H23   53  -0.416  -0.331   0.031
    1UNL    H24   54  -0.168  -0.064   0.185
    1UNL    H25   55  -0.026   0.128   0.128
    1UNL    H26   56  -0.080   0.492  -0.104
    1UNL    H27   57   0.051   0.401  -0.181
    1UNL    H28   58   0.089   0.506  -0.046
   0.00000   0.00000   0.00000   0.00000   0.00000   0.00000   0.00000   0.00000   0.00000
Generated with MDTraj, t= 65.0
 58
    1UNL     C1    1   0.481  -0.013   0.145
    1UNL     C2    2   0.405  -0.134   0.100
    1UNL     C3    3   0.274  -0.140   0.097
    1UNL     C4    4   0.199  -0.260   0.038
    1UNL     N1    5   0.066  -0.224   0.006
    1UNL     C5    6  -0.017  -0.193   0.125
    1UNL     C6    7   0.063  -0.088   0.212
    1UNL     C7    8   0.176  -0.027   0.125
    1UNL     C8    9   0.115   0.023  -0.008
    1UNL     C9   10   0.221   0.093  -0.083
    1UNL     O1   11   0.312   0.154  -0.031
    1UNL     O2   12   0.201   0.082  -0.223
    1UNL    C10   13   0.304   0.156  -0.290
    1UNL    C11   14   0.071  -0.106  -0.088
    1UNL    C12   15  -0.071  -0.076  -0.132
    1UNL    C13   16  -0.130  -0.006  -0.012
    1UNL    C14   17  -0.273   0.021  -0.042
    1UNL    C15   18  -0.329   0.140  -0.090
    1UNL    C16   19  -0.468   0.145  -0.091
    1UNL    C17   20  -0.546   0.034  -0.051
    1UNL    C18   21  -0.490  -0.082  -0.010
    1UNL    C19   22  -0.347  -0.091  -0.006
    1UNL     N2   23  -0.272  -0.192   0.065
    1UNL    C20   24  -0.289  -0.336   0.084
    1UNL    C21   25  -0.147  -0.116   0.102
    1UNL    C22   26  -0.019   0.107   0.015
    1UNL     O3   27  -0.029   0.222  -0.072
    1UNL    C23   28  -0.014   0.330   0.010
    1UNL    C24   29  -0.002   0.466  -0.053
    1UNL     O4   30  -0.015   0.322   0.130
    1UNL     H1   31   0.461   0.076   0.077
    1UNL     H2   32   0.585  -0.036   0.123
    1UNL     H3   33   0.470   0.006   0.255
    1UNL     H4   34   0.455  -0.215   0.060
    1UNL     H5   35   0.209  -0.346   0.099
    1UNL     H6   36   0.252  -0.289  -0.052
    1UNL     H7   37  -0.036  -0.290   0.174
    1UNL     H8   38   0.099  -0.124   0.310
    1UNL     H9   39   0.012  -0.003   0.257
    1UNL    H10   40   0.226   0.052   0.180
    1UNL    H11   41   0.277   0.260  -0.281
    1UNL    H12   42   0.398   0.133  -0.257
    1UNL    H13   43   0.288   0.129  -0.402
    1UNL    H14   44   0.136  -0.114  -0.176
    1UNL    H15   45  -0.130  -0.162  -0.176
    1UNL    H16   46  -0.075  -0.010  -0.218
    1UNL    H17   47  -0.276   0.225  -0.137
    1UNL    H18   48  -0.519   0.234  -0.132
    1UNL    H19   49  -0.652   0.045  -0.056
    1UNL    H20   50  -0.538  -0.174   0.017
    1UNL    H21   51  -0.275  -0.367   0.182
    1UNL    H22   52  -0.380  -0.381   0.044
    1UNL    H23   53  -0.208  -0.377   0.025
    1UNL    H24   54  -0.167  -0.063   0.194
    1UNL    H25   55  -0.024   0.138   0.122
    1UNL    H26   56  -0.083   0.529  -0.020
    1UNL    H27   57   0.007   0.462  -0.153
    1UNL    H28   58   0.095   0.517  -0.018
   0.00000   0.00000   0.00000   0.00000   0.00000   0.00000   0.00000   0.00000   0.00000
Generated with MDTraj, t= 66.0
 58
    1UNL     C1    1   0.491  -0.017   0.165
    1UNL     C2    2   0.420  -0.142   0.112
    1UNL     C3    3   0.289  -0.153   0.092
    1UNL     C4    4   0.211  -0.273   0.049
    1UNL     N1    5   0.069  -0.224   0.016
    1UNL     C5    6  -0.007  -0.186   0.139
    1UNL     C6    7   0.094  -0.085   0.216
    1UNL     C7    8   0.196  -0.038   0.121
    1UNL     C8    9   0.122   0.011  -0.014
    1UNL     C9   10   0.212   0.097  -0.112
    1UNL     O1   11   0.296   0.168  -0.063
    1UNL     O2   12   0.186   0.089  -0.242
    1UNL    C10   13   0.276   0.169  -0.311
    1UNL    C11   14   0.067  -0.117  -0.086
    1UNL    C12   15  -0.078  -0.081  -0.121
    1UNL    C13   16  -0.127  -0.004  -0.001
    1UNL    C14   17  -0.276   0.039  -0.039
    1UNL    C15   18  -0.334   0.143  -0.105
    1UNL    C16   19  -0.474   0.132  -0.132
    1UNL    C17   20  -0.549   0.022  -0.089
    1UNL    C18   21  -0.491  -0.082  -0.023
    1UNL    C19   22  -0.354  -0.076   0.006
    1UNL     N2   23  -0.276  -0.169   0.080
    1UNL    C20   24  -0.308  -0.306   0.064
    1UNL    C21   25  -0.143  -0.109   0.116
    1UNL    C22   26  -0.014   0.093   0.025
    1UNL     O3   27  -0.031   0.210  -0.045
    1UNL    C23   28  -0.012   0.322   0.036
    1UNL    C24   29  -0.021   0.454  -0.038
    1UNL     O4   30   0.007   0.323   0.155
    1UNL     H1   31   0.465   0.070   0.096
    1UNL     H2   32   0.600  -0.034   0.152
    1UNL     H3   33   0.466  -0.004   0.271
    1UNL     H4   34   0.489  -0.234   0.093
    1UNL     H5   35   0.213  -0.339   0.133
    1UNL     H6   36   0.266  -0.331  -0.024
    1UNL     H7   37  -0.024  -0.276   0.200
    1UNL     H8   38   0.147  -0.116   0.308
    1UNL     H9   39   0.046  -0.001   0.263
    1UNL    H10   40   0.245   0.055   0.145
    1UNL    H11   41   0.253   0.273  -0.290
    1UNL    H12   42   0.374   0.141  -0.291
    1UNL    H13   43   0.247   0.162  -0.425
    1UNL    H14   44   0.134  -0.141  -0.171
    1UNL    H15   45  -0.133  -0.175  -0.135
    1UNL    H16   46  -0.096  -0.023  -0.213
    1UNL    H17   47  -0.272   0.211  -0.153
    1UNL    H18   48  -0.519   0.204  -0.193
    1UNL    H19   49  -0.651   0.005  -0.118
    1UNL    H20   50  -0.546  -0.176  -0.014
    1UNL    H21   51  -0.414  -0.316   0.087
    1UNL    H22   52  -0.284  -0.342  -0.033
    1UNL    H23   53  -0.256  -0.357   0.140
    1UNL    H24   54  -0.165  -0.062   0.211
    1UNL    H25   55  -0.017   0.119   0.134
    1UNL    H26   56  -0.084   0.522   0.021
    1UNL    H27   57  -0.051   0.444  -0.140
    1UNL    H28   58   0.074   0.497  -0.039
   0.00000   0.00000   0.00000   0.00000   0.00000   0.00000   0.00000   0.00000   0.00000
Generated with MDTraj, t= 67.0
 58
    1UNL     C1    1   0.498  -0.032   0.143
    1UNL     C2    2   0.421  -0.155   0.094
    1UNL     C3    3   0.289  -0.150   0.087
    1UNL     C4    4   0.202  -0.271   0.050
    1UNL     N1    5   0.062  -0.228   0.017
    1UNL     C5    6  -0.010  -0.182   0.141
    1UNL     C6    7   0.096  -0.095   0.223
    1UNL     C7    8   0.195  -0.037   0.123
    1UNL     C8    9   0.121   0.011  -0.005
    1UNL     C9   10   0.200   0.095  -0.092
    1UNL     O1   11   0.289   0.167  -0.052
    1UNL     O2   12   0.161   0.093  -0.228
    1UNL    C10   13   0.240   0.173  -0.304
    1UNL    C11   14   0.069  -0.116  -0.082
    1UNL    C12   15  -0.078  -0.086  -0.125
    1UNL    C13   16  -0.128  -0.007  -0.004
    1UNL    C14   17  -0.275   0.036  -0.035
    1UNL    C15   18  -0.317   0.129  -0.125
    1UNL    C16   19  -0.452   0.126  -0.165
    1UNL    C17   20  -0.534   0.030  -0.115
    1UNL    C18   21  -0.483  -0.080  -0.036
    1UNL    C19   22  -0.354  -0.075   0.008
    1UNL     N2   23  -0.271  -0.155   0.089
    1UNL    C20   24  -0.275  -0.305   0.094
    1UNL    C21   25  -0.143  -0.091   0.115
    1UNL    C22   26  -0.016   0.094   0.026
    1UNL     O3   27  -0.046   0.216  -0.037
    1UNL    C23   28  -0.014   0.325   0.035
    1UNL    C24   29  -0.020   0.460  -0.028
    1UNL     O4   30   0.018   0.313   0.150
    1UNL     H1   31   0.529   0.035   0.057
    1UNL     H2   32   0.591  -0.058   0.203
    1UNL     H3   33   0.448   0.031   0.213
    1UNL     H4   34   0.469  -0.237   0.056
    1UNL     H5   35   0.213  -0.340   0.132
    1UNL     H6   36   0.251  -0.319  -0.031
    1UNL     H7   37  -0.052  -0.272   0.189
    1UNL     H8   38   0.151  -0.156   0.296
    1UNL     H9   39   0.051  -0.014   0.278
    1UNL    H10   40   0.238   0.049   0.171
    1UNL    H11   41   0.241   0.276  -0.265
    1UNL    H12   42   0.335   0.126  -0.315
    1UNL    H13   43   0.184   0.191  -0.406
    1UNL    H14   44   0.142  -0.139  -0.163
    1UNL    H15   45  -0.126  -0.179  -0.139
    1UNL    H16   46  -0.071  -0.029  -0.222
    1UNL    H17   47  -0.240   0.206  -0.160
    1UNL    H18   48  -0.493   0.205  -0.238
    1UNL    H19   49  -0.640   0.041  -0.135
    1UNL    H20   50  -0.554  -0.153  -0.008
    1UNL    H21   51  -0.368  -0.338   0.041
    1UNL    H22   52  -0.192  -0.351   0.055
    1UNL    H23   53  -0.292  -0.331   0.195
    1UNL    H24   54  -0.155  -0.025   0.202
    1UNL    H25   55  -0.025   0.108   0.136
    1UNL    H26   56  -0.071   0.527   0.039
    1UNL    H27   57  -0.063   0.458  -0.132
    1UNL    H28   58   0.074   0.494  -0.038
   0.00000   0.00000   0.00000   0.00000   0.00000   0.00000   0.00000   0.00000   0.00000
Generated with MDTraj, t= 68.0
 58
    1UNL     C1    1   0.493  -0.023   0.104
    1UNL     C2    2   0.406  -0.147   0.093
    1UNL     C3    3   0.274  -0.152   0.102
    1UNL     C4    4   0.188  -0.274   0.067
    1UNL     N1    5   0.058  -0.221   0.022
    1UNL     C5    6  -0.013  -0.186   0.143
    1UNL     C6    7   0.078  -0.086   0.223
    1UNL     C7    8   0.186  -0.028   0.127
    1UNL     C8    9   0.119   0.022  -0.001
    1UNL     C9   10   0.220   0.096  -0.096
    1UNL     O1   11   0.327   0.134  -0.055
    1UNL     O2   12   0.176   0.108  -0.222
    1UNL    C10   13   0.248   0.205  -0.293
    1UNL    C11   14   0.071  -0.109  -0.077
    1UNL    C12   15  -0.072  -0.075  -0.133
    1UNL    C13   16  -0.133  -0.005  -0.006
    1UNL    C14   17  -0.279   0.028  -0.029
    1UNL    C15   18  -0.324   0.124  -0.120
    1UNL    C16   19  -0.458   0.115  -0.154
    1UNL    C17   20  -0.537   0.007  -0.113
    1UNL    C18   21  -0.488  -0.094  -0.030
    1UNL    C19   22  -0.352  -0.081   0.008
    1UNL     N2   23  -0.273  -0.182   0.069
    1UNL    C20   24  -0.312  -0.321   0.109
    1UNL    C21   25  -0.146  -0.113   0.112
    1UNL    C22   26  -0.017   0.106   0.020
    1UNL     O3   27  -0.027   0.230  -0.060
    1UNL    C23   28   0.002   0.332   0.033
    1UNL    C24   29   0.000   0.468  -0.030
    1UNL     O4   30   0.020   0.320   0.155
    1UNL     H1   31   0.442   0.075   0.092
    1UNL     H2   32   0.578  -0.026   0.026
    1UNL     H3   33   0.565  -0.021   0.184
    1UNL     H4   34   0.455  -0.239   0.063
    1UNL     H5   35   0.179  -0.330   0.160
    1UNL     H6   36   0.234  -0.334  -0.006
    1UNL     H7   37  -0.037  -0.276   0.204
    1UNL     H8   38   0.134  -0.144   0.297
    1UNL     H9   39   0.019  -0.010   0.272
    1UNL    H10   40   0.248   0.054   0.160
    1UNL    H11   41   0.218   0.306  -0.261
    1UNL    H12   42   0.354   0.190  -0.275
    1UNL    H13   43   0.229   0.212  -0.407
    1UNL    H14   44   0.136  -0.134  -0.165
    1UNL    H15   45  -0.115  -0.167  -0.162
    1UNL    H16   46  -0.063  -0.001  -0.220
    1UNL    H17   47  -0.255   0.199  -0.144
    1UNL    H18   48  -0.489   0.199  -0.204
    1UNL    H19   49  -0.644   0.008  -0.135
    1UNL    H20   50  -0.570  -0.154   0.015
    1UNL    H21   51  -0.413  -0.337   0.068
    1UNL    H22   52  -0.246  -0.389   0.065
    1UNL    H23   53  -0.321  -0.334   0.214
    1UNL    H24   54  -0.168  -0.061   0.207
    1UNL    H25   55  -0.009   0.132   0.128
    1UNL    H26   56  -0.060   0.532   0.025
    1UNL    H27   57  -0.029   0.459  -0.135
    1UNL    H28   58   0.103   0.513  -0.031
   0.00000   0.00000   0.00000   0.00000   0.00000   0.00000   0.00000   0.00000   0.00000
Generated with MDTraj, t= 69.0
 58
    1UNL     C1    1   0.495  -0.021   0.127
    1UNL     C2    2   0.416  -0.140   0.080
    1UNL     C3    3   0.282  -0.141   0.079
    1UNL     C4    4   0.208  -0.266   0.058
    1UNL     N1    5   0.065  -0.230   0.018
    1UNL     C5    6  -0.011  -0.178   0.139
    1UNL     C6    7   0.082  -0.094   0.220
    1UNL     C7    8   0.189  -0.026   0.120
    1UNL     C8    9   0.111   0.017  -0.010
    1UNL     C9   10   0.207   0.109  -0.082
    1UNL     O1   11   0.310   0.148  -0.032
    1UNL     O2   12   0.174   0.138  -0.210
    1UNL    C10   13   0.276   0.200  -0.275
    1UNL    C11   14   0.074  -0.115  -0.080
    1UNL    C12   15  -0.068  -0.088  -0.138
    1UNL    C13   16  -0.135  -0.015  -0.022
    1UNL    C14   17  -0.283   0.022  -0.048
    1UNL    C15   18  -0.344   0.130  -0.110
    1UNL    C16   19  -0.476   0.130  -0.129
    1UNL    C17   20  -0.555   0.014  -0.103
    1UNL    C18   21  -0.491  -0.094  -0.041
    1UNL    C19   22  -0.357  -0.092  -0.012
    1UNL     N2   23  -0.276  -0.171   0.073
    1UNL    C20   24  -0.323  -0.299   0.140
    1UNL    C21   25  -0.146  -0.104   0.104
    1UNL    C22   26  -0.021   0.090   0.027
    1UNL     O3   27  -0.026   0.210  -0.053
    1UNL    C23   28   0.010   0.315   0.020
    1UNL    C24   29   0.018   0.440  -0.056
    1UNL     O4   30   0.024   0.313   0.141
    1UNL     H1   31   0.505  -0.003   0.235
    1UNL     H2   32   0.454   0.073   0.077
    1UNL     H3   33   0.584  -0.031   0.066
    1UNL     H4   34   0.473  -0.238   0.077
    1UNL     H5   35   0.204  -0.316   0.155
    1UNL     H6   36   0.253  -0.328  -0.014
    1UNL     H7   37  -0.034  -0.267   0.201
    1UNL     H8   38   0.135  -0.153   0.293
    1UNL     H9   39   0.021  -0.025   0.279
    1UNL    H10   40   0.237   0.057   0.170
    1UNL    H11   41   0.313   0.288  -0.224
    1UNL    H12   42   0.356   0.124  -0.295
    1UNL    H13   43   0.238   0.236  -0.375
    1UNL    H14   44   0.138  -0.132  -0.170
    1UNL    H15   45  -0.115  -0.184  -0.153
    1UNL    H16   46  -0.063  -0.022  -0.229
    1UNL    H17   47  -0.277   0.209  -0.140
    1UNL    H18   48  -0.524   0.216  -0.179
    1UNL    H19   49  -0.654   0.008  -0.140
    1UNL    H20   50  -0.543  -0.179  -0.007
    1UNL    H21   51  -0.416  -0.327   0.103
    1UNL    H22   52  -0.250  -0.372   0.106
    1UNL    H23   53  -0.328  -0.297   0.247
    1UNL    H24   54  -0.178  -0.037   0.188
    1UNL    H25   55  -0.031   0.119   0.135
    1UNL    H26   56  -0.058   0.507  -0.026
    1UNL    H27   57   0.015   0.417  -0.160
    1UNL    H28   58   0.120   0.493  -0.036
   0.00000   0.00000   0.00000   0.00000   0.00000   0.00000   0.00000   0.00000   0.00000
Generated with MDTraj, t= 70.0
 58
    1UNL     C1    1   0.483  -0.010   0.165
    1UNL     C2    2   0.404  -0.132   0.118
    1UNL     C3    3   0.274  -0.134   0.086
    1UNL     C4    4   0.210  -0.258   0.026
    1UNL     N1    5   0.066  -0.225  -0.015
    1UNL     C5    6  -0.010  -0.203   0.119
    1UNL     C6    7   0.082  -0.118   0.213
    1UNL     C7    8   0.181  -0.032   0.120
    1UNL     C8    9   0.108   0.018  -0.007
    1UNL     C9   10   0.208   0.103  -0.080
    1UNL     O1   11   0.287   0.167  -0.013
    1UNL     O2   12   0.196   0.100  -0.218
    1UNL    C10   13   0.271   0.202  -0.277
    1UNL    C11   14   0.071  -0.102  -0.101
    1UNL    C12   15  -0.070  -0.078  -0.146
    1UNL    C13   16  -0.131  -0.020  -0.019
    1UNL    C14   17  -0.273   0.011  -0.051
    1UNL    C15   18  -0.332   0.123  -0.105
    1UNL    C16   19  -0.470   0.135  -0.122
    1UNL    C17   20  -0.551   0.028  -0.077
    1UNL    C18   21  -0.496  -0.082  -0.018
    1UNL    C19   22  -0.357  -0.096  -0.012
    1UNL     N2   23  -0.275  -0.187   0.067
    1UNL    C20   24  -0.319  -0.291   0.159
    1UNL    C21   25  -0.145  -0.123   0.093
    1UNL    C22   26  -0.027   0.090   0.029
    1UNL     O3   27  -0.042   0.212  -0.050
    1UNL    C23   28   0.014   0.322   0.015
    1UNL    C24   29   0.021   0.439  -0.082
    1UNL     O4   30   0.051   0.334   0.132
    1UNL     H1   31   0.555  -0.021   0.244
    1UNL     H2   32   0.421   0.083   0.169
    1UNL     H3   33   0.538   0.009   0.070
    1UNL     H4   34   0.453  -0.220   0.114
    1UNL     H5   35   0.196  -0.339   0.098
    1UNL     H6   36   0.260  -0.289  -0.061
    1UNL     H7   37  -0.023  -0.306   0.157
    1UNL     H8   38   0.136  -0.186   0.277
    1UNL     H9   39   0.026  -0.054   0.282
    1UNL    H10   40   0.220   0.054   0.172
    1UNL    H11   41   0.320   0.261  -0.202
    1UNL    H12   42   0.356   0.160  -0.342
    1UNL    H13   43   0.219   0.275  -0.339
    1UNL    H14   44   0.143  -0.117  -0.186
    1UNL    H15   45  -0.115  -0.178  -0.164
    1UNL    H16   46  -0.069  -0.006  -0.229
    1UNL    H17   47  -0.260   0.201  -0.148
    1UNL    H18   48  -0.527   0.208  -0.178
    1UNL    H19   49  -0.662   0.034  -0.100
    1UNL    H20   50  -0.553  -0.175   0.005
    1UNL    H21   51  -0.381  -0.358   0.113
    1UNL    H22   52  -0.227  -0.348   0.183
    1UNL    H23   53  -0.365  -0.259   0.250
    1UNL    H24   54  -0.173  -0.060   0.182
    1UNL    H25   55  -0.039   0.124   0.134
    1UNL    H26   56  -0.069   0.508  -0.070
    1UNL    H27   57   0.025   0.403  -0.182
    1UNL    H28   58   0.109   0.505  -0.067
   0.00000   0.00000   0.00000   0.00000   0.00000   0.00000   0.00000   0.00000   0.00000
Generated with MDTraj, t= 71.0
 58
    1UNL     C1    1   0.481  -0.018   0.178
    1UNL     C2    2   0.415  -0.124   0.100
    1UNL     C3    3   0.282  -0.135   0.089
    1UNL     C4    4   0.217  -0.253   0.032
    1UNL     N1    5   0.074  -0.220  -0.012
    1UNL     C5    6  -0.008  -0.200   0.114
    1UNL     C6    7   0.078  -0.120   0.215
    1UNL     C7    8   0.177  -0.034   0.130
    1UNL     C8    9   0.110   0.023  -0.004
    1UNL     C9   10   0.215   0.114  -0.080
    1UNL     O1   11   0.295   0.178  -0.016
    1UNL     O2   12   0.204   0.116  -0.216
    1UNL    C10   13   0.296   0.196  -0.281
    1UNL    C11   14   0.069  -0.100  -0.098
    1UNL    C12   15  -0.074  -0.075  -0.152
    1UNL    C13   16  -0.136  -0.016  -0.021
    1UNL    C14   17  -0.279   0.007  -0.046
    1UNL    C15   18  -0.330   0.128  -0.091
    1UNL    C16   19  -0.470   0.136  -0.106
    1UNL    C17   20  -0.551   0.030  -0.063
    1UNL    C18   21  -0.498  -0.085  -0.010
    1UNL    C19   22  -0.358  -0.098  -0.004
    1UNL     N2   23  -0.279  -0.196   0.069
    1UNL    C20   24  -0.346  -0.288   0.149
    1UNL    C21   25  -0.146  -0.127   0.092
    1UNL    C22   26  -0.033   0.092   0.013
    1UNL     O3   27  -0.034   0.207  -0.078
    1UNL    C23   28   0.006   0.311  -0.002
    1UNL    C24   29   0.020   0.436  -0.072
    1UNL     O4   30   0.030   0.310   0.116
    1UNL     H1   31   0.466  -0.007   0.283
    1UNL     H2   32   0.463   0.074   0.122
    1UNL     H3   33   0.594  -0.018   0.168
    1UNL     H4   34   0.480  -0.217   0.076
    1UNL     H5   35   0.201  -0.333   0.102
    1UNL     H6   36   0.262  -0.283  -0.059
    1UNL     H7   37  -0.023  -0.300   0.158
    1UNL     H8   38   0.144  -0.181   0.276
    1UNL     H9   39   0.013  -0.064   0.285
    1UNL    H10   40   0.217   0.050   0.180
    1UNL    H11   41   0.308   0.286  -0.228
    1UNL    H12   42   0.401   0.147  -0.281
    1UNL    H13   43   0.276   0.219  -0.383
    1UNL    H14   44   0.146  -0.124  -0.176
    1UNL    H15   45  -0.125  -0.174  -0.175
    1UNL    H16   46  -0.079   0.001  -0.227
    1UNL    H17   47  -0.278   0.210  -0.119
    1UNL    H18   48  -0.510   0.229  -0.136
    1UNL    H19   49  -0.654   0.028  -0.063
    1UNL    H20   50  -0.550  -0.174   0.013
    1UNL    H21   51  -0.367  -0.379   0.097
    1UNL    H22   52  -0.287  -0.309   0.237
    1UNL    H23   53  -0.439  -0.250   0.180
    1UNL    H24   54  -0.163  -0.069   0.186
    1UNL    H25   55  -0.039   0.130   0.117
    1UNL    H26   56  -0.056   0.509  -0.023
    1UNL    H27   57   0.004   0.427  -0.182
    1UNL    H28   58   0.112   0.477  -0.051
   0.00000   0.00000   0.00000   0.00000   0.00000   0.00000   0.00000   0.00000   0.00000
Generated with MDTraj, t= 72.0
 58
    1UNL     C1    1   0.490  -0.007   0.150
    1UNL     C2    2   0.415  -0.132   0.104
    1UNL     C3    3   0.277  -0.146   0.090
    1UNL     C4    4   0.202  -0.272   0.054
    1UNL     N1    5   0.066  -0.230  -0.000
    1UNL     C5    6  -0.019  -0.194   0.125
    1UNL     C6    7   0.073  -0.110   0.214
    1UNL     C7    8   0.172  -0.034   0.125
    1UNL     C8    9   0.113   0.015  -0.015
    1UNL     C9   10   0.212   0.099  -0.090
    1UNL     O1   11   0.300   0.147  -0.023
    1UNL     O2   12   0.209   0.123  -0.230
    1UNL    C10   13   0.312   0.198  -0.280
    1UNL    C11   14   0.074  -0.111  -0.094
    1UNL    C12   15  -0.071  -0.089  -0.147
    1UNL    C13   16  -0.129  -0.011  -0.022
    1UNL    C14   17  -0.275   0.025  -0.043
    1UNL    C15   18  -0.339   0.135  -0.094
    1UNL    C16   19  -0.478   0.130  -0.107
    1UNL    C17   20  -0.550   0.025  -0.061
    1UNL    C18   21  -0.489  -0.091  -0.009
    1UNL    C19   22  -0.351  -0.089   0.000
    1UNL     N2   23  -0.265  -0.190   0.046
    1UNL    C20   24  -0.317  -0.300   0.130
    1UNL    C21   25  -0.145  -0.115   0.089
    1UNL    C22   26  -0.019   0.093   0.018
    1UNL     O3   27  -0.034   0.216  -0.060
    1UNL    C23   28  -0.009   0.328   0.014
    1UNL    C24   29   0.011   0.455  -0.073
    1UNL     O4   30  -0.001   0.326   0.134
    1UNL     H1   31   0.434   0.063   0.208
    1UNL     H2   32   0.523   0.041   0.060
    1UNL     H3   33   0.578  -0.028   0.220
    1UNL     H4   34   0.479  -0.214   0.106
    1UNL     H5   35   0.181  -0.336   0.136
    1UNL     H6   36   0.246  -0.322  -0.028
    1UNL     H7   37  -0.054  -0.293   0.160
    1UNL     H8   38   0.127  -0.176   0.281
    1UNL     H9   39   0.015  -0.039   0.276
    1UNL    H10   40   0.218   0.038   0.189
    1UNL    H11   41   0.281   0.298  -0.286
    1UNL    H12   42   0.409   0.191  -0.218
    1UNL    H13   43   0.327   0.160  -0.377
    1UNL    H14   44   0.152  -0.139  -0.167
    1UNL    H15   45  -0.136  -0.181  -0.166
    1UNL    H16   46  -0.079  -0.017  -0.225
    1UNL    H17   47  -0.292   0.235  -0.108
    1UNL    H18   48  -0.536   0.222  -0.133
    1UNL    H19   49  -0.662   0.030  -0.054
    1UNL    H20   50  -0.534  -0.183   0.028
    1UNL    H21   51  -0.400  -0.361   0.087
    1UNL    H22   52  -0.244  -0.357   0.175
    1UNL    H23   53  -0.367  -0.251   0.208
    1UNL    H24   54  -0.168  -0.048   0.176
    1UNL    H25   55  -0.027   0.123   0.123
    1UNL    H26   56  -0.038   0.538  -0.020
    1UNL    H27   57  -0.037   0.442  -0.179
    1UNL    H28   58   0.111   0.485  -0.085
   0.00000   0.00000   0.00000   0.00000   0.00000   0.00000   0.00000   0.00000   0.00000
Generated with MDTraj, t= 73.0
 58
    1UNL     C1    1   0.505  -0.027   0.135
    1UNL     C2    2   0.418  -0.140   0.092
    1UNL     C3    3   0.285  -0.144   0.094
    1UNL     C4    4   0.210  -0.272   0.052
    1UNL     N1    5   0.063  -0.227   0.011
    1UNL     C5    6  -0.015  -0.193   0.133
    1UNL     C6    7   0.084  -0.100   0.218
    1UNL     C7    8   0.186  -0.036   0.130
    1UNL     C8    9   0.116   0.015  -0.002
    1UNL     C9   10   0.218   0.101  -0.087
    1UNL     O1   11   0.299   0.165  -0.024
    1UNL     O2   12   0.209   0.081  -0.220
    1UNL    C10   13   0.271   0.183  -0.297
    1UNL    C11   14   0.070  -0.112  -0.083
    1UNL    C12   15  -0.068  -0.078  -0.136
    1UNL    C13   16  -0.136  -0.004  -0.012
    1UNL    C14   17  -0.275   0.036  -0.046
    1UNL    C15   18  -0.330   0.141  -0.105
    1UNL    C16   19  -0.471   0.139  -0.124
    1UNL    C17   20  -0.546   0.029  -0.086
    1UNL    C18   21  -0.487  -0.079  -0.027
    1UNL    C19   22  -0.351  -0.080  -0.007
    1UNL     N2   23  -0.261  -0.175   0.056
    1UNL    C20   24  -0.294  -0.302   0.114
    1UNL    C21   25  -0.143  -0.113   0.103
    1UNL    C22   26  -0.020   0.094   0.022
    1UNL     O3   27  -0.041   0.208  -0.057
    1UNL    C23   28  -0.028   0.320   0.022
    1UNL    C24   29  -0.005   0.445  -0.058
    1UNL     O4   30  -0.028   0.332   0.141
    1UNL     H1   31   0.552  -0.045   0.232
    1UNL     H2   32   0.453   0.065   0.139
    1UNL     H3   33   0.595  -0.022   0.068
    1UNL     H4   34   0.461  -0.239   0.078
    1UNL     H5   35   0.197  -0.343   0.126
    1UNL     H6   36   0.248  -0.323  -0.035
    1UNL     H7   37  -0.045  -0.286   0.184
    1UNL     H8   38   0.144  -0.166   0.280
    1UNL     H9   39   0.035  -0.026   0.285
    1UNL    H10   40   0.231   0.055   0.165
    1UNL    H11   41   0.288   0.268  -0.234
    1UNL    H12   42   0.377   0.150  -0.328
    1UNL    H13   43   0.216   0.197  -0.383
    1UNL    H14   44   0.146  -0.143  -0.156
    1UNL    H15   45  -0.142  -0.161  -0.154
    1UNL    H16   46  -0.073  -0.011  -0.221
    1UNL    H17   47  -0.273   0.237  -0.115
    1UNL    H18   48  -0.522   0.220  -0.166
    1UNL    H19   49  -0.651   0.033  -0.102
    1UNL    H20   50  -0.554  -0.156   0.010
    1UNL    H21   51  -0.402  -0.322   0.094
    1UNL    H22   52  -0.229  -0.375   0.080
    1UNL    H23   53  -0.291  -0.303   0.219
    1UNL    H24   54  -0.164  -0.062   0.199
    1UNL    H25   55  -0.014   0.135   0.123
    1UNL    H26   56  -0.046   0.527  -0.007
    1UNL    H27   57  -0.054   0.427  -0.158
    1UNL    H28   58   0.108   0.468  -0.069
   0.00000   0.00000   0.00000   0.00000   0.00000   0.00000   0.00000   0.00000   0.00000
Generated with MDTraj, t= 74.0
 58
    1UNL     C1    1   0.490  -0.033   0.123
    1UNL     C2    2   0.415  -0.153   0.096
    1UNL     C3    3   0.283  -0.158   0.084
    1UNL     C4    4   0.204  -0.274   0.046
    1UNL     N1    5   0.064  -0.232   0.016
    1UNL     C5    6  -0.002  -0.191   0.144
    1UNL     C6    7   0.094  -0.093   0.220
    1UNL     C7    8   0.200  -0.034   0.121
    1UNL     C8    9   0.125   0.019  -0.010
    1UNL     C9   10   0.216   0.110  -0.087
    1UNL     O1   11   0.281   0.201  -0.033
    1UNL     O2   12   0.197   0.088  -0.225
    1UNL    C10   13   0.277   0.162  -0.314
    1UNL    C11   14   0.071  -0.114  -0.081
    1UNL    C12   15  -0.070  -0.085  -0.120
    1UNL    C13   16  -0.123  -0.013   0.003
    1UNL    C14   17  -0.265   0.029  -0.027
    1UNL    C15   18  -0.314   0.134  -0.105
    1UNL    C16   19  -0.446   0.139  -0.144
    1UNL    C17   20  -0.528   0.034  -0.107
    1UNL    C18   21  -0.479  -0.077  -0.042
    1UNL    C19   22  -0.345  -0.079  -0.000
    1UNL     N2   23  -0.281  -0.167   0.083
    1UNL    C20   24  -0.326  -0.311   0.104
    1UNL    C21   25  -0.137  -0.113   0.121
    1UNL    C22   26  -0.009   0.096   0.028
    1UNL     O3   27  -0.028   0.213  -0.051
    1UNL    C23   28  -0.036   0.326   0.023
    1UNL    C24   29  -0.027   0.462  -0.042
    1UNL     O4   30  -0.044   0.319   0.142
    1UNL     H1   31   0.598  -0.045   0.099
    1UNL     H2   32   0.481  -0.003   0.227
    1UNL     H3   33   0.467   0.052   0.059
    1UNL     H4   34   0.466  -0.253   0.105
    1UNL     H5   35   0.207  -0.349   0.118
    1UNL     H6   36   0.238  -0.314  -0.047
    1UNL     H7   37  -0.021  -0.283   0.203
    1UNL     H8   38   0.141  -0.144   0.306
    1UNL     H9   39   0.036  -0.010   0.263
    1UNL    H10   40   0.252   0.045   0.174
    1UNL    H11   41   0.333   0.242  -0.264
    1UNL    H12   42   0.358   0.089  -0.353
    1UNL    H13   43   0.222   0.180  -0.399
    1UNL    H14   44   0.140  -0.131  -0.163
    1UNL    H15   45  -0.133  -0.170  -0.146
    1UNL    H16   46  -0.079  -0.012  -0.204
    1UNL    H17   47  -0.256   0.208  -0.143
    1UNL    H18   48  -0.475   0.219  -0.214
    1UNL    H19   49  -0.626   0.027  -0.148
    1UNL    H20   50  -0.546  -0.154  -0.017
    1UNL    H21   51  -0.430  -0.320   0.078
    1UNL    H22   52  -0.263  -0.369   0.041
    1UNL    H23   53  -0.323  -0.355   0.200
    1UNL    H24   54  -0.151  -0.057   0.214
    1UNL    H25   55  -0.019   0.132   0.129
    1UNL    H26   56  -0.091   0.537   0.001
    1UNL    H27   57  -0.049   0.444  -0.146
    1UNL    H28   58   0.081   0.510  -0.032
   0.00000   0.00000   0.00000   0.00000   0.00000   0.00000   0.00000   0.00000   0.00000
Generated with MDTraj, t= 75.0
 58
    1UNL     C1    1   0.494  -0.019   0.116
    1UNL     C2    2   0.417  -0.137   0.076
    1UNL     C3    3   0.283  -0.152   0.085
    1UNL     C4    4   0.208  -0.271   0.041
    1UNL     N1    5   0.067  -0.234   0.014
    1UNL     C5    6  -0.013  -0.181   0.138
    1UNL     C6    7   0.081  -0.096   0.221
    1UNL     C7    8   0.193  -0.038   0.123
    1UNL     C8    9   0.123   0.018  -0.007
    1UNL     C9   10   0.228   0.084  -0.090
    1UNL     O1   11   0.318   0.137  -0.028
    1UNL     O2   12   0.203   0.082  -0.224
    1UNL    C10   13   0.290   0.161  -0.301
    1UNL    C11   14   0.068  -0.116  -0.085
    1UNL    C12   15  -0.070  -0.084  -0.130
    1UNL    C13   16  -0.127   0.002  -0.010
    1UNL    C14   17  -0.272   0.031  -0.043
    1UNL    C15   18  -0.325   0.130  -0.126
    1UNL    C16   19  -0.462   0.135  -0.146
    1UNL    C17   20  -0.541   0.029  -0.104
    1UNL    C18   21  -0.489  -0.076  -0.032
    1UNL    C19   22  -0.351  -0.078   0.005
    1UNL     N2   23  -0.278  -0.166   0.088
    1UNL    C20   24  -0.300  -0.299   0.122
    1UNL    C21   25  -0.142  -0.098   0.113
    1UNL    C22   26  -0.008   0.102   0.023
    1UNL     O3   27   0.001   0.225  -0.046
    1UNL    C23   28  -0.038   0.332   0.034
    1UNL    C24   29  -0.054   0.470  -0.024
    1UNL     O4   30  -0.063   0.320   0.152
    1UNL     H1   31   0.534   0.033   0.028
    1UNL     H2   32   0.580  -0.062   0.174
    1UNL     H3   33   0.448   0.058   0.172
    1UNL     H4   34   0.467  -0.225   0.065
    1UNL     H5   35   0.207  -0.344   0.117
    1UNL     H6   36   0.255  -0.319  -0.044
    1UNL     H7   37  -0.036  -0.273   0.194
    1UNL     H8   38   0.130  -0.157   0.299
    1UNL     H9   39   0.025  -0.017   0.272
    1UNL    H10   40   0.260   0.034   0.170
    1UNL    H11   41   0.254   0.265  -0.315
    1UNL    H12   42   0.389   0.170  -0.241
    1UNL    H13   43   0.314   0.102  -0.384
    1UNL    H14   44   0.131  -0.130  -0.172
    1UNL    H15   45  -0.126  -0.172  -0.151
    1UNL    H16   46  -0.071  -0.034  -0.233
    1UNL    H17   47  -0.246   0.192  -0.181
    1UNL    H18   48  -0.509   0.207  -0.208
    1UNL    H19   49  -0.649   0.033  -0.133
    1UNL    H20   50  -0.556  -0.163  -0.006
    1UNL    H21   51  -0.402  -0.306   0.106
    1UNL    H22   52  -0.235  -0.351   0.050
    1UNL    H23   53  -0.280  -0.336   0.220
    1UNL    H24   54  -0.167  -0.043   0.203
    1UNL    H25   55  -0.009   0.128   0.128
    1UNL    H26   56  -0.157   0.516  -0.005
    1UNL    H27   57  -0.041   0.465  -0.130
    1UNL    H28   58   0.010   0.549   0.015
   0.00000   0.00000   0.00000   0.00000   0.00000   0.00000   0.00000   0.00000   0.00000
Generated with MDTraj, t= 76.0
 58
    1UNL     C1    1   0.519  -0.061   0.125
    1UNL     C2    2   0.421  -0.165   0.091
    1UNL     C3    3   0.287  -0.153   0.101
    1UNL     C4    4   0.196  -0.271   0.059
    1UNL     N1    5   0.070  -0.222   0.011
    1UNL     C5    6  -0.007  -0.179   0.132
    1UNL     C6    7   0.083  -0.081   0.212
    1UNL     C7    8   0.202  -0.029   0.124
    1UNL     C8    9   0.128   0.023  -0.012
    1UNL     C9   10   0.221   0.100  -0.093
    1UNL     O1   11   0.315   0.148  -0.036
    1UNL     O2   12   0.200   0.108  -0.227
    1UNL    C10   13   0.311   0.165  -0.303
    1UNL    C11   14   0.075  -0.104  -0.090
    1UNL    C12   15  -0.068  -0.077  -0.139
    1UNL    C13   16  -0.122  -0.006  -0.019
    1UNL    C14   17  -0.271   0.034  -0.039
    1UNL    C15   18  -0.323   0.136  -0.116
    1UNL    C16   19  -0.458   0.139  -0.141
    1UNL    C17   20  -0.539   0.032  -0.092
    1UNL    C18   21  -0.489  -0.072  -0.018
    1UNL    C19   22  -0.357  -0.071   0.011
    1UNL     N2   23  -0.272  -0.172   0.066
    1UNL    C20   24  -0.302  -0.295   0.131
    1UNL    C21   25  -0.143  -0.101   0.102
    1UNL    C22   26  -0.010   0.096   0.011
    1UNL     O3   27  -0.017   0.216  -0.049
    1UNL    C23   28  -0.056   0.317   0.033
    1UNL    C24   29  -0.058   0.448  -0.032
    1UNL     O4   30  -0.091   0.308   0.150
    1UNL     H1   31   0.475   0.038   0.112
    1UNL     H2   32   0.602  -0.072   0.050
    1UNL     H3   33   0.556  -0.068   0.223
    1UNL     H4   34   0.455  -0.275   0.077
    1UNL     H5   35   0.189  -0.341   0.139
    1UNL     H6   36   0.241  -0.330  -0.018
    1UNL     H7   37  -0.022  -0.270   0.192
    1UNL     H8   38   0.125  -0.136   0.299
    1UNL     H9   39   0.023   0.000   0.253
    1UNL    H10   40   0.261   0.058   0.158
    1UNL    H11   41   0.329   0.128  -0.408
    1UNL    H12   42   0.291   0.276  -0.310
    1UNL    H13   43   0.393   0.144  -0.235
    1UNL    H14   44   0.135  -0.126  -0.176
    1UNL    H15   45  -0.118  -0.166  -0.171
    1UNL    H16   46  -0.061  -0.014  -0.234
    1UNL    H17   47  -0.252   0.200  -0.162
    1UNL    H18   48  -0.503   0.233  -0.180
    1UNL    H19   49  -0.641   0.049  -0.098
    1UNL    H20   50  -0.557  -0.144   0.013
    1UNL    H21   51  -0.402  -0.320   0.127
    1UNL    H22   52  -0.223  -0.366   0.103
    1UNL    H23   53  -0.286  -0.280   0.236
    1UNL    H24   54  -0.174  -0.043   0.188
    1UNL    H25   55  -0.014   0.119   0.116
    1UNL    H26   56  -0.164   0.473  -0.072
    1UNL    H27   57   0.007   0.442  -0.119
    1UNL    H28   58  -0.035   0.527   0.028
   0.00000   0.00000   0.00000   0.00000   0.00000   0.00000   0.00000   0.00000   0.00000
Generated with MDTraj, t= 77.0
 58
    1UNL     C1    1   0.498  -0.053   0.158
    1UNL     C2    2   0.420  -0.160   0.095
    1UNL     C3    3   0.286  -0.167   0.089
    1UNL     C4    4   0.207  -0.283   0.037
    1UNL     N1    5   0.073  -0.231  -0.005
    1UNL     C5    6  -0.004  -0.194   0.118
    1UNL     C6    7   0.092  -0.108   0.215
    1UNL     C7    8   0.203  -0.050   0.124
    1UNL     C8    9   0.134   0.007  -0.010
    1UNL     C9   10   0.226   0.091  -0.093
    1UNL     O1   11   0.299   0.170  -0.038
    1UNL     O2   12   0.213   0.084  -0.230
    1UNL    C10   13   0.276   0.189  -0.292
    1UNL    C11   14   0.081  -0.116  -0.097
    1UNL    C12   15  -0.063  -0.073  -0.139
    1UNL    C13   16  -0.110  -0.005  -0.015
    1UNL    C14   17  -0.257   0.046  -0.027
    1UNL    C15   18  -0.316   0.155  -0.092
    1UNL    C16   19  -0.451   0.151  -0.123
    1UNL    C17   20  -0.531   0.047  -0.083
    1UNL    C18   21  -0.471  -0.067  -0.023
    1UNL    C19   22  -0.336  -0.065   0.009
    1UNL     N2   23  -0.259  -0.167   0.075
    1UNL    C20   24  -0.327  -0.266   0.147
    1UNL    C21   25  -0.129  -0.108   0.105
    1UNL    C22   26   0.006   0.098   0.018
    1UNL     O3   27  -0.014   0.214  -0.055
    1UNL    C23   28  -0.074   0.316   0.013
    1UNL    C24   29  -0.072   0.453  -0.055
    1UNL     O4   30  -0.126   0.299   0.125
    1UNL     H1   31   0.438   0.026   0.202
    1UNL     H2   32   0.554  -0.002   0.078
    1UNL     H3   33   0.567  -0.078   0.236
    1UNL     H4   34   0.468  -0.248   0.066
    1UNL     H5   35   0.203  -0.355   0.116
    1UNL     H6   36   0.263  -0.334  -0.036
    1UNL     H7   37  -0.038  -0.290   0.160
    1UNL     H8   38   0.137  -0.176   0.291
    1UNL     H9   39   0.042  -0.034   0.277
    1UNL    H10   40   0.249   0.027   0.191
    1UNL    H11   41   0.371   0.219  -0.229
    1UNL    H12   42   0.287   0.158  -0.398
    1UNL    H13   43   0.199   0.265  -0.276
    1UNL    H14   44   0.150  -0.135  -0.178
    1UNL    H15   45  -0.108  -0.165  -0.173
    1UNL    H16   46  -0.057  -0.004  -0.228
    1UNL    H17   47  -0.256   0.237  -0.118
    1UNL    H18   48  -0.492   0.238  -0.167
    1UNL    H19   49  -0.643   0.051  -0.090
    1UNL    H20   50  -0.533  -0.153  -0.001
    1UNL    H21   51  -0.413  -0.299   0.092
    1UNL    H22   52  -0.266  -0.342   0.194
    1UNL    H23   53  -0.375  -0.213   0.227
    1UNL    H24   54  -0.146  -0.057   0.199
    1UNL    H25   55   0.009   0.129   0.121
    1UNL    H26   56  -0.160   0.467  -0.115
    1UNL    H27   57   0.014   0.450  -0.123
    1UNL    H28   58  -0.069   0.531   0.017
   0.00000   0.00000   0.00000   0.00000   0.00000   0.00000   0.00000   0.00000   0.00000
Generated with MDTraj, t= 78.0
 58
    1UNL     C1    1   0.498  -0.053   0.157
    1UNL     C2    2   0.425  -0.160   0.089
    1UNL     C3    3   0.289  -0.160   0.078
    1UNL     C4    4   0.221  -0.281   0.015
    1UNL     N1    5   0.078  -0.232  -0.005
    1UNL     C5    6   0.000  -0.203   0.114
    1UNL     C6    7   0.097  -0.119   0.209
    1UNL     C7    8   0.196  -0.055   0.125
    1UNL     C8    9   0.130   0.009   0.003
    1UNL     C9   10   0.232   0.095  -0.085
    1UNL     O1   11   0.310   0.168  -0.031
    1UNL     O2   12   0.209   0.089  -0.219
    1UNL    C10   13   0.294   0.188  -0.277
    1UNL    C11   14   0.085  -0.113  -0.091
    1UNL    C12   15  -0.060  -0.073  -0.141
    1UNL    C13   16  -0.116  -0.003  -0.018
    1UNL    C14   17  -0.256   0.037  -0.054
    1UNL    C15   18  -0.313   0.145  -0.111
    1UNL    C16   19  -0.448   0.159  -0.108
    1UNL    C17   20  -0.529   0.061  -0.062
    1UNL    C18   21  -0.476  -0.055  -0.005
    1UNL    C19   22  -0.339  -0.060   0.002
    1UNL     N2   23  -0.269  -0.159   0.081
    1UNL    C20   24  -0.334  -0.257   0.169
    1UNL    C21   25  -0.131  -0.107   0.100
    1UNL    C22   26  -0.003   0.095   0.022
    1UNL     O3   27  -0.012   0.208  -0.057
    1UNL    C23   28  -0.084   0.306   0.002
    1UNL    C24   29  -0.079   0.443  -0.063
    1UNL     O4   30  -0.149   0.297   0.106
    1UNL     H1   31   0.499  -0.073   0.264
    1UNL     H2   32   0.445   0.037   0.134
    1UNL     H3   33   0.602  -0.036   0.121
    1UNL     H4   34   0.477  -0.251   0.063
    1UNL     H5   35   0.228  -0.363   0.087
    1UNL     H6   36   0.272  -0.318  -0.070
    1UNL     H7   37  -0.031  -0.295   0.165
    1UNL     H8   38   0.143  -0.183   0.288
    1UNL     H9   39   0.049  -0.038   0.264
    1UNL    H10   40   0.256   0.024   0.179
    1UNL    H11   41   0.223   0.285  -0.271
    1UNL    H12   42   0.385   0.192  -0.212
    1UNL    H13   43   0.333   0.163  -0.375
    1UNL    H14   44   0.147  -0.122  -0.180
    1UNL    H15   45  -0.120  -0.161  -0.172
    1UNL    H16   46  -0.060  -0.001  -0.226
    1UNL    H17   47  -0.239   0.229  -0.137
    1UNL    H18   48  -0.490   0.246  -0.162
    1UNL    H19   49  -0.632   0.061  -0.081
    1UNL    H20   50  -0.536  -0.142   0.035
    1UNL    H21   51  -0.318  -0.360   0.133
    1UNL    H22   52  -0.302  -0.244   0.267
    1UNL    H23   53  -0.440  -0.248   0.167
    1UNL    H24   54  -0.134  -0.048   0.192
    1UNL    H25   55   0.006   0.127   0.126
    1UNL    H26   56  -0.165   0.464  -0.108
    1UNL    H27   57   0.001   0.436  -0.137
    1UNL    H28   58  -0.060   0.516   0.020
   0.00000   0.00000   0.00000   0.00000   0.00000   0.00000   0.00000   0.00000   0.00000
Generated with MDTraj, t= 79.0
 58
    1UNL     C1    1   0.507  -0.047   0.113
    1UNL     C2    2   0.417  -0.165   0.098
    1UNL     C3    3   0.282  -0.161   0.083
    1UNL     C4    4   0.201  -0.276   0.020
    1UNL     N1    5   0.062  -0.225  -0.005
    1UNL     C5    6  -0.011  -0.198   0.121
    1UNL     C6    7   0.085  -0.098   0.205
    1UNL     C7    8   0.197  -0.044   0.116
    1UNL     C8    9   0.134   0.018  -0.014
    1UNL     C9   10   0.240   0.097  -0.084
    1UNL     O1   11   0.330   0.147  -0.022
    1UNL     O2   12   0.229   0.115  -0.223
    1UNL    C10   13   0.345   0.183  -0.251
    1UNL    C11   14   0.084  -0.100  -0.092
    1UNL    C12   15  -0.064  -0.078  -0.147
    1UNL    C13   16  -0.120  -0.009  -0.019
    1UNL    C14   17  -0.263   0.028  -0.052
    1UNL    C15   18  -0.321   0.130  -0.123
    1UNL    C16   19  -0.458   0.148  -0.120
    1UNL    C17   20  -0.545   0.061  -0.050
    1UNL    C18   21  -0.486  -0.050   0.005
    1UNL    C19   22  -0.350  -0.066   0.011
    1UNL     N2   23  -0.271  -0.164   0.081
    1UNL    C20   24  -0.319  -0.268   0.174
    1UNL    C21   25  -0.139  -0.107   0.096
    1UNL    C22   26  -0.003   0.096   0.018
    1UNL     O3   27  -0.009   0.213  -0.057
    1UNL    C23   28  -0.083   0.307   0.008
    1UNL    C24   29  -0.084   0.438  -0.057
    1UNL     O4   30  -0.138   0.284   0.113
    1UNL     H1   31   0.514  -0.014   0.215
    1UNL     H2   32   0.470   0.032   0.054
    1UNL     H3   33   0.613  -0.064   0.076
    1UNL     H4   34   0.468  -0.266   0.081
    1UNL     H5   35   0.213  -0.357   0.092
    1UNL     H6   36   0.244  -0.304  -0.071
    1UNL     H7   37  -0.046  -0.291   0.166
    1UNL     H8   38   0.130  -0.161   0.285
    1UNL     H9   39   0.034  -0.016   0.256
    1UNL    H10   40   0.256   0.031   0.176
    1UNL    H11   41   0.331   0.202  -0.369
    1UNL    H12   42   0.339   0.274  -0.187
    1UNL    H13   43   0.432   0.131  -0.212
    1UNL    H14   44   0.155  -0.117  -0.173
    1UNL    H15   45  -0.119  -0.175  -0.172
    1UNL    H16   46  -0.061  -0.016  -0.234
    1UNL    H17   47  -0.263   0.203  -0.171
    1UNL    H18   48  -0.496   0.228  -0.181
    1UNL    H19   49  -0.653   0.073  -0.063
    1UNL    H20   50  -0.541  -0.122   0.052
    1UNL    H21   51  -0.229  -0.307   0.224
    1UNL    H22   52  -0.382  -0.236   0.250
    1UNL    H23   53  -0.357  -0.353   0.124
    1UNL    H24   54  -0.150  -0.039   0.182
    1UNL    H25   55  -0.017   0.117   0.124
    1UNL    H26   56  -0.185   0.473  -0.073
    1UNL    H27   57  -0.038   0.431  -0.149
    1UNL    H28   58  -0.036   0.509   0.014
   0.00000   0.00000   0.00000   0.00000   0.00000   0.00000   0.00000   0.00000   0.00000
Generated with MDTraj, t= 80.0
 58
    1UNL     C1    1   0.507  -0.057   0.109
    1UNL     C2    2   0.417  -0.160   0.065
    1UNL     C3    3   0.285  -0.164   0.082
    1UNL     C4    4   0.210  -0.281   0.027
    1UNL     N1    5   0.068  -0.232   0.000
    1UNL     C5    6  -0.009  -0.188   0.123
    1UNL     C6    7   0.086  -0.112   0.216
    1UNL     C7    8   0.199  -0.047   0.127
    1UNL     C8    9   0.130   0.013  -0.005
    1UNL     C9   10   0.237   0.100  -0.083
    1UNL     O1   11   0.314   0.174  -0.026
    1UNL     O2   12   0.236   0.076  -0.214
    1UNL    C10   13   0.327   0.176  -0.266
    1UNL    C11   14   0.072  -0.115  -0.094
    1UNL    C12   15  -0.071  -0.078  -0.136
    1UNL    C13   16  -0.120   0.003  -0.014
    1UNL    C14   17  -0.265   0.034  -0.030
    1UNL    C15   18  -0.319   0.148  -0.094
    1UNL    C16   19  -0.457   0.156  -0.124
    1UNL    C17   20  -0.539   0.047  -0.093
    1UNL    C18   21  -0.485  -0.062  -0.029
    1UNL    C19   22  -0.345  -0.076   0.007
    1UNL     N2   23  -0.263  -0.169   0.076
    1UNL    C20   24  -0.315  -0.263   0.170
    1UNL    C21   25  -0.135  -0.099   0.106
    1UNL    C22   26   0.000   0.100   0.021
    1UNL     O3   27  -0.002   0.223  -0.060
    1UNL    C23   28  -0.078   0.315   0.015
    1UNL    C24   29  -0.103   0.450  -0.053
    1UNL     O4   30  -0.126   0.297   0.124
    1UNL     H1   31   0.463   0.015   0.176
    1UNL     H2   32   0.543  -0.002   0.024
    1UNL     H3   33   0.595  -0.100   0.161
    1UNL     H4   34   0.456  -0.241   0.020
    1UNL     H5   35   0.208  -0.358   0.105
    1UNL     H6   36   0.254  -0.315  -0.063
    1UNL     H7   37  -0.041  -0.279   0.176
    1UNL     H8   38   0.146  -0.183   0.277
    1UNL     H9   39   0.031  -0.049   0.288
    1UNL    H10   40   0.246   0.042   0.181
    1UNL    H11   41   0.381   0.149  -0.366
    1UNL    H12   42   0.267   0.266  -0.274
    1UNL    H13   43   0.397   0.198  -0.192
    1UNL    H14   44   0.144  -0.131  -0.175
    1UNL    H15   45  -0.131  -0.174  -0.150
    1UNL    H16   46  -0.075  -0.012  -0.221
    1UNL    H17   47  -0.250   0.222  -0.132
    1UNL    H18   48  -0.509   0.243  -0.161
    1UNL    H19   49  -0.645   0.056  -0.099
    1UNL    H20   50  -0.551  -0.148  -0.001
    1UNL    H21   51  -0.239  -0.267   0.247
    1UNL    H22   52  -0.405  -0.236   0.219
    1UNL    H23   53  -0.323  -0.358   0.123
    1UNL    H24   54  -0.151  -0.043   0.201
    1UNL    H25   55   0.000   0.117   0.130
    1UNL    H26   56  -0.209   0.491  -0.039
    1UNL    H27   57  -0.094   0.451  -0.156
    1UNL    H28   58  -0.043   0.527  -0.012
   0.00000   0.00000   0.00000   0.00000   0.00000   0.00000   0.00000   0.00000   0.00000
Generated with MDTraj, t= 81.0
 58
    1UNL     C1    1   0.497  -0.046   0.114
    1UNL     C2    2   0.422  -0.165   0.066
    1UNL     C3    3   0.289  -0.168   0.078
    1UNL     C4    4   0.207  -0.286   0.031
    1UNL     N1    5   0.075  -0.228  -0.003
    1UNL     C5    6   0.004  -0.194   0.129
    1UNL     C6    7   0.096  -0.123   0.227
    1UNL     C7    8   0.208  -0.049   0.128
    1UNL     C8    9   0.137   0.020   0.002
    1UNL     C9   10   0.221   0.107  -0.086
    1UNL     O1   11   0.282   0.206  -0.053
    1UNL     O2   12   0.229   0.064  -0.220
    1UNL    C10   13   0.309   0.155  -0.291
    1UNL    C11   14   0.075  -0.100  -0.083
    1UNL    C12   15  -0.065  -0.083  -0.125
    1UNL    C13   16  -0.118  -0.008   0.000
    1UNL    C14   17  -0.263   0.043  -0.026
    1UNL    C15   18  -0.314   0.151  -0.094
    1UNL    C16   19  -0.445   0.140  -0.140
    1UNL    C17   20  -0.529   0.031  -0.111
    1UNL    C18   21  -0.484  -0.068  -0.029
    1UNL    C19   22  -0.345  -0.065   0.006
    1UNL     N2   23  -0.277  -0.166   0.070
    1UNL    C20   24  -0.340  -0.270   0.142
    1UNL    C21   25  -0.139  -0.112   0.112
    1UNL    C22   26   0.001   0.097   0.035
    1UNL     O3   27  -0.005   0.226  -0.039
    1UNL    C23   28  -0.067   0.328   0.029
    1UNL    C24   29  -0.073   0.454  -0.044
    1UNL     O4   30  -0.118   0.314   0.135
    1UNL     H1   31   0.490  -0.029   0.221
    1UNL     H2   32   0.461   0.043   0.059
    1UNL     H3   33   0.601  -0.064   0.090
    1UNL     H4   34   0.478  -0.252   0.019
    1UNL     H5   35   0.192  -0.357   0.112
    1UNL     H6   36   0.250  -0.330  -0.055
    1UNL     H7   37  -0.015  -0.295   0.166
    1UNL     H8   38   0.141  -0.183   0.308
    1UNL     H9   39   0.046  -0.041   0.281
    1UNL    H10   40   0.272   0.030   0.181
    1UNL    H11   41   0.275   0.154  -0.399
    1UNL    H12   42   0.299   0.251  -0.248
    1UNL    H13   43   0.402   0.106  -0.293
    1UNL    H14   44   0.136  -0.109  -0.175
    1UNL    H15   45  -0.120  -0.182  -0.135
    1UNL    H16   46  -0.077  -0.009  -0.206
    1UNL    H17   47  -0.247   0.234  -0.133
    1UNL    H18   48  -0.488   0.227  -0.191
    1UNL    H19   49  -0.638   0.039  -0.125
    1UNL    H20   50  -0.543  -0.150   0.009
    1UNL    H21   51  -0.268  -0.297   0.213
    1UNL    H22   52  -0.434  -0.240   0.193
    1UNL    H23   53  -0.362  -0.349   0.074
    1UNL    H24   54  -0.159  -0.054   0.205
    1UNL    H25   55  -0.010   0.118   0.143
    1UNL    H26   56  -0.176   0.499  -0.030
    1UNL    H27   57  -0.064   0.444  -0.154
    1UNL    H28   58  -0.008   0.521  -0.002
   0.00000   0.00000   0.00000   0.00000   0.00000   0.00000   0.00000   0.00000   0.00000
Generated with MDTraj, t= 82.0
 58
    1UNL     C1    1   0.492  -0.030   0.105
    1UNL     C2    2   0.416  -0.155   0.084
    1UNL     C3    3   0.283  -0.147   0.084
    1UNL     C4    4   0.205  -0.265   0.040
    1UNL     N1    5   0.066  -0.229   0.006
    1UNL     C5    6  -0.007  -0.174   0.134
    1UNL     C6    7   0.086  -0.090   0.211
    1UNL     C7    8   0.195  -0.028   0.121
    1UNL     C8    9   0.125   0.018  -0.007
    1UNL     C9   10   0.226   0.094  -0.093
    1UNL     O1   11   0.312   0.163  -0.037
    1UNL     O2   12   0.220   0.071  -0.229
    1UNL    C10   13   0.315   0.152  -0.284
    1UNL    C11   14   0.074  -0.109  -0.089
    1UNL    C12   15  -0.067  -0.094  -0.130
    1UNL    C13   16  -0.130  -0.007  -0.018
    1UNL    C14   17  -0.270   0.039  -0.043
    1UNL    C15   18  -0.322   0.145  -0.106
    1UNL    C16   19  -0.458   0.144  -0.145
    1UNL    C17   20  -0.537   0.038  -0.101
    1UNL    C18   21  -0.482  -0.060  -0.016
    1UNL    C19   22  -0.349  -0.065   0.012
    1UNL     N2   23  -0.266  -0.167   0.073
    1UNL    C20   24  -0.306  -0.293   0.131
    1UNL    C21   25  -0.139  -0.100   0.111
    1UNL    C22   26  -0.017   0.096   0.016
    1UNL     O3   27  -0.024   0.217  -0.060
    1UNL    C23   28  -0.057   0.310   0.040
    1UNL    C24   29  -0.037   0.454  -0.011
    1UNL     O4   30  -0.098   0.294   0.153
    1UNL     H1   31   0.571  -0.035   0.179
    1UNL     H2   32   0.431   0.062   0.128
    1UNL     H3   33   0.539  -0.006   0.015
    1UNL     H4   34   0.467  -0.248   0.063
    1UNL     H5   35   0.202  -0.328   0.128
    1UNL     H6   36   0.244  -0.317  -0.046
    1UNL     H7   37  -0.032  -0.265   0.188
    1UNL     H8   38   0.142  -0.154   0.282
    1UNL     H9   39   0.039  -0.017   0.279
    1UNL    H10   40   0.258   0.064   0.152
    1UNL    H11   41   0.330   0.136  -0.393
    1UNL    H12   42   0.290   0.252  -0.264
    1UNL    H13   43   0.399   0.108  -0.235
    1UNL    H14   44   0.137  -0.138  -0.176
    1UNL    H15   45  -0.116  -0.191  -0.117
    1UNL    H16   46  -0.082  -0.058  -0.235
    1UNL    H17   47  -0.266   0.221  -0.141
    1UNL    H18   48  -0.487   0.218  -0.214
    1UNL    H19   49  -0.634   0.033  -0.143
    1UNL    H20   50  -0.544  -0.135   0.026
    1UNL    H21   51  -0.229  -0.362   0.136
    1UNL    H22   52  -0.348  -0.273   0.232
    1UNL    H23   53  -0.393  -0.319   0.073
    1UNL    H24   54  -0.166  -0.038   0.201
    1UNL    H25   55  -0.037   0.125   0.122
    1UNL    H26   56  -0.130   0.502  -0.019
    1UNL    H27   57   0.005   0.453  -0.118
    1UNL    H28   58   0.024   0.505   0.063
   0.00000   0.00000   0.00000   0.00000   0.00000   0.00000   0.00000   0.00000   0.00000
Generated with MDTraj, t= 83.0
 58
    1UNL     C1    1   0.493  -0.023   0.109
    1UNL     C2    2   0.408  -0.145   0.091
    1UNL     C3    3   0.275  -0.147   0.092
    1UNL     C4    4   0.206  -0.270   0.053
    1UNL     N1    5   0.067  -0.228   0.016
    1UNL     C5    6  -0.008  -0.180   0.138
    1UNL     C6    7   0.082  -0.083   0.224
    1UNL     C7    8   0.189  -0.024   0.121
    1UNL     C8    9   0.123   0.016  -0.012
    1UNL     C9   10   0.231   0.092  -0.094
    1UNL     O1   11   0.328   0.145  -0.040
    1UNL     O2   12   0.207   0.084  -0.222
    1UNL    C10   13   0.301   0.157  -0.283
    1UNL    C11   14   0.076  -0.112  -0.089
    1UNL    C12   15  -0.066  -0.095  -0.140
    1UNL    C13   16  -0.127  -0.008  -0.034
    1UNL    C14   17  -0.271   0.026  -0.059
    1UNL    C15   18  -0.331   0.134  -0.114
    1UNL    C16   19  -0.471   0.139  -0.126
    1UNL    C17   20  -0.546   0.039  -0.073
    1UNL    C18   21  -0.485  -0.069  -0.014
    1UNL    C19   22  -0.348  -0.077  -0.011
    1UNL     N2   23  -0.266  -0.166   0.056
    1UNL    C20   24  -0.318  -0.296   0.119
    1UNL    C21   25  -0.136  -0.104   0.096
    1UNL    C22   26  -0.010   0.093   0.012
    1UNL     O3   27  -0.011   0.227  -0.044
    1UNL    C23   28  -0.041   0.325   0.043
    1UNL    C24   29  -0.033   0.458  -0.025
    1UNL     O4   30  -0.074   0.303   0.157
    1UNL     H1   31   0.597  -0.045   0.133
    1UNL     H2   32   0.455   0.049   0.184
    1UNL     H3   33   0.498   0.031   0.018
    1UNL     H4   34   0.453  -0.235   0.069
    1UNL     H5   35   0.193  -0.344   0.131
    1UNL     H6   36   0.250  -0.314  -0.037
    1UNL     H7   37  -0.034  -0.272   0.189
    1UNL     H8   38   0.133  -0.130   0.310
    1UNL     H9   39   0.020  -0.003   0.270
    1UNL    H10   40   0.239   0.073   0.161
    1UNL    H11   41   0.308   0.133  -0.390
    1UNL    H12   42   0.274   0.260  -0.273
    1UNL    H13   43   0.391   0.127  -0.232
    1UNL    H14   44   0.149  -0.139  -0.169
    1UNL    H15   45  -0.111  -0.190  -0.155
    1UNL    H16   46  -0.069  -0.029  -0.233
    1UNL    H17   47  -0.265   0.222  -0.136
    1UNL    H18   48  -0.523   0.207  -0.197
    1UNL    H19   49  -0.654   0.035  -0.087
    1UNL    H20   50  -0.548  -0.142   0.042
    1UNL    H21   51  -0.326  -0.384   0.058
    1UNL    H22   52  -0.260  -0.324   0.205
    1UNL    H23   53  -0.407  -0.262   0.170
    1UNL    H24   54  -0.157  -0.040   0.185
    1UNL    H25   55  -0.026   0.109   0.121
    1UNL    H26   56  -0.127   0.490  -0.050
    1UNL    H27   57   0.019   0.447  -0.124
    1UNL    H28   58   0.016   0.531   0.049
   0.00000   0.00000   0.00000   0.00000   0.00000   0.00000   0.00000   0.00000   0.00000
Generated with MDTraj, t= 84.0
 58
    1UNL     C1    1   0.496  -0.036   0.155
    1UNL     C2    2   0.412  -0.149   0.106
    1UNL     C3    3   0.281  -0.151   0.088
    1UNL     C4    4   0.216  -0.277   0.036
    1UNL     N1    5   0.067  -0.234   0.010
    1UNL     C5    6  -0.010  -0.191   0.129
    1UNL     C6    7   0.085  -0.107   0.217
    1UNL     C7    8   0.187  -0.038   0.122
    1UNL     C8    9   0.127   0.013  -0.007
    1UNL     C9   10   0.218   0.108  -0.092
    1UNL     O1   11   0.301   0.187  -0.042
    1UNL     O2   12   0.190   0.091  -0.227
    1UNL    C10   13   0.273   0.175  -0.298
    1UNL    C11   14   0.077  -0.115  -0.087
    1UNL    C12   15  -0.066  -0.096  -0.136
    1UNL    C13   16  -0.118  -0.009  -0.013
    1UNL    C14   17  -0.266   0.027  -0.034
    1UNL    C15   18  -0.313   0.152  -0.083
    1UNL    C16   19  -0.445   0.148  -0.114
    1UNL    C17   20  -0.531   0.038  -0.100
    1UNL    C18   21  -0.483  -0.077  -0.042
    1UNL    C19   22  -0.348  -0.082  -0.005
    1UNL     N2   23  -0.270  -0.175   0.067
    1UNL    C20   24  -0.336  -0.292   0.135
    1UNL    C21   25  -0.140  -0.119   0.093
    1UNL    C22   26   0.001   0.093   0.022
    1UNL     O3   27  -0.011   0.212  -0.056
    1UNL    C23   28  -0.034   0.324   0.023
    1UNL    C24   29  -0.044   0.449  -0.059
    1UNL     O4   30  -0.051   0.334   0.145
    1UNL     H1   31   0.578  -0.022   0.085
    1UNL     H2   32   0.532  -0.051   0.255
    1UNL     H3   33   0.437   0.056   0.151
    1UNL     H4   34   0.464  -0.251   0.087
    1UNL     H5   35   0.210  -0.352   0.112
    1UNL     H6   36   0.255  -0.325  -0.056
    1UNL     H7   37  -0.034  -0.285   0.177
    1UNL     H8   38   0.139  -0.178   0.281
    1UNL     H9   39   0.029  -0.031   0.277
    1UNL    H10   40   0.234   0.039   0.193
    1UNL    H11   41   0.219   0.231  -0.373
    1UNL    H12   42   0.308   0.256  -0.231
    1UNL    H13   43   0.362   0.115  -0.327
    1UNL    H14   44   0.144  -0.149  -0.169
    1UNL    H15   45  -0.123  -0.186  -0.146
    1UNL    H16   46  -0.076  -0.036  -0.232
    1UNL    H17   47  -0.248   0.235  -0.096
    1UNL    H18   48  -0.486   0.236  -0.154
    1UNL    H19   49  -0.636   0.039  -0.124
    1UNL    H20   50  -0.551  -0.150  -0.014
    1UNL    H21   51  -0.440  -0.266   0.163
    1UNL    H22   52  -0.358  -0.373   0.071
    1UNL    H23   53  -0.279  -0.323   0.219
    1UNL    H24   54  -0.166  -0.072   0.190
    1UNL    H25   55  -0.001   0.125   0.130
    1UNL    H26   56  -0.151   0.475  -0.080
    1UNL    H27   57  -0.006   0.437  -0.158
    1UNL    H28   58   0.002   0.540  -0.007
   0.00000   0.00000   0.00000   0.00000   0.00000   0.00000   0.00000   0.00000   0.00000
Generated with MDTraj, t= 85.0
 58
    1UNL     C1    1   0.499  -0.047   0.173
    1UNL     C2    2   0.422  -0.150   0.097
    1UNL     C3    3   0.287  -0.152   0.082
    1UNL     C4    4   0.208  -0.265   0.021
    1UNL     N1    5   0.067  -0.231  -0.002
    1UNL     C5    6  -0.013  -0.204   0.124
    1UNL     C6    7   0.083  -0.118   0.213
    1UNL     C7    8   0.188  -0.039   0.128
    1UNL     C8    9   0.124   0.019   0.003
    1UNL     C9   10   0.222   0.107  -0.082
    1UNL     O1   11   0.315   0.169  -0.032
    1UNL     O2   12   0.191   0.104  -0.211
    1UNL    C10   13   0.268   0.198  -0.275
    1UNL    C11   14   0.075  -0.105  -0.089
    1UNL    C12   15  -0.073  -0.089  -0.137
    1UNL    C13   16  -0.126  -0.016  -0.015
    1UNL    C14   17  -0.264   0.028  -0.035
    1UNL    C15   18  -0.321   0.140  -0.090
    1UNL    C16   19  -0.451   0.148  -0.124
    1UNL    C17   20  -0.529   0.036  -0.101
    1UNL    C18   21  -0.482  -0.075  -0.030
    1UNL    C19   22  -0.351  -0.075   0.007
    1UNL     N2   23  -0.267  -0.182   0.070
    1UNL    C20   24  -0.325  -0.290   0.151
    1UNL    C21   25  -0.141  -0.116   0.103
    1UNL    C22   26  -0.015   0.091   0.023
    1UNL     O3   27  -0.029   0.205  -0.063
    1UNL    C23   28  -0.032   0.325   0.001
    1UNL    C24   29  -0.041   0.446  -0.080
    1UNL     O4   30  -0.035   0.334   0.124
    1UNL     H1   31   0.602  -0.073   0.200
    1UNL     H2   32   0.448  -0.014   0.257
    1UNL     H3   33   0.514   0.041   0.108
    1UNL     H4   34   0.479  -0.226   0.058
    1UNL     H5   35   0.211  -0.354   0.080
    1UNL     H6   36   0.241  -0.293  -0.082
    1UNL     H7   37  -0.047  -0.295   0.173
    1UNL     H8   38   0.137  -0.180   0.286
    1UNL     H9   39   0.021  -0.041   0.264
    1UNL    H10   40   0.251   0.041   0.178
    1UNL    H11   41   0.239   0.203  -0.377
    1UNL    H12   42   0.244   0.304  -0.241
    1UNL    H13   43   0.378   0.178  -0.247
    1UNL    H14   44   0.143  -0.131  -0.174
    1UNL    H15   45  -0.132  -0.179  -0.158
    1UNL    H16   46  -0.076  -0.028  -0.230
    1UNL    H17   47  -0.246   0.210  -0.120
    1UNL    H18   48  -0.497   0.242  -0.159
    1UNL    H19   49  -0.633   0.049  -0.124
    1UNL    H20   50  -0.549  -0.159  -0.008
    1UNL    H21   51  -0.254  -0.326   0.231
    1UNL    H22   52  -0.408  -0.256   0.209
    1UNL    H23   53  -0.345  -0.370   0.088
    1UNL    H24   54  -0.163  -0.058   0.193
    1UNL    H25   55  -0.030   0.129   0.128
    1UNL    H26   56  -0.149   0.495  -0.069
    1UNL    H27   57  -0.035   0.428  -0.185
    1UNL    H28   58   0.032   0.524  -0.050
   0.00000   0.00000   0.00000   0.00000   0.00000   0.00000   0.00000   0.00000   0.00000
Generated with MDTraj, t= 86.0
 58
    1UNL     C1    1   0.498  -0.041   0.144
    1UNL     C2    2   0.411  -0.154   0.114
    1UNL     C3    3   0.279  -0.158   0.100
    1UNL     C4    4   0.206  -0.272   0.039
    1UNL     N1    5   0.069  -0.232  -0.006
    1UNL     C5    6  -0.013  -0.192   0.123
    1UNL     C6    7   0.077  -0.104   0.217
    1UNL     C7    8   0.185  -0.045   0.123
    1UNL     C8    9   0.125   0.016  -0.014
    1UNL     C9   10   0.230   0.101  -0.084
    1UNL     O1   11   0.327   0.142  -0.024
    1UNL     O2   12   0.211   0.131  -0.214
    1UNL    C10   13   0.309   0.224  -0.257
    1UNL    C11   14   0.075  -0.111  -0.097
    1UNL    C12   15  -0.071  -0.081  -0.145
    1UNL    C13   16  -0.129  -0.010  -0.024
    1UNL    C14   17  -0.275   0.028  -0.052
    1UNL    C15   18  -0.345   0.127  -0.121
    1UNL    C16   19  -0.480   0.120  -0.134
    1UNL    C17   20  -0.555   0.025  -0.066
    1UNL    C18   21  -0.490  -0.079   0.007
    1UNL    C19   22  -0.355  -0.080   0.003
    1UNL     N2   23  -0.273  -0.180   0.064
    1UNL    C20   24  -0.306  -0.286   0.149
    1UNL    C21   25  -0.147  -0.111   0.101
    1UNL    C22   26  -0.019   0.091   0.009
    1UNL     O3   27  -0.032   0.214  -0.068
    1UNL    C23   28  -0.025   0.328   0.007
    1UNL    C24   29  -0.021   0.452  -0.076
    1UNL     O4   30  -0.032   0.334   0.132
    1UNL     H1   31   0.600  -0.073   0.160
    1UNL     H2   32   0.464   0.016   0.226
    1UNL     H3   33   0.510   0.027   0.058
    1UNL     H4   34   0.458  -0.250   0.090
    1UNL     H5   35   0.190  -0.361   0.101
    1UNL     H6   36   0.266  -0.307  -0.049
    1UNL     H7   37  -0.035  -0.290   0.165
    1UNL     H8   38   0.127  -0.170   0.289
    1UNL     H9   39   0.025  -0.026   0.277
    1UNL    H10   40   0.234   0.033   0.184
    1UNL    H11   41   0.360   0.179  -0.339
    1UNL    H12   42   0.257   0.317  -0.296
    1UNL    H13   43   0.376   0.255  -0.164
    1UNL    H14   44   0.148  -0.129  -0.179
    1UNL    H15   45  -0.122  -0.179  -0.164
    1UNL    H16   46  -0.077  -0.027  -0.239
    1UNL    H17   47  -0.294   0.207  -0.182
    1UNL    H18   48  -0.531   0.190  -0.195
    1UNL    H19   49  -0.663   0.037  -0.058
    1UNL    H20   50  -0.543  -0.165   0.047
    1UNL    H21   51  -0.323  -0.374   0.087
    1UNL    H22   52  -0.231  -0.307   0.225
    1UNL    H23   53  -0.402  -0.266   0.191
    1UNL    H24   54  -0.175  -0.061   0.193
    1UNL    H25   55  -0.033   0.113   0.118
    1UNL    H26   56  -0.098   0.525  -0.041
    1UNL    H27   57  -0.056   0.423  -0.180
    1UNL    H28   58   0.079   0.498  -0.078
   0.00000   0.00000   0.00000   0.00000   0.00000   0.00000   0.00000   0.00000   0.00000
Generated with MDTraj, t= 87.0
 58
    1UNL     C1    1   0.491  -0.033   0.148
    1UNL     C2    2   0.413  -0.139   0.091
    1UNL     C3    3   0.282  -0.147   0.091
    1UNL     C4    4   0.209  -0.272   0.041
    1UNL     N1    5   0.072  -0.233   0.002
    1UNL     C5    6  -0.010  -0.189   0.127
    1UNL     C6    7   0.076  -0.100   0.220
    1UNL     C7    8   0.187  -0.037   0.133
    1UNL     C8    9   0.120   0.016  -0.012
    1UNL     C9   10   0.219   0.105  -0.089
    1UNL     O1   11   0.308   0.151  -0.022
    1UNL     O2   12   0.191   0.136  -0.217
    1UNL    C10   13   0.311   0.205  -0.271
    1UNL    C11   14   0.074  -0.119  -0.090
    1UNL    C12   15  -0.070  -0.089  -0.131
    1UNL    C13   16  -0.127  -0.010  -0.017
    1UNL    C14   17  -0.272   0.021  -0.048
    1UNL    C15   18  -0.333   0.130  -0.111
    1UNL    C16   19  -0.474   0.129  -0.125
    1UNL    C17   20  -0.549   0.028  -0.073
    1UNL    C18   21  -0.491  -0.084  -0.022
    1UNL    C19   22  -0.349  -0.090  -0.015
    1UNL     N2   23  -0.267  -0.181   0.061
    1UNL    C20   24  -0.326  -0.282   0.149
    1UNL    C21   25  -0.145  -0.108   0.103
    1UNL    C22   26  -0.017   0.096   0.013
    1UNL     O3   27  -0.037   0.205  -0.072
    1UNL    C23   28  -0.021   0.316   0.007
    1UNL    C24   29  -0.004   0.448  -0.059
    1UNL     O4   30  -0.020   0.318   0.131
    1UNL     H1   31   0.583  -0.029   0.096
    1UNL     H2   32   0.498  -0.053   0.255
    1UNL     H3   33   0.442   0.061   0.133
    1UNL     H4   34   0.466  -0.235   0.064
    1UNL     H5   35   0.208  -0.350   0.119
    1UNL     H6   36   0.256  -0.315  -0.050
    1UNL     H7   37  -0.026  -0.280   0.185
    1UNL     H8   38   0.119  -0.147   0.310
    1UNL     H9   39   0.015  -0.019   0.263
    1UNL    H10   40   0.237   0.044   0.187
    1UNL    H11   41   0.398   0.151  -0.239
    1UNL    H12   42   0.292   0.222  -0.381
    1UNL    H13   43   0.311   0.317  -0.230
    1UNL    H14   44   0.137  -0.137  -0.179
    1UNL    H15   45  -0.122  -0.186  -0.163
    1UNL    H16   46  -0.066  -0.020  -0.213
    1UNL    H17   47  -0.274   0.208  -0.141
    1UNL    H18   48  -0.519   0.213  -0.176
    1UNL    H19   49  -0.655   0.020  -0.079
    1UNL    H20   50  -0.555  -0.160   0.013
    1UNL    H21   51  -0.431  -0.277   0.145
    1UNL    H22   52  -0.290  -0.378   0.120
    1UNL    H23   53  -0.297  -0.265   0.254
    1UNL    H24   54  -0.170  -0.046   0.188
    1UNL    H25   55  -0.020   0.131   0.118
    1UNL    H26   56  -0.062   0.518  -0.010
    1UNL    H27   57  -0.046   0.436  -0.169
    1UNL    H28   58   0.106   0.472  -0.058
   0.00000   0.00000   0.00000   0.00000   0.00000   0.00000   0.00000   0.00000   0.00000
Generated with MDTraj, t= 88.0
 58
    1UNL     C1    1   0.476  -0.004   0.145
    1UNL     C2    2   0.416  -0.130   0.097
    1UNL     C3    3   0.285  -0.151   0.098
    1UNL     C4    4   0.215  -0.271   0.032
    1UNL     N1    5   0.073  -0.231  -0.002
    1UNL     C5    6  -0.006  -0.212   0.121
    1UNL     C6    7   0.073  -0.112   0.214
    1UNL     C7    8   0.186  -0.043   0.138
    1UNL     C8    9   0.117   0.023   0.005
    1UNL     C9   10   0.208   0.102  -0.086
    1UNL     O1   11   0.288   0.174  -0.033
    1UNL     O2   12   0.196   0.075  -0.222
    1UNL    C10   13   0.251   0.185  -0.300
    1UNL    C11   14   0.074  -0.102  -0.079
    1UNL    C12   15  -0.064  -0.075  -0.131
    1UNL    C13   16  -0.125  -0.016  -0.002
    1UNL    C14   17  -0.264   0.027  -0.037
    1UNL    C15   18  -0.314   0.136  -0.103
    1UNL    C16   19  -0.453   0.137  -0.122
    1UNL    C17   20  -0.535   0.028  -0.102
    1UNL    C18   21  -0.478  -0.084  -0.050
    1UNL    C19   22  -0.344  -0.086  -0.011
    1UNL     N2   23  -0.272  -0.183   0.061
    1UNL    C20   24  -0.347  -0.281   0.146
    1UNL    C21   25  -0.140  -0.130   0.098
    1UNL    C22   26  -0.019   0.097   0.034
    1UNL     O3   27  -0.032   0.211  -0.047
    1UNL    C23   28  -0.007   0.326   0.016
    1UNL    C24   29  -0.001   0.461  -0.055
    1UNL     O4   30  -0.001   0.324   0.135
    1UNL     H1   31   0.574  -0.020   0.180
    1UNL     H2   32   0.411   0.035   0.226
    1UNL     H3   33   0.486   0.069   0.070
    1UNL     H4   34   0.479  -0.200   0.063
    1UNL     H5   35   0.235  -0.355   0.103
    1UNL     H6   36   0.273  -0.291  -0.059
    1UNL     H7   37  -0.030  -0.311   0.159
    1UNL     H8   38   0.123  -0.173   0.291
    1UNL     H9   39   0.013  -0.038   0.268
    1UNL    H10   40   0.238   0.031   0.195
    1UNL    H11   41   0.297   0.256  -0.235
    1UNL    H12   42   0.305   0.148  -0.388
    1UNL    H13   43   0.162   0.226  -0.368
    1UNL    H14   44   0.139  -0.112  -0.167
    1UNL    H15   45  -0.120  -0.174  -0.148
    1UNL    H16   46  -0.058  -0.013  -0.219
    1UNL    H17   47  -0.249   0.227  -0.111
    1UNL    H18   48  -0.500   0.225  -0.165
    1UNL    H19   49  -0.638   0.037  -0.139
    1UNL    H20   50  -0.542  -0.168  -0.018
    1UNL    H21   51  -0.405  -0.237   0.222
    1UNL    H22   52  -0.407  -0.343   0.085
    1UNL    H23   53  -0.274  -0.351   0.195
    1UNL    H24   54  -0.163  -0.081   0.192
    1UNL    H25   55  -0.022   0.135   0.137
    1UNL    H26   56  -0.073   0.530  -0.017
    1UNL    H27   57  -0.025   0.443  -0.161
    1UNL    H28   58   0.106   0.500  -0.050
   0.00000   0.00000   0.00000   0.00000   0.00000   0.00000   0.00000   0.00000   0.00000
Generated with MDTraj, t= 89.0
 58
    1UNL     C1    1   0.488  -0.010   0.129
    1UNL     C2    2   0.416  -0.136   0.098
    1UNL     C3    3   0.284  -0.147   0.103
    1UNL     C4    4   0.214  -0.273   0.058
    1UNL     N1    5   0.082  -0.224   0.021
    1UNL     C5    6  -0.011  -0.192   0.134
    1UNL     C6    7   0.075  -0.088   0.218
    1UNL     C7    8   0.184  -0.028   0.123
    1UNL     C8    9   0.112   0.021  -0.010
    1UNL     C9   10   0.202   0.103  -0.100
    1UNL     O1   11   0.269   0.183  -0.038
    1UNL     O2   12   0.189   0.082  -0.237
    1UNL    C10   13   0.272   0.180  -0.294
    1UNL    C11   14   0.079  -0.116  -0.086
    1UNL    C12   15  -0.064  -0.083  -0.141
    1UNL    C13   16  -0.131  -0.013  -0.016
    1UNL    C14   17  -0.276   0.031  -0.043
    1UNL    C15   18  -0.324   0.131  -0.117
    1UNL    C16   19  -0.460   0.144  -0.139
    1UNL    C17   20  -0.546   0.034  -0.107
    1UNL    C18   21  -0.491  -0.076  -0.047
    1UNL    C19   22  -0.355  -0.080  -0.001
    1UNL     N2   23  -0.279  -0.177   0.070
    1UNL    C20   24  -0.312  -0.312   0.134
    1UNL    C21   25  -0.146  -0.111   0.103
    1UNL    C22   26  -0.022   0.087   0.020
    1UNL     O3   27  -0.041   0.208  -0.047
    1UNL    C23   28   0.002   0.314   0.036
    1UNL    C24   29   0.008   0.447  -0.029
    1UNL     O4   30   0.021   0.308   0.154
    1UNL     H1   31   0.581   0.009   0.082
    1UNL     H2   32   0.502  -0.008   0.239
    1UNL     H3   33   0.435   0.078   0.109
    1UNL     H4   34   0.474  -0.234   0.081
    1UNL     H5   35   0.210  -0.345   0.144
    1UNL     H6   36   0.278  -0.316  -0.020
    1UNL     H7   37  -0.039  -0.282   0.189
    1UNL     H8   38   0.134  -0.147   0.290
    1UNL     H9   39   0.019  -0.011   0.269
    1UNL    H10   40   0.234   0.050   0.173
    1UNL    H11   41   0.251   0.272  -0.247
    1UNL    H12   42   0.371   0.148  -0.282
    1UNL    H13   43   0.238   0.180  -0.406
    1UNL    H14   44   0.153  -0.136  -0.164
    1UNL    H15   45  -0.112  -0.183  -0.158
    1UNL    H16   46  -0.066  -0.013  -0.226
    1UNL    H17   47  -0.260   0.211  -0.146
    1UNL    H18   48  -0.495   0.233  -0.186
    1UNL    H19   49  -0.647   0.041  -0.137
    1UNL    H20   50  -0.551  -0.160  -0.031
    1UNL    H21   51  -0.322  -0.312   0.242
    1UNL    H22   52  -0.400  -0.349   0.086
    1UNL    H23   53  -0.233  -0.380   0.105
    1UNL    H24   54  -0.164  -0.054   0.195
    1UNL    H25   55  -0.023   0.110   0.127
    1UNL    H26   56  -0.082   0.512  -0.007
    1UNL    H27   57   0.013   0.440  -0.132
    1UNL    H28   58   0.106   0.497  -0.003
   0.00000   0.00000   0.00000   0.00000   0.00000   0.00000   0.00000   0.00000   0.00000
Generated with MDTraj, t= 90.0
 58
    1UNL     C1    1   0.491  -0.007   0.109
    1UNL     C2    2   0.408  -0.130   0.080
    1UNL     C3    3   0.278  -0.139   0.100
    1UNL     C4    4   0.198  -0.264   0.065
    1UNL     N1    5   0.067  -0.230   0.018
    1UNL     C5    6  -0.008  -0.174   0.136
    1UNL     C6    7   0.079  -0.069   0.226
    1UNL     C7    8   0.188  -0.022   0.133
    1UNL     C8    9   0.116   0.019  -0.005
    1UNL     C9   10   0.215   0.093  -0.089
    1UNL     O1   11   0.302   0.157  -0.032
    1UNL     O2   12   0.199   0.097  -0.227
    1UNL    C10   13   0.298   0.178  -0.288
    1UNL    C11   14   0.071  -0.115  -0.082
    1UNL    C12   15  -0.070  -0.081  -0.150
    1UNL    C13   16  -0.133  -0.013  -0.027
    1UNL    C14   17  -0.286   0.014  -0.056
    1UNL    C15   18  -0.343   0.114  -0.132
    1UNL    C16   19  -0.486   0.114  -0.147
    1UNL    C17   20  -0.564   0.019  -0.084
    1UNL    C18   21  -0.509  -0.090  -0.021
    1UNL    C19   22  -0.364  -0.089  -0.002
    1UNL     N2   23  -0.280  -0.170   0.075
    1UNL    C20   24  -0.308  -0.308   0.104
    1UNL    C21   25  -0.144  -0.106   0.095
    1UNL    C22   26  -0.021   0.093   0.018
    1UNL     O3   27  -0.028   0.224  -0.046
    1UNL    C23   28   0.012   0.322   0.041
    1UNL    C24   29   0.016   0.459  -0.014
    1UNL     O4   30   0.030   0.300   0.156
    1UNL     H1   31   0.596  -0.027   0.096
    1UNL     H2   32   0.467   0.010   0.213
    1UNL     H3   33   0.456   0.077   0.054
    1UNL     H4   34   0.456  -0.219   0.051
    1UNL     H5   35   0.196  -0.322   0.163
    1UNL     H6   36   0.252  -0.322  -0.010
    1UNL     H7   37  -0.032  -0.255   0.205
    1UNL     H8   38   0.118  -0.103   0.323
    1UNL     H9   39   0.020   0.017   0.256
    1UNL    H10   40   0.237   0.061   0.176
    1UNL    H11   41   0.255   0.255  -0.345
    1UNL    H12   42   0.361   0.204  -0.210
    1UNL    H13   43   0.340   0.104  -0.368
    1UNL    H14   44   0.145  -0.139  -0.157
    1UNL    H15   45  -0.122  -0.170  -0.181
    1UNL    H16   46  -0.063  -0.001  -0.229
    1UNL    H17   47  -0.285   0.184  -0.185
    1UNL    H18   48  -0.528   0.203  -0.195
    1UNL    H19   49  -0.674   0.025  -0.093
    1UNL    H20   50  -0.567  -0.181   0.001
    1UNL    H21   51  -0.301  -0.331   0.211
    1UNL    H22   52  -0.409  -0.329   0.068
    1UNL    H23   53  -0.241  -0.364   0.049
    1UNL    H24   54  -0.160  -0.037   0.180
    1UNL    H25   55  -0.025   0.118   0.123
    1UNL    H26   56  -0.078   0.522   0.007
    1UNL    H27   57   0.027   0.462  -0.119
    1UNL    H28   58   0.108   0.512   0.010
   0.00000   0.00000   0.00000   0.00000   0.00000   0.00000   0.00000   0.00000   0.00000
Generated with MDTraj, t= 91.0
 58
    1UNL     C1    1   0.472  -0.009   0.130
    1UNL     C2    2   0.408  -0.138   0.103
    1UNL     C3    3   0.278  -0.140   0.086
    1UNL     C4    4   0.198  -0.263   0.032
    1UNL     N1    5   0.054  -0.223   0.002
    1UNL     C5    6  -0.017  -0.183   0.133
    1UNL     C6    7   0.080  -0.091   0.214
    1UNL     C7    8   0.187  -0.032   0.127
    1UNL     C8    9   0.115   0.018  -0.007
    1UNL     C9   10   0.206   0.104  -0.090
    1UNL     O1   11   0.290   0.166  -0.028
    1UNL     O2   12   0.188   0.090  -0.221
    1UNL    C10   13   0.288   0.164  -0.287
    1UNL    C11   14   0.066  -0.107  -0.087
    1UNL    C12   15  -0.073  -0.064  -0.134
    1UNL    C13   16  -0.135  -0.007  -0.003
    1UNL    C14   17  -0.279   0.025  -0.028
    1UNL    C15   18  -0.330   0.126  -0.108
    1UNL    C16   19  -0.466   0.113  -0.146
    1UNL    C17   20  -0.540   0.002  -0.110
    1UNL    C18   21  -0.491  -0.095  -0.023
    1UNL    C19   22  -0.359  -0.084   0.016
    1UNL     N2   23  -0.274  -0.177   0.082
    1UNL    C20   24  -0.301  -0.320   0.095
    1UNL    C21   25  -0.152  -0.107   0.115
    1UNL    C22   26  -0.023   0.103   0.024
    1UNL     O3   27  -0.034   0.222  -0.054
    1UNL    C23   28   0.013   0.326   0.025
    1UNL    C24   29   0.023   0.459  -0.038
    1UNL     O4   30   0.038   0.322   0.144
    1UNL     H1   31   0.566  -0.029   0.178
    1UNL     H2   32   0.416   0.043   0.200
    1UNL     H3   33   0.483   0.053   0.041
    1UNL     H4   34   0.465  -0.225   0.087
    1UNL     H5   35   0.194  -0.336   0.118
    1UNL     H6   36   0.250  -0.307  -0.053
    1UNL     H7   37  -0.035  -0.285   0.170
    1UNL     H8   38   0.125  -0.147   0.298
    1UNL     H9   39   0.031  -0.008   0.264
    1UNL    H10   40   0.234   0.054   0.166
    1UNL    H11   41   0.259   0.211  -0.379
    1UNL    H12   42   0.323   0.232  -0.217
    1UNL    H13   43   0.373   0.091  -0.317
    1UNL    H14   44   0.134  -0.127  -0.168
    1UNL    H15   45  -0.136  -0.143  -0.166
    1UNL    H16   46  -0.058   0.016  -0.216
    1UNL    H17   47  -0.261   0.204  -0.153
    1UNL    H18   48  -0.521   0.191  -0.195
    1UNL    H19   49  -0.641  -0.005  -0.137
    1UNL    H20   50  -0.537  -0.190  -0.011
    1UNL    H21   51  -0.273  -0.342   0.199
    1UNL    H22   52  -0.407  -0.348   0.078
    1UNL    H23   53  -0.237  -0.374   0.032
    1UNL    H24   54  -0.184  -0.047   0.204
    1UNL    H25   55  -0.036   0.143   0.124
    1UNL    H26   56  -0.054   0.527   0.002
    1UNL    H27   57   0.017   0.461  -0.151
    1UNL    H28   58   0.122   0.494  -0.027
   0.00000   0.00000   0.00000   0.00000   0.00000   0.00000   0.00000   0.00000   0.00000
Generated with MDTraj, t= 92.0
 58
    1UNL     C1    1   0.505  -0.032   0.163
    1UNL     C2    2   0.419  -0.138   0.101
    1UNL     C3    3   0.289  -0.143   0.075
    1UNL     C4    4   0.207  -0.265   0.028
    1UNL     N1    5   0.063  -0.223   0.008
    1UNL     C5    6  -0.010  -0.192   0.139
    1UNL     C6    7   0.087  -0.099   0.223
    1UNL     C7    8   0.189  -0.035   0.121
    1UNL     C8    9   0.108   0.026   0.002
    1UNL     C9   10   0.198   0.107  -0.086
    1UNL     O1   11   0.282   0.175  -0.029
    1UNL     O2   12   0.185   0.091  -0.220
    1UNL    C10   13   0.269   0.178  -0.289
    1UNL    C11   14   0.060  -0.099  -0.081
    1UNL    C12   15  -0.081  -0.073  -0.128
    1UNL    C13   16  -0.140  -0.009   0.001
    1UNL    C14   17  -0.280   0.033  -0.025
    1UNL    C15   18  -0.337   0.142  -0.089
    1UNL    C16   19  -0.463   0.136  -0.138
    1UNL    C17   20  -0.535   0.015  -0.118
    1UNL    C18   21  -0.480  -0.091  -0.046
    1UNL    C19   22  -0.352  -0.089  -0.007
    1UNL     N2   23  -0.282  -0.180   0.082
    1UNL    C20   24  -0.307  -0.322   0.085
    1UNL    C21   25  -0.148  -0.112   0.123
    1UNL    C22   26  -0.033   0.095   0.045
    1UNL     O3   27  -0.051   0.212  -0.040
    1UNL    C23   28   0.009   0.323   0.013
    1UNL    C24   29   0.023   0.442  -0.083
    1UNL     O4   30   0.035   0.335   0.132
    1UNL     H1   31   0.582   0.007   0.098
    1UNL     H2   32   0.562  -0.072   0.239
    1UNL     H3   33   0.456   0.055   0.207
    1UNL     H4   34   0.486  -0.224   0.064
    1UNL     H5   35   0.217  -0.356   0.094
    1UNL     H6   36   0.238  -0.285  -0.077
    1UNL     H7   37  -0.025  -0.284   0.198
    1UNL     H8   38   0.146  -0.154   0.297
    1UNL     H9   39   0.033  -0.023   0.278
    1UNL    H10   40   0.245   0.043   0.166
    1UNL    H11   41   0.317   0.115  -0.367
    1UNL    H12   42   0.206   0.257  -0.321
    1UNL    H13   43   0.350   0.221  -0.217
    1UNL    H14   44   0.119  -0.124  -0.168
    1UNL    H15   45  -0.122  -0.164  -0.168
    1UNL    H16   46  -0.084   0.016  -0.200
    1UNL    H17   47  -0.283   0.228  -0.099
    1UNL    H18   48  -0.512   0.222  -0.183
    1UNL    H19   49  -0.642   0.004  -0.148
    1UNL    H20   50  -0.539  -0.175  -0.016
    1UNL    H21   51  -0.265  -0.351   0.180
    1UNL    H22   52  -0.413  -0.346   0.087
    1UNL    H23   53  -0.256  -0.377   0.006
    1UNL    H24   54  -0.165  -0.052   0.216
    1UNL    H25   55  -0.049   0.123   0.147
    1UNL    H26   56  -0.029   0.523  -0.044
    1UNL    H27   57  -0.013   0.420  -0.193
    1UNL    H28   58   0.127   0.458  -0.100
   0.00000   0.00000   0.00000   0.00000   0.00000   0.00000   0.00000   0.00000   0.00000
Generated with MDTraj, t= 93.0
 58
    1UNL     C1    1   0.475  -0.025   0.148
    1UNL     C2    2   0.406  -0.150   0.109
    1UNL     C3    3   0.276  -0.157   0.106
    1UNL     C4    4   0.201  -0.275   0.058
    1UNL     N1    5   0.061  -0.231   0.015
    1UNL     C5    6  -0.016  -0.192   0.136
    1UNL     C6    7   0.074  -0.104   0.223
    1UNL     C7    8   0.183  -0.037   0.130
    1UNL     C8    9   0.127   0.015   0.000
    1UNL     C9   10   0.218   0.107  -0.086
    1UNL     O1   11   0.299   0.175  -0.027
    1UNL     O2   12   0.187   0.110  -0.221
    1UNL    C10   13   0.261   0.209  -0.284
    1UNL    C11   14   0.068  -0.115  -0.080
    1UNL    C12   15  -0.066  -0.074  -0.138
    1UNL    C13   16  -0.130  -0.001  -0.016
    1UNL    C14   17  -0.278   0.020  -0.041
    1UNL    C15   18  -0.338   0.134  -0.096
    1UNL    C16   19  -0.473   0.128  -0.110
    1UNL    C17   20  -0.555   0.024  -0.073
    1UNL    C18   21  -0.490  -0.088  -0.022
    1UNL    C19   22  -0.351  -0.096  -0.016
    1UNL     N2   23  -0.269  -0.185   0.060
    1UNL    C20   24  -0.301  -0.322   0.085
    1UNL    C21   25  -0.146  -0.111   0.097
    1UNL    C22   26  -0.009   0.096   0.026
    1UNL     O3   27  -0.030   0.215  -0.060
    1UNL    C23   28   0.007   0.329   0.003
    1UNL    C24   29   0.026   0.453  -0.085
    1UNL     O4   30   0.022   0.339   0.125
    1UNL     H1   31   0.419   0.063   0.122
    1UNL     H2   32   0.565  -0.020   0.094
    1UNL     H3   33   0.496  -0.025   0.255
    1UNL     H4   34   0.469  -0.224   0.085
    1UNL     H5   35   0.178  -0.342   0.145
    1UNL     H6   36   0.250  -0.330  -0.027
    1UNL     H7   37  -0.051  -0.281   0.193
    1UNL     H8   38   0.136  -0.170   0.283
    1UNL     H9   39   0.012  -0.036   0.283
    1UNL    H10   40   0.224   0.040   0.193
    1UNL    H11   41   0.372   0.185  -0.270
    1UNL    H12   42   0.228   0.225  -0.386
    1UNL    H13   43   0.232   0.307  -0.233
    1UNL    H14   44   0.132  -0.145  -0.163
    1UNL    H15   45  -0.125  -0.163  -0.164
    1UNL    H16   46  -0.055  -0.003  -0.224
    1UNL    H17   47  -0.278   0.228  -0.111
    1UNL    H18   48  -0.522   0.214  -0.152
    1UNL    H19   49  -0.658   0.021  -0.096
    1UNL    H20   50  -0.539  -0.169   0.038
    1UNL    H21   51  -0.263  -0.366   0.173
    1UNL    H22   52  -0.407  -0.327   0.093
    1UNL    H23   53  -0.274  -0.388  -0.003
    1UNL    H24   54  -0.172  -0.053   0.188
    1UNL    H25   55  -0.009   0.137   0.125
    1UNL    H26   56  -0.014   0.536  -0.032
    1UNL    H27   57  -0.024   0.438  -0.179
    1UNL    H28   58   0.132   0.459  -0.111
   0.00000   0.00000   0.00000   0.00000   0.00000   0.00000   0.00000   0.00000   0.00000
Generated with MDTraj, t= 94.0
 58
    1UNL     C1    1   0.510  -0.006   0.141
    1UNL     C2    2   0.408  -0.124   0.108
    1UNL     C3    3   0.277  -0.132   0.099
    1UNL     C4    4   0.207  -0.263   0.057
    1UNL     N1    5   0.067  -0.226   0.014
    1UNL     C5    6  -0.013  -0.193   0.133
    1UNL     C6    7   0.069  -0.100   0.226
    1UNL     C7    8   0.176  -0.024   0.132
    1UNL     C8    9   0.116   0.023  -0.005
    1UNL     C9   10   0.223   0.102  -0.086
    1UNL     O1   11   0.324   0.132  -0.026
    1UNL     O2   12   0.193   0.130  -0.215
    1UNL    C10   13   0.300   0.205  -0.274
    1UNL    C11   14   0.075  -0.108  -0.085
    1UNL    C12   15  -0.070  -0.096  -0.136
    1UNL    C13   16  -0.132  -0.026  -0.023
    1UNL    C14   17  -0.280   0.015  -0.046
    1UNL    C15   18  -0.333   0.131  -0.103
    1UNL    C16   19  -0.472   0.146  -0.107
    1UNL    C17   20  -0.554   0.045  -0.062
    1UNL    C18   21  -0.505  -0.071  -0.012
    1UNL    C19   22  -0.368  -0.084  -0.006
    1UNL     N2   23  -0.278  -0.179   0.053
    1UNL    C20   24  -0.306  -0.319   0.102
    1UNL    C21   25  -0.151  -0.120   0.093
    1UNL    C22   26  -0.025   0.091   0.004
    1UNL     O3   27  -0.040   0.205  -0.080
    1UNL    C23   28  -0.007   0.310   0.002
    1UNL    C24   29   0.006   0.445  -0.056
    1UNL     O4   30   0.007   0.303   0.124
    1UNL     H1   31   0.480   0.083   0.093
    1UNL     H2   32   0.609  -0.031   0.104
    1UNL     H3   33   0.517   0.014   0.245
    1UNL     H4   34   0.467  -0.216   0.075
    1UNL     H5   35   0.200  -0.338   0.139
    1UNL     H6   36   0.247  -0.311  -0.039
    1UNL     H7   37  -0.043  -0.290   0.178
    1UNL     H8   38   0.121  -0.165   0.296
    1UNL     H9   39   0.000  -0.024   0.265
    1UNL    H10   40   0.221   0.066   0.177
    1UNL    H11   41   0.397   0.187  -0.218
    1UNL    H12   42   0.323   0.168  -0.375
    1UNL    H13   43   0.266   0.314  -0.267
    1UNL    H14   44   0.149  -0.131  -0.164
    1UNL    H15   45  -0.123  -0.194  -0.146
    1UNL    H16   46  -0.078  -0.038  -0.228
    1UNL    H17   47  -0.259   0.209  -0.124
    1UNL    H18   48  -0.522   0.228  -0.158
    1UNL    H19   49  -0.663   0.044  -0.081
    1UNL    H20   50  -0.568  -0.146   0.016
    1UNL    H21   51  -0.295  -0.342   0.206
    1UNL    H22   52  -0.404  -0.351   0.075
    1UNL    H23   53  -0.239  -0.392   0.047
    1UNL    H24   54  -0.180  -0.048   0.173
    1UNL    H25   55  -0.045   0.135   0.099
    1UNL    H26   56  -0.081   0.501  -0.024
    1UNL    H27   57   0.013   0.436  -0.154
    1UNL    H28   58   0.102   0.488  -0.020
   0.00000   0.00000   0.00000   0.00000   0.00000   0.00000   0.00000   0.00000   0.00000
Generated with MDTraj, t= 95.0
 58
    1UNL     C1    1   0.471  -0.015   0.176
    1UNL     C2    2   0.409  -0.139   0.120
    1UNL     C3    3   0.283  -0.139   0.086
    1UNL     C4    4   0.221  -0.261   0.029
    1UNL     N1    5   0.071  -0.234  -0.002
    1UNL     C5    6  -0.012  -0.197   0.123
    1UNL     C6    7   0.079  -0.117   0.217
    1UNL     C7    8   0.181  -0.036   0.125
    1UNL     C8    9   0.115   0.013  -0.010
    1UNL     C9   10   0.211   0.106  -0.088
    1UNL     O1   11   0.303   0.167  -0.038
    1UNL     O2   12   0.195   0.099  -0.225
    1UNL    C10   13   0.284   0.184  -0.295
    1UNL    C11   14   0.073  -0.115  -0.090
    1UNL    C12   15  -0.072  -0.092  -0.141
    1UNL    C13   16  -0.129  -0.016  -0.022
    1UNL    C14   17  -0.272   0.026  -0.050
    1UNL    C15   18  -0.323   0.134  -0.117
    1UNL    C16   19  -0.461   0.143  -0.126
    1UNL    C17   20  -0.539   0.037  -0.075
    1UNL    C18   21  -0.481  -0.074  -0.018
    1UNL    C19   22  -0.350  -0.082   0.003
    1UNL     N2   23  -0.271  -0.190   0.054
    1UNL    C20   24  -0.326  -0.297   0.133
    1UNL    C21   25  -0.143  -0.123   0.102
    1UNL    C22   26  -0.021   0.086   0.026
    1UNL     O3   27  -0.030   0.215  -0.047
    1UNL    C23   28  -0.007   0.330   0.021
    1UNL    C24   29  -0.028   0.458  -0.059
    1UNL     O4   30   0.016   0.334   0.140
    1UNL     H1   31   0.480   0.063   0.106
    1UNL     H2   32   0.574  -0.025   0.213
    1UNL     H3   33   0.422   0.027   0.257
    1UNL     H4   34   0.476  -0.224   0.100
    1UNL     H5   35   0.216  -0.329   0.116
    1UNL     H6   36   0.279  -0.313  -0.056
    1UNL     H7   37  -0.037  -0.296   0.169
    1UNL     H8   38   0.140  -0.190   0.270
    1UNL     H9   39   0.029  -0.051   0.290
    1UNL    H10   40   0.233   0.050   0.177
    1UNL    H11   41   0.338   0.123  -0.373
    1UNL    H12   42   0.225   0.244  -0.365
    1UNL    H13   43   0.343   0.245  -0.219
    1UNL    H14   44   0.142  -0.150  -0.170
    1UNL    H15   45  -0.128  -0.191  -0.161
    1UNL    H16   46  -0.088  -0.039  -0.233
    1UNL    H17   47  -0.261   0.204  -0.156
    1UNL    H18   48  -0.511   0.228  -0.169
    1UNL    H19   49  -0.644   0.036  -0.086
    1UNL    H20   50  -0.547  -0.165  -0.008
    1UNL    H21   51  -0.406  -0.263   0.199
    1UNL    H22   52  -0.379  -0.357   0.058
    1UNL    H23   53  -0.254  -0.364   0.176
    1UNL    H24   54  -0.172  -0.074   0.195
    1UNL    H25   55  -0.029   0.106   0.132
    1UNL    H26   56  -0.132   0.473  -0.076
    1UNL    H27   57   0.021   0.460  -0.156
    1UNL    H28   58   0.009   0.544  -0.007
   0.00000   0.00000   0.00000   0.00000   0.00000   0.00000   0.00000   0.00000   0.00000
Generated with MDTraj, t= 96.0
 58
    1UNL     C1    1   0.484  -0.051   0.192
    1UNL     C2    2   0.407  -0.154   0.114
    1UNL     C3    3   0.282  -0.145   0.080
    1UNL     C4    4   0.207  -0.264   0.026
    1UNL     N1    5   0.070  -0.227  -0.007
    1UNL     C5    6  -0.002  -0.196   0.124
    1UNL     C6    7   0.089  -0.108   0.215
    1UNL     C7    8   0.189  -0.031   0.119
    1UNL     C8    9   0.121   0.024  -0.008
    1UNL     C9   10   0.219   0.112  -0.092
    1UNL     O1   11   0.284   0.196  -0.036
    1UNL     O2   12   0.212   0.082  -0.224
    1UNL    C10   13   0.266   0.184  -0.308
    1UNL    C11   14   0.076  -0.106  -0.098
    1UNL    C12   15  -0.070  -0.087  -0.137
    1UNL    C13   16  -0.126  -0.013  -0.015
    1UNL    C14   17  -0.270   0.032  -0.040
    1UNL    C15   18  -0.334   0.138  -0.097
    1UNL    C16   19  -0.467   0.132  -0.135
    1UNL    C17   20  -0.537   0.018  -0.109
    1UNL    C18   21  -0.473  -0.089  -0.046
    1UNL    C19   22  -0.343  -0.080  -0.005
    1UNL     N2   23  -0.274  -0.176   0.071
    1UNL    C20   24  -0.332  -0.262   0.165
    1UNL    C21   25  -0.133  -0.112   0.103
    1UNL    C22   26  -0.018   0.095   0.017
    1UNL     O3   27  -0.031   0.213  -0.059
    1UNL    C23   28  -0.016   0.316   0.031
    1UNL    C24   29  -0.026   0.441  -0.049
    1UNL     O4   30  -0.002   0.315   0.153
    1UNL     H1   31   0.445   0.045   0.170
    1UNL     H2   32   0.589  -0.050   0.161
    1UNL     H3   33   0.479  -0.067   0.295
    1UNL     H4   34   0.464  -0.233   0.083
    1UNL     H5   35   0.198  -0.353   0.091
    1UNL     H6   36   0.258  -0.299  -0.071
    1UNL     H7   37  -0.023  -0.298   0.163
    1UNL     H8   38   0.145  -0.158   0.294
    1UNL     H9   39   0.035  -0.033   0.276
    1UNL    H10   40   0.241   0.053   0.180
    1UNL    H11   41   0.185   0.206  -0.380
    1UNL    H12   42   0.292   0.267  -0.246
    1UNL    H13   43   0.358   0.154  -0.358
    1UNL    H14   44   0.150  -0.109  -0.181
    1UNL    H15   45  -0.125  -0.183  -0.170
    1UNL    H16   46  -0.083  -0.023  -0.222
    1UNL    H17   47  -0.270   0.230  -0.125
    1UNL    H18   48  -0.515   0.225  -0.162
    1UNL    H19   49  -0.646   0.025  -0.114
    1UNL    H20   50  -0.520  -0.182  -0.033
    1UNL    H21   51  -0.443  -0.249   0.156
    1UNL    H22   52  -0.311  -0.368   0.138
    1UNL    H23   53  -0.286  -0.245   0.258
    1UNL    H24   54  -0.141  -0.051   0.193
    1UNL    H25   55  -0.029   0.133   0.119
    1UNL    H26   56  -0.117   0.450  -0.101
    1UNL    H27   57   0.052   0.457  -0.134
    1UNL    H28   58  -0.025   0.520   0.014
   0.00000   0.00000   0.00000   0.00000   0.00000   0.00000   0.00000   0.00000   0.00000
Generated with MDTraj, t= 97.0
 58
    1UNL     C1    1   0.498  -0.061   0.145
    1UNL     C2    2   0.406  -0.163   0.107
    1UNL     C3    3   0.280  -0.148   0.082
    1UNL     C4    4   0.205  -0.272   0.044
    1UNL     N1    5   0.069  -0.228  -0.002
    1UNL     C5    6  -0.005  -0.185   0.124
    1UNL     C6    7   0.085  -0.089   0.208
    1UNL     C7    8   0.187  -0.032   0.115
    1UNL     C8    9   0.120   0.020  -0.016
    1UNL     C9   10   0.212   0.111  -0.091
    1UNL     O1   11   0.275   0.189  -0.025
    1UNL     O2   12   0.213   0.096  -0.229
    1UNL    C10   13   0.305   0.184  -0.287
    1UNL    C11   14   0.075  -0.111  -0.096
    1UNL    C12   15  -0.069  -0.090  -0.137
    1UNL    C13   16  -0.126  -0.010  -0.022
    1UNL    C14   17  -0.270   0.022  -0.048
    1UNL    C15   18  -0.324   0.125  -0.120
    1UNL    C16   19  -0.463   0.113  -0.146
    1UNL    C17   20  -0.539   0.008  -0.106
    1UNL    C18   21  -0.487  -0.088  -0.027
    1UNL    C19   22  -0.348  -0.085  -0.000
    1UNL     N2   23  -0.272  -0.167   0.082
    1UNL    C20   24  -0.321  -0.269   0.169
    1UNL    C21   25  -0.141  -0.102   0.096
    1UNL    C22   26  -0.015   0.099   0.013
    1UNL     O3   27  -0.031   0.224  -0.052
    1UNL    C23   28  -0.028   0.330   0.034
    1UNL    C24   29  -0.000   0.458  -0.032
    1UNL     O4   30  -0.043   0.321   0.154
    1UNL     H1   31   0.523  -0.011   0.054
    1UNL     H2   32   0.584  -0.109   0.190
    1UNL     H3   33   0.450   0.002   0.216
    1UNL     H4   34   0.451  -0.267   0.081
    1UNL     H5   35   0.203  -0.338   0.134
    1UNL     H6   36   0.246  -0.342  -0.038
    1UNL     H7   37  -0.034  -0.274   0.182
    1UNL     H8   38   0.142  -0.147   0.279
    1UNL     H9   39   0.042  -0.014   0.279
    1UNL    H10   40   0.243   0.061   0.159
    1UNL    H11   41   0.314   0.268  -0.218
    1UNL    H12   42   0.387   0.122  -0.316
    1UNL    H13   43   0.257   0.231  -0.370
    1UNL    H14   44   0.142  -0.143  -0.179
    1UNL    H15   45  -0.130  -0.185  -0.145
    1UNL    H16   46  -0.073  -0.057  -0.241
    1UNL    H17   47  -0.267   0.210  -0.152
    1UNL    H18   48  -0.508   0.197  -0.200
    1UNL    H19   49  -0.645   0.009  -0.121
    1UNL    H20   50  -0.549  -0.162   0.020
    1UNL    H21   51  -0.401  -0.320   0.108
    1UNL    H22   52  -0.248  -0.344   0.203
    1UNL    H23   53  -0.360  -0.219   0.255
    1UNL    H24   54  -0.153  -0.046   0.188
    1UNL    H25   55  -0.027   0.122   0.120
    1UNL    H26   56  -0.068   0.476  -0.111
    1UNL    H27   57   0.100   0.467  -0.086
    1UNL    H28   58  -0.017   0.535   0.039
   0.00000   0.00000   0.00000   0.00000   0.00000   0.00000   0.00000   0.00000   0.00000
Generated with MDTraj, t= 98.0
 58
    1UNL     C1    1   0.496  -0.011   0.099
    1UNL     C2    2   0.416  -0.127   0.068
    1UNL     C3    3   0.287  -0.149   0.084
    1UNL     C4    4   0.206  -0.273   0.047
    1UNL     N1    5   0.071  -0.223   0.003
    1UNL     C5    6  -0.013  -0.191   0.123
    1UNL     C6    7   0.073  -0.105   0.216
    1UNL     C7    8   0.183  -0.040   0.129
    1UNL     C8    9   0.119   0.017  -0.004
    1UNL     C9   10   0.226   0.095  -0.080
    1UNL     O1   11   0.306   0.160  -0.017
    1UNL     O2   12   0.223   0.082  -0.216
    1UNL    C10   13   0.320   0.165  -0.271
    1UNL    C11   14   0.073  -0.107  -0.088
    1UNL    C12   15  -0.069  -0.085  -0.135
    1UNL    C13   16  -0.124  -0.007  -0.020
    1UNL    C14   17  -0.273   0.028  -0.048
    1UNL    C15   18  -0.332   0.119  -0.128
    1UNL    C16   19  -0.469   0.117  -0.154
    1UNL    C17   20  -0.548   0.020  -0.093
    1UNL    C18   21  -0.493  -0.071  -0.011
    1UNL    C19   22  -0.355  -0.075   0.008
    1UNL     N2   23  -0.273  -0.165   0.078
    1UNL    C20   24  -0.335  -0.290   0.148
    1UNL    C21   25  -0.145  -0.104   0.101
    1UNL    C22   26  -0.013   0.097   0.025
    1UNL     O3   27  -0.005   0.215  -0.046
    1UNL    C23   28  -0.033   0.331   0.028
    1UNL    C24   29   0.000   0.465  -0.036
    1UNL     O4   30  -0.078   0.324   0.141
    1UNL     H1   31   0.549   0.026   0.013
    1UNL     H2   32   0.568  -0.028   0.173
    1UNL     H3   33   0.434   0.072   0.135
    1UNL     H4   34   0.469  -0.202   0.022
    1UNL     H5   35   0.193  -0.352   0.126
    1UNL     H6   36   0.263  -0.326  -0.035
    1UNL     H7   37  -0.046  -0.289   0.161
    1UNL     H8   38   0.127  -0.161   0.291
    1UNL     H9   39   0.014  -0.034   0.278
    1UNL    H10   40   0.242   0.041   0.187
    1UNL    H11   41   0.410   0.106  -0.281
    1UNL    H12   42   0.278   0.190  -0.367
    1UNL    H13   43   0.331   0.244  -0.196
    1UNL    H14   44   0.138  -0.123  -0.178
    1UNL    H15   45  -0.120  -0.180  -0.159
    1UNL    H16   46  -0.085  -0.026  -0.228
    1UNL    H17   47  -0.268   0.188  -0.174
    1UNL    H18   48  -0.509   0.172  -0.235
    1UNL    H19   49  -0.648   0.000  -0.131
    1UNL    H20   50  -0.564  -0.140   0.043
    1UNL    H21   51  -0.284  -0.373   0.101
    1UNL    H22   52  -0.321  -0.298   0.257
    1UNL    H23   53  -0.445  -0.298   0.134
    1UNL    H24   54  -0.157  -0.043   0.190
    1UNL    H25   55  -0.023   0.105   0.132
    1UNL    H26   56  -0.041   0.459  -0.134
    1UNL    H27   57   0.105   0.478  -0.055
    1UNL    H28   58  -0.057   0.548   0.018
   0.00000   0.00000   0.00000   0.00000   0.00000   0.00000   0.00000   0.00000   0.00000
Generated with MDTraj, t= 99.0
 58
    1UNL     C1    1   0.501  -0.023   0.095
    1UNL     C2    2   0.416  -0.147   0.073
    1UNL     C3    3   0.286  -0.157   0.093
    1UNL     C4    4   0.198  -0.271   0.047
    1UNL     N1    5   0.066  -0.225   0.011
    1UNL     C5    6  -0.008  -0.193   0.135
    1UNL     C6    7   0.084  -0.096   0.218
    1UNL     C7    8   0.197  -0.038   0.129
    1UNL     C8    9   0.125   0.021   0.000
    1UNL     C9   10   0.218   0.108  -0.080
    1UNL     O1   11   0.280   0.198  -0.025
    1UNL     O2   12   0.222   0.073  -0.209
    1UNL    C10   13   0.324   0.148  -0.276
    1UNL    C11   14   0.074  -0.106  -0.083
    1UNL    C12   15  -0.072  -0.078  -0.132
    1UNL    C13   16  -0.128  -0.010  -0.006
    1UNL    C14   17  -0.265   0.035  -0.034
    1UNL    C15   18  -0.311   0.150  -0.097
    1UNL    C16   19  -0.443   0.153  -0.120
    1UNL    C17   20  -0.531   0.047  -0.092
    1UNL    C18   21  -0.480  -0.074  -0.040
    1UNL    C19   22  -0.343  -0.080  -0.007
    1UNL     N2   23  -0.270  -0.182   0.063
    1UNL    C20   24  -0.329  -0.294   0.138
    1UNL    C21   25  -0.144  -0.120   0.107
    1UNL    C22   26  -0.015   0.094   0.024
    1UNL     O3   27  -0.027   0.204  -0.061
    1UNL    C23   28  -0.053   0.314   0.016
    1UNL    C24   29  -0.037   0.441  -0.056
    1UNL     O4   30  -0.086   0.318   0.133
    1UNL     H1   31   0.530   0.024   0.002
    1UNL     H2   32   0.588  -0.043   0.148
    1UNL     H3   33   0.442   0.048   0.154
    1UNL     H4   34   0.471  -0.233   0.031
    1UNL     H5   35   0.194  -0.354   0.125
    1UNL     H6   36   0.251  -0.320  -0.039
    1UNL     H7   37  -0.033  -0.288   0.186
    1UNL     H8   38   0.130  -0.152   0.299
    1UNL     H9   39   0.030  -0.012   0.265
    1UNL    H10   40   0.259   0.040   0.183
    1UNL    H11   41   0.317   0.128  -0.386
    1UNL    H12   42   0.304   0.254  -0.248
    1UNL    H13   43   0.414   0.114  -0.219
    1UNL    H14   44   0.142  -0.121  -0.171
    1UNL    H15   45  -0.119  -0.169  -0.164
    1UNL    H16   46  -0.082  -0.005  -0.218
    1UNL    H17   47  -0.244   0.240  -0.121
    1UNL    H18   48  -0.481   0.233  -0.188
    1UNL    H19   49  -0.630   0.062  -0.131
    1UNL    H20   50  -0.536  -0.157  -0.019
    1UNL    H21   51  -0.257  -0.324   0.209
    1UNL    H22   52  -0.432  -0.279   0.179
    1UNL    H23   53  -0.340  -0.379   0.064
    1UNL    H24   54  -0.164  -0.065   0.200
    1UNL    H25   55  -0.005   0.114   0.132
    1UNL    H26   56  -0.022   0.403  -0.158
    1UNL    H27   57   0.050   0.487  -0.027
    1UNL    H28   58  -0.141   0.494  -0.051
   0.00000   0.00000   0.00000   0.00000   0.00000   0.00000   0.00000   0.00000   0.00000
