1TPCN00614
12
    1res  C1    1   -0.450  -0.273  -0.062
    1res  C2    2   -0.216  -0.223  -0.176
    1res  C3    3   -0.101  -0.031  -0.197
    1res  C4    4    0.069  -0.209  -0.049
    1res  C5    5   -0.065  -0.031   0.073
    1res  C6    6   -0.350   0.178   0.114
    1res  C7    7    0.073   0.096  -0.188
    1res  C8    8    0.302   0.046  -0.019
    1res  C9    9    0.366   0.288  -0.029
    1res  C10   10    0.535   0.070   0.069
    1res  C11   11    0.343  -0.255  -0.001
    1res  C12   12   -0.009   0.338   0.211
  10.00000  10.00000  10.00000
