[ moleculetype ]
; name        nrexcl
res           1

[ atoms ]
;    nr  type resnr resid  atom  cgnr     charge       mass
      1 SC4       1 res   C1        1      0.000     54.000
      2 TP1       1 res   C2        2      0.000     36.000
      3 SN6       1 res   C3        3      0.000     54.000
      4 TN4a      1 res   C4        4      0.000     36.000
      5 TN6a      1 res   C5        5      0.000     36.000
      6 TP1       1 res   C6        6      0.000     36.000
      7 SC3       1 res   C7        7      0.000     54.000
      8 TC4       1 res   C8        8      0.000     36.000
      9 TN6a      1 res   C9        9      0.000     36.000

[ bonds ]
;  ai    aj   funct      b0(nm)        k
    1     2     1      0.31181    20000
    1     7     1      0.27771    20000
    2     3     1      0.24458    20000
    3     4     1      0.23310    20000
    3     5     1      0.22673    20000
    3     6     1      0.22664    20000
    4     5     1      0.26204    20000
    4     7     1      0.32536    20000
    7     8     1      0.31113    20000
    7     9     1      0.23205    20000
    8     9     1      0.24615    20000
