Generated with MDTraj, t= 0.0
 77
    1UNL     C1    1  -0.363  -0.598  -0.180
    1UNL     O1    2  -0.241  -0.541  -0.143
    1UNL     C2    3  -0.263  -0.415  -0.080
    1UNL     C3    4  -0.297  -0.429   0.072
    1UNL     C4    5  -0.301  -0.285   0.133
    1UNL     C5    6  -0.321  -0.280   0.283
    1UNL     O2    7  -0.406  -0.215   0.061
    1UNL     C6    8  -0.360  -0.207  -0.075
    1UNL     O3    9  -0.371  -0.337  -0.137
    1UNL     C7   10  -0.205  -0.179  -0.066
    1UNL     C8   11  -0.154  -0.052  -0.134
    1UNL     O4   12  -0.213   0.063  -0.079
    1UNL     C9   13  -0.223   0.161  -0.173
    1UNL     O5   14  -0.187   0.149  -0.289
    1UNL    C10   15  -0.283   0.289  -0.127
    1UNL    C11   16  -0.289   0.398  -0.213
    1UNL    C12   17  -0.345   0.516  -0.170
    1UNL    C13   18  -0.395   0.527  -0.042
    1UNL    C14   19  -0.390   0.419   0.043
    1UNL    C15   20  -0.334   0.300   0.001
    1UNL    C16   21  -0.137  -0.319  -0.095
    1UNL    C17   22  -0.055  -0.299   0.035
    1UNL    C18   23  -0.169  -0.207   0.086
    1UNL     O6   24  -0.141  -0.090   0.164
    1UNL    C19   25  -0.006  -0.050   0.169
    1UNL     O7   26   0.068  -0.058   0.046
    1UNL    C20   27   0.195   0.013   0.048
    1UNL    C21   28   0.299  -0.061  -0.036
    1UNL     O8   29   0.426  -0.001  -0.031
    1UNL    C22   30   0.424   0.124  -0.086
    1UNL     O9   31   0.324   0.177  -0.131
    1UNL    C23   32   0.553   0.197  -0.088
    1UNL    C24   33   0.667   0.140  -0.035
    1UNL    C25   34   0.787   0.208  -0.037
    1UNL    C26   35   0.793   0.335  -0.092
    1UNL    C27   36   0.679   0.393  -0.144
    1UNL    C28   37   0.560   0.325  -0.142
    1UNL    C29   38   0.248   0.034   0.192
    1UNL    O10   39   0.268  -0.090   0.256
    1UNL    C30   40   0.148   0.124   0.272
    1UNL    O11   41   0.178   0.261   0.258
    1UNL    C31   42   0.003   0.095   0.223
    1UNL    O12   43  -0.031   0.185   0.119
    1UNL     H1   44  -0.419  -0.527  -0.240
    1UNL     H2   45  -0.343  -0.688  -0.238
    1UNL     H3   46  -0.420  -0.624  -0.090
    1UNL     H4   47  -0.225  -0.493   0.123
    1UNL     H5   48  -0.396  -0.474   0.083
    1UNL     H6   49  -0.415  -0.328   0.310
    1UNL     H7   50  -0.240  -0.331   0.335
    1UNL     H8   51  -0.324  -0.177   0.316
    1UNL     H9   52  -0.416  -0.131  -0.131
    1UNL    H10   53  -0.046  -0.041  -0.123
    1UNL    H11   54  -0.177  -0.055  -0.241
    1UNL    H12   55  -0.249   0.387  -0.312
    1UNL    H13   56  -0.349   0.601  -0.237
    1UNL    H14   57  -0.438   0.620  -0.009
    1UNL    H15   58  -0.429   0.427   0.143
    1UNL    H16   59  -0.330   0.215   0.066
    1UNL    H17   60  -0.083  -0.326  -0.190
    1UNL    H18   61  -0.041  -0.390   0.094
    1UNL    H19   62   0.041  -0.248   0.019
    1UNL    H20   63   0.045  -0.119   0.238
    1UNL    H21   64   0.174   0.110   0.001
    1UNL    H22   65   0.268  -0.067  -0.141
    1UNL    H23   66   0.311  -0.163   0.002
    1UNL    H24   67   0.661   0.041   0.006
    1UNL    H25   68   0.875   0.163   0.003
    1UNL    H26   69   0.886   0.388  -0.093
    1UNL    H27   70   0.684   0.492  -0.186
    1UNL    H28   71   0.470   0.368  -0.183
    1UNL    H29   72   0.345   0.085   0.186
    1UNL    H30   73   0.309  -0.077   0.345
    1UNL    H31   74   0.157   0.100   0.379
    1UNL    H32   75   0.138   0.293   0.174
    1UNL    H33   76  -0.071   0.110   0.303
    1UNL    H34   77  -0.092   0.140   0.056
   0.00000   0.00000   0.00000   0.00000   0.00000   0.00000   0.00000   0.00000   0.00000
Generated with MDTraj, t= 1.0
 77
    1UNL     C1    1  -0.390  -0.620  -0.141
    1UNL     O1    2  -0.266  -0.537  -0.141
    1UNL     C2    3  -0.282  -0.412  -0.081
    1UNL     C3    4  -0.302  -0.424   0.074
    1UNL     C4    5  -0.289  -0.283   0.130
    1UNL     C5    6  -0.304  -0.281   0.284
    1UNL     O2    7  -0.400  -0.202   0.071
    1UNL     C6    8  -0.370  -0.196  -0.071
    1UNL     O3    9  -0.389  -0.334  -0.127
    1UNL     C7   10  -0.211  -0.173  -0.081
    1UNL     C8   11  -0.146  -0.055  -0.145
    1UNL     O4   12  -0.207   0.064  -0.100
    1UNL     C9   13  -0.217   0.164  -0.194
    1UNL     O5   14  -0.180   0.155  -0.310
    1UNL    C10   15  -0.276   0.290  -0.137
    1UNL    C11   16  -0.320   0.392  -0.219
    1UNL    C12   17  -0.391   0.493  -0.164
    1UNL    C13   18  -0.404   0.502  -0.026
    1UNL    C14   19  -0.376   0.396   0.056
    1UNL    C15   20  -0.311   0.291   0.003
    1UNL    C16   21  -0.154  -0.316  -0.109
    1UNL    C17   22  -0.055  -0.292   0.013
    1UNL    C18   23  -0.160  -0.200   0.074
    1UNL     O6   24  -0.129  -0.079   0.146
    1UNL    C19   25   0.009  -0.055   0.168
    1UNL     O7   26   0.081  -0.063   0.051
    1UNL    C20   27   0.203   0.018   0.036
    1UNL    C21   28   0.299  -0.062  -0.048
    1UNL     O8   29   0.432  -0.005  -0.049
    1UNL    C22   30   0.420   0.123  -0.072
    1UNL     O9   31   0.316   0.187  -0.082
    1UNL    C23   32   0.553   0.190  -0.076
    1UNL    C24   33   0.659   0.155   0.000
    1UNL    C25   34   0.781   0.220  -0.001
    1UNL    C26   35   0.788   0.343  -0.070
    1UNL    C27   36   0.687   0.379  -0.150
    1UNL    C28   37   0.564   0.310  -0.143
    1UNL    C29   38   0.254   0.043   0.182
    1UNL    O10   39   0.278  -0.086   0.246
    1UNL    C30   40   0.157   0.128   0.266
    1UNL    O11   41   0.187   0.264   0.253
    1UNL    C31   42   0.011   0.100   0.217
    1UNL    O12   43  -0.016   0.183   0.108
    1UNL     H1   44  -0.469  -0.547  -0.150
    1UNL     H2   45  -0.405  -0.671  -0.234
    1UNL     H3   46  -0.396  -0.684  -0.054
    1UNL     H4   47  -0.240  -0.491   0.126
    1UNL     H5   48  -0.408  -0.444   0.101
    1UNL     H6   49  -0.400  -0.236   0.309
    1UNL     H7   50  -0.308  -0.375   0.340
    1UNL     H8   51  -0.233  -0.222   0.343
    1UNL     H9   52  -0.428  -0.122  -0.132
    1UNL    H10   53  -0.042  -0.044  -0.126
    1UNL    H11   54  -0.157  -0.055  -0.249
    1UNL    H12   55  -0.292   0.386  -0.322
    1UNL    H13   56  -0.420   0.574  -0.224
    1UNL    H14   57  -0.449   0.584   0.019
    1UNL    H15   58  -0.409   0.395   0.160
    1UNL    H16   59  -0.273   0.213   0.064
    1UNL    H17   60  -0.102  -0.338  -0.202
    1UNL    H18   61  -0.036  -0.371   0.078
    1UNL    H19   62   0.035  -0.227  -0.006
    1UNL    H20   63   0.045  -0.113   0.251
    1UNL    H21   64   0.174   0.103  -0.021
    1UNL    H22   65   0.276  -0.072  -0.151
    1UNL    H23   66   0.306  -0.163  -0.012
    1UNL    H24   67   0.646   0.063   0.055
    1UNL    H25   68   0.867   0.202   0.061
    1UNL    H26   69   0.882   0.399  -0.065
    1UNL    H27   70   0.688   0.460  -0.227
    1UNL    H28   71   0.480   0.352  -0.186
    1UNL    H29   72   0.352   0.097   0.167
    1UNL    H30   73   0.350  -0.146   0.208
    1UNL    H31   74   0.164   0.114   0.372
    1UNL    H32   75   0.143   0.301   0.173
    1UNL    H33   76  -0.066   0.109   0.294
    1UNL    H34   77  -0.076   0.133   0.046
   0.00000   0.00000   0.00000   0.00000   0.00000   0.00000   0.00000   0.00000   0.00000
Generated with MDTraj, t= 2.0
 77
    1UNL     C1    1  -0.415  -0.603  -0.138
    1UNL     O1    2  -0.283  -0.546  -0.129
    1UNL     C2    3  -0.293  -0.416  -0.074
    1UNL     C3    4  -0.306  -0.412   0.083
    1UNL     C4    5  -0.306  -0.267   0.131
    1UNL     C5    6  -0.315  -0.259   0.287
    1UNL     O2    7  -0.409  -0.196   0.063
    1UNL     C6    8  -0.373  -0.198  -0.075
    1UNL     O3    9  -0.391  -0.334  -0.126
    1UNL     C7   10  -0.215  -0.182  -0.077
    1UNL     C8   11  -0.157  -0.065  -0.146
    1UNL     O4   12  -0.207   0.058  -0.093
    1UNL     C9   13  -0.220   0.164  -0.182
    1UNL     O5   14  -0.197   0.156  -0.303
    1UNL    C10   15  -0.287   0.280  -0.121
    1UNL    C11   16  -0.343   0.372  -0.210
    1UNL    C12   17  -0.408   0.482  -0.168
    1UNL    C13   18  -0.421   0.503  -0.035
    1UNL    C14   19  -0.381   0.407   0.056
    1UNL    C15   20  -0.313   0.298   0.016
    1UNL    C16   21  -0.158  -0.328  -0.102
    1UNL    C17   22  -0.063  -0.303   0.023
    1UNL    C18   23  -0.171  -0.203   0.071
    1UNL     O6   24  -0.143  -0.075   0.139
    1UNL    C19   25  -0.001  -0.062   0.155
    1UNL     O7   26   0.086  -0.083   0.044
    1UNL    C20   27   0.210   0.001   0.036
    1UNL    C21   28   0.312  -0.052  -0.057
    1UNL     O8   29   0.439   0.015  -0.040
    1UNL    C22   30   0.433   0.145  -0.077
    1UNL     O9   31   0.332   0.200  -0.115
    1UNL    C23   32   0.559   0.227  -0.064
    1UNL    C24   33   0.661   0.177   0.019
    1UNL    C25   34   0.785   0.239   0.032
    1UNL    C26   35   0.820   0.347  -0.055
    1UNL    C27   36   0.728   0.391  -0.143
    1UNL    C28   37   0.596   0.334  -0.144
    1UNL    C29   38   0.264   0.022   0.174
    1UNL    O10   39   0.310  -0.099   0.240
    1UNL    C30   40   0.164   0.109   0.256
    1UNL    O11   41   0.200   0.240   0.235
    1UNL    C31   42   0.019   0.084   0.199
    1UNL    O12   43  -0.008   0.165   0.083
    1UNL     H1   44  -0.454  -0.537  -0.214
    1UNL     H2   45  -0.404  -0.695  -0.195
    1UNL     H3   46  -0.465  -0.612  -0.041
    1UNL     H4   47  -0.242  -0.475   0.137
    1UNL     H5   48  -0.410  -0.441   0.108
    1UNL     H6   49  -0.353  -0.344   0.346
    1UNL     H7   50  -0.212  -0.233   0.315
    1UNL     H8   51  -0.358  -0.170   0.334
    1UNL     H9   52  -0.436  -0.126  -0.133
    1UNL    H10   53  -0.055  -0.052  -0.127
    1UNL    H11   54  -0.169  -0.057  -0.248
    1UNL    H12   55  -0.318   0.357  -0.316
    1UNL    H13   56  -0.448   0.560  -0.242
    1UNL    H14   57  -0.483   0.595  -0.000
    1UNL    H15   58  -0.405   0.429   0.160
    1UNL    H16   59  -0.308   0.210   0.092
    1UNL    H17   60  -0.108  -0.343  -0.198
    1UNL    H18   61  -0.038  -0.388   0.081
    1UNL    H19   62   0.033  -0.256  -0.008
    1UNL    H20   63   0.008  -0.139   0.229
    1UNL    H21   64   0.175   0.095   0.001
    1UNL    H22   65   0.282  -0.053  -0.158
    1UNL    H23   66   0.347  -0.150  -0.035
    1UNL    H24   67   0.637   0.089   0.076
    1UNL    H25   68   0.861   0.187   0.094
    1UNL    H26   69   0.916   0.398  -0.054
    1UNL    H27   70   0.752   0.453  -0.223
    1UNL    H28   71   0.524   0.373  -0.227
    1UNL    H29   72   0.358   0.086   0.165
    1UNL    H30   73   0.251  -0.178   0.239
    1UNL    H31   74   0.179   0.102   0.361
    1UNL    H32   75   0.175   0.266   0.141
    1UNL    H33   76  -0.061   0.113   0.267
    1UNL    H34   77  -0.096   0.139   0.045
   0.00000   0.00000   0.00000   0.00000   0.00000   0.00000   0.00000   0.00000   0.00000
Generated with MDTraj, t= 3.0
 77
    1UNL     C1    1  -0.421  -0.598  -0.174
    1UNL     O1    2  -0.300  -0.556  -0.114
    1UNL     C2    3  -0.305  -0.423  -0.064
    1UNL     C3    4  -0.327  -0.414   0.094
    1UNL     C4    5  -0.311  -0.259   0.138
    1UNL     C5    6  -0.328  -0.221   0.284
    1UNL     O2    7  -0.418  -0.189   0.060
    1UNL     C6    8  -0.373  -0.201  -0.076
    1UNL     O3    9  -0.404  -0.332  -0.117
    1UNL     C7   10  -0.216  -0.188  -0.076
    1UNL     C8   11  -0.168  -0.065  -0.144
    1UNL     O4   12  -0.227   0.051  -0.088
    1UNL     C9   13  -0.243   0.153  -0.175
    1UNL     O5   14  -0.222   0.137  -0.295
    1UNL    C10   15  -0.310   0.273  -0.124
    1UNL    C11   16  -0.357   0.367  -0.217
    1UNL    C12   17  -0.412   0.480  -0.171
    1UNL    C13   18  -0.434   0.502  -0.040
    1UNL    C14   19  -0.381   0.414   0.051
    1UNL    C15   20  -0.324   0.297   0.014
    1UNL    C16   21  -0.165  -0.338  -0.097
    1UNL    C17   22  -0.077  -0.323   0.023
    1UNL    C18   23  -0.175  -0.210   0.071
    1UNL     O6   24  -0.117  -0.089   0.139
    1UNL    C19   25   0.025  -0.062   0.149
    1UNL     O7   26   0.100  -0.076   0.031
    1UNL    C20   27   0.228   0.004   0.025
    1UNL    C21   28   0.326  -0.043  -0.081
    1UNL     O8   29   0.460   0.013  -0.059
    1UNL    C22   30   0.453   0.147  -0.090
    1UNL     O9   31   0.352   0.194  -0.140
    1UNL    C23   32   0.579   0.227  -0.070
    1UNL    C24   33   0.672   0.177   0.029
    1UNL    C25   34   0.788   0.255   0.056
    1UNL    C26   35   0.823   0.362  -0.026
    1UNL    C27   36   0.729   0.401  -0.129
    1UNL    C28   37   0.607   0.336  -0.147
    1UNL    C29   38   0.278   0.025   0.174
    1UNL    O10   39   0.300  -0.109   0.239
    1UNL    C30   40   0.179   0.114   0.260
    1UNL    O11   41   0.216   0.245   0.260
    1UNL    C31   42   0.039   0.082   0.199
    1UNL    O12   43  -0.005   0.166   0.094
    1UNL     H1   44  -0.425  -0.535  -0.265
    1UNL     H2   45  -0.399  -0.702  -0.211
    1UNL     H3   46  -0.503  -0.583  -0.102
    1UNL     H4   47  -0.264  -0.488   0.134
    1UNL     H5   48  -0.429  -0.442   0.128
    1UNL     H6   49  -0.236  -0.250   0.337
    1UNL     H7   50  -0.356  -0.114   0.295
    1UNL     H8   51  -0.404  -0.281   0.336
    1UNL     H9   52  -0.434  -0.127  -0.137
    1UNL    H10   53  -0.063  -0.051  -0.129
    1UNL    H11   54  -0.188  -0.054  -0.246
    1UNL    H12   55  -0.327   0.348  -0.317
    1UNL    H13   56  -0.445   0.546  -0.240
    1UNL    H14   57  -0.471   0.593  -0.012
    1UNL    H15   58  -0.414   0.428   0.153
    1UNL    H16   59  -0.321   0.220   0.078
    1UNL    H17   60  -0.113  -0.340  -0.195
    1UNL    H18   61  -0.064  -0.419   0.075
    1UNL    H19   62   0.016  -0.278  -0.002
    1UNL    H20   63   0.060  -0.129   0.225
    1UNL    H21   64   0.193   0.103  -0.001
    1UNL    H22   65   0.296  -0.010  -0.177
    1UNL    H23   66   0.334  -0.149  -0.081
    1UNL    H24   67   0.651   0.087   0.085
    1UNL    H25   68   0.846   0.236   0.140
    1UNL    H26   69   0.916   0.412  -0.016
    1UNL    H27   70   0.751   0.500  -0.178
    1UNL    H28   71   0.560   0.352  -0.236
    1UNL    H29   72   0.381   0.070   0.167
    1UNL    H30   73   0.265  -0.169   0.172
    1UNL    H31   74   0.195   0.079   0.357
    1UNL    H32   75   0.195   0.278   0.174
    1UNL    H33   76  -0.026   0.117   0.281
    1UNL    H34   77  -0.083   0.134   0.044
   0.00000   0.00000   0.00000   0.00000   0.00000   0.00000   0.00000   0.00000   0.00000
Generated with MDTraj, t= 4.0
 77
    1UNL     C1    1  -0.416  -0.566  -0.185
    1UNL     O1    2  -0.290  -0.541  -0.105
    1UNL     C2    3  -0.300  -0.402  -0.058
    1UNL     C3    4  -0.314  -0.408   0.097
    1UNL     C4    5  -0.297  -0.264   0.150
    1UNL     C5    6  -0.313  -0.246   0.303
    1UNL     O2    7  -0.401  -0.188   0.079
    1UNL     C6    8  -0.375  -0.189  -0.060
    1UNL     O3    9  -0.409  -0.319  -0.111
    1UNL     C7   10  -0.215  -0.175  -0.069
    1UNL     C8   11  -0.153  -0.062  -0.149
    1UNL     O4   12  -0.180   0.068  -0.100
    1UNL     C9   13  -0.247   0.144  -0.189
    1UNL     O5   14  -0.258   0.119  -0.309
    1UNL    C10   15  -0.326   0.267  -0.144
    1UNL    C11   16  -0.359   0.370  -0.228
    1UNL    C12   17  -0.421   0.477  -0.173
    1UNL    C13   18  -0.430   0.493  -0.037
    1UNL    C14   19  -0.385   0.396   0.046
    1UNL    C15   20  -0.332   0.282  -0.006
    1UNL    C16   21  -0.161  -0.325  -0.092
    1UNL    C17   22  -0.068  -0.305   0.032
    1UNL    C18   23  -0.169  -0.196   0.081
    1UNL     O6   24  -0.127  -0.072   0.139
    1UNL    C19   25   0.016  -0.064   0.139
    1UNL     O7   26   0.087  -0.073   0.013
    1UNL    C20   27   0.215   0.002   0.011
    1UNL    C21   28   0.322  -0.042  -0.081
    1UNL     O8   29   0.448   0.008  -0.037
    1UNL    C22   30   0.456   0.131  -0.090
    1UNL     O9   31   0.363   0.180  -0.153
    1UNL    C23   32   0.583   0.208  -0.066
    1UNL    C24   33   0.674   0.168   0.029
    1UNL    C25   34   0.782   0.251   0.063
    1UNL    C26   35   0.798   0.367  -0.006
    1UNL    C27   36   0.710   0.408  -0.111
    1UNL    C28   37   0.608   0.325  -0.144
    1UNL    C29   38   0.277   0.016   0.154
    1UNL    O10   39   0.305  -0.118   0.203
    1UNL    C30   40   0.189   0.094   0.252
    1UNL    O11   41   0.215   0.234   0.263
    1UNL    C31   42   0.034   0.078   0.202
    1UNL    O12   43  -0.012   0.181   0.111
    1UNL     H1   44  -0.429  -0.497  -0.271
    1UNL     H2   45  -0.409  -0.672  -0.223
    1UNL     H3   46  -0.500  -0.544  -0.117
    1UNL     H4   47  -0.248  -0.486   0.131
    1UNL     H5   48  -0.417  -0.438   0.120
    1UNL     H6   49  -0.249  -0.155   0.317
    1UNL     H7   50  -0.419  -0.218   0.322
    1UNL     H8   51  -0.274  -0.329   0.366
    1UNL     H9   52  -0.423  -0.103  -0.116
    1UNL    H10   53  -0.045  -0.065  -0.142
    1UNL    H11   54  -0.180  -0.064  -0.255
    1UNL    H12   55  -0.327   0.365  -0.333
    1UNL    H13   56  -0.425   0.575  -0.230
    1UNL    H14   57  -0.461   0.591   0.007
    1UNL    H15   58  -0.421   0.400   0.148
    1UNL    H16   59  -0.294   0.200   0.064
    1UNL    H17   60  -0.120  -0.340  -0.194
    1UNL    H18   61  -0.066  -0.385   0.112
    1UNL    H19   62   0.024  -0.270  -0.004
    1UNL    H20   63   0.042  -0.139   0.214
    1UNL    H21   64   0.181   0.105  -0.011
    1UNL    H22   65   0.305  -0.014  -0.185
    1UNL    H23   66   0.326  -0.148  -0.063
    1UNL    H24   67   0.647   0.080   0.086
    1UNL    H25   68   0.833   0.226   0.160
    1UNL    H26   69   0.866   0.444   0.036
    1UNL    H27   70   0.721   0.494  -0.167
    1UNL    H28   71   0.522   0.348  -0.207
    1UNL    H29   72   0.367   0.080   0.155
    1UNL    H30   73   0.398  -0.114   0.236
    1UNL    H31   74   0.193   0.055   0.349
    1UNL    H32   75   0.170   0.274   0.180
    1UNL    H33   76  -0.033   0.073   0.290
    1UNL    H34   77  -0.062   0.131   0.042
   0.00000   0.00000   0.00000   0.00000   0.00000   0.00000   0.00000   0.00000   0.00000
Generated with MDTraj, t= 5.0
 77
    1UNL     C1    1  -0.424  -0.555  -0.183
    1UNL     O1    2  -0.292  -0.527  -0.127
    1UNL     C2    3  -0.288  -0.400  -0.065
    1UNL     C3    4  -0.309  -0.402   0.087
    1UNL     C4    5  -0.287  -0.256   0.140
    1UNL     C5    6  -0.284  -0.254   0.294
    1UNL     O2    7  -0.398  -0.187   0.077
    1UNL     C6    8  -0.365  -0.173  -0.061
    1UNL     O3    9  -0.386  -0.303  -0.122
    1UNL     C7   10  -0.207  -0.169  -0.068
    1UNL     C8   11  -0.140  -0.060  -0.151
    1UNL     O4   12  -0.178   0.067  -0.102
    1UNL     C9   13  -0.263   0.130  -0.191
    1UNL     O5   14  -0.294   0.090  -0.303
    1UNL    C10   15  -0.313   0.260  -0.145
    1UNL    C11   16  -0.356   0.361  -0.231
    1UNL    C12   17  -0.417   0.474  -0.177
    1UNL    C13   18  -0.429   0.485  -0.042
    1UNL    C14   19  -0.390   0.389   0.041
    1UNL    C15   20  -0.331   0.273  -0.006
    1UNL    C16   21  -0.156  -0.316  -0.098
    1UNL    C17   22  -0.054  -0.297   0.017
    1UNL    C18   23  -0.155  -0.192   0.079
    1UNL     O6   24  -0.113  -0.079   0.154
    1UNL    C19   25   0.026  -0.044   0.154
    1UNL     O7   26   0.091  -0.039   0.026
    1UNL    C20   27   0.225   0.015   0.025
    1UNL    C21   28   0.306  -0.066  -0.077
    1UNL     O8   29   0.436  -0.013  -0.066
    1UNL    C22   30   0.440   0.120  -0.114
    1UNL     O9   31   0.347   0.176  -0.173
    1UNL    C23   32   0.559   0.197  -0.073
    1UNL    C24   33   0.637   0.154   0.023
    1UNL    C25   34   0.753   0.216   0.057
    1UNL    C26   35   0.777   0.346   0.012
    1UNL    C27   36   0.691   0.400  -0.087
    1UNL    C28   37   0.582   0.326  -0.123
    1UNL    C29   38   0.280   0.021   0.173
    1UNL    O10   39   0.298  -0.109   0.237
    1UNL    C30   40   0.194   0.110   0.260
    1UNL    O11   41   0.229   0.253   0.261
    1UNL    C31   42   0.046   0.095   0.213
    1UNL    O12   43   0.015   0.192   0.116
    1UNL     H1   44  -0.461  -0.485  -0.257
    1UNL     H2   45  -0.407  -0.663  -0.208
    1UNL     H3   46  -0.486  -0.545  -0.093
    1UNL     H4   47  -0.229  -0.473   0.114
    1UNL     H5   48  -0.407  -0.433   0.118
    1UNL     H6   49  -0.363  -0.189   0.339
    1UNL     H7   50  -0.301  -0.361   0.319
    1UNL     H8   51  -0.179  -0.230   0.323
    1UNL     H9   52  -0.420  -0.088  -0.111
    1UNL    H10   53  -0.029  -0.066  -0.139
    1UNL    H11   54  -0.170  -0.060  -0.260
    1UNL    H12   55  -0.314   0.365  -0.329
    1UNL    H13   56  -0.428   0.558  -0.241
    1UNL    H14   57  -0.494   0.567  -0.002
    1UNL    H15   58  -0.423   0.387   0.145
    1UNL    H16   59  -0.310   0.199   0.066
    1UNL    H17   60  -0.108  -0.346  -0.193
    1UNL    H18   61  -0.044  -0.381   0.090
    1UNL    H19   62   0.041  -0.254  -0.012
    1UNL    H20   63   0.079  -0.110   0.225
    1UNL    H21   64   0.228   0.119  -0.023
    1UNL    H22   65   0.269  -0.051  -0.180
    1UNL    H23   66   0.312  -0.176  -0.058
    1UNL    H24   67   0.617   0.058   0.068
    1UNL    H25   68   0.817   0.172   0.126
    1UNL    H26   69   0.862   0.401   0.036
    1UNL    H27   70   0.725   0.496  -0.140
    1UNL    H28   71   0.506   0.359  -0.199
    1UNL    H29   72   0.382   0.055   0.161
    1UNL    H30   73   0.338  -0.118   0.329
    1UNL    H31   74   0.204   0.082   0.362
    1UNL    H32   75   0.202   0.293   0.179
    1UNL    H33   76  -0.020   0.110   0.301
    1UNL    H34   77  -0.037   0.152   0.042
   0.00000   0.00000   0.00000   0.00000   0.00000   0.00000   0.00000   0.00000   0.00000
Generated with MDTraj, t= 6.0
 77
    1UNL     C1    1  -0.401  -0.555  -0.164
    1UNL     O1    2  -0.269  -0.517  -0.143
    1UNL     C2    3  -0.272  -0.383  -0.084
    1UNL     C3    4  -0.301  -0.390   0.069
    1UNL     C4    5  -0.289  -0.251   0.133
    1UNL     C5    6  -0.298  -0.238   0.286
    1UNL     O2    7  -0.387  -0.167   0.062
    1UNL     C6    8  -0.342  -0.166  -0.084
    1UNL     O3    9  -0.370  -0.296  -0.139
    1UNL     C7   10  -0.192  -0.160  -0.067
    1UNL     C8   11  -0.113  -0.044  -0.138
    1UNL     O4   12  -0.168   0.079  -0.094
    1UNL     C9   13  -0.271   0.122  -0.172
    1UNL     O5   14  -0.320   0.065  -0.271
    1UNL    C10   15  -0.319   0.257  -0.122
    1UNL    C11   16  -0.372   0.342  -0.219
    1UNL    C12   17  -0.418   0.470  -0.183
    1UNL    C13   18  -0.428   0.502  -0.049
    1UNL    C14   19  -0.395   0.410   0.045
    1UNL    C15   20  -0.343   0.287   0.010
    1UNL    C16   21  -0.135  -0.299  -0.095
    1UNL    C17   22  -0.046  -0.291   0.032
    1UNL    C18   23  -0.152  -0.192   0.088
    1UNL     O6   24  -0.121  -0.074   0.167
    1UNL    C19   25   0.022  -0.047   0.176
    1UNL     O7   26   0.091  -0.082   0.045
    1UNL    C20   27   0.211  -0.005   0.024
    1UNL    C21   28   0.305  -0.084  -0.069
    1UNL     O8   29   0.432  -0.025  -0.074
    1UNL    C22   30   0.434   0.110  -0.116
    1UNL     O9   31   0.338   0.163  -0.166
    1UNL    C23   32   0.551   0.191  -0.085
    1UNL    C24   33   0.649   0.133   0.001
    1UNL    C25   34   0.753   0.205   0.049
    1UNL    C26   35   0.764   0.339   0.020
    1UNL    C27   36   0.670   0.401  -0.062
    1UNL    C28   37   0.564   0.327  -0.114
    1UNL    C29   38   0.277   0.018   0.163
    1UNL    O10   39   0.301  -0.104   0.237
    1UNL    C30   40   0.190   0.119   0.246
    1UNL    O11   41   0.222   0.260   0.223
    1UNL    C31   42   0.042   0.100   0.209
    1UNL    O12   43   0.010   0.184   0.099
    1UNL     H1   44  -0.464  -0.477  -0.202
    1UNL     H2   45  -0.379  -0.650  -0.215
    1UNL     H3   46  -0.431  -0.579  -0.063
    1UNL     H4   47  -0.231  -0.465   0.116
    1UNL     H5   48  -0.404  -0.413   0.068
    1UNL     H6   49  -0.261  -0.134   0.310
    1UNL     H7   50  -0.402  -0.247   0.326
    1UNL     H8   51  -0.236  -0.324   0.325
    1UNL     H9   52  -0.386  -0.083  -0.143
    1UNL    H10   53  -0.004  -0.050  -0.113
    1UNL    H11   54  -0.133  -0.054  -0.252
    1UNL    H12   55  -0.343   0.326  -0.324
    1UNL    H13   56  -0.447   0.545  -0.255
    1UNL    H14   57  -0.484   0.585  -0.027
    1UNL    H15   58  -0.424   0.432   0.146
    1UNL    H16   59  -0.356   0.207   0.083
    1UNL    H17   60  -0.089  -0.311  -0.193
    1UNL    H18   61  -0.048  -0.383   0.083
    1UNL    H19   62   0.061  -0.259   0.018
    1UNL    H20   63   0.065  -0.125   0.244
    1UNL    H21   64   0.182   0.096  -0.021
    1UNL    H22   65   0.275  -0.104  -0.177
    1UNL    H23   66   0.317  -0.186  -0.018
    1UNL    H24   67   0.630   0.033   0.032
    1UNL    H25   68   0.839   0.149   0.093
    1UNL    H26   69   0.857   0.389   0.054
    1UNL    H27   70   0.686   0.497  -0.095
    1UNL    H28   71   0.514   0.364  -0.195
    1UNL    H29   72   0.374   0.065   0.168
    1UNL    H30   73   0.322  -0.081   0.329
    1UNL    H31   74   0.211   0.111   0.351
    1UNL    H32   75   0.196   0.287   0.128
    1UNL    H33   76  -0.038   0.129   0.280
    1UNL    H34   77  -0.053   0.146   0.031
   0.00000   0.00000   0.00000   0.00000   0.00000   0.00000   0.00000   0.00000   0.00000
Generated with MDTraj, t= 7.0
 77
    1UNL     C1    1  -0.372  -0.588  -0.172
    1UNL     O1    2  -0.245  -0.518  -0.144
    1UNL     C2    3  -0.269  -0.392  -0.085
    1UNL     C3    4  -0.321  -0.397   0.065
    1UNL     C4    5  -0.316  -0.249   0.124
    1UNL     C5    6  -0.363  -0.235   0.268
    1UNL     O2    7  -0.403  -0.168   0.043
    1UNL     C6    8  -0.343  -0.170  -0.088
    1UNL     O3    9  -0.368  -0.301  -0.147
    1UNL     C7   10  -0.187  -0.163  -0.068
    1UNL     C8   11  -0.117  -0.038  -0.138
    1UNL     O4   12  -0.171   0.085  -0.093
    1UNL     C9   13  -0.278   0.131  -0.158
    1UNL     O5   14  -0.335   0.070  -0.244
    1UNL    C10   15  -0.342   0.260  -0.114
    1UNL    C11   16  -0.390   0.345  -0.214
    1UNL    C12   17  -0.442   0.470  -0.180
    1UNL    C13   18  -0.438   0.512  -0.051
    1UNL    C14   19  -0.386   0.431   0.050
    1UNL    C15   20  -0.342   0.307   0.016
    1UNL    C16   21  -0.134  -0.306  -0.087
    1UNL    C17   22  -0.059  -0.295   0.044
    1UNL    C18   23  -0.165  -0.186   0.090
    1UNL     O6   24  -0.119  -0.077   0.166
    1UNL    C19   25   0.024  -0.044   0.166
    1UNL     O7   26   0.089  -0.072   0.041
    1UNL    C20   27   0.221  -0.016   0.022
    1UNL    C21   28   0.327  -0.104  -0.061
    1UNL     O8   29   0.448  -0.033  -0.057
    1UNL    C22   30   0.439   0.096  -0.095
    1UNL     O9   31   0.344   0.139  -0.155
    1UNL    C23   32   0.556   0.186  -0.061
    1UNL    C24   33   0.678   0.131  -0.009
    1UNL    C25   34   0.780   0.214   0.018
    1UNL    C26   35   0.771   0.352  -0.008
    1UNL    C27   36   0.650   0.403  -0.046
    1UNL    C28   37   0.545   0.321  -0.085
    1UNL    C29   38   0.289   0.025   0.156
    1UNL    O10   39   0.315  -0.093   0.228
    1UNL    C30   40   0.208   0.125   0.238
    1UNL    O11   41   0.247   0.259   0.200
    1UNL    C31   42   0.049   0.102   0.201
    1UNL    O12   43   0.014   0.198   0.102
    1UNL     H1   44  -0.436  -0.514  -0.216
    1UNL     H2   45  -0.350  -0.678  -0.229
    1UNL     H3   46  -0.415  -0.610  -0.076
    1UNL     H4   47  -0.247  -0.462   0.123
    1UNL     H5   48  -0.424  -0.421   0.065
    1UNL     H6   49  -0.366  -0.127   0.298
    1UNL     H7   50  -0.470  -0.267   0.285
    1UNL     H8   51  -0.308  -0.301   0.341
    1UNL     H9   52  -0.386  -0.098  -0.161
    1UNL    H10   53  -0.007  -0.046  -0.120
    1UNL    H11   54  -0.140  -0.041  -0.253
    1UNL    H12   55  -0.389   0.316  -0.316
    1UNL    H13   56  -0.455   0.543  -0.264
    1UNL    H14   57  -0.451   0.624  -0.027
    1UNL    H15   58  -0.395   0.457   0.157
    1UNL    H16   59  -0.308   0.232   0.093
    1UNL    H17   60  -0.069  -0.332  -0.170
    1UNL    H18   61  -0.073  -0.379   0.108
    1UNL    H19   62   0.052  -0.274   0.038
    1UNL    H20   63   0.086  -0.102   0.242
    1UNL    H21   64   0.201   0.072  -0.043
    1UNL    H22   65   0.297  -0.136  -0.168
    1UNL    H23   66   0.348  -0.200  -0.001
    1UNL    H24   67   0.676   0.022   0.010
    1UNL    H25   68   0.867   0.183   0.074
    1UNL    H26   69   0.855   0.410   0.022
    1UNL    H27   70   0.642   0.514  -0.051
    1UNL    H28   71   0.450   0.363  -0.132
    1UNL    H29   72   0.395   0.049   0.146
    1UNL    H30   73   0.341  -0.066   0.317
    1UNL    H31   74   0.230   0.103   0.342
    1UNL    H32   75   0.195   0.273   0.119
    1UNL    H33   76  -0.000   0.130   0.295
    1UNL    H34   77  -0.052   0.157   0.044
   0.00000   0.00000   0.00000   0.00000   0.00000   0.00000   0.00000   0.00000   0.00000
Generated with MDTraj, t= 8.0
 77
    1UNL     C1    1  -0.367  -0.584  -0.177
    1UNL     O1    2  -0.248  -0.525  -0.123
    1UNL     C2    3  -0.275  -0.398  -0.071
    1UNL     C3    4  -0.314  -0.394   0.085
    1UNL     C4    5  -0.303  -0.241   0.121
    1UNL     C5    6  -0.332  -0.215   0.263
    1UNL     O2    7  -0.393  -0.171   0.033
    1UNL     C6    8  -0.348  -0.184  -0.094
    1UNL     O3    9  -0.369  -0.317  -0.142
    1UNL     C7   10  -0.188  -0.167  -0.083
    1UNL     C8   11  -0.137  -0.030  -0.145
    1UNL     O4   12  -0.186   0.085  -0.088
    1UNL     C9   13  -0.287   0.136  -0.165
    1UNL     O5   14  -0.325   0.082  -0.264
    1UNL    C10   15  -0.344   0.264  -0.119
    1UNL    C11   16  -0.409   0.349  -0.208
    1UNL    C12   17  -0.467   0.466  -0.166
    1UNL    C13   18  -0.451   0.508  -0.034
    1UNL    C14   19  -0.359   0.438   0.051
    1UNL    C15   20  -0.306   0.314   0.007
    1UNL    C16   21  -0.134  -0.316  -0.095
    1UNL    C17   22  -0.051  -0.293   0.033
    1UNL    C18   23  -0.160  -0.185   0.077
    1UNL     O6   24  -0.132  -0.063   0.137
    1UNL    C19   25   0.016  -0.046   0.156
    1UNL     O7   26   0.090  -0.064   0.032
    1UNL    C20   27   0.219  -0.002   0.042
    1UNL    C21   28   0.325  -0.089  -0.046
    1UNL     O8   29   0.455  -0.030  -0.050
    1UNL    C22   30   0.452   0.094  -0.101
    1UNL     O9   31   0.356   0.135  -0.163
    1UNL    C23   32   0.574   0.175  -0.074
    1UNL    C24   33   0.701   0.129  -0.043
    1UNL    C25   34   0.799   0.220  -0.021
    1UNL    C26   35   0.771   0.357  -0.012
    1UNL    C27   36   0.648   0.402  -0.037
    1UNL    C28   37   0.549   0.314  -0.070
    1UNL    C29   38   0.276   0.021   0.190
    1UNL    O10   39   0.283  -0.105   0.258
    1UNL    C30   40   0.186   0.114   0.258
    1UNL    O11   41   0.226   0.245   0.231
    1UNL    C31   42   0.041   0.100   0.198
    1UNL    O12   43   0.024   0.185   0.087
    1UNL     H1   44  -0.380  -0.519  -0.265
    1UNL     H2   45  -0.346  -0.692  -0.198
    1UNL     H3   46  -0.452  -0.575  -0.108
    1UNL     H4   47  -0.231  -0.444   0.144
    1UNL     H5   48  -0.415  -0.426   0.094
    1UNL     H6   49  -0.345  -0.106   0.288
    1UNL     H7   50  -0.432  -0.258   0.291
    1UNL     H8   51  -0.270  -0.268   0.341
    1UNL     H9   52  -0.393  -0.106  -0.155
    1UNL    H10   53  -0.026  -0.018  -0.130
    1UNL    H11   54  -0.163  -0.032  -0.260
    1UNL    H12   55  -0.425   0.319  -0.313
    1UNL    H13   56  -0.519   0.527  -0.230
    1UNL    H14   57  -0.471   0.602   0.003
    1UNL    H15   58  -0.349   0.472   0.152
    1UNL    H16   59  -0.243   0.254   0.057
    1UNL    H17   60  -0.089  -0.320  -0.194
    1UNL    H18   61  -0.055  -0.379   0.100
    1UNL    H19   62   0.046  -0.261   0.009
    1UNL    H20   63   0.058  -0.120   0.230
    1UNL    H21   64   0.210   0.096  -0.006
    1UNL    H22   65   0.289  -0.087  -0.154
    1UNL    H23   66   0.334  -0.200  -0.018
    1UNL    H24   67   0.724   0.025  -0.039
    1UNL    H25   68   0.887   0.188   0.030
    1UNL    H26   69   0.848   0.428   0.021
    1UNL    H27   70   0.622   0.508  -0.024
    1UNL    H28   71   0.452   0.349  -0.077
    1UNL    H29   72   0.374   0.073   0.197
    1UNL    H30   73   0.287  -0.091   0.357
    1UNL    H31   74   0.182   0.113   0.369
    1UNL    H32   75   0.183   0.276   0.147
    1UNL    H33   76  -0.042   0.114   0.268
    1UNL    H34   77  -0.051   0.146   0.034
   0.00000   0.00000   0.00000   0.00000   0.00000   0.00000   0.00000   0.00000   0.00000
Generated with MDTraj, t= 9.0
 77
    1UNL     C1    1  -0.385  -0.566  -0.178
    1UNL     O1    2  -0.262  -0.527  -0.128
    1UNL     C2    3  -0.270  -0.396  -0.075
    1UNL     C3    4  -0.311  -0.392   0.077
    1UNL     C4    5  -0.298  -0.246   0.121
    1UNL     C5    6  -0.309  -0.234   0.271
    1UNL     O2    7  -0.396  -0.166   0.051
    1UNL     C6    8  -0.355  -0.181  -0.094
    1UNL     O3    9  -0.375  -0.319  -0.141
    1UNL     C7   10  -0.198  -0.161  -0.092
    1UNL     C8   11  -0.132  -0.044  -0.171
    1UNL     O4   12  -0.161   0.084  -0.122
    1UNL     C9   13  -0.283   0.126  -0.180
    1UNL     O5   14  -0.329   0.074  -0.278
    1UNL    C10   15  -0.334   0.247  -0.118
    1UNL    C11   16  -0.432   0.315  -0.191
    1UNL    C12   17  -0.479   0.434  -0.144
    1UNL    C13   18  -0.437   0.492  -0.023
    1UNL    C14   19  -0.329   0.425   0.043
    1UNL    C15   20  -0.280   0.304  -0.005
    1UNL    C16   21  -0.137  -0.308  -0.097
    1UNL    C17   22  -0.060  -0.278   0.026
    1UNL    C18   23  -0.172  -0.173   0.060
    1UNL     O6   24  -0.136  -0.046   0.115
    1UNL    C19   25   0.003  -0.031   0.150
    1UNL     O7   26   0.093  -0.058   0.035
    1UNL    C20   27   0.215   0.005   0.053
    1UNL    C21   28   0.336  -0.075  -0.021
    1UNL     O8   29   0.457  -0.011  -0.010
    1UNL    C22   30   0.451   0.098  -0.092
    1UNL     O9   31   0.355   0.128  -0.162
    1UNL    C23   32   0.568   0.186  -0.089
    1UNL    C24   33   0.694   0.133  -0.079
    1UNL    C25   34   0.808   0.210  -0.042
    1UNL    C26   35   0.790   0.341  -0.031
    1UNL    C27   36   0.670   0.404  -0.036
    1UNL    C28   37   0.559   0.325  -0.064
    1UNL    C29   38   0.257   0.015   0.201
    1UNL    O10   39   0.267  -0.107   0.269
    1UNL    C30   40   0.166   0.113   0.277
    1UNL    O11   41   0.221   0.248   0.267
    1UNL    C31   42   0.026   0.110   0.203
    1UNL    O12   43   0.027   0.205   0.096
    1UNL     H1   44  -0.382  -0.496  -0.265
    1UNL     H2   45  -0.381  -0.674  -0.213
    1UNL     H3   46  -0.471  -0.544  -0.111
    1UNL     H4   47  -0.241  -0.456   0.137
    1UNL     H5   48  -0.418  -0.411   0.080
    1UNL     H6   49  -0.282  -0.128   0.296
    1UNL     H7   50  -0.413  -0.245   0.317
    1UNL     H8   51  -0.249  -0.308   0.331
    1UNL     H9   52  -0.407  -0.106  -0.150
    1UNL    H10   53  -0.022  -0.054  -0.170
    1UNL    H11   54  -0.163  -0.046  -0.283
    1UNL    H12   55  -0.464   0.281  -0.285
    1UNL    H13   56  -0.567   0.483  -0.196
    1UNL    H14   57  -0.502   0.569   0.022
    1UNL    H15   58  -0.273   0.465   0.126
    1UNL    H16   59  -0.207   0.236   0.055
    1UNL    H17   60  -0.076  -0.324  -0.187
    1UNL    H18   61  -0.065  -0.366   0.091
    1UNL    H19   62   0.043  -0.251   0.019
    1UNL    H20   63   0.037  -0.098   0.234
    1UNL    H21   64   0.207   0.105   0.014
    1UNL    H22   65   0.316  -0.086  -0.129
    1UNL    H23   66   0.353  -0.175   0.029
    1UNL    H24   67   0.705   0.025  -0.063
    1UNL    H25   68   0.909   0.169  -0.049
    1UNL    H26   69   0.877   0.404  -0.022
    1UNL    H27   70   0.662   0.507  -0.029
    1UNL    H28   71   0.460   0.370  -0.065
    1UNL    H29   72   0.366   0.042   0.190
    1UNL    H30   73   0.305  -0.110   0.362
    1UNL    H31   74   0.172   0.101   0.390
    1UNL    H32   75   0.176   0.298   0.196
    1UNL    H33   76  -0.061   0.129   0.266
    1UNL    H34   77  -0.026   0.178   0.016
   0.00000   0.00000   0.00000   0.00000   0.00000   0.00000   0.00000   0.00000   0.00000
Generated with MDTraj, t= 10.0
 77
    1UNL     C1    1  -0.399  -0.568  -0.181
    1UNL     O1    2  -0.275  -0.521  -0.143
    1UNL     C2    3  -0.279  -0.389  -0.088
    1UNL     C3    4  -0.319  -0.382   0.063
    1UNL     C4    5  -0.313  -0.233   0.110
    1UNL     C5    6  -0.328  -0.206   0.259
    1UNL     O2    7  -0.407  -0.157   0.036
    1UNL     C6    8  -0.359  -0.170  -0.102
    1UNL     O3    9  -0.376  -0.307  -0.152
    1UNL     C7   10  -0.198  -0.155  -0.090
    1UNL     C8   11  -0.123  -0.053  -0.176
    1UNL     O4   12  -0.147   0.081  -0.141
    1UNL     C9   13  -0.277   0.112  -0.180
    1UNL     O5   14  -0.347   0.051  -0.257
    1UNL    C10   15  -0.323   0.243  -0.128
    1UNL    C11   16  -0.443   0.292  -0.177
    1UNL    C12   17  -0.499   0.405  -0.123
    1UNL    C13   18  -0.435   0.470  -0.011
    1UNL    C14   19  -0.318   0.418   0.038
    1UNL    C15   20  -0.266   0.301  -0.020
    1UNL    C16   21  -0.146  -0.310  -0.115
    1UNL    C17   22  -0.067  -0.289   0.019
    1UNL    C18   23  -0.168  -0.186   0.061
    1UNL     O6   24  -0.130  -0.071   0.150
    1UNL    C19   25   0.011  -0.040   0.171
    1UNL     O7   26   0.104  -0.065   0.051
    1UNL    C20   27   0.224   0.015   0.054
    1UNL    C21   28   0.334  -0.075  -0.020
    1UNL     O8   29   0.462  -0.015  -0.014
    1UNL    C22   30   0.455   0.105  -0.077
    1UNL     O9   31   0.361   0.150  -0.140
    1UNL    C23   32   0.581   0.193  -0.070
    1UNL    C24   33   0.706   0.131  -0.070
    1UNL    C25   34   0.823   0.208  -0.072
    1UNL    C26   35   0.816   0.343  -0.071
    1UNL    C27   36   0.687   0.398  -0.064
    1UNL    C28   37   0.573   0.326  -0.052
    1UNL    C29   38   0.263   0.038   0.211
    1UNL    O10   39   0.258  -0.086   0.290
    1UNL    C30   40   0.161   0.129   0.282
    1UNL    O11   41   0.197   0.265   0.283
    1UNL    C31   42   0.024   0.108   0.211
    1UNL    O12   43   0.023   0.191   0.098
    1UNL     H1   44  -0.437  -0.478  -0.230
    1UNL     H2   45  -0.391  -0.645  -0.262
    1UNL     H3   46  -0.466  -0.596  -0.097
    1UNL     H4   47  -0.254  -0.453   0.114
    1UNL     H5   48  -0.428  -0.405   0.052
    1UNL     H6   49  -0.388  -0.113   0.286
    1UNL     H7   50  -0.389  -0.294   0.297
    1UNL     H8   51  -0.226  -0.215   0.307
    1UNL     H9   52  -0.405  -0.107  -0.176
    1UNL    H10   53  -0.018  -0.067  -0.164
    1UNL    H11   54  -0.136  -0.062  -0.288
    1UNL    H12   55  -0.490   0.237  -0.261
    1UNL    H13   56  -0.586   0.443  -0.165
    1UNL    H14   57  -0.492   0.552   0.036
    1UNL    H15   58  -0.260   0.465   0.117
    1UNL    H16   59  -0.167   0.252   0.004
    1UNL    H17   60  -0.094  -0.321  -0.210
    1UNL    H18   61  -0.061  -0.369   0.090
    1UNL    H19   62   0.034  -0.249   0.003
    1UNL    H20   63   0.043  -0.090   0.266
    1UNL    H21   64   0.198   0.107   0.004
    1UNL    H22   65   0.307  -0.075  -0.122
    1UNL    H23   66   0.332  -0.177   0.023
    1UNL    H24   67   0.725   0.024  -0.070
    1UNL    H25   68   0.915   0.157  -0.094
    1UNL    H26   69   0.896   0.400  -0.113
    1UNL    H27   70   0.685   0.513  -0.077
    1UNL    H28   71   0.477   0.382  -0.051
    1UNL    H29   72   0.365   0.082   0.230
    1UNL    H30   73   0.351  -0.099   0.315
    1UNL    H31   74   0.149   0.095   0.392
    1UNL    H32   75   0.143   0.314   0.218
    1UNL    H33   76  -0.064   0.135   0.271
    1UNL    H34   77  -0.029   0.138   0.033
   0.00000   0.00000   0.00000   0.00000   0.00000   0.00000   0.00000   0.00000   0.00000
Generated with MDTraj, t= 11.0
 77
    1UNL     C1    1  -0.407  -0.574  -0.171
    1UNL     O1    2  -0.280  -0.522  -0.143
    1UNL     C2    3  -0.284  -0.392  -0.093
    1UNL     C3    4  -0.331  -0.388   0.055
    1UNL     C4    5  -0.319  -0.237   0.103
    1UNL     C5    6  -0.359  -0.217   0.253
    1UNL     O2    7  -0.404  -0.167   0.009
    1UNL     C6    8  -0.344  -0.176  -0.121
    1UNL     O3    9  -0.371  -0.311  -0.172
    1UNL     C7   10  -0.188  -0.166  -0.086
    1UNL     C8   11  -0.114  -0.052  -0.145
    1UNL     O4   12  -0.165   0.072  -0.092
    1UNL     C9   13  -0.262   0.130  -0.172
    1UNL     O5   14  -0.299   0.087  -0.278
    1UNL    C10   15  -0.330   0.251  -0.116
    1UNL    C11   16  -0.460   0.284  -0.155
    1UNL    C12   17  -0.528   0.391  -0.103
    1UNL    C13   18  -0.453   0.477  -0.013
    1UNL    C14   19  -0.329   0.437   0.033
    1UNL    C15   20  -0.268   0.324  -0.019
    1UNL    C16   21  -0.142  -0.322  -0.098
    1UNL    C17   22  -0.066  -0.300   0.028
    1UNL    C18   23  -0.175  -0.189   0.068
    1UNL     O6   24  -0.140  -0.064   0.131
    1UNL    C19   25  -0.004  -0.050   0.159
    1UNL     O7   26   0.102  -0.088   0.061
    1UNL    C20   27   0.223  -0.007   0.060
    1UNL    C21   28   0.344  -0.068  -0.007
    1UNL     O8   29   0.465   0.002   0.012
    1UNL    C22   30   0.461   0.127  -0.044
    1UNL     O9   31   0.357   0.178  -0.080
    1UNL    C23   32   0.592   0.196  -0.073
    1UNL    C24   33   0.714   0.125  -0.075
    1UNL    C25   34   0.831   0.199  -0.087
    1UNL    C26   35   0.832   0.334  -0.093
    1UNL    C27   36   0.715   0.401  -0.099
    1UNL    C28   37   0.592   0.334  -0.087
    1UNL    C29   38   0.260   0.032   0.204
    1UNL    O10   39   0.299  -0.074   0.282
    1UNL    C30   40   0.158   0.124   0.269
    1UNL    O11   41   0.196   0.262   0.240
    1UNL    C31   42   0.015   0.096   0.204
    1UNL    O12   43  -0.000   0.191   0.095
    1UNL     H1   44  -0.445  -0.509  -0.246
    1UNL     H2   45  -0.416  -0.678  -0.205
    1UNL     H3   46  -0.476  -0.558  -0.087
    1UNL     H4   47  -0.259  -0.441   0.115
    1UNL     H5   48  -0.441  -0.422   0.058
    1UNL     H6   49  -0.280  -0.151   0.299
    1UNL     H7   50  -0.455  -0.156   0.257
    1UNL     H8   51  -0.363  -0.322   0.295
    1UNL     H9   52  -0.374  -0.098  -0.188
    1UNL    H10   53  -0.011  -0.057  -0.124
    1UNL    H11   54  -0.116  -0.051  -0.254
    1UNL    H12   55  -0.512   0.208  -0.205
    1UNL    H13   56  -0.630   0.415  -0.141
    1UNL    H14   57  -0.477   0.576   0.008
    1UNL    H15   58  -0.274   0.495   0.106
    1UNL    H16   59  -0.174   0.304   0.007
    1UNL    H17   60  -0.083  -0.360  -0.181
    1UNL    H18   61  -0.067  -0.371   0.107
    1UNL    H19   62   0.035  -0.252   0.018
    1UNL    H20   63   0.011  -0.103   0.255
    1UNL    H21   64   0.189   0.088   0.015
    1UNL    H22   65   0.339  -0.084  -0.110
    1UNL    H23   66   0.363  -0.160   0.046
    1UNL    H24   67   0.710   0.020  -0.063
    1UNL    H25   68   0.924   0.144  -0.084
    1UNL    H26   69   0.926   0.396  -0.091
    1UNL    H27   70   0.711   0.498  -0.128
    1UNL    H28   71   0.503   0.381  -0.058
    1UNL    H29   72   0.359   0.088   0.206
    1UNL    H30   73   0.215  -0.122   0.292
    1UNL    H31   74   0.153   0.107   0.383
    1UNL    H32   75   0.148   0.282   0.152
    1UNL    H33   76  -0.067   0.127   0.271
    1UNL    H34   77  -0.068   0.148   0.041
   0.00000   0.00000   0.00000   0.00000   0.00000   0.00000   0.00000   0.00000   0.00000
Generated with MDTraj, t= 12.0
 77
    1UNL     C1    1  -0.382  -0.585  -0.192
    1UNL     O1    2  -0.271  -0.529  -0.139
    1UNL     C2    3  -0.287  -0.396  -0.090
    1UNL     C3    4  -0.337  -0.393   0.055
    1UNL     C4    5  -0.324  -0.243   0.100
    1UNL     C5    6  -0.364  -0.214   0.247
    1UNL     O2    7  -0.405  -0.161   0.010
    1UNL     C6    8  -0.342  -0.172  -0.119
    1UNL     O3    9  -0.371  -0.304  -0.168
    1UNL     C7   10  -0.188  -0.170  -0.093
    1UNL     C8   11  -0.109  -0.049  -0.156
    1UNL     O4   12  -0.168   0.073  -0.100
    1UNL     C9   13  -0.257   0.140  -0.181
    1UNL     O5   14  -0.283   0.108  -0.296
    1UNL    C10   15  -0.326   0.254  -0.114
    1UNL    C11   16  -0.461   0.269  -0.151
    1UNL    C12   17  -0.539   0.381  -0.101
    1UNL    C13   18  -0.481   0.465  -0.011
    1UNL    C14   19  -0.344   0.450   0.027
    1UNL    C15   20  -0.270   0.349  -0.028
    1UNL    C16   21  -0.144  -0.323  -0.098
    1UNL    C17   22  -0.074  -0.300   0.042
    1UNL    C18   23  -0.172  -0.185   0.061
    1UNL     O6   24  -0.120  -0.069   0.138
    1UNL    C19   25   0.015  -0.050   0.182
    1UNL     O7   26   0.106  -0.083   0.076
    1UNL    C20   27   0.227  -0.003   0.071
    1UNL    C21   28   0.325  -0.065  -0.029
    1UNL     O8   29   0.452   0.002  -0.036
    1UNL    C22   30   0.453   0.142  -0.031
    1UNL     O9   31   0.349   0.206  -0.032
    1UNL    C23   32   0.585   0.201  -0.057
    1UNL    C24   33   0.693   0.122  -0.046
    1UNL    C25   34   0.813   0.171  -0.074
    1UNL    C26   35   0.828   0.303  -0.124
    1UNL    C27   36   0.717   0.385  -0.135
    1UNL    C28   37   0.597   0.334  -0.098
    1UNL    C29   38   0.272   0.034   0.219
    1UNL    O10   39   0.287  -0.085   0.298
    1UNL    C30   40   0.169   0.127   0.273
    1UNL    O11   41   0.202   0.262   0.237
    1UNL    C31   42   0.028   0.100   0.217
    1UNL    O12   43   0.010   0.185   0.100
    1UNL     H1   44  -0.438  -0.517  -0.250
    1UNL     H2   45  -0.370  -0.674  -0.255
    1UNL     H3   46  -0.442  -0.601  -0.102
    1UNL     H4   47  -0.281  -0.457   0.120
    1UNL     H5   48  -0.450  -0.411   0.040
    1UNL     H6   49  -0.421  -0.118   0.230
    1UNL     H7   50  -0.444  -0.288   0.278
    1UNL     H8   51  -0.272  -0.212   0.313
    1UNL     H9   52  -0.365  -0.086  -0.180
    1UNL    H10   53  -0.007  -0.045  -0.134
    1UNL    H11   54  -0.109  -0.042  -0.262
    1UNL    H12   55  -0.501   0.191  -0.219
    1UNL    H13   56  -0.643   0.384  -0.108
    1UNL    H14   57  -0.531   0.559   0.026
    1UNL    H15   58  -0.289   0.524   0.084
    1UNL    H16   59  -0.166   0.337   0.014
    1UNL    H17   60  -0.084  -0.333  -0.190
    1UNL    H18   61  -0.068  -0.386   0.109
    1UNL    H19   62   0.027  -0.259   0.030
    1UNL    H20   63   0.023  -0.121   0.264
    1UNL    H21   64   0.196   0.100   0.041
    1UNL    H22   65   0.292  -0.058  -0.126
    1UNL    H23   66   0.354  -0.165  -0.008
    1UNL    H24   67   0.688   0.020  -0.003
    1UNL    H25   68   0.906   0.123  -0.058
    1UNL    H26   69   0.920   0.342  -0.146
    1UNL    H27   70   0.726   0.496  -0.153
    1UNL    H28   71   0.506   0.401  -0.102
    1UNL    H29   72   0.374   0.078   0.229
    1UNL    H30   73   0.345  -0.156   0.258
    1UNL    H31   74   0.163   0.134   0.388
    1UNL    H32   75   0.236   0.254   0.148
    1UNL    H33   76  -0.056   0.134   0.282
    1UNL    H34   77  -0.035   0.143   0.022
   0.00000   0.00000   0.00000   0.00000   0.00000   0.00000   0.00000   0.00000   0.00000
Generated with MDTraj, t= 13.0
 77
    1UNL     C1    1  -0.368  -0.549  -0.199
    1UNL     O1    2  -0.251  -0.506  -0.147
    1UNL     C2    3  -0.259  -0.372  -0.092
    1UNL     C3    4  -0.310  -0.382   0.056
    1UNL     C4    5  -0.306  -0.233   0.106
    1UNL     C5    6  -0.343  -0.218   0.258
    1UNL     O2    7  -0.394  -0.156   0.023
    1UNL     C6    8  -0.339  -0.164  -0.103
    1UNL     O3    9  -0.360  -0.291  -0.161
    1UNL     C7   10  -0.183  -0.149  -0.078
    1UNL     C8   11  -0.104  -0.040  -0.145
    1UNL     O4   12  -0.156   0.089  -0.117
    1UNL     C9   13  -0.261   0.119  -0.189
    1UNL     O5   14  -0.300   0.062  -0.291
    1UNL    C10   15  -0.329   0.240  -0.133
    1UNL    C11   16  -0.459   0.259  -0.171
    1UNL    C12   17  -0.533   0.367  -0.109
    1UNL    C13   18  -0.477   0.444  -0.009
    1UNL    C14   19  -0.340   0.428   0.022
    1UNL    C15   20  -0.269   0.332  -0.041
    1UNL    C16   21  -0.123  -0.291  -0.096
    1UNL    C17   22  -0.060  -0.283   0.043
    1UNL    C18   23  -0.167  -0.171   0.075
    1UNL     O6   24  -0.142  -0.058   0.159
    1UNL    C19   25  -0.003  -0.030   0.165
    1UNL     O7   26   0.080  -0.054   0.054
    1UNL    C20   27   0.207   0.007   0.060
    1UNL    C21   28   0.306  -0.062  -0.034
    1UNL     O8   29   0.438  -0.006  -0.020
    1UNL    C22   30   0.443   0.136  -0.020
    1UNL     O9   31   0.348   0.208  -0.009
    1UNL    C23   32   0.571   0.195  -0.060
    1UNL    C24   33   0.688   0.122  -0.038
    1UNL    C25   34   0.813   0.170  -0.064
    1UNL    C26   35   0.816   0.293  -0.127
    1UNL    C27   36   0.704   0.371  -0.151
    1UNL    C28   37   0.582   0.321  -0.122
    1UNL    C29   38   0.263   0.011   0.207
    1UNL    O10   39   0.256  -0.130   0.257
    1UNL    C30   40   0.172   0.113   0.282
    1UNL    O11   41   0.223   0.242   0.279
    1UNL    C31   42   0.022   0.113   0.216
    1UNL    O12   43   0.015   0.202   0.107
    1UNL     H1   44  -0.408  -0.490  -0.280
    1UNL     H2   45  -0.375  -0.652  -0.239
    1UNL     H3   46  -0.432  -0.540  -0.109
    1UNL     H4   47  -0.238  -0.435   0.118
    1UNL     H5   48  -0.416  -0.421   0.063
    1UNL     H6   49  -0.314  -0.119   0.305
    1UNL     H7   50  -0.455  -0.219   0.262
    1UNL     H8   51  -0.303  -0.307   0.313
    1UNL     H9   52  -0.389  -0.089  -0.163
    1UNL    H10   53  -0.002  -0.036  -0.121
    1UNL    H11   54  -0.104  -0.052  -0.250
    1UNL    H12   55  -0.505   0.191  -0.237
    1UNL    H13   56  -0.645   0.366  -0.130
    1UNL    H14   57  -0.535   0.504   0.053
    1UNL    H15   58  -0.299   0.506   0.087
    1UNL    H16   59  -0.158   0.329  -0.022
    1UNL    H17   60  -0.055  -0.307  -0.182
    1UNL    H18   61  -0.067  -0.383   0.093
    1UNL    H19   62   0.040  -0.251   0.046
    1UNL    H20   63   0.019  -0.104   0.241
    1UNL    H21   64   0.204   0.115   0.030
    1UNL    H22   65   0.281  -0.052  -0.134
    1UNL    H23   66   0.322  -0.163  -0.004
    1UNL    H24   67   0.670   0.033   0.012
    1UNL    H25   68   0.901   0.102  -0.051
    1UNL    H26   69   0.915   0.326  -0.176
    1UNL    H27   70   0.713   0.469  -0.190
    1UNL    H28   71   0.490   0.365  -0.140
    1UNL    H29   72   0.371   0.027   0.207
    1UNL    H30   73   0.244  -0.191   0.181
    1UNL    H31   74   0.166   0.094   0.397
    1UNL    H32   75   0.261   0.259   0.184
    1UNL    H33   76  -0.043   0.139   0.302
    1UNL    H34   77  -0.015   0.155   0.027
   0.00000   0.00000   0.00000   0.00000   0.00000   0.00000   0.00000   0.00000   0.00000
Generated with MDTraj, t= 14.0
 77
    1UNL     C1    1  -0.360  -0.542  -0.221
    1UNL     O1    2  -0.246  -0.513  -0.144
    1UNL     C2    3  -0.260  -0.379  -0.083
    1UNL     C3    4  -0.314  -0.380   0.067
    1UNL     C4    5  -0.320  -0.231   0.112
    1UNL     C5    6  -0.342  -0.221   0.260
    1UNL     O2    7  -0.409  -0.157   0.019
    1UNL     C6    8  -0.344  -0.166  -0.109
    1UNL     O3    9  -0.353  -0.295  -0.161
    1UNL     C7   10  -0.186  -0.152  -0.083
    1UNL     C8   11  -0.106  -0.045  -0.153
    1UNL     O4   12  -0.144   0.087  -0.123
    1UNL     C9   13  -0.257   0.119  -0.183
    1UNL     O5   14  -0.313   0.064  -0.275
    1UNL    C10   15  -0.334   0.235  -0.132
    1UNL    C11   16  -0.462   0.263  -0.177
    1UNL    C12   17  -0.539   0.366  -0.128
    1UNL    C13   18  -0.482   0.452  -0.036
    1UNL    C14   19  -0.360   0.426   0.019
    1UNL    C15   20  -0.283   0.318  -0.025
    1UNL    C16   21  -0.132  -0.297  -0.095
    1UNL    C17   22  -0.058  -0.268   0.043
    1UNL    C18   23  -0.172  -0.166   0.075
    1UNL     O6   24  -0.147  -0.052   0.159
    1UNL    C19   25  -0.002  -0.023   0.170
    1UNL     O7   26   0.079  -0.032   0.048
    1UNL    C20   27   0.208   0.009   0.065
    1UNL    C21   28   0.305  -0.053  -0.036
    1UNL     O8   29   0.439  -0.003  -0.025
    1UNL    C22   30   0.446   0.131  -0.043
    1UNL     O9   31   0.352   0.206  -0.049
    1UNL    C23   32   0.586   0.190  -0.076
    1UNL    C24   33   0.706   0.126  -0.036
    1UNL    C25   34   0.831   0.178  -0.068
    1UNL    C26   35   0.837   0.305  -0.130
    1UNL    C27   36   0.715   0.376  -0.154
    1UNL    C28   37   0.596   0.316  -0.131
    1UNL    C29   38   0.251  -0.007   0.211
    1UNL    O10   39   0.236  -0.144   0.269
    1UNL    C30   40   0.176   0.102   0.302
    1UNL    O11   41   0.239   0.228   0.298
    1UNL    C31   42   0.028   0.112   0.245
    1UNL    O12   43   0.006   0.210   0.148
    1UNL     H1   44  -0.404  -0.465  -0.288
    1UNL     H2   45  -0.358  -0.630  -0.294
    1UNL     H3   46  -0.439  -0.569  -0.148
    1UNL     H4   47  -0.248  -0.435   0.141
    1UNL     H5   48  -0.417  -0.416   0.061
    1UNL     H6   49  -0.385  -0.120   0.285
    1UNL     H7   50  -0.417  -0.291   0.302
    1UNL     H8   51  -0.246  -0.234   0.316
    1UNL     H9   52  -0.388  -0.099  -0.181
    1UNL    H10   53  -0.005  -0.053  -0.122
    1UNL    H11   54  -0.110  -0.064  -0.258
    1UNL    H12   55  -0.504   0.179  -0.237
    1UNL    H13   56  -0.634   0.376  -0.168
    1UNL    H14   57  -0.542   0.537   0.005
    1UNL    H15   58  -0.321   0.497   0.088
    1UNL    H16   59  -0.183   0.316  -0.009
    1UNL    H17   60  -0.077  -0.333  -0.184
    1UNL    H18   61  -0.059  -0.347   0.118
    1UNL    H19   62   0.039  -0.221   0.028
    1UNL    H20   63   0.018  -0.110   0.233
    1UNL    H21   64   0.220   0.119   0.046
    1UNL    H22   65   0.276  -0.036  -0.135
    1UNL    H23   66   0.318  -0.157  -0.005
    1UNL    H24   67   0.694   0.028   0.019
    1UNL    H25   68   0.919   0.122  -0.057
    1UNL    H26   69   0.926   0.338  -0.172
    1UNL    H27   70   0.727   0.464  -0.214
    1UNL    H28   71   0.502   0.378  -0.133
    1UNL    H29   72   0.357   0.014   0.216
    1UNL    H30   73   0.312  -0.199   0.240
    1UNL    H31   74   0.177   0.080   0.416
    1UNL    H32   75   0.238   0.271   0.212
    1UNL    H33   76  -0.042   0.118   0.331
    1UNL    H34   77  -0.015   0.164   0.062
   0.00000   0.00000   0.00000   0.00000   0.00000   0.00000   0.00000   0.00000   0.00000
Generated with MDTraj, t= 15.0
 77
    1UNL     C1    1  -0.341  -0.564  -0.213
    1UNL     O1    2  -0.253  -0.524  -0.122
    1UNL     C2    3  -0.271  -0.389  -0.084
    1UNL     C3    4  -0.333  -0.379   0.057
    1UNL     C4    5  -0.315  -0.228   0.108
    1UNL     C5    6  -0.351  -0.210   0.250
    1UNL     O2    7  -0.402  -0.156   0.013
    1UNL     C6    8  -0.341  -0.172  -0.124
    1UNL     O3    9  -0.364  -0.310  -0.163
    1UNL     C7   10  -0.182  -0.158  -0.089
    1UNL     C8   11  -0.118  -0.027  -0.136
    1UNL     O4   12  -0.180   0.091  -0.082
    1UNL     C9   13  -0.270   0.142  -0.170
    1UNL     O5   14  -0.299   0.087  -0.277
    1UNL    C10   15  -0.351   0.258  -0.131
    1UNL    C11   16  -0.471   0.294  -0.192
    1UNL    C12   17  -0.543   0.400  -0.150
    1UNL    C13   18  -0.500   0.474  -0.040
    1UNL    C14   19  -0.386   0.433   0.027
    1UNL    C15   20  -0.310   0.326  -0.020
    1UNL    C16   21  -0.133  -0.304  -0.096
    1UNL    C17   22  -0.063  -0.287   0.046
    1UNL    C18   23  -0.167  -0.179   0.070
    1UNL     O6   24  -0.124  -0.066   0.142
    1UNL    C19   25   0.019  -0.057   0.176
    1UNL     O7   26   0.110  -0.077   0.064
    1UNL    C20   27   0.224   0.007   0.070
    1UNL    C21   28   0.320  -0.050  -0.032
    1UNL     O8   29   0.448   0.016  -0.013
    1UNL    C22   30   0.451   0.142  -0.066
    1UNL     O9   31   0.353   0.203  -0.106
    1UNL    C23   32   0.588   0.190  -0.088
    1UNL    C24   33   0.697   0.113  -0.048
    1UNL    C25   34   0.824   0.169  -0.074
    1UNL    C26   35   0.847   0.303  -0.107
    1UNL    C27   36   0.737   0.376  -0.151
    1UNL    C28   37   0.607   0.322  -0.138
    1UNL    C29   38   0.273   0.016   0.220
    1UNL    O10   39   0.275  -0.119   0.285
    1UNL    C30   40   0.175   0.099   0.302
    1UNL    O11   41   0.204   0.236   0.308
    1UNL    C31   42   0.032   0.081   0.240
    1UNL    O12   43   0.002   0.178   0.146
    1UNL     H1   44  -0.321  -0.543  -0.320
    1UNL     H2   45  -0.345  -0.677  -0.207
    1UNL     H3   46  -0.446  -0.537  -0.196
    1UNL     H4   47  -0.286  -0.448   0.135
    1UNL     H5   48  -0.438  -0.399   0.045
    1UNL     H6   49  -0.319  -0.115   0.299
    1UNL     H7   50  -0.462  -0.197   0.253
    1UNL     H8   51  -0.325  -0.293   0.320
    1UNL     H9   52  -0.384  -0.107  -0.201
    1UNL    H10   53  -0.015  -0.034  -0.104
    1UNL    H11   54  -0.129  -0.029  -0.244
    1UNL    H12   55  -0.505   0.229  -0.265
    1UNL    H13   56  -0.650   0.420  -0.169
    1UNL    H14   57  -0.554   0.562  -0.023
    1UNL    H15   58  -0.338   0.498   0.101
    1UNL    H16   59  -0.214   0.313   0.039
    1UNL    H17   60  -0.072  -0.354  -0.175
    1UNL    H18   61  -0.064  -0.374   0.108
    1UNL    H19   62   0.040  -0.244   0.032
    1UNL    H20   63   0.030  -0.139   0.245
    1UNL    H21   64   0.195   0.108   0.038
    1UNL    H22   65   0.283  -0.028  -0.132
    1UNL    H23   66   0.335  -0.159  -0.008
    1UNL    H24   67   0.680   0.022  -0.001
    1UNL    H25   68   0.912   0.104  -0.060
    1UNL    H26   69   0.947   0.342  -0.123
    1UNL    H27   70   0.739   0.481  -0.190
    1UNL    H28   71   0.524   0.385  -0.148
    1UNL    H29   72   0.375   0.049   0.233
    1UNL    H30   73   0.339  -0.174   0.238
    1UNL    H31   74   0.177   0.070   0.413
    1UNL    H32   75   0.132   0.298   0.285
    1UNL    H33   76  -0.042   0.104   0.320
    1UNL    H34   77  -0.060   0.149   0.071
   0.00000   0.00000   0.00000   0.00000   0.00000   0.00000   0.00000   0.00000   0.00000
Generated with MDTraj, t= 16.0
 77
    1UNL     C1    1  -0.370  -0.541  -0.224
    1UNL     O1    2  -0.251  -0.528  -0.156
    1UNL     C2    3  -0.264  -0.394  -0.090
    1UNL     C3    4  -0.326  -0.393   0.055
    1UNL     C4    5  -0.322  -0.242   0.106
    1UNL     C5    6  -0.372  -0.222   0.250
    1UNL     O2    7  -0.402  -0.169   0.019
    1UNL     C6    8  -0.336  -0.170  -0.111
    1UNL     O3    9  -0.357  -0.307  -0.166
    1UNL     C7   10  -0.182  -0.158  -0.078
    1UNL     C8   11  -0.125  -0.027  -0.135
    1UNL     O4   12  -0.171   0.094  -0.078
    1UNL     C9   13  -0.276   0.136  -0.159
    1UNL     O5   14  -0.309   0.075  -0.262
    1UNL    C10   15  -0.354   0.253  -0.116
    1UNL    C11   16  -0.451   0.307  -0.204
    1UNL    C12   17  -0.517   0.422  -0.168
    1UNL    C13   18  -0.493   0.483  -0.046
    1UNL    C14   19  -0.404   0.433   0.039
    1UNL    C15   20  -0.331   0.318   0.005
    1UNL    C16   21  -0.137  -0.306  -0.087
    1UNL    C17   22  -0.072  -0.302   0.054
    1UNL    C18   23  -0.171  -0.184   0.081
    1UNL     O6   24  -0.124  -0.071   0.159
    1UNL    C19   25   0.013  -0.063   0.182
    1UNL     O7   26   0.092  -0.078   0.070
    1UNL    C20   27   0.220   0.006   0.069
    1UNL    C21   28   0.320  -0.047  -0.024
    1UNL     O8   29   0.448   0.014   0.004
    1UNL    C22   30   0.459   0.124  -0.072
    1UNL     O9   31   0.374   0.163  -0.153
    1UNL    C23   32   0.593   0.186  -0.076
    1UNL    C24   33   0.710   0.118  -0.056
    1UNL    C25   34   0.838   0.174  -0.063
    1UNL    C26   35   0.844   0.308  -0.104
    1UNL    C27   36   0.730   0.379  -0.138
    1UNL    C28   37   0.603   0.314  -0.130
    1UNL    C29   38   0.275   0.045   0.206
    1UNL    O10   39   0.325  -0.074   0.270
    1UNL    C30   40   0.175   0.107   0.295
    1UNL    O11   41   0.193   0.248   0.304
    1UNL    C31   42   0.024   0.082   0.235
    1UNL    O12   43  -0.002   0.181   0.134
    1UNL     H1   44  -0.390  -0.476  -0.306
    1UNL     H2   45  -0.352  -0.639  -0.269
    1UNL     H3   46  -0.466  -0.554  -0.174
    1UNL     H4   47  -0.273  -0.463   0.128
    1UNL     H5   48  -0.427  -0.425   0.043
    1UNL     H6   49  -0.417  -0.122   0.264
    1UNL     H7   50  -0.458  -0.288   0.279
    1UNL     H8   51  -0.290  -0.227   0.325
    1UNL     H9   52  -0.389  -0.098  -0.176
    1UNL    H10   53  -0.018  -0.036  -0.109
    1UNL    H11   54  -0.138  -0.033  -0.242
    1UNL    H12   55  -0.483   0.238  -0.287
    1UNL    H13   56  -0.609   0.442  -0.225
    1UNL    H14   57  -0.555   0.573  -0.022
    1UNL    H15   58  -0.373   0.496   0.121
    1UNL    H16   59  -0.256   0.287   0.074
    1UNL    H17   60  -0.075  -0.333  -0.176
    1UNL    H18   61  -0.081  -0.394   0.109
    1UNL    H19   62   0.032  -0.265   0.048
    1UNL    H20   63   0.035  -0.137   0.258
    1UNL    H21   64   0.174   0.092   0.024
    1UNL    H22   65   0.290  -0.042  -0.132
    1UNL    H23   66   0.334  -0.155   0.013
    1UNL    H24   67   0.703   0.015  -0.013
    1UNL    H25   68   0.925   0.112  -0.063
    1UNL    H26   69   0.944   0.361  -0.111
    1UNL    H27   70   0.733   0.478  -0.165
    1UNL    H28   71   0.513   0.370  -0.160
    1UNL    H29   72   0.367   0.106   0.198
    1UNL    H30   73   0.407  -0.101   0.227
    1UNL    H31   74   0.174   0.062   0.397
    1UNL    H32   75   0.118   0.299   0.259
    1UNL    H33   76  -0.050   0.104   0.314
    1UNL    H34   77  -0.070   0.145   0.070
   0.00000   0.00000   0.00000   0.00000   0.00000   0.00000   0.00000   0.00000   0.00000
Generated with MDTraj, t= 17.0
 77
    1UNL     C1    1  -0.376  -0.553  -0.224
    1UNL     O1    2  -0.249  -0.493  -0.189
    1UNL     C2    3  -0.266  -0.376  -0.103
    1UNL     C3    4  -0.321  -0.398   0.043
    1UNL     C4    5  -0.309  -0.263   0.118
    1UNL     C5    6  -0.338  -0.274   0.269
    1UNL     O2    7  -0.402  -0.168   0.049
    1UNL     C6    8  -0.348  -0.162  -0.085
    1UNL     O3    9  -0.369  -0.281  -0.156
    1UNL     C7   10  -0.186  -0.150  -0.069
    1UNL     C8   11  -0.115  -0.029  -0.133
    1UNL     O4   12  -0.163   0.090  -0.087
    1UNL     C9   13  -0.275   0.120  -0.156
    1UNL     O5   14  -0.308   0.058  -0.256
    1UNL    C10   15  -0.350   0.242  -0.117
    1UNL    C11   16  -0.419   0.313  -0.212
    1UNL    C12   17  -0.477   0.430  -0.172
    1UNL    C13   18  -0.467   0.470  -0.040
    1UNL    C14   19  -0.392   0.401   0.049
    1UNL    C15   20  -0.337   0.282   0.015
    1UNL    C16   21  -0.133  -0.293  -0.108
    1UNL    C17   22  -0.062  -0.292   0.038
    1UNL    C18   23  -0.167  -0.187   0.081
    1UNL     O6   24  -0.137  -0.082   0.170
    1UNL    C19   25  -0.002  -0.040   0.173
    1UNL     O7   26   0.074  -0.045   0.056
    1UNL    C20   27   0.210   0.020   0.060
    1UNL    C21   28   0.302  -0.069  -0.019
    1UNL     O8   29   0.446  -0.025  -0.022
    1UNL    C22   30   0.460   0.092  -0.087
    1UNL     O9   31   0.372   0.136  -0.160
    1UNL    C23   32   0.591   0.169  -0.091
    1UNL    C24   33   0.710   0.110  -0.049
    1UNL    C25   34   0.830   0.183  -0.039
    1UNL    C26   35   0.829   0.316  -0.080
    1UNL    C27   36   0.711   0.373  -0.125
    1UNL    C28   37   0.595   0.296  -0.136
    1UNL    C29   38   0.262   0.070   0.199
    1UNL    O10   39   0.341  -0.039   0.267
    1UNL    C30   40   0.160   0.133   0.291
    1UNL    O11   41   0.185   0.277   0.317
    1UNL    C31   42   0.012   0.112   0.234
    1UNL    O12   43  -0.013   0.204   0.133
    1UNL     H1   44  -0.443  -0.495  -0.283
    1UNL     H2   45  -0.347  -0.636  -0.286
    1UNL     H3   46  -0.446  -0.599  -0.156
    1UNL     H4   47  -0.265  -0.483   0.090
    1UNL     H5   48  -0.424  -0.431   0.037
    1UNL     H6   49  -0.293  -0.188   0.321
    1UNL     H7   50  -0.448  -0.259   0.273
    1UNL     H8   51  -0.299  -0.365   0.317
    1UNL     H9   52  -0.404  -0.085  -0.141
    1UNL    H10   53  -0.003  -0.038  -0.116
    1UNL    H11   54  -0.129  -0.042  -0.241
    1UNL    H12   55  -0.446   0.270  -0.302
    1UNL    H13   56  -0.538   0.481  -0.241
    1UNL    H14   57  -0.520   0.553  -0.004
    1UNL    H15   58  -0.378   0.446   0.145
    1UNL    H16   59  -0.255   0.243   0.071
    1UNL    H17   60  -0.066  -0.306  -0.197
    1UNL    H18   61  -0.065  -0.391   0.088
    1UNL    H19   62   0.035  -0.252   0.033
    1UNL    H20   63   0.042  -0.108   0.248
    1UNL    H21   64   0.205   0.104  -0.007
    1UNL    H22   65   0.274  -0.072  -0.129
    1UNL    H23   66   0.301  -0.175   0.029
    1UNL    H24   67   0.712   0.005  -0.033
    1UNL    H25   68   0.917   0.131   0.007
    1UNL    H26   69   0.919   0.359  -0.084
    1UNL    H27   70   0.711   0.486  -0.149
    1UNL    H28   71   0.506   0.340  -0.172
    1UNL    H29   72   0.339   0.151   0.194
    1UNL    H30   73   0.412  -0.071   0.207
    1UNL    H31   74   0.164   0.090   0.391
    1UNL    H32   75   0.147   0.333   0.250
    1UNL    H33   76  -0.063   0.124   0.312
    1UNL    H34   77  -0.049   0.159   0.054
   0.00000   0.00000   0.00000   0.00000   0.00000   0.00000   0.00000   0.00000   0.00000
Generated with MDTraj, t= 18.0
 77
    1UNL     C1    1  -0.387  -0.536  -0.206
    1UNL     O1    2  -0.258  -0.507  -0.169
    1UNL     C2    3  -0.256  -0.383  -0.097
    1UNL     C3    4  -0.284  -0.408   0.058
    1UNL     C4    5  -0.277  -0.267   0.119
    1UNL     C5    6  -0.290  -0.278   0.274
    1UNL     O2    7  -0.373  -0.177   0.053
    1UNL     C6    8  -0.334  -0.174  -0.079
    1UNL     O3    9  -0.358  -0.289  -0.142
    1UNL     C7   10  -0.179  -0.156  -0.074
    1UNL     C8   11  -0.123  -0.031  -0.148
    1UNL     O4   12  -0.172   0.090  -0.107
    1UNL     C9   13  -0.274   0.143  -0.178
    1UNL     O5   14  -0.318   0.095  -0.279
    1UNL    C10   15  -0.334   0.270  -0.129
    1UNL    C11   16  -0.395   0.360  -0.212
    1UNL    C12   17  -0.465   0.468  -0.157
    1UNL    C13   18  -0.471   0.479  -0.025
    1UNL    C14   19  -0.406   0.390   0.065
    1UNL    C15   20  -0.336   0.288   0.013
    1UNL    C16   21  -0.122  -0.298  -0.111
    1UNL    C17   22  -0.029  -0.285   0.012
    1UNL    C18   23  -0.145  -0.194   0.076
    1UNL     O6   24  -0.118  -0.095   0.173
    1UNL    C19   25   0.013  -0.044   0.174
    1UNL     O7   26   0.074  -0.043   0.047
    1UNL    C20   27   0.203   0.019   0.043
    1UNL    C21   28   0.303  -0.079  -0.009
    1UNL     O8   29   0.434  -0.022  -0.002
    1UNL    C22   30   0.439   0.085  -0.088
    1UNL     O9   31   0.346   0.112  -0.163
    1UNL    C23   32   0.564   0.165  -0.083
    1UNL    C24   33   0.671   0.099  -0.020
    1UNL    C25   34   0.790   0.167  -0.011
    1UNL    C26   35   0.810   0.292  -0.063
    1UNL    C27   36   0.709   0.361  -0.127
    1UNL    C28   37   0.584   0.295  -0.134
    1UNL    C29   38   0.252   0.077   0.180
    1UNL    O10   39   0.338  -0.028   0.257
    1UNL    C30   40   0.152   0.145   0.279
    1UNL    O11   41   0.156   0.288   0.281
    1UNL    C31   42   0.010   0.103   0.232
    1UNL    O12   43  -0.032   0.179   0.127
    1UNL     H1   44  -0.441  -0.450  -0.246
    1UNL     H2   45  -0.385  -0.619  -0.278
    1UNL     H3   46  -0.461  -0.571  -0.132
    1UNL     H4   47  -0.214  -0.479   0.102
    1UNL     H5   48  -0.382  -0.457   0.084
    1UNL     H6   49  -0.331  -0.182   0.311
    1UNL     H7   50  -0.351  -0.363   0.307
    1UNL     H8   51  -0.187  -0.282   0.311
    1UNL     H9   52  -0.392  -0.096  -0.131
    1UNL    H10   53  -0.009  -0.031  -0.125
    1UNL    H11   54  -0.132  -0.041  -0.259
    1UNL    H12   55  -0.405   0.341  -0.322
    1UNL    H13   56  -0.528   0.542  -0.214
    1UNL    H14   57  -0.527   0.563   0.018
    1UNL    H15   58  -0.384   0.416   0.167
    1UNL    H16   59  -0.265   0.226   0.075
    1UNL    H17   60  -0.080  -0.308  -0.214
    1UNL    H18   61  -0.014  -0.386   0.056
    1UNL    H19   62   0.064  -0.234   0.002
    1UNL    H20   63   0.074  -0.108   0.242
    1UNL    H21   64   0.201   0.105  -0.026
    1UNL    H22   65   0.285  -0.107  -0.118
    1UNL    H23   66   0.310  -0.173   0.058
    1UNL    H24   67   0.654  -0.001   0.017
    1UNL    H25   68   0.866   0.117   0.043
    1UNL    H26   69   0.913   0.341  -0.047
    1UNL    H27   70   0.721   0.454  -0.170
    1UNL    H28   71   0.492   0.352  -0.158
    1UNL    H29   72   0.324   0.156   0.149
    1UNL    H30   73   0.417  -0.046   0.202
    1UNL    H31   74   0.182   0.121   0.379
    1UNL    H32   75   0.111   0.330   0.199
    1UNL    H33   76  -0.068   0.115   0.308
    1UNL    H34   77  -0.055   0.131   0.041
   0.00000   0.00000   0.00000   0.00000   0.00000   0.00000   0.00000   0.00000   0.00000
Generated with MDTraj, t= 19.0
 77
    1UNL     C1    1  -0.352  -0.576  -0.211
    1UNL     O1    2  -0.237  -0.517  -0.172
    1UNL     C2    3  -0.263  -0.396  -0.102
    1UNL     C3    4  -0.280  -0.414   0.054
    1UNL     C4    5  -0.285  -0.279   0.125
    1UNL     C5    6  -0.304  -0.294   0.274
    1UNL     O2    7  -0.393  -0.204   0.060
    1UNL     C6    8  -0.358  -0.190  -0.075
    1UNL     O3    9  -0.374  -0.317  -0.144
    1UNL     C7   10  -0.204  -0.161  -0.073
    1UNL     C8   11  -0.139  -0.036  -0.130
    1UNL     O4   12  -0.203   0.078  -0.075
    1UNL     C9   13  -0.271   0.152  -0.168
    1UNL     O5   14  -0.279   0.126  -0.287
    1UNL    C10   15  -0.340   0.268  -0.109
    1UNL    C11   16  -0.393   0.362  -0.197
    1UNL    C12   17  -0.441   0.481  -0.150
    1UNL    C13   18  -0.447   0.506  -0.018
    1UNL    C14   19  -0.415   0.405   0.075
    1UNL    C15   20  -0.359   0.285   0.029
    1UNL    C16   21  -0.139  -0.300  -0.111
    1UNL    C17   22  -0.044  -0.284   0.015
    1UNL    C18   23  -0.156  -0.191   0.074
    1UNL     O6   24  -0.124  -0.076   0.162
    1UNL    C19   25   0.011  -0.027   0.173
    1UNL     O7   26   0.081  -0.025   0.046
    1UNL    C20   27   0.216   0.022   0.035
    1UNL    C21   28   0.307  -0.081  -0.029
    1UNL     O8   29   0.439  -0.041  -0.024
    1UNL    C22   30   0.453   0.076  -0.098
    1UNL     O9   31   0.357   0.132  -0.153
    1UNL    C23   32   0.586   0.148  -0.089
    1UNL    C24   33   0.688   0.107  -0.004
    1UNL    C25   34   0.797   0.185   0.021
    1UNL    C26   35   0.812   0.310  -0.040
    1UNL    C27   36   0.714   0.350  -0.136
    1UNL    C28   37   0.596   0.277  -0.149
    1UNL    C29   38   0.269   0.081   0.168
    1UNL    O10   39   0.308  -0.033   0.256
    1UNL    C30   40   0.162   0.164   0.252
    1UNL    O11   41   0.168   0.296   0.218
    1UNL    C31   42   0.012   0.112   0.229
    1UNL    O12   43  -0.054   0.198   0.142
    1UNL     H1   44  -0.409  -0.514  -0.284
    1UNL     H2   45  -0.329  -0.681  -0.248
    1UNL     H3   46  -0.428  -0.590  -0.131
    1UNL     H4   47  -0.223  -0.493   0.099
    1UNL     H5   48  -0.385  -0.458   0.070
    1UNL     H6   49  -0.248  -0.213   0.324
    1UNL     H7   50  -0.411  -0.299   0.294
    1UNL     H8   51  -0.251  -0.386   0.301
    1UNL     H9   52  -0.411  -0.108  -0.129
    1UNL    H10   53  -0.024  -0.022  -0.109
    1UNL    H11   54  -0.144  -0.034  -0.244
    1UNL    H12   55  -0.401   0.349  -0.302
    1UNL    H13   56  -0.493   0.539  -0.219
    1UNL    H14   57  -0.467   0.604   0.024
    1UNL    H15   58  -0.410   0.441   0.180
    1UNL    H16   59  -0.323   0.211   0.090
    1UNL    H17   60  -0.092  -0.293  -0.212
    1UNL    H18   61  -0.027  -0.384   0.051
    1UNL    H19   62   0.052  -0.230   0.005
    1UNL    H20   63   0.075  -0.099   0.231
    1UNL    H21   64   0.199   0.121  -0.019
    1UNL    H22   65   0.279  -0.099  -0.135
    1UNL    H23   66   0.307  -0.176   0.033
    1UNL    H24   67   0.680   0.014   0.054
    1UNL    H25   68   0.884   0.153   0.081
    1UNL    H26   69   0.893   0.376  -0.021
    1UNL    H27   70   0.732   0.449  -0.182
    1UNL    H28   71   0.521   0.317  -0.212
    1UNL    H29   72   0.357   0.146   0.145
    1UNL    H30   73   0.388  -0.063   0.210
    1UNL    H31   74   0.193   0.154   0.352
    1UNL    H32   75   0.092   0.313   0.164
    1UNL    H33   76  -0.043   0.119   0.324
    1UNL    H34   77  -0.094   0.146   0.066
   0.00000   0.00000   0.00000   0.00000   0.00000   0.00000   0.00000   0.00000   0.00000
Generated with MDTraj, t= 20.0
 77
    1UNL     C1    1  -0.328  -0.590  -0.210
    1UNL     O1    2  -0.210  -0.529  -0.156
    1UNL     C2    3  -0.241  -0.413  -0.086
    1UNL     C3    4  -0.278  -0.430   0.064
    1UNL     C4    5  -0.287  -0.285   0.129
    1UNL     C5    6  -0.315  -0.274   0.284
    1UNL     O2    7  -0.400  -0.226   0.061
    1UNL     C6    8  -0.354  -0.204  -0.074
    1UNL     O3    9  -0.354  -0.341  -0.135
    1UNL     C7   10  -0.203  -0.167  -0.066
    1UNL     C8   11  -0.160  -0.033  -0.125
    1UNL     O4   12  -0.247   0.068  -0.071
    1UNL     C9   13  -0.280   0.171  -0.160
    1UNL     O5   14  -0.272   0.160  -0.280
    1UNL    C10   15  -0.335   0.298  -0.101
    1UNL    C11   16  -0.373   0.403  -0.187
    1UNL    C12   17  -0.435   0.515  -0.135
    1UNL    C13   18  -0.463   0.530  -0.000
    1UNL    C14   19  -0.427   0.426   0.083
    1UNL    C15   20  -0.367   0.312   0.030
    1UNL    C16   21  -0.126  -0.306  -0.099
    1UNL    C17   22  -0.048  -0.285   0.037
    1UNL    C18   23  -0.166  -0.200   0.086
    1UNL     O6   24  -0.132  -0.088   0.168
    1UNL    C19   25   0.000  -0.043   0.155
    1UNL     O7   26   0.071  -0.044   0.024
    1UNL    C20   27   0.201   0.021   0.026
    1UNL    C21   28   0.307  -0.066  -0.052
    1UNL     O8   29   0.440  -0.018  -0.024
    1UNL    C22   30   0.469   0.091  -0.102
    1UNL     O9   31   0.392   0.131  -0.189
    1UNL    C23   32   0.590   0.171  -0.069
    1UNL    C24   33   0.687   0.132   0.027
    1UNL    C25   34   0.808   0.197   0.041
    1UNL    C26   35   0.833   0.301  -0.042
    1UNL    C27   36   0.743   0.337  -0.139
    1UNL    C28   37   0.621   0.281  -0.153
    1UNL    C29   38   0.252   0.054   0.165
    1UNL    O10   39   0.263  -0.068   0.238
    1UNL    C30   40   0.151   0.150   0.232
    1UNL    O11   41   0.173   0.275   0.169
    1UNL    C31   42  -0.001   0.104   0.207
    1UNL    O12   43  -0.064   0.197   0.120
    1UNL     H1   44  -0.394  -0.508  -0.246
    1UNL     H2   45  -0.308  -0.675  -0.282
    1UNL     H3   46  -0.386  -0.637  -0.128
    1UNL     H4   47  -0.208  -0.491   0.117
    1UNL     H5   48  -0.374  -0.483   0.093
    1UNL     H6   49  -0.364  -0.181   0.312
    1UNL     H7   50  -0.378  -0.357   0.313
    1UNL     H8   51  -0.225  -0.271   0.347
    1UNL     H9   52  -0.408  -0.124  -0.134
    1UNL    H10   53  -0.048  -0.002  -0.117
    1UNL    H11   54  -0.175  -0.024  -0.237
    1UNL    H12   55  -0.390   0.389  -0.293
    1UNL    H13   56  -0.479   0.588  -0.207
    1UNL    H14   57  -0.516   0.618   0.029
    1UNL    H15   58  -0.452   0.434   0.185
    1UNL    H16   59  -0.331   0.228   0.097
    1UNL    H17   60  -0.058  -0.313  -0.186
    1UNL    H18   61  -0.033  -0.366   0.108
    1UNL    H19   62   0.048  -0.228   0.035
    1UNL    H20   63   0.066  -0.109   0.217
    1UNL    H21   64   0.192   0.121  -0.031
    1UNL    H22   65   0.296  -0.059  -0.158
    1UNL    H23   66   0.305  -0.172  -0.024
    1UNL    H24   67   0.668   0.040   0.073
    1UNL    H25   68   0.878   0.156   0.108
    1UNL    H26   69   0.925   0.351  -0.030
    1UNL    H27   70   0.772   0.416  -0.210
    1UNL    H28   71   0.548   0.294  -0.235
    1UNL    H29   72   0.354   0.098   0.167
    1UNL    H30   73   0.314  -0.132   0.183
    1UNL    H31   74   0.176   0.153   0.333
    1UNL    H32   75   0.082   0.295   0.127
    1UNL    H33   76  -0.052   0.104   0.304
    1UNL    H34   77  -0.128   0.143   0.074
   0.00000   0.00000   0.00000   0.00000   0.00000   0.00000   0.00000   0.00000   0.00000
Generated with MDTraj, t= 21.0
 77
    1UNL     C1    1  -0.314  -0.618  -0.182
    1UNL     O1    2  -0.202  -0.536  -0.144
    1UNL     C2    3  -0.245  -0.413  -0.081
    1UNL     C3    4  -0.261  -0.432   0.073
    1UNL     C4    5  -0.289  -0.293   0.132
    1UNL     C5    6  -0.286  -0.286   0.282
    1UNL     O2    7  -0.406  -0.237   0.065
    1UNL     C6    8  -0.369  -0.222  -0.076
    1UNL     O3    9  -0.368  -0.357  -0.131
    1UNL     C7   10  -0.222  -0.173  -0.073
    1UNL     C8   11  -0.192  -0.037  -0.136
    1UNL     O4   12  -0.258   0.064  -0.068
    1UNL     C9   13  -0.274   0.171  -0.156
    1UNL     O5   14  -0.229   0.182  -0.267
    1UNL    C10   15  -0.349   0.290  -0.094
    1UNL    C11   16  -0.361   0.404  -0.174
    1UNL    C12   17  -0.412   0.524  -0.128
    1UNL    C13   18  -0.454   0.530   0.008
    1UNL    C14   19  -0.439   0.424   0.088
    1UNL    C15   20  -0.382   0.304   0.039
    1UNL    C16   21  -0.138  -0.303  -0.113
    1UNL    C17   22  -0.045  -0.278   0.006
    1UNL    C18   23  -0.163  -0.205   0.074
    1UNL     O6   24  -0.138  -0.082   0.143
    1UNL    C19   25  -0.008  -0.033   0.144
    1UNL     O7   26   0.066  -0.041   0.023
    1UNL    C20   27   0.194   0.031   0.032
    1UNL    C21   28   0.302  -0.045  -0.053
    1UNL     O8   29   0.430   0.011  -0.026
    1UNL    C22   30   0.462   0.108  -0.114
    1UNL     O9   31   0.393   0.150  -0.204
    1UNL    C23   32   0.592   0.170  -0.085
    1UNL    C24   33   0.660   0.126   0.027
    1UNL    C25   34   0.777   0.185   0.059
    1UNL    C26   35   0.830   0.282  -0.025
    1UNL    C27   36   0.765   0.323  -0.138
    1UNL    C28   37   0.655   0.256  -0.170
    1UNL    C29   38   0.240   0.049   0.175
    1UNL    O10   39   0.256  -0.062   0.255
    1UNL    C30   40   0.144   0.153   0.236
    1UNL    O11   41   0.188   0.288   0.190
    1UNL    C31   42  -0.002   0.119   0.191
    1UNL    O12   43  -0.041   0.206   0.092
    1UNL     H1   44  -0.350  -0.578  -0.276
    1UNL     H2   45  -0.288  -0.726  -0.186
    1UNL     H3   46  -0.393  -0.610  -0.109
    1UNL     H4   47  -0.171  -0.472   0.120
    1UNL     H5   48  -0.340  -0.507   0.093
    1UNL     H6   49  -0.237  -0.198   0.321
    1UNL     H7   50  -0.373  -0.311   0.340
    1UNL     H8   51  -0.213  -0.361   0.312
    1UNL     H9   52  -0.430  -0.143  -0.132
    1UNL    H10   53  -0.080  -0.012  -0.130
    1UNL    H11   54  -0.211  -0.027  -0.246
    1UNL    H12   55  -0.333   0.392  -0.282
    1UNL    H13   56  -0.431   0.610  -0.187
    1UNL    H14   57  -0.501   0.624   0.038
    1UNL    H15   58  -0.450   0.418   0.198
    1UNL    H16   59  -0.353   0.224   0.100
    1UNL    H17   60  -0.083  -0.295  -0.211
    1UNL    H18   61  -0.000  -0.352   0.077
    1UNL    H19   62   0.032  -0.213  -0.027
    1UNL    H20   63   0.053  -0.098   0.210
    1UNL    H21   64   0.179   0.122  -0.032
    1UNL    H22   65   0.289  -0.046  -0.157
    1UNL    H23   66   0.307  -0.148  -0.026
    1UNL    H24   67   0.631   0.032   0.080
    1UNL    H25   68   0.829   0.168   0.154
    1UNL    H26   69   0.917   0.344   0.019
    1UNL    H27   70   0.813   0.395  -0.194
    1UNL    H28   71   0.605   0.277  -0.262
    1UNL    H29   72   0.336   0.102   0.175
    1UNL    H30   73   0.300  -0.137   0.206
    1UNL    H31   74   0.157   0.163   0.339
    1UNL    H32   75   0.145   0.298   0.105
    1UNL    H33   76  -0.083   0.127   0.267
    1UNL    H34   77  -0.107   0.160   0.032
   0.00000   0.00000   0.00000   0.00000   0.00000   0.00000   0.00000   0.00000   0.00000
Generated with MDTraj, t= 22.0
 77
    1UNL     C1    1  -0.333  -0.611  -0.156
    1UNL     O1    2  -0.219  -0.543  -0.146
    1UNL     C2    3  -0.247  -0.420  -0.080
    1UNL     C3    4  -0.247  -0.434   0.073
    1UNL     C4    5  -0.261  -0.288   0.135
    1UNL     C5    6  -0.258  -0.297   0.283
    1UNL     O2    7  -0.393  -0.247   0.085
    1UNL     C6    8  -0.379  -0.238  -0.062
    1UNL     O3    9  -0.378  -0.365  -0.120
    1UNL     C7   10  -0.230  -0.179  -0.085
    1UNL     C8   11  -0.209  -0.047  -0.160
    1UNL     O4   12  -0.269   0.057  -0.090
    1UNL     C9   13  -0.260   0.175  -0.162
    1UNL     O5   14  -0.198   0.177  -0.265
    1UNL    C10   15  -0.324   0.292  -0.099
    1UNL    C11   16  -0.326   0.413  -0.164
    1UNL    C12   17  -0.391   0.520  -0.108
    1UNL    C13   18  -0.457   0.506   0.019
    1UNL    C14   19  -0.441   0.388   0.085
    1UNL    C15   20  -0.372   0.281   0.029
    1UNL    C16   21  -0.144  -0.301  -0.122
    1UNL    C17   22  -0.049  -0.270  -0.013
    1UNL    C18   23  -0.165  -0.188   0.058
    1UNL     O6   24  -0.145  -0.068   0.133
    1UNL    C19   25  -0.013  -0.016   0.135
    1UNL     O7   26   0.062  -0.015   0.004
    1UNL    C20   27   0.193   0.051   0.008
    1UNL    C21   28   0.290  -0.043  -0.066
    1UNL     O8   29   0.422  -0.012  -0.037
    1UNL    C22   30   0.462   0.100  -0.109
    1UNL     O9   31   0.393   0.160  -0.189
    1UNL    C23   32   0.589   0.158  -0.075
    1UNL    C24   33   0.651   0.138   0.049
    1UNL    C25   34   0.775   0.190   0.067
    1UNL    C26   35   0.840   0.269  -0.029
    1UNL    C27   36   0.776   0.296  -0.142
    1UNL    C28   37   0.652   0.241  -0.168
    1UNL    C29   38   0.240   0.083   0.155
    1UNL    O10   39   0.274  -0.030   0.227
    1UNL    C30   40   0.128   0.157   0.244
    1UNL    O11   41   0.149   0.295   0.261
    1UNL    C31   42  -0.011   0.129   0.192
    1UNL    O12   43  -0.044   0.218   0.089
    1UNL     H1   44  -0.407  -0.534  -0.168
    1UNL     H2   45  -0.334  -0.671  -0.246
    1UNL     H3   46  -0.337  -0.668  -0.066
    1UNL     H4   47  -0.153  -0.488   0.101
    1UNL     H5   48  -0.336  -0.485   0.107
    1UNL     H6   49  -0.303  -0.211   0.326
    1UNL     H7   50  -0.302  -0.388   0.321
    1UNL     H8   51  -0.160  -0.292   0.326
    1UNL     H9   52  -0.464  -0.182  -0.109
    1UNL    H10   53  -0.104  -0.026  -0.190
    1UNL    H11   54  -0.268  -0.058  -0.250
    1UNL    H12   55  -0.265   0.425  -0.246
    1UNL    H13   56  -0.407   0.616  -0.164
    1UNL    H14   57  -0.510   0.581   0.079
    1UNL    H15   58  -0.461   0.381   0.190
    1UNL    H16   59  -0.346   0.194   0.093
    1UNL    H17   60  -0.102  -0.274  -0.224
    1UNL    H18   61  -0.010  -0.355   0.048
    1UNL    H19   62   0.037  -0.215  -0.045
    1UNL    H20   63   0.053  -0.082   0.196
    1UNL    H21   64   0.174   0.132  -0.061
    1UNL    H22   65   0.274  -0.048  -0.169
    1UNL    H23   66   0.273  -0.144  -0.037
    1UNL    H24   67   0.603   0.080   0.121
    1UNL    H25   68   0.820   0.186   0.164
    1UNL    H26   69   0.924   0.321  -0.012
    1UNL    H27   70   0.801   0.383  -0.211
    1UNL    H28   71   0.610   0.248  -0.267
    1UNL    H29   72   0.334   0.140   0.149
    1UNL    H30   73   0.333  -0.082   0.167
    1UNL    H31   74   0.144   0.117   0.341
    1UNL    H32   75   0.122   0.331   0.171
    1UNL    H33   76  -0.095   0.148   0.261
    1UNL    H34   77  -0.105   0.174   0.027
   0.00000   0.00000   0.00000   0.00000   0.00000   0.00000   0.00000   0.00000   0.00000
Generated with MDTraj, t= 23.0
 77
    1UNL     C1    1  -0.335  -0.637  -0.125
    1UNL     O1    2  -0.234  -0.547  -0.155
    1UNL     C2    3  -0.262  -0.428  -0.078
    1UNL     C3    4  -0.252  -0.442   0.071
    1UNL     C4    5  -0.256  -0.295   0.127
    1UNL     C5    6  -0.230  -0.286   0.277
    1UNL     O2    7  -0.381  -0.234   0.092
    1UNL     C6    8  -0.378  -0.230  -0.046
    1UNL     O3    9  -0.389  -0.363  -0.110
    1UNL     C7   10  -0.228  -0.187  -0.093
    1UNL     C8   11  -0.202  -0.052  -0.167
    1UNL     O4   12  -0.251   0.060  -0.097
    1UNL     C9   13  -0.245   0.181  -0.166
    1UNL     O5   14  -0.188   0.186  -0.274
    1UNL    C10   15  -0.317   0.295  -0.105
    1UNL    C11   16  -0.306   0.425  -0.154
    1UNL    C12   17  -0.371   0.532  -0.082
    1UNL    C13   18  -0.438   0.507   0.035
    1UNL    C14   19  -0.445   0.375   0.080
    1UNL    C15   20  -0.389   0.273   0.010
    1UNL    C16   21  -0.151  -0.315  -0.131
    1UNL    C17   22  -0.040  -0.277  -0.029
    1UNL    C18   23  -0.152  -0.202   0.051
    1UNL     O6   24  -0.137  -0.079   0.121
    1UNL    C19   25  -0.011  -0.022   0.128
    1UNL     O7   26   0.050  -0.004  -0.003
    1UNL    C20   27   0.180   0.054  -0.001
    1UNL    C21   28   0.284  -0.038  -0.063
    1UNL     O8   29   0.414  -0.004  -0.031
    1UNL    C22   30   0.455   0.107  -0.105
    1UNL     O9   31   0.382   0.182  -0.169
    1UNL    C23   32   0.591   0.161  -0.074
    1UNL    C24   33   0.648   0.146   0.053
    1UNL    C25   34   0.780   0.187   0.078
    1UNL    C26   35   0.846   0.250  -0.026
    1UNL    C27   36   0.780   0.276  -0.142
    1UNL    C28   37   0.651   0.232  -0.173
    1UNL    C29   38   0.235   0.104   0.143
    1UNL    O10   39   0.288  -0.006   0.214
    1UNL    C30   40   0.119   0.166   0.241
    1UNL    O11   41   0.122   0.305   0.248
    1UNL    C31   42  -0.017   0.108   0.200
    1UNL    O12   43  -0.081   0.203   0.115
    1UNL     H1   44  -0.419  -0.581  -0.167
    1UNL     H2   45  -0.315  -0.730  -0.178
    1UNL     H3   46  -0.328  -0.650  -0.020
    1UNL     H4   47  -0.155  -0.498   0.092
    1UNL     H5   48  -0.340  -0.485   0.111
    1UNL     H6   49  -0.211  -0.182   0.292
    1UNL     H7   50  -0.313  -0.323   0.335
    1UNL     H8   51  -0.141  -0.333   0.312
    1UNL     H9   52  -0.454  -0.154  -0.076
    1UNL    H10   53  -0.095  -0.043  -0.162
    1UNL    H11   54  -0.233  -0.058  -0.269
    1UNL    H12   55  -0.260   0.436  -0.259
    1UNL    H13   56  -0.359   0.628  -0.120
    1UNL    H14   57  -0.492   0.581   0.088
    1UNL    H15   58  -0.491   0.351   0.175
    1UNL    H16   59  -0.387   0.174   0.048
    1UNL    H17   60  -0.132  -0.308  -0.242
    1UNL    H18   61   0.005  -0.362   0.018
    1UNL    H19   62   0.033  -0.205  -0.075
    1UNL    H20   63   0.057  -0.087   0.184
    1UNL    H21   64   0.155   0.136  -0.064
    1UNL    H22   65   0.283  -0.046  -0.169
    1UNL    H23   66   0.270  -0.141  -0.031
    1UNL    H24   67   0.590   0.108   0.138
    1UNL    H25   68   0.840   0.166   0.164
    1UNL    H26   69   0.950   0.297  -0.016
    1UNL    H27   70   0.828   0.331  -0.215
    1UNL    H28   71   0.612   0.245  -0.275
    1UNL    H29   72   0.312   0.182   0.129
    1UNL    H30   73   0.363  -0.031   0.159
    1UNL    H31   74   0.144   0.135   0.343
    1UNL    H32   75   0.095   0.326   0.155
    1UNL    H33   76  -0.089   0.102   0.284
    1UNL    H34   77  -0.134   0.146   0.056
   0.00000   0.00000   0.00000   0.00000   0.00000   0.00000   0.00000   0.00000   0.00000
Generated with MDTraj, t= 24.0
 77
    1UNL     C1    1  -0.355  -0.633  -0.139
    1UNL     O1    2  -0.235  -0.538  -0.165
    1UNL     C2    3  -0.246  -0.427  -0.082
    1UNL     C3    4  -0.250  -0.448   0.071
    1UNL     C4    5  -0.267  -0.305   0.131
    1UNL     C5    6  -0.261  -0.289   0.286
    1UNL     O2    7  -0.394  -0.246   0.077
    1UNL     C6    8  -0.375  -0.236  -0.063
    1UNL     O3    9  -0.374  -0.373  -0.121
    1UNL     C7   10  -0.222  -0.188  -0.084
    1UNL     C8   11  -0.206  -0.053  -0.155
    1UNL     O4   12  -0.279   0.042  -0.090
    1UNL     C9   13  -0.258   0.160  -0.153
    1UNL     O5   14  -0.214   0.165  -0.268
    1UNL    C10   15  -0.311   0.285  -0.086
    1UNL    C11   16  -0.276   0.410  -0.134
    1UNL    C12   17  -0.329   0.528  -0.076
    1UNL    C13   18  -0.418   0.519   0.027
    1UNL    C14   19  -0.456   0.390   0.077
    1UNL    C15   20  -0.405   0.280   0.016
    1UNL    C16   21  -0.145  -0.311  -0.124
    1UNL    C17   22  -0.038  -0.274  -0.014
    1UNL    C18   23  -0.152  -0.209   0.061
    1UNL     O6   24  -0.138  -0.083   0.126
    1UNL    C19   25  -0.011  -0.028   0.133
    1UNL     O7   26   0.048   0.003   0.003
    1UNL    C20   27   0.174   0.058   0.008
    1UNL    C21   28   0.284  -0.026  -0.059
    1UNL     O8   29   0.415   0.016  -0.035
    1UNL    C22   30   0.455   0.128  -0.103
    1UNL     O9   31   0.386   0.209  -0.164
    1UNL    C23   32   0.599   0.174  -0.076
    1UNL    C24   33   0.645   0.144   0.052
    1UNL    C25   34   0.783   0.172   0.070
    1UNL    C26   35   0.854   0.240  -0.024
    1UNL    C27   36   0.801   0.275  -0.145
    1UNL    C28   37   0.672   0.244  -0.170
    1UNL    C29   38   0.239   0.104   0.145
    1UNL    O10   39   0.291  -0.005   0.217
    1UNL    C30   40   0.125   0.189   0.220
    1UNL    O11   41   0.119   0.315   0.167
    1UNL    C31   42  -0.007   0.108   0.214
    1UNL    O12   43  -0.102   0.190   0.139
    1UNL     H1   44  -0.439  -0.561  -0.145
    1UNL     H2   45  -0.370  -0.709  -0.220
    1UNL     H3   46  -0.338  -0.677  -0.043
    1UNL     H4   47  -0.147  -0.487   0.095
    1UNL     H5   48  -0.331  -0.511   0.099
    1UNL     H6   49  -0.268  -0.184   0.304
    1UNL     H7   50  -0.333  -0.354   0.332
    1UNL     H8   51  -0.162  -0.315   0.316
    1UNL     H9   52  -0.457  -0.171  -0.092
    1UNL    H10   53  -0.104  -0.024  -0.159
    1UNL    H11   54  -0.245  -0.068  -0.251
    1UNL    H12   55  -0.222   0.417  -0.220
    1UNL    H13   56  -0.312   0.624  -0.133
    1UNL    H14   57  -0.457   0.615   0.070
    1UNL    H15   58  -0.539   0.389   0.147
    1UNL    H16   59  -0.443   0.184   0.050
    1UNL    H17   60  -0.098  -0.325  -0.227
    1UNL    H18   61   0.005  -0.360   0.031
    1UNL    H19   62   0.036  -0.199  -0.057
    1UNL    H20   63   0.052  -0.098   0.186
    1UNL    H21   64   0.172   0.145  -0.049
    1UNL    H22   65   0.277  -0.030  -0.168
    1UNL    H23   66   0.282  -0.134  -0.031
    1UNL    H24   67   0.598   0.074   0.115
    1UNL    H25   68   0.821   0.145   0.170
    1UNL    H26   69   0.956   0.260  -0.006
    1UNL    H27   70   0.867   0.310  -0.232
    1UNL    H28   71   0.631   0.260  -0.265
    1UNL    H29   72   0.321   0.179   0.134
    1UNL    H30   73   0.351  -0.053   0.154
    1UNL    H31   74   0.174   0.201   0.320
    1UNL    H32   75   0.073   0.304   0.080
    1UNL    H33   76  -0.044   0.081   0.314
    1UNL    H34   77  -0.159   0.135   0.079
   0.00000   0.00000   0.00000   0.00000   0.00000   0.00000   0.00000   0.00000   0.00000
Generated with MDTraj, t= 25.0
 77
    1UNL     C1    1  -0.306  -0.610  -0.209
    1UNL     O1    2  -0.200  -0.555  -0.135
    1UNL     C2    3  -0.251  -0.430  -0.079
    1UNL     C3    4  -0.257  -0.447   0.078
    1UNL     C4    5  -0.270  -0.299   0.141
    1UNL     C5    6  -0.271  -0.308   0.295
    1UNL     O2    7  -0.396  -0.248   0.096
    1UNL     C6    8  -0.374  -0.234  -0.056
    1UNL     O3    9  -0.372  -0.369  -0.118
    1UNL     C7   10  -0.223  -0.189  -0.071
    1UNL     C8   11  -0.193  -0.048  -0.136
    1UNL     O4   12  -0.263   0.051  -0.070
    1UNL     C9   13  -0.266   0.164  -0.147
    1UNL     O5   14  -0.226   0.166  -0.262
    1UNL    C10   15  -0.317   0.295  -0.097
    1UNL    C11   16  -0.267   0.419  -0.127
    1UNL    C12   17  -0.305   0.535  -0.063
    1UNL    C13   18  -0.393   0.536   0.041
    1UNL    C14   19  -0.458   0.415   0.068
    1UNL    C15   20  -0.417   0.295   0.006
    1UNL    C16   21  -0.149  -0.318  -0.108
    1UNL    C17   22  -0.047  -0.290   0.007
    1UNL    C18   23  -0.157  -0.213   0.074
    1UNL     O6   24  -0.129  -0.094   0.156
    1UNL    C19   25  -0.008  -0.033   0.138
    1UNL     O7   26   0.052  -0.020  -0.001
    1UNL    C20   27   0.169   0.060  -0.019
    1UNL    C21   28   0.281  -0.021  -0.086
    1UNL     O8   29   0.411   0.010  -0.038
    1UNL    C22   30   0.466   0.124  -0.095
    1UNL     O9   31   0.397   0.198  -0.164
    1UNL    C23   32   0.604   0.168  -0.062
    1UNL    C24   33   0.666   0.129   0.052
    1UNL    C25   34   0.801   0.168   0.066
    1UNL    C26   35   0.863   0.235  -0.035
    1UNL    C27   36   0.801   0.288  -0.146
    1UNL    C28   37   0.668   0.252  -0.152
    1UNL    C29   38   0.223   0.106   0.119
    1UNL    O10   39   0.250  -0.004   0.199
    1UNL    C30   40   0.107   0.194   0.185
    1UNL    O11   41   0.076   0.318   0.119
    1UNL    C31   42  -0.014   0.107   0.205
    1UNL    O12   43  -0.125   0.178   0.138
    1UNL     H1   44  -0.323  -0.528  -0.285
    1UNL     H2   45  -0.267  -0.703  -0.261
    1UNL     H3   46  -0.386  -0.624  -0.135
    1UNL     H4   47  -0.175  -0.511   0.112
    1UNL     H5   48  -0.353  -0.496   0.095
    1UNL     H6   49  -0.290  -0.211   0.333
    1UNL     H7   50  -0.346  -0.381   0.314
    1UNL     H8   51  -0.176  -0.338   0.332
    1UNL     H9   52  -0.447  -0.177  -0.110
    1UNL    H10   53  -0.089  -0.029  -0.137
    1UNL    H11   54  -0.223  -0.039  -0.237
    1UNL    H12   55  -0.176   0.416  -0.194
    1UNL    H13   56  -0.258   0.620  -0.098
    1UNL    H14   57  -0.420   0.623   0.093
    1UNL    H15   58  -0.527   0.416   0.150
    1UNL    H16   59  -0.462   0.197   0.033
    1UNL    H17   60  -0.112  -0.321  -0.216
    1UNL    H18   61  -0.012  -0.381   0.057
    1UNL    H19   62   0.040  -0.232  -0.025
    1UNL    H20   63   0.067  -0.088   0.193
    1UNL    H21   64   0.143   0.148  -0.075
    1UNL    H22   65   0.282  -0.010  -0.198
    1UNL    H23   66   0.262  -0.131  -0.067
    1UNL    H24   67   0.615   0.063   0.128
    1UNL    H25   68   0.848   0.147   0.157
    1UNL    H26   69   0.962   0.271  -0.017
    1UNL    H27   70   0.853   0.343  -0.216
    1UNL    H28   71   0.604   0.279  -0.241
    1UNL    H29   72   0.306   0.176   0.106
    1UNL    H30   73   0.327  -0.037   0.149
    1UNL    H31   74   0.147   0.224   0.288
    1UNL    H32   75  -0.022   0.334   0.141
    1UNL    H33   76  -0.047   0.094   0.309
    1UNL    H34   77  -0.177   0.118   0.077
   0.00000   0.00000   0.00000   0.00000   0.00000   0.00000   0.00000   0.00000   0.00000
Generated with MDTraj, t= 26.0
 77
    1UNL     C1    1  -0.281  -0.559  -0.261
    1UNL     O1    2  -0.211  -0.549  -0.145
    1UNL     C2    3  -0.239  -0.432  -0.076
    1UNL     C3    4  -0.241  -0.450   0.079
    1UNL     C4    5  -0.264  -0.312   0.144
    1UNL     C5    6  -0.267  -0.311   0.291
    1UNL     O2    7  -0.389  -0.267   0.092
    1UNL     C6    8  -0.368  -0.247  -0.050
    1UNL     O3    9  -0.369  -0.374  -0.106
    1UNL     C7   10  -0.223  -0.187  -0.062
    1UNL     C8   11  -0.203  -0.059  -0.140
    1UNL     O4   12  -0.278   0.043  -0.081
    1UNL     C9   13  -0.265   0.157  -0.148
    1UNL     O5   14  -0.213   0.163  -0.259
    1UNL    C10   15  -0.302   0.286  -0.085
    1UNL    C11   16  -0.242   0.405  -0.117
    1UNL    C12   17  -0.284   0.519  -0.062
    1UNL    C13   18  -0.383   0.529   0.033
    1UNL    C14   19  -0.441   0.408   0.065
    1UNL    C15   20  -0.400   0.287   0.009
    1UNL    C16   21  -0.132  -0.312  -0.100
    1UNL    C17   22  -0.033  -0.275   0.012
    1UNL    C18   23  -0.154  -0.205   0.079
    1UNL     O6   24  -0.134  -0.078   0.156
    1UNL    C19   25  -0.012  -0.012   0.149
    1UNL     O7   26   0.038  -0.004   0.013
    1UNL    C20   27   0.173   0.061  -0.011
    1UNL    C21   28   0.274  -0.042  -0.065
    1UNL     O8   29   0.406  -0.002  -0.036
    1UNL    C22   30   0.450   0.109  -0.108
    1UNL     O9   31   0.375   0.179  -0.175
    1UNL    C23   32   0.590   0.147  -0.085
    1UNL    C24   33   0.665   0.091   0.020
    1UNL    C25   34   0.782   0.135   0.065
    1UNL    C26   35   0.843   0.231  -0.017
    1UNL    C27   36   0.771   0.290  -0.123
    1UNL    C28   37   0.642   0.253  -0.156
    1UNL    C29   38   0.221   0.135   0.115
    1UNL    O10   39   0.279   0.052   0.205
    1UNL    C30   40   0.096   0.215   0.186
    1UNL    O11   41   0.061   0.325   0.098
    1UNL    C31   42  -0.021   0.125   0.214
    1UNL    O12   43  -0.138   0.186   0.159
    1UNL     H1   44  -0.232  -0.506  -0.345
    1UNL     H2   45  -0.273  -0.670  -0.277
    1UNL     H3   46  -0.378  -0.522  -0.232
    1UNL     H4   47  -0.147  -0.479   0.117
    1UNL     H5   48  -0.321  -0.522   0.108
    1UNL     H6   49  -0.241  -0.213   0.323
    1UNL     H7   50  -0.351  -0.358   0.336
    1UNL     H8   51  -0.178  -0.367   0.310
    1UNL     H9   52  -0.439  -0.190  -0.106
    1UNL    H10   53  -0.104  -0.021  -0.146
    1UNL    H11   54  -0.234  -0.065  -0.243
    1UNL    H12   55  -0.154   0.397  -0.174
    1UNL    H13   56  -0.226   0.611  -0.079
    1UNL    H14   57  -0.414   0.631   0.060
    1UNL    H15   58  -0.523   0.406   0.137
    1UNL    H16   59  -0.436   0.199   0.051
    1UNL    H17   60  -0.086  -0.309  -0.205
    1UNL    H18   61   0.009  -0.363   0.068
    1UNL    H19   62   0.042  -0.214  -0.028
    1UNL    H20   63   0.066  -0.066   0.199
    1UNL    H21   64   0.141   0.130  -0.092
    1UNL    H22   65   0.255  -0.062  -0.176
    1UNL    H23   66   0.254  -0.143  -0.017
    1UNL    H24   67   0.618   0.023   0.082
    1UNL    H25   68   0.833   0.105   0.159
    1UNL    H26   69   0.940   0.274   0.017
    1UNL    H27   70   0.808   0.384  -0.170
    1UNL    H28   71   0.598   0.298  -0.237
    1UNL    H29   72   0.290   0.217   0.092
    1UNL    H30   73   0.350   0.001   0.155
    1UNL    H31   74   0.141   0.257   0.284
    1UNL    H32   75  -0.032   0.335   0.104
    1UNL    H33   76  -0.049   0.109   0.321
    1UNL    H34   77  -0.184   0.113   0.110
   0.00000   0.00000   0.00000   0.00000   0.00000   0.00000   0.00000   0.00000   0.00000
Generated with MDTraj, t= 27.0
 77
    1UNL     C1    1  -0.221  -0.524  -0.290
    1UNL     O1    2  -0.211  -0.552  -0.143
    1UNL     C2    3  -0.237  -0.431  -0.073
    1UNL     C3    4  -0.221  -0.453   0.083
    1UNL     C4    5  -0.242  -0.309   0.151
    1UNL     C5    6  -0.218  -0.297   0.306
    1UNL     O2    7  -0.372  -0.255   0.108
    1UNL     C6    8  -0.366  -0.245  -0.034
    1UNL     O3    9  -0.371  -0.369  -0.103
    1UNL     C7   10  -0.216  -0.185  -0.061
    1UNL     C8   11  -0.201  -0.051  -0.143
    1UNL     O4   12  -0.262   0.052  -0.079
    1UNL     C9   13  -0.234   0.167  -0.151
    1UNL     O5   14  -0.172   0.164  -0.259
    1UNL    C10   15  -0.290   0.291  -0.092
    1UNL    C11   16  -0.237   0.415  -0.126
    1UNL    C12   17  -0.271   0.525  -0.058
    1UNL    C13   18  -0.367   0.520   0.045
    1UNL    C14   19  -0.422   0.402   0.075
    1UNL    C15   20  -0.388   0.287   0.005
    1UNL    C16   21  -0.133  -0.310  -0.114
    1UNL    C17   22  -0.030  -0.273  -0.008
    1UNL    C18   23  -0.144  -0.208   0.077
    1UNL     O6   24  -0.122  -0.094   0.158
    1UNL    C19   25  -0.009  -0.011   0.132
    1UNL     O7   26   0.019   0.020  -0.008
    1UNL    C20   27   0.160   0.073  -0.013
    1UNL    C21   28   0.252  -0.046  -0.031
    1UNL     O8   29   0.387  -0.013  -0.009
    1UNL    C22   30   0.427   0.078  -0.101
    1UNL     O9   31   0.358   0.117  -0.192
    1UNL    C23   32   0.556   0.132  -0.067
    1UNL    C24   33   0.649   0.057   0.011
    1UNL    C25   34   0.773   0.107   0.033
    1UNL    C26   35   0.815   0.227  -0.026
    1UNL    C27   36   0.729   0.293  -0.108
    1UNL    C28   37   0.596   0.253  -0.128
    1UNL    C29   38   0.207   0.157   0.108
    1UNL    O10   39   0.275   0.081   0.202
    1UNL    C30   40   0.079   0.223   0.176
    1UNL    O11   41   0.033   0.330   0.097
    1UNL    C31   42  -0.032   0.129   0.208
    1UNL    O12   43  -0.163   0.172   0.174
    1UNL     H1   44  -0.246  -0.426  -0.329
    1UNL     H2   45  -0.120  -0.543  -0.327
    1UNL     H3   46  -0.300  -0.588  -0.320
    1UNL     H4   47  -0.129  -0.498   0.104
    1UNL     H5   48  -0.298  -0.518   0.132
    1UNL     H6   49  -0.253  -0.204   0.340
    1UNL     H7   50  -0.271  -0.370   0.361
    1UNL     H8   51  -0.119  -0.300   0.342
    1UNL     H9   52  -0.429  -0.166  -0.073
    1UNL    H10   53  -0.099  -0.016  -0.161
    1UNL    H11   54  -0.249  -0.041  -0.244
    1UNL    H12   55  -0.162   0.413  -0.207
    1UNL    H13   56  -0.222   0.619  -0.082
    1UNL    H14   57  -0.394   0.617   0.084
    1UNL    H15   58  -0.511   0.405   0.135
    1UNL    H16   59  -0.445   0.190   0.025
    1UNL    H17   60  -0.099  -0.305  -0.222
    1UNL    H18   61   0.012  -0.353   0.054
    1UNL    H19   62   0.037  -0.191  -0.030
    1UNL    H20   63   0.083  -0.063   0.157
    1UNL    H21   64   0.174   0.115  -0.121
    1UNL    H22   65   0.247  -0.089  -0.135
    1UNL    H23   66   0.224  -0.135   0.032
    1UNL    H24   67   0.608  -0.044   0.038
    1UNL    H25   68   0.837   0.061   0.104
    1UNL    H26   69   0.914   0.255  -0.010
    1UNL    H27   70   0.767   0.379  -0.161
    1UNL    H28   71   0.519   0.295  -0.201
    1UNL    H29   72   0.272   0.240   0.076
    1UNL    H30   73   0.358   0.045   0.170
    1UNL    H31   74   0.128   0.269   0.271
    1UNL    H32   75   0.021   0.290   0.006
    1UNL    H33   76  -0.039   0.099   0.315
    1UNL    H34   77  -0.199   0.129   0.094
   0.00000   0.00000   0.00000   0.00000   0.00000   0.00000   0.00000   0.00000   0.00000
Generated with MDTraj, t= 28.0
 77
    1UNL     C1    1  -0.243  -0.542  -0.287
    1UNL     O1    2  -0.167  -0.530  -0.154
    1UNL     C2    3  -0.209  -0.419  -0.074
    1UNL     C3    4  -0.215  -0.447   0.073
    1UNL     C4    5  -0.237  -0.313   0.148
    1UNL     C5    6  -0.222  -0.324   0.295
    1UNL     O2    7  -0.375  -0.279   0.106
    1UNL     C6    8  -0.356  -0.254  -0.030
    1UNL     O3    9  -0.339  -0.374  -0.111
    1UNL     C7   10  -0.226  -0.176  -0.051
    1UNL     C8   11  -0.209  -0.046  -0.141
    1UNL     O4   12  -0.267   0.061  -0.082
    1UNL     C9   13  -0.219   0.177  -0.144
    1UNL     O5   14  -0.148   0.176  -0.245
    1UNL    C10   15  -0.275   0.305  -0.085
    1UNL    C11   16  -0.227   0.428  -0.124
    1UNL    C12   17  -0.267   0.541  -0.062
    1UNL    C13   18  -0.361   0.533   0.039
    1UNL    C14   19  -0.409   0.414   0.082
    1UNL    C15   20  -0.369   0.297   0.020
    1UNL    C16   21  -0.119  -0.285  -0.108
    1UNL    C17   22  -0.023  -0.253   0.004
    1UNL    C18   23  -0.149  -0.198   0.082
    1UNL     O6   24  -0.131  -0.089   0.169
    1UNL    C19   25  -0.022  -0.004   0.141
    1UNL     O7   26   0.021   0.002   0.007
    1UNL    C20   27   0.156   0.057  -0.005
    1UNL    C21   28   0.252  -0.056  -0.015
    1UNL     O8   29   0.390  -0.031  -0.000
    1UNL    C22   30   0.426   0.046  -0.104
    1UNL     O9   31   0.366   0.082  -0.203
    1UNL    C23   32   0.562   0.110  -0.080
    1UNL    C24   33   0.664   0.039  -0.021
    1UNL    C25   34   0.781   0.105   0.003
    1UNL    C26   35   0.806   0.243  -0.027
    1UNL    C27   36   0.704   0.310  -0.099
    1UNL    C28   37   0.589   0.239  -0.121
    1UNL    C29   38   0.184   0.159   0.108
    1UNL    O10   39   0.247   0.092   0.217
    1UNL    C30   40   0.051   0.232   0.155
    1UNL    O11   41  -0.001   0.316   0.047
    1UNL    C31   42  -0.047   0.133   0.208
    1UNL    O12   43  -0.181   0.184   0.192
    1UNL     H1   44  -0.329  -0.607  -0.296
    1UNL     H2   45  -0.264  -0.444  -0.331
    1UNL     H3   46  -0.176  -0.596  -0.348
    1UNL     H4   47  -0.119  -0.483   0.104
    1UNL     H5   48  -0.291  -0.526   0.091
    1UNL     H6   49  -0.220  -0.230   0.342
    1UNL     H7   50  -0.299  -0.382   0.339
    1UNL     H8   51  -0.129  -0.366   0.323
    1UNL     H9   52  -0.445  -0.197  -0.061
    1UNL    H10   53  -0.103  -0.011  -0.151
    1UNL    H11   54  -0.251  -0.063  -0.247
    1UNL    H12   55  -0.143   0.425  -0.193
    1UNL    H13   56  -0.226   0.636  -0.093
    1UNL    H14   57  -0.397   0.620   0.090
    1UNL    H15   58  -0.490   0.409   0.155
    1UNL    H16   59  -0.422   0.211   0.038
    1UNL    H17   60  -0.088  -0.267  -0.216
    1UNL    H18   61   0.020  -0.339   0.046
    1UNL    H19   62   0.057  -0.179  -0.018
    1UNL    H20   63   0.074  -0.047   0.175
    1UNL    H21   64   0.153   0.107  -0.113
    1UNL    H22   65   0.240  -0.115  -0.106
    1UNL    H23   66   0.237  -0.132   0.064
    1UNL    H24   67   0.652  -0.063   0.005
    1UNL    H25   68   0.860   0.045   0.054
    1UNL    H26   69   0.902   0.286   0.013
    1UNL    H27   70   0.732   0.399  -0.149
    1UNL    H28   71   0.517   0.292  -0.171
    1UNL    H29   72   0.239   0.245   0.063
    1UNL    H30   73   0.324   0.044   0.176
    1UNL    H31   74   0.080   0.311   0.233
    1UNL    H32   75  -0.095   0.332   0.070
    1UNL    H33   76  -0.040   0.122   0.319
    1UNL    H34   77  -0.218   0.140   0.113
   0.00000   0.00000   0.00000   0.00000   0.00000   0.00000   0.00000   0.00000   0.00000
Generated with MDTraj, t= 29.0
 77
    1UNL     C1    1  -0.252  -0.577  -0.260
    1UNL     O1    2  -0.159  -0.541  -0.168
    1UNL     C2    3  -0.208  -0.428  -0.096
    1UNL     C3    4  -0.214  -0.454   0.059
    1UNL     C4    5  -0.254  -0.327   0.135
    1UNL     C5    6  -0.254  -0.339   0.285
    1UNL     O2    7  -0.376  -0.278   0.082
    1UNL     C6    8  -0.354  -0.252  -0.059
    1UNL     O3    9  -0.335  -0.371  -0.138
    1UNL     C7   10  -0.215  -0.185  -0.056
    1UNL     C8   11  -0.209  -0.043  -0.129
    1UNL     O4   12  -0.284   0.057  -0.070
    1UNL     C9   13  -0.248   0.176  -0.125
    1UNL     O5   14  -0.168   0.186  -0.218
    1UNL    C10   15  -0.300   0.309  -0.070
    1UNL    C11   16  -0.232   0.417  -0.123
    1UNL    C12   17  -0.262   0.546  -0.078
    1UNL    C13   18  -0.349   0.565   0.019
    1UNL    C14   19  -0.416   0.455   0.078
    1UNL    C15   20  -0.390   0.330   0.034
    1UNL    C16   21  -0.119  -0.297  -0.106
    1UNL    C17   22  -0.024  -0.265   0.012
    1UNL    C18   23  -0.155  -0.206   0.086
    1UNL     O6   24  -0.134  -0.093   0.174
    1UNL    C19   25  -0.021  -0.008   0.149
    1UNL     O7   26   0.033   0.002   0.016
    1UNL    C20   27   0.166   0.050   0.007
    1UNL    C21   28   0.269  -0.057   0.014
    1UNL     O8   29   0.399  -0.001   0.031
    1UNL    C22   30   0.433   0.057  -0.094
    1UNL     O9   31   0.373   0.053  -0.199
    1UNL    C23   32   0.562   0.118  -0.092
    1UNL    C24   33   0.669   0.050  -0.038
    1UNL    C25   34   0.798   0.104  -0.020
    1UNL    C26   35   0.812   0.234  -0.053
    1UNL    C27   36   0.702   0.308  -0.103
    1UNL    C28   37   0.577   0.252  -0.122
    1UNL    C29   38   0.195   0.164   0.115
    1UNL    O10   39   0.258   0.111   0.239
    1UNL    C30   40   0.061   0.236   0.149
    1UNL    O11   41   0.011   0.299   0.034
    1UNL    C31   42  -0.038   0.137   0.207
    1UNL    O12   43  -0.177   0.179   0.196
    1UNL     H1   44  -0.332  -0.637  -0.215
    1UNL     H2   45  -0.289  -0.493  -0.323
    1UNL     H3   46  -0.194  -0.645  -0.321
    1UNL     H4   47  -0.116  -0.498   0.086
    1UNL     H5   48  -0.281  -0.534   0.087
    1UNL     H6   49  -0.276  -0.245   0.328
    1UNL     H7   50  -0.324  -0.412   0.318
    1UNL     H8   51  -0.160  -0.364   0.322
    1UNL     H9   52  -0.440  -0.194  -0.099
    1UNL    H10   53  -0.101  -0.011  -0.131
    1UNL    H11   54  -0.248  -0.052  -0.239
    1UNL    H12   55  -0.143   0.399  -0.177
    1UNL    H13   56  -0.197   0.629  -0.100
    1UNL    H14   57  -0.374   0.664   0.056
    1UNL    H15   58  -0.494   0.472   0.148
    1UNL    H16   59  -0.437   0.241   0.087
    1UNL    H17   60  -0.083  -0.272  -0.211
    1UNL    H18   61   0.020  -0.350   0.060
    1UNL    H19   62   0.048  -0.191  -0.006
    1UNL    H20   63   0.072  -0.051   0.192
    1UNL    H21   64   0.164   0.113  -0.092
    1UNL    H22   65   0.275  -0.117  -0.074
    1UNL    H23   66   0.254  -0.128   0.094
    1UNL    H24   67   0.636  -0.046   0.003
    1UNL    H25   68   0.870   0.045   0.024
    1UNL    H26   69   0.902   0.282  -0.045
    1UNL    H27   70   0.712   0.420  -0.113
    1UNL    H28   71   0.491   0.305  -0.170
    1UNL    H29   72   0.260   0.245   0.070
    1UNL    H30   73   0.337   0.068   0.204
    1UNL    H31   74   0.096   0.307   0.229
    1UNL    H32   75  -0.052   0.238  -0.003
    1UNL    H33   76  -0.018   0.132   0.317
    1UNL    H34   77  -0.210   0.141   0.110
   0.00000   0.00000   0.00000   0.00000   0.00000   0.00000   0.00000   0.00000   0.00000
Generated with MDTraj, t= 30.0
 77
    1UNL     C1    1  -0.269  -0.605  -0.230
    1UNL     O1    2  -0.176  -0.532  -0.165
    1UNL     C2    3  -0.221  -0.418  -0.099
    1UNL     C3    4  -0.219  -0.448   0.059
    1UNL     C4    5  -0.256  -0.316   0.127
    1UNL     C5    6  -0.265  -0.312   0.276
    1UNL     O2    7  -0.387  -0.277   0.071
    1UNL     C6    8  -0.361  -0.240  -0.071
    1UNL     O3    9  -0.350  -0.367  -0.134
    1UNL     C7   10  -0.210  -0.173  -0.074
    1UNL     C8   11  -0.194  -0.033  -0.132
    1UNL     O4   12  -0.258   0.073  -0.060
    1UNL     C9   13  -0.246   0.185  -0.130
    1UNL     O5   14  -0.194   0.184  -0.239
    1UNL    C10   15  -0.298   0.309  -0.079
    1UNL    C11   16  -0.243   0.427  -0.132
    1UNL    C12   17  -0.285   0.553  -0.080
    1UNL    C13   18  -0.374   0.558   0.022
    1UNL    C14   19  -0.427   0.441   0.071
    1UNL    C15   20  -0.391   0.319   0.023
    1UNL    C16   21  -0.118  -0.294  -0.124
    1UNL    C17   22  -0.031  -0.266  -0.000
    1UNL    C18   23  -0.158  -0.208   0.074
    1UNL     O6   24  -0.142  -0.095   0.157
    1UNL    C19   25  -0.023  -0.027   0.153
    1UNL     O7   26   0.038  -0.004   0.020
    1UNL    C20   27   0.174   0.036   0.022
    1UNL    C21   28   0.292  -0.067   0.025
    1UNL     O8   29   0.422  -0.011   0.049
    1UNL    C22   30   0.454   0.060  -0.063
    1UNL     O9   31   0.380   0.075  -0.159
    1UNL    C23   32   0.591   0.116  -0.073
    1UNL    C24   33   0.704   0.054  -0.035
    1UNL    C25   34   0.825   0.119  -0.048
    1UNL    C26   35   0.823   0.251  -0.095
    1UNL    C27   36   0.701   0.316  -0.132
    1UNL    C28   37   0.586   0.242  -0.130
    1UNL    C29   38   0.192   0.153   0.126
    1UNL    O10   39   0.268   0.115   0.244
    1UNL    C30   40   0.058   0.219   0.172
    1UNL    O11   41  -0.000   0.296   0.066
    1UNL    C31   42  -0.041   0.116   0.221
    1UNL    O12   43  -0.180   0.153   0.191
    1UNL     H1   44  -0.373  -0.580  -0.199
    1UNL     H2   45  -0.264  -0.599  -0.343
    1UNL     H3   46  -0.249  -0.710  -0.208
    1UNL     H4   47  -0.129  -0.509   0.096
    1UNL     H5   48  -0.299  -0.514   0.080
    1UNL     H6   49  -0.301  -0.219   0.312
    1UNL     H7   50  -0.326  -0.392   0.305
    1UNL     H8   51  -0.167  -0.326   0.312
    1UNL     H9   52  -0.445  -0.183  -0.122
    1UNL    H10   53  -0.085  -0.006  -0.148
    1UNL    H11   54  -0.249  -0.033  -0.236
    1UNL    H12   55  -0.152   0.432  -0.200
    1UNL    H13   56  -0.219   0.635  -0.108
    1UNL    H14   57  -0.421   0.652   0.052
    1UNL    H15   58  -0.516   0.455   0.138
    1UNL    H16   59  -0.433   0.230   0.059
    1UNL    H17   60  -0.059  -0.308  -0.222
    1UNL    H18   61  -0.004  -0.355   0.054
    1UNL    H19   62   0.047  -0.201  -0.029
    1UNL    H20   63   0.056  -0.085   0.206
    1UNL    H21   64   0.187   0.097  -0.073
    1UNL    H22   65   0.301  -0.122  -0.066
    1UNL    H23   66   0.280  -0.139   0.104
    1UNL    H24   67   0.701  -0.043   0.015
    1UNL    H25   68   0.922   0.067  -0.024
    1UNL    H26   69   0.915   0.312  -0.110
    1UNL    H27   70   0.698   0.412  -0.171
    1UNL    H28   71   0.496   0.289  -0.164
    1UNL    H29   72   0.253   0.235   0.077
    1UNL    H30   73   0.350   0.069   0.210
    1UNL    H31   74   0.092   0.279   0.258
    1UNL    H32   75  -0.097   0.318   0.089
    1UNL    H33   76  -0.043   0.096   0.330
    1UNL    H34   77  -0.210   0.122   0.101
   0.00000   0.00000   0.00000   0.00000   0.00000   0.00000   0.00000   0.00000   0.00000
Generated with MDTraj, t= 31.0
 77
    1UNL     C1    1  -0.319  -0.621  -0.192
    1UNL     O1    2  -0.204  -0.536  -0.178
    1UNL     C2    3  -0.235  -0.413  -0.108
    1UNL     C3    4  -0.250  -0.440   0.045
    1UNL     C4    5  -0.266  -0.308   0.118
    1UNL     C5    6  -0.270  -0.317   0.267
    1UNL     O2    7  -0.383  -0.249   0.063
    1UNL     C6    8  -0.355  -0.215  -0.078
    1UNL     O3    9  -0.359  -0.347  -0.144
    1UNL     C7   10  -0.206  -0.172  -0.082
    1UNL     C8   11  -0.181  -0.045  -0.147
    1UNL     O4   12  -0.253   0.069  -0.087
    1UNL     C9   13  -0.245   0.176  -0.169
    1UNL     O5   14  -0.205   0.179  -0.282
    1UNL    C10   15  -0.295   0.297  -0.103
    1UNL    C11   16  -0.269   0.426  -0.149
    1UNL    C12   17  -0.318   0.537  -0.075
    1UNL    C13   18  -0.401   0.517   0.036
    1UNL    C14   19  -0.425   0.389   0.078
    1UNL    C15   20  -0.375   0.281   0.009
    1UNL    C16   21  -0.129  -0.301  -0.126
    1UNL    C17   22  -0.034  -0.267  -0.001
    1UNL    C18   23  -0.149  -0.204   0.071
    1UNL     O6   24  -0.135  -0.087   0.156
    1UNL    C19   25  -0.008  -0.028   0.162
    1UNL     O7   26   0.060   0.002   0.031
    1UNL    C20   27   0.193   0.052   0.044
    1UNL    C21   28   0.304  -0.058   0.040
    1UNL     O8   29   0.428   0.003   0.053
    1UNL    C22   30   0.451   0.082  -0.054
    1UNL     O9   31   0.376   0.090  -0.148
    1UNL    C23   32   0.587   0.139  -0.066
    1UNL    C24   33   0.690   0.066  -0.010
    1UNL    C25   34   0.816   0.119  -0.051
    1UNL    C26   35   0.828   0.242  -0.122
    1UNL    C27   36   0.721   0.310  -0.167
    1UNL    C28   37   0.599   0.251  -0.145
    1UNL    C29   38   0.214   0.157   0.165
    1UNL    O10   39   0.277   0.106   0.276
    1UNL    C30   40   0.074   0.215   0.205
    1UNL    O11   41   0.031   0.299   0.093
    1UNL    C31   42  -0.029   0.109   0.234
    1UNL    O12   43  -0.160   0.161   0.207
    1UNL     H1   44  -0.384  -0.618  -0.101
    1UNL     H2   45  -0.397  -0.584  -0.265
    1UNL     H3   46  -0.305  -0.723  -0.229
    1UNL     H4   47  -0.155  -0.498   0.066
    1UNL     H5   48  -0.325  -0.512   0.063
    1UNL     H6   49  -0.255  -0.222   0.310
    1UNL     H7   50  -0.363  -0.357   0.296
    1UNL     H8   51  -0.191  -0.382   0.292
    1UNL     H9   52  -0.428  -0.137  -0.117
    1UNL    H10   53  -0.074  -0.019  -0.134
    1UNL    H11   54  -0.201  -0.053  -0.260
    1UNL    H12   55  -0.194   0.449  -0.216
    1UNL    H13   56  -0.297   0.640  -0.099
    1UNL    H14   57  -0.447   0.598   0.088
    1UNL    H15   58  -0.499   0.375   0.147
    1UNL    H16   59  -0.417   0.182   0.025
    1UNL    H17   60  -0.095  -0.299  -0.235
    1UNL    H18   61   0.009  -0.343   0.055
    1UNL    H19   62   0.048  -0.205  -0.040
    1UNL    H20   63   0.068  -0.082   0.224
    1UNL    H21   64   0.212   0.104  -0.050
    1UNL    H22   65   0.304  -0.113  -0.053
    1UNL    H23   66   0.294  -0.124   0.125
    1UNL    H24   67   0.669  -0.024   0.042
    1UNL    H25   68   0.900   0.066  -0.018
    1UNL    H26   69   0.925   0.265  -0.154
    1UNL    H27   70   0.727   0.394  -0.243
    1UNL    H28   71   0.506   0.295  -0.176
    1UNL    H29   72   0.271   0.244   0.124
    1UNL    H30   73   0.355   0.051   0.253
    1UNL    H31   74   0.083   0.282   0.287
    1UNL    H32   75  -0.064   0.315   0.093
    1UNL    H33   76  -0.047   0.085   0.339
    1UNL    H34   77  -0.192   0.113   0.125
   0.00000   0.00000   0.00000   0.00000   0.00000   0.00000   0.00000   0.00000   0.00000
Generated with MDTraj, t= 32.0
 77
    1UNL     C1    1  -0.353  -0.610  -0.195
    1UNL     O1    2  -0.236  -0.537  -0.180
    1UNL     C2    3  -0.240  -0.409  -0.108
    1UNL     C3    4  -0.268  -0.427   0.047
    1UNL     C4    5  -0.266  -0.282   0.117
    1UNL     C5    6  -0.275  -0.297   0.275
    1UNL     O2    7  -0.383  -0.218   0.056
    1UNL     C6    8  -0.341  -0.201  -0.080
    1UNL     O3    9  -0.352  -0.330  -0.154
    1UNL     C7   10  -0.183  -0.176  -0.084
    1UNL     C8   11  -0.145  -0.048  -0.146
    1UNL     O4   12  -0.222   0.060  -0.083
    1UNL     C9   13  -0.239   0.167  -0.167
    1UNL     O5   14  -0.208   0.175  -0.284
    1UNL    C10   15  -0.315   0.277  -0.098
    1UNL    C11   16  -0.307   0.408  -0.156
    1UNL    C12   17  -0.356   0.516  -0.090
    1UNL    C13   18  -0.409   0.496   0.038
    1UNL    C14   19  -0.430   0.374   0.094
    1UNL    C15   20  -0.383   0.262   0.023
    1UNL    C16   21  -0.115  -0.308  -0.121
    1UNL    C17   22  -0.029  -0.282   0.007
    1UNL    C18   23  -0.147  -0.200   0.068
    1UNL     O6   24  -0.125  -0.097   0.162
    1UNL    C19   25  -0.005  -0.027   0.169
    1UNL     O7   26   0.063  -0.015   0.037
    1UNL    C20   27   0.190   0.056   0.049
    1UNL    C21   28   0.304  -0.047   0.033
    1UNL     O8   29   0.433   0.008   0.041
    1UNL    C22   30   0.458   0.096  -0.062
    1UNL     O9   31   0.374   0.117  -0.145
    1UNL    C23   32   0.597   0.146  -0.090
    1UNL    C24   33   0.699   0.085  -0.014
    1UNL    C25   34   0.828   0.133  -0.025
    1UNL    C26   35   0.849   0.240  -0.113
    1UNL    C27   36   0.749   0.289  -0.194
    1UNL    C28   37   0.619   0.240  -0.184
    1UNL    C29   38   0.208   0.143   0.184
    1UNL    O10   39   0.244   0.066   0.293
    1UNL    C30   40   0.073   0.215   0.220
    1UNL    O11   41   0.042   0.320   0.129
    1UNL    C31   42  -0.045   0.117   0.222
    1UNL    O12   43  -0.160   0.170   0.167
    1UNL     H1   44  -0.346  -0.709  -0.153
    1UNL     H2   45  -0.435  -0.573  -0.130
    1UNL     H3   46  -0.394  -0.614  -0.294
    1UNL     H4   47  -0.202  -0.511   0.078
    1UNL     H5   48  -0.365  -0.473   0.047
    1UNL     H6   49  -0.294  -0.200   0.312
    1UNL     H7   50  -0.358  -0.354   0.306
    1UNL     H8   51  -0.186  -0.331   0.322
    1UNL     H9   52  -0.400  -0.113  -0.121
    1UNL    H10   53  -0.040  -0.030  -0.144
    1UNL    H11   54  -0.169  -0.048  -0.256
    1UNL    H12   55  -0.245   0.416  -0.249
    1UNL    H13   56  -0.331   0.619  -0.110
    1UNL    H14   57  -0.441   0.579   0.100
    1UNL    H15   58  -0.499   0.342   0.178
    1UNL    H16   59  -0.413   0.159   0.052
    1UNL    H17   60  -0.059  -0.308  -0.220
    1UNL    H18   61   0.000  -0.369   0.053
    1UNL    H19   62   0.066  -0.228  -0.013
    1UNL    H20   63   0.068  -0.079   0.236
    1UNL    H21   64   0.195   0.111  -0.043
    1UNL    H22   65   0.296  -0.100  -0.063
    1UNL    H23   66   0.293  -0.115   0.122
    1UNL    H24   67   0.674   0.023   0.075
    1UNL    H25   68   0.908   0.087   0.033
    1UNL    H26   69   0.951   0.276  -0.130
    1UNL    H27   70   0.761   0.365  -0.264
    1UNL    H28   71   0.536   0.287  -0.246
    1UNL    H29   72   0.287   0.211   0.156
    1UNL    H30   73   0.334   0.027   0.295
    1UNL    H31   74   0.089   0.260   0.314
    1UNL    H32   75  -0.025   0.284   0.062
    1UNL    H33   76  -0.074   0.094   0.324
    1UNL    H34   77  -0.184   0.110   0.090
   0.00000   0.00000   0.00000   0.00000   0.00000   0.00000   0.00000   0.00000   0.00000
Generated with MDTraj, t= 33.0
 77
    1UNL     C1    1  -0.331  -0.579  -0.241
    1UNL     O1    2  -0.227  -0.536  -0.168
    1UNL     C2    3  -0.238  -0.413  -0.090
    1UNL     C3    4  -0.276  -0.431   0.061
    1UNL     C4    5  -0.284  -0.293   0.124
    1UNL     C5    6  -0.322  -0.293   0.274
    1UNL     O2    7  -0.389  -0.220   0.047
    1UNL     C6    8  -0.344  -0.210  -0.082
    1UNL     O3    9  -0.348  -0.333  -0.148
    1UNL     C7   10  -0.190  -0.173  -0.070
    1UNL     C8   11  -0.151  -0.046  -0.140
    1UNL     O4   12  -0.213   0.067  -0.073
    1UNL     C9   13  -0.243   0.172  -0.165
    1UNL     O5   14  -0.216   0.165  -0.284
    1UNL    C10   15  -0.316   0.286  -0.095
    1UNL    C11   16  -0.321   0.413  -0.158
    1UNL    C12   17  -0.390   0.515  -0.106
    1UNL    C13   18  -0.453   0.489   0.021
    1UNL    C14   19  -0.453   0.365   0.085
    1UNL    C15   20  -0.382   0.261   0.022
    1UNL    C16   21  -0.109  -0.308  -0.100
    1UNL    C17   22  -0.036  -0.276   0.034
    1UNL    C18   23  -0.157  -0.197   0.087
    1UNL     O6   24  -0.132  -0.091   0.172
    1UNL    C19   25  -0.002  -0.029   0.167
    1UNL     O7   26   0.054   0.001   0.033
    1UNL    C20   27   0.189   0.062   0.043
    1UNL    C21   28   0.295  -0.038  -0.001
    1UNL     O8   29   0.424   0.013   0.027
    1UNL    C22   30   0.458   0.104  -0.073
    1UNL     O9   31   0.382   0.128  -0.164
    1UNL    C23   32   0.602   0.152  -0.089
    1UNL    C24   33   0.699   0.117   0.003
    1UNL    C25   34   0.830   0.159  -0.002
    1UNL    C26   35   0.868   0.233  -0.112
    1UNL    C27   36   0.776   0.262  -0.209
    1UNL    C28   37   0.641   0.226  -0.197
    1UNL    C29   38   0.219   0.120   0.187
    1UNL    O10   39   0.256   0.018   0.277
    1UNL    C30   40   0.098   0.207   0.231
    1UNL    O11   41   0.073   0.301   0.129
    1UNL    C31   42  -0.027   0.110   0.240
    1UNL    O12   43  -0.133   0.174   0.177
    1UNL     H1   44  -0.310  -0.650  -0.317
    1UNL     H2   45  -0.390  -0.641  -0.172
    1UNL     H3   46  -0.389  -0.497  -0.278
    1UNL     H4   47  -0.207  -0.503   0.103
    1UNL     H5   48  -0.379  -0.473   0.052
    1UNL     H6   49  -0.327  -0.190   0.298
    1UNL     H7   50  -0.415  -0.336   0.302
    1UNL     H8   51  -0.250  -0.336   0.337
    1UNL     H9   52  -0.412  -0.135  -0.130
    1UNL    H10   53  -0.047  -0.028  -0.144
    1UNL    H11   54  -0.180  -0.048  -0.244
    1UNL    H12   55  -0.257   0.429  -0.241
    1UNL    H13   56  -0.378   0.620  -0.138
    1UNL    H14   57  -0.503   0.568   0.079
    1UNL    H15   58  -0.526   0.346   0.159
    1UNL    H16   59  -0.379   0.163   0.061
    1UNL    H17   60  -0.050  -0.289  -0.196
    1UNL    H18   61  -0.003  -0.363   0.085
    1UNL    H19   62   0.048  -0.210   0.010
    1UNL    H20   63   0.075  -0.097   0.211
    1UNL    H21   64   0.166   0.139  -0.023
    1UNL    H22   65   0.285  -0.052  -0.111
    1UNL    H23   66   0.282  -0.133   0.058
    1UNL    H24   67   0.666   0.080   0.095
    1UNL    H25   68   0.908   0.136   0.072
    1UNL    H26   69   0.969   0.263  -0.136
    1UNL    H27   70   0.808   0.317  -0.301
    1UNL    H28   71   0.571   0.260  -0.262
    1UNL    H29   72   0.301   0.186   0.170
    1UNL    H30   73   0.340  -0.033   0.255
    1UNL    H31   74   0.119   0.258   0.322
    1UNL    H32   75  -0.019   0.331   0.146
    1UNL    H33   76  -0.056   0.098   0.344
    1UNL    H34   77  -0.154   0.140   0.088
   0.00000   0.00000   0.00000   0.00000   0.00000   0.00000   0.00000   0.00000   0.00000
Generated with MDTraj, t= 34.0
 77
    1UNL     C1    1  -0.266  -0.576  -0.263
    1UNL     O1    2  -0.195  -0.529  -0.145
    1UNL     C2    3  -0.239  -0.401  -0.090
    1UNL     C3    4  -0.272  -0.421   0.062
    1UNL     C4    5  -0.287  -0.281   0.120
    1UNL     C5    6  -0.308  -0.282   0.269
    1UNL     O2    7  -0.395  -0.216   0.055
    1UNL     C6    8  -0.352  -0.201  -0.080
    1UNL     O3    9  -0.353  -0.327  -0.145
    1UNL     C7   10  -0.200  -0.162  -0.068
    1UNL     C8   11  -0.164  -0.033  -0.123
    1UNL     O4   12  -0.227   0.080  -0.057
    1UNL     C9   13  -0.258   0.177  -0.154
    1UNL     O5   14  -0.209   0.164  -0.265
    1UNL    C10   15  -0.342   0.288  -0.105
    1UNL    C11   16  -0.341   0.407  -0.174
    1UNL    C12   17  -0.413   0.512  -0.124
    1UNL    C13   18  -0.488   0.495  -0.005
    1UNL    C14   19  -0.479   0.374   0.065
    1UNL    C15   20  -0.406   0.273   0.018
    1UNL    C16   21  -0.121  -0.296  -0.099
    1UNL    C17   22  -0.045  -0.275   0.024
    1UNL    C18   23  -0.164  -0.187   0.085
    1UNL     O6   24  -0.142  -0.076   0.170
    1UNL    C19   25  -0.008  -0.034   0.179
    1UNL     O7   26   0.059  -0.029   0.054
    1UNL    C20   27   0.186   0.043   0.035
    1UNL    C21   28   0.293  -0.049  -0.029
    1UNL     O8   29   0.428  -0.005  -0.011
    1UNL    C22   30   0.450   0.099  -0.100
    1UNL     O9   31   0.365   0.137  -0.181
    1UNL    C23   32   0.595   0.141  -0.097
    1UNL    C24   33   0.672   0.135   0.018
    1UNL    C25   34   0.803   0.181   0.020
    1UNL    C26   35   0.868   0.228  -0.090
    1UNL    C27   36   0.797   0.243  -0.205
    1UNL    C28   37   0.668   0.206  -0.206
    1UNL    C29   38   0.238   0.096   0.175
    1UNL    O10   39   0.283   0.000   0.271
    1UNL    C30   40   0.129   0.186   0.235
    1UNL    O11   41   0.102   0.306   0.172
    1UNL    C31   42  -0.007   0.103   0.247
    1UNL    O12   43  -0.113   0.177   0.196
    1UNL     H1   44  -0.212  -0.622  -0.344
    1UNL     H2   45  -0.332  -0.656  -0.229
    1UNL     H3   46  -0.332  -0.496  -0.291
    1UNL     H4   47  -0.192  -0.474   0.106
    1UNL     H5   48  -0.372  -0.475   0.070
    1UNL     H6   49  -0.309  -0.186   0.312
    1UNL     H7   50  -0.401  -0.325   0.300
    1UNL     H8   51  -0.237  -0.342   0.320
    1UNL     H9   52  -0.409  -0.124  -0.135
    1UNL    H10   53  -0.063  -0.025  -0.094
    1UNL    H11   54  -0.176  -0.032  -0.227
    1UNL    H12   55  -0.265   0.421  -0.251
    1UNL    H13   56  -0.398   0.604  -0.173
    1UNL    H14   57  -0.550   0.579   0.014
    1UNL    H15   58  -0.537   0.359   0.155
    1UNL    H16   59  -0.406   0.167   0.046
    1UNL    H17   60  -0.065  -0.295  -0.198
    1UNL    H18   61  -0.025  -0.360   0.089
    1UNL    H19   62   0.038  -0.215   0.014
    1UNL    H20   63   0.047  -0.113   0.233
    1UNL    H21   64   0.165   0.125  -0.026
    1UNL    H22   65   0.285  -0.057  -0.140
    1UNL    H23   66   0.291  -0.151   0.017
    1UNL    H24   67   0.631   0.087   0.110
    1UNL    H25   68   0.851   0.181   0.112
    1UNL    H26   69   0.975   0.229  -0.091
    1UNL    H27   70   0.841   0.266  -0.297
    1UNL    H28   71   0.598   0.233  -0.290
    1UNL    H29   72   0.317   0.158   0.140
    1UNL    H30   73   0.334  -0.074   0.229
    1UNL    H31   74   0.159   0.210   0.336
    1UNL    H32   75   0.006   0.325   0.179
    1UNL    H33   76  -0.027   0.100   0.355
    1UNL    H34   77  -0.149   0.127   0.121
   0.00000   0.00000   0.00000   0.00000   0.00000   0.00000   0.00000   0.00000   0.00000
Generated with MDTraj, t= 35.0
 77
    1UNL     C1    1  -0.251  -0.525  -0.283
    1UNL     O1    2  -0.200  -0.526  -0.147
    1UNL     C2    3  -0.223  -0.409  -0.084
    1UNL     C3    4  -0.252  -0.428   0.076
    1UNL     C4    5  -0.273  -0.285   0.136
    1UNL     C5    6  -0.300  -0.285   0.286
    1UNL     O2    7  -0.385  -0.225   0.065
    1UNL     C6    8  -0.338  -0.202  -0.074
    1UNL     O3    9  -0.340  -0.339  -0.131
    1UNL     C7   10  -0.187  -0.165  -0.062
    1UNL     C8   11  -0.165  -0.024  -0.127
    1UNL     O4   12  -0.248   0.078  -0.070
    1UNL     C9   13  -0.271   0.190  -0.153
    1UNL     O5   14  -0.214   0.192  -0.260
    1UNL    C10   15  -0.357   0.302  -0.108
    1UNL    C11   16  -0.363   0.412  -0.182
    1UNL    C12   17  -0.446   0.516  -0.142
    1UNL    C13   18  -0.527   0.512  -0.034
    1UNL    C14   19  -0.505   0.397   0.055
    1UNL    C15   20  -0.426   0.295   0.015
    1UNL    C16   21  -0.108  -0.300  -0.100
    1UNL    C17   22  -0.033  -0.288   0.040
    1UNL    C18   23  -0.150  -0.197   0.089
    1UNL     O6   24  -0.122  -0.089   0.179
    1UNL    C19   25   0.006  -0.032   0.170
    1UNL     O7   26   0.049  -0.001   0.034
    1UNL    C20   27   0.186   0.041   0.028
    1UNL    C21   28   0.278  -0.056  -0.043
    1UNL     O8   29   0.414  -0.022  -0.015
    1UNL    C22   30   0.442   0.082  -0.100
    1UNL     O9   31   0.367   0.122  -0.187
    1UNL    C23   32   0.587   0.132  -0.098
    1UNL    C24   33   0.650   0.135   0.025
    1UNL    C25   34   0.774   0.194   0.040
    1UNL    C26   35   0.845   0.239  -0.067
    1UNL    C27   36   0.786   0.221  -0.193
    1UNL    C28   37   0.662   0.174  -0.210
    1UNL    C29   38   0.242   0.081   0.173
    1UNL    O10   39   0.282  -0.033   0.242
    1UNL    C30   40   0.147   0.173   0.258
    1UNL    O11   41   0.150   0.306   0.220
    1UNL    C31   42   0.005   0.108   0.242
    1UNL    O12   43  -0.078   0.193   0.166
    1UNL     H1   44  -0.257  -0.626  -0.330
    1UNL     H2   45  -0.348  -0.469  -0.284
    1UNL     H3   46  -0.182  -0.459  -0.336
    1UNL     H4   47  -0.177  -0.481   0.129
    1UNL     H5   48  -0.351  -0.483   0.067
    1UNL     H6   49  -0.332  -0.193   0.329
    1UNL     H7   50  -0.383  -0.351   0.302
    1UNL     H8   51  -0.223  -0.330   0.343
    1UNL     H9   52  -0.396  -0.136  -0.140
    1UNL    H10   53  -0.064   0.007  -0.126
    1UNL    H11   54  -0.198  -0.038  -0.225
    1UNL    H12   55  -0.297   0.418  -0.265
    1UNL    H13   56  -0.437   0.610  -0.202
    1UNL    H14   57  -0.597   0.591  -0.012
    1UNL    H15   58  -0.576   0.383   0.138
    1UNL    H16   59  -0.424   0.196   0.059
    1UNL    H17   60  -0.050  -0.298  -0.198
    1UNL    H18   61  -0.011  -0.371   0.108
    1UNL    H19   62   0.058  -0.236   0.045
    1UNL    H20   63   0.072  -0.107   0.214
    1UNL    H21   64   0.195   0.136  -0.020
    1UNL    H22   65   0.263  -0.055  -0.151
    1UNL    H23   66   0.272  -0.160  -0.007
    1UNL    H24   67   0.601   0.108   0.112
    1UNL    H25   68   0.831   0.193   0.139
    1UNL    H26   69   0.947   0.279  -0.052
    1UNL    H27   70   0.862   0.243  -0.270
    1UNL    H28   71   0.611   0.180  -0.303
    1UNL    H29   72   0.327   0.147   0.163
    1UNL    H30   73   0.348  -0.084   0.193
    1UNL    H31   74   0.190   0.164   0.359
    1UNL    H32   75   0.106   0.325   0.133
    1UNL    H33   76  -0.042   0.095   0.342
    1UNL    H34   77  -0.131   0.133   0.108
   0.00000   0.00000   0.00000   0.00000   0.00000   0.00000   0.00000   0.00000   0.00000
Generated with MDTraj, t= 36.0
 77
    1UNL     C1    1  -0.200  -0.478  -0.296
    1UNL     O1    2  -0.194  -0.506  -0.164
    1UNL     C2    3  -0.240  -0.396  -0.093
    1UNL     C3    4  -0.252  -0.426   0.068
    1UNL     C4    5  -0.266  -0.293   0.143
    1UNL     C5    6  -0.253  -0.311   0.299
    1UNL     O2    7  -0.386  -0.233   0.100
    1UNL     C6    8  -0.365  -0.200  -0.046
    1UNL     O3    9  -0.367  -0.332  -0.116
    1UNL     C7   10  -0.220  -0.153  -0.048
    1UNL     C8   11  -0.184  -0.020  -0.114
    1UNL     O4   12  -0.249   0.077  -0.051
    1UNL     C9   13  -0.260   0.179  -0.142
    1UNL     O5   14  -0.203   0.187  -0.251
    1UNL    C10   15  -0.356   0.287  -0.110
    1UNL    C11   16  -0.377   0.394  -0.196
    1UNL    C12   17  -0.465   0.493  -0.169
    1UNL    C13   18  -0.532   0.494  -0.051
    1UNL    C14   19  -0.516   0.387   0.045
    1UNL    C15   20  -0.426   0.284   0.010
    1UNL    C16   21  -0.138  -0.278  -0.102
    1UNL    C17   22  -0.032  -0.254   0.014
    1UNL    C18   23  -0.153  -0.190   0.093
    1UNL     O6   24  -0.131  -0.071   0.175
    1UNL    C19   25  -0.004  -0.019   0.158
    1UNL     O7   26   0.048  -0.008   0.028
    1UNL    C20   27   0.187   0.040   0.027
    1UNL    C21   28   0.269  -0.058  -0.047
    1UNL     O8   29   0.410  -0.038  -0.030
    1UNL    C22   30   0.449   0.067  -0.108
    1UNL     O9   31   0.379   0.102  -0.201
    1UNL    C23   32   0.579   0.127  -0.093
    1UNL    C24   33   0.642   0.136   0.038
    1UNL    C25   34   0.761   0.194   0.056
    1UNL    C26   35   0.826   0.244  -0.051
    1UNL    C27   36   0.781   0.215  -0.178
    1UNL    C28   37   0.654   0.167  -0.203
    1UNL    C29   38   0.253   0.074   0.171
    1UNL    O10   39   0.301  -0.036   0.243
    1UNL    C30   40   0.154   0.153   0.266
    1UNL    O11   41   0.185   0.289   0.261
    1UNL    C31   42   0.006   0.125   0.213
    1UNL    O12   43  -0.043   0.227   0.125
    1UNL     H1   44  -0.198  -0.575  -0.352
    1UNL     H2   45  -0.286  -0.406  -0.313
    1UNL     H3   46  -0.106  -0.424  -0.322
    1UNL     H4   47  -0.163  -0.476   0.106
    1UNL     H5   48  -0.345  -0.485   0.071
    1UNL     H6   49  -0.267  -0.217   0.349
    1UNL     H7   50  -0.325  -0.376   0.343
    1UNL     H8   51  -0.156  -0.353   0.317
    1UNL     H9   52  -0.436  -0.130  -0.089
    1UNL    H10   53  -0.079   0.001  -0.107
    1UNL    H11   54  -0.214  -0.015  -0.216
    1UNL    H12   55  -0.317   0.391  -0.288
    1UNL    H13   56  -0.454   0.579  -0.232
    1UNL    H14   57  -0.588   0.579  -0.008
    1UNL    H15   58  -0.588   0.381   0.124
    1UNL    H16   59  -0.426   0.195   0.071
    1UNL    H17   60  -0.087  -0.271  -0.201
    1UNL    H18   61   0.004  -0.346   0.047
    1UNL    H19   62   0.040  -0.171  -0.012
    1UNL    H20   63   0.064  -0.079   0.217
    1UNL    H21   64   0.187   0.138  -0.025
    1UNL    H22   65   0.247  -0.056  -0.150
    1UNL    H23   66   0.244  -0.158  -0.011
    1UNL    H24   67   0.578   0.108   0.124
    1UNL    H25   68   0.800   0.194   0.149
    1UNL    H26   69   0.921   0.291  -0.047
    1UNL    H27   70   0.833   0.256  -0.262
    1UNL    H28   71   0.619   0.148  -0.305
    1UNL    H29   72   0.332   0.146   0.146
    1UNL    H30   73   0.362  -0.090   0.183
    1UNL    H31   74   0.172   0.116   0.371
    1UNL    H32   75   0.154   0.328   0.178
    1UNL    H33   76  -0.067   0.131   0.297
    1UNL    H34   77  -0.118   0.197   0.066
   0.00000   0.00000   0.00000   0.00000   0.00000   0.00000   0.00000   0.00000   0.00000
Generated with MDTraj, t= 37.0
 77
    1UNL     C1    1  -0.232  -0.479  -0.302
    1UNL     O1    2  -0.209  -0.510  -0.161
    1UNL     C2    3  -0.243  -0.398  -0.082
    1UNL     C3    4  -0.251  -0.431   0.072
    1UNL     C4    5  -0.258  -0.298   0.145
    1UNL     C5    6  -0.248  -0.316   0.302
    1UNL     O2    7  -0.388  -0.239   0.106
    1UNL     C6    8  -0.365  -0.214  -0.034
    1UNL     O3    9  -0.366  -0.328  -0.110
    1UNL     C7   10  -0.213  -0.153  -0.049
    1UNL     C8   11  -0.181  -0.008  -0.107
    1UNL     O4   12  -0.263   0.091  -0.065
    1UNL     C9   13  -0.269   0.194  -0.151
    1UNL     O5   14  -0.219   0.199  -0.261
    1UNL    C10   15  -0.355   0.312  -0.113
    1UNL    C11   16  -0.393   0.412  -0.204
    1UNL    C12   17  -0.497   0.501  -0.176
    1UNL    C13   18  -0.561   0.495  -0.051
    1UNL    C14   19  -0.529   0.396   0.035
    1UNL    C15   20  -0.422   0.307   0.008
    1UNL    C16   21  -0.136  -0.280  -0.101
    1UNL    C17   22  -0.033  -0.260   0.013
    1UNL    C18   23  -0.147  -0.192   0.088
    1UNL     O6   24  -0.121  -0.083   0.179
    1UNL    C19   25   0.006  -0.029   0.169
    1UNL     O7   26   0.071  -0.031   0.039
    1UNL    C20   27   0.203   0.034   0.025
    1UNL    C21   28   0.293  -0.070  -0.055
    1UNL     O8   29   0.420  -0.028  -0.028
    1UNL    C22   30   0.458   0.063  -0.119
    1UNL     O9   31   0.386   0.089  -0.215
    1UNL    C23   32   0.594   0.120  -0.088
    1UNL    C24   33   0.642   0.125   0.041
    1UNL    C25   34   0.762   0.187   0.061
    1UNL    C26   35   0.839   0.240  -0.042
    1UNL    C27   36   0.785   0.249  -0.168
    1UNL    C28   37   0.668   0.174  -0.188
    1UNL    C29   38   0.259   0.079   0.171
    1UNL    O10   39   0.309  -0.030   0.246
    1UNL    C30   40   0.151   0.151   0.257
    1UNL    O11   41   0.175   0.284   0.259
    1UNL    C31   42   0.004   0.121   0.216
    1UNL    O12   43  -0.040   0.212   0.113
    1UNL     H1   44  -0.291  -0.563  -0.343
    1UNL     H2   45  -0.280  -0.379  -0.306
    1UNL     H3   46  -0.137  -0.471  -0.356
    1UNL     H4   47  -0.167  -0.499   0.108
    1UNL     H5   48  -0.346  -0.478   0.085
    1UNL     H6   49  -0.255  -0.223   0.354
    1UNL     H7   50  -0.325  -0.377   0.345
    1UNL     H8   51  -0.155  -0.369   0.315
    1UNL     H9   52  -0.445  -0.154  -0.073
    1UNL    H10   53  -0.080   0.030  -0.095
    1UNL    H11   54  -0.201  -0.005  -0.213
    1UNL    H12   55  -0.329   0.423  -0.289
    1UNL    H13   56  -0.518   0.584  -0.242
    1UNL    H14   57  -0.625   0.573  -0.035
    1UNL    H15   58  -0.587   0.377   0.124
    1UNL    H16   59  -0.416   0.217   0.068
    1UNL    H17   60  -0.104  -0.276  -0.209
    1UNL    H18   61  -0.009  -0.355   0.048
    1UNL    H19   62   0.053  -0.193  -0.009
    1UNL    H20   63   0.065  -0.080   0.243
    1UNL    H21   64   0.179   0.120  -0.046
    1UNL    H22   65   0.266  -0.079  -0.157
    1UNL    H23   66   0.285  -0.172  -0.016
    1UNL    H24   67   0.588   0.082   0.120
    1UNL    H25   68   0.811   0.207   0.161
    1UNL    H26   69   0.937   0.282  -0.020
    1UNL    H27   70   0.835   0.302  -0.246
    1UNL    H28   71   0.624   0.187  -0.285
    1UNL    H29   72   0.340   0.155   0.153
    1UNL    H30   73   0.362  -0.084   0.188
    1UNL    H31   74   0.158   0.102   0.360
    1UNL    H32   75   0.140   0.328   0.175
    1UNL    H33   76  -0.069   0.141   0.299
    1UNL    H34   77  -0.120   0.183   0.064
   0.00000   0.00000   0.00000   0.00000   0.00000   0.00000   0.00000   0.00000   0.00000
Generated with MDTraj, t= 38.0
 77
    1UNL     C1    1  -0.326  -0.518  -0.286
    1UNL     O1    2  -0.229  -0.509  -0.172
    1UNL     C2    3  -0.252  -0.394  -0.092
    1UNL     C3    4  -0.262  -0.426   0.062
    1UNL     C4    5  -0.267  -0.285   0.140
    1UNL     C5    6  -0.270  -0.302   0.292
    1UNL     O2    7  -0.385  -0.215   0.089
    1UNL     C6    8  -0.359  -0.201  -0.049
    1UNL     O3    9  -0.370  -0.315  -0.135
    1UNL     C7   10  -0.206  -0.156  -0.050
    1UNL     C8   11  -0.177  -0.016  -0.107
    1UNL     O4   12  -0.260   0.080  -0.055
    1UNL     C9   13  -0.287   0.175  -0.139
    1UNL     O5   14  -0.227   0.188  -0.241
    1UNL    C10   15  -0.384   0.280  -0.106
    1UNL    C11   16  -0.414   0.370  -0.207
    1UNL    C12   17  -0.488   0.486  -0.179
    1UNL    C13   18  -0.542   0.506  -0.049
    1UNL    C14   19  -0.527   0.409   0.040
    1UNL    C15   20  -0.452   0.293   0.015
    1UNL    C16   21  -0.131  -0.280  -0.105
    1UNL    C17   22  -0.037  -0.276   0.018
    1UNL    C18   23  -0.143  -0.192   0.087
    1UNL     O6   24  -0.109  -0.089   0.179
    1UNL    C19   25   0.022  -0.035   0.162
    1UNL     O7   26   0.079  -0.021   0.029
    1UNL    C20   27   0.206   0.046   0.020
    1UNL    C21   28   0.309  -0.051  -0.037
    1UNL     O8   29   0.438  -0.016  -0.008
    1UNL    C22   30   0.483   0.062  -0.107
    1UNL     O9   31   0.413   0.084  -0.207
    1UNL    C23   32   0.614   0.125  -0.083
    1UNL    C24   33   0.675   0.121   0.041
    1UNL    C25   34   0.801   0.175   0.062
    1UNL    C26   35   0.854   0.258  -0.039
    1UNL    C27   36   0.791   0.274  -0.156
    1UNL    C28   37   0.673   0.204  -0.183
    1UNL    C29   38   0.262   0.083   0.160
    1UNL    O10   39   0.307  -0.029   0.233
    1UNL    C30   40   0.164   0.170   0.248
    1UNL    O11   41   0.159   0.304   0.209
    1UNL    C31   42   0.019   0.103   0.232
    1UNL    O12   43  -0.063   0.190   0.150
    1UNL     H1   44  -0.417  -0.560  -0.247
    1UNL     H2   45  -0.332  -0.418  -0.326
    1UNL     H3   46  -0.293  -0.591  -0.357
    1UNL     H4   47  -0.168  -0.487   0.091
    1UNL     H5   48  -0.349  -0.483   0.078
    1UNL     H6   49  -0.289  -0.202   0.329
    1UNL     H7   50  -0.362  -0.349   0.323
    1UNL     H8   51  -0.185  -0.353   0.334
    1UNL     H9   52  -0.418  -0.122  -0.089
    1UNL    H10   53  -0.074   0.027  -0.094
    1UNL    H11   54  -0.195  -0.008  -0.215
    1UNL    H12   55  -0.355   0.365  -0.298
    1UNL    H13   56  -0.497   0.566  -0.251
    1UNL    H14   57  -0.608   0.597  -0.042
    1UNL    H15   58  -0.588   0.414   0.132
    1UNL    H16   59  -0.455   0.219   0.095
    1UNL    H17   60  -0.102  -0.273  -0.212
    1UNL    H18   61  -0.003  -0.372   0.054
    1UNL    H19   62   0.053  -0.223   0.003
    1UNL    H20   63   0.087  -0.096   0.224
    1UNL    H21   64   0.182   0.132  -0.054
    1UNL    H22   65   0.299  -0.072  -0.142
    1UNL    H23   66   0.285  -0.148   0.011
    1UNL    H24   67   0.635   0.055   0.117
    1UNL    H25   68   0.845   0.152   0.157
    1UNL    H26   69   0.949   0.301  -0.012
    1UNL    H27   70   0.834   0.334  -0.240
    1UNL    H28   71   0.623   0.216  -0.280
    1UNL    H29   72   0.348   0.156   0.144
    1UNL    H30   73   0.391  -0.076   0.201
    1UNL    H31   74   0.204   0.160   0.355
    1UNL    H32   75   0.107   0.320   0.130
    1UNL    H33   76  -0.043   0.101   0.326
    1UNL    H34   77  -0.132   0.139   0.101
   0.00000   0.00000   0.00000   0.00000   0.00000   0.00000   0.00000   0.00000   0.00000
Generated with MDTraj, t= 39.0
 77
    1UNL     C1    1  -0.381  -0.550  -0.250
    1UNL     O1    2  -0.265  -0.512  -0.178
    1UNL     C2    3  -0.262  -0.388  -0.099
    1UNL     C3    4  -0.278  -0.421   0.055
    1UNL     C4    5  -0.274  -0.285   0.138
    1UNL     C5    6  -0.270  -0.309   0.282
    1UNL     O2    7  -0.384  -0.207   0.092
    1UNL     C6    8  -0.360  -0.181  -0.046
    1UNL     O3    9  -0.378  -0.304  -0.132
    1UNL     C7   10  -0.206  -0.153  -0.061
    1UNL     C8   11  -0.166  -0.015  -0.121
    1UNL     O4   12  -0.240   0.089  -0.061
    1UNL     C9   13  -0.279   0.173  -0.152
    1UNL     O5   14  -0.250   0.163  -0.266
    1UNL    C10   15  -0.367   0.283  -0.110
    1UNL    C11   16  -0.406   0.385  -0.200
    1UNL    C12   17  -0.505   0.478  -0.165
    1UNL    C13   18  -0.559   0.475  -0.039
    1UNL    C14   19  -0.513   0.388   0.053
    1UNL    C15   20  -0.419   0.291   0.019
    1UNL    C16   21  -0.136  -0.283  -0.108
    1UNL    C17   22  -0.039  -0.284   0.010
    1UNL    C18   23  -0.150  -0.200   0.081
    1UNL     O6   24  -0.113  -0.092   0.167
    1UNL    C19   25   0.019  -0.035   0.163
    1UNL     O7   26   0.081  -0.025   0.032
    1UNL    C20   27   0.210   0.040   0.031
    1UNL    C21   28   0.317  -0.054  -0.027
    1UNL     O8   29   0.454  -0.028  -0.007
    1UNL    C22   30   0.504   0.066  -0.101
    1UNL     O9   31   0.439   0.105  -0.198
    1UNL    C23   32   0.635   0.140  -0.084
    1UNL    C24   33   0.710   0.107   0.025
    1UNL    C25   34   0.836   0.163   0.053
    1UNL    C26   35   0.877   0.266  -0.029
    1UNL    C27   36   0.801   0.296  -0.143
    1UNL    C28   37   0.676   0.236  -0.173
    1UNL    C29   38   0.260   0.092   0.175
    1UNL    O10   39   0.302  -0.018   0.252
    1UNL    C30   40   0.148   0.185   0.232
    1UNL    O11   41   0.135   0.299   0.157
    1UNL    C31   42   0.010   0.105   0.231
    1UNL    O12   43  -0.085   0.186   0.174
    1UNL     H1   44  -0.470  -0.543  -0.191
    1UNL     H2   45  -0.375  -0.494  -0.342
    1UNL     H3   46  -0.364  -0.656  -0.258
    1UNL     H4   47  -0.178  -0.465   0.083
    1UNL     H5   48  -0.355  -0.495   0.067
    1UNL     H6   49  -0.273  -0.209   0.323
    1UNL     H7   50  -0.361  -0.353   0.322
    1UNL     H8   51  -0.181  -0.362   0.312
    1UNL     H9   52  -0.424  -0.095  -0.068
    1UNL    H10   53  -0.058   0.016  -0.103
    1UNL    H11   54  -0.182  -0.004  -0.232
    1UNL    H12   55  -0.362   0.378  -0.297
    1UNL    H13   56  -0.515   0.564  -0.231
    1UNL    H14   57  -0.644   0.536  -0.007
    1UNL    H15   58  -0.563   0.383   0.147
    1UNL    H16   59  -0.400   0.218   0.093
    1UNL    H17   60  -0.095  -0.280  -0.212
    1UNL    H18   61  -0.003  -0.374   0.065
    1UNL    H19   62   0.034  -0.212  -0.011
    1UNL    H20   63   0.078  -0.102   0.226
    1UNL    H21   64   0.206   0.125  -0.049
    1UNL    H22   65   0.302  -0.062  -0.136
    1UNL    H23   66   0.305  -0.160   0.010
    1UNL    H24   67   0.666   0.032   0.091
    1UNL    H25   68   0.895   0.115   0.126
    1UNL    H26   69   0.968   0.316  -0.002
    1UNL    H27   70   0.838   0.374  -0.198
    1UNL    H28   71   0.628   0.253  -0.267
    1UNL    H29   72   0.345   0.168   0.157
    1UNL    H30   73   0.371  -0.061   0.197
    1UNL    H31   74   0.174   0.216   0.338
    1UNL    H32   75   0.042   0.339   0.156
    1UNL    H33   76  -0.028   0.092   0.335
    1UNL    H34   77  -0.134   0.138   0.102
   0.00000   0.00000   0.00000   0.00000   0.00000   0.00000   0.00000   0.00000   0.00000
Generated with MDTraj, t= 40.0
 77
    1UNL     C1    1  -0.393  -0.564  -0.187
    1UNL     O1    2  -0.272  -0.501  -0.186
    1UNL     C2    3  -0.272  -0.380  -0.097
    1UNL     C3    4  -0.266  -0.412   0.055
    1UNL     C4    5  -0.262  -0.276   0.132
    1UNL     C5    6  -0.263  -0.286   0.278
    1UNL     O2    7  -0.378  -0.194   0.099
    1UNL     C6    8  -0.359  -0.169  -0.050
    1UNL     O3    9  -0.387  -0.290  -0.126
    1UNL     C7   10  -0.202  -0.143  -0.068
    1UNL     C8   11  -0.154  -0.016  -0.146
    1UNL     O4   12  -0.214   0.100  -0.080
    1UNL     C9   13  -0.271   0.175  -0.175
    1UNL     O5   14  -0.259   0.159  -0.292
    1UNL    C10   15  -0.371   0.273  -0.122
    1UNL    C11   16  -0.422   0.376  -0.197
    1UNL    C12   17  -0.511   0.467  -0.137
    1UNL    C13   18  -0.547   0.452  -0.008
    1UNL    C14   19  -0.479   0.356   0.069
    1UNL    C15   20  -0.395   0.269   0.012
    1UNL    C16   21  -0.151  -0.278  -0.126
    1UNL    C17   22  -0.035  -0.276  -0.015
    1UNL    C18   23  -0.137  -0.193   0.071
    1UNL     O6   24  -0.105  -0.093   0.166
    1UNL    C19   25   0.019  -0.039   0.158
    1UNL     O7   26   0.085  -0.024   0.028
    1UNL    C20   27   0.218   0.031   0.029
    1UNL    C21   28   0.327  -0.062  -0.014
    1UNL     O8   29   0.453  -0.012   0.016
    1UNL    C22   30   0.493   0.080  -0.079
    1UNL     O9   31   0.430   0.113  -0.178
    1UNL    C23   32   0.623   0.151  -0.061
    1UNL    C24   33   0.709   0.086   0.023
    1UNL    C25   34   0.838   0.137   0.032
    1UNL    C26   35   0.887   0.242  -0.040
    1UNL    C27   36   0.796   0.309  -0.130
    1UNL    C28   37   0.668   0.256  -0.138
    1UNL    C29   38   0.256   0.094   0.164
    1UNL    O10   39   0.282  -0.002   0.259
    1UNL    C30   40   0.142   0.187   0.211
    1UNL    O11   41   0.118   0.289   0.126
    1UNL    C31   42   0.005   0.098   0.224
    1UNL    O12   43  -0.103   0.170   0.178
    1UNL     H1   44  -0.399  -0.646  -0.115
    1UNL     H2   45  -0.465  -0.480  -0.183
    1UNL     H3   46  -0.394  -0.620  -0.281
    1UNL     H4   47  -0.181  -0.478   0.070
    1UNL     H5   48  -0.358  -0.470   0.078
    1UNL     H6   49  -0.271  -0.192   0.329
    1UNL     H7   50  -0.359  -0.336   0.300
    1UNL     H8   51  -0.183  -0.348   0.316
    1UNL     H9   52  -0.422  -0.082  -0.076
    1UNL    H10   53  -0.040  -0.003  -0.163
    1UNL    H11   54  -0.199  -0.017  -0.251
    1UNL    H12   55  -0.378   0.393  -0.296
    1UNL    H13   56  -0.553   0.550  -0.189
    1UNL    H14   57  -0.595   0.524   0.044
    1UNL    H15   58  -0.501   0.352   0.175
    1UNL    H16   59  -0.351   0.192   0.078
    1UNL    H17   60  -0.115  -0.284  -0.231
    1UNL    H18   61  -0.017  -0.371   0.039
    1UNL    H19   62   0.038  -0.205  -0.052
    1UNL    H20   63   0.080  -0.109   0.218
    1UNL    H21   64   0.210   0.118  -0.049
    1UNL    H22   65   0.329  -0.079  -0.125
    1UNL    H23   66   0.308  -0.162   0.039
    1UNL    H24   67   0.673  -0.001   0.072
    1UNL    H25   68   0.901   0.088   0.114
    1UNL    H26   69   0.984   0.284  -0.022
    1UNL    H27   70   0.823   0.402  -0.189
    1UNL    H28   71   0.604   0.308  -0.210
    1UNL    H29   72   0.344   0.168   0.151
    1UNL    H30   73   0.348  -0.059   0.220
    1UNL    H31   74   0.176   0.225   0.311
    1UNL    H32   75   0.043   0.269   0.070
    1UNL    H33   76  -0.008   0.076   0.330
    1UNL    H34   77  -0.141   0.136   0.095
   0.00000   0.00000   0.00000   0.00000   0.00000   0.00000   0.00000   0.00000   0.00000
Generated with MDTraj, t= 41.0
 77
    1UNL     C1    1  -0.399  -0.570  -0.167
    1UNL     O1    2  -0.273  -0.509  -0.175
    1UNL     C2    3  -0.270  -0.382  -0.105
    1UNL     C3    4  -0.281  -0.399   0.045
    1UNL     C4    5  -0.267  -0.268   0.117
    1UNL     C5    6  -0.268  -0.277   0.272
    1UNL     O2    7  -0.372  -0.185   0.069
    1UNL     C6    8  -0.346  -0.175  -0.077
    1UNL     O3    9  -0.379  -0.293  -0.144
    1UNL     C7   10  -0.187  -0.154  -0.084
    1UNL     C8   11  -0.149  -0.022  -0.152
    1UNL     O4   12  -0.205   0.083  -0.074
    1UNL     C9   13  -0.276   0.163  -0.169
    1UNL     O5   14  -0.274   0.152  -0.289
    1UNL    C10   15  -0.370   0.258  -0.107
    1UNL    C11   16  -0.431   0.356  -0.182
    1UNL    C12   17  -0.512   0.453  -0.122
    1UNL    C13   18  -0.527   0.457   0.016
    1UNL    C14   19  -0.468   0.360   0.089
    1UNL    C15   20  -0.389   0.266   0.033
    1UNL    C16   21  -0.137  -0.288  -0.129
    1UNL    C17   22  -0.027  -0.284  -0.009
    1UNL    C18   23  -0.133  -0.195   0.064
    1UNL     O6   24  -0.099  -0.078   0.145
    1UNL    C19   25   0.022  -0.021   0.145
    1UNL     O7   26   0.075   0.005   0.013
    1UNL    C20   27   0.220   0.036   0.022
    1UNL    C21   28   0.322  -0.073  -0.008
    1UNL     O8   29   0.458  -0.032   0.008
    1UNL    C22   30   0.486   0.079  -0.067
    1UNL     O9   31   0.399   0.145  -0.124
    1UNL    C23   32   0.625   0.122  -0.056
    1UNL    C24   33   0.722   0.052   0.009
    1UNL    C25   34   0.846   0.116   0.025
    1UNL    C26   35   0.870   0.240  -0.033
    1UNL    C27   36   0.773   0.306  -0.111
    1UNL    C28   37   0.652   0.243  -0.119
    1UNL    C29   38   0.257   0.114   0.153
    1UNL    O10   39   0.294   0.040   0.269
    1UNL    C30   40   0.143   0.208   0.191
    1UNL    O11   41   0.112   0.301   0.093
    1UNL    C31   42   0.014   0.109   0.227
    1UNL    O12   43  -0.100   0.174   0.182
    1UNL     H1   44  -0.420  -0.594  -0.062
    1UNL     H2   45  -0.465  -0.481  -0.191
    1UNL     H3   46  -0.413  -0.663  -0.229
    1UNL     H4   47  -0.206  -0.466   0.076
    1UNL     H5   48  -0.382  -0.444   0.071
    1UNL     H6   49  -0.259  -0.183   0.324
    1UNL     H7   50  -0.358  -0.326   0.306
    1UNL     H8   51  -0.183  -0.340   0.303
    1UNL     H9   52  -0.408  -0.096  -0.128
    1UNL    H10   53  -0.034  -0.014  -0.156
    1UNL    H11   54  -0.190  -0.019  -0.259
    1UNL    H12   55  -0.415   0.361  -0.288
    1UNL    H13   56  -0.562   0.525  -0.189
    1UNL    H14   57  -0.595   0.539   0.067
    1UNL    H15   58  -0.477   0.364   0.198
    1UNL    H16   59  -0.345   0.191   0.090
    1UNL    H17   60  -0.100  -0.307  -0.232
    1UNL    H18   61  -0.029  -0.375   0.051
    1UNL    H19   62   0.067  -0.240  -0.044
    1UNL    H20   63   0.088  -0.096   0.194
    1UNL    H21   64   0.226   0.113  -0.063
    1UNL    H22   65   0.305  -0.108  -0.113
    1UNL    H23   66   0.305  -0.160   0.064
    1UNL    H24   67   0.698  -0.055   0.030
    1UNL    H25   68   0.905   0.077   0.098
    1UNL    H26   69   0.963   0.299  -0.016
    1UNL    H27   70   0.792   0.401  -0.153
    1UNL    H28   71   0.568   0.281  -0.172
    1UNL    H29   72   0.340   0.186   0.129
    1UNL    H30   73   0.377  -0.002   0.245
    1UNL    H31   74   0.173   0.262   0.281
    1UNL    H32   75   0.041   0.255   0.036
    1UNL    H33   76   0.006   0.099   0.335
    1UNL    H34   77  -0.134   0.133   0.098
   0.00000   0.00000   0.00000   0.00000   0.00000   0.00000   0.00000   0.00000   0.00000
Generated with MDTraj, t= 42.0
 77
    1UNL     C1    1  -0.343  -0.558  -0.225
    1UNL     O1    2  -0.232  -0.513  -0.155
    1UNL     C2    3  -0.252  -0.388  -0.092
    1UNL     C3    4  -0.286  -0.403   0.063
    1UNL     C4    5  -0.285  -0.258   0.120
    1UNL     C5    6  -0.282  -0.247   0.274
    1UNL     O2    7  -0.389  -0.186   0.048
    1UNL     C6    8  -0.349  -0.176  -0.082
    1UNL     O3    9  -0.356  -0.309  -0.147
    1UNL     C7   10  -0.195  -0.151  -0.088
    1UNL     C8   11  -0.145  -0.018  -0.150
    1UNL     O4   12  -0.188   0.089  -0.080
    1UNL     C9   13  -0.289   0.154  -0.157
    1UNL     O5   14  -0.323   0.121  -0.267
    1UNL    C10   15  -0.354   0.272  -0.088
    1UNL    C11   16  -0.431   0.359  -0.166
    1UNL    C12   17  -0.512   0.452  -0.108
    1UNL    C13   18  -0.526   0.462   0.032
    1UNL    C14   19  -0.462   0.369   0.107
    1UNL    C15   20  -0.380   0.273   0.047
    1UNL    C16   21  -0.125  -0.287  -0.112
    1UNL    C17   22  -0.039  -0.258   0.009
    1UNL    C18   23  -0.155  -0.178   0.064
    1UNL     O6   24  -0.121  -0.071   0.147
    1UNL    C19   25   0.013  -0.022   0.148
    1UNL     O7   26   0.073  -0.022   0.017
    1UNL    C20   27   0.217   0.023   0.008
    1UNL    C21   28   0.318  -0.090  -0.012
    1UNL     O8   29   0.448  -0.030   0.012
    1UNL    C22   30   0.483   0.075  -0.072
    1UNL     O9   31   0.407   0.136  -0.146
    1UNL    C23   32   0.620   0.128  -0.041
    1UNL    C24   33   0.725   0.050   0.011
    1UNL    C25   34   0.860   0.089   0.023
    1UNL    C26   35   0.890   0.214  -0.041
    1UNL    C27   36   0.780   0.293  -0.086
    1UNL    C28   37   0.651   0.258  -0.079
    1UNL    C29   38   0.252   0.128   0.120
    1UNL    O10   39   0.313   0.064   0.234
    1UNL    C30   40   0.131   0.208   0.164
    1UNL    O11   41   0.084   0.299   0.071
    1UNL    C31   42   0.010   0.116   0.218
    1UNL    O12   43  -0.109   0.176   0.179
    1UNL     H1   44  -0.425  -0.549  -0.151
    1UNL     H2   45  -0.372  -0.484  -0.304
    1UNL     H3   46  -0.337  -0.664  -0.261
    1UNL     H4   47  -0.222  -0.467   0.115
    1UNL     H5   48  -0.387  -0.456   0.062
    1UNL     H6   49  -0.293  -0.144   0.308
    1UNL     H7   50  -0.375  -0.298   0.298
    1UNL     H8   51  -0.199  -0.295   0.330
    1UNL     H9   52  -0.409  -0.094  -0.134
    1UNL    H10   53  -0.031  -0.023  -0.150
    1UNL    H11   54  -0.177  -0.022  -0.256
    1UNL    H12   55  -0.432   0.347  -0.273
    1UNL    H13   56  -0.580   0.513  -0.164
    1UNL    H14   57  -0.610   0.514   0.072
    1UNL    H15   58  -0.488   0.355   0.209
    1UNL    H16   59  -0.316   0.210   0.112
    1UNL    H17   60  -0.078  -0.286  -0.211
    1UNL    H18   61  -0.015  -0.347   0.064
    1UNL    H19   62   0.061  -0.206  -0.002
    1UNL    H20   63   0.074  -0.093   0.208
    1UNL    H21   64   0.229   0.077  -0.091
    1UNL    H22   65   0.319  -0.135  -0.113
    1UNL    H23   66   0.303  -0.174   0.061
    1UNL    H24   67   0.705  -0.047   0.042
    1UNL    H25   68   0.943   0.019   0.059
    1UNL    H26   69   0.985   0.251  -0.036
    1UNL    H27   70   0.806   0.391  -0.130
    1UNL    H28   71   0.575   0.314  -0.135
    1UNL    H29   72   0.325   0.198   0.075
    1UNL    H30   73   0.393   0.012   0.203
    1UNL    H31   74   0.167   0.272   0.243
    1UNL    H32   75   0.035   0.260  -0.002
    1UNL    H33   76   0.003   0.113   0.327
    1UNL    H34   77  -0.131   0.139   0.088
   0.00000   0.00000   0.00000   0.00000   0.00000   0.00000   0.00000   0.00000   0.00000
Generated with MDTraj, t= 43.0
 77
    1UNL     C1    1  -0.277  -0.530  -0.276
    1UNL     O1    2  -0.214  -0.512  -0.149
    1UNL     C2    3  -0.233  -0.383  -0.091
    1UNL     C3    4  -0.278  -0.390   0.062
    1UNL     C4    5  -0.282  -0.251   0.115
    1UNL     C5    6  -0.322  -0.252   0.261
    1UNL     O2    7  -0.392  -0.187   0.039
    1UNL     C6    8  -0.343  -0.178  -0.093
    1UNL     O3    9  -0.346  -0.308  -0.156
    1UNL     C7   10  -0.190  -0.150  -0.073
    1UNL     C8   11  -0.143  -0.018  -0.135
    1UNL     O4   12  -0.200   0.094  -0.086
    1UNL     C9   13  -0.318   0.139  -0.144
    1UNL     O5   14  -0.364   0.078  -0.237
    1UNL    C10   15  -0.394   0.249  -0.077
    1UNL    C11   16  -0.455   0.351  -0.156
    1UNL    C12   17  -0.504   0.462  -0.098
    1UNL    C13   18  -0.497   0.477   0.039
    1UNL    C14   19  -0.452   0.373   0.118
    1UNL    C15   20  -0.396   0.259   0.058
    1UNL    C16   21  -0.115  -0.286  -0.101
    1UNL    C17   22  -0.034  -0.259   0.028
    1UNL    C18   23  -0.152  -0.166   0.080
    1UNL     O6   24  -0.106  -0.071   0.173
    1UNL    C19   25   0.023  -0.005   0.145
    1UNL     O7   26   0.072  -0.002   0.012
    1UNL    C20   27   0.212   0.049   0.000
    1UNL    C21   28   0.307  -0.063  -0.003
    1UNL     O8   29   0.439  -0.020   0.019
    1UNL    C22   30   0.494   0.054  -0.085
    1UNL     O9   31   0.430   0.107  -0.171
    1UNL    C23   32   0.633   0.100  -0.067
    1UNL    C24   33   0.732   0.016  -0.003
    1UNL    C25   34   0.857   0.067   0.021
    1UNL    C26   35   0.885   0.202  -0.014
    1UNL    C27   36   0.789   0.286  -0.063
    1UNL    C28   37   0.659   0.237  -0.081
    1UNL    C29   38   0.246   0.149   0.112
    1UNL    O10   39   0.291   0.078   0.234
    1UNL    C30   40   0.121   0.233   0.144
    1UNL    O11   41   0.062   0.282   0.021
    1UNL    C31   42   0.016   0.135   0.216
    1UNL    O12   43  -0.110   0.185   0.191
    1UNL     H1   44  -0.379  -0.542  -0.245
    1UNL     H2   45  -0.281  -0.437  -0.334
    1UNL     H3   46  -0.239  -0.613  -0.337
    1UNL     H4   47  -0.225  -0.457   0.130
    1UNL     H5   48  -0.380  -0.434   0.052
    1UNL     H6   49  -0.316  -0.145   0.288
    1UNL     H7   50  -0.428  -0.281   0.268
    1UNL     H8   51  -0.260  -0.305   0.334
    1UNL     H9   52  -0.405  -0.090  -0.131
    1UNL    H10   53  -0.031  -0.019  -0.139
    1UNL    H11   54  -0.174  -0.023  -0.239
    1UNL    H12   55  -0.463   0.336  -0.263
    1UNL    H13   56  -0.555   0.541  -0.151
    1UNL    H14   57  -0.544   0.557   0.087
    1UNL    H15   58  -0.442   0.374   0.228
    1UNL    H16   59  -0.338   0.191   0.114
    1UNL    H17   60  -0.067  -0.275  -0.199
    1UNL    H18   61  -0.017  -0.353   0.083
    1UNL    H19   62   0.066  -0.213   0.009
    1UNL    H20   63   0.104  -0.060   0.198
    1UNL    H21   64   0.223   0.096  -0.097
    1UNL    H22   65   0.300  -0.113  -0.098
    1UNL    H23   66   0.287  -0.140   0.073
    1UNL    H24   67   0.697  -0.089   0.007
    1UNL    H25   68   0.935   0.013   0.067
    1UNL    H26   69   0.988   0.243   0.011
    1UNL    H27   70   0.801   0.388  -0.082
    1UNL    H28   71   0.577   0.289  -0.127
    1UNL    H29   72   0.327   0.209   0.078
    1UNL    H30   73   0.348   0.003   0.220
    1UNL    H31   74   0.154   0.317   0.201
    1UNL    H32   75  -0.002   0.222  -0.024
    1UNL    H33   76   0.025   0.118   0.324
    1UNL    H34   77  -0.135   0.152   0.101
   0.00000   0.00000   0.00000   0.00000   0.00000   0.00000   0.00000   0.00000   0.00000
Generated with MDTraj, t= 44.0
 77
    1UNL     C1    1  -0.203  -0.486  -0.303
    1UNL     O1    2  -0.207  -0.502  -0.167
    1UNL     C2    3  -0.226  -0.373  -0.096
    1UNL     C3    4  -0.249  -0.392   0.060
    1UNL     C4    5  -0.262  -0.249   0.121
    1UNL     C5    6  -0.269  -0.245   0.278
    1UNL     O2    7  -0.376  -0.194   0.053
    1UNL     C6    8  -0.340  -0.178  -0.088
    1UNL     O3    9  -0.348  -0.307  -0.141
    1UNL     C7   10  -0.190  -0.142  -0.087
    1UNL     C8   11  -0.152  -0.007  -0.155
    1UNL     O4   12  -0.200   0.094  -0.084
    1UNL     C9   13  -0.329   0.128  -0.118
    1UNL     O5   14  -0.383   0.055  -0.198
    1UNL    C10   15  -0.398   0.242  -0.055
    1UNL    C11   16  -0.447   0.339  -0.144
    1UNL    C12   17  -0.490   0.460  -0.098
    1UNL    C13   18  -0.496   0.474   0.039
    1UNL    C14   19  -0.461   0.375   0.132
    1UNL    C15   20  -0.404   0.260   0.083
    1UNL    C16   21  -0.111  -0.274  -0.120
    1UNL    C17   22  -0.026  -0.250   0.013
    1UNL    C18   23  -0.147  -0.163   0.068
    1UNL     O6   24  -0.126  -0.045   0.138
    1UNL    C19   25   0.008   0.003   0.147
    1UNL     O7   26   0.074  -0.006   0.018
    1UNL    C20   27   0.213   0.045   0.006
    1UNL    C21   28   0.309  -0.066   0.021
    1UNL     O8   29   0.440  -0.021   0.029
    1UNL    C22   30   0.489   0.032  -0.086
    1UNL     O9   31   0.425   0.064  -0.184
    1UNL    C23   32   0.628   0.085  -0.058
    1UNL    C24   33   0.717  -0.004   0.000
    1UNL    C25   34   0.839   0.040   0.023
    1UNL    C26   35   0.880   0.179  -0.003
    1UNL    C27   36   0.787   0.266  -0.057
    1UNL    C28   37   0.661   0.216  -0.086
    1UNL    C29   38   0.223   0.164   0.105
    1UNL    O10   39   0.278   0.115   0.227
    1UNL    C30   40   0.096   0.241   0.119
    1UNL    O11   41   0.037   0.280  -0.002
    1UNL    C31   42  -0.001   0.154   0.205
    1UNL    O12   43  -0.130   0.200   0.184
    1UNL     H1   44  -0.285  -0.420  -0.318
    1UNL     H2   45  -0.114  -0.438  -0.340
    1UNL     H3   46  -0.213  -0.581  -0.352
    1UNL     H4   47  -0.153  -0.441   0.096
    1UNL     H5   48  -0.322  -0.467   0.084
    1UNL     H6   49  -0.266  -0.146   0.330
    1UNL     H7   50  -0.359  -0.301   0.312
    1UNL     H8   51  -0.180  -0.293   0.321
    1UNL     H9   52  -0.391  -0.108  -0.161
    1UNL    H10   53  -0.043   0.014  -0.151
    1UNL    H11   54  -0.184  -0.006  -0.255
    1UNL    H12   55  -0.440   0.327  -0.250
    1UNL    H13   56  -0.537   0.528  -0.166
    1UNL    H14   57  -0.514   0.583   0.080
    1UNL    H15   58  -0.453   0.404   0.233
    1UNL    H16   59  -0.355   0.180   0.143
    1UNL    H17   60  -0.059  -0.273  -0.215
    1UNL    H18   61  -0.017  -0.349   0.065
    1UNL    H19   62   0.066  -0.199  -0.011
    1UNL    H20   63   0.076  -0.054   0.213
    1UNL    H21   64   0.219   0.081  -0.092
    1UNL    H22   65   0.305  -0.134  -0.060
    1UNL    H23   66   0.280  -0.119   0.111
    1UNL    H24   67   0.696  -0.107   0.018
    1UNL    H25   68   0.918  -0.021   0.072
    1UNL    H26   69   0.971   0.222   0.026
    1UNL    H27   70   0.814   0.369  -0.087
    1UNL    H28   71   0.586   0.283  -0.123
    1UNL    H29   72   0.291   0.235   0.067
    1UNL    H30   73   0.372   0.083   0.205
    1UNL    H31   74   0.112   0.328   0.179
    1UNL    H32   75  -0.022   0.210  -0.031
    1UNL    H33   76   0.020   0.159   0.314
    1UNL    H34   77  -0.161   0.161   0.096
   0.00000   0.00000   0.00000   0.00000   0.00000   0.00000   0.00000   0.00000   0.00000
Generated with MDTraj, t= 45.0
 77
    1UNL     C1    1  -0.171  -0.494  -0.309
    1UNL     O1    2  -0.182  -0.513  -0.171
    1UNL     C2    3  -0.213  -0.387  -0.106
    1UNL     C3    4  -0.224  -0.412   0.048
    1UNL     C4    5  -0.244  -0.278   0.125
    1UNL     C5    6  -0.248  -0.289   0.272
    1UNL     O2    7  -0.370  -0.222   0.069
    1UNL     C6    8  -0.349  -0.192  -0.071
    1UNL     O3    9  -0.347  -0.322  -0.137
    1UNL     C7   10  -0.197  -0.142  -0.081
    1UNL     C8   11  -0.175  -0.010  -0.159
    1UNL     O4   12  -0.211   0.108  -0.092
    1UNL     C9   13  -0.337   0.155  -0.126
    1UNL     O5   14  -0.407   0.084  -0.196
    1UNL    C10   15  -0.388   0.276  -0.060
    1UNL    C11   16  -0.432   0.380  -0.136
    1UNL    C12   17  -0.500   0.483  -0.071
    1UNL    C13   18  -0.525   0.479   0.063
    1UNL    C14   19  -0.477   0.370   0.140
    1UNL    C15   20  -0.413   0.270   0.079
    1UNL    C16   21  -0.113  -0.270  -0.126
    1UNL    C17   22  -0.016  -0.238  -0.004
    1UNL    C18   23  -0.131  -0.170   0.068
    1UNL     O6   24  -0.110  -0.056   0.145
    1UNL    C19   25   0.008   0.016   0.130
    1UNL     O7   26   0.071   0.019  -0.000
    1UNL    C20   27   0.210   0.058  -0.004
    1UNL    C21   28   0.291  -0.059   0.044
    1UNL     O8   29   0.424  -0.031   0.068
    1UNL    C22   30   0.486   0.010  -0.050
    1UNL     O9   31   0.427   0.023  -0.156
    1UNL    C23   32   0.618   0.072  -0.028
    1UNL    C24   33   0.718  -0.007   0.028
    1UNL    C25   34   0.853   0.030   0.028
    1UNL    C26   35   0.879   0.150  -0.026
    1UNL    C27   36   0.781   0.232  -0.079
    1UNL    C28   37   0.649   0.193  -0.087
    1UNL    C29   38   0.228   0.195   0.082
    1UNL    O10   39   0.292   0.169   0.206
    1UNL    C30   40   0.092   0.261   0.104
    1UNL    O11   41   0.031   0.300  -0.017
    1UNL    C31   42  -0.004   0.164   0.176
    1UNL    O12   43  -0.135   0.205   0.167
    1UNL     H1   44  -0.247  -0.422  -0.333
    1UNL     H2   45  -0.073  -0.456  -0.338
    1UNL     H3   46  -0.189  -0.588  -0.358
    1UNL     H4   47  -0.145  -0.485   0.090
    1UNL     H5   48  -0.311  -0.471   0.061
    1UNL     H6   49  -0.262  -0.194   0.328
    1UNL     H7   50  -0.318  -0.367   0.312
    1UNL     H8   51  -0.145  -0.319   0.299
    1UNL     H9   52  -0.412  -0.113  -0.121
    1UNL    H10   53  -0.074  -0.003  -0.201
    1UNL    H11   54  -0.233  -0.011  -0.245
    1UNL    H12   55  -0.447   0.376  -0.243
    1UNL    H13   56  -0.536   0.566  -0.133
    1UNL    H14   57  -0.574   0.558   0.105
    1UNL    H15   58  -0.480   0.379   0.251
    1UNL    H16   59  -0.373   0.187   0.129
    1UNL    H17   60  -0.072  -0.270  -0.225
    1UNL    H18   61   0.009  -0.327   0.062
    1UNL    H19   62   0.078  -0.184  -0.005
    1UNL    H20   63   0.085  -0.036   0.189
    1UNL    H21   64   0.232   0.073  -0.104
    1UNL    H22   65   0.279  -0.137  -0.026
    1UNL    H23   66   0.250  -0.090   0.138
    1UNL    H24   67   0.694  -0.106   0.068
    1UNL    H25   68   0.928  -0.027   0.072
    1UNL    H26   69   0.982   0.186  -0.028
    1UNL    H27   70   0.799   0.334  -0.102
    1UNL    H28   71   0.564   0.237  -0.144
    1UNL    H29   72   0.290   0.264   0.032
    1UNL    H30   73   0.352   0.097   0.187
    1UNL    H31   74   0.108   0.353   0.161
    1UNL    H32   75  -0.017   0.221  -0.043
    1UNL    H33   76   0.026   0.166   0.283
    1UNL    H34   77  -0.176   0.157   0.091
   0.00000   0.00000   0.00000   0.00000   0.00000   0.00000   0.00000   0.00000   0.00000
Generated with MDTraj, t= 46.0
 77
    1UNL     C1    1  -0.221  -0.495  -0.312
    1UNL     O1    2  -0.152  -0.498  -0.186
    1UNL     C2    3  -0.194  -0.387  -0.105
    1UNL     C3    4  -0.209  -0.407   0.046
    1UNL     C4    5  -0.230  -0.268   0.112
    1UNL     C5    6  -0.227  -0.265   0.259
    1UNL     O2    7  -0.359  -0.225   0.060
    1UNL     C6    8  -0.341  -0.202  -0.080
    1UNL     O3    9  -0.323  -0.334  -0.141
    1UNL     C7   10  -0.198  -0.137  -0.086
    1UNL     C8   11  -0.187   0.000  -0.143
    1UNL     O4   12  -0.240   0.099  -0.061
    1UNL     C9   13  -0.353   0.144  -0.122
    1UNL     O5   14  -0.400   0.106  -0.230
    1UNL    C10   15  -0.422   0.257  -0.055
    1UNL    C11   16  -0.441   0.376  -0.122
    1UNL    C12   17  -0.483   0.491  -0.058
    1UNL    C13   18  -0.510   0.486   0.074
    1UNL    C14   19  -0.491   0.367   0.146
    1UNL    C15   20  -0.455   0.250   0.080
    1UNL    C16   21  -0.098  -0.255  -0.131
    1UNL    C17   22  -0.001  -0.221  -0.016
    1UNL    C18   23  -0.126  -0.165   0.058
    1UNL     O6   24  -0.119  -0.048   0.142
    1UNL    C19   25   0.002   0.014   0.137
    1UNL     O7   26   0.060   0.019   0.001
    1UNL    C20   27   0.197   0.050   0.012
    1UNL    C21   28   0.294  -0.052   0.073
    1UNL     O8   29   0.431  -0.009   0.092
    1UNL    C22   30   0.493   0.004  -0.031
    1UNL     O9   31   0.430  -0.008  -0.135
    1UNL    C23   32   0.634   0.054  -0.039
    1UNL    C24   33   0.726  -0.010   0.038
    1UNL    C25   34   0.857   0.033   0.042
    1UNL    C26   35   0.897   0.139  -0.028
    1UNL    C27   36   0.803   0.209  -0.106
    1UNL    C28   37   0.677   0.159  -0.117
    1UNL    C29   38   0.213   0.198   0.068
    1UNL    O10   39   0.288   0.196   0.186
    1UNL    C30   40   0.076   0.262   0.095
    1UNL    O11   41   0.006   0.288  -0.031
    1UNL    C31   42  -0.011   0.165   0.180
    1UNL    O12   43  -0.148   0.213   0.181
    1UNL     H1   44  -0.328  -0.506  -0.290
    1UNL     H2   45  -0.204  -0.396  -0.357
    1UNL     H3   46  -0.178  -0.573  -0.378
    1UNL     H4   47  -0.131  -0.469   0.094
    1UNL     H5   48  -0.295  -0.469   0.068
    1UNL     H6   49  -0.238  -0.160   0.295
    1UNL     H7   50  -0.310  -0.321   0.308
    1UNL     H8   51  -0.129  -0.296   0.306
    1UNL     H9   52  -0.422  -0.138  -0.113
    1UNL    H10   53  -0.081   0.019  -0.164
    1UNL    H11   54  -0.224   0.015  -0.239
    1UNL    H12   55  -0.440   0.369  -0.230
    1UNL    H13   56  -0.503   0.579  -0.113
    1UNL    H14   57  -0.543   0.575   0.129
    1UNL    H15   58  -0.490   0.366   0.250
    1UNL    H16   59  -0.430   0.156   0.132
    1UNL    H17   60  -0.064  -0.251  -0.232
    1UNL    H18   61   0.041  -0.318   0.021
    1UNL    H19   62   0.093  -0.162  -0.022
    1UNL    H20   63   0.060  -0.060   0.194
    1UNL    H21   64   0.231   0.051  -0.087
    1UNL    H22   65   0.305  -0.137   0.011
    1UNL    H23   66   0.250  -0.083   0.166
    1UNL    H24   67   0.709  -0.097   0.100
    1UNL    H25   68   0.925  -0.028   0.103
    1UNL    H26   69   0.998   0.181  -0.010
    1UNL    H27   70   0.832   0.305  -0.150
    1UNL    H28   71   0.615   0.193  -0.193
    1UNL    H29   72   0.265   0.255  -0.005
    1UNL    H30   73   0.374   0.152   0.166
    1UNL    H31   74   0.092   0.363   0.137
    1UNL    H32   75  -0.053   0.213  -0.052
    1UNL    H33   76   0.022   0.172   0.286
    1UNL    H34   77  -0.197   0.165   0.110
   0.00000   0.00000   0.00000   0.00000   0.00000   0.00000   0.00000   0.00000   0.00000
Generated with MDTraj, t= 47.0
 77
    1UNL     C1    1  -0.256  -0.526  -0.296
    1UNL     O1    2  -0.160  -0.496  -0.192
    1UNL     C2    3  -0.208  -0.381  -0.114
    1UNL     C3    4  -0.219  -0.409   0.036
    1UNL     C4    5  -0.238  -0.276   0.114
    1UNL     C5    6  -0.232  -0.297   0.271
    1UNL     O2    7  -0.361  -0.215   0.058
    1UNL     C6    8  -0.341  -0.197  -0.082
    1UNL     O3    9  -0.332  -0.319  -0.158
    1UNL     C7   10  -0.194  -0.137  -0.092
    1UNL     C8   11  -0.179   0.003  -0.152
    1UNL     O4   12  -0.237   0.107  -0.074
    1UNL     C9   13  -0.356   0.144  -0.130
    1UNL     O5   14  -0.404   0.103  -0.238
    1UNL    C10   15  -0.422   0.257  -0.063
    1UNL    C11   16  -0.438   0.383  -0.118
    1UNL    C12   17  -0.486   0.485  -0.045
    1UNL    C13   18  -0.516   0.466   0.092
    1UNL    C14   19  -0.504   0.342   0.145
    1UNL    C15   20  -0.459   0.235   0.066
    1UNL    C16   21  -0.108  -0.259  -0.141
    1UNL    C17   22  -0.011  -0.235  -0.022
    1UNL    C18   23  -0.135  -0.171   0.049
    1UNL     O6   24  -0.112  -0.056   0.135
    1UNL    C19   25   0.008   0.016   0.131
    1UNL     O7   26   0.078   0.029   0.002
    1UNL    C20   27   0.213   0.077   0.020
    1UNL    C21   28   0.314  -0.010   0.094
    1UNL     O8   29   0.447   0.044   0.093
    1UNL    C22   30   0.495   0.016  -0.031
    1UNL     O9   31   0.430  -0.027  -0.124
    1UNL    C23   32   0.643   0.049  -0.045
    1UNL    C24   33   0.718   0.006   0.061
    1UNL    C25   34   0.852   0.036   0.055
    1UNL    C26   35   0.910   0.118  -0.033
    1UNL    C27   36   0.836   0.165  -0.139
    1UNL    C28   37   0.702   0.124  -0.147
    1UNL    C29   38   0.214   0.232   0.075
    1UNL    O10   39   0.280   0.251   0.204
    1UNL    C30   40   0.066   0.267   0.098
    1UNL    O11   41   0.004   0.274  -0.030
    1UNL    C31   42  -0.003   0.163   0.188
    1UNL    O12   43  -0.146   0.188   0.212
    1UNL     H1   44  -0.358  -0.542  -0.255
    1UNL     H2   45  -0.251  -0.435  -0.360
    1UNL     H3   46  -0.208  -0.608  -0.356
    1UNL     H4   47  -0.136  -0.470   0.064
    1UNL     H5   48  -0.300  -0.482   0.053
    1UNL     H6   49  -0.249  -0.203   0.329
    1UNL     H7   50  -0.320  -0.364   0.293
    1UNL     H8   51  -0.138  -0.345   0.312
    1UNL     H9   52  -0.424  -0.140  -0.119
    1UNL    H10   53  -0.076   0.041  -0.174
    1UNL    H11   54  -0.213   0.013  -0.253
    1UNL    H12   55  -0.405   0.395  -0.220
    1UNL    H13   56  -0.531   0.571  -0.098
    1UNL    H14   57  -0.544   0.553   0.161
    1UNL    H15   58  -0.508   0.330   0.256
    1UNL    H16   59  -0.430   0.148   0.118
    1UNL    H17   60  -0.062  -0.233  -0.234
    1UNL    H18   61   0.024  -0.334   0.014
    1UNL    H19   62   0.069  -0.156  -0.042
    1UNL    H20   63   0.070  -0.039   0.200
    1UNL    H21   64   0.243   0.078  -0.081
    1UNL    H22   65   0.313  -0.115   0.067
    1UNL    H23   66   0.288  -0.004   0.202
    1UNL    H24   67   0.677  -0.068   0.127
    1UNL    H25   68   0.913  -0.003   0.141
    1UNL    H26   69   1.007   0.158  -0.017
    1UNL    H27   70   0.891   0.216  -0.215
    1UNL    H28   71   0.638   0.154  -0.235
    1UNL    H29   72   0.260   0.302   0.006
    1UNL    H30   73   0.362   0.197   0.207
    1UNL    H31   74   0.057   0.370   0.143
    1UNL    H32   75  -0.073   0.208  -0.041
    1UNL    H33   76   0.037   0.188   0.288
    1UNL    H34   77  -0.191   0.160   0.130
   0.00000   0.00000   0.00000   0.00000   0.00000   0.00000   0.00000   0.00000   0.00000
Generated with MDTraj, t= 48.0
 77
    1UNL     C1    1  -0.305  -0.522  -0.285
    1UNL     O1    2  -0.195  -0.499  -0.197
    1UNL     C2    3  -0.212  -0.378  -0.120
    1UNL     C3    4  -0.218  -0.406   0.030
    1UNL     C4    5  -0.240  -0.269   0.095
    1UNL     C5    6  -0.239  -0.276   0.248
    1UNL     O2    7  -0.362  -0.202   0.052
    1UNL     C6    8  -0.335  -0.189  -0.087
    1UNL     O3    9  -0.345  -0.313  -0.153
    1UNL     C7   10  -0.182  -0.135  -0.099
    1UNL     C8   11  -0.154  -0.006  -0.162
    1UNL     O4   12  -0.206   0.102  -0.086
    1UNL     C9   13  -0.333   0.138  -0.119
    1UNL     O5   14  -0.392   0.099  -0.222
    1UNL    C10   15  -0.401   0.247  -0.049
    1UNL    C11   16  -0.416   0.373  -0.108
    1UNL    C12   17  -0.502   0.463  -0.044
    1UNL    C13   18  -0.544   0.438   0.092
    1UNL    C14   19  -0.522   0.318   0.150
    1UNL    C15   20  -0.446   0.225   0.080
    1UNL    C16   21  -0.102  -0.264  -0.146
    1UNL    C17   22  -0.001  -0.244  -0.034
    1UNL    C18   23  -0.121  -0.170   0.043
    1UNL     O6   24  -0.113  -0.057   0.131
    1UNL    C19   25   0.004   0.016   0.135
    1UNL     O7   26   0.084   0.010   0.013
    1UNL    C20   27   0.210   0.080   0.026
    1UNL    C21   28   0.312  -0.005   0.096
    1UNL     O8   29   0.441   0.062   0.101
    1UNL    C22   30   0.514   0.033  -0.014
    1UNL     O9   31   0.463  -0.012  -0.116
    1UNL    C23   32   0.657   0.060  -0.025
    1UNL    C24   33   0.748   0.053   0.082
    1UNL    C25   34   0.883   0.064   0.062
    1UNL    C26   35   0.931   0.088  -0.063
    1UNL    C27   36   0.846   0.091  -0.168
    1UNL    C28   37   0.707   0.081  -0.157
    1UNL    C29   38   0.184   0.232   0.076
    1UNL    O10   39   0.280   0.271   0.181
    1UNL    C30   40   0.038   0.275   0.125
    1UNL    O11   41  -0.030   0.338   0.010
    1UNL    C31   42  -0.034   0.158   0.194
    1UNL    O12   43  -0.170   0.179   0.182
    1UNL     H1   44  -0.402  -0.514  -0.234
    1UNL     H2   45  -0.290  -0.441  -0.358
    1UNL     H3   46  -0.277  -0.614  -0.344
    1UNL     H4   47  -0.145  -0.466   0.074
    1UNL     H5   48  -0.308  -0.470   0.043
    1UNL     H6   49  -0.272  -0.172   0.276
    1UNL     H7   50  -0.309  -0.354   0.286
    1UNL     H8   51  -0.131  -0.286   0.281
    1UNL     H9   52  -0.415  -0.130  -0.126
    1UNL    H10   53  -0.042   0.016  -0.176
    1UNL    H11   54  -0.186   0.002  -0.265
    1UNL    H12   55  -0.391   0.375  -0.215
    1UNL    H13   56  -0.543   0.547  -0.096
    1UNL    H14   57  -0.610   0.507   0.124
    1UNL    H15   58  -0.534   0.302   0.254
    1UNL    H16   59  -0.416   0.134   0.137
    1UNL    H17   60  -0.070  -0.244  -0.245
    1UNL    H18   61   0.026  -0.326   0.039
    1UNL    H19   62   0.075  -0.172  -0.079
    1UNL    H20   63   0.062  -0.036   0.210
    1UNL    H21   64   0.239   0.089  -0.077
    1UNL    H22   65   0.332  -0.105   0.052
    1UNL    H23   66   0.279  -0.023   0.202
    1UNL    H24   67   0.713   0.031   0.181
    1UNL    H25   68   0.948   0.060   0.139
    1UNL    H26   69   1.040   0.099  -0.072
    1UNL    H27   70   0.881   0.112  -0.270
    1UNL    H28   71   0.654   0.084  -0.245
    1UNL    H29   72   0.207   0.299  -0.009
    1UNL    H30   73   0.363   0.225   0.166
    1UNL    H31   74   0.055   0.354   0.204
    1UNL    H32   75  -0.099   0.284  -0.027
    1UNL    H33   76  -0.010   0.159   0.301
    1UNL    H34   77  -0.193   0.147   0.091
   0.00000   0.00000   0.00000   0.00000   0.00000   0.00000   0.00000   0.00000   0.00000
Generated with MDTraj, t= 49.0
 77
    1UNL     C1    1  -0.315  -0.531  -0.273
    1UNL     O1    2  -0.199  -0.484  -0.221
    1UNL     C2    3  -0.230  -0.373  -0.134
    1UNL     C3    4  -0.247  -0.400   0.016
    1UNL     C4    5  -0.249  -0.258   0.095
    1UNL     C5    6  -0.262  -0.277   0.249
    1UNL     O2    7  -0.368  -0.192   0.046
    1UNL     C6    8  -0.341  -0.171  -0.096
    1UNL     O3    9  -0.343  -0.294  -0.169
    1UNL     C7   10  -0.181  -0.130  -0.102
    1UNL     C8   11  -0.137   0.004  -0.155
    1UNL     O4   12  -0.202   0.110  -0.088
    1UNL     C9   13  -0.329   0.122  -0.129
    1UNL     O5   14  -0.380   0.068  -0.229
    1UNL    C10   15  -0.406   0.230  -0.057
    1UNL    C11   16  -0.433   0.355  -0.110
    1UNL    C12   17  -0.504   0.450  -0.034
    1UNL    C13   18  -0.545   0.411   0.093
    1UNL    C14   19  -0.517   0.283   0.144
    1UNL    C15   20  -0.454   0.191   0.067
    1UNL    C16   21  -0.110  -0.261  -0.145
    1UNL    C17   22  -0.017  -0.247  -0.022
    1UNL    C18   23  -0.126  -0.165   0.047
    1UNL     O6   24  -0.104  -0.054   0.135
    1UNL    C19   25   0.029   0.017   0.133
    1UNL     O7   26   0.098   0.033   0.002
    1UNL    C20   27   0.225   0.111   0.026
    1UNL    C21   28   0.316   0.023   0.107
    1UNL     O8   29   0.442   0.077   0.097
    1UNL    C22   30   0.501   0.042  -0.022
    1UNL     O9   31   0.444  -0.007  -0.118
    1UNL    C23   32   0.645   0.061  -0.035
    1UNL    C24   33   0.723   0.093   0.075
    1UNL    C25   34   0.856   0.113   0.062
    1UNL    C26   35   0.915   0.079  -0.061
    1UNL    C27   36   0.842   0.025  -0.160
    1UNL    C28   37   0.705   0.020  -0.153
    1UNL    C29   38   0.206   0.251   0.085
    1UNL    O10   39   0.299   0.288   0.188
    1UNL    C30   40   0.063   0.279   0.129
    1UNL    O11   41  -0.020   0.315   0.015
    1UNL    C31   42   0.003   0.159   0.212
    1UNL    O12   43  -0.137   0.176   0.225
    1UNL     H1   44  -0.386  -0.555  -0.196
    1UNL     H2   45  -0.347  -0.449  -0.333
    1UNL     H3   46  -0.282  -0.609  -0.343
    1UNL     H4   47  -0.162  -0.446   0.053
    1UNL     H5   48  -0.326  -0.474   0.041
    1UNL     H6   49  -0.260  -0.175   0.298
    1UNL     H7   50  -0.365  -0.323   0.256
    1UNL     H8   51  -0.184  -0.343   0.294
    1UNL     H9   52  -0.402  -0.099  -0.145
    1UNL    H10   53  -0.022   0.012  -0.143
    1UNL    H11   54  -0.147   0.006  -0.265
    1UNL    H12   55  -0.421   0.362  -0.214
    1UNL    H13   56  -0.560   0.528  -0.088
    1UNL    H14   57  -0.598   0.487   0.160
    1UNL    H15   58  -0.560   0.255   0.240
    1UNL    H16   59  -0.420   0.104   0.115
    1UNL    H17   60  -0.054  -0.264  -0.235
    1UNL    H18   61   0.037  -0.334   0.033
    1UNL    H19   62   0.064  -0.169  -0.037
    1UNL    H20   63   0.096  -0.045   0.192
    1UNL    H21   64   0.273   0.122  -0.073
    1UNL    H22   65   0.309  -0.079   0.060
    1UNL    H23   66   0.301   0.009   0.219
    1UNL    H24   67   0.668   0.120   0.165
    1UNL    H25   68   0.930   0.129   0.148
    1UNL    H26   69   1.020   0.087  -0.066
    1UNL    H27   70   0.901   0.003  -0.249
    1UNL    H28   71   0.647  -0.019  -0.242
    1UNL    H29   72   0.217   0.320  -0.006
    1UNL    H30   73   0.386   0.242   0.166
    1UNL    H31   74   0.060   0.368   0.198
    1UNL    H32   75  -0.072   0.239  -0.031
    1UNL    H33   76   0.047   0.144   0.310
    1UNL    H34   77  -0.175   0.157   0.134
   0.00000   0.00000   0.00000   0.00000   0.00000   0.00000   0.00000   0.00000   0.00000
Generated with MDTraj, t= 50.0
 77
    1UNL     C1    1  -0.312  -0.544  -0.234
    1UNL     O1    2  -0.189  -0.470  -0.206
    1UNL     C2    3  -0.203  -0.355  -0.130
    1UNL     C3    4  -0.226  -0.382   0.026
    1UNL     C4    5  -0.248  -0.244   0.088
    1UNL     C5    6  -0.249  -0.253   0.243
    1UNL     O2    7  -0.360  -0.177   0.025
    1UNL     C6    8  -0.320  -0.157  -0.116
    1UNL     O3    9  -0.324  -0.290  -0.184
    1UNL     C7   10  -0.167  -0.120  -0.111
    1UNL     C8   11  -0.133   0.022  -0.163
    1UNL     O4   12  -0.208   0.118  -0.088
    1UNL     C9   13  -0.327   0.144  -0.147
    1UNL     O5   14  -0.359   0.109  -0.260
    1UNL    C10   15  -0.418   0.229  -0.067
    1UNL    C11   16  -0.460   0.357  -0.104
    1UNL    C12   17  -0.528   0.438  -0.012
    1UNL    C13   18  -0.560   0.390   0.110
    1UNL    C14   19  -0.530   0.254   0.146
    1UNL    C15   20  -0.457   0.179   0.059
    1UNL    C16   21  -0.093  -0.246  -0.146
    1UNL    C17   22  -0.005  -0.230  -0.011
    1UNL    C18   23  -0.124  -0.151   0.041
    1UNL     O6   24  -0.118  -0.033   0.122
    1UNL    C19   25   0.011   0.019   0.143
    1UNL     O7   26   0.077   0.024   0.023
    1UNL    C20   27   0.213   0.086   0.027
    1UNL    C21   28   0.317   0.002   0.109
    1UNL     O8   29   0.454   0.037   0.096
    1UNL    C22   30   0.499   0.026  -0.030
    1UNL     O9   31   0.435  -0.018  -0.122
    1UNL    C23   32   0.642   0.056  -0.044
    1UNL    C24   33   0.709   0.145   0.044
    1UNL    C25   34   0.843   0.158   0.029
    1UNL    C26   35   0.912   0.073  -0.058
    1UNL    C27   36   0.853  -0.020  -0.137
    1UNL    C28   37   0.720  -0.022  -0.132
    1UNL    C29   38   0.201   0.237   0.066
    1UNL    O10   39   0.299   0.272   0.170
    1UNL    C30   40   0.057   0.264   0.128
    1UNL    O11   41  -0.042   0.295   0.028
    1UNL    C31   42   0.005   0.150   0.224
    1UNL    O12   43  -0.134   0.177   0.265
    1UNL     H1   44  -0.361  -0.573  -0.144
    1UNL     H2   45  -0.378  -0.484  -0.293
    1UNL     H3   46  -0.281  -0.629  -0.295
    1UNL     H4   47  -0.157  -0.440   0.083
    1UNL     H5   48  -0.320  -0.436   0.030
    1UNL     H6   49  -0.229  -0.150   0.286
    1UNL     H7   50  -0.333  -0.304   0.299
    1UNL     H8   51  -0.156  -0.306   0.273
    1UNL     H9   52  -0.382  -0.087  -0.166
    1UNL    H10   53  -0.018   0.032  -0.158
    1UNL    H11   54  -0.159   0.017  -0.271
    1UNL    H12   55  -0.450   0.374  -0.214
    1UNL    H13   56  -0.556   0.534  -0.053
    1UNL    H14   57  -0.603   0.440   0.190
    1UNL    H15   58  -0.532   0.234   0.253
    1UNL    H16   59  -0.434   0.074   0.085
    1UNL    H17   60  -0.040  -0.259  -0.237
    1UNL    H18   61   0.032  -0.328   0.039
    1UNL    H19   62   0.086  -0.165  -0.016
    1UNL    H20   63   0.068  -0.048   0.207
    1UNL    H21   64   0.258   0.084  -0.076
    1UNL    H22   65   0.313  -0.106   0.085
    1UNL    H23   66   0.289   0.006   0.219
    1UNL    H24   67   0.646   0.186   0.120
    1UNL    H25   68   0.891   0.228   0.092
    1UNL    H26   69   1.023   0.074  -0.051
    1UNL    H27   70   0.911  -0.082  -0.202
    1UNL    H28   71   0.674  -0.087  -0.200
    1UNL    H29   72   0.220   0.302  -0.027
    1UNL    H30   73   0.362   0.200   0.180
    1UNL    H31   74   0.072   0.352   0.192
    1UNL    H32   75  -0.075   0.216  -0.010
    1UNL    H33   76   0.063   0.141   0.316
    1UNL    H34   77  -0.194   0.150   0.194
   0.00000   0.00000   0.00000   0.00000   0.00000   0.00000   0.00000   0.00000   0.00000
Generated with MDTraj, t= 51.0
 77
    1UNL     C1    1  -0.258  -0.565  -0.216
    1UNL     O1    2  -0.150  -0.483  -0.187
    1UNL     C2    3  -0.206  -0.361  -0.129
    1UNL     C3    4  -0.238  -0.384   0.026
    1UNL     C4    5  -0.265  -0.236   0.078
    1UNL     C5    6  -0.287  -0.232   0.227
    1UNL     O2    7  -0.381  -0.178   0.012
    1UNL     C6    8  -0.338  -0.167  -0.123
    1UNL     O3    9  -0.325  -0.302  -0.180
    1UNL     C7   10  -0.191  -0.114  -0.112
    1UNL     C8   11  -0.149   0.023  -0.177
    1UNL     O4   12  -0.192   0.134  -0.109
    1UNL     C9   13  -0.315   0.174  -0.156
    1UNL     O5   14  -0.358   0.155  -0.268
    1UNL    C10   15  -0.400   0.243  -0.060
    1UNL    C11   16  -0.467   0.359  -0.093
    1UNL    C12   17  -0.554   0.418   0.001
    1UNL    C13   18  -0.596   0.347   0.113
    1UNL    C14   19  -0.533   0.224   0.144
    1UNL    C15   20  -0.440   0.175   0.058
    1UNL    C16   21  -0.102  -0.245  -0.143
    1UNL    C17   22  -0.020  -0.207  -0.008
    1UNL    C18   23  -0.148  -0.137   0.036
    1UNL     O6   24  -0.120  -0.030   0.127
    1UNL    C19   25   0.014   0.018   0.128
    1UNL     O7   26   0.073   0.047  -0.000
    1UNL    C20   27   0.212   0.092   0.019
    1UNL    C21   28   0.308   0.000   0.108
    1UNL     O8   29   0.449   0.033   0.100
    1UNL    C22   30   0.500   0.009  -0.027
    1UNL     O9   31   0.435  -0.042  -0.118
    1UNL    C23   32   0.646   0.027  -0.028
    1UNL    C24   33   0.694   0.150   0.016
    1UNL    C25   34   0.827   0.185  -0.011
    1UNL    C26   35   0.910   0.095  -0.074
    1UNL    C27   36   0.860  -0.032  -0.109
    1UNL    C28   37   0.731  -0.067  -0.088
    1UNL    C29   38   0.207   0.240   0.073
    1UNL    O10   39   0.319   0.264   0.157
    1UNL    C30   40   0.078   0.265   0.148
    1UNL    O11   41  -0.020   0.326   0.065
    1UNL    C31   42   0.027   0.141   0.224
    1UNL    O12   43  -0.106   0.170   0.278
    1UNL     H1   44  -0.285  -0.616  -0.124
    1UNL     H2   45  -0.344  -0.514  -0.262
    1UNL     H3   46  -0.222  -0.645  -0.284
    1UNL     H4   47  -0.146  -0.423   0.071
    1UNL     H5   48  -0.311  -0.458   0.047
    1UNL     H6   49  -0.328  -0.134   0.264
    1UNL     H7   50  -0.357  -0.313   0.262
    1UNL     H8   51  -0.198  -0.242   0.296
    1UNL     H9   52  -0.412  -0.116  -0.183
    1UNL    H10   53  -0.035   0.020  -0.185
    1UNL    H11   54  -0.187   0.013  -0.280
    1UNL    H12   55  -0.449   0.402  -0.186
    1UNL    H13   56  -0.596   0.516  -0.015
    1UNL    H14   57  -0.650   0.409   0.191
    1UNL    H15   58  -0.536   0.190   0.248
    1UNL    H16   59  -0.388   0.089   0.089
    1UNL    H17   60  -0.047  -0.248  -0.234
    1UNL    H18   61   0.004  -0.304   0.052
    1UNL    H19   62   0.059  -0.132  -0.038
    1UNL    H20   63   0.069  -0.064   0.178
    1UNL    H21   64   0.269   0.097  -0.082
    1UNL    H22   65   0.289  -0.098   0.066
    1UNL    H23   66   0.283  -0.002   0.217
    1UNL    H24   67   0.625   0.210   0.073
    1UNL    H25   68   0.871   0.282   0.007
    1UNL    H26   69   1.006   0.120  -0.103
    1UNL    H27   70   0.935  -0.099  -0.152
    1UNL    H28   71   0.691  -0.154  -0.143
    1UNL    H29   72   0.205   0.313  -0.015
    1UNL    H30   73   0.392   0.208   0.126
    1UNL    H31   74   0.109   0.344   0.215
    1UNL    H32   75  -0.059   0.250   0.007
    1UNL    H33   76   0.097   0.121   0.307
    1UNL    H34   77  -0.169   0.174   0.203
   0.00000   0.00000   0.00000   0.00000   0.00000   0.00000   0.00000   0.00000   0.00000
Generated with MDTraj, t= 52.0
 77
    1UNL     C1    1  -0.268  -0.569  -0.202
    1UNL     O1    2  -0.160  -0.482  -0.178
    1UNL     C2    3  -0.201  -0.356  -0.131
    1UNL     C3    4  -0.246  -0.359   0.024
    1UNL     C4    5  -0.268  -0.216   0.078
    1UNL     C5    6  -0.294  -0.209   0.219
    1UNL     O2    7  -0.375  -0.159  -0.008
    1UNL     C6    8  -0.320  -0.163  -0.143
    1UNL     O3    9  -0.320  -0.294  -0.190
    1UNL     C7   10  -0.168  -0.111  -0.128
    1UNL     C8   11  -0.137   0.037  -0.185
    1UNL     O4   12  -0.197   0.124  -0.102
    1UNL     C9   13  -0.314   0.171  -0.154
    1UNL     O5   14  -0.338   0.174  -0.272
    1UNL    C10   15  -0.404   0.230  -0.053
    1UNL    C11   16  -0.482   0.344  -0.082
    1UNL    C12   17  -0.573   0.393   0.004
    1UNL    C13   18  -0.595   0.322   0.127
    1UNL    C14   19  -0.523   0.209   0.152
    1UNL    C15   20  -0.423   0.163   0.066
    1UNL    C16   21  -0.087  -0.243  -0.149
    1UNL    C17   22  -0.011  -0.212  -0.018
    1UNL    C18   23  -0.143  -0.123   0.027
    1UNL     O6   24  -0.124  -0.016   0.120
    1UNL    C19   25   0.007   0.028   0.122
    1UNL     O7   26   0.081   0.050   0.000
    1UNL    C20   27   0.213   0.092   0.026
    1UNL    C21   28   0.305   0.005   0.108
    1UNL     O8   29   0.439   0.042   0.100
    1UNL    C22   30   0.491  -0.008  -0.020
    1UNL     O9   31   0.441  -0.100  -0.086
    1UNL    C23   32   0.630   0.027  -0.049
    1UNL    C24   33   0.675   0.156  -0.030
    1UNL    C25   34   0.810   0.193  -0.041
    1UNL    C26   35   0.903   0.099  -0.074
    1UNL    C27   36   0.861  -0.036  -0.085
    1UNL    C28   37   0.729  -0.074  -0.079
    1UNL    C29   38   0.212   0.243   0.078
    1UNL    O10   39   0.326   0.275   0.160
    1UNL    C30   40   0.074   0.267   0.151
    1UNL    O11   41  -0.026   0.309   0.059
    1UNL    C31   42   0.029   0.145   0.231
    1UNL    O12   43  -0.094   0.171   0.306
    1UNL     H1   44  -0.305  -0.596  -0.102
    1UNL     H2   45  -0.349  -0.537  -0.272
    1UNL     H3   46  -0.227  -0.669  -0.231
    1UNL     H4   47  -0.172  -0.420   0.082
    1UNL     H5   48  -0.338  -0.406   0.032
    1UNL     H6   49  -0.284  -0.104   0.254
    1UNL     H7   50  -0.395  -0.251   0.245
    1UNL     H8   51  -0.221  -0.264   0.287
    1UNL     H9   52  -0.382  -0.102  -0.208
    1UNL    H10   53  -0.028   0.048  -0.169
    1UNL    H11   54  -0.163   0.037  -0.289
    1UNL    H12   55  -0.483   0.381  -0.187
    1UNL    H13   56  -0.632   0.481  -0.013
    1UNL    H14   57  -0.669   0.362   0.186
    1UNL    H15   58  -0.541   0.153   0.241
    1UNL    H16   59  -0.361   0.073   0.087
    1UNL    H17   60  -0.029  -0.251  -0.238
    1UNL    H18   61  -0.001  -0.312   0.039
    1UNL    H19   62   0.086  -0.155  -0.039
    1UNL    H20   63   0.052  -0.066   0.164
    1UNL    H21   64   0.264   0.091  -0.079
    1UNL    H22   65   0.298  -0.098   0.083
    1UNL    H23   66   0.268   0.016   0.210
    1UNL    H24   67   0.604   0.235  -0.015
    1UNL    H25   68   0.830   0.296  -0.005
    1UNL    H26   69   1.014   0.118  -0.083
    1UNL    H27   70   0.931  -0.113  -0.112
    1UNL    H28   71   0.697  -0.177  -0.099
    1UNL    H29   72   0.202   0.305  -0.014
    1UNL    H30   73   0.364   0.194   0.204
    1UNL    H31   74   0.084   0.356   0.211
    1UNL    H32   75  -0.063   0.231   0.017
    1UNL    H33   76   0.108   0.110   0.300
    1UNL    H34   77  -0.165   0.180   0.239
   0.00000   0.00000   0.00000   0.00000   0.00000   0.00000   0.00000   0.00000   0.00000
Generated with MDTraj, t= 53.0
 77
    1UNL     C1    1  -0.303  -0.533  -0.215
    1UNL     O1    2  -0.182  -0.464  -0.196
    1UNL     C2    3  -0.208  -0.340  -0.130
    1UNL     C3    4  -0.251  -0.355   0.021
    1UNL     C4    5  -0.273  -0.213   0.078
    1UNL     C5    6  -0.302  -0.210   0.229
    1UNL     O2    7  -0.361  -0.134  -0.007
    1UNL     C6    8  -0.309  -0.133  -0.139
    1UNL     O3    9  -0.313  -0.266  -0.197
    1UNL     C7   10  -0.157  -0.106  -0.115
    1UNL     C8   11  -0.116   0.034  -0.177
    1UNL     O4   12  -0.185   0.141  -0.111
    1UNL     C9   13  -0.312   0.162  -0.160
    1UNL     O5   14  -0.337   0.141  -0.275
    1UNL    C10   15  -0.405   0.213  -0.060
    1UNL    C11   16  -0.494   0.318  -0.090
    1UNL    C12   17  -0.576   0.357   0.006
    1UNL    C13   18  -0.575   0.297   0.132
    1UNL    C14   19  -0.487   0.199   0.161
    1UNL    C15   20  -0.392   0.159   0.063
    1UNL    C16   21  -0.078  -0.243  -0.141
    1UNL    C17   22  -0.011  -0.219  -0.011
    1UNL    C18   23  -0.137  -0.131   0.039
    1UNL     O6   24  -0.120  -0.015   0.118
    1UNL    C19   25   0.012   0.022   0.137
    1UNL     O7   26   0.082   0.042   0.010
    1UNL    C20   27   0.213   0.095   0.025
    1UNL    C21   28   0.309   0.016   0.113
    1UNL     O8   29   0.443   0.054   0.086
    1UNL    C22   30   0.499  -0.028  -0.006
    1UNL     O9   31   0.452  -0.132  -0.053
    1UNL    C23   32   0.644   0.012  -0.032
    1UNL    C24   33   0.668   0.145  -0.036
    1UNL    C25   34   0.796   0.190  -0.069
    1UNL    C26   35   0.899   0.105  -0.102
    1UNL    C27   36   0.872  -0.033  -0.096
    1UNL    C28   37   0.745  -0.075  -0.053
    1UNL    C29   38   0.192   0.250   0.072
    1UNL    O10   39   0.306   0.289   0.156
    1UNL    C30   40   0.051   0.267   0.147
    1UNL    O11   41  -0.052   0.316   0.067
    1UNL    C31   42   0.015   0.151   0.232
    1UNL    O12   43  -0.109   0.170   0.292
    1UNL     H1   44  -0.317  -0.596  -0.126
    1UNL     H2   45  -0.396  -0.482  -0.249
    1UNL     H3   46  -0.278  -0.622  -0.280
    1UNL     H4   47  -0.172  -0.416   0.071
    1UNL     H5   48  -0.345  -0.405   0.027
    1UNL     H6   49  -0.300  -0.107   0.272
    1UNL     H7   50  -0.399  -0.264   0.248
    1UNL     H8   51  -0.219  -0.263   0.287
    1UNL     H9   52  -0.364  -0.061  -0.205
    1UNL    H10   53  -0.005   0.037  -0.176
    1UNL    H11   54  -0.147   0.026  -0.276
    1UNL    H12   55  -0.496   0.357  -0.188
    1UNL    H13   56  -0.659   0.429  -0.019
    1UNL    H14   57  -0.656   0.316   0.210
    1UNL    H15   58  -0.495   0.140   0.254
    1UNL    H16   59  -0.324   0.078   0.077
    1UNL    H17   60  -0.036  -0.255  -0.239
    1UNL    H18   61   0.015  -0.310   0.051
    1UNL    H19   62   0.089  -0.159  -0.021
    1UNL    H20   63   0.052  -0.070   0.186
    1UNL    H21   64   0.263   0.087  -0.081
    1UNL    H22   65   0.300  -0.088   0.092
    1UNL    H23   66   0.284   0.034   0.218
    1UNL    H24   67   0.586   0.216  -0.027
    1UNL    H25   68   0.817   0.292  -0.058
    1UNL    H26   69   0.996   0.142  -0.095
    1UNL    H27   70   0.951  -0.104  -0.126
    1UNL    H28   71   0.710  -0.174  -0.057
    1UNL    H29   72   0.192   0.314  -0.016
    1UNL    H30   73   0.373   0.220   0.152
    1UNL    H31   74   0.070   0.350   0.214
    1UNL    H32   75  -0.085   0.236   0.017
    1UNL    H33   76   0.094   0.134   0.308
    1UNL    H34   77  -0.175   0.151   0.223
   0.00000   0.00000   0.00000   0.00000   0.00000   0.00000   0.00000   0.00000   0.00000
Generated with MDTraj, t= 54.0
 77
    1UNL     C1    1  -0.312  -0.514  -0.273
    1UNL     O1    2  -0.200  -0.460  -0.210
    1UNL     C2    3  -0.228  -0.345  -0.138
    1UNL     C3    4  -0.272  -0.365   0.004
    1UNL     C4    5  -0.277  -0.222   0.072
    1UNL     C5    6  -0.312  -0.224   0.221
    1UNL     O2    7  -0.387  -0.151   0.005
    1UNL     C6    8  -0.333  -0.134  -0.130
    1UNL     O3    9  -0.339  -0.268  -0.191
    1UNL     C7   10  -0.184  -0.106  -0.114
    1UNL     C8   11  -0.117   0.019  -0.186
    1UNL     O4   12  -0.156   0.141  -0.129
    1UNL     C9   13  -0.290   0.152  -0.165
    1UNL     O5   14  -0.341   0.107  -0.265
    1UNL    C10   15  -0.384   0.202  -0.060
    1UNL    C11   16  -0.489   0.280  -0.099
    1UNL    C12   17  -0.579   0.320  -0.001
    1UNL    C13   18  -0.563   0.285   0.130
    1UNL    C14   19  -0.457   0.203   0.169
    1UNL    C15   20  -0.371   0.164   0.070
    1UNL    C16   21  -0.106  -0.241  -0.144
    1UNL    C17   22  -0.034  -0.219  -0.010
    1UNL    C18   23  -0.151  -0.129   0.037
    1UNL     O6   24  -0.128  -0.014   0.124
    1UNL    C19   25   0.004   0.025   0.144
    1UNL     O7   26   0.076   0.043   0.019
    1UNL    C20   27   0.210   0.110   0.041
    1UNL    C21   28   0.315   0.035   0.120
    1UNL     O8   29   0.444   0.078   0.084
    1UNL    C22   30   0.516  -0.015   0.018
    1UNL     O9   31   0.479  -0.131   0.009
    1UNL    C23   32   0.654   0.025  -0.020
    1UNL    C24   33   0.687   0.158  -0.047
    1UNL    C25   34   0.810   0.191  -0.092
    1UNL    C26   35   0.900   0.090  -0.128
    1UNL    C27   36   0.866  -0.044  -0.110
    1UNL    C28   37   0.743  -0.072  -0.044
    1UNL    C29   38   0.197   0.262   0.077
    1UNL    O10   39   0.313   0.305   0.151
    1UNL    C30   40   0.066   0.286   0.157
    1UNL    O11   41  -0.043   0.326   0.071
    1UNL    C31   42   0.022   0.158   0.237
    1UNL    O12   43  -0.099   0.182   0.303
    1UNL     H1   44  -0.381  -0.553  -0.199
    1UNL     H2   45  -0.362  -0.447  -0.341
    1UNL     H3   46  -0.284  -0.612  -0.315
    1UNL     H4   47  -0.194  -0.429   0.046
    1UNL     H5   48  -0.373  -0.414   0.005
    1UNL     H6   49  -0.338  -0.118   0.249
    1UNL     H7   50  -0.402  -0.294   0.222
    1UNL     H8   51  -0.226  -0.253   0.287
    1UNL     H9   52  -0.396  -0.064  -0.190
    1UNL    H10   53  -0.013   0.017  -0.151
    1UNL    H11   54  -0.119   0.019  -0.290
    1UNL    H12   55  -0.497   0.330  -0.196
    1UNL    H13   56  -0.663   0.376  -0.023
    1UNL    H14   57  -0.630   0.324   0.199
    1UNL    H15   58  -0.442   0.171   0.268
    1UNL    H16   59  -0.282   0.105   0.095
    1UNL    H17   60  -0.041  -0.251  -0.228
    1UNL    H18   61  -0.027  -0.310   0.057
    1UNL    H19   62   0.067  -0.162  -0.015
    1UNL    H20   63   0.050  -0.064   0.192
    1UNL    H21   64   0.260   0.108  -0.067
    1UNL    H22   65   0.313  -0.070   0.101
    1UNL    H23   66   0.300   0.057   0.227
    1UNL    H24   67   0.620   0.240  -0.030
    1UNL    H25   68   0.835   0.300  -0.100
    1UNL    H26   69   1.003   0.123  -0.150
    1UNL    H27   70   0.929  -0.128  -0.120
    1UNL    H28   71   0.696  -0.176  -0.047
    1UNL    H29   72   0.189   0.319  -0.012
    1UNL    H30   73   0.392   0.259   0.108
    1UNL    H31   74   0.072   0.372   0.225
    1UNL    H32   75  -0.053   0.251   0.007
    1UNL    H33   76   0.088   0.135   0.322
    1UNL    H34   77  -0.159   0.226   0.240
   0.00000   0.00000   0.00000   0.00000   0.00000   0.00000   0.00000   0.00000   0.00000
Generated with MDTraj, t= 55.0
 77
    1UNL     C1    1  -0.304  -0.496  -0.296
    1UNL     O1    2  -0.214  -0.477  -0.187
    1UNL     C2    3  -0.231  -0.349  -0.129
    1UNL     C3    4  -0.273  -0.360   0.021
    1UNL     C4    5  -0.275  -0.211   0.073
    1UNL     C5    6  -0.301  -0.194   0.228
    1UNL     O2    7  -0.369  -0.142  -0.002
    1UNL     C6    8  -0.321  -0.136  -0.141
    1UNL     O3    9  -0.330  -0.270  -0.195
    1UNL     C7   10  -0.165  -0.113  -0.123
    1UNL     C8   11  -0.109   0.021  -0.182
    1UNL     O4   12  -0.173   0.134  -0.117
    1UNL     C9   13  -0.300   0.175  -0.173
    1UNL     O5   14  -0.343   0.145  -0.281
    1UNL    C10   15  -0.395   0.217  -0.066
    1UNL    C11   16  -0.513   0.280  -0.090
    1UNL    C12   17  -0.602   0.313   0.017
    1UNL    C13   18  -0.563   0.303   0.145
    1UNL    C14   19  -0.448   0.230   0.165
    1UNL    C15   20  -0.366   0.184   0.066
    1UNL    C16   21  -0.102  -0.259  -0.140
    1UNL    C17   22  -0.029  -0.235  -0.009
    1UNL    C18   23  -0.138  -0.134   0.031
    1UNL     O6   24  -0.118  -0.018   0.117
    1UNL    C19   25   0.015   0.013   0.137
    1UNL     O7   26   0.084   0.032   0.013
    1UNL    C20   27   0.208   0.118   0.029
    1UNL    C21   28   0.311   0.030   0.105
    1UNL     O8   29   0.438   0.080   0.083
    1UNL    C22   30   0.534  -0.014   0.045
    1UNL     O9   31   0.523  -0.130   0.083
    1UNL    C23   32   0.664   0.023  -0.009
    1UNL    C24   33   0.698   0.155  -0.037
    1UNL    C25   34   0.814   0.190  -0.100
    1UNL    C26   35   0.896   0.085  -0.148
    1UNL    C27   36   0.867  -0.046  -0.121
    1UNL    C28   37   0.744  -0.080  -0.051
    1UNL    C29   38   0.170   0.269   0.062
    1UNL    O10   39   0.284   0.324   0.133
    1UNL    C30   40   0.042   0.270   0.148
    1UNL    O11   41  -0.077   0.300   0.070
    1UNL    C31   42   0.021   0.135   0.229
    1UNL    O12   43  -0.093   0.135   0.308
    1UNL     H1   44  -0.406  -0.471  -0.274
    1UNL     H2   45  -0.271  -0.430  -0.373
    1UNL     H3   46  -0.306  -0.599  -0.331
    1UNL     H4   47  -0.221  -0.432   0.081
    1UNL     H5   48  -0.383  -0.391   0.006
    1UNL     H6   49  -0.260  -0.091   0.248
    1UNL     H7   50  -0.410  -0.204   0.259
    1UNL     H8   51  -0.227  -0.259   0.280
    1UNL     H9   52  -0.367  -0.052  -0.203
    1UNL    H10   53   0.002   0.036  -0.177
    1UNL    H11   54  -0.142   0.030  -0.281
    1UNL    H12   55  -0.548   0.316  -0.185
    1UNL    H13   56  -0.697   0.366  -0.015
    1UNL    H14   57  -0.626   0.331   0.230
    1UNL    H15   58  -0.412   0.221   0.268
    1UNL    H16   59  -0.278   0.128   0.076
    1UNL    H17   60  -0.044  -0.264  -0.230
    1UNL    H18   61  -0.038  -0.327   0.060
    1UNL    H19   62   0.070  -0.180  -0.026
    1UNL    H20   63   0.075  -0.069   0.180
    1UNL    H21   64   0.258   0.123  -0.078
    1UNL    H22   65   0.311  -0.075   0.075
    1UNL    H23   66   0.298   0.037   0.216
    1UNL    H24   67   0.625   0.233  -0.021
    1UNL    H25   68   0.848   0.288  -0.108
    1UNL    H26   69   0.987   0.104  -0.205
    1UNL    H27   70   0.924  -0.135  -0.158
    1UNL    H28   71   0.705  -0.175  -0.032
    1UNL    H29   72   0.152   0.333  -0.023
    1UNL    H30   73   0.367   0.292   0.098
    1UNL    H31   74   0.054   0.357   0.217
    1UNL    H32   75  -0.093   0.225   0.013
    1UNL    H33   76   0.102   0.127   0.304
    1UNL    H34   77  -0.170   0.149   0.248
   0.00000   0.00000   0.00000   0.00000   0.00000   0.00000   0.00000   0.00000   0.00000
Generated with MDTraj, t= 56.0
 77
    1UNL     C1    1  -0.256  -0.495  -0.301
    1UNL     O1    2  -0.207  -0.474  -0.177
    1UNL     C2    3  -0.243  -0.353  -0.129
    1UNL     C3    4  -0.275  -0.352   0.027
    1UNL     C4    5  -0.286  -0.198   0.076
    1UNL     C5    6  -0.305  -0.192   0.230
    1UNL     O2    7  -0.400  -0.147  -0.011
    1UNL     C6    8  -0.346  -0.149  -0.144
    1UNL     O3    9  -0.351  -0.284  -0.195
    1UNL     C7   10  -0.188  -0.112  -0.130
    1UNL     C8   11  -0.135   0.021  -0.191
    1UNL     O4   12  -0.172   0.138  -0.129
    1UNL     C9   13  -0.300   0.168  -0.168
    1UNL     O5   14  -0.352   0.132  -0.270
    1UNL    C10   15  -0.399   0.214  -0.059
    1UNL    C11   16  -0.512   0.288  -0.099
    1UNL    C12   17  -0.596   0.341  -0.000
    1UNL    C13   18  -0.564   0.318   0.130
    1UNL    C14   19  -0.456   0.240   0.171
    1UNL    C15   20  -0.376   0.183   0.074
    1UNL    C16   21  -0.116  -0.250  -0.151
    1UNL    C17   22  -0.040  -0.219  -0.030
    1UNL    C18   23  -0.151  -0.129   0.026
    1UNL     O6   24  -0.113  -0.001   0.091
    1UNL    C19   25   0.028  -0.002   0.132
    1UNL     O7   26   0.102   0.009   0.009
    1UNL    C20   27   0.209   0.114   0.016
    1UNL    C21   28   0.323   0.059   0.097
    1UNL     O8   29   0.448   0.096   0.041
    1UNL    C22   30   0.535  -0.008   0.059
    1UNL     O9   31   0.517  -0.107   0.128
    1UNL    C23   32   0.671   0.020   0.001
    1UNL    C24   33   0.703   0.154  -0.015
    1UNL    C25   34   0.812   0.184  -0.096
    1UNL    C26   35   0.893   0.082  -0.157
    1UNL    C27   36   0.863  -0.050  -0.122
    1UNL    C28   37   0.752  -0.080  -0.048
    1UNL    C29   38   0.164   0.259   0.059
    1UNL    O10   39   0.285   0.335   0.106
    1UNL    C30   40   0.054   0.252   0.168
    1UNL    O11   41  -0.078   0.276   0.119
    1UNL    C31   42   0.050   0.112   0.235
    1UNL    O12   43  -0.050   0.112   0.331
    1UNL     H1   44  -0.362  -0.474  -0.307
    1UNL     H2   45  -0.209  -0.407  -0.348
    1UNL     H3   46  -0.221  -0.585  -0.356
    1UNL     H4   47  -0.192  -0.392   0.082
    1UNL     H5   48  -0.371  -0.412   0.047
    1UNL     H6   49  -0.326  -0.089   0.272
    1UNL     H7   50  -0.386  -0.263   0.263
    1UNL     H8   51  -0.205  -0.218   0.269
    1UNL     H9   52  -0.395  -0.080  -0.220
    1UNL    H10   53  -0.022   0.015  -0.185
    1UNL    H11   54  -0.166   0.040  -0.292
    1UNL    H12   55  -0.535   0.318  -0.201
    1UNL    H13   56  -0.693   0.373  -0.021
    1UNL    H14   57  -0.627   0.348   0.217
    1UNL    H15   58  -0.454   0.212   0.275
    1UNL    H16   59  -0.289   0.120   0.098
    1UNL    H17   60  -0.062  -0.249  -0.245
    1UNL    H18   61  -0.013  -0.320   0.021
    1UNL    H19   62   0.054  -0.165  -0.056
    1UNL    H20   63   0.064  -0.095   0.175
    1UNL    H21   64   0.252   0.116  -0.094
    1UNL    H22   65   0.318  -0.053   0.095
    1UNL    H23   66   0.312   0.086   0.208
    1UNL    H24   67   0.634   0.233   0.011
    1UNL    H25   68   0.844   0.290  -0.106
    1UNL    H26   69   0.981   0.106  -0.215
    1UNL    H27   70   0.920  -0.132  -0.149
    1UNL    H28   71   0.718  -0.184  -0.023
    1UNL    H29   72   0.125   0.310  -0.029
    1UNL    H30   73   0.364   0.295   0.062
    1UNL    H31   74   0.075   0.332   0.245
    1UNL    H32   75  -0.099   0.216   0.039
    1UNL    H33   76   0.138   0.100   0.299
    1UNL    H34   77  -0.135   0.133   0.287
   0.00000   0.00000   0.00000   0.00000   0.00000   0.00000   0.00000   0.00000   0.00000
Generated with MDTraj, t= 57.0
 77
    1UNL     C1    1  -0.225  -0.468  -0.317
    1UNL     O1    2  -0.222  -0.476  -0.176
    1UNL     C2    3  -0.243  -0.348  -0.128
    1UNL     C3    4  -0.291  -0.358   0.024
    1UNL     C4    5  -0.289  -0.213   0.073
    1UNL     C5    6  -0.305  -0.204   0.224
    1UNL     O2    7  -0.390  -0.139   0.006
    1UNL     C6    8  -0.346  -0.140  -0.132
    1UNL     O3    9  -0.350  -0.277  -0.188
    1UNL     C7   10  -0.184  -0.113  -0.127
    1UNL     C8   11  -0.134   0.013  -0.195
    1UNL     O4   12  -0.192   0.130  -0.132
    1UNL     C9   13  -0.324   0.160  -0.166
    1UNL     O5   14  -0.388   0.111  -0.256
    1UNL    C10   15  -0.405   0.228  -0.058
    1UNL    C11   16  -0.505   0.320  -0.104
    1UNL    C12   17  -0.586   0.372  -0.008
    1UNL    C13   18  -0.565   0.340   0.124
    1UNL    C14   19  -0.477   0.244   0.169
    1UNL    C15   20  -0.391   0.194   0.073
    1UNL    C16   21  -0.119  -0.252  -0.153
    1UNL    C17   22  -0.042  -0.230  -0.024
    1UNL    C18   23  -0.150  -0.135   0.025
    1UNL     O6   24  -0.116  -0.022   0.110
    1UNL    C19   25   0.030  -0.012   0.127
    1UNL     O7   26   0.097   0.006  -0.001
    1UNL    C20   27   0.200   0.099   0.003
    1UNL    C21   28   0.322   0.032   0.067
    1UNL     O8   29   0.438   0.110   0.052
    1UNL    C22   30   0.546   0.022   0.067
    1UNL     O9   31   0.549  -0.069   0.147
    1UNL    C23   32   0.671   0.044  -0.011
    1UNL    C24   33   0.733   0.170  -0.035
    1UNL    C25   34   0.860   0.179  -0.106
    1UNL    C26   35   0.927   0.064  -0.141
    1UNL    C27   36   0.871  -0.060  -0.108
    1UNL    C28   37   0.750  -0.064  -0.048
    1UNL    C29   38   0.149   0.240   0.052
    1UNL    O10   39   0.266   0.322   0.081
    1UNL    C30   40   0.054   0.235   0.173
    1UNL    O11   41  -0.080   0.270   0.130
    1UNL    C31   42   0.050   0.101   0.239
    1UNL    O12   43  -0.050   0.097   0.339
    1UNL     H1   44  -0.294  -0.389  -0.348
    1UNL     H2   45  -0.125  -0.422  -0.336
    1UNL     H3   46  -0.231  -0.561  -0.382
    1UNL     H4   47  -0.221  -0.426   0.078
    1UNL     H5   48  -0.396  -0.395   0.028
    1UNL     H6   49  -0.287  -0.096   0.246
    1UNL     H7   50  -0.401  -0.225   0.277
    1UNL     H8   51  -0.221  -0.249   0.285
    1UNL     H9   52  -0.398  -0.067  -0.201
    1UNL    H10   53  -0.021   0.036  -0.195
    1UNL    H11   54  -0.168   0.020  -0.299
    1UNL    H12   55  -0.518   0.332  -0.208
    1UNL    H13   56  -0.672   0.436  -0.032
    1UNL    H14   57  -0.637   0.365   0.192
    1UNL    H15   58  -0.467   0.199   0.267
    1UNL    H16   59  -0.319   0.120   0.099
    1UNL    H17   60  -0.066  -0.251  -0.248
    1UNL    H18   61  -0.047  -0.322   0.043
    1UNL    H19   62   0.068  -0.206  -0.036
    1UNL    H20   63   0.074  -0.105   0.161
    1UNL    H21   64   0.240   0.114  -0.108
    1UNL    H22   65   0.337  -0.071   0.026
    1UNL    H23   66   0.301   0.015   0.179
    1UNL    H24   67   0.681   0.257   0.004
    1UNL    H25   68   0.894   0.272  -0.138
    1UNL    H26   69   1.033   0.066  -0.168
    1UNL    H27   70   0.939  -0.148  -0.110
    1UNL    H28   71   0.702  -0.154  -0.032
    1UNL    H29   72   0.094   0.297  -0.027
    1UNL    H30   73   0.342   0.257   0.073
    1UNL    H31   74   0.085   0.314   0.246
    1UNL    H32   75  -0.114   0.224   0.047
    1UNL    H33   76   0.146   0.089   0.293
    1UNL    H34   77  -0.135   0.116   0.297
   0.00000   0.00000   0.00000   0.00000   0.00000   0.00000   0.00000   0.00000   0.00000
Generated with MDTraj, t= 58.0
 77
    1UNL     C1    1  -0.230  -0.458  -0.339
    1UNL     O1    2  -0.239  -0.473  -0.200
    1UNL     C2    3  -0.264  -0.353  -0.134
    1UNL     C3    4  -0.291  -0.379   0.020
    1UNL     C4    5  -0.278  -0.235   0.086
    1UNL     C5    6  -0.307  -0.232   0.227
    1UNL     O2    7  -0.389  -0.162   0.021
    1UNL     C6    8  -0.350  -0.145  -0.118
    1UNL     O3    9  -0.370  -0.273  -0.194
    1UNL     C7   10  -0.194  -0.123  -0.112
    1UNL     C8   11  -0.146   0.008  -0.159
    1UNL     O4   12  -0.215   0.107  -0.079
    1UNL     C9   13  -0.325   0.160  -0.150
    1UNL     O5   14  -0.358   0.129  -0.262
    1UNL    C10   15  -0.410   0.233  -0.056
    1UNL    C11   16  -0.498   0.327  -0.104
    1UNL    C12   17  -0.568   0.408  -0.018
    1UNL    C13   18  -0.556   0.369   0.122
    1UNL    C14   19  -0.484   0.266   0.168
    1UNL    C15   20  -0.408   0.196   0.078
    1UNL    C16   21  -0.133  -0.267  -0.152
    1UNL    C17   22  -0.043  -0.244  -0.026
    1UNL    C18   23  -0.149  -0.156   0.039
    1UNL     O6   24  -0.109  -0.037   0.110
    1UNL    C19   25   0.032  -0.018   0.131
    1UNL     O7   26   0.096  -0.002   0.008
    1UNL    C20   27   0.199   0.101  -0.000
    1UNL    C21   28   0.332   0.068   0.078
    1UNL     O8   29   0.446   0.096  -0.003
    1UNL    C22   30   0.550   0.025   0.052
    1UNL     O9   31   0.532  -0.045   0.150
    1UNL    C23   32   0.690   0.042  -0.001
    1UNL    C24   33   0.746   0.168  -0.030
    1UNL    C25   34   0.863   0.189  -0.101
    1UNL    C26   35   0.938   0.078  -0.134
    1UNL    C27   36   0.896  -0.050  -0.086
    1UNL    C28   37   0.776  -0.065  -0.028
    1UNL    C29   38   0.153   0.243   0.037
    1UNL    O10   39   0.261   0.326   0.079
    1UNL    C30   40   0.047   0.238   0.150
    1UNL    O11   41  -0.085   0.262   0.086
    1UNL    C31   42   0.050   0.107   0.230
    1UNL    O12   43  -0.050   0.098   0.331
    1UNL     H1   44  -0.293  -0.374  -0.370
    1UNL     H2   45  -0.126  -0.429  -0.365
    1UNL     H3   46  -0.246  -0.557  -0.391
    1UNL     H4   47  -0.212  -0.455   0.054
    1UNL     H5   48  -0.391  -0.419   0.032
    1UNL     H6   49  -0.317  -0.138   0.284
    1UNL     H7   50  -0.400  -0.289   0.249
    1UNL     H8   51  -0.225  -0.291   0.278
    1UNL     H9   52  -0.403  -0.051  -0.154
    1UNL    H10   53  -0.038   0.038  -0.133
    1UNL    H11   54  -0.157   0.033  -0.266
    1UNL    H12   55  -0.498   0.356  -0.211
    1UNL    H13   56  -0.623   0.495  -0.044
    1UNL    H14   57  -0.611   0.436   0.195
    1UNL    H15   58  -0.487   0.240   0.273
    1UNL    H16   59  -0.330   0.127   0.115
    1UNL    H17   60  -0.081  -0.275  -0.247
    1UNL    H18   61  -0.029  -0.340   0.029
    1UNL    H19   62   0.056  -0.194  -0.050
    1UNL    H20   63   0.063  -0.111   0.176
    1UNL    H21   64   0.232   0.096  -0.113
    1UNL    H22   65   0.327  -0.042   0.094
    1UNL    H23   66   0.336   0.112   0.184
    1UNL    H24   67   0.679   0.251  -0.021
    1UNL    H25   68   0.892   0.288  -0.140
    1UNL    H26   69   1.035   0.073  -0.182
    1UNL    H27   70   0.967  -0.129  -0.100
    1UNL    H28   71   0.746  -0.172  -0.009
    1UNL    H29   72   0.106   0.298  -0.052
    1UNL    H30   73   0.336   0.298   0.022
    1UNL    H31   74   0.070   0.317   0.223
    1UNL    H32   75  -0.123   0.186   0.042
    1UNL    H33   76   0.148   0.097   0.278
    1UNL    H34   77  -0.139   0.082   0.289
   0.00000   0.00000   0.00000   0.00000   0.00000   0.00000   0.00000   0.00000   0.00000
Generated with MDTraj, t= 59.0
 77
    1UNL     C1    1  -0.290  -0.469  -0.342
    1UNL     O1    2  -0.236  -0.480  -0.216
    1UNL     C2    3  -0.248  -0.358  -0.141
    1UNL     C3    4  -0.265  -0.386   0.014
    1UNL     C4    5  -0.268  -0.257   0.095
    1UNL     C5    6  -0.272  -0.262   0.241
    1UNL     O2    7  -0.377  -0.189   0.038
    1UNL     C6    8  -0.346  -0.158  -0.104
    1UNL     O3    9  -0.358  -0.284  -0.181
    1UNL     C7   10  -0.191  -0.124  -0.105
    1UNL     C8   11  -0.151   0.008  -0.173
    1UNL     O4   12  -0.196   0.127  -0.093
    1UNL     C9   13  -0.315   0.172  -0.145
    1UNL     O5   14  -0.369   0.137  -0.247
    1UNL    C10   15  -0.397   0.256  -0.051
    1UNL    C11   16  -0.479   0.352  -0.105
    1UNL    C12   17  -0.556   0.433  -0.026
    1UNL    C13   18  -0.568   0.400   0.111
    1UNL    C14   19  -0.497   0.294   0.158
    1UNL    C15   20  -0.405   0.222   0.085
    1UNL    C16   21  -0.130  -0.258  -0.163
    1UNL    C17   22  -0.031  -0.257  -0.044
    1UNL    C18   23  -0.144  -0.173   0.048
    1UNL     O6   24  -0.116  -0.055   0.123
    1UNL    C19   25   0.025  -0.018   0.127
    1UNL     O7   26   0.070   0.002  -0.007
    1UNL    C20   27   0.186   0.083  -0.015
    1UNL    C21   28   0.307   0.027   0.062
    1UNL     O8   29   0.428   0.100   0.023
    1UNL    C22   30   0.543   0.026   0.053
    1UNL     O9   31   0.534  -0.057   0.142
    1UNL    C23   32   0.678   0.054  -0.009
    1UNL    C24   33   0.717   0.179  -0.056
    1UNL    C25   34   0.846   0.196  -0.101
    1UNL    C26   35   0.940   0.097  -0.096
    1UNL    C27   36   0.908  -0.026  -0.052
    1UNL    C28   37   0.776  -0.054  -0.017
    1UNL    C29   38   0.156   0.226   0.028
    1UNL    O10   39   0.269   0.305   0.041
    1UNL    C30   40   0.068   0.234   0.152
    1UNL    O11   41  -0.065   0.278   0.114
    1UNL    C31   42   0.051   0.102   0.231
    1UNL    O12   43  -0.064   0.099   0.320
    1UNL     H1   44  -0.388  -0.435  -0.320
    1UNL     H2   45  -0.242  -0.390  -0.396
    1UNL     H3   46  -0.282  -0.571  -0.385
    1UNL     H4   47  -0.172  -0.451   0.036
    1UNL     H5   48  -0.353  -0.445   0.030
    1UNL     H6   49  -0.293  -0.161   0.279
    1UNL     H7   50  -0.360  -0.322   0.275
    1UNL     H8   51  -0.178  -0.306   0.283
    1UNL     H9   52  -0.405  -0.068  -0.139
    1UNL    H10   53  -0.037   0.008  -0.183
    1UNL    H11   54  -0.187   0.027  -0.274
    1UNL    H12   55  -0.464   0.375  -0.204
    1UNL    H13   56  -0.604   0.523  -0.068
    1UNL    H14   57  -0.634   0.460   0.168
    1UNL    H15   58  -0.496   0.274   0.264
    1UNL    H16   59  -0.348   0.139   0.117
    1UNL    H17   60  -0.105  -0.242  -0.267
    1UNL    H18   61  -0.007  -0.358  -0.007
    1UNL    H19   62   0.063  -0.198  -0.059
    1UNL    H20   63   0.067  -0.108   0.171
    1UNL    H21   64   0.206   0.083  -0.128
    1UNL    H22   65   0.310  -0.081   0.050
    1UNL    H23   66   0.285   0.039   0.171
    1UNL    H24   67   0.633   0.245  -0.074
    1UNL    H25   68   0.880   0.287  -0.143
    1UNL    H26   69   1.038   0.120  -0.133
    1UNL    H27   70   0.978  -0.105  -0.047
    1UNL    H28   71   0.753  -0.144   0.031
    1UNL    H29   72   0.092   0.282  -0.052
    1UNL    H30   73   0.341   0.246   0.081
    1UNL    H31   74   0.112   0.308   0.219
    1UNL    H32   75  -0.106   0.219   0.042
    1UNL    H33   76   0.141   0.089   0.296
    1UNL    H34   77  -0.140   0.116   0.264
   0.00000   0.00000   0.00000   0.00000   0.00000   0.00000   0.00000   0.00000   0.00000
Generated with MDTraj, t= 60.0
 77
    1UNL     C1    1  -0.339  -0.492  -0.326
    1UNL     O1    2  -0.231  -0.471  -0.242
    1UNL     C2    3  -0.252  -0.359  -0.152
    1UNL     C3    4  -0.260  -0.397   0.002
    1UNL     C4    5  -0.251  -0.269   0.092
    1UNL     C5    6  -0.242  -0.281   0.240
    1UNL     O2    7  -0.369  -0.196   0.056
    1UNL     C6    8  -0.342  -0.162  -0.083
    1UNL     O3    9  -0.366  -0.274  -0.178
    1UNL     C7   10  -0.188  -0.124  -0.097
    1UNL     C8   11  -0.152   0.012  -0.161
    1UNL     O4   12  -0.209   0.122  -0.084
    1UNL     C9   13  -0.326   0.161  -0.135
    1UNL     O5   14  -0.375   0.124  -0.238
    1UNL    C10   15  -0.404   0.259  -0.053
    1UNL    C11   16  -0.473   0.363  -0.115
    1UNL    C12   17  -0.536   0.452  -0.032
    1UNL    C13   18  -0.545   0.442   0.103
    1UNL    C14   19  -0.482   0.330   0.163
    1UNL    C15   20  -0.413   0.240   0.082
    1UNL    C16   21  -0.126  -0.257  -0.163
    1UNL    C17   22  -0.026  -0.248  -0.049
    1UNL    C18   23  -0.134  -0.175   0.038
    1UNL     O6   24  -0.096  -0.065   0.118
    1UNL    C19   25   0.040  -0.030   0.119
    1UNL     O7   26   0.084  -0.005  -0.015
    1UNL    C20   27   0.192   0.089  -0.033
    1UNL    C21   28   0.311   0.025   0.042
    1UNL     O8   29   0.437   0.069  -0.004
    1UNL    C22   30   0.535  -0.010   0.053
    1UNL     O9   31   0.509  -0.110   0.120
    1UNL    C23   32   0.672   0.049   0.027
    1UNL    C24   33   0.678   0.172  -0.040
    1UNL    C25   34   0.794   0.209  -0.098
    1UNL    C26   35   0.911   0.134  -0.088
    1UNL    C27   36   0.906   0.015  -0.025
    1UNL    C28   37   0.789  -0.023   0.044
    1UNL    C29   38   0.155   0.235   0.015
    1UNL    O10   39   0.275   0.308   0.047
    1UNL    C30   40   0.059   0.233   0.143
    1UNL    O11   41  -0.077   0.269   0.111
    1UNL    C31   42   0.061   0.092   0.216
    1UNL    O12   43  -0.032   0.114   0.317
    1UNL     H1   44  -0.400  -0.527  -0.245
    1UNL     H2   45  -0.378  -0.399  -0.359
    1UNL     H3   46  -0.312  -0.565  -0.404
    1UNL     H4   47  -0.190  -0.483   0.013
    1UNL     H5   48  -0.356  -0.449   0.011
    1UNL     H6   49  -0.232  -0.174   0.272
    1UNL     H7   50  -0.342  -0.312   0.279
    1UNL     H8   51  -0.160  -0.345   0.269
    1UNL     H9   52  -0.409  -0.079  -0.110
    1UNL    H10   53  -0.040   0.029  -0.166
    1UNL    H11   54  -0.186   0.016  -0.263
    1UNL    H12   55  -0.462   0.362  -0.228
    1UNL    H13   56  -0.585   0.533  -0.079
    1UNL    H14   57  -0.602   0.509   0.163
    1UNL    H15   58  -0.500   0.308   0.266
    1UNL    H16   59  -0.367   0.151   0.128
    1UNL    H17   60  -0.085  -0.247  -0.263
    1UNL    H18   61   0.010  -0.341   0.000
    1UNL    H19   62   0.074  -0.203  -0.074
    1UNL    H20   63   0.093  -0.120   0.154
    1UNL    H21   64   0.218   0.096  -0.143
    1UNL    H22   65   0.309  -0.080   0.023
    1UNL    H23   66   0.302   0.024   0.153
    1UNL    H24   67   0.591   0.233  -0.053
    1UNL    H25   68   0.790   0.292  -0.170
    1UNL    H26   69   0.995   0.178  -0.143
    1UNL    H27   70   1.004  -0.031  -0.009
    1UNL    H28   71   0.805  -0.113   0.104
    1UNL    H29   72   0.101   0.304  -0.063
    1UNL    H30   73   0.348   0.248   0.059
    1UNL    H31   74   0.098   0.302   0.218
    1UNL    H32   75  -0.111   0.208   0.048
    1UNL    H33   76   0.160   0.084   0.263
    1UNL    H34   77  -0.118   0.133   0.272
   0.00000   0.00000   0.00000   0.00000   0.00000   0.00000   0.00000   0.00000   0.00000
Generated with MDTraj, t= 61.0
 77
    1UNL     C1    1  -0.377  -0.514  -0.275
    1UNL     O1    2  -0.244  -0.466  -0.239
    1UNL     C2    3  -0.249  -0.354  -0.153
    1UNL     C3    4  -0.251  -0.406  -0.002
    1UNL     C4    5  -0.247  -0.277   0.080
    1UNL     C5    6  -0.241  -0.293   0.235
    1UNL     O2    7  -0.367  -0.206   0.047
    1UNL     C6    8  -0.350  -0.171  -0.087
    1UNL     O3    9  -0.366  -0.279  -0.175
    1UNL     C7   10  -0.195  -0.123  -0.102
    1UNL     C8   11  -0.174   0.020  -0.163
    1UNL     O4   12  -0.231   0.112  -0.081
    1UNL     C9   13  -0.352   0.149  -0.130
    1UNL     O5   14  -0.407   0.110  -0.230
    1UNL    C10   15  -0.412   0.258  -0.058
    1UNL    C11   16  -0.471   0.370  -0.121
    1UNL    C12   17  -0.528   0.470  -0.043
    1UNL    C13   18  -0.516   0.472   0.092
    1UNL    C14   19  -0.452   0.364   0.162
    1UNL    C15   20  -0.402   0.260   0.082
    1UNL    C16   21  -0.131  -0.246  -0.175
    1UNL    C17   22  -0.024  -0.243  -0.061
    1UNL    C18   23  -0.135  -0.180   0.031
    1UNL     O6   24  -0.101  -0.075   0.122
    1UNL    C19   25   0.038  -0.032   0.112
    1UNL     O7   26   0.076   0.002  -0.027
    1UNL    C20   27   0.201   0.079  -0.031
    1UNL    C21   28   0.314  -0.002   0.028
    1UNL     O8   29   0.432   0.073   0.021
    1UNL    C22   30   0.539  -0.012   0.042
    1UNL     O9   31   0.535  -0.124   0.094
    1UNL    C23   32   0.664   0.050  -0.004
    1UNL    C24   33   0.683   0.167  -0.082
    1UNL    C25   34   0.804   0.234  -0.090
    1UNL    C26   35   0.911   0.175  -0.036
    1UNL    C27   36   0.899   0.057   0.027
    1UNL    C28   37   0.773  -0.004   0.050
    1UNL    C29   38   0.178   0.225   0.028
    1UNL    O10   39   0.297   0.301   0.060
    1UNL    C30   40   0.074   0.228   0.140
    1UNL    O11   41  -0.053   0.263   0.100
    1UNL    C31   42   0.060   0.087   0.210
    1UNL    O12   43  -0.031   0.083   0.315
    1UNL     H1   44  -0.422  -0.511  -0.176
    1UNL     H2   45  -0.426  -0.442  -0.342
    1UNL     H3   46  -0.379  -0.620  -0.310
    1UNL     H4   47  -0.167  -0.469   0.008
    1UNL     H5   48  -0.338  -0.475   0.015
    1UNL     H6   49  -0.264  -0.201   0.296
    1UNL     H7   50  -0.317  -0.368   0.261
    1UNL     H8   51  -0.144  -0.334   0.253
    1UNL     H9   52  -0.427  -0.096  -0.104
    1UNL    H10   53  -0.066   0.052  -0.160
    1UNL    H11   54  -0.208   0.031  -0.262
    1UNL    H12   55  -0.480   0.367  -0.225
    1UNL    H13   56  -0.577   0.550  -0.098
    1UNL    H14   57  -0.560   0.553   0.157
    1UNL    H15   58  -0.467   0.363   0.271
    1UNL    H16   59  -0.363   0.179   0.136
    1UNL    H17   60  -0.112  -0.211  -0.277
    1UNL    H18   61   0.010  -0.341  -0.021
    1UNL    H19   62   0.061  -0.184  -0.094
    1UNL    H20   63   0.103  -0.119   0.138
    1UNL    H21   64   0.231   0.096  -0.137
    1UNL    H22   65   0.320  -0.101  -0.009
    1UNL    H23   66   0.304  -0.022   0.137
    1UNL    H24   67   0.595   0.204  -0.135
    1UNL    H25   68   0.810   0.315  -0.160
    1UNL    H26   69   1.006   0.226  -0.048
    1UNL    H27   70   0.991   0.023   0.075
    1UNL    H28   71   0.774  -0.087   0.121
    1UNL    H29   72   0.124   0.280  -0.059
    1UNL    H30   73   0.361   0.244   0.109
    1UNL    H31   74   0.097   0.299   0.220
    1UNL    H32   75  -0.094   0.188   0.044
    1UNL    H33   76   0.155   0.076   0.269
    1UNL    H34   77  -0.113   0.035   0.283
   0.00000   0.00000   0.00000   0.00000   0.00000   0.00000   0.00000   0.00000   0.00000
Generated with MDTraj, t= 62.0
 77
    1UNL     C1    1  -0.362  -0.568  -0.249
    1UNL     O1    2  -0.247  -0.485  -0.227
    1UNL     C2    3  -0.274  -0.368  -0.156
    1UNL     C3    4  -0.260  -0.403  -0.003
    1UNL     C4    5  -0.258  -0.276   0.076
    1UNL     C5    6  -0.223  -0.300   0.225
    1UNL     O2    7  -0.379  -0.197   0.058
    1UNL     C6    8  -0.380  -0.168  -0.088
    1UNL     O3    9  -0.396  -0.287  -0.175
    1UNL     C7   10  -0.228  -0.129  -0.117
    1UNL     C8   11  -0.189   0.008  -0.171
    1UNL     O4   12  -0.224   0.119  -0.095
    1UNL     C9   13  -0.353   0.155  -0.116
    1UNL     O5   14  -0.423   0.106  -0.201
    1UNL    C10   15  -0.404   0.272  -0.044
    1UNL    C11   16  -0.476   0.366  -0.114
    1UNL    C12   17  -0.536   0.478  -0.051
    1UNL    C13   18  -0.507   0.496   0.081
    1UNL    C14   19  -0.424   0.406   0.152
    1UNL    C15   20  -0.374   0.295   0.094
    1UNL    C16   21  -0.166  -0.258  -0.185
    1UNL    C17   22  -0.050  -0.252  -0.085
    1UNL    C18   23  -0.150  -0.174   0.013
    1UNL     O6   24  -0.105  -0.070   0.101
    1UNL    C19   25   0.031  -0.036   0.105
    1UNL     O7   26   0.084   0.005  -0.022
    1UNL    C20   27   0.211   0.075  -0.026
    1UNL    C21   28   0.335  -0.005   0.011
    1UNL     O8   29   0.449   0.063  -0.028
    1UNL    C22   30   0.560  -0.005   0.006
    1UNL     O9   31   0.561  -0.123   0.038
    1UNL    C23   32   0.689   0.068   0.001
    1UNL    C24   33   0.702   0.179  -0.073
    1UNL    C25   34   0.825   0.246  -0.074
    1UNL    C26   35   0.933   0.191  -0.018
    1UNL    C27   36   0.915   0.091   0.074
    1UNL    C28   37   0.795   0.029   0.083
    1UNL    C29   38   0.178   0.212   0.044
    1UNL    O10   39   0.297   0.273   0.096
    1UNL    C30   40   0.064   0.213   0.155
    1UNL    O11   41  -0.065   0.257   0.114
    1UNL    C31   42   0.048   0.068   0.213
    1UNL    O12   43  -0.053   0.068   0.307
    1UNL     H1   44  -0.415  -0.576  -0.152
    1UNL     H2   45  -0.429  -0.517  -0.322
    1UNL     H3   46  -0.332  -0.677  -0.267
    1UNL     H4   47  -0.174  -0.459   0.014
    1UNL     H5   48  -0.348  -0.467   0.029
    1UNL     H6   49  -0.214  -0.202   0.276
    1UNL     H7   50  -0.311  -0.341   0.275
    1UNL     H8   51  -0.139  -0.366   0.245
    1UNL     H9   52  -0.440  -0.083  -0.115
    1UNL    H10   53  -0.080   0.016  -0.198
    1UNL    H11   54  -0.243   0.010  -0.262
    1UNL    H12   55  -0.479   0.357  -0.223
    1UNL    H13   56  -0.591   0.548  -0.113
    1UNL    H14   57  -0.541   0.586   0.121
    1UNL    H15   58  -0.401   0.430   0.254
    1UNL    H16   59  -0.324   0.215   0.151
    1UNL    H17   60  -0.135  -0.245  -0.291
    1UNL    H18   61  -0.024  -0.357  -0.063
    1UNL    H19   62   0.026  -0.186  -0.124
    1UNL    H20   63   0.096  -0.124   0.131
    1UNL    H21   64   0.229   0.092  -0.132
    1UNL    H22   65   0.340  -0.103  -0.027
    1UNL    H23   66   0.331  -0.025   0.119
    1UNL    H24   67   0.630   0.193  -0.152
    1UNL    H25   68   0.835   0.336  -0.132
    1UNL    H26   69   1.028   0.234  -0.032
    1UNL    H27   70   0.995   0.055   0.136
    1UNL    H28   71   0.784  -0.041   0.164
    1UNL    H29   72   0.144   0.281  -0.043
    1UNL    H30   73   0.380   0.226   0.065
    1UNL    H31   74   0.097   0.283   0.234
    1UNL    H32   75  -0.099   0.197   0.050
    1UNL    H33   76   0.139   0.049   0.273
    1UNL    H34   77  -0.137   0.049   0.262
   0.00000   0.00000   0.00000   0.00000   0.00000   0.00000   0.00000   0.00000   0.00000
Generated with MDTraj, t= 63.0
 77
    1UNL     C1    1  -0.394  -0.564  -0.218
    1UNL     O1    2  -0.273  -0.496  -0.223
    1UNL     C2    3  -0.274  -0.378  -0.152
    1UNL     C3    4  -0.263  -0.405   0.001
    1UNL     C4    5  -0.263  -0.266   0.076
    1UNL     C5    6  -0.250  -0.270   0.228
    1UNL     O2    7  -0.393  -0.212   0.044
    1UNL     C6    8  -0.383  -0.180  -0.095
    1UNL     O3    9  -0.395  -0.306  -0.170
    1UNL     C7   10  -0.233  -0.140  -0.127
    1UNL     C8   11  -0.202   0.005  -0.183
    1UNL     O4   12  -0.238   0.112  -0.097
    1UNL     C9   13  -0.364   0.149  -0.113
    1UNL     O5   14  -0.446   0.094  -0.184
    1UNL    C10   15  -0.401   0.284  -0.045
    1UNL    C11   16  -0.497   0.362  -0.102
    1UNL    C12   17  -0.541   0.479  -0.039
    1UNL    C13   18  -0.481   0.513   0.084
    1UNL    C14   19  -0.377   0.442   0.138
    1UNL    C15   20  -0.342   0.323   0.078
    1UNL    C16   21  -0.163  -0.267  -0.186
    1UNL    C17   22  -0.051  -0.253  -0.081
    1UNL    C18   23  -0.152  -0.172   0.008
    1UNL     O6   24  -0.103  -0.059   0.083
    1UNL    C19   25   0.034  -0.045   0.087
    1UNL     O7   26   0.095  -0.001  -0.041
    1UNL    C20   27   0.214   0.082  -0.041
    1UNL    C21   28   0.349   0.019  -0.004
    1UNL     O8   29   0.458   0.092  -0.031
    1UNL    C22   30   0.564   0.014  -0.001
    1UNL     O9   31   0.545  -0.104   0.018
    1UNL    C23   32   0.697   0.076  -0.004
    1UNL    C24   33   0.717   0.186  -0.082
    1UNL    C25   34   0.836   0.260  -0.064
    1UNL    C26   35   0.933   0.218   0.024
    1UNL    C27   36   0.914   0.103   0.097
    1UNL    C28   37   0.797   0.037   0.092
    1UNL    C29   38   0.184   0.201   0.061
    1UNL    O10   39   0.301   0.230   0.136
    1UNL    C30   40   0.062   0.191   0.153
    1UNL    O11   41  -0.065   0.215   0.090
    1UNL    C31   42   0.062   0.051   0.204
    1UNL    O12   43  -0.029   0.039   0.305
    1UNL     H1   44  -0.396  -0.663  -0.174
    1UNL     H2   45  -0.472  -0.497  -0.179
    1UNL     H3   46  -0.403  -0.588  -0.329
    1UNL     H4   47  -0.183  -0.468   0.037
    1UNL     H5   48  -0.352  -0.465   0.019
    1UNL     H6   49  -0.263  -0.174   0.277
    1UNL     H7   50  -0.321  -0.331   0.281
    1UNL     H8   51  -0.151  -0.308   0.260
    1UNL     H9   52  -0.457  -0.112  -0.132
    1UNL    H10   53  -0.092   0.005  -0.210
    1UNL    H11   54  -0.256   0.015  -0.274
    1UNL    H12   55  -0.534   0.333  -0.200
    1UNL    H13   56  -0.605   0.550  -0.086
    1UNL    H14   57  -0.509   0.611   0.126
    1UNL    H15   58  -0.331   0.475   0.228
    1UNL    H16   59  -0.274   0.255   0.124
    1UNL    H17   60  -0.139  -0.267  -0.294
    1UNL    H18   61  -0.018  -0.343  -0.033
    1UNL    H19   62   0.035  -0.192  -0.101
    1UNL    H20   63   0.076  -0.146   0.114
    1UNL    H21   64   0.231   0.110  -0.141
    1UNL    H22   65   0.355  -0.076  -0.053
    1UNL    H23   66   0.356  -0.009   0.103
    1UNL    H24   67   0.637   0.221  -0.149
    1UNL    H25   68   0.857   0.349  -0.130
    1UNL    H26   69   1.025   0.279   0.043
    1UNL    H27   70   0.988   0.089   0.175
    1UNL    H28   71   0.772  -0.033   0.173
    1UNL    H29   72   0.162   0.295   0.003
    1UNL    H30   73   0.382   0.239   0.086
    1UNL    H31   74   0.072   0.267   0.234
    1UNL    H32   75  -0.095   0.142   0.027
    1UNL    H33   76   0.159   0.020   0.246
    1UNL    H34   77  -0.118   0.066   0.270
   0.00000   0.00000   0.00000   0.00000   0.00000   0.00000   0.00000   0.00000   0.00000
Generated with MDTraj, t= 64.0
 77
    1UNL     C1    1  -0.402  -0.569  -0.217
    1UNL     O1    2  -0.285  -0.488  -0.227
    1UNL     C2    3  -0.292  -0.371  -0.139
    1UNL     C3    4  -0.276  -0.403   0.011
    1UNL     C4    5  -0.259  -0.266   0.086
    1UNL     C5    6  -0.226  -0.258   0.236
    1UNL     O2    7  -0.378  -0.190   0.052
    1UNL     C6    8  -0.382  -0.168  -0.092
    1UNL     O3    9  -0.414  -0.291  -0.150
    1UNL     C7   10  -0.235  -0.135  -0.123
    1UNL     C8   11  -0.211  -0.001  -0.200
    1UNL     O4   12  -0.244   0.109  -0.120
    1UNL     C9   13  -0.376   0.144  -0.128
    1UNL     O5   14  -0.456   0.085  -0.202
    1UNL    C10   15  -0.404   0.267  -0.051
    1UNL    C11   16  -0.523   0.338  -0.075
    1UNL    C12   17  -0.543   0.458  -0.013
    1UNL    C13   18  -0.447   0.515   0.075
    1UNL    C14   19  -0.329   0.455   0.093
    1UNL    C15   20  -0.310   0.326   0.034
    1UNL    C16   21  -0.181  -0.266  -0.187
    1UNL    C17   22  -0.059  -0.250  -0.094
    1UNL    C18   23  -0.149  -0.174   0.002
    1UNL     O6   24  -0.110  -0.065   0.079
    1UNL    C19   25   0.036  -0.057   0.073
    1UNL     O7   26   0.084   0.011  -0.050
    1UNL    C20   27   0.205   0.092  -0.044
    1UNL    C21   28   0.330   0.007  -0.026
    1UNL     O8   29   0.441   0.083  -0.020
    1UNL    C22   30   0.558   0.016   0.009
    1UNL     O9   31   0.555  -0.104   0.018
    1UNL    C23   32   0.684   0.094   0.018
    1UNL    C24   33   0.710   0.214  -0.063
    1UNL    C25   34   0.830   0.280  -0.053
    1UNL    C26   35   0.926   0.232   0.037
    1UNL    C27   36   0.907   0.111   0.103
    1UNL    C28   37   0.787   0.046   0.100
    1UNL    C29   38   0.195   0.205   0.064
    1UNL    O10   39   0.317   0.227   0.136
    1UNL    C30   40   0.080   0.176   0.160
    1UNL    O11   41  -0.042   0.207   0.103
    1UNL    C31   42   0.078   0.029   0.205
    1UNL    O12   43  -0.010  -0.001   0.312
    1UNL     H1   44  -0.383  -0.675  -0.206
    1UNL     H2   45  -0.474  -0.533  -0.146
    1UNL     H3   46  -0.442  -0.537  -0.314
    1UNL     H4   47  -0.192  -0.475   0.015
    1UNL     H5   48  -0.361  -0.456   0.044
    1UNL     H6   49  -0.216  -0.157   0.272
    1UNL     H7   50  -0.296  -0.299   0.307
    1UNL     H8   51  -0.130  -0.308   0.259
    1UNL     H9   52  -0.456  -0.095  -0.119
    1UNL    H10   53  -0.103   0.004  -0.234
    1UNL    H11   54  -0.271  -0.000  -0.289
    1UNL    H12   55  -0.595   0.289  -0.135
    1UNL    H13   56  -0.626   0.520  -0.053
    1UNL    H14   57  -0.457   0.610   0.126
    1UNL    H15   58  -0.248   0.487   0.158
    1UNL    H16   59  -0.227   0.276   0.064
    1UNL    H17   60  -0.163  -0.282  -0.296
    1UNL    H18   61  -0.016  -0.336  -0.051
    1UNL    H19   62   0.019  -0.190  -0.133
    1UNL    H20   63   0.071  -0.163   0.082
    1UNL    H21   64   0.215   0.129  -0.141
    1UNL    H22   65   0.344  -0.081  -0.089
    1UNL    H23   66   0.307  -0.034   0.076
    1UNL    H24   67   0.631   0.256  -0.117
    1UNL    H25   68   0.853   0.352  -0.123
    1UNL    H26   69   1.021   0.272   0.036
    1UNL    H27   70   0.984   0.081   0.173
    1UNL    H28   71   0.766  -0.035   0.166
    1UNL    H29   72   0.171   0.300   0.009
    1UNL    H30   73   0.388   0.259   0.072
    1UNL    H31   74   0.093   0.242   0.250
    1UNL    H32   75  -0.063   0.137   0.037
    1UNL    H33   76   0.176   0.000   0.245
    1UNL    H34   77  -0.097   0.038   0.297
   0.00000   0.00000   0.00000   0.00000   0.00000   0.00000   0.00000   0.00000   0.00000
Generated with MDTraj, t= 65.0
 77
    1UNL     C1    1  -0.438  -0.545  -0.225
    1UNL     O1    2  -0.304  -0.500  -0.211
    1UNL     C2    3  -0.296  -0.379  -0.134
    1UNL     C3    4  -0.269  -0.396   0.017
    1UNL     C4    5  -0.243  -0.260   0.082
    1UNL     C5    6  -0.211  -0.281   0.225
    1UNL     O2    7  -0.376  -0.194   0.069
    1UNL     C6    8  -0.385  -0.171  -0.071
    1UNL     O3    9  -0.422  -0.292  -0.136
    1UNL     C7   10  -0.241  -0.140  -0.126
    1UNL     C8   11  -0.213  -0.013  -0.206
    1UNL     O4   12  -0.229   0.109  -0.137
    1UNL     C9   13  -0.361   0.156  -0.138
    1UNL     O5   14  -0.451   0.101  -0.207
    1UNL    C10   15  -0.386   0.285  -0.070
    1UNL    C11   16  -0.520   0.320  -0.052
    1UNL    C12   17  -0.560   0.435   0.017
    1UNL    C13   18  -0.462   0.510   0.083
    1UNL    C14   19  -0.330   0.479   0.055
    1UNL    C15   20  -0.293   0.369  -0.024
    1UNL    C16   21  -0.194  -0.273  -0.198
    1UNL    C17   22  -0.057  -0.253  -0.117
    1UNL    C18   23  -0.144  -0.175  -0.007
    1UNL     O6   24  -0.098  -0.063   0.063
    1UNL    C19   25   0.043  -0.059   0.074
    1UNL     O7   26   0.087   0.001  -0.042
    1UNL    C20   27   0.203   0.087  -0.039
    1UNL    C21   28   0.334   0.006  -0.034
    1UNL     O8   29   0.458   0.062  -0.064
    1UNL    C22   30   0.563   0.006   0.008
    1UNL     O9   31   0.565  -0.103   0.059
    1UNL    C23   32   0.691   0.086   0.011
    1UNL    C24   33   0.697   0.215  -0.043
    1UNL    C25   34   0.802   0.296  -0.025
    1UNL    C26   35   0.909   0.250   0.055
    1UNL    C27   36   0.906   0.122   0.114
    1UNL    C28   37   0.799   0.039   0.080
    1UNL    C29   38   0.182   0.212   0.063
    1UNL    O10   39   0.312   0.256   0.112
    1UNL    C30   40   0.082   0.168   0.186
    1UNL    O11   41  -0.045   0.210   0.141
    1UNL    C31   42   0.084   0.015   0.208
    1UNL    O12   43  -0.001  -0.019   0.312
    1UNL     H1   44  -0.444  -0.614  -0.308
    1UNL     H2   45  -0.464  -0.602  -0.138
    1UNL     H3   46  -0.510  -0.464  -0.234
    1UNL     H4   47  -0.195  -0.477   0.039
    1UNL     H5   48  -0.360  -0.425   0.060
    1UNL     H6   49  -0.213  -0.185   0.275
    1UNL     H7   50  -0.294  -0.336   0.272
    1UNL     H8   51  -0.116  -0.331   0.242
    1UNL     H9   52  -0.452  -0.088  -0.087
    1UNL    H10   53  -0.102  -0.004  -0.237
    1UNL    H11   54  -0.270  -0.012  -0.298
    1UNL    H12   55  -0.597   0.257  -0.106
    1UNL    H13   56  -0.658   0.467   0.030
    1UNL    H14   57  -0.490   0.595   0.138
    1UNL    H15   58  -0.250   0.532   0.103
    1UNL    H16   59  -0.183   0.343  -0.027
    1UNL    H17   60  -0.186  -0.279  -0.310
    1UNL    H18   61  -0.017  -0.341  -0.074
    1UNL    H19   62   0.002  -0.178  -0.162
    1UNL    H20   63   0.079  -0.163   0.070
    1UNL    H21   64   0.197   0.123  -0.138
    1UNL    H22   65   0.315  -0.069  -0.114
    1UNL    H23   66   0.340  -0.060   0.057
    1UNL    H24   67   0.612   0.247  -0.109
    1UNL    H25   68   0.821   0.396  -0.075
    1UNL    H26   69   1.007   0.304   0.042
    1UNL    H27   70   0.997   0.082   0.155
    1UNL    H28   71   0.779  -0.053   0.135
    1UNL    H29   72   0.130   0.299   0.017
    1UNL    H30   73   0.381   0.193   0.083
    1UNL    H31   74   0.104   0.220   0.283
    1UNL    H32   75  -0.065   0.153   0.058
    1UNL    H33   76   0.189  -0.009   0.226
    1UNL    H34   77  -0.092  -0.002   0.279
   0.00000   0.00000   0.00000   0.00000   0.00000   0.00000   0.00000   0.00000   0.00000
Generated with MDTraj, t= 66.0
 77
    1UNL     C1    1  -0.452  -0.521  -0.214
    1UNL     O1    2  -0.317  -0.487  -0.221
    1UNL     C2    3  -0.312  -0.363  -0.148
    1UNL     C3    4  -0.285  -0.398   0.006
    1UNL     C4    5  -0.252  -0.269   0.086
    1UNL     C5    6  -0.223  -0.298   0.236
    1UNL     O2    7  -0.368  -0.192   0.064
    1UNL     C6    8  -0.384  -0.157  -0.069
    1UNL     O3    9  -0.430  -0.277  -0.141
    1UNL     C7   10  -0.240  -0.133  -0.119
    1UNL     C8   11  -0.193  -0.010  -0.181
    1UNL     O4   12  -0.225   0.104  -0.106
    1UNL     C9   13  -0.354   0.149  -0.126
    1UNL     O5   14  -0.432   0.101  -0.207
    1UNL    C10   15  -0.396   0.277  -0.061
    1UNL    C11   16  -0.524   0.298  -0.015
    1UNL    C12   17  -0.558   0.418   0.049
    1UNL    C13   18  -0.463   0.517   0.060
    1UNL    C14   19  -0.335   0.489   0.019
    1UNL    C15   20  -0.303   0.381  -0.055
    1UNL    C16   21  -0.196  -0.260  -0.194
    1UNL    C17   22  -0.066  -0.264  -0.108
    1UNL    C18   23  -0.148  -0.186   0.002
    1UNL     O6   24  -0.084  -0.077   0.068
    1UNL    C19   25   0.063  -0.070   0.060
    1UNL     O7   26   0.112  -0.028  -0.067
    1UNL    C20   27   0.214   0.076  -0.058
    1UNL    C21   28   0.340  -0.002  -0.030
    1UNL     O8   29   0.450   0.079  -0.031
    1UNL    C22   30   0.551   0.019   0.035
    1UNL     O9   31   0.561  -0.097   0.071
    1UNL    C23   32   0.674   0.095   0.029
    1UNL    C24   33   0.673   0.224  -0.010
    1UNL    C25   34   0.786   0.297  -0.009
    1UNL    C26   35   0.909   0.250   0.044
    1UNL    C27   36   0.909   0.123   0.095
    1UNL    C28   37   0.793   0.044   0.083
    1UNL    C29   38   0.188   0.200   0.035
    1UNL    O10   39   0.301   0.261   0.093
    1UNL    C30   40   0.096   0.164   0.151
    1UNL    O11   41  -0.034   0.205   0.126
    1UNL    C31   42   0.107   0.018   0.188
    1UNL    O12   43   0.022  -0.022   0.297
    1UNL     H1   44  -0.462  -0.614  -0.274
    1UNL     H2   45  -0.464  -0.553  -0.110
    1UNL     H3   46  -0.541  -0.453  -0.235
    1UNL     H4   47  -0.200  -0.464   0.019
    1UNL     H5   48  -0.370  -0.449   0.045
    1UNL     H6   49  -0.224  -0.202   0.288
    1UNL     H7   50  -0.309  -0.359   0.271
    1UNL     H8   51  -0.131  -0.349   0.247
    1UNL     H9   52  -0.449  -0.071  -0.082
    1UNL    H10   53  -0.080  -0.019  -0.197
    1UNL    H11   54  -0.235   0.008  -0.279
    1UNL    H12   55  -0.597   0.228  -0.021
    1UNL    H13   56  -0.664   0.429   0.080
    1UNL    H14   57  -0.490   0.616   0.105
    1UNL    H15   58  -0.255   0.559   0.039
    1UNL    H16   59  -0.204   0.349  -0.084
    1UNL    H17   60  -0.188  -0.235  -0.303
    1UNL    H18   61  -0.032  -0.359  -0.082
    1UNL    H19   62   0.007  -0.199  -0.147
    1UNL    H20   63   0.099  -0.172   0.076
    1UNL    H21   64   0.228   0.123  -0.154
    1UNL    H22   65   0.354  -0.094  -0.091
    1UNL    H23   66   0.334  -0.048   0.073
    1UNL    H24   67   0.582   0.268  -0.036
    1UNL    H25   68   0.779   0.395  -0.047
    1UNL    H26   69   0.995   0.308   0.035
    1UNL    H27   70   0.992   0.071   0.140
    1UNL    H28   71   0.775  -0.052   0.126
    1UNL    H29   72   0.138   0.278  -0.023
    1UNL    H30   73   0.374   0.224   0.045
    1UNL    H31   74   0.116   0.220   0.245
    1UNL    H32   75  -0.074   0.148   0.061
    1UNL    H33   76   0.213   0.012   0.222
    1UNL    H34   77  -0.069   0.000   0.271
   0.00000   0.00000   0.00000   0.00000   0.00000   0.00000   0.00000   0.00000   0.00000
Generated with MDTraj, t= 67.0
 77
    1UNL     C1    1  -0.462  -0.516  -0.233
    1UNL     O1    2  -0.330  -0.467  -0.235
    1UNL     C2    3  -0.318  -0.355  -0.152
    1UNL     C3    4  -0.297  -0.405   0.005
    1UNL     C4    5  -0.265  -0.277   0.080
    1UNL     C5    6  -0.216  -0.292   0.225
    1UNL     O2    7  -0.385  -0.192   0.064
    1UNL     C6    8  -0.379  -0.151  -0.078
    1UNL     O3    9  -0.427  -0.256  -0.150
    1UNL     C7   10  -0.228  -0.137  -0.115
    1UNL     C8   11  -0.189  -0.005  -0.175
    1UNL     O4   12  -0.212   0.111  -0.100
    1UNL     C9   13  -0.341   0.152  -0.110
    1UNL     O5   14  -0.417   0.096  -0.187
    1UNL    C10   15  -0.385   0.280  -0.039
    1UNL    C11   16  -0.510   0.288   0.013
    1UNL    C12   17  -0.556   0.407   0.057
    1UNL    C13   18  -0.476   0.517   0.060
    1UNL    C14   19  -0.349   0.517  -0.001
    1UNL    C15   20  -0.306   0.396  -0.050
    1UNL    C16   21  -0.194  -0.268  -0.188
    1UNL    C17   22  -0.071  -0.288  -0.092
    1UNL    C18   23  -0.144  -0.198   0.002
    1UNL     O6   24  -0.073  -0.103   0.087
    1UNL    C19   25   0.062  -0.086   0.071
    1UNL     O7   26   0.085  -0.040  -0.058
    1UNL    C20   27   0.204   0.050  -0.080
    1UNL    C21   28   0.335  -0.012  -0.030
    1UNL     O8   29   0.453   0.074  -0.027
    1UNL    C22   30   0.559   0.028   0.050
    1UNL     O9   31   0.565  -0.082   0.102
    1UNL    C23   32   0.687   0.100   0.040
    1UNL    C24   33   0.688   0.237   0.010
    1UNL    C25   34   0.806   0.314   0.009
    1UNL    C26   35   0.928   0.259   0.047
    1UNL    C27   36   0.924   0.121   0.085
    1UNL    C28   37   0.804   0.045   0.084
    1UNL    C29   38   0.165   0.181  -0.007
    1UNL    O10   39   0.272   0.271   0.021
    1UNL    C30   40   0.089   0.159   0.129
    1UNL    O11   41  -0.059   0.181   0.129
    1UNL    C31   42   0.115   0.015   0.180
    1UNL    O12   43   0.034   0.006   0.298
    1UNL     H1   44  -0.454  -0.627  -0.246
    1UNL     H2   45  -0.506  -0.499  -0.132
    1UNL     H3   46  -0.550  -0.487  -0.302
    1UNL     H4   47  -0.230  -0.486   0.019
    1UNL     H5   48  -0.392  -0.437   0.052
    1UNL     H6   49  -0.176  -0.195   0.258
    1UNL     H7   50  -0.303  -0.323   0.283
    1UNL     H8   51  -0.136  -0.365   0.230
    1UNL     H9   52  -0.440  -0.061  -0.095
    1UNL    H10   53  -0.078  -0.003  -0.196
    1UNL    H11   54  -0.237   0.009  -0.270
    1UNL    H12   55  -0.577   0.195   0.018
    1UNL    H13   56  -0.654   0.418   0.089
    1UNL    H14   57  -0.507   0.611   0.088
    1UNL    H15   58  -0.288   0.605   0.009
    1UNL    H16   59  -0.216   0.378  -0.103
    1UNL    H17   60  -0.170  -0.258  -0.298
    1UNL    H18   61  -0.045  -0.383  -0.055
    1UNL    H19   62   0.024  -0.257  -0.127
    1UNL    H20   63   0.108  -0.182   0.092
    1UNL    H21   64   0.218   0.072  -0.189
    1UNL    H22   65   0.359  -0.099  -0.091
    1UNL    H23   66   0.328  -0.062   0.070
    1UNL    H24   67   0.601   0.300   0.031
    1UNL    H25   68   0.800   0.418  -0.028
    1UNL    H26   69   1.019   0.322   0.049
    1UNL    H27   70   1.014   0.079   0.124
    1UNL    H28   71   0.797  -0.057   0.124
    1UNL    H29   72   0.108   0.243  -0.075
    1UNL    H30   73   0.347   0.207   0.029
    1UNL    H31   74   0.127   0.226   0.206
    1UNL    H32   75  -0.101   0.150   0.044
    1UNL    H33   76   0.222   0.003   0.214
    1UNL    H34   77  -0.059   0.023   0.270
   0.00000   0.00000   0.00000   0.00000   0.00000   0.00000   0.00000   0.00000   0.00000
Generated with MDTraj, t= 68.0
 77
    1UNL     C1    1  -0.459  -0.473  -0.277
    1UNL     O1    2  -0.329  -0.475  -0.236
    1UNL     C2    3  -0.312  -0.361  -0.144
    1UNL     C3    4  -0.290  -0.411   0.007
    1UNL     C4    5  -0.259  -0.281   0.086
    1UNL     C5    6  -0.231  -0.301   0.240
    1UNL     O2    7  -0.379  -0.200   0.067
    1UNL     C6    8  -0.380  -0.155  -0.068
    1UNL     O3    9  -0.423  -0.267  -0.142
    1UNL     C7   10  -0.230  -0.136  -0.113
    1UNL     C8   11  -0.178  -0.005  -0.170
    1UNL     O4   12  -0.201   0.109  -0.091
    1UNL     C9   13  -0.328   0.164  -0.116
    1UNL     O5   14  -0.402   0.105  -0.193
    1UNL    C10   15  -0.374   0.287  -0.050
    1UNL    C11   16  -0.502   0.288   0.014
    1UNL    C12   17  -0.546   0.399   0.075
    1UNL    C13   18  -0.472   0.511   0.077
    1UNL    C14   19  -0.346   0.516   0.014
    1UNL    C15   20  -0.299   0.403  -0.050
    1UNL    C16   21  -0.190  -0.271  -0.184
    1UNL    C17   22  -0.067  -0.284  -0.082
    1UNL    C18   23  -0.152  -0.197   0.012
    1UNL     O6   24  -0.089  -0.087   0.087
    1UNL    C19   25   0.055  -0.091   0.085
    1UNL     O7   26   0.125  -0.091  -0.048
    1UNL    C20   27   0.209   0.026  -0.077
    1UNL    C21   28   0.344  -0.005  -0.014
    1UNL     O8   29   0.448   0.090  -0.036
    1UNL    C22   30   0.547   0.043   0.042
    1UNL     O9   31   0.536  -0.059   0.109
    1UNL    C23   32   0.684   0.109   0.036
    1UNL    C24   33   0.683   0.249   0.011
    1UNL    C25   34   0.806   0.321   0.026
    1UNL    C26   35   0.919   0.251   0.059
    1UNL    C27   36   0.917   0.110   0.088
    1UNL    C28   37   0.799   0.040   0.070
    1UNL    C29   38   0.138   0.157  -0.028
    1UNL    O10   39   0.229   0.262  -0.063
    1UNL    C30   40   0.098   0.154   0.123
    1UNL    O11   41  -0.033   0.201   0.129
    1UNL    C31   42   0.103   0.017   0.187
    1UNL    O12   43   0.021   0.013   0.302
    1UNL     H1   44  -0.469  -0.535  -0.368
    1UNL     H2   45  -0.537  -0.517  -0.213
    1UNL     H3   46  -0.497  -0.375  -0.312
    1UNL     H4   47  -0.213  -0.480   0.019
    1UNL     H5   48  -0.386  -0.453   0.044
    1UNL     H6   49  -0.207  -0.211   0.293
    1UNL     H7   50  -0.308  -0.359   0.288
    1UNL     H8   51  -0.136  -0.358   0.243
    1UNL     H9   52  -0.451  -0.074  -0.091
    1UNL    H10   53  -0.069  -0.012  -0.202
    1UNL    H11   54  -0.231   0.017  -0.260
    1UNL    H12   55  -0.559   0.203   0.015
    1UNL    H13   56  -0.647   0.404   0.122
    1UNL    H14   57  -0.513   0.598   0.134
    1UNL    H15   58  -0.283   0.605   0.014
    1UNL    H16   59  -0.193   0.407  -0.092
    1UNL    H17   60  -0.162  -0.277  -0.294
    1UNL    H18   61  -0.048  -0.385  -0.054
    1UNL    H19   62   0.024  -0.244  -0.119
    1UNL    H20   63   0.078  -0.183   0.138
    1UNL    H21   64   0.224   0.028  -0.190
    1UNL    H22   65   0.375  -0.108  -0.024
    1UNL    H23   66   0.328   0.005   0.096
    1UNL    H24   67   0.591   0.304   0.001
    1UNL    H25   68   0.799   0.428   0.013
    1UNL    H26   69   1.012   0.284   0.021
    1UNL    H27   70   1.011   0.055   0.099
    1UNL    H28   71   0.789  -0.063   0.096
    1UNL    H29   72   0.047   0.177  -0.084
    1UNL    H30   73   0.320   0.223  -0.042
    1UNL    H31   74   0.157   0.222   0.182
    1UNL    H32   75  -0.090   0.127   0.085
    1UNL    H33   76   0.207  -0.014   0.213
    1UNL    H34   77  -0.070   0.024   0.270
   0.00000   0.00000   0.00000   0.00000   0.00000   0.00000   0.00000   0.00000   0.00000
Generated with MDTraj, t= 69.0
 77
    1UNL     C1    1  -0.429  -0.456  -0.318
    1UNL     O1    2  -0.345  -0.481  -0.213
    1UNL     C2    3  -0.320  -0.360  -0.142
    1UNL     C3    4  -0.302  -0.397   0.006
    1UNL     C4    5  -0.265  -0.267   0.090
    1UNL     C5    6  -0.240  -0.300   0.234
    1UNL     O2    7  -0.378  -0.176   0.068
    1UNL     C6    8  -0.379  -0.146  -0.068
    1UNL     O3    9  -0.430  -0.261  -0.141
    1UNL     C7   10  -0.231  -0.131  -0.113
    1UNL     C8   11  -0.185  -0.004  -0.178
    1UNL     O4   12  -0.203   0.104  -0.098
    1UNL     C9   13  -0.331   0.154  -0.130
    1UNL     O5   14  -0.406   0.110  -0.216
    1UNL    C10   15  -0.374   0.270  -0.048
    1UNL    C11   16  -0.499   0.283   0.017
    1UNL    C12   17  -0.529   0.395   0.088
    1UNL    C13   18  -0.436   0.499   0.092
    1UNL    C14   19  -0.315   0.485   0.037
    1UNL    C15   20  -0.279   0.369  -0.033
    1UNL    C16   21  -0.201  -0.268  -0.185
    1UNL    C17   22  -0.063  -0.280  -0.103
    1UNL    C18   23  -0.142  -0.195   0.008
    1UNL     O6   24  -0.090  -0.087   0.086
    1UNL    C19   25   0.052  -0.100   0.109
    1UNL     O7   26   0.123  -0.111  -0.019
    1UNL    C20   27   0.206  -0.004  -0.062
    1UNL    C21   28   0.351  -0.027  -0.015
    1UNL     O8   29   0.438   0.090  -0.013
    1UNL    C22   30   0.546   0.052   0.059
    1UNL     O9   31   0.545  -0.062   0.107
    1UNL    C23   32   0.676   0.128   0.046
    1UNL    C24   33   0.673   0.259   0.010
    1UNL    C25   34   0.796   0.329   0.012
    1UNL    C26   35   0.911   0.260   0.052
    1UNL    C27   36   0.919   0.122   0.077
    1UNL    C28   37   0.796   0.059   0.071
    1UNL    C29   38   0.134   0.133  -0.039
    1UNL    O10   39   0.216   0.244  -0.085
    1UNL    C30   40   0.092   0.162   0.111
    1UNL    O11   41  -0.044   0.216   0.115
    1UNL    C31   42   0.100   0.023   0.191
    1UNL    O12   43   0.035   0.033   0.315
    1UNL     H1   44  -0.436  -0.541  -0.382
    1UNL     H2   45  -0.530  -0.424  -0.307
    1UNL     H3   46  -0.370  -0.392  -0.381
    1UNL     H4   47  -0.232  -0.480   0.006
    1UNL     H5   48  -0.400  -0.425   0.048
    1UNL     H6   49  -0.218  -0.209   0.286
    1UNL     H7   50  -0.330  -0.339   0.276
    1UNL     H8   51  -0.153  -0.364   0.255
    1UNL     H9   52  -0.436  -0.054  -0.087
    1UNL    H10   53  -0.074  -0.010  -0.199
    1UNL    H11   54  -0.238   0.008  -0.270
    1UNL    H12   55  -0.578   0.207  -0.003
    1UNL    H13   56  -0.619   0.402   0.142
    1UNL    H14   57  -0.465   0.582   0.147
    1UNL    H15   58  -0.253   0.572   0.042
    1UNL    H16   59  -0.187   0.354  -0.073
    1UNL    H17   60  -0.182  -0.264  -0.295
    1UNL    H18   61  -0.049  -0.384  -0.083
    1UNL    H19   62   0.015  -0.219  -0.141
    1UNL    H20   63   0.070  -0.190   0.166
    1UNL    H21   64   0.210  -0.024  -0.176
    1UNL    H22   65   0.403  -0.100  -0.075
    1UNL    H23   66   0.349  -0.081   0.084
    1UNL    H24   67   0.577   0.306  -0.001
    1UNL    H25   68   0.803   0.436  -0.003
    1UNL    H26   69   1.013   0.302   0.032
    1UNL    H27   70   1.010   0.065   0.071
    1UNL    H28   71   0.790  -0.045   0.108
    1UNL    H29   72   0.041   0.133  -0.096
    1UNL    H30   73   0.308   0.222  -0.070
    1UNL    H31   74   0.156   0.233   0.158
    1UNL    H32   75  -0.104   0.157   0.072
    1UNL    H33   76   0.208  -0.009   0.204
    1UNL    H34   77  -0.058   0.057   0.297
   0.00000   0.00000   0.00000   0.00000   0.00000   0.00000   0.00000   0.00000   0.00000
Generated with MDTraj, t= 70.0
 77
    1UNL     C1    1  -0.379  -0.435  -0.342
    1UNL     O1    2  -0.345  -0.479  -0.212
    1UNL     C2    3  -0.327  -0.364  -0.124
    1UNL     C3    4  -0.317  -0.390   0.026
    1UNL     C4    5  -0.276  -0.251   0.096
    1UNL     C5    6  -0.242  -0.244   0.244
    1UNL     O2    7  -0.391  -0.159   0.066
    1UNL     C6    8  -0.398  -0.151  -0.075
    1UNL     O3    9  -0.438  -0.270  -0.137
    1UNL     C7   10  -0.241  -0.139  -0.125
    1UNL     C8   11  -0.198  -0.012  -0.205
    1UNL     O4   12  -0.202   0.106  -0.130
    1UNL     C9   13  -0.327   0.156  -0.134
    1UNL     O5   14  -0.422   0.106  -0.189
    1UNL    C10   15  -0.354   0.276  -0.046
    1UNL    C11   16  -0.482   0.298  -0.015
    1UNL    C12   17  -0.508   0.392   0.081
    1UNL    C13   18  -0.411   0.479   0.130
    1UNL    C14   19  -0.287   0.468   0.078
    1UNL    C15   20  -0.255   0.364  -0.005
    1UNL    C16   21  -0.205  -0.277  -0.182
    1UNL    C17   22  -0.077  -0.280  -0.095
    1UNL    C18   23  -0.161  -0.187   0.003
    1UNL     O6   24  -0.102  -0.082   0.076
    1UNL    C19   25   0.041  -0.102   0.091
    1UNL     O7   26   0.117  -0.117  -0.032
    1UNL    C20   27   0.218  -0.022  -0.059
    1UNL    C21   28   0.349  -0.048   0.014
    1UNL     O8   29   0.451   0.052  -0.009
    1UNL    C22   30   0.563   0.034   0.072
    1UNL     O9   31   0.579  -0.074   0.126
    1UNL    C23   32   0.673   0.131   0.056
    1UNL    C24   33   0.657   0.259   0.002
    1UNL    C25   34   0.761   0.344  -0.014
    1UNL    C26   35   0.892   0.300   0.024
    1UNL    C27   36   0.911   0.170   0.061
    1UNL    C28   37   0.802   0.092   0.089
    1UNL    C29   38   0.156   0.121  -0.029
    1UNL    O10   39   0.236   0.230  -0.081
    1UNL    C30   40   0.083   0.146   0.107
    1UNL    O11   41  -0.046   0.198   0.094
    1UNL    C31   42   0.088   0.012   0.183
    1UNL    O12   43   0.007   0.014   0.299
    1UNL     H1   44  -0.425  -0.503  -0.411
    1UNL     H2   45  -0.436  -0.346  -0.353
    1UNL     H3   46  -0.282  -0.429  -0.387
    1UNL     H4   47  -0.240  -0.468   0.049
    1UNL     H5   48  -0.417  -0.419   0.055
    1UNL     H6   49  -0.218  -0.141   0.267
    1UNL     H7   50  -0.325  -0.270   0.306
    1UNL     H8   51  -0.149  -0.289   0.281
    1UNL     H9   52  -0.459  -0.062  -0.102
    1UNL    H10   53  -0.098  -0.038  -0.252
    1UNL    H11   54  -0.270   0.003  -0.282
    1UNL    H12   55  -0.562   0.239  -0.054
    1UNL    H13   56  -0.612   0.397   0.117
    1UNL    H14   57  -0.440   0.553   0.208
    1UNL    H15   58  -0.208   0.537   0.112
    1UNL    H16   59  -0.152   0.363  -0.054
    1UNL    H17   60  -0.196  -0.282  -0.294
    1UNL    H18   61  -0.040  -0.365  -0.041
    1UNL    H19   62   0.008  -0.228  -0.135
    1UNL    H20   63   0.049  -0.191   0.153
    1UNL    H21   64   0.245  -0.029  -0.171
    1UNL    H22   65   0.389  -0.150   0.007
    1UNL    H23   66   0.328  -0.032   0.123
    1UNL    H24   67   0.557   0.301   0.012
    1UNL    H25   68   0.747   0.440  -0.059
    1UNL    H26   69   0.971   0.366   0.024
    1UNL    H27   70   1.006   0.119   0.074
    1UNL    H28   71   0.823  -0.004   0.131
    1UNL    H29   72   0.070   0.121  -0.096
    1UNL    H30   73   0.327   0.231  -0.037
    1UNL    H31   74   0.137   0.217   0.167
    1UNL    H32   75  -0.097   0.152   0.024
    1UNL    H33   76   0.191  -0.006   0.224
    1UNL    H34   77  -0.077   0.065   0.285
   0.00000   0.00000   0.00000   0.00000   0.00000   0.00000   0.00000   0.00000   0.00000
Generated with MDTraj, t= 71.0
 77
    1UNL     C1    1  -0.383  -0.511  -0.322
    1UNL     O1    2  -0.359  -0.496  -0.188
    1UNL     C2    3  -0.340  -0.362  -0.130
    1UNL     C3    4  -0.334  -0.376   0.023
    1UNL     C4    5  -0.290  -0.234   0.078
    1UNL     C5    6  -0.255  -0.237   0.224
    1UNL     O2    7  -0.394  -0.145   0.044
    1UNL     C6    8  -0.401  -0.144  -0.102
    1UNL     O3    9  -0.451  -0.265  -0.161
    1UNL     C7   10  -0.252  -0.136  -0.145
    1UNL     C8   11  -0.209  -0.006  -0.222
    1UNL     O4   12  -0.206   0.101  -0.137
    1UNL     C9   13  -0.327   0.164  -0.134
    1UNL     O5   14  -0.423   0.137  -0.203
    1UNL    C10   15  -0.351   0.269  -0.030
    1UNL    C11   16  -0.478   0.316  -0.001
    1UNL    C12   17  -0.495   0.421   0.091
    1UNL    C13   18  -0.389   0.482   0.142
    1UNL    C14   19  -0.261   0.444   0.106
    1UNL    C15   20  -0.244   0.336   0.021
    1UNL    C16   21  -0.216  -0.279  -0.194
    1UNL    C17   22  -0.097  -0.282  -0.104
    1UNL    C18   23  -0.166  -0.180  -0.017
    1UNL     O6   24  -0.089  -0.070   0.042
    1UNL    C19   25   0.033  -0.111   0.099
    1UNL     O7   26   0.142  -0.130   0.009
    1UNL    C20   27   0.238  -0.031  -0.031
    1UNL    C21   28   0.373  -0.056   0.032
    1UNL     O8   29   0.459   0.041  -0.005
    1UNL    C22   30   0.571   0.025   0.072
    1UNL     O9   31   0.589  -0.072   0.144
    1UNL    C23   32   0.676   0.126   0.033
    1UNL    C24   33   0.643   0.245  -0.036
    1UNL    C25   34   0.727   0.354  -0.037
    1UNL    C26   35   0.856   0.342   0.017
    1UNL    C27   36   0.888   0.222   0.067
    1UNL    C28   37   0.803   0.114   0.083
    1UNL    C29   38   0.175   0.112  -0.017
    1UNL    O10   39   0.265   0.217  -0.043
    1UNL    C30   40   0.104   0.131   0.120
    1UNL    O11   41  -0.014   0.201   0.091
    1UNL    C31   42   0.077  -0.006   0.199
    1UNL    O12   43  -0.023   0.017   0.299
    1UNL     H1   44  -0.409  -0.612  -0.357
    1UNL     H2   45  -0.455  -0.441  -0.366
    1UNL     H3   46  -0.287  -0.488  -0.374
    1UNL     H4   47  -0.263  -0.461   0.053
    1UNL     H5   48  -0.431  -0.398   0.057
    1UNL     H6   49  -0.224  -0.144   0.272
    1UNL     H7   50  -0.342  -0.279   0.274
    1UNL     H8   51  -0.170  -0.299   0.242
    1UNL     H9   52  -0.465  -0.059  -0.136
    1UNL    H10   53  -0.100  -0.024  -0.246
    1UNL    H11   54  -0.265   0.013  -0.311
    1UNL    H12   55  -0.556   0.259  -0.050
    1UNL    H13   56  -0.592   0.448   0.123
    1UNL    H14   57  -0.399   0.556   0.217
    1UNL    H15   58  -0.173   0.491   0.141
    1UNL    H16   59  -0.146   0.315  -0.012
    1UNL    H17   60  -0.186  -0.310  -0.299
    1UNL    H18   61  -0.075  -0.374  -0.052
    1UNL    H19   62  -0.003  -0.250  -0.150
    1UNL    H20   63   0.013  -0.205   0.154
    1UNL    H21   64   0.258  -0.045  -0.143
    1UNL    H22   65   0.416  -0.157   0.008
    1UNL    H23   66   0.369  -0.051   0.145
    1UNL    H24   67   0.541   0.247  -0.064
    1UNL    H25   68   0.694   0.448  -0.086
    1UNL    H26   69   0.930   0.422  -0.015
    1UNL    H27   70   0.991   0.214   0.091
    1UNL    H28   71   0.836   0.017   0.121
    1UNL    H29   72   0.094   0.118  -0.089
    1UNL    H30   73   0.352   0.182  -0.014
    1UNL    H31   74   0.164   0.202   0.176
    1UNL    H32   75  -0.080   0.134   0.048
    1UNL    H33   76   0.176  -0.033   0.244
    1UNL    H34   77  -0.050   0.111   0.294
   0.00000   0.00000   0.00000   0.00000   0.00000   0.00000   0.00000   0.00000   0.00000
Generated with MDTraj, t= 72.0
 77
    1UNL     C1    1  -0.436  -0.484  -0.294
    1UNL     O1    2  -0.346  -0.490  -0.196
    1UNL     C2    3  -0.330  -0.361  -0.137
    1UNL     C3    4  -0.310  -0.366   0.019
    1UNL     C4    5  -0.292  -0.221   0.064
    1UNL     C5    6  -0.266  -0.200   0.213
    1UNL     O2    7  -0.404  -0.138   0.027
    1UNL     C6    8  -0.403  -0.144  -0.118
    1UNL     O3    9  -0.443  -0.278  -0.161
    1UNL     C7   10  -0.253  -0.135  -0.160
    1UNL     C8   11  -0.203  -0.003  -0.225
    1UNL     O4   12  -0.205   0.113  -0.141
    1UNL     C9   13  -0.327   0.178  -0.138
    1UNL     O5   14  -0.415   0.137  -0.209
    1UNL    C10   15  -0.349   0.286  -0.046
    1UNL    C11   16  -0.475   0.315   0.003
    1UNL    C12   17  -0.489   0.415   0.100
    1UNL    C13   18  -0.374   0.471   0.153
    1UNL    C14   19  -0.249   0.442   0.098
    1UNL    C15   20  -0.237   0.352  -0.005
    1UNL    C16   21  -0.213  -0.278  -0.200
    1UNL    C17   22  -0.083  -0.270  -0.107
    1UNL    C18   23  -0.169  -0.163  -0.029
    1UNL     O6   24  -0.080  -0.059   0.027
    1UNL    C19   25   0.022  -0.122   0.103
    1UNL     O7   26   0.139  -0.174   0.032
    1UNL    C20   27   0.235  -0.067  -0.011
    1UNL    C21   28   0.378  -0.065   0.052
    1UNL     O8   29   0.465   0.020  -0.005
    1UNL    C22   30   0.584   0.023   0.068
    1UNL     O9   31   0.619  -0.063   0.147
    1UNL    C23   32   0.675   0.141   0.036
    1UNL    C24   33   0.643   0.239  -0.055
    1UNL    C25   34   0.722   0.350  -0.071
    1UNL    C26   35   0.845   0.367  -0.015
    1UNL    C27   36   0.876   0.270   0.082
    1UNL    C28   37   0.798   0.159   0.101
    1UNL    C29   38   0.163   0.079  -0.002
    1UNL    O10   39   0.243   0.185  -0.053
    1UNL    C30   40   0.107   0.110   0.141
    1UNL    O11   41  -0.010   0.182   0.122
    1UNL    C31   42   0.071  -0.024   0.218
    1UNL    O12   43  -0.033  -0.017   0.323
    1UNL     H1   44  -0.466  -0.587  -0.327
    1UNL     H2   45  -0.525  -0.427  -0.258
    1UNL     H3   46  -0.407  -0.428  -0.388
    1UNL     H4   47  -0.217  -0.417   0.056
    1UNL     H5   48  -0.392  -0.416   0.070
    1UNL     H6   49  -0.242  -0.095   0.226
    1UNL     H7   50  -0.362  -0.224   0.260
    1UNL     H8   51  -0.182  -0.253   0.249
    1UNL     H9   52  -0.475  -0.072  -0.165
    1UNL    H10   53  -0.097  -0.012  -0.263
    1UNL    H11   54  -0.261   0.019  -0.312
    1UNL    H12   55  -0.567   0.273  -0.042
    1UNL    H13   56  -0.588   0.432   0.143
    1UNL    H14   57  -0.374   0.542   0.235
    1UNL    H15   58  -0.167   0.500   0.138
    1UNL    H16   59  -0.136   0.334  -0.033
    1UNL    H17   60  -0.198  -0.287  -0.311
    1UNL    H18   61  -0.067  -0.358  -0.043
    1UNL    H19   62   0.002  -0.217  -0.159
    1UNL    H20   63  -0.022  -0.214   0.147
    1UNL    H21   64   0.245  -0.082  -0.121
    1UNL    H22   65   0.424  -0.166   0.042
    1UNL    H23   66   0.380  -0.047   0.163
    1UNL    H24   67   0.544   0.233  -0.105
    1UNL    H25   68   0.682   0.430  -0.130
    1UNL    H26   69   0.908   0.435  -0.061
    1UNL    H27   70   0.979   0.271   0.115
    1UNL    H28   71   0.826   0.099   0.184
    1UNL    H29   72   0.075   0.071  -0.063
    1UNL    H30   73   0.330   0.147  -0.060
    1UNL    H31   74   0.171   0.182   0.194
    1UNL    H32   75  -0.075   0.111   0.096
    1UNL    H33   76   0.164  -0.071   0.257
    1UNL    H34   77  -0.079   0.071   0.326
   0.00000   0.00000   0.00000   0.00000   0.00000   0.00000   0.00000   0.00000   0.00000
Generated with MDTraj, t= 73.0
 77
    1UNL     C1    1  -0.482  -0.487  -0.248
    1UNL     O1    2  -0.352  -0.455  -0.234
    1UNL     C2    3  -0.336  -0.339  -0.159
    1UNL     C3    4  -0.321  -0.366  -0.004
    1UNL     C4    5  -0.274  -0.231   0.064
    1UNL     C5    6  -0.241  -0.247   0.215
    1UNL     O2    7  -0.377  -0.134   0.038
    1UNL     C6    8  -0.372  -0.120  -0.106
    1UNL     O3    9  -0.437  -0.239  -0.167
    1UNL     C7   10  -0.223  -0.117  -0.156
    1UNL     C8   11  -0.168   0.004  -0.239
    1UNL     O4   12  -0.184   0.127  -0.172
    1UNL     C9   13  -0.312   0.169  -0.155
    1UNL     O5   14  -0.406   0.133  -0.218
    1UNL    C10   15  -0.333   0.270  -0.047
    1UNL    C11   16  -0.459   0.292   0.009
    1UNL    C12   17  -0.476   0.396   0.102
    1UNL    C13   18  -0.364   0.476   0.133
    1UNL    C14   19  -0.241   0.451   0.086
    1UNL    C15   20  -0.223   0.355  -0.009
    1UNL    C16   21  -0.205  -0.262  -0.207
    1UNL    C17   22  -0.086  -0.285  -0.106
    1UNL    C18   23  -0.150  -0.171  -0.021
    1UNL     O6   24  -0.068  -0.075   0.045
    1UNL    C19   25   0.035  -0.138   0.116
    1UNL     O7   26   0.142  -0.182   0.032
    1UNL    C20   27   0.219  -0.067  -0.001
    1UNL    C21   28   0.351  -0.066   0.067
    1UNL     O8   29   0.425   0.041   0.028
    1UNL    C22   30   0.557   0.044   0.077
    1UNL     O9   31   0.596  -0.047   0.148
    1UNL    C23   32   0.651   0.145   0.031
    1UNL    C24   33   0.632   0.219  -0.081
    1UNL    C25   34   0.718   0.320  -0.114
    1UNL    C26   35   0.817   0.357  -0.035
    1UNL    C27   36   0.844   0.284   0.081
    1UNL    C28   37   0.757   0.182   0.117
    1UNL    C29   38   0.144   0.072   0.005
    1UNL    O10   39   0.217   0.181  -0.057
    1UNL    C30   40   0.109   0.095   0.157
    1UNL    O11   41  -0.004   0.167   0.156
    1UNL    C31   42   0.088  -0.039   0.232
    1UNL    O12   43  -0.014  -0.015   0.330
    1UNL     H1   44  -0.500  -0.565  -0.326
    1UNL     H2   45  -0.507  -0.522  -0.146
    1UNL     H3   46  -0.557  -0.403  -0.260
    1UNL     H4   47  -0.261  -0.450   0.032
    1UNL     H5   48  -0.421  -0.393   0.041
    1UNL     H6   49  -0.184  -0.163   0.249
    1UNL     H7   50  -0.339  -0.255   0.258
    1UNL     H8   51  -0.180  -0.334   0.231
    1UNL     H9   52  -0.420  -0.024  -0.135
    1UNL    H10   53  -0.061  -0.009  -0.274
    1UNL    H11   54  -0.223   0.014  -0.331
    1UNL    H12   55  -0.537   0.231  -0.026
    1UNL    H13   56  -0.575   0.425   0.132
    1UNL    H14   57  -0.383   0.560   0.202
    1UNL    H15   58  -0.156   0.511   0.112
    1UNL    H16   59  -0.135   0.346  -0.076
    1UNL    H17   60  -0.172  -0.276  -0.316
    1UNL    H18   61  -0.096  -0.392  -0.072
    1UNL    H19   62   0.013  -0.262  -0.153
    1UNL    H20   63  -0.003  -0.228   0.169
    1UNL    H21   64   0.234  -0.070  -0.109
    1UNL    H22   65   0.410  -0.156   0.046
    1UNL    H23   66   0.340  -0.072   0.178
    1UNL    H24   67   0.537   0.210  -0.121
    1UNL    H25   68   0.685   0.384  -0.193
    1UNL    H26   69   0.883   0.445  -0.057
    1UNL    H27   70   0.923   0.321   0.145
    1UNL    H28   71   0.770   0.132   0.215
    1UNL    H29   72   0.055   0.062  -0.051
    1UNL    H30   73   0.308   0.187  -0.018
    1UNL    H31   74   0.187   0.159   0.204
    1UNL    H32   75  -0.055   0.111   0.098
    1UNL    H33   76   0.181  -0.070   0.284
    1UNL    H34   77  -0.022   0.080   0.344
   0.00000   0.00000   0.00000   0.00000   0.00000   0.00000   0.00000   0.00000   0.00000
Generated with MDTraj, t= 74.0
 77
    1UNL     C1    1  -0.519  -0.477  -0.205
    1UNL     O1    2  -0.382  -0.451  -0.245
    1UNL     C2    3  -0.335  -0.339  -0.174
    1UNL     C3    4  -0.322  -0.383  -0.023
    1UNL     C4    5  -0.280  -0.259   0.057
    1UNL     C5    6  -0.259  -0.294   0.203
    1UNL     O2    7  -0.379  -0.160   0.030
    1UNL     C6    8  -0.378  -0.128  -0.106
    1UNL     O3    9  -0.437  -0.236  -0.178
    1UNL     C7   10  -0.218  -0.132  -0.146
    1UNL     C8   11  -0.145  -0.004  -0.198
    1UNL     O4   12  -0.156   0.112  -0.118
    1UNL     C9   13  -0.267   0.177  -0.156
    1UNL     O5   14  -0.343   0.153  -0.247
    1UNL    C10   15  -0.301   0.292  -0.059
    1UNL    C11   16  -0.430   0.300  -0.007
    1UNL    C12   17  -0.462   0.390   0.087
    1UNL    C13   18  -0.358   0.473   0.141
    1UNL    C14   19  -0.228   0.467   0.087
    1UNL    C15   20  -0.200   0.377  -0.012
    1UNL    C16   21  -0.206  -0.269  -0.220
    1UNL    C17   22  -0.085  -0.293  -0.126
    1UNL    C18   23  -0.149  -0.200  -0.017
    1UNL     O6   24  -0.081  -0.089   0.058
    1UNL    C19   25   0.033  -0.134   0.122
    1UNL     O7   26   0.140  -0.179   0.035
    1UNL    C20   27   0.205  -0.061  -0.018
    1UNL    C21   28   0.346  -0.060   0.041
    1UNL     O8   29   0.426   0.048   0.012
    1UNL    C22   30   0.540   0.056   0.085
    1UNL     O9   31   0.573  -0.029   0.167
    1UNL    C23   32   0.638   0.165   0.039
    1UNL    C24   33   0.634   0.209  -0.092
    1UNL    C25   34   0.721   0.302  -0.142
    1UNL    C26   35   0.811   0.356  -0.053
    1UNL    C27   36   0.822   0.308   0.076
    1UNL    C28   37   0.735   0.215   0.122
    1UNL    C29   38   0.133   0.078   0.013
    1UNL    O10   39   0.187   0.196  -0.053
    1UNL    C30   40   0.113   0.101   0.169
    1UNL    O11   41  -0.007   0.181   0.186
    1UNL    C31   42   0.087  -0.043   0.237
    1UNL    O12   43  -0.011  -0.027   0.339
    1UNL     H1   44  -0.584  -0.531  -0.273
    1UNL     H2   45  -0.498  -0.535  -0.118
    1UNL     H3   46  -0.574  -0.390  -0.169
    1UNL     H4   47  -0.249  -0.462  -0.010
    1UNL     H5   48  -0.412  -0.438   0.026
    1UNL     H6   49  -0.213  -0.216   0.257
    1UNL     H7   50  -0.350  -0.325   0.246
    1UNL     H8   51  -0.189  -0.378   0.206
    1UNL     H9   52  -0.422  -0.027  -0.127
    1UNL    H10   53  -0.037  -0.024  -0.227
    1UNL    H11   54  -0.187   0.027  -0.294
    1UNL    H12   55  -0.505   0.224  -0.041
    1UNL    H13   56  -0.557   0.405   0.137
    1UNL    H14   57  -0.380   0.539   0.220
    1UNL    H15   58  -0.150   0.530   0.125
    1UNL    H16   59  -0.105   0.372  -0.055
    1UNL    H17   60  -0.193  -0.265  -0.333
    1UNL    H18   61  -0.055  -0.402  -0.109
    1UNL    H19   62   0.008  -0.252  -0.175
    1UNL    H20   63  -0.009  -0.226   0.170
    1UNL    H21   64   0.211  -0.072  -0.125
    1UNL    H22   65   0.390  -0.153   0.013
    1UNL    H23   66   0.348  -0.069   0.152
    1UNL    H24   67   0.548   0.176  -0.156
    1UNL    H25   68   0.718   0.320  -0.251
    1UNL    H26   69   0.875   0.437  -0.088
    1UNL    H27   70   0.905   0.349   0.134
    1UNL    H28   71   0.758   0.173   0.216
    1UNL    H29   72   0.033   0.062  -0.017
    1UNL    H30   73   0.276   0.221  -0.014
    1UNL    H31   74   0.198   0.155   0.221
    1UNL    H32   75  -0.056   0.171   0.104
    1UNL    H33   76   0.178  -0.090   0.277
    1UNL    H34   77  -0.081   0.034   0.302
   0.00000   0.00000   0.00000   0.00000   0.00000   0.00000   0.00000   0.00000   0.00000
Generated with MDTraj, t= 75.0
 77
    1UNL     C1    1  -0.487  -0.504  -0.270
    1UNL     O1    2  -0.364  -0.443  -0.264
    1UNL     C2    3  -0.354  -0.341  -0.163
    1UNL     C3    4  -0.358  -0.381  -0.016
    1UNL     C4    5  -0.299  -0.260   0.071
    1UNL     C5    6  -0.286  -0.275   0.218
    1UNL     O2    7  -0.393  -0.147   0.051
    1UNL     C6    8  -0.381  -0.128  -0.097
    1UNL     O3    9  -0.448  -0.232  -0.175
    1UNL     C7   10  -0.228  -0.143  -0.132
    1UNL     C8   11  -0.154  -0.026  -0.191
    1UNL     O4   12  -0.148   0.086  -0.106
    1UNL     C9   13  -0.243   0.183  -0.142
    1UNL     O5   14  -0.307   0.188  -0.246
    1UNL    C10   15  -0.266   0.284  -0.042
    1UNL    C11   16  -0.404   0.308  -0.005
    1UNL    C12   17  -0.442   0.414   0.070
    1UNL    C13   18  -0.345   0.496   0.124
    1UNL    C14   19  -0.209   0.472   0.099
    1UNL    C15   20  -0.172   0.365   0.015
    1UNL    C16   21  -0.214  -0.281  -0.200
    1UNL    C17   22  -0.099  -0.310  -0.098
    1UNL    C18   23  -0.169  -0.209  -0.005
    1UNL     O6   24  -0.085  -0.116   0.058
    1UNL    C19   25   0.036  -0.160   0.123
    1UNL     O7   26   0.148  -0.180   0.028
    1UNL    C20   27   0.207  -0.056  -0.013
    1UNL    C21   28   0.355  -0.063   0.042
    1UNL     O8   29   0.433   0.032  -0.023
    1UNL    C22   30   0.527   0.082   0.061
    1UNL     O9   31   0.527   0.040   0.175
    1UNL    C23   32   0.632   0.183   0.017
    1UNL    C24   33   0.642   0.216  -0.120
    1UNL    C25   34   0.744   0.311  -0.153
    1UNL    C26   35   0.820   0.368  -0.054
    1UNL    C27   36   0.812   0.335   0.076
    1UNL    C28   37   0.726   0.231   0.109
    1UNL    C29   38   0.127   0.073   0.013
    1UNL    O10   39   0.207   0.191  -0.031
    1UNL    C30   40   0.093   0.078   0.167
    1UNL    O11   41  -0.021   0.156   0.195
    1UNL    C31   42   0.077  -0.061   0.233
    1UNL    O12   43  -0.034  -0.055   0.319
    1UNL     H1   44  -0.487  -0.579  -0.346
    1UNL     H2   45  -0.502  -0.533  -0.168
    1UNL     H3   46  -0.562  -0.435  -0.302
    1UNL     H4   47  -0.310  -0.477  -0.002
    1UNL     H5   48  -0.466  -0.404   0.015
    1UNL     H6   49  -0.242  -0.188   0.258
    1UNL     H7   50  -0.380  -0.285   0.265
    1UNL     H8   51  -0.226  -0.358   0.254
    1UNL     H9   52  -0.418  -0.030  -0.137
    1UNL    H10   53  -0.045  -0.052  -0.210
    1UNL    H11   54  -0.196   0.007  -0.286
    1UNL    H12   55  -0.472   0.236  -0.040
    1UNL    H13   56  -0.546   0.415   0.104
    1UNL    H14   57  -0.363   0.585   0.190
    1UNL    H15   58  -0.132   0.539   0.138
    1UNL    H16   59  -0.065   0.333   0.005
    1UNL    H17   60  -0.190  -0.276  -0.311
    1UNL    H18   61  -0.101  -0.416  -0.054
    1UNL    H19   62   0.008  -0.288  -0.136
    1UNL    H20   63   0.004  -0.253   0.176
    1UNL    H21   64   0.219  -0.060  -0.118
    1UNL    H22   65   0.408  -0.155   0.046
    1UNL    H23   66   0.349  -0.035   0.147
    1UNL    H24   67   0.590   0.157  -0.189
    1UNL    H25   68   0.762   0.338  -0.253
    1UNL    H26   69   0.897   0.427  -0.094
    1UNL    H27   70   0.889   0.358   0.145
    1UNL    H28   71   0.730   0.194   0.213
    1UNL    H29   72   0.032   0.074  -0.040
    1UNL    H30   73   0.298   0.165  -0.045
    1UNL    H31   74   0.181   0.134   0.211
    1UNL    H32   75  -0.100   0.099   0.163
    1UNL    H33   76   0.166  -0.099   0.284
    1UNL    H34   77  -0.040   0.035   0.366
   0.00000   0.00000   0.00000   0.00000   0.00000   0.00000   0.00000   0.00000   0.00000
Generated with MDTraj, t= 76.0
 77
    1UNL     C1    1  -0.515  -0.477  -0.263
    1UNL     O1    2  -0.380  -0.478  -0.244
    1UNL     C2    3  -0.337  -0.364  -0.163
    1UNL     C3    4  -0.354  -0.384  -0.013
    1UNL     C4    5  -0.315  -0.251   0.058
    1UNL     C5    6  -0.302  -0.253   0.206
    1UNL     O2    7  -0.395  -0.147   0.008
    1UNL     C6    8  -0.370  -0.137  -0.133
    1UNL     O3    9  -0.419  -0.253  -0.202
    1UNL     C7   10  -0.216  -0.142  -0.149
    1UNL     C8   11  -0.148  -0.017  -0.199
    1UNL     O4   12  -0.158   0.088  -0.103
    1UNL     C9   13  -0.254   0.180  -0.134
    1UNL     O5   14  -0.323   0.171  -0.234
    1UNL    C10   15  -0.262   0.298  -0.044
    1UNL    C11   16  -0.384   0.356  -0.031
    1UNL    C12   17  -0.404   0.457   0.066
    1UNL    C13   18  -0.302   0.510   0.143
    1UNL    C14   19  -0.174   0.454   0.122
    1UNL    C15   20  -0.158   0.350   0.031
    1UNL    C16   21  -0.194  -0.299  -0.202
    1UNL    C17   22  -0.095  -0.309  -0.088
    1UNL    C18   23  -0.172  -0.205  -0.006
    1UNL     O6   24  -0.095  -0.122   0.082
    1UNL    C19   25   0.027  -0.175   0.124
    1UNL     O7   26   0.132  -0.190   0.026
    1UNL    C20   27   0.202  -0.066  -0.012
    1UNL    C21   28   0.346  -0.067   0.034
    1UNL     O8   29   0.432   0.030  -0.027
    1UNL    C22   30   0.505   0.104   0.064
    1UNL     O9   31   0.472   0.100   0.182
    1UNL    C23   32   0.614   0.197   0.018
    1UNL    C24   33   0.632   0.221  -0.120
    1UNL    C25   34   0.739   0.296  -0.166
    1UNL    C26   35   0.823   0.364  -0.077
    1UNL    C27   36   0.805   0.347   0.055
    1UNL    C28   37   0.702   0.263   0.105
    1UNL    C29   38   0.144   0.070   0.030
    1UNL    O10   39   0.233   0.180   0.007
    1UNL    C30   40   0.086   0.073   0.179
    1UNL    O11   41  -0.053   0.124   0.188
    1UNL    C31   42   0.087  -0.075   0.231
    1UNL    O12   43   0.023  -0.085   0.354
    1UNL     H1   44  -0.530  -0.578  -0.303
    1UNL     H2   45  -0.570  -0.447  -0.175
    1UNL     H3   46  -0.529  -0.417  -0.354
    1UNL     H4   47  -0.294  -0.472   0.016
    1UNL     H5   48  -0.460  -0.409   0.006
    1UNL     H6   49  -0.306  -0.150   0.236
    1UNL     H7   50  -0.383  -0.301   0.256
    1UNL     H8   51  -0.213  -0.296   0.242
    1UNL     H9   52  -0.423  -0.042  -0.160
    1UNL    H10   53  -0.037  -0.035  -0.206
    1UNL    H11   54  -0.190   0.016  -0.294
    1UNL    H12   55  -0.472   0.315  -0.078
    1UNL    H13   56  -0.501   0.496   0.077
    1UNL    H14   57  -0.319   0.593   0.205
    1UNL    H15   58  -0.089   0.498   0.170
    1UNL    H16   59  -0.064   0.314   0.007
    1UNL    H17   60  -0.156  -0.297  -0.310
    1UNL    H18   61  -0.104  -0.409  -0.033
    1UNL    H19   62   0.013  -0.274  -0.106
    1UNL    H20   63  -0.001  -0.272   0.174
    1UNL    H21   64   0.203  -0.083  -0.116
    1UNL    H22   65   0.386  -0.162   0.011
    1UNL    H23   66   0.359  -0.059   0.142
    1UNL    H24   67   0.562   0.181  -0.197
    1UNL    H25   68   0.751   0.322  -0.274
    1UNL    H26   69   0.909   0.437  -0.102
    1UNL    H27   70   0.865   0.406   0.128
    1UNL    H28   71   0.696   0.257   0.211
    1UNL    H29   72   0.054   0.090  -0.033
    1UNL    H30   73   0.316   0.170   0.065
    1UNL    H31   74   0.151   0.144   0.237
    1UNL    H32   75  -0.107   0.072   0.131
    1UNL    H33   76   0.188  -0.113   0.249
    1UNL    H34   77  -0.064  -0.044   0.357
   0.00000   0.00000   0.00000   0.00000   0.00000   0.00000   0.00000   0.00000   0.00000
Generated with MDTraj, t= 77.0
 77
    1UNL     C1    1  -0.490  -0.495  -0.270
    1UNL     O1    2  -0.351  -0.460  -0.248
    1UNL     C2    3  -0.338  -0.342  -0.171
    1UNL     C3    4  -0.352  -0.367  -0.024
    1UNL     C4    5  -0.309  -0.245   0.059
    1UNL     C5    6  -0.306  -0.276   0.206
    1UNL     O2    7  -0.399  -0.137   0.017
    1UNL     C6    8  -0.375  -0.122  -0.124
    1UNL     O3    9  -0.433  -0.231  -0.202
    1UNL     C7   10  -0.210  -0.140  -0.134
    1UNL     C8   11  -0.132  -0.017  -0.187
    1UNL     O4   12  -0.133   0.099  -0.108
    1UNL     C9   13  -0.248   0.163  -0.125
    1UNL     O5   14  -0.331   0.128  -0.208
    1UNL    C10   15  -0.254   0.286  -0.041
    1UNL    C11   16  -0.357   0.367  -0.047
    1UNL    C12   17  -0.355   0.478   0.041
    1UNL    C13   18  -0.246   0.508   0.120
    1UNL    C14   19  -0.144   0.417   0.129
    1UNL    C15   20  -0.145   0.307   0.048
    1UNL    C16   21  -0.192  -0.275  -0.202
    1UNL    C17   22  -0.089  -0.308  -0.094
    1UNL    C18   23  -0.168  -0.203   0.004
    1UNL     O6   24  -0.094  -0.121   0.095
    1UNL    C19   25   0.038  -0.164   0.113
    1UNL     O7   26   0.126  -0.147  -0.001
    1UNL    C20   27   0.213  -0.034  -0.009
    1UNL    C21   28   0.350  -0.072   0.059
    1UNL     O8   29   0.457  -0.007  -0.007
    1UNL    C22   30   0.481   0.107   0.063
    1UNL     O9   31   0.410   0.144   0.156
    1UNL    C23   32   0.593   0.192   0.016
    1UNL    C24   33   0.620   0.196  -0.120
    1UNL    C25   34   0.719   0.275  -0.178
    1UNL    C26   35   0.799   0.352  -0.097
    1UNL    C27   36   0.770   0.349   0.037
    1UNL    C28   37   0.668   0.273   0.096
    1UNL    C29   38   0.131   0.088   0.047
    1UNL    O10   39   0.185   0.211   0.029
    1UNL    C30   40   0.081   0.062   0.193
    1UNL    O11   41  -0.048   0.103   0.211
    1UNL    C31   42   0.090  -0.083   0.230
    1UNL    O12   43   0.006  -0.126   0.332
    1UNL     H1   44  -0.515  -0.585  -0.209
    1UNL     H2   45  -0.557  -0.409  -0.255
    1UNL     H3   46  -0.481  -0.527  -0.378
    1UNL     H4   47  -0.288  -0.454   0.012
    1UNL     H5   48  -0.457  -0.384  -0.013
    1UNL     H6   49  -0.239  -0.212   0.261
    1UNL     H7   50  -0.405  -0.259   0.243
    1UNL     H8   51  -0.284  -0.378   0.218
    1UNL     H9   52  -0.410  -0.022  -0.153
    1UNL    H10   53  -0.023  -0.047  -0.184
    1UNL    H11   54  -0.165   0.010  -0.287
    1UNL    H12   55  -0.445   0.345  -0.104
    1UNL    H13   56  -0.448   0.543   0.038
    1UNL    H14   57  -0.241   0.611   0.163
    1UNL    H15   58  -0.046   0.438   0.172
    1UNL    H16   59  -0.054   0.244   0.028
    1UNL    H17   60  -0.151  -0.282  -0.309
    1UNL    H18   61  -0.094  -0.416  -0.059
    1UNL    H19   62   0.022  -0.279  -0.109
    1UNL    H20   63   0.029  -0.273   0.139
    1UNL    H21   64   0.234  -0.019  -0.110
    1UNL    H22   65   0.378  -0.174   0.045
    1UNL    H23   66   0.356  -0.050   0.166
    1UNL    H24   67   0.548   0.153  -0.183
    1UNL    H25   68   0.736   0.273  -0.281
    1UNL    H26   69   0.859   0.427  -0.133
    1UNL    H27   70   0.814   0.423   0.097
    1UNL    H28   71   0.643   0.273   0.203
    1UNL    H29   72   0.036   0.095  -0.012
    1UNL    H30   73   0.264   0.210   0.081
    1UNL    H31   74   0.145   0.117   0.266
    1UNL    H32   75  -0.096   0.083   0.130
    1UNL    H33   76   0.195  -0.105   0.253
    1UNL    H34   77  -0.088  -0.093   0.315
   0.00000   0.00000   0.00000   0.00000   0.00000   0.00000   0.00000   0.00000   0.00000
Generated with MDTraj, t= 78.0
 77
    1UNL     C1    1  -0.518  -0.489  -0.298
    1UNL     O1    2  -0.370  -0.476  -0.277
    1UNL     C2    3  -0.349  -0.361  -0.189
    1UNL     C3    4  -0.358  -0.398  -0.041
    1UNL     C4    5  -0.304  -0.271   0.043
    1UNL     C5    6  -0.291  -0.296   0.201
    1UNL     O2    7  -0.393  -0.166   0.017
    1UNL     C6    8  -0.372  -0.136  -0.126
    1UNL     O3    9  -0.438  -0.243  -0.200
    1UNL     C7   10  -0.223  -0.145  -0.147
    1UNL     C8   11  -0.144  -0.025  -0.209
    1UNL     O4   12  -0.122   0.078  -0.116
    1UNL     C9   13  -0.218   0.173  -0.117
    1UNL     O5   14  -0.322   0.162  -0.183
    1UNL    C10   15  -0.208   0.308  -0.046
    1UNL    C11   16  -0.326   0.383  -0.045
    1UNL    C12   17  -0.345   0.502   0.026
    1UNL    C13   18  -0.242   0.538   0.112
    1UNL    C14   19  -0.127   0.462   0.120
    1UNL    C15   20  -0.109   0.344   0.041
    1UNL    C16   21  -0.208  -0.289  -0.211
    1UNL    C17   22  -0.097  -0.309  -0.101
    1UNL    C18   23  -0.162  -0.210  -0.013
    1UNL     O6   24  -0.089  -0.125   0.081
    1UNL    C19   25   0.036  -0.182   0.120
    1UNL     O7   26   0.133  -0.173   0.013
    1UNL    C20   27   0.203  -0.044   0.010
    1UNL    C21   28   0.340  -0.050   0.082
    1UNL     O8   29   0.435   0.017  -0.001
    1UNL    C22   30   0.471   0.131   0.064
    1UNL     O9   31   0.416   0.176   0.163
    1UNL    C23   32   0.582   0.209   0.007
    1UNL    C24   33   0.619   0.174  -0.122
    1UNL    C25   34   0.719   0.247  -0.181
    1UNL    C26   35   0.782   0.350  -0.118
    1UNL    C27   36   0.750   0.379   0.017
    1UNL    C28   37   0.652   0.306   0.074
    1UNL    C29   38   0.120   0.078   0.073
    1UNL    O10   39   0.165   0.204   0.050
    1UNL    C30   40   0.098   0.056   0.222
    1UNL    O11   41  -0.027   0.111   0.258
    1UNL    C31   42   0.086  -0.105   0.247
    1UNL    O12   43   0.005  -0.137   0.360
    1UNL     H1   44  -0.566  -0.458  -0.202
    1UNL     H2   45  -0.542  -0.416  -0.378
    1UNL     H3   46  -0.547  -0.590  -0.340
    1UNL     H4   47  -0.287  -0.485  -0.024
    1UNL     H5   48  -0.458  -0.419  -0.013
    1UNL     H6   49  -0.331  -0.207   0.245
    1UNL     H7   50  -0.362  -0.369   0.225
    1UNL     H8   51  -0.195  -0.322   0.240
    1UNL     H9   52  -0.412  -0.040  -0.165
    1UNL    H10   53  -0.046  -0.062  -0.247
    1UNL    H11   54  -0.209   0.015  -0.287
    1UNL    H12   55  -0.414   0.334  -0.090
    1UNL    H13   56  -0.441   0.538   0.040
    1UNL    H14   57  -0.243   0.625   0.172
    1UNL    H15   58  -0.047   0.499   0.182
    1UNL    H16   59  -0.018   0.286   0.056
    1UNL    H17   60  -0.186  -0.288  -0.323
    1UNL    H18   61  -0.097  -0.410  -0.048
    1UNL    H19   62   0.012  -0.285  -0.126
    1UNL    H20   63   0.020  -0.289   0.142
    1UNL    H21   64   0.211  -0.026  -0.093
    1UNL    H22   65   0.361  -0.156   0.096
    1UNL    H23   66   0.341  -0.001   0.182
    1UNL    H24   67   0.595   0.075  -0.163
    1UNL    H25   68   0.750   0.219  -0.285
    1UNL    H26   69   0.866   0.397  -0.179
    1UNL    H27   70   0.810   0.445   0.079
    1UNL    H28   71   0.625   0.311   0.175
    1UNL    H29   72   0.013   0.078   0.024
    1UNL    H30   73   0.257   0.204   0.088
    1UNL    H31   74   0.180   0.100   0.280
    1UNL    H32   75  -0.093   0.049   0.216
    1UNL    H33   76   0.188  -0.137   0.269
    1UNL    H34   77  -0.075  -0.084   0.362
   0.00000   0.00000   0.00000   0.00000   0.00000   0.00000   0.00000   0.00000   0.00000
Generated with MDTraj, t= 79.0
 77
    1UNL     C1    1  -0.497  -0.444  -0.327
    1UNL     O1    2  -0.363  -0.436  -0.287
    1UNL     C2    3  -0.334  -0.343  -0.188
    1UNL     C3    4  -0.339  -0.393  -0.034
    1UNL     C4    5  -0.290  -0.272   0.054
    1UNL     C5    6  -0.292  -0.298   0.208
    1UNL     O2    7  -0.389  -0.169   0.027
    1UNL     C6    8  -0.371  -0.134  -0.108
    1UNL     O3    9  -0.429  -0.236  -0.186
    1UNL     C7   10  -0.215  -0.146  -0.138
    1UNL     C8   11  -0.141  -0.020  -0.191
    1UNL     O4   12  -0.150   0.086  -0.098
    1UNL     C9   13  -0.249   0.177  -0.125
    1UNL     O5   14  -0.337   0.168  -0.211
    1UNL    C10   15  -0.236   0.302  -0.048
    1UNL    C11   16  -0.345   0.394  -0.030
    1UNL    C12   17  -0.319   0.515   0.035
    1UNL    C13   18  -0.190   0.539   0.084
    1UNL    C14   19  -0.084   0.452   0.066
    1UNL    C15   20  -0.112   0.332   0.002
    1UNL    C16   21  -0.194  -0.282  -0.209
    1UNL    C17   22  -0.077  -0.310  -0.107
    1UNL    C18   23  -0.153  -0.217  -0.011
    1UNL     O6   24  -0.082  -0.137   0.073
    1UNL    C19   25   0.025  -0.206   0.131
    1UNL     O7   26   0.142  -0.202   0.046
    1UNL    C20   27   0.191  -0.068   0.029
    1UNL    C21   28   0.335  -0.043   0.080
    1UNL     O8   29   0.402   0.046  -0.012
    1UNL    C22   30   0.474   0.149   0.057
    1UNL     O9   31   0.446   0.181   0.172
    1UNL    C23   32   0.580   0.230  -0.011
    1UNL    C24   33   0.641   0.170  -0.118
    1UNL    C25   34   0.742   0.236  -0.179
    1UNL    C26   35   0.795   0.354  -0.137
    1UNL    C27   36   0.738   0.419  -0.023
    1UNL    C28   37   0.631   0.353   0.040
    1UNL    C29   38   0.102   0.042   0.093
    1UNL    O10   39   0.151   0.165   0.073
    1UNL    C30   40   0.080   0.017   0.246
    1UNL    O11   41  -0.034   0.085   0.273
    1UNL    C31   42   0.050  -0.138   0.268
    1UNL    O12   43  -0.050  -0.162   0.367
    1UNL     H1   44  -0.548  -0.462  -0.229
    1UNL     H2   45  -0.525  -0.355  -0.383
    1UNL     H3   46  -0.489  -0.517  -0.411
    1UNL     H4   47  -0.280  -0.482  -0.003
    1UNL     H5   48  -0.445  -0.405  -0.024
    1UNL     H6   49  -0.211  -0.244   0.247
    1UNL     H7   50  -0.378  -0.266   0.258
    1UNL     H8   51  -0.266  -0.402   0.223
    1UNL     H9   52  -0.413  -0.037  -0.134
    1UNL    H10   53  -0.032  -0.037  -0.207
    1UNL    H11   54  -0.197   0.013  -0.279
    1UNL    H12   55  -0.442   0.353  -0.037
    1UNL    H13   56  -0.402   0.585   0.062
    1UNL    H14   57  -0.175   0.628   0.146
    1UNL    H15   58   0.019   0.475   0.092
    1UNL    H16   59  -0.027   0.272  -0.013
    1UNL    H17   60  -0.153  -0.285  -0.317
    1UNL    H18   61  -0.078  -0.417  -0.069
    1UNL    H19   62   0.025  -0.264  -0.128
    1UNL    H20   63   0.006  -0.311   0.158
    1UNL    H21   64   0.182  -0.045  -0.076
    1UNL    H22   65   0.391  -0.140   0.071
    1UNL    H23   66   0.334  -0.009   0.186
    1UNL    H24   67   0.618   0.068  -0.142
    1UNL    H25   68   0.790   0.185  -0.258
    1UNL    H26   69   0.875   0.404  -0.183
    1UNL    H27   70   0.787   0.507   0.012
    1UNL    H28   71   0.572   0.384   0.129
    1UNL    H29   72  -0.005   0.037   0.043
    1UNL    H30   73   0.246   0.172   0.098
    1UNL    H31   74   0.155   0.054   0.315
    1UNL    H32   75  -0.030   0.179   0.232
    1UNL    H33   76   0.143  -0.182   0.308
    1UNL    H34   77  -0.125  -0.098   0.351
   0.00000   0.00000   0.00000   0.00000   0.00000   0.00000   0.00000   0.00000   0.00000
Generated with MDTraj, t= 80.0
 77
    1UNL     C1    1  -0.496  -0.431  -0.352
    1UNL     O1    2  -0.368  -0.440  -0.303
    1UNL     C2    3  -0.341  -0.345  -0.200
    1UNL     C3    4  -0.342  -0.402  -0.049
    1UNL     C4    5  -0.287  -0.287   0.048
    1UNL     C5    6  -0.287  -0.345   0.190
    1UNL     O2    7  -0.381  -0.175   0.026
    1UNL     C6    8  -0.367  -0.131  -0.109
    1UNL     O3    9  -0.423  -0.223  -0.200
    1UNL     C7   10  -0.216  -0.142  -0.128
    1UNL     C8   11  -0.131  -0.026  -0.185
    1UNL     O4   12  -0.130   0.097  -0.112
    1UNL     C9   13  -0.241   0.176  -0.121
    1UNL     O5   14  -0.343   0.149  -0.181
    1UNL    C10   15  -0.225   0.310  -0.054
    1UNL    C11   16  -0.326   0.400  -0.035
    1UNL    C12   17  -0.302   0.519   0.034
    1UNL    C13   18  -0.171   0.547   0.079
    1UNL    C14   19  -0.066   0.465   0.049
    1UNL    C15   20  -0.090   0.352  -0.021
    1UNL    C16   21  -0.202  -0.277  -0.214
    1UNL    C17   22  -0.090  -0.313  -0.117
    1UNL    C18   23  -0.153  -0.224  -0.009
    1UNL     O6   24  -0.077  -0.137   0.074
    1UNL    C19   25   0.024  -0.202   0.155
    1UNL     O7   26   0.148  -0.201   0.079
    1UNL    C20   27   0.191  -0.065   0.049
    1UNL    C21   28   0.346  -0.055   0.061
    1UNL     O8   29   0.418   0.029  -0.032
    1UNL    C22   30   0.461   0.141   0.038
    1UNL     O9   31   0.410   0.169   0.146
    1UNL    C23   32   0.562   0.227  -0.025
    1UNL    C24   33   0.655   0.166  -0.109
    1UNL    C25   34   0.757   0.230  -0.169
    1UNL    C26   35   0.775   0.365  -0.143
    1UNL    C27   36   0.693   0.427  -0.044
    1UNL    C28   37   0.581   0.364   0.010
    1UNL    C29   38   0.112   0.044   0.131
    1UNL    O10   39   0.149   0.175   0.107
    1UNL    C30   40   0.085   0.016   0.280
    1UNL    O11   41  -0.013   0.098   0.327
    1UNL    C31   42   0.035  -0.134   0.294
    1UNL    O12   43  -0.077  -0.151   0.374
    1UNL     H1   44  -0.554  -0.457  -0.264
    1UNL     H2   45  -0.508  -0.332  -0.388
    1UNL     H3   46  -0.498  -0.491  -0.442
    1UNL     H4   47  -0.279  -0.488  -0.038
    1UNL     H5   48  -0.446  -0.421  -0.019
    1UNL     H6   49  -0.279  -0.267   0.263
    1UNL     H7   50  -0.375  -0.395   0.217
    1UNL     H8   51  -0.202  -0.408   0.209
    1UNL     H9   52  -0.397  -0.028  -0.123
    1UNL    H10   53  -0.027  -0.059  -0.189
    1UNL    H11   54  -0.175   0.004  -0.282
    1UNL    H12   55  -0.430   0.368  -0.069
    1UNL    H13   56  -0.381   0.586   0.056
    1UNL    H14   57  -0.157   0.646   0.121
    1UNL    H15   58   0.035   0.502   0.059
    1UNL    H16   59  -0.009   0.296  -0.069
    1UNL    H17   60  -0.167  -0.259  -0.322
    1UNL    H18   61  -0.083  -0.425  -0.114
    1UNL    H19   62   0.006  -0.265  -0.150
    1UNL    H20   63   0.005  -0.307   0.180
    1UNL    H21   64   0.165  -0.048  -0.057
    1UNL    H22   65   0.384  -0.161   0.052
    1UNL    H23   66   0.371  -0.011   0.159
    1UNL    H24   67   0.640   0.066  -0.144
    1UNL    H25   68   0.823   0.177  -0.236
    1UNL    H26   69   0.844   0.428  -0.201
    1UNL    H27   70   0.690   0.536  -0.041
    1UNL    H28   71   0.518   0.411   0.081
    1UNL    H29   72   0.007   0.041   0.078
    1UNL    H30   73   0.248   0.174   0.126
    1UNL    H31   74   0.173   0.043   0.335
    1UNL    H32   75  -0.101   0.063   0.292
    1UNL    H33   76   0.117  -0.193   0.341
    1UNL    H34   77  -0.076  -0.083   0.443
   0.00000   0.00000   0.00000   0.00000   0.00000   0.00000   0.00000   0.00000   0.00000
Generated with MDTraj, t= 81.0
 77
    1UNL     C1    1  -0.490  -0.430  -0.348
    1UNL     O1    2  -0.351  -0.447  -0.294
    1UNL     C2    3  -0.322  -0.339  -0.206
    1UNL     C3    4  -0.335  -0.398  -0.062
    1UNL     C4    5  -0.297  -0.286   0.035
    1UNL     C5    6  -0.297  -0.332   0.182
    1UNL     O2    7  -0.399  -0.185   0.018
    1UNL     C6    8  -0.369  -0.136  -0.114
    1UNL     O3    9  -0.422  -0.236  -0.204
    1UNL     C7   10  -0.211  -0.136  -0.143
    1UNL     C8   11  -0.133  -0.020  -0.204
    1UNL     O4   12  -0.099   0.085  -0.110
    1UNL     C9   13  -0.204   0.168  -0.094
    1UNL     O5   14  -0.313   0.150  -0.144
    1UNL    C10   15  -0.188   0.303  -0.026
    1UNL    C11   16  -0.296   0.386  -0.029
    1UNL    C12   17  -0.292   0.517   0.005
    1UNL    C13   18  -0.175   0.572   0.052
    1UNL    C14   19  -0.064   0.487   0.061
    1UNL    C15   20  -0.065   0.357   0.018
    1UNL    C16   21  -0.181  -0.270  -0.224
    1UNL    C17   22  -0.083  -0.306  -0.106
    1UNL    C18   23  -0.165  -0.214  -0.018
    1UNL     O6   24  -0.097  -0.138   0.089
    1UNL    C19   25   0.019  -0.203   0.145
    1UNL     O7   26   0.130  -0.189   0.059
    1UNL    C20   27   0.176  -0.058   0.044
    1UNL    C21   28   0.325  -0.047   0.090
    1UNL     O8   29   0.401   0.018  -0.006
    1UNL    C22   30   0.455   0.126   0.051
    1UNL     O9   31   0.420   0.166   0.161
    1UNL    C23   32   0.548   0.216  -0.029
    1UNL    C24   33   0.648   0.160  -0.107
    1UNL    C25   34   0.747   0.237  -0.168
    1UNL    C26   35   0.743   0.377  -0.154
    1UNL    C27   36   0.641   0.432  -0.087
    1UNL    C28   37   0.546   0.353  -0.023
    1UNL    C29   38   0.090   0.044   0.121
    1UNL    O10   39   0.138   0.170   0.102
    1UNL    C30   40   0.094   0.005   0.275
    1UNL    O11   41   0.020   0.100   0.360
    1UNL    C31   42   0.042  -0.149   0.287
    1UNL    O12   43  -0.078  -0.151   0.362
    1UNL     H1   44  -0.558  -0.426  -0.262
    1UNL     H2   45  -0.481  -0.340  -0.405
    1UNL     H3   46  -0.528  -0.511  -0.407
    1UNL     H4   47  -0.274  -0.481  -0.055
    1UNL     H5   48  -0.443  -0.420  -0.041
    1UNL     H6   49  -0.309  -0.250   0.247
    1UNL     H7   50  -0.377  -0.399   0.208
    1UNL     H8   51  -0.208  -0.378   0.214
    1UNL     H9   52  -0.412  -0.040  -0.139
    1UNL    H10   53  -0.037  -0.060  -0.236
    1UNL    H11   54  -0.189   0.031  -0.285
    1UNL    H12   55  -0.382   0.347  -0.064
    1UNL    H13   56  -0.382   0.579   0.012
    1UNL    H14   57  -0.165   0.676   0.077
    1UNL    H15   58   0.026   0.541   0.082
    1UNL    H16   59   0.024   0.299   0.008
    1UNL    H17   60  -0.153  -0.248  -0.335
    1UNL    H18   61  -0.076  -0.408  -0.067
    1UNL    H19   62   0.019  -0.267  -0.122
    1UNL    H20   63  -0.001  -0.309   0.154
    1UNL    H21   64   0.170  -0.040  -0.067
    1UNL    H22   65   0.377  -0.146   0.104
    1UNL    H23   66   0.324   0.006   0.185
    1UNL    H24   67   0.653   0.050  -0.096
    1UNL    H25   68   0.824   0.201  -0.236
    1UNL    H26   69   0.818   0.424  -0.217
    1UNL    H27   70   0.628   0.537  -0.086
    1UNL    H28   71   0.460   0.399   0.028
    1UNL    H29   72  -0.015   0.029   0.078
    1UNL    H30   73   0.230   0.180   0.131
    1UNL    H31   74   0.193   0.018   0.314
    1UNL    H32   75  -0.006   0.180   0.314
    1UNL    H33   76   0.110  -0.220   0.339
    1UNL    H34   77  -0.093  -0.061   0.398
   0.00000   0.00000   0.00000   0.00000   0.00000   0.00000   0.00000   0.00000   0.00000
Generated with MDTraj, t= 82.0
 77
    1UNL     C1    1  -0.456  -0.472  -0.336
    1UNL     O1    2  -0.318  -0.440  -0.304
    1UNL     C2    3  -0.325  -0.335  -0.211
    1UNL     C3    4  -0.353  -0.385  -0.063
    1UNL     C4    5  -0.322  -0.262   0.033
    1UNL     C5    6  -0.321  -0.286   0.181
    1UNL     O2    7  -0.400  -0.147  -0.013
    1UNL     C6    8  -0.353  -0.118  -0.143
    1UNL     O3    9  -0.406  -0.220  -0.236
    1UNL     C7   10  -0.197  -0.138  -0.133
    1UNL     C8   11  -0.124  -0.016  -0.167
    1UNL     O4   12  -0.122   0.084  -0.063
    1UNL     C9   13  -0.226   0.175  -0.087
    1UNL     O5   14  -0.329   0.148  -0.147
    1UNL    C10   15  -0.198   0.305  -0.031
    1UNL    C11   16  -0.298   0.406  -0.042
    1UNL    C12   17  -0.269   0.528   0.003
    1UNL    C13   18  -0.154   0.561   0.057
    1UNL    C14   19  -0.054   0.464   0.069
    1UNL    C15   20  -0.081   0.335   0.028
    1UNL    C16   21  -0.175  -0.272  -0.212
    1UNL    C17   22  -0.084  -0.313  -0.094
    1UNL    C18   23  -0.173  -0.215  -0.006
    1UNL     O6   24  -0.099  -0.142   0.096
    1UNL    C19   25   0.020  -0.213   0.149
    1UNL     O7   26   0.131  -0.196   0.051
    1UNL    C20   27   0.194  -0.063   0.044
    1UNL    C21   28   0.346  -0.069   0.073
    1UNL     O8   29   0.415   0.025  -0.006
    1UNL    C22   30   0.461   0.127   0.065
    1UNL     O9   31   0.424   0.151   0.176
    1UNL    C23   32   0.546   0.221  -0.012
    1UNL    C24   33   0.644   0.159  -0.092
    1UNL    C25   34   0.717   0.234  -0.180
    1UNL    C26   35   0.692   0.373  -0.193
    1UNL    C27   36   0.594   0.431  -0.125
    1UNL    C28   37   0.526   0.356  -0.029
    1UNL    C29   38   0.113   0.040   0.135
    1UNL    O10   39   0.155   0.172   0.123
    1UNL    C30   40   0.098  -0.005   0.279
    1UNL    O11   41   0.005   0.088   0.338
    1UNL    C31   42   0.053  -0.157   0.290
    1UNL    O12   43  -0.066  -0.154   0.356
    1UNL     H1   44  -0.491  -0.553  -0.265
    1UNL     H2   45  -0.501  -0.370  -0.342
    1UNL     H3   46  -0.467  -0.525  -0.431
    1UNL     H4   47  -0.290  -0.469  -0.048
    1UNL     H5   48  -0.457  -0.414  -0.051
    1UNL     H6   49  -0.249  -0.228   0.233
    1UNL     H7   50  -0.421  -0.268   0.218
    1UNL     H8   51  -0.303  -0.388   0.193
    1UNL     H9   52  -0.394  -0.023  -0.174
    1UNL    H10   53  -0.019  -0.042  -0.164
    1UNL    H11   54  -0.160   0.026  -0.265
    1UNL    H12   55  -0.403   0.367  -0.064
    1UNL    H13   56  -0.354   0.593   0.007
    1UNL    H14   57  -0.145   0.657   0.110
    1UNL    H15   58   0.042   0.485   0.120
    1UNL    H16   59   0.001   0.260   0.028
    1UNL    H17   60  -0.112  -0.271  -0.309
    1UNL    H18   61  -0.082  -0.412  -0.051
    1UNL    H19   62   0.014  -0.265  -0.094
    1UNL    H20   63  -0.008  -0.317   0.158
    1UNL    H21   64   0.192  -0.024  -0.064
    1UNL    H22   65   0.385  -0.166   0.041
    1UNL    H23   66   0.373  -0.053   0.177
    1UNL    H24   67   0.677   0.065  -0.059
    1UNL    H25   68   0.797   0.176  -0.225
    1UNL    H26   69   0.747   0.428  -0.267
    1UNL    H27   70   0.574   0.539  -0.136
    1UNL    H28   71   0.455   0.414   0.025
    1UNL    H29   72   0.008   0.037   0.093
    1UNL    H30   73   0.249   0.167   0.142
    1UNL    H31   74   0.192   0.017   0.330
    1UNL    H32   75  -0.027   0.148   0.271
    1UNL    H33   76   0.122  -0.215   0.353
    1UNL    H34   77  -0.098  -0.062   0.377
   0.00000   0.00000   0.00000   0.00000   0.00000   0.00000   0.00000   0.00000   0.00000
Generated with MDTraj, t= 83.0
 77
    1UNL     C1    1  -0.453  -0.487  -0.320
    1UNL     O1    2  -0.325  -0.450  -0.306
    1UNL     C2    3  -0.312  -0.343  -0.212
    1UNL     C3    4  -0.347  -0.378  -0.062
    1UNL     C4    5  -0.320  -0.256   0.025
    1UNL     C5    6  -0.344  -0.292   0.175
    1UNL     O2    7  -0.404  -0.157  -0.028
    1UNL     C6    8  -0.349  -0.126  -0.164
    1UNL     O3    9  -0.390  -0.234  -0.250
    1UNL     C7   10  -0.192  -0.132  -0.147
    1UNL     C8   11  -0.112  -0.010  -0.188
    1UNL     O4   12  -0.115   0.102  -0.090
    1UNL     C9   13  -0.214   0.199  -0.117
    1UNL     O5   14  -0.307   0.183  -0.192
    1UNL    C10   15  -0.203   0.323  -0.035
    1UNL    C11   16  -0.292   0.429  -0.043
    1UNL    C12   17  -0.262   0.546   0.017
    1UNL    C13   18  -0.147   0.569   0.087
    1UNL    C14   19  -0.064   0.460   0.107
    1UNL    C15   20  -0.095   0.338   0.044
    1UNL    C16   21  -0.158  -0.274  -0.222
    1UNL    C17   22  -0.086  -0.315  -0.093
    1UNL    C18   23  -0.172  -0.212  -0.006
    1UNL     O6   24  -0.109  -0.142   0.108
    1UNL    C19   25   0.009  -0.203   0.163
    1UNL     O7   26   0.120  -0.211   0.076
    1UNL    C20   27   0.194  -0.086   0.061
    1UNL    C21   28   0.335  -0.082   0.099
    1UNL     O8   29   0.410   0.006   0.009
    1UNL    C22   30   0.476   0.115   0.061
    1UNL     O9   31   0.454   0.146   0.175
    1UNL    C23   32   0.544   0.205  -0.034
    1UNL    C24   33   0.646   0.166  -0.116
    1UNL    C25   34   0.709   0.260  -0.205
    1UNL    C26   35   0.663   0.388  -0.209
    1UNL    C27   36   0.559   0.427  -0.125
    1UNL    C28   37   0.497   0.335  -0.037
    1UNL    C29   38   0.117   0.034   0.137
    1UNL    O10   39   0.164   0.162   0.116
    1UNL    C30   40   0.097  -0.002   0.286
    1UNL    O11   41  -0.002   0.084   0.356
    1UNL    C31   42   0.051  -0.151   0.302
    1UNL    O12   43  -0.042  -0.159   0.404
    1UNL     H1   44  -0.491  -0.535  -0.226
    1UNL     H2   45  -0.503  -0.389  -0.348
    1UNL     H3   46  -0.444  -0.572  -0.393
    1UNL     H4   47  -0.304  -0.474  -0.031
    1UNL     H5   48  -0.452  -0.384  -0.051
    1UNL     H6   49  -0.354  -0.198   0.221
    1UNL     H7   50  -0.428  -0.356   0.190
    1UNL     H8   51  -0.258  -0.341   0.209
    1UNL     H9   52  -0.399  -0.034  -0.196
    1UNL    H10   53  -0.011  -0.042  -0.195
    1UNL    H11   54  -0.155   0.036  -0.282
    1UNL    H12   55  -0.384   0.421  -0.095
    1UNL    H13   56  -0.340   0.621   0.026
    1UNL    H14   57  -0.129   0.665   0.127
    1UNL    H15   58   0.027   0.481   0.158
    1UNL    H16   59  -0.023   0.262   0.056
    1UNL    H17   60  -0.108  -0.271  -0.326
    1UNL    H18   61  -0.085  -0.416  -0.056
    1UNL    H19   62   0.013  -0.276  -0.087
    1UNL    H20   63  -0.025  -0.305   0.169
    1UNL    H21   64   0.191  -0.069  -0.054
    1UNL    H22   65   0.381  -0.179   0.089
    1UNL    H23   66   0.348  -0.050   0.200
    1UNL    H24   67   0.682   0.062  -0.103
    1UNL    H25   68   0.805   0.240  -0.252
    1UNL    H26   69   0.697   0.465  -0.276
    1UNL    H27   70   0.512   0.517  -0.154
    1UNL    H28   71   0.424   0.381   0.032
    1UNL    H29   72   0.015   0.031   0.093
    1UNL    H30   73   0.260   0.165   0.138
    1UNL    H31   74   0.190   0.015   0.343
    1UNL    H32   75   0.000   0.174   0.313
    1UNL    H33   76   0.136  -0.210   0.338
    1UNL    H34   77  -0.122  -0.110   0.386
   0.00000   0.00000   0.00000   0.00000   0.00000   0.00000   0.00000   0.00000   0.00000
Generated with MDTraj, t= 84.0
 77
    1UNL     C1    1  -0.424  -0.461  -0.343
    1UNL     O1    2  -0.293  -0.434  -0.301
    1UNL     C2    3  -0.304  -0.331  -0.200
    1UNL     C3    4  -0.331  -0.382  -0.054
    1UNL     C4    5  -0.296  -0.265   0.042
    1UNL     C5    6  -0.319  -0.289   0.190
    1UNL     O2    7  -0.384  -0.150   0.013
    1UNL     C6    8  -0.353  -0.118  -0.128
    1UNL     O3    9  -0.402  -0.225  -0.216
    1UNL     C7   10  -0.197  -0.124  -0.136
    1UNL     C8   11  -0.102  -0.013  -0.185
    1UNL     O4   12  -0.082   0.098  -0.098
    1UNL     C9   13  -0.167   0.199  -0.142
    1UNL     O5   14  -0.247   0.193  -0.231
    1UNL    C10   15  -0.171   0.322  -0.054
    1UNL    C11   16  -0.266   0.418  -0.069
    1UNL    C12   17  -0.276   0.519   0.022
    1UNL    C13   18  -0.183   0.530   0.123
    1UNL    C14   19  -0.084   0.443   0.135
    1UNL    C15   20  -0.068   0.339   0.046
    1UNL    C16   21  -0.165  -0.257  -0.206
    1UNL    C17   22  -0.069  -0.296  -0.091
    1UNL    C18   23  -0.158  -0.195  -0.006
    1UNL     O6   24  -0.098  -0.119   0.085
    1UNL    C19   25   0.001  -0.197   0.155
    1UNL     O7   26   0.120  -0.203   0.081
    1UNL    C20   27   0.189  -0.074   0.071
    1UNL    C21   28   0.338  -0.103   0.082
    1UNL     O8   29   0.404  -0.021  -0.012
    1UNL    C22   30   0.452   0.089   0.048
    1UNL     O9   31   0.428   0.126   0.162
    1UNL    C23   32   0.511   0.190  -0.050
    1UNL    C24   33   0.612   0.155  -0.136
    1UNL    C25   34   0.681   0.255  -0.207
    1UNL    C26   35   0.639   0.382  -0.199
    1UNL    C27   36   0.528   0.419  -0.116
    1UNL    C28   37   0.464   0.327  -0.041
    1UNL    C29   38   0.104   0.043   0.143
    1UNL    O10   39   0.162   0.171   0.131
    1UNL    C30   40   0.079   0.005   0.293
    1UNL    O11   41  -0.013   0.089   0.349
    1UNL    C31   42   0.029  -0.142   0.299
    1UNL    O12   43  -0.079  -0.153   0.381
    1UNL     H1   44  -0.480  -0.511  -0.260
    1UNL     H2   45  -0.464  -0.356  -0.348
    1UNL     H3   46  -0.408  -0.535  -0.424
    1UNL     H4   47  -0.273  -0.475  -0.034
    1UNL     H5   48  -0.431  -0.405  -0.041
    1UNL     H6   49  -0.275  -0.206   0.237
    1UNL     H7   50  -0.421  -0.304   0.211
    1UNL     H8   51  -0.268  -0.379   0.213
    1UNL     H9   52  -0.390  -0.022  -0.167
    1UNL    H10   53  -0.003  -0.053  -0.191
    1UNL    H11   54  -0.144   0.027  -0.284
    1UNL    H12   55  -0.330   0.417  -0.155
    1UNL    H13   56  -0.359   0.589   0.012
    1UNL    H14   57  -0.189   0.625   0.179
    1UNL    H15   58   0.004   0.466   0.195
    1UNL    H16   59   0.021   0.278   0.033
    1UNL    H17   60  -0.120  -0.256  -0.312
    1UNL    H18   61  -0.060  -0.397  -0.057
    1UNL    H19   62   0.026  -0.252  -0.104
    1UNL    H20   63  -0.037  -0.298   0.162
    1UNL    H21   64   0.172  -0.042  -0.041
    1UNL    H22   65   0.359  -0.197   0.032
    1UNL    H23   66   0.377  -0.116   0.180
    1UNL    H24   67   0.645   0.056  -0.139
    1UNL    H25   68   0.768   0.224  -0.264
    1UNL    H26   69   0.677   0.452  -0.271
    1UNL    H27   70   0.479   0.518  -0.119
    1UNL    H28   71   0.370   0.356  -0.001
    1UNL    H29   72   0.010   0.046   0.091
    1UNL    H30   73   0.256   0.158   0.139
    1UNL    H31   74   0.174   0.012   0.352
    1UNL    H32   75  -0.008   0.178   0.301
    1UNL    H33   76   0.108  -0.200   0.346
    1UNL    H34   77  -0.142  -0.076   0.366
   0.00000   0.00000   0.00000   0.00000   0.00000   0.00000   0.00000   0.00000   0.00000
Generated with MDTraj, t= 85.0
 77
    1UNL     C1    1  -0.465  -0.410  -0.348
    1UNL     O1    2  -0.323  -0.430  -0.307
    1UNL     C2    3  -0.300  -0.333  -0.208
    1UNL     C3    4  -0.349  -0.384  -0.062
    1UNL     C4    5  -0.299  -0.261   0.029
    1UNL     C5    6  -0.325  -0.293   0.178
    1UNL     O2    7  -0.373  -0.142  -0.009
    1UNL     C6    8  -0.329  -0.113  -0.135
    1UNL     O3    9  -0.378  -0.213  -0.225
    1UNL     C7   10  -0.171  -0.142  -0.143
    1UNL     C8   11  -0.084  -0.016  -0.196
    1UNL     O4   12  -0.097   0.087  -0.099
    1UNL     C9   13  -0.154   0.201  -0.149
    1UNL     O5   14  -0.196   0.222  -0.260
    1UNL    C10   15  -0.171   0.311  -0.045
    1UNL    C11   16  -0.271   0.404  -0.062
    1UNL    C12   17  -0.291   0.507   0.029
    1UNL    C13   18  -0.199   0.518   0.133
    1UNL    C14   19  -0.093   0.433   0.145
    1UNL    C15   20  -0.076   0.330   0.056
    1UNL    C16   21  -0.152  -0.280  -0.211
    1UNL    C17   22  -0.067  -0.327  -0.089
    1UNL    C18   23  -0.143  -0.222  -0.005
    1UNL     O6   24  -0.089  -0.138   0.092
    1UNL    C19   25  -0.003  -0.207   0.183
    1UNL     O7   26   0.123  -0.230   0.128
    1UNL    C20   27   0.187  -0.106   0.080
    1UNL    C21   28   0.341  -0.095   0.089
    1UNL     O8   29   0.399  -0.004  -0.004
    1UNL    C22   30   0.460   0.106   0.058
    1UNL     O9   31   0.441   0.138   0.173
    1UNL    C23   32   0.513   0.200  -0.043
    1UNL    C24   33   0.594   0.159  -0.148
    1UNL    C25   34   0.647   0.254  -0.234
    1UNL    C26   35   0.610   0.386  -0.228
    1UNL    C27   36   0.522   0.429  -0.130
    1UNL    C28   37   0.475   0.333  -0.040
    1UNL    C29   38   0.113   0.025   0.145
    1UNL    O10   39   0.155   0.159   0.121
    1UNL    C30   40   0.098   0.011   0.296
    1UNL    O11   41   0.015   0.108   0.346
    1UNL    C31   42   0.021  -0.129   0.322
    1UNL    O12   43  -0.105  -0.120   0.393
    1UNL     H1   44  -0.523  -0.374  -0.261
    1UNL     H2   45  -0.464  -0.323  -0.413
    1UNL     H3   46  -0.500  -0.500  -0.392
    1UNL     H4   47  -0.303  -0.480  -0.036
    1UNL     H5   48  -0.453  -0.398  -0.050
    1UNL     H6   49  -0.278  -0.226   0.244
    1UNL     H7   50  -0.428  -0.295   0.193
    1UNL     H8   51  -0.299  -0.392   0.207
    1UNL     H9   52  -0.360  -0.009  -0.165
    1UNL    H10   53   0.019  -0.036  -0.208
    1UNL    H11   54  -0.134   0.030  -0.288
    1UNL    H12   55  -0.347   0.390  -0.145
    1UNL    H13   56  -0.372   0.578   0.030
    1UNL    H14   57  -0.220   0.591   0.210
    1UNL    H15   58  -0.016   0.456   0.217
    1UNL    H16   59   0.022   0.281   0.054
    1UNL    H17   60  -0.115  -0.269  -0.320
    1UNL    H18   61  -0.074  -0.429  -0.062
    1UNL    H19   62   0.031  -0.289  -0.093
    1UNL    H20   63  -0.043  -0.306   0.205
    1UNL    H21   64   0.160  -0.098  -0.034
    1UNL    H22   65   0.389  -0.196   0.090
    1UNL    H23   66   0.378  -0.055   0.182
    1UNL    H24   67   0.649   0.063  -0.131
    1UNL    H25   68   0.714   0.217  -0.310
    1UNL    H26   69   0.659   0.453  -0.300
    1UNL    H27   70   0.495   0.532  -0.143
    1UNL    H28   71   0.396   0.357   0.033
    1UNL    H29   72   0.018   0.022   0.101
    1UNL    H30   73   0.251   0.160   0.152
    1UNL    H31   74   0.200   0.013   0.343
    1UNL    H32   75   0.035   0.192   0.304
    1UNL    H33   76   0.088  -0.185   0.386
    1UNL    H34   77  -0.150  -0.040   0.365
   0.00000   0.00000   0.00000   0.00000   0.00000   0.00000   0.00000   0.00000   0.00000
Generated with MDTraj, t= 86.0
 77
    1UNL     C1    1  -0.461  -0.404  -0.373
    1UNL     O1    2  -0.332  -0.421  -0.311
    1UNL     C2    3  -0.319  -0.320  -0.224
    1UNL     C3    4  -0.363  -0.358  -0.071
    1UNL     C4    5  -0.310  -0.254   0.029
    1UNL     C5    6  -0.338  -0.292   0.175
    1UNL     O2    7  -0.380  -0.129  -0.020
    1UNL     C6    8  -0.327  -0.103  -0.151
    1UNL     O3    9  -0.386  -0.191  -0.253
    1UNL     C7   10  -0.176  -0.139  -0.136
    1UNL     C8   11  -0.061  -0.033  -0.150
    1UNL     O4   12  -0.087   0.072  -0.063
    1UNL     C9   13  -0.138   0.182  -0.127
    1UNL     O5   14  -0.163   0.183  -0.245
    1UNL    C10   15  -0.165   0.298  -0.045
    1UNL    C11   16  -0.281   0.381  -0.068
    1UNL    C12   17  -0.300   0.489   0.020
    1UNL    C13   18  -0.218   0.504   0.128
    1UNL    C14   19  -0.106   0.425   0.147
    1UNL    C15   20  -0.082   0.323   0.059
    1UNL    C16   21  -0.164  -0.280  -0.209
    1UNL    C17   22  -0.088  -0.337  -0.085
    1UNL    C18   23  -0.158  -0.225  -0.004
    1UNL     O6   24  -0.095  -0.154   0.102
    1UNL    C19   25   0.007  -0.215   0.182
    1UNL     O7   26   0.142  -0.217   0.135
    1UNL    C20   27   0.201  -0.089   0.093
    1UNL    C21   28   0.356  -0.084   0.113
    1UNL     O8   29   0.412  -0.003   0.013
    1UNL    C22   30   0.464   0.116   0.065
    1UNL     O9   31   0.462   0.160   0.178
    1UNL    C23   32   0.514   0.209  -0.043
    1UNL    C24   33   0.569   0.164  -0.165
    1UNL    C25   34   0.601   0.243  -0.266
    1UNL    C26   35   0.603   0.383  -0.245
    1UNL    C27   36   0.529   0.431  -0.137
    1UNL    C28   37   0.486   0.344  -0.038
    1UNL    C29   38   0.117   0.028   0.154
    1UNL    O10   39   0.165   0.160   0.123
    1UNL    C30   40   0.101  -0.002   0.301
    1UNL    O11   41   0.045   0.116   0.353
    1UNL    C31   42   0.015  -0.137   0.312
    1UNL    O12   43  -0.110  -0.095   0.357
    1UNL     H1   44  -0.533  -0.417  -0.291
    1UNL     H2   45  -0.472  -0.305  -0.413
    1UNL     H3   46  -0.457  -0.466  -0.459
    1UNL     H4   47  -0.332  -0.450  -0.027
    1UNL     H5   48  -0.475  -0.363  -0.068
    1UNL     H6   49  -0.299  -0.212   0.231
    1UNL     H7   50  -0.435  -0.312   0.209
    1UNL     H8   51  -0.282  -0.374   0.212
    1UNL     H9   52  -0.339   0.007  -0.172
    1UNL    H10   53   0.028  -0.080  -0.124
    1UNL    H11   54  -0.060   0.007  -0.257
    1UNL    H12   55  -0.349   0.350  -0.136
    1UNL    H13   56  -0.401   0.527   0.024
    1UNL    H14   57  -0.237   0.566   0.212
    1UNL    H15   58  -0.037   0.442   0.230
    1UNL    H16   59   0.000   0.262   0.081
    1UNL    H17   60  -0.103  -0.295  -0.306
    1UNL    H18   61  -0.127  -0.436  -0.076
    1UNL    H19   62   0.016  -0.331  -0.098
    1UNL    H20   63  -0.021  -0.318   0.205
    1UNL    H21   64   0.178  -0.071  -0.020
    1UNL    H22   65   0.408  -0.184   0.102
    1UNL    H23   66   0.389  -0.051   0.213
    1UNL    H24   67   0.598   0.064  -0.169
    1UNL    H25   68   0.664   0.199  -0.342
    1UNL    H26   69   0.632   0.442  -0.327
    1UNL    H27   70   0.492   0.533  -0.136
    1UNL    H28   71   0.444   0.381   0.052
    1UNL    H29   72   0.018   0.021   0.119
    1UNL    H30   73   0.263   0.159   0.127
    1UNL    H31   74   0.196  -0.019   0.355
    1UNL    H32   75   0.078   0.195   0.301
    1UNL    H33   76   0.054  -0.204   0.390
    1UNL    H34   77  -0.135  -0.014   0.304
   0.00000   0.00000   0.00000   0.00000   0.00000   0.00000   0.00000   0.00000   0.00000
Generated with MDTraj, t= 87.0
 77
    1UNL     C1    1  -0.453  -0.387  -0.367
    1UNL     O1    2  -0.334  -0.423  -0.307
    1UNL     C2    3  -0.308  -0.318  -0.215
    1UNL     C3    4  -0.361  -0.359  -0.072
    1UNL     C4    5  -0.319  -0.241   0.020
    1UNL     C5    6  -0.342  -0.273   0.167
    1UNL     O2    7  -0.378  -0.119  -0.022
    1UNL     C6    8  -0.314  -0.090  -0.153
    1UNL     O3    9  -0.363  -0.186  -0.241
    1UNL     C7   10  -0.161  -0.138  -0.137
    1UNL     C8   11  -0.040  -0.038  -0.182
    1UNL     O4   12  -0.029   0.078  -0.099
    1UNL     C9   13  -0.128   0.168  -0.122
    1UNL     O5   14  -0.199   0.156  -0.221
    1UNL    C10   15  -0.161   0.282  -0.034
    1UNL    C11   16  -0.273   0.353  -0.068
    1UNL    C12   17  -0.310   0.466   0.005
    1UNL    C13   18  -0.239   0.502   0.117
    1UNL    C14   19  -0.127   0.426   0.151
    1UNL    C15   20  -0.090   0.318   0.077
    1UNL    C16   21  -0.158  -0.279  -0.198
    1UNL    C17   22  -0.082  -0.328  -0.073
    1UNL    C18   23  -0.158  -0.214  -0.002
    1UNL     O6   24  -0.091  -0.128   0.098
    1UNL    C19   25   0.010  -0.194   0.177
    1UNL     O7   26   0.137  -0.195   0.107
    1UNL    C20   27   0.201  -0.063   0.083
    1UNL    C21   28   0.348  -0.081   0.101
    1UNL     O8   29   0.431  -0.016   0.008
    1UNL    C22   30   0.461   0.109   0.055
    1UNL     O9   31   0.434   0.150   0.166
    1UNL    C23   32   0.514   0.195  -0.051
    1UNL    C24   33   0.540   0.151  -0.179
    1UNL    C25   34   0.566   0.238  -0.280
    1UNL    C26   35   0.578   0.372  -0.255
    1UNL    C27   36   0.559   0.419  -0.126
    1UNL    C28   37   0.519   0.333  -0.023
    1UNL    C29   38   0.126   0.040   0.169
    1UNL    O10   39   0.160   0.177   0.174
    1UNL    C30   40   0.100  -0.006   0.313
    1UNL    O11   41   0.035   0.098   0.383
    1UNL    C31   42   0.010  -0.133   0.316
    1UNL    O12   43  -0.124  -0.104   0.354
    1UNL     H1   44  -0.530  -0.417  -0.290
    1UNL     H2   45  -0.453  -0.281  -0.395
    1UNL     H3   46  -0.444  -0.437  -0.462
    1UNL     H4   47  -0.325  -0.455  -0.044
    1UNL     H5   48  -0.474  -0.376  -0.076
    1UNL     H6   49  -0.308  -0.198   0.233
    1UNL     H7   50  -0.442  -0.299   0.190
    1UNL     H8   51  -0.288  -0.358   0.196
    1UNL     H9   52  -0.326   0.009  -0.207
    1UNL    H10   53   0.049  -0.090  -0.172
    1UNL    H11   54  -0.056  -0.005  -0.289
    1UNL    H12   55  -0.345   0.310  -0.147
    1UNL    H13   56  -0.398   0.521  -0.022
    1UNL    H14   57  -0.258   0.595   0.180
    1UNL    H15   58  -0.066   0.461   0.233
    1UNL    H16   59   0.007   0.267   0.098
    1UNL    H17   60  -0.098  -0.263  -0.295
    1UNL    H18   61  -0.117  -0.426  -0.055
    1UNL    H19   62   0.024  -0.318  -0.065
    1UNL    H20   63  -0.014  -0.303   0.183
    1UNL    H21   64   0.175  -0.035  -0.028
    1UNL    H22   65   0.367  -0.195   0.095
    1UNL    H23   66   0.381  -0.058   0.205
    1UNL    H24   67   0.544   0.040  -0.198
    1UNL    H25   68   0.597   0.216  -0.382
    1UNL    H26   69   0.578   0.441  -0.346
    1UNL    H27   70   0.541   0.523  -0.108
    1UNL    H28   71   0.489   0.361   0.080
    1UNL    H29   72   0.029   0.038   0.129
    1UNL    H30   73   0.258   0.181   0.175
    1UNL    H31   74   0.202  -0.018   0.354
    1UNL    H32   75   0.065   0.183   0.339
    1UNL    H33   76   0.056  -0.206   0.386
    1UNL    H34   77  -0.159  -0.050   0.281
   0.00000   0.00000   0.00000   0.00000   0.00000   0.00000   0.00000   0.00000   0.00000
Generated with MDTraj, t= 88.0
 77
    1UNL     C1    1  -0.447  -0.415  -0.363
    1UNL     O1    2  -0.314  -0.421  -0.299
    1UNL     C2    3  -0.294  -0.314  -0.214
    1UNL     C3    4  -0.345  -0.338  -0.073
    1UNL     C4    5  -0.299  -0.222   0.015
    1UNL     C5    6  -0.332  -0.217   0.168
    1UNL     O2    7  -0.363  -0.103  -0.042
    1UNL     C6    8  -0.312  -0.094  -0.176
    1UNL     O3    9  -0.363  -0.194  -0.261
    1UNL     C7   10  -0.151  -0.125  -0.153
    1UNL     C8   11  -0.047  -0.018  -0.186
    1UNL     O4   12  -0.064   0.092  -0.109
    1UNL     C9   13  -0.162   0.174  -0.151
    1UNL     O5   14  -0.214   0.168  -0.260
    1UNL    C10   15  -0.186   0.284  -0.057
    1UNL    C11   16  -0.296   0.359  -0.065
    1UNL    C12   17  -0.320   0.462   0.027
    1UNL    C13   18  -0.231   0.486   0.130
    1UNL    C14   19  -0.118   0.402   0.141
    1UNL    C15   20  -0.093   0.308   0.049
    1UNL    C16   21  -0.135  -0.277  -0.209
    1UNL    C17   22  -0.066  -0.313  -0.079
    1UNL    C18   23  -0.144  -0.195  -0.011
    1UNL     O6   24  -0.083  -0.125   0.098
    1UNL    C19   25  -0.006  -0.206   0.186
    1UNL     O7   26   0.129  -0.212   0.136
    1UNL    C20   27   0.183  -0.082   0.102
    1UNL    C21   28   0.337  -0.074   0.119
    1UNL     O8   29   0.396   0.002   0.013
    1UNL    C22   30   0.462   0.113   0.047
    1UNL     O9   31   0.473   0.146   0.163
    1UNL    C23   32   0.487   0.205  -0.065
    1UNL    C24   33   0.483   0.158  -0.197
    1UNL    C25   34   0.542   0.241  -0.291
    1UNL    C26   35   0.591   0.368  -0.260
    1UNL    C27   36   0.603   0.403  -0.127
    1UNL    C28   37   0.548   0.324  -0.031
    1UNL    C29   38   0.105   0.033   0.184
    1UNL    O10   39   0.174   0.159   0.177
    1UNL    C30   40   0.090  -0.015   0.332
    1UNL    O11   41   0.037   0.089   0.419
    1UNL    C31   42   0.010  -0.148   0.334
    1UNL    O12   43  -0.106  -0.140   0.416
    1UNL     H1   44  -0.503  -0.335  -0.303
    1UNL     H2   45  -0.430  -0.408  -0.473
    1UNL     H3   46  -0.499  -0.510  -0.350
    1UNL     H4   47  -0.315  -0.435  -0.034
    1UNL     H5   48  -0.458  -0.343  -0.078
    1UNL     H6   49  -0.276  -0.146   0.223
    1UNL     H7   50  -0.437  -0.209   0.179
    1UNL     H8   51  -0.307  -0.312   0.203
    1UNL     H9   52  -0.334   0.005  -0.226
    1UNL    H10   53   0.045  -0.056  -0.161
    1UNL    H11   54  -0.052   0.010  -0.295
    1UNL    H12   55  -0.363   0.342  -0.142
    1UNL    H13   56  -0.398   0.535   0.003
    1UNL    H14   57  -0.237   0.576   0.177
    1UNL    H15   58  -0.033   0.433   0.199
    1UNL    H16   59  -0.006   0.247   0.043
    1UNL    H17   60  -0.073  -0.293  -0.304
    1UNL    H18   61  -0.104  -0.403  -0.039
    1UNL    H19   62   0.043  -0.315  -0.078
    1UNL    H20   63  -0.049  -0.308   0.192
    1UNL    H21   64   0.173  -0.070  -0.014
    1UNL    H22   65   0.384  -0.178   0.112
    1UNL    H23   66   0.372  -0.039   0.219
    1UNL    H24   67   0.470   0.060  -0.226
    1UNL    H25   68   0.530   0.208  -0.391
    1UNL    H26   69   0.635   0.425  -0.333
    1UNL    H27   70   0.647   0.498  -0.101
    1UNL    H28   71   0.534   0.357   0.069
    1UNL    H29   72   0.007   0.046   0.149
    1UNL    H30   73   0.271   0.138   0.194
    1UNL    H31   74   0.187  -0.038   0.377
    1UNL    H32   75   0.080   0.171   0.396
    1UNL    H33   76   0.072  -0.226   0.387
    1UNL    H34   77  -0.083  -0.083   0.493
   0.00000   0.00000   0.00000   0.00000   0.00000   0.00000   0.00000   0.00000   0.00000
Generated with MDTraj, t= 89.0
 77
    1UNL     C1    1  -0.411  -0.467  -0.337
    1UNL     O1    2  -0.276  -0.437  -0.290
    1UNL     C2    3  -0.283  -0.326  -0.198
    1UNL     C3    4  -0.343  -0.344  -0.058
    1UNL     C4    5  -0.313  -0.217   0.024
    1UNL     C5    6  -0.358  -0.228   0.175
    1UNL     O2    7  -0.369  -0.099  -0.044
    1UNL     C6    8  -0.307  -0.089  -0.171
    1UNL     O3    9  -0.341  -0.203  -0.259
    1UNL     C7   10  -0.157  -0.117  -0.140
    1UNL     C8   11  -0.055  -0.011  -0.196
    1UNL     O4   12  -0.054   0.109  -0.123
    1UNL     C9   13  -0.149   0.200  -0.161
    1UNL     O5   14  -0.217   0.203  -0.265
    1UNL    C10   15  -0.161   0.313  -0.068
    1UNL    C11   16  -0.286   0.374  -0.066
    1UNL    C12   17  -0.327   0.456   0.036
    1UNL    C13   18  -0.242   0.480   0.144
    1UNL    C14   19  -0.117   0.415   0.150
    1UNL    C15   20  -0.078   0.330   0.043
    1UNL    C16   21  -0.135  -0.269  -0.197
    1UNL    C17   22  -0.070  -0.301  -0.067
    1UNL    C18   23  -0.156  -0.187   0.008
    1UNL     O6   24  -0.089  -0.124   0.118
    1UNL    C19   25  -0.000  -0.214   0.179
    1UNL     O7   26   0.131  -0.212   0.116
    1UNL    C20   27   0.174  -0.077   0.092
    1UNL    C21   28   0.326  -0.081   0.085
    1UNL     O8   29   0.375   0.009  -0.011
    1UNL    C22   30   0.442   0.117   0.038
    1UNL     O9   31   0.447   0.148   0.155
    1UNL    C23   32   0.505   0.208  -0.060
    1UNL    C24   33   0.465   0.176  -0.191
    1UNL    C25   34   0.505   0.259  -0.296
    1UNL    C26   35   0.592   0.359  -0.263
    1UNL    C27   36   0.645   0.382  -0.136
    1UNL    C28   37   0.601   0.302  -0.035
    1UNL    C29   38   0.111   0.029   0.193
    1UNL    O10   39   0.182   0.148   0.204
    1UNL    C30   40   0.082  -0.029   0.335
    1UNL    O11   41   0.015   0.063   0.423
    1UNL    C31   42   0.005  -0.164   0.331
    1UNL    O12   43  -0.131  -0.139   0.374
    1UNL     H1   44  -0.468  -0.370  -0.355
    1UNL     H2   45  -0.393  -0.541  -0.418
    1UNL     H3   46  -0.463  -0.522  -0.259
    1UNL     H4   47  -0.298  -0.438  -0.015
    1UNL     H5   48  -0.450  -0.364  -0.063
    1UNL     H6   49  -0.355  -0.128   0.205
    1UNL     H7   50  -0.459  -0.259   0.173
    1UNL     H8   51  -0.297  -0.288   0.238
    1UNL     H9   52  -0.321   0.016  -0.208
    1UNL    H10   53   0.041  -0.048  -0.194
    1UNL    H11   54  -0.074   0.016  -0.303
    1UNL    H12   55  -0.358   0.342  -0.143
    1UNL    H13   56  -0.425   0.494   0.033
    1UNL    H14   57  -0.271   0.561   0.217
    1UNL    H15   58  -0.051   0.436   0.234
    1UNL    H16   59   0.013   0.271   0.047
    1UNL    H17   60  -0.078  -0.277  -0.297
    1UNL    H18   61  -0.093  -0.397  -0.020
    1UNL    H19   62   0.037  -0.282  -0.056
    1UNL    H20   63  -0.043  -0.317   0.184
    1UNL    H21   64   0.143  -0.056  -0.019
    1UNL    H22   65   0.367  -0.177   0.042
    1UNL    H23   66   0.371  -0.080   0.184
    1UNL    H24   67   0.400   0.085  -0.210
    1UNL    H25   68   0.482   0.231  -0.400
    1UNL    H26   69   0.630   0.433  -0.341
    1UNL    H27   70   0.717   0.461  -0.122
    1UNL    H28   71   0.637   0.304   0.069
    1UNL    H29   72   0.019   0.053   0.145
    1UNL    H30   73   0.276   0.138   0.186
    1UNL    H31   74   0.181  -0.049   0.376
    1UNL    H32   75   0.067   0.147   0.427
    1UNL    H33   76   0.052  -0.238   0.400
    1UNL    H34   77  -0.161  -0.061   0.321
   0.00000   0.00000   0.00000   0.00000   0.00000   0.00000   0.00000   0.00000   0.00000
Generated with MDTraj, t= 90.0
 77
    1UNL     C1    1  -0.429  -0.486  -0.343
    1UNL     O1    2  -0.300  -0.445  -0.304
    1UNL     C2    3  -0.280  -0.326  -0.222
    1UNL     C3    4  -0.330  -0.353  -0.084
    1UNL     C4    5  -0.302  -0.227   0.008
    1UNL     C5    6  -0.329  -0.254   0.154
    1UNL     O2    7  -0.379  -0.116  -0.054
    1UNL     C6    8  -0.317  -0.102  -0.183
    1UNL     O3    9  -0.362  -0.215  -0.266
    1UNL     C7   10  -0.161  -0.131  -0.157
    1UNL     C8   11  -0.053  -0.022  -0.178
    1UNL     O4   12  -0.052   0.089  -0.086
    1UNL     C9   13  -0.144   0.179  -0.128
    1UNL     O5   14  -0.200   0.183  -0.240
    1UNL    C10   15  -0.165   0.288  -0.031
    1UNL    C11   16  -0.284   0.365  -0.052
    1UNL    C12   17  -0.312   0.466   0.028
    1UNL    C13   18  -0.224   0.506   0.131
    1UNL    C14   19  -0.110   0.427   0.158
    1UNL    C15   20  -0.084   0.313   0.075
    1UNL    C16   21  -0.126  -0.276  -0.210
    1UNL    C17   22  -0.050  -0.302  -0.078
    1UNL    C18   23  -0.151  -0.192  -0.014
    1UNL     O6   24  -0.105  -0.114   0.099
    1UNL    C19   25  -0.021  -0.186   0.182
    1UNL     O7   26   0.110  -0.198   0.129
    1UNL    C20   27   0.162  -0.066   0.108
    1UNL    C21   28   0.315  -0.069   0.092
    1UNL     O8   29   0.374  -0.002  -0.017
    1UNL    C22   30   0.438   0.111   0.020
    1UNL     O9   31   0.466   0.142   0.136
    1UNL    C23   32   0.499   0.201  -0.082
    1UNL    C24   33   0.442   0.223  -0.207
    1UNL    C25   34   0.504   0.306  -0.302
    1UNL    C26   35   0.623   0.364  -0.267
    1UNL    C27   36   0.677   0.354  -0.136
    1UNL    C28   37   0.613   0.273  -0.044
    1UNL    C29   38   0.105   0.045   0.210
    1UNL    O10   39   0.175   0.173   0.208
    1UNL    C30   40   0.076  -0.013   0.350
    1UNL    O11   41   0.025   0.076   0.447
    1UNL    C31   42  -0.009  -0.136   0.336
    1UNL    O12   43  -0.136  -0.109   0.389
    1UNL     H1   44  -0.471  -0.406  -0.408
    1UNL     H2   45  -0.413  -0.577  -0.399
    1UNL     H3   46  -0.491  -0.508  -0.259
    1UNL     H4   47  -0.271  -0.446  -0.050
    1UNL     H5   48  -0.433  -0.384  -0.091
    1UNL     H6   49  -0.284  -0.177   0.207
    1UNL     H7   50  -0.434  -0.247   0.164
    1UNL     H8   51  -0.283  -0.347   0.181
    1UNL     H9   52  -0.337  -0.005  -0.232
    1UNL    H10   53   0.044  -0.059  -0.185
    1UNL    H11   54  -0.057   0.019  -0.283
    1UNL    H12   55  -0.360   0.314  -0.109
    1UNL    H13   56  -0.413   0.513   0.020
    1UNL    H14   57  -0.254   0.583   0.195
    1UNL    H15   58  -0.049   0.447   0.244
    1UNL    H16   59  -0.008   0.245   0.104
    1UNL    H17   60  -0.059  -0.271  -0.302
    1UNL    H18   61  -0.064  -0.405  -0.039
    1UNL    H19   62   0.054  -0.271  -0.055
    1UNL    H20   63  -0.056  -0.292   0.186
    1UNL    H21   64   0.115  -0.049   0.003
    1UNL    H22   65   0.350  -0.171   0.100
    1UNL    H23   66   0.360  -0.031   0.181
    1UNL    H24   67   0.350   0.180  -0.231
    1UNL    H25   68   0.474   0.317  -0.405
    1UNL    H26   69   0.676   0.433  -0.327
    1UNL    H27   70   0.761   0.408  -0.094
    1UNL    H28   71   0.664   0.251   0.047
    1UNL    H29   72   0.007   0.063   0.166
    1UNL    H30   73   0.268   0.163   0.169
    1UNL    H31   74   0.173  -0.043   0.392
    1UNL    H32   75   0.056   0.166   0.418
    1UNL    H33   76   0.039  -0.220   0.391
    1UNL    H34   77  -0.132  -0.050   0.466
   0.00000   0.00000   0.00000   0.00000   0.00000   0.00000   0.00000   0.00000   0.00000
Generated with MDTraj, t= 91.0
 77
    1UNL     C1    1  -0.425  -0.440  -0.381
    1UNL     O1    2  -0.299  -0.450  -0.325
    1UNL     C2    3  -0.280  -0.338  -0.224
    1UNL     C3    4  -0.341  -0.377  -0.087
    1UNL     C4    5  -0.312  -0.254   0.009
    1UNL     C5    6  -0.361  -0.268   0.153
    1UNL     O2    7  -0.368  -0.136  -0.051
    1UNL     C6    8  -0.296  -0.114  -0.177
    1UNL     O3    9  -0.342  -0.211  -0.267
    1UNL     C7   10  -0.147  -0.138  -0.144
    1UNL     C8   11  -0.044  -0.026  -0.163
    1UNL     O4   12  -0.058   0.086  -0.077
    1UNL     C9   13  -0.162   0.165  -0.109
    1UNL     O5   14  -0.236   0.150  -0.206
    1UNL    C10   15  -0.169   0.286  -0.028
    1UNL    C11   16  -0.278   0.369  -0.041
    1UNL    C12   17  -0.300   0.477   0.040
    1UNL    C13   18  -0.205   0.507   0.141
    1UNL    C14   19  -0.093   0.428   0.154
    1UNL    C15   20  -0.076   0.317   0.074
    1UNL    C16   21  -0.132  -0.289  -0.201
    1UNL    C17   22  -0.072  -0.318  -0.063
    1UNL    C18   23  -0.154  -0.208  -0.002
    1UNL     O6   24  -0.103  -0.126   0.113
    1UNL    C19   25  -0.015  -0.195   0.198
    1UNL     O7   26   0.121  -0.203   0.146
    1UNL    C20   27   0.157  -0.072   0.104
    1UNL    C21   28   0.312  -0.058   0.076
    1UNL     O8   29   0.344   0.041  -0.018
    1UNL    C22   30   0.434   0.132   0.032
    1UNL     O9   31   0.462   0.160   0.149
    1UNL    C23   32   0.507   0.203  -0.074
    1UNL    C24   33   0.436   0.238  -0.188
    1UNL    C25   34   0.500   0.315  -0.288
    1UNL    C26   35   0.631   0.365  -0.269
    1UNL    C27   36   0.694   0.337  -0.153
    1UNL    C28   37   0.637   0.251  -0.058
    1UNL    C29   38   0.092   0.041   0.193
    1UNL    O10   39   0.166   0.173   0.186
    1UNL    C30   40   0.091  -0.015   0.338
    1UNL    O11   41   0.048   0.090   0.417
    1UNL    C31   42  -0.020  -0.126   0.341
    1UNL    O12   43  -0.146  -0.057   0.333
    1UNL     H1   44  -0.449  -0.335  -0.372
    1UNL     H2   45  -0.416  -0.454  -0.487
    1UNL     H3   46  -0.494  -0.504  -0.333
    1UNL     H4   47  -0.302  -0.478  -0.049
    1UNL     H5   48  -0.449  -0.384  -0.097
    1UNL     H6   49  -0.317  -0.197   0.216
    1UNL     H7   50  -0.466  -0.267   0.164
    1UNL     H8   51  -0.314  -0.361   0.183
    1UNL     H9   52  -0.315  -0.014  -0.217
    1UNL    H10   53   0.053  -0.065  -0.167
    1UNL    H11   54  -0.041   0.014  -0.269
    1UNL    H12   55  -0.351   0.333  -0.111
    1UNL    H13   56  -0.391   0.530   0.039
    1UNL    H14   57  -0.219   0.603   0.193
    1UNL    H15   58  -0.020   0.443   0.231
    1UNL    H16   59   0.008   0.247   0.080
    1UNL    H17   60  -0.066  -0.296  -0.294
    1UNL    H18   61  -0.102  -0.420  -0.024
    1UNL    H19   62   0.041  -0.308  -0.072
    1UNL    H20   63  -0.056  -0.298   0.204
    1UNL    H21   64   0.107  -0.055   0.003
    1UNL    H22   65   0.359  -0.147   0.036
    1UNL    H23   66   0.368  -0.039   0.163
    1UNL    H24   67   0.329   0.210  -0.197
    1UNL    H25   68   0.438   0.360  -0.366
    1UNL    H26   69   0.683   0.425  -0.342
    1UNL    H27   70   0.794   0.372  -0.137
    1UNL    H28   71   0.682   0.240   0.042
    1UNL    H29   72  -0.016   0.060   0.170
    1UNL    H30   73   0.257   0.157   0.159
    1UNL    H31   74   0.189  -0.043   0.384
    1UNL    H32   75   0.084   0.170   0.377
    1UNL    H33   76  -0.013  -0.189   0.431
    1UNL    H34   77  -0.144   0.024   0.392
   0.00000   0.00000   0.00000   0.00000   0.00000   0.00000   0.00000   0.00000   0.00000
Generated with MDTraj, t= 92.0
 77
    1UNL     C1    1  -0.388  -0.447  -0.419
    1UNL     O1    2  -0.283  -0.439  -0.323
    1UNL     C2    3  -0.283  -0.336  -0.225
    1UNL     C3    4  -0.332  -0.382  -0.081
    1UNL     C4    5  -0.304  -0.260   0.016
    1UNL     C5    6  -0.346  -0.291   0.161
    1UNL     O2    7  -0.385  -0.154  -0.042
    1UNL     C6    8  -0.330  -0.123  -0.170
    1UNL     O3    9  -0.363  -0.225  -0.257
    1UNL     C7   10  -0.164  -0.140  -0.146
    1UNL     C8   11  -0.071  -0.025  -0.183
    1UNL     O4   12  -0.056   0.087  -0.103
    1UNL     C9   13  -0.157   0.174  -0.115
    1UNL     O5   14  -0.237   0.169  -0.206
    1UNL    C10   15  -0.166   0.280  -0.016
    1UNL    C11   16  -0.278   0.351  -0.017
    1UNL    C12   17  -0.291   0.465   0.064
    1UNL    C13   18  -0.178   0.506   0.139
    1UNL    C14   19  -0.064   0.426   0.141
    1UNL    C15   20  -0.055   0.319   0.063
    1UNL    C16   21  -0.134  -0.280  -0.205
    1UNL    C17   22  -0.064  -0.317  -0.060
    1UNL    C18   23  -0.158  -0.211  -0.004
    1UNL     O6   24  -0.114  -0.126   0.106
    1UNL    C19   25  -0.020  -0.187   0.199
    1UNL     O7   26   0.122  -0.191   0.156
    1UNL    C20   27   0.151  -0.062   0.097
    1UNL    C21   28   0.300  -0.063   0.072
    1UNL     O8   29   0.343   0.038  -0.022
    1UNL    C22   30   0.433   0.127   0.032
    1UNL     O9   31   0.457   0.141   0.150
    1UNL    C23   32   0.502   0.219  -0.060
    1UNL    C24   33   0.425   0.260  -0.171
    1UNL    C25   34   0.493   0.319  -0.275
    1UNL    C26   35   0.632   0.349  -0.265
    1UNL    C27   36   0.694   0.319  -0.149
    1UNL    C28   37   0.633   0.252  -0.046
    1UNL    C29   38   0.095   0.051   0.185
    1UNL    O10   39   0.170   0.175   0.177
    1UNL    C30   40   0.088   0.002   0.326
    1UNL    O11   41   0.054   0.117   0.397
    1UNL    C31   42  -0.022  -0.115   0.340
    1UNL    O12   43  -0.155  -0.062   0.364
    1UNL     H1   44  -0.347  -0.382  -0.497
    1UNL     H2   45  -0.391  -0.540  -0.475
    1UNL     H3   46  -0.481  -0.416  -0.375
    1UNL     H4   47  -0.279  -0.467  -0.040
    1UNL     H5   48  -0.443  -0.397  -0.072
    1UNL     H6   49  -0.342  -0.202   0.220
    1UNL     H7   50  -0.447  -0.321   0.164
    1UNL     H8   51  -0.284  -0.359   0.215
    1UNL     H9   52  -0.360  -0.025  -0.212
    1UNL    H10   53   0.027  -0.058  -0.197
    1UNL    H11   54  -0.092   0.007  -0.289
    1UNL    H12   55  -0.355   0.326  -0.085
    1UNL    H13   56  -0.375   0.536   0.047
    1UNL    H14   57  -0.178   0.604   0.189
    1UNL    H15   58   0.027   0.472   0.178
    1UNL    H16   59   0.038   0.266   0.050
    1UNL    H17   60  -0.063  -0.293  -0.294
    1UNL    H18   61  -0.080  -0.422  -0.023
    1UNL    H19   62   0.045  -0.282  -0.059
    1UNL    H20   63  -0.067  -0.285   0.207
    1UNL    H21   64   0.098  -0.055  -0.001
    1UNL    H22   65   0.325  -0.163   0.039
    1UNL    H23   66   0.354  -0.048   0.162
    1UNL    H24   67   0.318   0.253  -0.164
    1UNL    H25   68   0.434   0.347  -0.361
    1UNL    H26   69   0.684   0.373  -0.362
    1UNL    H27   70   0.801   0.339  -0.146
    1UNL    H28   71   0.685   0.230   0.044
    1UNL    H29   72  -0.014   0.068   0.152
    1UNL    H30   73   0.267   0.161   0.165
    1UNL    H31   74   0.196  -0.023   0.345
    1UNL    H32   75   0.104   0.190   0.347
    1UNL    H33   76  -0.009  -0.189   0.418
    1UNL    H34   77  -0.148   0.034   0.374
   0.00000   0.00000   0.00000   0.00000   0.00000   0.00000   0.00000   0.00000   0.00000
Generated with MDTraj, t= 93.0
 77
    1UNL     C1    1  -0.357  -0.455  -0.420
    1UNL     O1    2  -0.272  -0.472  -0.303
    1UNL     C2    3  -0.271  -0.355  -0.213
    1UNL     C3    4  -0.311  -0.394  -0.062
    1UNL     C4    5  -0.304  -0.258   0.023
    1UNL     C5    6  -0.327  -0.278   0.168
    1UNL     O2    7  -0.385  -0.147  -0.039
    1UNL     C6    8  -0.327  -0.125  -0.163
    1UNL     O3    9  -0.357  -0.243  -0.249
    1UNL     C7   10  -0.175  -0.134  -0.152
    1UNL     C8   11  -0.093  -0.020  -0.183
    1UNL     O4   12  -0.084   0.084  -0.094
    1UNL     C9   13  -0.168   0.187  -0.123
    1UNL     O5   14  -0.253   0.192  -0.213
    1UNL    C10   15  -0.160   0.306  -0.042
    1UNL    C11   16  -0.282   0.361   0.001
    1UNL    C12   17  -0.276   0.460   0.103
    1UNL    C13   18  -0.158   0.493   0.161
    1UNL    C14   19  -0.040   0.435   0.115
    1UNL    C15   20  -0.042   0.342   0.016
    1UNL    C16   21  -0.134  -0.276  -0.200
    1UNL    C17   22  -0.059  -0.297  -0.066
    1UNL    C18   23  -0.157  -0.199  -0.007
    1UNL     O6   24  -0.118  -0.109   0.094
    1UNL    C19   25  -0.032  -0.172   0.186
    1UNL     O7   26   0.097  -0.189   0.126
    1UNL    C20   27   0.142  -0.055   0.079
    1UNL    C21   28   0.292  -0.057   0.085
    1UNL     O8   29   0.357   0.005  -0.024
    1UNL    C22   30   0.445   0.102   0.022
    1UNL     O9   31   0.465   0.118   0.141
    1UNL    C23   32   0.507   0.191  -0.076
    1UNL    C24   33   0.432   0.249  -0.175
    1UNL    C25   34   0.488   0.336  -0.260
    1UNL    C26   35   0.621   0.368  -0.240
    1UNL    C27   36   0.692   0.326  -0.128
    1UNL    C28   37   0.633   0.238  -0.042
    1UNL    C29   38   0.089   0.062   0.171
    1UNL    O10   39   0.168   0.190   0.174
    1UNL    C30   40   0.063   0.012   0.311
    1UNL    O11   41   0.019   0.122   0.386
    1UNL    C31   42  -0.020  -0.114   0.328
    1UNL    O12   43  -0.143  -0.104   0.393
    1UNL     H1   44  -0.305  -0.373  -0.476
    1UNL     H2   45  -0.352  -0.529  -0.503
    1UNL     H3   46  -0.459  -0.428  -0.388
    1UNL     H4   47  -0.254  -0.466  -0.010
    1UNL     H5   48  -0.423  -0.418  -0.058
    1UNL     H6   49  -0.307  -0.184   0.217
    1UNL     H7   50  -0.429  -0.303   0.186
    1UNL     H8   51  -0.265  -0.347   0.217
    1UNL     H9   52  -0.366  -0.033  -0.207
    1UNL    H10   53   0.003  -0.057  -0.202
    1UNL    H11   54  -0.118   0.020  -0.286
    1UNL    H12   55  -0.371   0.319  -0.048
    1UNL    H13   56  -0.369   0.494   0.138
    1UNL    H14   57  -0.147   0.564   0.235
    1UNL    H15   58   0.055   0.461   0.161
    1UNL    H16   59   0.052   0.300  -0.019
    1UNL    H17   60  -0.072  -0.273  -0.295
    1UNL    H18   61  -0.050  -0.404  -0.030
    1UNL    H19   62   0.047  -0.253  -0.073
    1UNL    H20   63  -0.081  -0.268   0.196
    1UNL    H21   64   0.106  -0.041  -0.026
    1UNL    H22   65   0.317  -0.163   0.065
    1UNL    H23   66   0.331  -0.028   0.183
    1UNL    H24   67   0.327   0.231  -0.160
    1UNL    H25   68   0.439   0.375  -0.348
    1UNL    H26   69   0.667   0.423  -0.315
    1UNL    H27   70   0.794   0.355  -0.109
    1UNL    H28   71   0.692   0.187   0.035
    1UNL    H29   72  -0.016   0.089   0.129
    1UNL    H30   73   0.263   0.164   0.179
    1UNL    H31   74   0.161  -0.014   0.357
    1UNL    H32   75   0.040   0.206   0.342
    1UNL    H33   76   0.037  -0.188   0.384
    1UNL    H34   77  -0.164  -0.006   0.383
   0.00000   0.00000   0.00000   0.00000   0.00000   0.00000   0.00000   0.00000   0.00000
Generated with MDTraj, t= 94.0
 77
    1UNL     C1    1  -0.304  -0.465  -0.413
    1UNL     O1    2  -0.272  -0.474  -0.281
    1UNL     C2    3  -0.279  -0.345  -0.205
    1UNL     C3    4  -0.334  -0.371  -0.058
    1UNL     C4    5  -0.314  -0.243   0.027
    1UNL     C5    6  -0.366  -0.267   0.176
    1UNL     O2    7  -0.396  -0.150  -0.042
    1UNL     C6    8  -0.344  -0.133  -0.172
    1UNL     O3    9  -0.378  -0.245  -0.252
    1UNL     C7   10  -0.185  -0.135  -0.157
    1UNL     C8   11  -0.101  -0.012  -0.201
    1UNL     O4   12  -0.089   0.100  -0.114
    1UNL     C9   13  -0.189   0.192  -0.128
    1UNL     O5   14  -0.285   0.199  -0.206
    1UNL    C10   15  -0.170   0.296  -0.023
    1UNL    C11   16  -0.282   0.349   0.037
    1UNL    C12   17  -0.260   0.454   0.122
    1UNL    C13   18  -0.132   0.498   0.155
    1UNL    C14   19  -0.024   0.439   0.092
    1UNL    C15   20  -0.045   0.337   0.000
    1UNL    C16   21  -0.138  -0.275  -0.192
    1UNL    C17   22  -0.071  -0.301  -0.057
    1UNL    C18   23  -0.162  -0.189  -0.001
    1UNL     O6   24  -0.104  -0.116   0.105
    1UNL    C19   25  -0.019  -0.193   0.190
    1UNL     O7   26   0.117  -0.204   0.145
    1UNL    C20   27   0.168  -0.085   0.084
    1UNL    C21   28   0.321  -0.081   0.074
    1UNL     O8   29   0.361   0.012  -0.026
    1UNL    C22   30   0.445   0.116   0.027
    1UNL     O9   31   0.458   0.132   0.148
    1UNL    C23   32   0.520   0.195  -0.072
    1UNL    C24   33   0.446   0.241  -0.173
    1UNL    C25   34   0.496   0.332  -0.256
    1UNL    C26   35   0.621   0.383  -0.230
    1UNL    C27   36   0.698   0.355  -0.115
    1UNL    C28   37   0.648   0.257  -0.034
    1UNL    C29   38   0.097   0.039   0.154
    1UNL    O10   39   0.179   0.162   0.150
    1UNL    C30   40   0.061   0.014   0.298
    1UNL    O11   41  -0.009   0.130   0.350
    1UNL    C31   42  -0.018  -0.122   0.331
    1UNL    O12   43  -0.149  -0.097   0.375
    1UNL     H1   44  -0.288  -0.361  -0.455
    1UNL     H2   45  -0.238  -0.525  -0.482
    1UNL     H3   46  -0.411  -0.491  -0.423
    1UNL     H4   47  -0.294  -0.456  -0.008
    1UNL     H5   48  -0.447  -0.375  -0.068
    1UNL     H6   49  -0.344  -0.185   0.243
    1UNL     H7   50  -0.471  -0.282   0.171
    1UNL     H8   51  -0.323  -0.352   0.219
    1UNL     H9   52  -0.400  -0.047  -0.209
    1UNL    H10   53  -0.006  -0.046  -0.231
    1UNL    H11   54  -0.138   0.025  -0.302
    1UNL    H12   55  -0.375   0.297   0.027
    1UNL    H13   56  -0.343   0.498   0.180
    1UNL    H14   57  -0.110   0.570   0.244
    1UNL    H15   58   0.075   0.472   0.116
    1UNL    H16   59   0.046   0.290  -0.031
    1UNL    H17   60  -0.064  -0.274  -0.279
    1UNL    H18   61  -0.068  -0.410  -0.022
    1UNL    H19   62   0.037  -0.267  -0.061
    1UNL    H20   63  -0.063  -0.291   0.193
    1UNL    H21   64   0.130  -0.091  -0.021
    1UNL    H22   65   0.359  -0.184   0.043
    1UNL    H23   66   0.371  -0.055   0.169
    1UNL    H24   67   0.343   0.203  -0.184
    1UNL    H25   68   0.427   0.374  -0.327
    1UNL    H26   69   0.658   0.473  -0.289
    1UNL    H27   70   0.803   0.388  -0.111
    1UNL    H28   71   0.703   0.226   0.052
    1UNL    H29   72   0.002   0.071   0.092
    1UNL    H30   73   0.274   0.146   0.167
    1UNL    H31   74   0.160   0.020   0.347
    1UNL    H32   75  -0.001   0.206   0.292
    1UNL    H33   76   0.042  -0.183   0.400
    1UNL    H34   77  -0.159  -0.007   0.340
   0.00000   0.00000   0.00000   0.00000   0.00000   0.00000   0.00000   0.00000   0.00000
Generated with MDTraj, t= 95.0
 77
    1UNL     C1    1  -0.294  -0.435  -0.425
    1UNL     O1    2  -0.318  -0.479  -0.299
    1UNL     C2    3  -0.311  -0.360  -0.198
    1UNL     C3    4  -0.348  -0.391  -0.052
    1UNL     C4    5  -0.317  -0.253   0.023
    1UNL     C5    6  -0.335  -0.258   0.182
    1UNL     O2    7  -0.401  -0.144  -0.042
    1UNL     C6    8  -0.344  -0.129  -0.174
    1UNL     O3    9  -0.390  -0.243  -0.247
    1UNL     C7   10  -0.189  -0.141  -0.153
    1UNL     C8   11  -0.085  -0.032  -0.190
    1UNL     O4   12  -0.064   0.073  -0.101
    1UNL     C9   13  -0.178   0.150  -0.095
    1UNL     O5   14  -0.282   0.131  -0.151
    1UNL    C10   15  -0.163   0.272  -0.009
    1UNL    C11   16  -0.270   0.338   0.046
    1UNL    C12   17  -0.256   0.448   0.128
    1UNL    C13   18  -0.125   0.492   0.151
    1UNL    C14   19  -0.019   0.437   0.093
    1UNL    C15   20  -0.034   0.331   0.005
    1UNL    C16   21  -0.164  -0.286  -0.205
    1UNL    C17   22  -0.077  -0.310  -0.075
    1UNL    C18   23  -0.167  -0.199  -0.009
    1UNL     O6   24  -0.109  -0.108   0.082
    1UNL    C19   25  -0.020  -0.171   0.169
    1UNL     O7   26   0.109  -0.191   0.108
    1UNL    C20   27   0.165  -0.066   0.056
    1UNL    C21   28   0.319  -0.068   0.084
    1UNL     O8   29   0.383   0.001  -0.018
    1UNL    C22   30   0.447   0.110   0.045
    1UNL     O9   31   0.460   0.128   0.165
    1UNL    C23   32   0.509   0.211  -0.047
    1UNL    C24   33   0.444   0.233  -0.169
    1UNL    C25   34   0.510   0.317  -0.258
    1UNL    C26   35   0.628   0.374  -0.222
    1UNL    C27   36   0.682   0.365  -0.091
    1UNL    C28   37   0.620   0.284  -0.004
    1UNL    C29   38   0.090   0.060   0.130
    1UNL    O10   39   0.168   0.184   0.107
    1UNL    C30   40   0.073   0.041   0.284
    1UNL    O11   41   0.003   0.146   0.349
    1UNL    C31   42  -0.009  -0.090   0.308
    1UNL    O12   43  -0.137  -0.063   0.361
    1UNL     H1   44  -0.193  -0.439  -0.475
    1UNL     H2   45  -0.366  -0.484  -0.493
    1UNL     H3   46  -0.320  -0.329  -0.422
    1UNL     H4   47  -0.290  -0.474  -0.011
    1UNL     H5   48  -0.456  -0.411  -0.049
    1UNL     H6   49  -0.298  -0.165   0.214
    1UNL     H7   50  -0.440  -0.265   0.200
    1UNL     H8   51  -0.284  -0.336   0.235
    1UNL     H9   52  -0.367  -0.032  -0.218
    1UNL    H10   53   0.007  -0.080  -0.202
    1UNL    H11   54  -0.103  -0.003  -0.297
    1UNL    H12   55  -0.368   0.298   0.022
    1UNL    H13   56  -0.341   0.491   0.176
    1UNL    H14   57  -0.116   0.576   0.207
    1UNL    H15   58   0.083   0.470   0.112
    1UNL    H16   59   0.048   0.290  -0.055
    1UNL    H17   60  -0.093  -0.292  -0.295
    1UNL    H18   61  -0.083  -0.409  -0.016
    1UNL    H19   62   0.028  -0.274  -0.091
    1UNL    H20   63  -0.071  -0.263   0.191
    1UNL    H21   64   0.143  -0.064  -0.055
    1UNL    H22   65   0.364  -0.173   0.090
    1UNL    H23   66   0.343  -0.024   0.184
    1UNL    H24   67   0.352   0.189  -0.185
    1UNL    H25   68   0.453   0.350  -0.345
    1UNL    H26   69   0.670   0.431  -0.297
    1UNL    H27   70   0.780   0.409  -0.086
    1UNL    H28   71   0.657   0.269   0.098
    1UNL    H29   72  -0.015   0.081   0.083
    1UNL    H30   73   0.260   0.182   0.145
    1UNL    H31   74   0.172   0.041   0.329
    1UNL    H32   75   0.007   0.227   0.288
    1UNL    H33   76   0.034  -0.160   0.383
    1UNL    H34   77  -0.128   0.014   0.423
   0.00000   0.00000   0.00000   0.00000   0.00000   0.00000   0.00000   0.00000   0.00000
Generated with MDTraj, t= 96.0
 77
    1UNL     C1    1  -0.352  -0.425  -0.425
    1UNL     O1    2  -0.325  -0.469  -0.294
    1UNL     C2    3  -0.302  -0.354  -0.203
    1UNL     C3    4  -0.353  -0.381  -0.064
    1UNL     C4    5  -0.324  -0.256   0.022
    1UNL     C5    6  -0.352  -0.282   0.169
    1UNL     O2    7  -0.407  -0.153  -0.034
    1UNL     C6    8  -0.361  -0.133  -0.168
    1UNL     O3    9  -0.393  -0.245  -0.245
    1UNL     C7   10  -0.193  -0.143  -0.158
    1UNL     C8   11  -0.102  -0.039  -0.215
    1UNL     O4   12  -0.067   0.080  -0.148
    1UNL     C9   13  -0.175   0.153  -0.104
    1UNL     O5   14  -0.285   0.128  -0.141
    1UNL    C10   15  -0.154   0.257  -0.001
    1UNL    C11   16  -0.264   0.308   0.066
    1UNL    C12   17  -0.254   0.422   0.143
    1UNL    C13   18  -0.134   0.489   0.140
    1UNL    C14   19  -0.018   0.435   0.085
    1UNL    C15   20  -0.032   0.323   0.006
    1UNL    C16   21  -0.161  -0.295  -0.199
    1UNL    C17   22  -0.081  -0.322  -0.066
    1UNL    C18   23  -0.171  -0.211  -0.009
    1UNL     O6   24  -0.118  -0.119   0.092
    1UNL    C19   25  -0.020  -0.173   0.174
    1UNL     O7   26   0.110  -0.188   0.112
    1UNL    C20   27   0.167  -0.064   0.068
    1UNL    C21   28   0.317  -0.066   0.082
    1UNL     O8   29   0.402   0.009  -0.009
    1UNL    C22   30   0.454   0.119   0.057
    1UNL     O9   31   0.446   0.151   0.173
    1UNL    C23   32   0.523   0.214  -0.032
    1UNL    C24   33   0.489   0.208  -0.170
    1UNL    C25   34   0.536   0.305  -0.255
    1UNL    C26   35   0.628   0.395  -0.209
    1UNL    C27   36   0.667   0.390  -0.078
    1UNL    C28   37   0.612   0.308   0.016
    1UNL    C29   38   0.106   0.055   0.131
    1UNL    O10   39   0.172   0.172   0.093
    1UNL    C30   40   0.088   0.046   0.275
    1UNL    O11   41   0.025   0.157   0.324
    1UNL    C31   42  -0.000  -0.080   0.306
    1UNL    O12   43  -0.120  -0.027   0.355
    1UNL     H1   44  -0.419  -0.481  -0.491
    1UNL     H2   45  -0.404  -0.331  -0.415
    1UNL     H3   46  -0.265  -0.428  -0.488
    1UNL     H4   47  -0.314  -0.480  -0.027
    1UNL     H5   48  -0.458  -0.393  -0.074
    1UNL     H6   49  -0.344  -0.187   0.215
    1UNL     H7   50  -0.448  -0.326   0.180
    1UNL     H8   51  -0.275  -0.349   0.210
    1UNL     H9   52  -0.402  -0.038  -0.205
    1UNL    H10   53  -0.017  -0.094  -0.245
    1UNL    H11   54  -0.147  -0.022  -0.316
    1UNL    H12   55  -0.364   0.275   0.049
    1UNL    H13   56  -0.337   0.471   0.193
    1UNL    H14   57  -0.136   0.589   0.192
    1UNL    H15   58   0.069   0.495   0.087
    1UNL    H16   59   0.049   0.296  -0.058
    1UNL    H17   60  -0.102  -0.300  -0.296
    1UNL    H18   61  -0.100  -0.416  -0.003
    1UNL    H19   62   0.024  -0.291  -0.055
    1UNL    H20   63  -0.065  -0.268   0.195
    1UNL    H21   64   0.146  -0.057  -0.045
    1UNL    H22   65   0.347  -0.175   0.083
    1UNL    H23   66   0.343  -0.036   0.185
    1UNL    H24   67   0.391   0.155  -0.187
    1UNL    H25   68   0.502   0.304  -0.357
    1UNL    H26   69   0.688   0.448  -0.288
    1UNL    H27   70   0.745   0.455  -0.043
    1UNL    H28   71   0.652   0.306   0.114
    1UNL    H29   72  -0.004   0.072   0.093
    1UNL    H30   73   0.266   0.169   0.126
    1UNL    H31   74   0.182   0.035   0.330
    1UNL    H32   75   0.087   0.235   0.317
    1UNL    H33   76   0.037  -0.148   0.386
    1UNL    H34   77  -0.137   0.066   0.323
   0.00000   0.00000   0.00000   0.00000   0.00000   0.00000   0.00000   0.00000   0.00000
Generated with MDTraj, t= 97.0
 77
    1UNL     C1    1  -0.377  -0.445  -0.398
    1UNL     O1    2  -0.315  -0.476  -0.281
    1UNL     C2    3  -0.312  -0.357  -0.196
    1UNL     C3    4  -0.347  -0.386  -0.048
    1UNL     C4    5  -0.313  -0.254   0.035
    1UNL     C5    6  -0.329  -0.274   0.184
    1UNL     O2    7  -0.394  -0.144  -0.028
    1UNL     C6    8  -0.351  -0.124  -0.164
    1UNL     O3    9  -0.395  -0.242  -0.243
    1UNL     C7   10  -0.194  -0.141  -0.161
    1UNL     C8   11  -0.108  -0.023  -0.199
    1UNL     O4   12  -0.109   0.071  -0.100
    1UNL     C9   13  -0.204   0.165  -0.119
    1UNL     O5   14  -0.294   0.153  -0.196
    1UNL    C10   15  -0.185   0.281  -0.031
    1UNL    C11   16  -0.277   0.302   0.078
    1UNL    C12   17  -0.237   0.394   0.173
    1UNL    C13   18  -0.123   0.460   0.168
    1UNL    C14   19  -0.031   0.445   0.061
    1UNL    C15   20  -0.065   0.349  -0.035
    1UNL    C16   21  -0.173  -0.290  -0.212
    1UNL    C17   22  -0.081  -0.314  -0.091
    1UNL    C18   23  -0.168  -0.210  -0.014
    1UNL     O6   24  -0.100  -0.120   0.081
    1UNL    C19   25  -0.015  -0.170   0.176
    1UNL     O7   26   0.119  -0.195   0.126
    1UNL    C20   27   0.172  -0.079   0.060
    1UNL    C21   28   0.326  -0.072   0.079
    1UNL     O8   29   0.401   0.007  -0.014
    1UNL    C22   30   0.457   0.112   0.047
    1UNL     O9   31   0.455   0.135   0.165
    1UNL    C23   32   0.528   0.208  -0.036
    1UNL    C24   33   0.532   0.196  -0.170
    1UNL    C25   34   0.587   0.295  -0.248
    1UNL    C26   35   0.648   0.409  -0.187
    1UNL    C27   36   0.647   0.419  -0.055
    1UNL    C28   37   0.584   0.321   0.023
    1UNL    C29   38   0.109   0.047   0.124
    1UNL    O10   39   0.187   0.163   0.089
    1UNL    C30   40   0.086   0.041   0.279
    1UNL    O11   41   0.034   0.162   0.321
    1UNL    C31   42  -0.015  -0.074   0.303
    1UNL    O12   43  -0.140  -0.023   0.318
    1UNL     H1   44  -0.470  -0.394  -0.373
    1UNL     H2   45  -0.322  -0.378  -0.460
    1UNL     H3   46  -0.413  -0.530  -0.449
    1UNL     H4   47  -0.304  -0.484  -0.010
    1UNL     H5   48  -0.449  -0.409  -0.051
    1UNL     H6   49  -0.302  -0.193   0.249
    1UNL     H7   50  -0.430  -0.306   0.203
    1UNL     H8   51  -0.268  -0.360   0.210
    1UNL     H9   52  -0.381  -0.028  -0.212
    1UNL    H10   53  -0.012  -0.068  -0.207
    1UNL    H11   54  -0.125   0.011  -0.304
    1UNL    H12   55  -0.370   0.248   0.090
    1UNL    H13   56  -0.301   0.397   0.260
    1UNL    H14   57  -0.083   0.511   0.255
    1UNL    H15   58   0.062   0.503   0.062
    1UNL    H16   59   0.009   0.320  -0.113
    1UNL    H17   60  -0.117  -0.315  -0.308
    1UNL    H18   61  -0.079  -0.423  -0.065
    1UNL    H19   62   0.027  -0.292  -0.105
    1UNL    H20   63  -0.063  -0.263   0.203
    1UNL    H21   64   0.153  -0.084  -0.053
    1UNL    H22   65   0.367  -0.173   0.054
    1UNL    H23   66   0.355  -0.058   0.182
    1UNL    H24   67   0.476   0.125  -0.217
    1UNL    H25   68   0.579   0.307  -0.356
    1UNL    H26   69   0.705   0.480  -0.239
    1UNL    H27   70   0.715   0.489  -0.006
    1UNL    H28   71   0.582   0.336   0.132
    1UNL    H29   72   0.006   0.073   0.076
    1UNL    H30   73   0.270   0.156   0.137
    1UNL    H31   74   0.185   0.022   0.321
    1UNL    H32   75  -0.047   0.172   0.272
    1UNL    H33   76   0.016  -0.128   0.395
    1UNL    H34   77  -0.172  -0.000   0.228
   0.00000   0.00000   0.00000   0.00000   0.00000   0.00000   0.00000   0.00000   0.00000
Generated with MDTraj, t= 98.0
 77
    1UNL     C1    1  -0.385  -0.444  -0.385
    1UNL     O1    2  -0.336  -0.474  -0.263
    1UNL     C2    3  -0.321  -0.356  -0.189
    1UNL     C3    4  -0.339  -0.382  -0.040
    1UNL     C4    5  -0.291  -0.258   0.034
    1UNL     C5    6  -0.308  -0.276   0.189
    1UNL     O2    7  -0.375  -0.151  -0.010
    1UNL     C6    8  -0.361  -0.140  -0.153
    1UNL     O3    9  -0.418  -0.256  -0.216
    1UNL     C7   10  -0.203  -0.154  -0.162
    1UNL     C8   11  -0.131  -0.030  -0.223
    1UNL     O4   12  -0.109   0.072  -0.129
    1UNL     C9   13  -0.201   0.172  -0.132
    1UNL     O5   14  -0.295   0.176  -0.205
    1UNL    C10   15  -0.184   0.278  -0.028
    1UNL    C11   16  -0.265   0.275   0.082
    1UNL    C12   17  -0.236   0.359   0.187
    1UNL    C13   18  -0.135   0.449   0.190
    1UNL    C14   19  -0.065   0.459   0.069
    1UNL    C15   20  -0.082   0.370  -0.035
    1UNL    C16   21  -0.179  -0.300  -0.215
    1UNL    C17   22  -0.066  -0.322  -0.098
    1UNL    C18   23  -0.151  -0.209  -0.022
    1UNL     O6   24  -0.077  -0.110   0.057
    1UNL    C19   25  -0.013  -0.165   0.162
    1UNL     O7   26   0.126  -0.180   0.131
    1UNL    C20   27   0.171  -0.066   0.054
    1UNL    C21   28   0.322  -0.076   0.054
    1UNL     O8   29   0.399   0.013  -0.029
    1UNL    C22   30   0.459   0.107   0.046
    1UNL     O9   31   0.456   0.107   0.166
    1UNL    C23   32   0.537   0.202  -0.027
    1UNL    C24   33   0.571   0.179  -0.161
    1UNL    C25   34   0.641   0.278  -0.228
    1UNL    C26   35   0.666   0.400  -0.165
    1UNL    C27   36   0.623   0.427  -0.041
    1UNL    C28   37   0.557   0.327   0.028
    1UNL    C29   38   0.105   0.071   0.114
    1UNL    O10   39   0.189   0.183   0.099
    1UNL    C30   40   0.077   0.048   0.265
    1UNL    O11   41   0.053   0.170   0.335
    1UNL    C31   42  -0.036  -0.064   0.289
    1UNL    O12   43  -0.165  -0.009   0.281
    1UNL     H1   44  -0.427  -0.341  -0.385
    1UNL     H2   45  -0.330  -0.475  -0.475
    1UNL     H3   46  -0.479  -0.496  -0.396
    1UNL     H4   47  -0.286  -0.473  -0.007
    1UNL     H5   48  -0.440  -0.400  -0.009
    1UNL     H6   49  -0.277  -0.182   0.233
    1UNL     H7   50  -0.410  -0.289   0.220
    1UNL     H8   51  -0.261  -0.354   0.243
    1UNL     H9   52  -0.404  -0.045  -0.195
    1UNL    H10   53  -0.038  -0.051  -0.266
    1UNL    H11   54  -0.185   0.003  -0.316
    1UNL    H12   55  -0.340   0.200   0.100
    1UNL    H13   56  -0.291   0.348   0.277
    1UNL    H14   57  -0.106   0.507   0.277
    1UNL    H15   58   0.019   0.526   0.071
    1UNL    H16   59  -0.025   0.367  -0.124
    1UNL    H17   60  -0.146  -0.288  -0.322
    1UNL    H18   61  -0.081  -0.421  -0.058
    1UNL    H19   62   0.038  -0.314  -0.139
    1UNL    H20   63  -0.059  -0.262   0.180
    1UNL    H21   64   0.133  -0.093  -0.050
    1UNL    H22   65   0.357  -0.175   0.030
    1UNL    H23   66   0.351  -0.061   0.155
    1UNL    H24   67   0.546   0.083  -0.216
    1UNL    H25   68   0.653   0.273  -0.333
    1UNL    H26   69   0.711   0.486  -0.221
    1UNL    H27   70   0.661   0.506   0.021
    1UNL    H28   71   0.527   0.342   0.130
    1UNL    H29   72  -0.000   0.093   0.071
    1UNL    H30   73   0.278   0.167   0.142
    1UNL    H31   74   0.173   0.017   0.310
    1UNL    H32   75   0.040   0.247   0.275
    1UNL    H33   76  -0.013  -0.109   0.387
    1UNL    H34   77  -0.183   0.001   0.183
   0.00000   0.00000   0.00000   0.00000   0.00000   0.00000   0.00000   0.00000   0.00000
Generated with MDTraj, t= 99.0
 77
    1UNL     C1    1  -0.380  -0.452  -0.402
    1UNL     O1    2  -0.366  -0.478  -0.267
    1UNL     C2    3  -0.339  -0.360  -0.187
    1UNL     C3    4  -0.348  -0.394  -0.035
    1UNL     C4    5  -0.313  -0.258   0.040
    1UNL     C5    6  -0.310  -0.275   0.188
    1UNL     O2    7  -0.410  -0.152  -0.000
    1UNL     C6    8  -0.379  -0.135  -0.137
    1UNL     O3    9  -0.430  -0.248  -0.210
    1UNL     C7   10  -0.224  -0.147  -0.168
    1UNL     C8   11  -0.152  -0.037  -0.251
    1UNL     O4   12  -0.090   0.052  -0.168
    1UNL     C9   13  -0.187   0.143  -0.130
    1UNL     O5   14  -0.294   0.153  -0.184
    1UNL    C10   15  -0.165   0.232  -0.016
    1UNL    C11   16  -0.252   0.231   0.088
    1UNL    C12   17  -0.250   0.320   0.194
    1UNL    C13   18  -0.164   0.431   0.187
    1UNL    C14   19  -0.086   0.440   0.079
    1UNL    C15   20  -0.086   0.349  -0.024
    1UNL    C16   21  -0.195  -0.297  -0.217
    1UNL    C17   22  -0.085  -0.294  -0.106
    1UNL    C18   23  -0.172  -0.193  -0.025
    1UNL     O6   24  -0.104  -0.099   0.055
    1UNL    C19   25  -0.020  -0.146   0.156
    1UNL     O7   26   0.118  -0.174   0.111
    1UNL    C20   27   0.182  -0.056   0.049
    1UNL    C21   28   0.329  -0.072   0.062
    1UNL     O8   29   0.410   0.014  -0.019
    1UNL    C22   30   0.475   0.112   0.051
    1UNL     O9   31   0.475   0.120   0.172
    1UNL    C23   32   0.551   0.221  -0.028
    1UNL    C24   33   0.619   0.181  -0.149
    1UNL    C25   34   0.694   0.280  -0.217
    1UNL    C26   35   0.701   0.402  -0.161
    1UNL    C27   36   0.625   0.443  -0.047
    1UNL    C28   37   0.553   0.349   0.020
    1UNL    C29   38   0.122   0.079   0.115
    1UNL    O10   39   0.208   0.188   0.099
    1UNL    C30   40   0.086   0.061   0.265
    1UNL    O11   41   0.052   0.185   0.318
    1UNL    C31   42  -0.027  -0.048   0.282
    1UNL    O12   43  -0.151   0.010   0.299
    1UNL     H1   44  -0.430  -0.350  -0.413
    1UNL     H2   45  -0.292  -0.481  -0.464
    1UNL     H3   46  -0.457  -0.516  -0.451
    1UNL     H4   47  -0.279  -0.468  -0.003
    1UNL     H5   48  -0.439  -0.439   0.007
    1UNL     H6   49  -0.284  -0.184   0.245
    1UNL     H7   50  -0.406  -0.313   0.220
    1UNL     H8   51  -0.249  -0.359   0.211
    1UNL     H9   52  -0.426  -0.039  -0.171
    1UNL    H10   53  -0.073  -0.075  -0.311
    1UNL    H11   54  -0.208   0.015  -0.333
    1UNL    H12   55  -0.325   0.151   0.100
    1UNL    H13   56  -0.323   0.321   0.276
    1UNL    H14   57  -0.183   0.512   0.256
    1UNL    H15   58  -0.035   0.530   0.053
    1UNL    H16   59  -0.028   0.363  -0.118
    1UNL    H17   60  -0.158  -0.294  -0.323
    1UNL    H18   61  -0.088  -0.395  -0.070
    1UNL    H19   62   0.012  -0.262  -0.148
    1UNL    H20   63  -0.063  -0.243   0.177
    1UNL    H21   64   0.164  -0.063  -0.064
    1UNL    H22   65   0.363  -0.169   0.032
    1UNL    H23   66   0.359  -0.052   0.161
    1UNL    H24   67   0.596   0.096  -0.204
    1UNL    H25   68   0.749   0.259  -0.309
    1UNL    H26   69   0.758   0.475  -0.207
    1UNL    H27   70   0.634   0.545  -0.015
    1UNL    H28   71   0.520   0.359   0.124
    1UNL    H29   72   0.026   0.102   0.060
    1UNL    H30   73   0.296   0.174   0.137
    1UNL    H31   74   0.179   0.023   0.312
    1UNL    H32   75   0.115   0.253   0.279
    1UNL    H33   76  -0.006  -0.112   0.370
    1UNL    H34   77  -0.148   0.098   0.343
   0.00000   0.00000   0.00000   0.00000   0.00000   0.00000   0.00000   0.00000   0.00000
