[ moleculetype ]
; name        nrexcl
res           1

[ atoms ]
;    nr  type  resnr resid  atom  cgnr     charge       mass
      1 TN3r      1 res   C1        1      0.000     36.000
      2 SN4a      1 res   C2        2      0.000     54.000
      3 SC4       1 res   C3        3      0.000     54.000
      4 TN4a      1 res   C4        4      0.000     36.000
      5 SN6       1 res   C5        5      0.000     54.000
      6 N4a       1 res   C6        6      0.000     72.000
      7 TC5       1 res   C7        7      0.000     36.000
      8 TC5       1 res   C8        8      0.000     36.000
      9 TC5       1 res   C9        9      0.000     36.000
     10 SN4a      1 res   C10      10      0.000     54.000
     11 N4a       1 res   C11      11      0.000     72.000
     12 TC5       1 res   C12      12      0.000     36.000
     13 TC5       1 res   C13      13      0.000     36.000
     14 TC5       1 res   C14      14      0.000     36.000
     15 SP4       1 res   C15      15      0.000     54.000
     16 TN6       1 res   C16      16      0.000     36.000

[ constraints ]
;  ai    aj   funct      b0(nm)
    4     5     1      0.25050
   13    14     1      0.28778
    2     4     1      0.30355
    7     9     1      0.29768
    6     7     1      0.34596
   15    16     1      0.28214
    3     5     1      0.28070
    2     3     1      0.31849
   11    12     1      0.31604
   12    14     1      0.29771
    7     8     1      0.25596
    2     5     1      0.21136
    3     4     1      0.31532
   12    13     1      0.25590
    8     9     1      0.28759

[ bonds ]
;  ai    aj   funct      b0(nm)          k(kJ/mol/nm^2)
    5    10     1      0.29502           6001.1
   10    15     1      0.24940           3083.8
    5     6     1      0.28536           9708.3
    1     2     1      0.35988           5403.6
   10    11     1      0.30832           2731.5
   10    16     1      0.26674           2868.5

[ angles ]
;  ai    aj    ak  funct     th0(deg)        k(kJ/mol/rad^2)
    1     2     3     1     90.31687            77.83
    1     2     4     1     81.91856           342.38
    1     2     5     1    134.08366           214.43
    2     3     4     1     57.22851          6767.20
    2     3     5     1     40.69234         10252.97
    2     4     3     1     61.90774          5753.12
    2     4     5     1     43.54732          7250.36
    2     5     3     1     79.31078          2840.93
    2     5     4     1     81.71562          3161.95
    2     5     6     1     97.08169           668.52
    2     5    10     1    105.70183           377.22
    3     2     4     1     60.86373          4249.22
    3     2     5     1     59.99691          3107.09
    3     4     5     1     58.13274          3158.36
    3     5     4     1     72.58439          2290.75
    3     5     6     1    142.18127           227.40
    3     5    10     1    126.34037            84.14
    4     2     5     1     54.73702          4356.74
    4     3     5     1     49.28277          3823.63
    4     5     6     1     69.92087           264.84
    4     5    10     1    158.16391           181.89
    5     6     7     1    119.06636            51.24
    5    10    11     1    140.75628            63.63
    5    10    15     1    122.93202            20.92
    5    10    16     1     79.19740           121.11
    6     5    10     1     90.65526            65.19
    6     7     8     1    146.16515           510.84
    6     7     9     1     84.95105           547.54
    7     8     9     1     66.11829         10645.29
    7     9     8     1     51.83108         17914.04
    8     7     9     1     62.05061         10417.08
   10    11    12     1    134.42706            60.69
   10    15    16     1     59.60335           166.88
   10    16    15     1     53.42286           312.88
   11    10    15     1     80.98500            56.05
   11    10    16     1    124.08685            18.22
   11    12    13     1    160.63953           466.62
   11    12    14     1    100.19623           630.69
   12    13    14     1     66.10118          5936.41
   12    14    13     1     51.79591         10926.57
   13    12    14     1     62.10288          5918.10
   15    10    16     1     66.96055           108.85

[ dihedrals ]
;  ai    aj    ak    al  funct   phi0(deg)        k(kJ/mol)   mult
    1     2     3     4     1     99.02959        7.103      1
    1     2     3     5     1     35.07184        8.531      1
    1     2     4     3     1    -80.27194       15.037      1
    1     2     4     5     1    -10.12318       15.123      1
    1     2     5     3     1   -118.33931       18.395      1
    1     2     5     4     1    167.21694       19.763      1
    1     2     5     6     1     98.08095       21.605      1
    1     2     5    10     1      2.97175       21.441      1
    2     3     4     5     1    129.96268        3.237      1
    2     3     5     4     1    -95.01268        4.006      1
    2     3     5     6     1    -93.29661       12.867      1
    2     3     5    10     1     79.75328       10.774      1
    2     4     3     5     1   -129.96268        3.237      1
    2     4     5     3     1     98.97421        4.020      1
    2     4     5     6     1    -78.98918        8.543      1
    2     4     5    10     1    -46.61221       23.994      1
    2     5     3     4     1     95.01268        4.006      1
    2     5     4     3     1    -98.97421        4.020      1
    2     5     6     7     1    -19.43928       21.741      1
    2     5    10    11     1   -149.13744       22.411      1
    2     5    10    15     1      7.88487       25.935      1
    2     5    10    16     1     14.92245       20.528      1
    3     2     4     5     1   -107.98070        4.749      1
    3     2     5     4     1    106.01152        4.718      1
    3     2     5     6     1     37.27277       10.739      1
    3     2     5    10     1    -57.07189       15.708      1
    3     4     2     5     1    107.98070        4.749      1
    3     4     5     6     1      2.97667        9.974      1
    3     4     5    10     1     35.77421       26.241      1
    3     5     2     4     1   -106.01152        4.718      1
    3     5     6     7     1   -105.19224       23.187      1
    3     5    10    11     1    -61.19621       22.393      1
    3     5    10    15     1     96.07219       25.222      1
    3     5    10    16     1    101.92097       23.388      1
    4     2     3     5     1    115.97747        4.747      1
    4     2     5     6     1    107.22162       11.442      1
    4     2     5    10     1     14.83705       15.740      1
    4     3     2     5     1   -115.97747        4.747      1
    4     3     5     6     1   -178.13141       13.576      1
    4     3     5    10     1     -5.07695       11.524      1
    4     5     6     7     1    -99.35208       19.898      1
    4     5    10    11     1     89.22220       26.704      1
    4     5    10    15     1   -117.87019       25.331      1
    4     5    10    16     1   -107.39784       26.269      1
    5     6     7     8     1   -135.43331       30.765      1
    5     6     7     9     1   -141.92530       26.452      1
    5    10    11    12     1     35.30131       13.463      1
    5    10    15    16     1   -161.88624       25.699      1
    5    10    16    15     1     30.58061       26.020      1
    6     5    10    11     1    109.02018       20.716      1
    6     5    10    15     1    -91.35468       24.471      1
    6     5    10    16     1    -82.69368       20.209      1
    6     7     8     9     1    175.85879       20.840      1
    6     7     9     8     1     -0.88451       14.281      1
    7     6     5    10     1     85.24972       20.695      1
   10    11    12    13     1     40.20175       18.967      1
   10    11    12    14     1     37.23451       23.070      1
   11    10    15    16     1     16.88744       29.015      1
   11    10    16    15     1   -162.01909       25.256      1
   11    12    13    14     1   -178.42529       28.504      1
   11    12    14    13     1     -0.34397       13.651      1
   12    11    10    15     1    139.81750       29.992      1
   12    11    10    16     1    122.71650        8.814      1
