Generated with MDTraj, t= 0.0
 49
    1UNL     C1    1  -0.189   0.369  -0.034
    1UNL     O1    2  -0.263   0.267  -0.097
    1UNL     C2    3  -0.267   0.145  -0.021
    1UNL     O2    4  -0.382   0.064  -0.050
    1UNL     C3    5  -0.385  -0.061   0.021
    1UNL     O3    6  -0.504  -0.136  -0.002
    1UNL     C4    7  -0.258  -0.147  -0.010
    1UNL     C5    8  -0.166  -0.070  -0.109
    1UNL     C6    9  -0.036  -0.150  -0.135
    1UNL     C7   10   0.042  -0.165  -0.003
    1UNL     C8   11   0.172  -0.091  -0.008
    1UNL     N1   12   0.291  -0.132  -0.066
    1UNL     C9   13   0.383  -0.029  -0.052
    1UNL    C10   14   0.516  -0.018  -0.093
    1UNL    C11   15   0.583   0.099  -0.067
    1UNL    C12   16   0.521   0.205   0.000
    1UNL    C13   17   0.390   0.196   0.041
    1UNL    C14   18   0.320   0.077   0.015
    1UNL    C15   19   0.186   0.036   0.041
    1UNL    C16   20   0.075   0.110   0.108
    1UNL    C17   21  -0.060   0.036   0.095
    1UNL    C18   22  -0.134   0.065  -0.040
    1UNL     N2   23  -0.042  -0.113   0.110
    1UNL    C19   24  -0.177  -0.179   0.120
    1UNL    C20   25  -0.166  -0.328   0.147
    1UNL     H1   26  -0.233   0.394   0.062
    1UNL     H2   27  -0.191   0.457  -0.098
    1UNL     H3   28  -0.085   0.337  -0.020
    1UNL     H4   29  -0.278   0.175   0.084
    1UNL     H5   30  -0.387  -0.034   0.128
    1UNL     H6   31  -0.529  -0.124  -0.095
    1UNL     H7   32  -0.291  -0.241  -0.055
    1UNL     H8   33  -0.221  -0.051  -0.202
    1UNL     H9   34   0.026  -0.098  -0.209
    1UNL    H10   35  -0.060  -0.248  -0.179
    1UNL    H11   36   0.064  -0.271   0.018
    1UNL    H12   37   0.308  -0.221  -0.112
    1UNL    H13   38   0.564  -0.100  -0.144
    1UNL    H14   39   0.686   0.109  -0.098
    1UNL    H15   40   0.576   0.295   0.019
    1UNL    H16   41   0.342   0.277   0.092
    1UNL    H17   42   0.068   0.211   0.065
    1UNL    H18   43   0.100   0.124   0.214
    1UNL    H19   44  -0.125   0.067   0.177
    1UNL    H20   45  -0.067   0.123  -0.105
    1UNL    H21   46  -0.227  -0.132   0.205
    1UNL    H22   47  -0.103  -0.348   0.233
    1UNL    H23   48  -0.264  -0.372   0.166
    1UNL    H24   49  -0.124  -0.380   0.061
   0.00000   0.00000   0.00000   0.00000   0.00000   0.00000   0.00000   0.00000   0.00000
Generated with MDTraj, t= 1.0
 49
    1UNL     C1    1  -0.163   0.349  -0.012
    1UNL     O1    2  -0.268   0.276  -0.070
    1UNL     C2    3  -0.273   0.143  -0.018
    1UNL     O2    4  -0.385   0.053  -0.059
    1UNL     C3    5  -0.390  -0.067   0.018
    1UNL     O3    6  -0.513  -0.137   0.002
    1UNL     C4    7  -0.259  -0.147  -0.011
    1UNL     C5    8  -0.169  -0.076  -0.118
    1UNL     C6    9  -0.032  -0.145  -0.148
    1UNL     C7   10   0.039  -0.167  -0.009
    1UNL     C8   11   0.168  -0.097  -0.014
    1UNL     N1   12   0.297  -0.137  -0.046
    1UNL     C9   13   0.390  -0.033  -0.038
    1UNL    C10   14   0.521  -0.020  -0.079
    1UNL    C11   15   0.585   0.102  -0.063
    1UNL    C12   16   0.522   0.211  -0.004
    1UNL    C13   17   0.386   0.198   0.033
    1UNL    C14   18   0.318   0.073   0.014
    1UNL    C15   19   0.178   0.039   0.021
    1UNL    C16   20   0.072   0.113   0.081
    1UNL    C17   21  -0.062   0.037   0.086
    1UNL    C18   22  -0.141   0.063  -0.048
    1UNL     N2   23  -0.040  -0.107   0.107
    1UNL    C19   24  -0.168  -0.169   0.114
    1UNL    C20   25  -0.163  -0.313   0.159
    1UNL     H1   26  -0.104   0.309   0.069
    1UNL     H2   27  -0.216   0.443   0.025
    1UNL     H3   28  -0.092   0.383  -0.088
    1UNL     H4   29  -0.304   0.162   0.089
    1UNL     H5   30  -0.383  -0.026   0.118
    1UNL     H6   31  -0.545  -0.116  -0.091
    1UNL     H7   32  -0.294  -0.239  -0.058
    1UNL     H8   33  -0.230  -0.055  -0.205
    1UNL     H9   34   0.028  -0.077  -0.222
    1UNL    H10   35  -0.046  -0.244  -0.185
    1UNL    H11   36   0.046  -0.274   0.014
    1UNL    H12   37   0.329  -0.232  -0.079
    1UNL    H13   38   0.572  -0.093  -0.141
    1UNL    H14   39   0.696   0.098  -0.069
    1UNL    H15   40   0.581   0.300   0.012
    1UNL    H16   41   0.330   0.284   0.070
    1UNL    H17   42   0.068   0.207   0.011
    1UNL    H18   43   0.100   0.160   0.173
    1UNL    H19   44  -0.122   0.079   0.168
    1UNL    H20   45  -0.073   0.123  -0.107
    1UNL    H21   46  -0.220  -0.119   0.197
    1UNL    H22   47  -0.125  -0.306   0.259
    1UNL    H23   48  -0.268  -0.346   0.159
    1UNL    H24   49  -0.109  -0.376   0.089
   0.00000   0.00000   0.00000   0.00000   0.00000   0.00000   0.00000   0.00000   0.00000
Generated with MDTraj, t= 2.0
 49
    1UNL     C1    1  -0.217   0.375  -0.019
    1UNL     O1    2  -0.290   0.269  -0.075
    1UNL     C2    3  -0.274   0.144   0.001
    1UNL     O2    4  -0.386   0.059  -0.044
    1UNL     C3    5  -0.396  -0.069   0.013
    1UNL     O3    6  -0.497  -0.153  -0.049
    1UNL     C4    7  -0.256  -0.145  -0.011
    1UNL     C5    8  -0.164  -0.070  -0.108
    1UNL     C6    9  -0.037  -0.149  -0.135
    1UNL     C7   10   0.050  -0.158  -0.002
    1UNL     C8   11   0.174  -0.081  -0.016
    1UNL     N1   12   0.291  -0.135  -0.065
    1UNL     C9   13   0.391  -0.038  -0.048
    1UNL    C10   14   0.527  -0.044  -0.071
    1UNL    C11   15   0.596   0.076  -0.052
    1UNL    C12   16   0.524   0.191  -0.006
    1UNL    C13   17   0.393   0.204   0.019
    1UNL    C14   18   0.324   0.083  -0.009
    1UNL    C15   19   0.193   0.044   0.023
    1UNL    C16   20   0.085   0.114   0.093
    1UNL    C17   21  -0.055   0.051   0.091
    1UNL    C18   22  -0.145   0.073  -0.030
    1UNL     N2   23  -0.034  -0.097   0.109
    1UNL    C19   24  -0.170  -0.168   0.128
    1UNL    C20   25  -0.162  -0.320   0.163
    1UNL     H1   26  -0.262   0.426   0.066
    1UNL     H2   27  -0.208   0.458  -0.105
    1UNL     H3   28  -0.120   0.348   0.022
    1UNL     H4   29  -0.310   0.159   0.107
    1UNL     H5   30  -0.406  -0.061   0.119
    1UNL     H6   31  -0.591  -0.123  -0.038
    1UNL     H7   32  -0.284  -0.241  -0.055
    1UNL     H8   33  -0.220  -0.051  -0.199
    1UNL     H9   34   0.038  -0.088  -0.205
    1UNL    H10   35  -0.067  -0.243  -0.174
    1UNL    H11   36   0.079  -0.261   0.015
    1UNL    H12   37   0.319  -0.235  -0.095
    1UNL    H13   38   0.571  -0.140  -0.098
    1UNL    H14   39   0.698   0.079  -0.077
    1UNL    H15   40   0.588   0.272   0.035
    1UNL    H16   41   0.349   0.297   0.045
    1UNL    H17   42   0.082   0.230   0.075
    1UNL    H18   43   0.117   0.111   0.194
    1UNL    H19   44  -0.112   0.083   0.179
    1UNL    H20   45  -0.080   0.131  -0.094
    1UNL    H21   46  -0.224  -0.124   0.213
    1UNL    H22   47  -0.080  -0.334   0.227
    1UNL    H23   48  -0.252  -0.366   0.206
    1UNL    H24   49  -0.155  -0.369   0.064
   0.00000   0.00000   0.00000   0.00000   0.00000   0.00000   0.00000   0.00000   0.00000
Generated with MDTraj, t= 3.0
 49
    1UNL     C1    1  -0.243   0.375   0.003
    1UNL     O1    2  -0.288   0.273  -0.077
    1UNL     C2    3  -0.281   0.135  -0.014
    1UNL     O2    4  -0.398   0.058  -0.051
    1UNL     C3    5  -0.395  -0.075   0.013
    1UNL     O3    6  -0.497  -0.174  -0.026
    1UNL     C4    7  -0.249  -0.143  -0.005
    1UNL     C5    8  -0.166  -0.067  -0.115
    1UNL     C6    9  -0.035  -0.134  -0.142
    1UNL     C7   10   0.038  -0.153  -0.007
    1UNL     C8   11   0.169  -0.084  -0.013
    1UNL     N1   12   0.283  -0.139  -0.058
    1UNL     C9   13   0.388  -0.043  -0.049
    1UNL    C10   14   0.528  -0.038  -0.090
    1UNL    C11   15   0.600   0.075  -0.067
    1UNL    C12   16   0.543   0.189  -0.003
    1UNL    C13   17   0.415   0.181   0.047
    1UNL    C14   18   0.335   0.067   0.027
    1UNL    C15   19   0.197   0.044   0.034
    1UNL    C16   20   0.086   0.131   0.081
    1UNL    C17   21  -0.047   0.052   0.082
    1UNL    C18   22  -0.144   0.076  -0.054
    1UNL     N2   23  -0.036  -0.095   0.106
    1UNL    C19   24  -0.167  -0.159   0.123
    1UNL    C20   25  -0.165  -0.300   0.167
    1UNL     H1   26  -0.324   0.421   0.067
    1UNL     H2   27  -0.196   0.466  -0.057
    1UNL     H3   28  -0.174   0.339   0.080
    1UNL     H4   29  -0.285   0.165   0.097
    1UNL     H5   30  -0.417  -0.043   0.113
    1UNL     H6   31  -0.486  -0.197  -0.120
    1UNL     H7   32  -0.261  -0.240  -0.054
    1UNL     H8   33  -0.222  -0.061  -0.207
    1UNL     H9   34   0.024  -0.056  -0.208
    1UNL    H10   35  -0.035  -0.236  -0.178
    1UNL    H11   36   0.046  -0.259   0.019
    1UNL    H12   37   0.311  -0.226  -0.117
    1UNL    H13   38   0.567  -0.124  -0.141
    1UNL    H14   39   0.702   0.082  -0.114
    1UNL    H15   40   0.588   0.281  -0.020
    1UNL    H16   41   0.369   0.254   0.115
    1UNL    H17   42   0.073   0.216   0.001
    1UNL    H18   43   0.097   0.192   0.167
    1UNL    H19   44  -0.109   0.089   0.165
    1UNL    H20   45  -0.088   0.143  -0.115
    1UNL    H21   46  -0.221  -0.097   0.197
    1UNL    H22   47  -0.126  -0.301   0.265
    1UNL    H23   48  -0.259  -0.354   0.174
    1UNL    H24   49  -0.115  -0.374   0.100
   0.00000   0.00000   0.00000   0.00000   0.00000   0.00000   0.00000   0.00000   0.00000
Generated with MDTraj, t= 4.0
 49
    1UNL     C1    1  -0.235   0.369   0.021
    1UNL     O1    2  -0.288   0.275  -0.066
    1UNL     C2    3  -0.277   0.133  -0.026
    1UNL     O2    4  -0.384   0.047  -0.063
    1UNL     C3    5  -0.393  -0.078   0.005
    1UNL     O3    6  -0.508  -0.150  -0.028
    1UNL     C4    7  -0.258  -0.154  -0.012
    1UNL     C5    8  -0.171  -0.071  -0.111
    1UNL     C6    9  -0.031  -0.137  -0.144
    1UNL     C7   10   0.050  -0.161  -0.001
    1UNL     C8   11   0.182  -0.097  -0.010
    1UNL     N1   12   0.304  -0.136  -0.065
    1UNL     C9   13   0.391  -0.035  -0.056
    1UNL    C10   14   0.527  -0.038  -0.079
    1UNL    C11   15   0.601   0.074  -0.051
    1UNL    C12   16   0.539   0.187   0.008
    1UNL    C13   17   0.403   0.193   0.026
    1UNL    C14   18   0.325   0.074  -0.001
    1UNL    C15   19   0.191   0.036   0.030
    1UNL    C16   20   0.079   0.121   0.069
    1UNL    C17   21  -0.060   0.058   0.080
    1UNL    C18   22  -0.143   0.075  -0.048
    1UNL     N2   23  -0.041  -0.091   0.102
    1UNL    C19   24  -0.177  -0.156   0.126
    1UNL    C20   25  -0.157  -0.292   0.181
    1UNL     H1   26  -0.235   0.338   0.134
    1UNL     H2   27  -0.300   0.460   0.013
    1UNL     H3   28  -0.128   0.394  -0.001
    1UNL     H4   29  -0.284   0.161   0.086
    1UNL     H5   30  -0.402  -0.051   0.109
    1UNL     H6   31  -0.584  -0.090  -0.035
    1UNL     H7   32  -0.277  -0.256  -0.047
    1UNL     H8   33  -0.228  -0.047  -0.197
    1UNL     H9   34   0.036  -0.072  -0.211
    1UNL    H10   35  -0.046  -0.237  -0.189
    1UNL    H11   36   0.058  -0.267   0.018
    1UNL    H12   37   0.337  -0.238  -0.082
    1UNL    H13   38   0.559  -0.136  -0.112
    1UNL    H14   39   0.699   0.076  -0.085
    1UNL    H15   40   0.600   0.281   0.025
    1UNL    H16   41   0.363   0.278   0.074
    1UNL    H17   42   0.072   0.218   0.011
    1UNL    H18   43   0.103   0.154   0.167
    1UNL    H19   44  -0.125   0.093   0.164
    1UNL    H20   45  -0.085   0.130  -0.120
    1UNL    H21   46  -0.232  -0.100   0.205
    1UNL    H22   47  -0.096  -0.292   0.270
    1UNL    H23   48  -0.245  -0.350   0.206
    1UNL    H24   49  -0.124  -0.362   0.102
   0.00000   0.00000   0.00000   0.00000   0.00000   0.00000   0.00000   0.00000   0.00000
Generated with MDTraj, t= 5.0
 49
    1UNL     C1    1  -0.188   0.364   0.001
    1UNL     O1    2  -0.281   0.274  -0.054
    1UNL     C2    3  -0.284   0.135  -0.005
    1UNL     O2    4  -0.396   0.056  -0.044
    1UNL     C3    5  -0.389  -0.076   0.009
    1UNL     O3    6  -0.495  -0.153  -0.045
    1UNL     C4    7  -0.252  -0.148  -0.007
    1UNL     C5    8  -0.172  -0.072  -0.104
    1UNL     C6    9  -0.045  -0.144  -0.141
    1UNL     C7   10   0.039  -0.155  -0.010
    1UNL     C8   11   0.170  -0.086  -0.014
    1UNL     N1   12   0.291  -0.145  -0.053
    1UNL     C9   13   0.389  -0.039  -0.047
    1UNL    C10   14   0.528  -0.036  -0.052
    1UNL    C11   15   0.598   0.078  -0.035
    1UNL    C12   16   0.535   0.203  -0.012
    1UNL    C13   17   0.393   0.201   0.006
    1UNL    C14   18   0.324   0.081  -0.013
    1UNL    C15   19   0.185   0.047   0.007
    1UNL    C16   20   0.077   0.129   0.081
    1UNL    C17   21  -0.057   0.047   0.077
    1UNL    C18   22  -0.147   0.066  -0.045
    1UNL     N2   23  -0.038  -0.101   0.103
    1UNL    C19   24  -0.171  -0.162   0.122
    1UNL    C20   25  -0.154  -0.307   0.167
    1UNL     H1   26  -0.215   0.387   0.115
    1UNL     H2   27  -0.205   0.456  -0.055
    1UNL     H3   28  -0.079   0.331  -0.004
    1UNL     H4   29  -0.286   0.163   0.107
    1UNL     H5   30  -0.410  -0.068   0.116
    1UNL     H6   31  -0.545  -0.098  -0.111
    1UNL     H7   32  -0.283  -0.247  -0.042
    1UNL     H8   33  -0.229  -0.066  -0.194
    1UNL     H9   34   0.025  -0.083  -0.203
    1UNL    H10   35  -0.069  -0.250  -0.183
    1UNL    H11   36   0.046  -0.262   0.005
    1UNL    H12   37   0.304  -0.244  -0.092
    1UNL    H13   38   0.587  -0.124  -0.063
    1UNL    H14   39   0.710   0.068  -0.034
    1UNL    H15   40   0.591   0.282   0.021
    1UNL    H16   41   0.333   0.291   0.022
    1UNL    H17   42   0.059   0.225   0.038
    1UNL    H18   43   0.099   0.155   0.183
    1UNL    H19   44  -0.128   0.081   0.158
    1UNL    H20   45  -0.092   0.109  -0.126
    1UNL    H21   46  -0.217  -0.111   0.212
    1UNL    H22   47  -0.085  -0.311   0.255
    1UNL    H23   48  -0.249  -0.348   0.194
    1UNL    H24   49  -0.131  -0.367   0.079
   0.00000   0.00000   0.00000   0.00000   0.00000   0.00000   0.00000   0.00000   0.00000
Generated with MDTraj, t= 6.0
 49
    1UNL     C1    1  -0.212   0.371  -0.013
    1UNL     O1    2  -0.295   0.271  -0.069
    1UNL     C2    3  -0.280   0.142  -0.013
    1UNL     O2    4  -0.398   0.063  -0.040
    1UNL     C3    5  -0.390  -0.074   0.019
    1UNL     O3    6  -0.492  -0.159  -0.017
    1UNL     C4    7  -0.253  -0.149  -0.009
    1UNL     C5    8  -0.172  -0.063  -0.116
    1UNL     C6    9  -0.038  -0.135  -0.146
    1UNL     C7   10   0.048  -0.157  -0.016
    1UNL     C8   11   0.180  -0.089  -0.013
    1UNL     N1   12   0.304  -0.144  -0.046
    1UNL     C9   13   0.402  -0.046  -0.035
    1UNL    C10   14   0.533  -0.037  -0.073
    1UNL    C11   15   0.596   0.088  -0.065
    1UNL    C12   16   0.525   0.193  -0.012
    1UNL    C13   17   0.396   0.191   0.035
    1UNL    C14   18   0.332   0.068   0.019
    1UNL    C15   19   0.190   0.040   0.025
    1UNL    C16   20   0.079   0.127   0.077
    1UNL    C17   21  -0.055   0.051   0.086
    1UNL    C18   22  -0.138   0.079  -0.052
    1UNL     N2   23  -0.041  -0.100   0.101
    1UNL    C19   24  -0.179  -0.162   0.119
    1UNL    C20   25  -0.179  -0.315   0.157
    1UNL     H1   26  -0.199   0.342   0.100
    1UNL     H2   27  -0.268   0.464  -0.022
    1UNL     H3   28  -0.106   0.371  -0.062
    1UNL     H4   29  -0.276   0.165   0.101
    1UNL     H5   30  -0.405  -0.053   0.126
    1UNL     H6   31  -0.470  -0.184  -0.112
    1UNL     H7   32  -0.277  -0.245  -0.055
    1UNL     H8   33  -0.222  -0.042  -0.208
    1UNL     H9   34   0.017  -0.065  -0.212
    1UNL    H10   35  -0.053  -0.248  -0.185
    1UNL    H11   36   0.057  -0.264   0.000
    1UNL    H12   37   0.306  -0.238  -0.089
    1UNL    H13   38   0.570  -0.124  -0.129
    1UNL    H14   39   0.701   0.092  -0.064
    1UNL    H15   40   0.579   0.292   0.007
    1UNL    H16   41   0.353   0.280   0.075
    1UNL    H17   42   0.068   0.209   0.018
    1UNL    H18   43   0.103   0.167   0.174
    1UNL    H19   44  -0.117   0.104   0.164
    1UNL    H20   45  -0.080   0.138  -0.119
    1UNL    H21   46  -0.219  -0.105   0.208
    1UNL    H22   47  -0.123  -0.332   0.253
    1UNL    H23   48  -0.276  -0.360   0.157
    1UNL    H24   49  -0.138  -0.362   0.069
   0.00000   0.00000   0.00000   0.00000   0.00000   0.00000   0.00000   0.00000   0.00000
Generated with MDTraj, t= 7.0
 49
    1UNL     C1    1  -0.226   0.371  -0.010
    1UNL     O1    2  -0.288   0.267  -0.095
    1UNL     C2    3  -0.278   0.136  -0.030
    1UNL     O2    4  -0.385   0.053  -0.065
    1UNL     C3    5  -0.388  -0.070   0.011
    1UNL     O3    6  -0.507  -0.140  -0.014
    1UNL     C4    7  -0.248  -0.148  -0.011
    1UNL     C5    8  -0.167  -0.065  -0.110
    1UNL     C6    9  -0.029  -0.137  -0.131
    1UNL     C7   10   0.043  -0.155   0.005
    1UNL     C8   11   0.172  -0.089  -0.012
    1UNL     N1   12   0.284  -0.132  -0.073
    1UNL     C9   13   0.380  -0.033  -0.051
    1UNL    C10   14   0.517  -0.028  -0.098
    1UNL    C11   15   0.590   0.077  -0.059
    1UNL    C12   16   0.544   0.182   0.017
    1UNL    C13   17   0.412   0.184   0.038
    1UNL    C14   18   0.326   0.079   0.009
    1UNL    C15   19   0.191   0.042   0.038
    1UNL    C16   20   0.078   0.123   0.102
    1UNL    C17   21  -0.059   0.052   0.090
    1UNL    C18   22  -0.138   0.072  -0.042
    1UNL     N2   23  -0.044  -0.095   0.108
    1UNL    C19   24  -0.170  -0.171   0.118
    1UNL    C20   25  -0.146  -0.322   0.160
    1UNL     H1   26  -0.192   0.316   0.083
    1UNL     H2   27  -0.297   0.450   0.010
    1UNL     H3   28  -0.134   0.412  -0.065
    1UNL     H4   29  -0.302   0.152   0.083
    1UNL     H5   30  -0.390  -0.050   0.122
    1UNL     H6   31  -0.582  -0.094   0.031
    1UNL     H7   32  -0.274  -0.246  -0.051
    1UNL     H8   33  -0.223  -0.038  -0.196
    1UNL     H9   34   0.041  -0.072  -0.186
    1UNL    H10   35  -0.058  -0.242  -0.182
    1UNL    H11   36   0.072  -0.259   0.017
    1UNL    H12   37   0.305  -0.228  -0.096
    1UNL    H13   38   0.551  -0.099  -0.168
    1UNL    H14   39   0.693   0.081  -0.103
    1UNL    H15   40   0.607   0.258   0.050
    1UNL    H16   41   0.358   0.270   0.083
    1UNL    H17   42   0.077   0.223   0.075
    1UNL    H18   43   0.102   0.121   0.208
    1UNL    H19   44  -0.123   0.082   0.178
    1UNL    H20   45  -0.078   0.125  -0.111
    1UNL    H21   46  -0.215  -0.123   0.211
    1UNL    H22   47  -0.065  -0.325   0.237
    1UNL    H23   48  -0.228  -0.371   0.213
    1UNL    H24   49  -0.137  -0.390   0.078
   0.00000   0.00000   0.00000   0.00000   0.00000   0.00000   0.00000   0.00000   0.00000
Generated with MDTraj, t= 8.0
 49
    1UNL     C1    1  -0.195   0.370  -0.027
    1UNL     O1    2  -0.255   0.268  -0.100
    1UNL     C2    3  -0.263   0.148  -0.020
    1UNL     O2    4  -0.382   0.069  -0.037
    1UNL     C3    5  -0.390  -0.069   0.021
    1UNL     O3    6  -0.506  -0.143  -0.010
    1UNL     C4    7  -0.262  -0.152  -0.005
    1UNL     C5    8  -0.170  -0.073  -0.105
    1UNL     C6    9  -0.036  -0.157  -0.142
    1UNL     C7   10   0.039  -0.166  -0.015
    1UNL     C8   11   0.168  -0.087  -0.023
    1UNL     N1   12   0.290  -0.128  -0.073
    1UNL     C9   13   0.385  -0.030  -0.063
    1UNL    C10   14   0.520  -0.016  -0.094
    1UNL    C11   15   0.590   0.092  -0.047
    1UNL    C12   16   0.521   0.199   0.021
    1UNL    C13   17   0.391   0.197   0.049
    1UNL    C14   18   0.321   0.077   0.008
    1UNL    C15   19   0.184   0.040   0.024
    1UNL    C16   20   0.075   0.114   0.098
    1UNL    C17   21  -0.055   0.036   0.091
    1UNL    C18   22  -0.135   0.066  -0.044
    1UNL     N2   23  -0.037  -0.112   0.110
    1UNL    C19   24  -0.176  -0.176   0.124
    1UNL    C20   25  -0.169  -0.319   0.168
    1UNL     H1   26  -0.094   0.342   0.006
    1UNL     H2   27  -0.263   0.401   0.055
    1UNL     H3   28  -0.194   0.455  -0.100
    1UNL     H4   29  -0.277   0.176   0.091
    1UNL     H5   30  -0.390  -0.053   0.134
    1UNL     H6   31  -0.531  -0.114  -0.099
    1UNL     H7   32  -0.302  -0.240  -0.056
    1UNL     H8   33  -0.222  -0.058  -0.196
    1UNL     H9   34   0.019  -0.093  -0.216
    1UNL    H10   35  -0.053  -0.264  -0.179
    1UNL    H11   36   0.049  -0.269   0.013
    1UNL    H12   37   0.295  -0.197  -0.142
    1UNL    H13   38   0.572  -0.101  -0.143
    1UNL    H14   39   0.683   0.121  -0.086
    1UNL    H15   40   0.575   0.294   0.033
    1UNL    H16   41   0.350   0.277   0.104
    1UNL    H17   42   0.067   0.201   0.033
    1UNL    H18   43   0.114   0.142   0.193
    1UNL    H19   44  -0.115   0.074   0.177
    1UNL    H20   45  -0.072   0.120  -0.110
    1UNL    H21   46  -0.221  -0.119   0.213
    1UNL    H22   47  -0.146  -0.337   0.274
    1UNL    H23   48  -0.261  -0.377   0.154
    1UNL    H24   49  -0.113  -0.384   0.103
   0.00000   0.00000   0.00000   0.00000   0.00000   0.00000   0.00000   0.00000   0.00000
Generated with MDTraj, t= 9.0
 49
    1UNL     C1    1  -0.159   0.361  -0.050
    1UNL     O1    2  -0.263   0.279  -0.084
    1UNL     C2    3  -0.272   0.146  -0.017
    1UNL     O2    4  -0.383   0.062  -0.056
    1UNL     C3    5  -0.385  -0.060   0.027
    1UNL     O3    6  -0.501  -0.132   0.013
    1UNL     C4    7  -0.258  -0.143  -0.010
    1UNL     C5    8  -0.171  -0.068  -0.111
    1UNL     C6    9  -0.039  -0.156  -0.138
    1UNL     C7   10   0.042  -0.168  -0.005
    1UNL     C8   11   0.173  -0.093  -0.011
    1UNL     N1   12   0.295  -0.132  -0.068
    1UNL     C9   13   0.388  -0.027  -0.049
    1UNL    C10   14   0.526  -0.018  -0.081
    1UNL    C11   15   0.583   0.104  -0.064
    1UNL    C12   16   0.509   0.209  -0.001
    1UNL    C13   17   0.377   0.200   0.039
    1UNL    C14   18   0.321   0.076   0.016
    1UNL    C15   19   0.187   0.030   0.043
    1UNL    C16   20   0.069   0.107   0.104
    1UNL    C17   21  -0.069   0.039   0.092
    1UNL    C18   22  -0.139   0.063  -0.040
    1UNL     N2   23  -0.041  -0.112   0.110
    1UNL    C19   24  -0.175  -0.180   0.112
    1UNL    C20   25  -0.170  -0.332   0.137
    1UNL     H1   26  -0.081   0.342  -0.116
    1UNL     H2   27  -0.127   0.348   0.057
    1UNL     H3   28  -0.195   0.464  -0.057
    1UNL     H4   29  -0.299   0.172   0.092
    1UNL     H5   30  -0.378  -0.035   0.138
    1UNL     H6   31  -0.503  -0.167  -0.079
    1UNL     H7   32  -0.300  -0.228  -0.065
    1UNL     H8   33  -0.224  -0.054  -0.200
    1UNL     H9   34   0.028  -0.109  -0.217
    1UNL    H10   35  -0.072  -0.252  -0.171
    1UNL    H11   36   0.070  -0.273   0.004
    1UNL    H12   37   0.311  -0.215  -0.115
    1UNL    H13   38   0.593  -0.089  -0.118
    1UNL    H14   39   0.690   0.119  -0.092
    1UNL    H15   40   0.570   0.302  -0.002
    1UNL    H16   41   0.319   0.271   0.103
    1UNL    H17   42   0.079   0.209   0.056
    1UNL    H18   43   0.096   0.107   0.205
    1UNL    H19   44  -0.140   0.071   0.174
    1UNL    H20   45  -0.073   0.125  -0.096
    1UNL    H21   46  -0.229  -0.148   0.209
    1UNL    H22   47  -0.094  -0.362   0.209
    1UNL    H23   48  -0.262  -0.367   0.188
    1UNL    H24   49  -0.178  -0.392   0.047
   0.00000   0.00000   0.00000   0.00000   0.00000   0.00000   0.00000   0.00000   0.00000
Generated with MDTraj, t= 10.0
 49
    1UNL     C1    1  -0.162   0.360  -0.062
    1UNL     O1    2  -0.260   0.265  -0.101
    1UNL     C2    3  -0.264   0.150  -0.017
    1UNL     O2    4  -0.381   0.075  -0.051
    1UNL     C3    5  -0.386  -0.056   0.022
    1UNL     O3    6  -0.507  -0.129   0.004
    1UNL     C4    7  -0.257  -0.153  -0.014
    1UNL     C5    8  -0.168  -0.071  -0.112
    1UNL     C6    9  -0.033  -0.145  -0.134
    1UNL     C7   10   0.038  -0.165   0.002
    1UNL     C8   11   0.168  -0.091   0.002
    1UNL     N1   12   0.285  -0.128  -0.057
    1UNL     C9   13   0.377  -0.028  -0.048
    1UNL    C10   14   0.508  -0.018  -0.089
    1UNL    C11   15   0.578   0.105  -0.076
    1UNL    C12   16   0.520   0.217  -0.017
    1UNL    C13   17   0.394   0.201   0.038
    1UNL    C14   18   0.315   0.080   0.020
    1UNL    C15   19   0.179   0.038   0.052
    1UNL    C16   20   0.068   0.105   0.124
    1UNL    C17   21  -0.063   0.027   0.108
    1UNL    C18   22  -0.130   0.060  -0.031
    1UNL     N2   23  -0.046  -0.118   0.109
    1UNL    C19   24  -0.177  -0.189   0.108
    1UNL    C20   25  -0.155  -0.343   0.123
    1UNL     H1   26  -0.069   0.330  -0.088
    1UNL     H2   27  -0.160   0.378   0.048
    1UNL     H3   28  -0.176   0.457  -0.102
    1UNL     H4   29  -0.278   0.183   0.092
    1UNL     H5   30  -0.380  -0.039   0.135
    1UNL     H6   31  -0.580  -0.079   0.048
    1UNL     H7   32  -0.295  -0.243  -0.062
    1UNL     H8   33  -0.214  -0.048  -0.204
    1UNL     H9   34   0.035  -0.077  -0.198
    1UNL    H10   35  -0.045  -0.230  -0.191
    1UNL    H11   36   0.068  -0.268   0.019
    1UNL    H12   37   0.311  -0.222  -0.062
    1UNL    H13   38   0.551  -0.109  -0.136
    1UNL    H14   39   0.680   0.107  -0.102
    1UNL    H15   40   0.571   0.299   0.019
    1UNL    H16   41   0.355   0.283   0.090
    1UNL    H17   42   0.057   0.208   0.071
    1UNL    H18   43   0.104   0.109   0.222
    1UNL    H19   44  -0.132   0.047   0.193
    1UNL    H20   45  -0.049   0.111  -0.080
    1UNL    H21   46  -0.243  -0.174   0.202
    1UNL    H22   47  -0.090  -0.354   0.207
    1UNL    H23   48  -0.247  -0.401   0.141
    1UNL    H24   49  -0.121  -0.381   0.026
   0.00000   0.00000   0.00000   0.00000   0.00000   0.00000   0.00000   0.00000   0.00000
Generated with MDTraj, t= 11.0
 49
    1UNL     C1    1  -0.191   0.374  -0.051
    1UNL     O1    2  -0.236   0.252  -0.114
    1UNL     C2    3  -0.248   0.149  -0.026
    1UNL     O2    4  -0.369   0.079  -0.041
    1UNL     C3    5  -0.382  -0.049   0.020
    1UNL     O3    6  -0.502  -0.124   0.008
    1UNL     C4    7  -0.259  -0.143  -0.009
    1UNL     C5    8  -0.160  -0.066  -0.110
    1UNL     C6    9  -0.036  -0.156  -0.134
    1UNL     C7   10   0.044  -0.182  -0.006
    1UNL     C8   11   0.178  -0.105  -0.005
    1UNL     N1   12   0.293  -0.132  -0.067
    1UNL     C9   13   0.376  -0.020  -0.059
    1UNL    C10   14   0.508  -0.003  -0.106
    1UNL    C11   15   0.565   0.120  -0.076
    1UNL    C12   16   0.501   0.216   0.006
    1UNL    C13   17   0.378   0.191   0.060
    1UNL    C14   18   0.313   0.078   0.019
    1UNL    C15   19   0.184   0.024   0.041
    1UNL    C16   20   0.078   0.090   0.119
    1UNL    C17   21  -0.059   0.021   0.104
    1UNL    C18   22  -0.122   0.063  -0.041
    1UNL     N2   23  -0.048  -0.126   0.109
    1UNL    C19   24  -0.188  -0.180   0.120
    1UNL    C20   25  -0.175  -0.330   0.153
    1UNL     H1   26  -0.106   0.367   0.008
    1UNL     H2   27  -0.265   0.420   0.014
    1UNL     H3   28  -0.167   0.449  -0.120
    1UNL     H4   29  -0.256   0.194   0.079
    1UNL     H5   30  -0.390  -0.023   0.132
    1UNL     H6   31  -0.508  -0.136  -0.091
    1UNL     H7   32  -0.300  -0.232  -0.058
    1UNL     H8   33  -0.204  -0.045  -0.202
    1UNL     H9   34   0.023  -0.106  -0.218
    1UNL    H10   35  -0.064  -0.246  -0.175
    1UNL    H11   36   0.069  -0.285   0.015
    1UNL    H12   37   0.313  -0.207  -0.128
    1UNL    H13   38   0.561  -0.069  -0.172
    1UNL    H14   39   0.668   0.141  -0.108
    1UNL    H15   40   0.559   0.307   0.048
    1UNL    H16   41   0.316   0.254   0.126
    1UNL    H17   42   0.061   0.194   0.068
    1UNL    H18   43   0.106   0.102   0.219
    1UNL    H19   44  -0.133   0.060   0.177
    1UNL    H20   45  -0.051   0.123  -0.096
    1UNL    H21   46  -0.235  -0.136   0.215
    1UNL    H22   47  -0.135  -0.342   0.251
    1UNL    H23   48  -0.270  -0.385   0.132
    1UNL    H24   49  -0.114  -0.372   0.070
   0.00000   0.00000   0.00000   0.00000   0.00000   0.00000   0.00000   0.00000   0.00000
Generated with MDTraj, t= 12.0
 49
    1UNL     C1    1  -0.214   0.375  -0.033
    1UNL     O1    2  -0.230   0.265  -0.113
    1UNL     C2    3  -0.251   0.140  -0.040
    1UNL     O2    4  -0.373   0.063  -0.065
    1UNL     C3    5  -0.378  -0.047   0.009
    1UNL     O3    6  -0.500  -0.108  -0.001
    1UNL     C4    7  -0.258  -0.145  -0.013
    1UNL     C5    8  -0.154  -0.080  -0.102
    1UNL     C6    9  -0.036  -0.176  -0.121
    1UNL     C7   10   0.042  -0.177   0.012
    1UNL     C8   11   0.167  -0.094  -0.002
    1UNL     N1   12   0.282  -0.122  -0.084
    1UNL     C9   13   0.371  -0.021  -0.063
    1UNL    C10   14   0.504  -0.001  -0.108
    1UNL    C11   15   0.579   0.115  -0.083
    1UNL    C12   16   0.518   0.208   0.008
    1UNL    C13   17   0.391   0.193   0.053
    1UNL    C14   18   0.314   0.078   0.020
    1UNL    C15   19   0.186   0.028   0.058
    1UNL    C16   20   0.073   0.100   0.132
    1UNL    C17   21  -0.060   0.025   0.103
    1UNL    C18   22  -0.124   0.051  -0.038
    1UNL     N2   23  -0.042  -0.119   0.118
    1UNL    C19   24  -0.179  -0.181   0.117
    1UNL    C20   25  -0.171  -0.329   0.142
    1UNL     H1   26  -0.131   0.361   0.031
    1UNL     H2   27  -0.301   0.396   0.028
    1UNL     H3   28  -0.196   0.458  -0.090
    1UNL     H4   29  -0.281   0.171   0.066
    1UNL     H5   30  -0.380  -0.019   0.122
    1UNL     H6   31  -0.565  -0.036   0.013
    1UNL     H7   32  -0.299  -0.235  -0.061
    1UNL     H8   33  -0.196  -0.053  -0.194
    1UNL     H9   34   0.032  -0.154  -0.204
    1UNL    H10   35  -0.081  -0.267  -0.149
    1UNL    H11   36   0.079  -0.276   0.037
    1UNL    H12   37   0.275  -0.203  -0.146
    1UNL    H13   38   0.539  -0.077  -0.176
    1UNL    H14   39   0.671   0.143  -0.130
    1UNL    H15   40   0.565   0.298   0.022
    1UNL    H16   41   0.352   0.262   0.126
    1UNL    H17   42   0.067   0.216   0.120
    1UNL    H18   43   0.088   0.079   0.233
    1UNL    H19   44  -0.137   0.049   0.179
    1UNL    H20   45  -0.046   0.096  -0.098
    1UNL    H21   46  -0.223  -0.136   0.213
    1UNL    H22   47  -0.090  -0.366   0.202
    1UNL    H23   48  -0.265  -0.363   0.187
    1UNL    H24   49  -0.179  -0.393   0.050
   0.00000   0.00000   0.00000   0.00000   0.00000   0.00000   0.00000   0.00000   0.00000
Generated with MDTraj, t= 13.0
 49
    1UNL     C1    1  -0.230   0.386  -0.035
    1UNL     O1    2  -0.239   0.270  -0.100
    1UNL     C2    3  -0.254   0.153  -0.024
    1UNL     O2    4  -0.377   0.081  -0.055
    1UNL     C3    5  -0.377  -0.050   0.012
    1UNL     O3    6  -0.493  -0.133  -0.010
    1UNL     C4    7  -0.254  -0.151  -0.012
    1UNL     C5    8  -0.155  -0.074  -0.104
    1UNL     C6    9  -0.027  -0.156  -0.133
    1UNL     C7   10   0.050  -0.168   0.002
    1UNL     C8   11   0.175  -0.093  -0.005
    1UNL     N1   12   0.292  -0.136  -0.063
    1UNL     C9   13   0.380  -0.031  -0.048
    1UNL    C10   14   0.505  -0.015  -0.109
    1UNL    C11   15   0.572   0.096  -0.080
    1UNL    C12   16   0.508   0.210  -0.016
    1UNL    C13   17   0.380   0.194   0.041
    1UNL    C14   18   0.317   0.067   0.030
    1UNL    C15   19   0.185   0.030   0.057
    1UNL    C16   20   0.077   0.104   0.123
    1UNL    C17   21  -0.060   0.032   0.109
    1UNL    C18   22  -0.122   0.068  -0.040
    1UNL     N2   23  -0.041  -0.118   0.116
    1UNL    C19   24  -0.180  -0.190   0.115
    1UNL    C20   25  -0.178  -0.334   0.143
    1UNL     H1   26  -0.147   0.379   0.037
    1UNL     H2   27  -0.319   0.414   0.013
    1UNL     H3   28  -0.204   0.454  -0.111
    1UNL     H4   29  -0.269   0.187   0.082
    1UNL     H5   30  -0.388  -0.024   0.123
    1UNL     H6   31  -0.540  -0.089  -0.082
    1UNL     H7   32  -0.286  -0.241  -0.066
    1UNL     H8   33  -0.203  -0.052  -0.193
    1UNL     H9   34   0.023  -0.107  -0.210
    1UNL    H10   35  -0.042  -0.253  -0.179
    1UNL    H11   36   0.078  -0.269   0.037
    1UNL    H12   37   0.304  -0.235  -0.096
    1UNL    H13   38   0.560  -0.095  -0.160
    1UNL    H14   39   0.665   0.120  -0.131
    1UNL    H15   40   0.551   0.313  -0.011
    1UNL    H16   41   0.331   0.273   0.093
    1UNL    H17   42   0.062   0.206   0.073
    1UNL    H18   43   0.097   0.125   0.225
    1UNL    H19   44  -0.126   0.061   0.192
    1UNL    H20   45  -0.043   0.121  -0.090
    1UNL    H21   46  -0.240  -0.143   0.201
    1UNL    H22   47  -0.155  -0.357   0.247
    1UNL    H23   48  -0.266  -0.393   0.113
    1UNL    H24   49  -0.101  -0.393   0.089
   0.00000   0.00000   0.00000   0.00000   0.00000   0.00000   0.00000   0.00000   0.00000
Generated with MDTraj, t= 14.0
 49
    1UNL     C1    1  -0.255   0.395  -0.017
    1UNL     O1    2  -0.245   0.269  -0.100
    1UNL     C2    3  -0.262   0.144  -0.016
    1UNL     O2    4  -0.379   0.068  -0.048
    1UNL     C3    5  -0.383  -0.059   0.014
    1UNL     O3    6  -0.504  -0.121  -0.028
    1UNL     C4    7  -0.253  -0.143  -0.015
    1UNL     C5    8  -0.155  -0.061  -0.109
    1UNL     C6    9  -0.027  -0.138  -0.127
    1UNL     C7   10   0.045  -0.173   0.004
    1UNL     C8   11   0.178  -0.103   0.011
    1UNL     N1   12   0.299  -0.143  -0.045
    1UNL     C9   13   0.390  -0.042  -0.042
    1UNL    C10   14   0.519  -0.023  -0.098
    1UNL    C11   15   0.580   0.103  -0.077
    1UNL    C12   16   0.518   0.208  -0.016
    1UNL    C13   17   0.384   0.197   0.019
    1UNL    C14   18   0.326   0.071   0.015
    1UNL    C15   19   0.192   0.028   0.044
    1UNL    C16   20   0.080   0.105   0.102
    1UNL    C17   21  -0.057   0.029   0.096
    1UNL    C18   22  -0.131   0.064  -0.032
    1UNL     N2   23  -0.041  -0.121   0.108
    1UNL    C19   24  -0.177  -0.182   0.117
    1UNL    C20   25  -0.177  -0.332   0.152
    1UNL     H1   26  -0.161   0.396   0.049
    1UNL     H2   27  -0.334   0.392   0.049
    1UNL     H3   28  -0.262   0.487  -0.074
    1UNL     H4   29  -0.279   0.188   0.085
    1UNL     H5   30  -0.400  -0.042   0.126
    1UNL     H6   31  -0.491  -0.146  -0.121
    1UNL     H7   32  -0.283  -0.233  -0.070
    1UNL     H8   33  -0.203  -0.038  -0.199
    1UNL     H9   34   0.036  -0.099  -0.195
    1UNL    H10   35  -0.059  -0.225  -0.184
    1UNL    H11   36   0.052  -0.280   0.028
    1UNL    H12   37   0.307  -0.235  -0.098
    1UNL    H13   38   0.567  -0.105  -0.144
    1UNL    H14   39   0.682   0.114  -0.109
    1UNL    H15   40   0.567   0.302   0.000
    1UNL    H16   41   0.326   0.285   0.055
    1UNL    H17   42   0.066   0.210   0.067
    1UNL    H18   43   0.094   0.108   0.209
    1UNL    H19   44  -0.121   0.053   0.182
    1UNL    H20   45  -0.063   0.128  -0.088
    1UNL    H21   46  -0.233  -0.139   0.208
    1UNL    H22   47  -0.080  -0.356   0.201
    1UNL    H23   48  -0.265  -0.357   0.212
    1UNL    H24   49  -0.192  -0.392   0.060
   0.00000   0.00000   0.00000   0.00000   0.00000   0.00000   0.00000   0.00000   0.00000
Generated with MDTraj, t= 15.0
 49
    1UNL     C1    1  -0.305   0.369   0.010
    1UNL     O1    2  -0.246   0.274  -0.084
    1UNL     C2    3  -0.251   0.145  -0.023
    1UNL     O2    4  -0.367   0.075  -0.065
    1UNL     C3    5  -0.383  -0.058  -0.001
    1UNL     O3    6  -0.504  -0.130  -0.029
    1UNL     C4    7  -0.258  -0.149  -0.013
    1UNL     C5    8  -0.156  -0.081  -0.112
    1UNL     C6    9  -0.030  -0.163  -0.133
    1UNL     C7   10   0.043  -0.164   0.004
    1UNL     C8   11   0.173  -0.087  -0.002
    1UNL     N1   12   0.288  -0.134  -0.061
    1UNL     C9   13   0.387  -0.033  -0.053
    1UNL    C10   14   0.521  -0.035  -0.088
    1UNL    C11   15   0.593   0.080  -0.071
    1UNL    C12   16   0.533   0.188  -0.010
    1UNL    C13   17   0.401   0.194   0.027
    1UNL    C14   18   0.326   0.082   0.008
    1UNL    C15   19   0.190   0.038   0.038
    1UNL    C16   20   0.085   0.114   0.105
    1UNL    C17   21  -0.057   0.047   0.100
    1UNL    C18   22  -0.120   0.063  -0.045
    1UNL     N2   23  -0.045  -0.104   0.114
    1UNL    C19   24  -0.180  -0.168   0.124
    1UNL    C20   25  -0.166  -0.318   0.161
    1UNL     H1   26  -0.255   0.354   0.114
    1UNL     H2   27  -0.410   0.359   0.019
    1UNL     H3   28  -0.278   0.468  -0.036
    1UNL     H4   29  -0.266   0.175   0.082
    1UNL     H5   30  -0.389  -0.035   0.111
    1UNL     H6   31  -0.583  -0.074  -0.008
    1UNL     H7   32  -0.289  -0.246  -0.055
    1UNL     H8   33  -0.210  -0.066  -0.201
    1UNL     H9   34   0.021  -0.123  -0.213
    1UNL    H10   35  -0.049  -0.259  -0.179
    1UNL    H11   36   0.077  -0.266   0.029
    1UNL    H12   37   0.300  -0.216  -0.131
    1UNL    H13   38   0.560  -0.126  -0.137
    1UNL    H14   39   0.699   0.077  -0.082
    1UNL    H15   40   0.594   0.273   0.019
    1UNL    H16   41   0.365   0.284   0.069
    1UNL    H17   42   0.064   0.204   0.046
    1UNL    H18   43   0.108   0.147   0.206
    1UNL    H19   44  -0.123   0.075   0.183
    1UNL    H20   45  -0.047   0.108  -0.111
    1UNL    H21   46  -0.243  -0.127   0.210
    1UNL    H22   47  -0.127  -0.324   0.268
    1UNL    H23   48  -0.262  -0.367   0.141
    1UNL    H24   49  -0.094  -0.364   0.094
   0.00000   0.00000   0.00000   0.00000   0.00000   0.00000   0.00000   0.00000   0.00000
Generated with MDTraj, t= 16.0
 49
    1UNL     C1    1  -0.390   0.333  -0.042
    1UNL     O1    2  -0.262   0.287  -0.042
    1UNL     C2    3  -0.255   0.151  -0.001
    1UNL     O2    4  -0.369   0.079  -0.045
    1UNL     C3    5  -0.387  -0.055   0.017
    1UNL     O3    6  -0.494  -0.129  -0.038
    1UNL     C4    7  -0.257  -0.130  -0.010
    1UNL     C5    8  -0.162  -0.056  -0.109
    1UNL     C6    9  -0.039  -0.147  -0.134
    1UNL     C7   10   0.043  -0.166  -0.010
    1UNL     C8   11   0.176  -0.105  -0.017
    1UNL     N1   12   0.298  -0.151  -0.073
    1UNL     C9   13   0.396  -0.050  -0.058
    1UNL    C10   14   0.536  -0.032  -0.091
    1UNL    C11   15   0.601   0.080  -0.060
    1UNL    C12   16   0.539   0.192  -0.002
    1UNL    C13   17   0.413   0.175   0.050
    1UNL    C14   18   0.338   0.057   0.010
    1UNL    C15   19   0.204   0.022   0.034
    1UNL    C16   20   0.099   0.110   0.088
    1UNL    C17   21  -0.039   0.044   0.087
    1UNL    C18   22  -0.120   0.080  -0.045
    1UNL     N2   23  -0.035  -0.102   0.105
    1UNL    C19   24  -0.171  -0.153   0.116
    1UNL    C20   25  -0.175  -0.294   0.175
    1UNL     H1   26  -0.419   0.346   0.069
    1UNL     H2   27  -0.460   0.267  -0.095
    1UNL     H3   28  -0.372   0.429  -0.105
    1UNL     H4   29  -0.268   0.167   0.107
    1UNL     H5   30  -0.410  -0.042   0.129
    1UNL     H6   31  -0.476  -0.156  -0.132
    1UNL     H7   32  -0.279  -0.226  -0.061
    1UNL     H8   33  -0.222  -0.034  -0.194
    1UNL     H9   34   0.011  -0.112  -0.223
    1UNL    H10   35  -0.070  -0.243  -0.169
    1UNL    H11   36   0.040  -0.271   0.029
    1UNL    H12   37   0.322  -0.254  -0.095
    1UNL    H13   38   0.585  -0.104  -0.150
    1UNL    H14   39   0.705   0.094  -0.094
    1UNL    H15   40   0.601   0.281   0.018
    1UNL    H16   41   0.360   0.261   0.098
    1UNL    H17   42   0.094   0.202   0.037
    1UNL    H18   43   0.131   0.141   0.190
    1UNL    H19   44  -0.095   0.088   0.169
    1UNL    H20   45  -0.062   0.139  -0.115
    1UNL    H21   46  -0.213  -0.083   0.195
    1UNL    H22   47  -0.099  -0.294   0.260
    1UNL    H23   48  -0.276  -0.314   0.212
    1UNL    H24   49  -0.152  -0.379   0.110
   0.00000   0.00000   0.00000   0.00000   0.00000   0.00000   0.00000   0.00000   0.00000
Generated with MDTraj, t= 17.0
 49
    1UNL     C1    1  -0.406   0.312  -0.103
    1UNL     O1    2  -0.283   0.290  -0.037
    1UNL     C2    3  -0.279   0.151   0.028
    1UNL     O2    4  -0.396   0.072  -0.015
    1UNL     C3    5  -0.388  -0.075   0.012
    1UNL     O3    6  -0.489  -0.147  -0.046
    1UNL     C4    7  -0.245  -0.132  -0.018
    1UNL     C5    8  -0.162  -0.035  -0.103
    1UNL     C6    9  -0.028  -0.100  -0.147
    1UNL     C7   10   0.041  -0.142  -0.015
    1UNL     C8   11   0.178  -0.084  -0.010
    1UNL     N1   12   0.297  -0.138  -0.060
    1UNL     C9   13   0.400  -0.048  -0.055
    1UNL    C10   14   0.535  -0.065  -0.089
    1UNL    C11   15   0.617   0.039  -0.069
    1UNL    C12   16   0.569   0.156  -0.001
    1UNL    C13   17   0.439   0.173   0.030
    1UNL    C14   18   0.346   0.064   0.003
    1UNL    C15   19   0.208   0.039   0.043
    1UNL    C16   20   0.094   0.125   0.089
    1UNL    C17   21  -0.047   0.060   0.101
    1UNL    C18   22  -0.143   0.095  -0.011
    1UNL     N2   23  -0.034  -0.089   0.104
    1UNL    C19   24  -0.167  -0.158   0.120
    1UNL    C20   25  -0.156  -0.307   0.158
    1UNL     H1   26  -0.471   0.254  -0.033
    1UNL     H2   27  -0.408   0.259  -0.203
    1UNL     H3   28  -0.431   0.424  -0.121
    1UNL     H4   29  -0.282   0.153   0.135
    1UNL     H5   30  -0.406  -0.084   0.124
    1UNL     H6   31  -0.574  -0.099  -0.038
    1UNL     H7   32  -0.253  -0.229  -0.073
    1UNL     H8   33  -0.221   0.001  -0.187
    1UNL     H9   34   0.044  -0.039  -0.209
    1UNL    H10   35  -0.058  -0.177  -0.209
    1UNL    H11   36   0.057  -0.253  -0.011
    1UNL    H12   37   0.308  -0.245  -0.068
    1UNL    H13   38   0.565  -0.161  -0.137
    1UNL    H14   39   0.716   0.039  -0.099
    1UNL    H15   40   0.642   0.232   0.001
    1UNL    H16   41   0.413   0.253   0.092
    1UNL    H17   42   0.101   0.220   0.050
    1UNL    H18   43   0.115   0.146   0.197
    1UNL    H19   44  -0.086   0.089   0.199
    1UNL    H20   45  -0.088   0.162  -0.077
    1UNL    H21   46  -0.220  -0.101   0.201
    1UNL    H22   47  -0.089  -0.329   0.245
    1UNL    H23   48  -0.252  -0.353   0.185
    1UNL    H24   49  -0.118  -0.375   0.082
   0.00000   0.00000   0.00000   0.00000   0.00000   0.00000   0.00000   0.00000   0.00000
Generated with MDTraj, t= 18.0
 49
    1UNL     C1    1  -0.348   0.307  -0.123
    1UNL     O1    2  -0.314   0.287   0.001
    1UNL     C2    3  -0.285   0.148   0.029
    1UNL     O2    4  -0.395   0.075  -0.015
    1UNL     C3    5  -0.388  -0.068   0.030
    1UNL     O3    6  -0.497  -0.141  -0.015
    1UNL     C4    7  -0.248  -0.132  -0.012
    1UNL     C5    8  -0.174  -0.037  -0.106
    1UNL     C6    9  -0.040  -0.101  -0.150
    1UNL     C7   10   0.039  -0.138  -0.025
    1UNL     C8   11   0.177  -0.080  -0.028
    1UNL     N1   12   0.292  -0.145  -0.063
    1UNL     C9   13   0.399  -0.057  -0.049
    1UNL    C10   14   0.534  -0.068  -0.076
    1UNL    C11   15   0.615   0.041  -0.044
    1UNL    C12   16   0.557   0.157   0.007
    1UNL    C13   17   0.424   0.169   0.031
    1UNL    C14   18   0.341   0.063   0.010
    1UNL    C15   19   0.205   0.044   0.014
    1UNL    C16   20   0.096   0.131   0.072
    1UNL    C17   21  -0.044   0.053   0.093
    1UNL    C18   22  -0.148   0.095  -0.024
    1UNL     N2   23  -0.023  -0.093   0.099
    1UNL    C19   24  -0.159  -0.161   0.109
    1UNL    C20   25  -0.130  -0.303   0.147
    1UNL     H1   26  -0.450   0.271  -0.132
    1UNL     H2   27  -0.278   0.251  -0.196
    1UNL     H3   28  -0.343   0.418  -0.138
    1UNL     H4   29  -0.288   0.145   0.135
    1UNL     H5   30  -0.393  -0.066   0.144
    1UNL     H6   31  -0.492  -0.139  -0.113
    1UNL     H7   32  -0.269  -0.226  -0.068
    1UNL     H8   33  -0.239  -0.003  -0.187
    1UNL     H9   34   0.014  -0.017  -0.207
    1UNL    H10   35  -0.047  -0.185  -0.209
    1UNL    H11   36   0.055  -0.249  -0.023
    1UNL    H12   37   0.293  -0.222  -0.137
    1UNL    H13   38   0.581  -0.158  -0.100
    1UNL    H14   39   0.723   0.029  -0.066
    1UNL    H15   40   0.622   0.248   0.022
    1UNL    H16   41   0.378   0.255   0.084
    1UNL    H17   42   0.075   0.206   0.006
    1UNL    H18   43   0.130   0.196   0.155
    1UNL    H19   44  -0.088   0.094   0.184
    1UNL    H20   45  -0.121   0.177  -0.093
    1UNL    H21   46  -0.203  -0.104   0.194
    1UNL    H22   47  -0.086  -0.302   0.247
    1UNL    H23   48  -0.223  -0.366   0.149
    1UNL    H24   49  -0.057  -0.352   0.081
   0.00000   0.00000   0.00000   0.00000   0.00000   0.00000   0.00000   0.00000   0.00000
Generated with MDTraj, t= 19.0
 49
    1UNL     C1    1  -0.297   0.309  -0.124
    1UNL     O1    2  -0.281   0.285   0.013
    1UNL     C2    3  -0.270   0.141   0.041
    1UNL     O2    4  -0.392   0.075  -0.004
    1UNL     C3    5  -0.390  -0.064   0.038
    1UNL     O3    6  -0.504  -0.127  -0.002
    1UNL     C4    7  -0.254  -0.134  -0.002
    1UNL     C5    8  -0.175  -0.051  -0.110
    1UNL     C6    9  -0.051  -0.139  -0.158
    1UNL     C7   10   0.049  -0.156  -0.043
    1UNL     C8   11   0.181  -0.091  -0.061
    1UNL     N1   12   0.298  -0.138  -0.100
    1UNL     C9   13   0.390  -0.044  -0.052
    1UNL    C10   14   0.530  -0.048  -0.060
    1UNL    C11   15   0.611   0.060  -0.008
    1UNL    C12   16   0.545   0.172   0.038
    1UNL    C13   17   0.407   0.186   0.038
    1UNL    C14   18   0.328   0.071  -0.004
    1UNL    C15   19   0.190   0.044  -0.019
    1UNL    C16   20   0.090   0.125   0.053
    1UNL    C17   21  -0.043   0.050   0.076
    1UNL    C18   22  -0.142   0.082  -0.030
    1UNL     N2   23  -0.021  -0.101   0.078
    1UNL    C19   24  -0.158  -0.157   0.118
    1UNL    C20   25  -0.164  -0.304   0.170
    1UNL     H1   26  -0.332   0.222  -0.169
    1UNL     H2   27  -0.191   0.331  -0.165
    1UNL     H3   28  -0.366   0.391  -0.143
    1UNL     H4   29  -0.258   0.124   0.145
    1UNL     H5   30  -0.384  -0.064   0.151
    1UNL     H6   31  -0.579  -0.068   0.020
    1UNL     H7   32  -0.289  -0.232  -0.044
    1UNL     H8   33  -0.239  -0.032  -0.198
    1UNL     H9   34   0.006  -0.085  -0.242
    1UNL    H10   35  -0.081  -0.234  -0.187
    1UNL    H11   36   0.076  -0.264  -0.022
    1UNL    H12   37   0.310  -0.234  -0.139
    1UNL    H13   38   0.581  -0.140  -0.100
    1UNL    H14   39   0.716   0.060  -0.015
    1UNL    H15   40   0.594   0.249   0.088
    1UNL    H16   41   0.366   0.283   0.053
    1UNL    H17   42   0.082   0.218   0.006
    1UNL    H18   43   0.124   0.160   0.152
    1UNL    H19   44  -0.073   0.085   0.175
    1UNL    H20   45  -0.097   0.147  -0.109
    1UNL    H21   46  -0.181  -0.093   0.204
    1UNL    H22   47  -0.077  -0.326   0.230
    1UNL    H23   48  -0.260  -0.314   0.228
    1UNL    H24   49  -0.165  -0.361   0.075
   0.00000   0.00000   0.00000   0.00000   0.00000   0.00000   0.00000   0.00000   0.00000
Generated with MDTraj, t= 20.0
 49
    1UNL     C1    1  -0.312   0.326  -0.142
    1UNL     O1    2  -0.268   0.292  -0.016
    1UNL     C2    3  -0.266   0.152   0.019
    1UNL     O2    4  -0.388   0.083  -0.009
    1UNL     C3    5  -0.383  -0.059   0.044
    1UNL     O3    6  -0.496  -0.138   0.014
    1UNL     C4    7  -0.251  -0.137   0.000
    1UNL     C5    8  -0.178  -0.054  -0.104
    1UNL     C6    9  -0.055  -0.129  -0.152
    1UNL     C7   10   0.044  -0.148  -0.029
    1UNL     C8   11   0.170  -0.073  -0.047
    1UNL     N1   12   0.289  -0.129  -0.093
    1UNL     C9   13   0.389  -0.040  -0.062
    1UNL    C10   14   0.522  -0.055  -0.068
    1UNL    C11   15   0.599   0.050  -0.028
    1UNL    C12   16   0.542   0.165   0.030
    1UNL    C13   17   0.406   0.177   0.044
    1UNL    C14   18   0.329   0.071  -0.002
    1UNL    C15   19   0.191   0.053   0.009
    1UNL    C16   20   0.083   0.126   0.084
    1UNL    C17   21  -0.047   0.040   0.088
    1UNL    C18   22  -0.135   0.074  -0.031
    1UNL     N2   23  -0.021  -0.106   0.098
    1UNL    C19   24  -0.154  -0.172   0.117
    1UNL    C20   25  -0.141  -0.320   0.138
    1UNL     H1   26  -0.410   0.312  -0.159
    1UNL     H2   27  -0.248   0.262  -0.208
    1UNL     H3   28  -0.293   0.429  -0.160
    1UNL     H4   29  -0.257   0.168   0.123
    1UNL     H5   30  -0.376  -0.044   0.155
    1UNL     H6   31  -0.519  -0.120  -0.080
    1UNL     H7   32  -0.285  -0.233  -0.048
    1UNL     H8   33  -0.245  -0.022  -0.189
    1UNL     H9   34   0.005  -0.081  -0.236
    1UNL    H10   35  -0.088  -0.228  -0.179
    1UNL    H11   36   0.077  -0.255  -0.022
    1UNL    H12   37   0.305  -0.227  -0.102
    1UNL    H13   38   0.570  -0.134  -0.124
    1UNL    H14   39   0.708   0.030  -0.010
    1UNL    H15   40   0.612   0.246   0.065
    1UNL    H16   41   0.343   0.259   0.081
    1UNL    H17   42   0.063   0.223   0.037
    1UNL    H18   43   0.131   0.148   0.179
    1UNL    H19   44  -0.100   0.072   0.179
    1UNL    H20   45  -0.088   0.146  -0.104
    1UNL    H21   46  -0.196  -0.127   0.208
    1UNL    H22   47  -0.063  -0.338   0.211
    1UNL    H23   48  -0.237  -0.367   0.171
    1UNL    H24   49  -0.107  -0.365   0.041
   0.00000   0.00000   0.00000   0.00000   0.00000   0.00000   0.00000   0.00000   0.00000
Generated with MDTraj, t= 21.0
 49
    1UNL     C1    1  -0.356   0.274  -0.170
    1UNL     O1    2  -0.276   0.282  -0.056
    1UNL     C2    3  -0.279   0.162   0.023
    1UNL     O2    4  -0.396   0.079  -0.002
    1UNL     C3    5  -0.386  -0.056   0.042
    1UNL     O3    6  -0.515  -0.116   0.018
    1UNL     C4    7  -0.259  -0.127  -0.016
    1UNL     C5    8  -0.167  -0.031  -0.097
    1UNL     C6    9  -0.031  -0.091  -0.152
    1UNL     C7   10   0.043  -0.149  -0.028
    1UNL     C8   11   0.181  -0.095  -0.012
    1UNL     N1   12   0.300  -0.142  -0.071
    1UNL     C9   13   0.399  -0.044  -0.063
    1UNL    C10   14   0.533  -0.034  -0.099
    1UNL    C11   15   0.614   0.073  -0.074
    1UNL    C12   16   0.555   0.177   0.013
    1UNL    C13   17   0.433   0.163   0.064
    1UNL    C14   18   0.344   0.058   0.018
    1UNL    C15   19   0.203   0.024   0.047
    1UNL    C16   20   0.099   0.106   0.115
    1UNL    C17   21  -0.041   0.040   0.110
    1UNL    C18   22  -0.138   0.095  -0.007
    1UNL     N2   23  -0.032  -0.109   0.099
    1UNL    C19   24  -0.170  -0.173   0.106
    1UNL    C20   25  -0.164  -0.320   0.115
    1UNL     H1   26  -0.455   0.299  -0.160
    1UNL     H2   27  -0.334   0.175  -0.212
    1UNL     H3   28  -0.318   0.344  -0.239
    1UNL     H4   29  -0.271   0.191   0.124
    1UNL     H5   30  -0.381  -0.045   0.154
    1UNL     H6   31  -0.581  -0.045  -0.003
    1UNL     H7   32  -0.295  -0.219  -0.071
    1UNL     H8   33  -0.223  -0.002  -0.193
    1UNL     H9   34   0.026  -0.009  -0.206
    1UNL    H10   35  -0.047  -0.176  -0.223
    1UNL    H11   36   0.044  -0.262  -0.038
    1UNL    H12   37   0.307  -0.210  -0.142
    1UNL    H13   38   0.573  -0.112  -0.157
    1UNL    H14   39   0.711   0.077  -0.109
    1UNL    H15   40   0.616   0.259   0.040
    1UNL    H16   41   0.390   0.232   0.137
    1UNL    H17   42   0.112   0.202   0.055
    1UNL    H18   43   0.136   0.131   0.212
    1UNL    H19   44  -0.081   0.058   0.210
    1UNL    H20   45  -0.077   0.166  -0.071
    1UNL    H21   46  -0.218  -0.127   0.191
    1UNL    H22   47  -0.105  -0.350   0.203
    1UNL    H23   48  -0.251  -0.388   0.119
    1UNL    H24   49  -0.101  -0.363   0.035
   0.00000   0.00000   0.00000   0.00000   0.00000   0.00000   0.00000   0.00000   0.00000
Generated with MDTraj, t= 22.0
 49
    1UNL     C1    1  -0.346   0.290  -0.168
    1UNL     O1    2  -0.242   0.284  -0.063
    1UNL     C2    3  -0.244   0.160   0.015
    1UNL     O2    4  -0.369   0.084  -0.002
    1UNL     C3    5  -0.370  -0.046   0.047
    1UNL     O3    6  -0.495  -0.110   0.011
    1UNL     C4    7  -0.253  -0.123  -0.013
    1UNL     C5    8  -0.160  -0.039  -0.104
    1UNL     C6    9  -0.040  -0.129  -0.139
    1UNL     C7   10   0.042  -0.160  -0.010
    1UNL     C8   11   0.172  -0.092  -0.018
    1UNL     N1   12   0.280  -0.129  -0.094
    1UNL     C9   13   0.372  -0.031  -0.061
    1UNL    C10   14   0.508  -0.027  -0.105
    1UNL    C11   15   0.588   0.078  -0.070
    1UNL    C12   16   0.535   0.174   0.013
    1UNL    C13   17   0.405   0.174   0.065
    1UNL    C14   18   0.324   0.071   0.020
    1UNL    C15   19   0.196   0.027   0.056
    1UNL    C16   20   0.092   0.097   0.130
    1UNL    C17   21  -0.045   0.036   0.105
    1UNL    C18   22  -0.118   0.081  -0.020
    1UNL     N2   23  -0.038  -0.112   0.104
    1UNL    C19   24  -0.167  -0.178   0.111
    1UNL    C20   25  -0.153  -0.328   0.112
    1UNL     H1   26  -0.441   0.256  -0.138
    1UNL     H2   27  -0.316   0.243  -0.261
    1UNL     H3   28  -0.359   0.392  -0.196
    1UNL     H4   29  -0.240   0.188   0.118
    1UNL     H5   30  -0.358  -0.037   0.160
    1UNL     H6   31  -0.556  -0.042  -0.025
    1UNL     H7   32  -0.290  -0.216  -0.068
    1UNL     H8   33  -0.223  -0.017  -0.198
    1UNL     H9   34   0.031  -0.078  -0.207
    1UNL    H10   35  -0.086  -0.225  -0.190
    1UNL    H11   36   0.055  -0.273  -0.003
    1UNL    H12   37   0.316  -0.209  -0.138
    1UNL    H13   38   0.546  -0.115  -0.163
    1UNL    H14   39   0.683   0.098  -0.130
    1UNL    H15   40   0.599   0.256   0.044
    1UNL    H16   41   0.364   0.241   0.136
    1UNL    H17   42   0.097   0.212   0.117
    1UNL    H18   43   0.127   0.077   0.229
    1UNL    H19   44  -0.108   0.069   0.188
    1UNL    H20   45  -0.057   0.156  -0.081
    1UNL    H21   46  -0.207  -0.148   0.206
    1UNL    H22   47  -0.074  -0.365   0.184
    1UNL    H23   48  -0.247  -0.373   0.144
    1UNL    H24   49  -0.131  -0.369   0.012
   0.00000   0.00000   0.00000   0.00000   0.00000   0.00000   0.00000   0.00000   0.00000
Generated with MDTraj, t= 23.0
 49
    1UNL     C1    1  -0.280   0.311  -0.159
    1UNL     O1    2  -0.223   0.288  -0.035
    1UNL     C2    3  -0.236   0.156   0.009
    1UNL     O2    4  -0.362   0.096  -0.019
    1UNL     C3    5  -0.376  -0.037   0.037
    1UNL     O3    6  -0.515  -0.100   0.031
    1UNL     C4    7  -0.264  -0.137  -0.005
    1UNL     C5    8  -0.168  -0.077  -0.109
    1UNL     C6    9  -0.044  -0.168  -0.143
    1UNL     C7   10   0.047  -0.173  -0.013
    1UNL     C8   11   0.168  -0.083  -0.032
    1UNL     N1   12   0.285  -0.123  -0.094
    1UNL     C9   13   0.384  -0.026  -0.071
    1UNL    C10   14   0.519  -0.005  -0.109
    1UNL    C11   15   0.586   0.110  -0.061
    1UNL    C12   16   0.525   0.205   0.018
    1UNL    C13   17   0.390   0.186   0.050
    1UNL    C14   18   0.323   0.070   0.016
    1UNL    C15   19   0.183   0.036   0.032
    1UNL    C16   20   0.090   0.087   0.130
    1UNL    C17   21  -0.043   0.018   0.105
    1UNL    C18   22  -0.118   0.056  -0.034
    1UNL     N2   23  -0.032  -0.130   0.110
    1UNL    C19   24  -0.178  -0.180   0.119
    1UNL    C20   25  -0.192  -0.337   0.130
    1UNL     H1   26  -0.365   0.379  -0.151
    1UNL     H2   27  -0.298   0.229  -0.226
    1UNL     H3   28  -0.200   0.375  -0.201
    1UNL     H4   29  -0.234   0.163   0.118
    1UNL     H5   30  -0.370  -0.012   0.147
    1UNL     H6   31  -0.583  -0.031   0.025
    1UNL     H7   32  -0.322  -0.227  -0.045
    1UNL     H8   33  -0.228  -0.048  -0.203
    1UNL     H9   34   0.000  -0.127  -0.236
    1UNL    H10   35  -0.069  -0.284  -0.153
    1UNL    H11   36   0.085  -0.280   0.001
    1UNL    H12   37   0.300  -0.206  -0.142
    1UNL    H13   38   0.561  -0.078  -0.169
    1UNL    H14   39   0.687   0.123  -0.084
    1UNL    H15   40   0.564   0.302   0.038
    1UNL    H16   41   0.351   0.256   0.126
    1UNL    H17   42   0.078   0.197   0.097
    1UNL    H18   43   0.123   0.082   0.232
    1UNL    H19   44  -0.106   0.037   0.191
    1UNL    H20   45  -0.051   0.115  -0.107
    1UNL    H21   46  -0.222  -0.138   0.207
    1UNL    H22   47  -0.128  -0.370   0.216
    1UNL    H23   48  -0.297  -0.351   0.150
    1UNL    H24   49  -0.163  -0.376   0.032
   0.00000   0.00000   0.00000   0.00000   0.00000   0.00000   0.00000   0.00000   0.00000
Generated with MDTraj, t= 24.0
 49
    1UNL     C1    1  -0.236   0.287  -0.186
    1UNL     O1    2  -0.233   0.296  -0.040
    1UNL     C2    3  -0.251   0.164   0.018
    1UNL     O2    4  -0.371   0.083  -0.018
    1UNL     C3    5  -0.379  -0.043   0.045
    1UNL     O3    6  -0.509  -0.097  -0.002
    1UNL     C4    7  -0.261  -0.130  -0.002
    1UNL     C5    8  -0.161  -0.046  -0.094
    1UNL     C6    9  -0.034  -0.116  -0.137
    1UNL     C7   10   0.041  -0.165  -0.011
    1UNL     C8   11   0.179  -0.102  -0.008
    1UNL     N1   12   0.295  -0.136  -0.084
    1UNL     C9   13   0.384  -0.035  -0.061
    1UNL    C10   14   0.504  -0.006  -0.129
    1UNL    C11   15   0.562   0.110  -0.093
    1UNL    C12   16   0.503   0.203  -0.004
    1UNL    C13   17   0.377   0.181   0.048
    1UNL    C14   18   0.321   0.064   0.021
    1UNL    C15   19   0.192   0.017   0.050
    1UNL    C16   20   0.091   0.081   0.144
    1UNL    C17   21  -0.053   0.024   0.123
    1UNL    C18   22  -0.121   0.075  -0.003
    1UNL     N2   23  -0.039  -0.130   0.113
    1UNL    C19   24  -0.177  -0.191   0.115
    1UNL    C20   25  -0.164  -0.346   0.120
    1UNL     H1   26  -0.342   0.311  -0.219
    1UNL     H2   27  -0.213   0.194  -0.232
    1UNL     H3   28  -0.166   0.365  -0.230
    1UNL     H4   29  -0.275   0.183   0.125
    1UNL     H5   30  -0.382  -0.027   0.156
    1UNL     H6   31  -0.581  -0.031   0.003
    1UNL     H7   32  -0.302  -0.216  -0.065
    1UNL     H8   33  -0.220  -0.019  -0.189
    1UNL     H9   34   0.044  -0.056  -0.189
    1UNL    H10   35  -0.074  -0.206  -0.202
    1UNL    H11   36   0.049  -0.278  -0.002
    1UNL    H12   37   0.290  -0.198  -0.159
    1UNL    H13   38   0.550  -0.073  -0.204
    1UNL    H14   39   0.658   0.131  -0.142
    1UNL    H15   40   0.567   0.284   0.036
    1UNL    H16   41   0.328   0.263   0.101
    1UNL    H17   42   0.088   0.194   0.154
    1UNL    H18   43   0.121   0.039   0.242
    1UNL    H19   44  -0.118   0.046   0.206
    1UNL    H20   45  -0.040   0.143  -0.050
    1UNL    H21   46  -0.224  -0.160   0.206
    1UNL    H22   47  -0.100  -0.374   0.208
    1UNL    H23   48  -0.264  -0.385   0.132
    1UNL    H24   49  -0.123  -0.383   0.026
   0.00000   0.00000   0.00000   0.00000   0.00000   0.00000   0.00000   0.00000   0.00000
Generated with MDTraj, t= 25.0
 49
    1UNL     C1    1  -0.263   0.283  -0.174
    1UNL     O1    2  -0.223   0.282  -0.037
    1UNL     C2    3  -0.247   0.159   0.022
    1UNL     O2    4  -0.365   0.090  -0.019
    1UNL     C3    5  -0.369  -0.043   0.025
    1UNL     O3    6  -0.498  -0.094  -0.009
    1UNL     C4    7  -0.252  -0.134  -0.019
    1UNL     C5    8  -0.151  -0.046  -0.097
    1UNL     C6    9  -0.021  -0.118  -0.129
    1UNL     C7   10   0.041  -0.167   0.007
    1UNL     C8   11   0.175  -0.100   0.012
    1UNL     N1   12   0.278  -0.134  -0.072
    1UNL     C9   13   0.366  -0.030  -0.058
    1UNL    C10   14   0.486  -0.002  -0.136
    1UNL    C11   15   0.556   0.106  -0.121
    1UNL    C12   16   0.523   0.201  -0.023
    1UNL    C13   17   0.403   0.184   0.049
    1UNL    C14   18   0.323   0.069   0.030
    1UNL    C15   19   0.196   0.025   0.071
    1UNL    C16   20   0.091   0.091   0.152
    1UNL    C17   21  -0.051   0.023   0.131
    1UNL    C18   22  -0.120   0.072  -0.004
    1UNL     N2   23  -0.041  -0.129   0.129
    1UNL    C19   24  -0.180  -0.194   0.108
    1UNL    C20   25  -0.193  -0.346   0.097
    1UNL     H1   26  -0.291   0.172  -0.199
    1UNL     H2   27  -0.192   0.312  -0.249
    1UNL     H3   28  -0.354   0.355  -0.174
    1UNL     H4   29  -0.269   0.181   0.130
    1UNL     H5   30  -0.374  -0.031   0.138
    1UNL     H6   31  -0.511  -0.092  -0.106
    1UNL     H7   32  -0.281  -0.225  -0.081
    1UNL     H8   33  -0.206  -0.009  -0.190
    1UNL     H9   34   0.044  -0.042  -0.179
    1UNL    H10   35  -0.037  -0.206  -0.201
    1UNL    H11   36   0.050  -0.279   0.021
    1UNL    H12   37   0.268  -0.215  -0.129
    1UNL    H13   38   0.494  -0.074  -0.213
    1UNL    H14   39   0.650   0.126  -0.172
    1UNL    H15   40   0.597   0.274   0.003
    1UNL    H16   41   0.377   0.269   0.109
    1UNL    H17   42   0.085   0.196   0.116
    1UNL    H18   43   0.110   0.090   0.265
    1UNL    H19   44  -0.120   0.037   0.215
    1UNL    H20   45  -0.046   0.146  -0.051
    1UNL    H21   46  -0.238  -0.156   0.190
    1UNL    H22   47  -0.146  -0.393   0.183
    1UNL    H23   48  -0.291  -0.394   0.084
    1UNL    H24   49  -0.140  -0.390   0.013
   0.00000   0.00000   0.00000   0.00000   0.00000   0.00000   0.00000   0.00000   0.00000
Generated with MDTraj, t= 26.0
 49
    1UNL     C1    1  -0.302   0.325  -0.147
    1UNL     O1    2  -0.223   0.285  -0.037
    1UNL     C2    3  -0.226   0.155   0.008
    1UNL     O2    4  -0.345   0.092  -0.032
    1UNL     C3    5  -0.374  -0.032   0.024
    1UNL     O3    6  -0.495  -0.094  -0.023
    1UNL     C4    7  -0.260  -0.132  -0.004
    1UNL     C5    8  -0.152  -0.061  -0.098
    1UNL     C6    9  -0.034  -0.155  -0.131
    1UNL     C7   10   0.046  -0.181  -0.001
    1UNL     C8   11   0.174  -0.107  -0.008
    1UNL     N1   12   0.286  -0.134  -0.089
    1UNL     C9   13   0.379  -0.031  -0.073
    1UNL    C10   14   0.516  -0.003  -0.118
    1UNL    C11   15   0.560   0.121  -0.093
    1UNL    C12   16   0.489   0.215  -0.015
    1UNL    C13   17   0.379   0.176   0.055
    1UNL    C14   18   0.321   0.055   0.026
    1UNL    C15   19   0.195   0.008   0.060
    1UNL    C16   20   0.099   0.085   0.147
    1UNL    C17   21  -0.042   0.016   0.113
    1UNL    C18   22  -0.104   0.063  -0.022
    1UNL     N2   23  -0.043  -0.134   0.112
    1UNL    C19   24  -0.184  -0.175   0.129
    1UNL    C20   25  -0.191  -0.326   0.145
    1UNL     H1   26  -0.227   0.311  -0.238
    1UNL     H2   27  -0.337   0.428  -0.145
    1UNL     H3   28  -0.398   0.260  -0.148
    1UNL     H4   29  -0.245   0.163   0.120
    1UNL     H5   30  -0.397  -0.011   0.133
    1UNL     H6   31  -0.553  -0.022  -0.055
    1UNL     H7   32  -0.298  -0.229  -0.051
    1UNL     H8   33  -0.209  -0.021  -0.190
    1UNL     H9   34   0.033  -0.106  -0.212
    1UNL    H10   35  -0.074  -0.248  -0.177
    1UNL    H11   36   0.070  -0.291   0.007
    1UNL    H12   37   0.292  -0.216  -0.149
    1UNL    H13   38   0.559  -0.075  -0.193
    1UNL    H14   39   0.658   0.151  -0.125
    1UNL    H15   40   0.520   0.321  -0.016
    1UNL    H16   41   0.339   0.248   0.125
    1UNL    H17   42   0.080   0.190   0.122
    1UNL    H18   43   0.126   0.075   0.262
    1UNL    H19   44  -0.110   0.038   0.195
    1UNL    H20   45  -0.022   0.120  -0.078
    1UNL    H21   46  -0.223  -0.117   0.214
    1UNL    H22   47  -0.107  -0.360   0.202
    1UNL    H23   48  -0.283  -0.370   0.185
    1UNL    H24   49  -0.181  -0.375   0.047
   0.00000   0.00000   0.00000   0.00000   0.00000   0.00000   0.00000   0.00000   0.00000
Generated with MDTraj, t= 27.0
 49
    1UNL     C1    1  -0.305   0.340  -0.127
    1UNL     O1    2  -0.197   0.290  -0.048
    1UNL     C2    3  -0.241   0.158   0.001
    1UNL     O2    4  -0.370   0.083  -0.035
    1UNL     C3    5  -0.381  -0.049   0.019
    1UNL     O3    6  -0.506  -0.110  -0.015
    1UNL     C4    7  -0.256  -0.141  -0.006
    1UNL     C5    8  -0.162  -0.061  -0.097
    1UNL     C6    9  -0.039  -0.149  -0.124
    1UNL     C7   10   0.047  -0.171   0.001
    1UNL     C8   11   0.177  -0.100   0.001
    1UNL     N1   12   0.288  -0.132  -0.077
    1UNL     C9   13   0.377  -0.024  -0.070
    1UNL    C10   14   0.506  -0.014  -0.119
    1UNL    C11   15   0.577   0.103  -0.093
    1UNL    C12   16   0.527   0.199  -0.010
    1UNL    C13   17   0.402   0.183   0.047
    1UNL    C14   18   0.318   0.078   0.011
    1UNL    C15   19   0.192   0.023   0.056
    1UNL    C16   20   0.087   0.090   0.138
    1UNL    C17   21  -0.056   0.025   0.111
    1UNL    C18   22  -0.119   0.064  -0.024
    1UNL     N2   23  -0.039  -0.126   0.118
    1UNL    C19   24  -0.175  -0.180   0.123
    1UNL    C20   25  -0.184  -0.338   0.138
    1UNL     H1   26  -0.282   0.450  -0.158
    1UNL     H2   27  -0.405   0.335  -0.083
    1UNL     H3   28  -0.312   0.272  -0.217
    1UNL     H4   29  -0.268   0.179   0.111
    1UNL     H5   30  -0.394  -0.037   0.131
    1UNL     H6   31  -0.563  -0.042  -0.057
    1UNL     H7   32  -0.276  -0.242  -0.053
    1UNL     H8   33  -0.211  -0.034  -0.197
    1UNL     H9   34   0.033  -0.088  -0.196
    1UNL    H10   35  -0.067  -0.237  -0.183
    1UNL    H11   36   0.068  -0.280   0.017
    1UNL    H12   37   0.322  -0.222  -0.119
    1UNL    H13   38   0.552  -0.093  -0.165
    1UNL    H14   39   0.660   0.121  -0.161
    1UNL    H15   40   0.591   0.279   0.020
    1UNL    H16   41   0.376   0.254   0.123
    1UNL    H17   42   0.083   0.199   0.125
    1UNL    H18   43   0.096   0.062   0.252
    1UNL    H19   44  -0.127   0.055   0.190
    1UNL    H20   45  -0.045   0.128  -0.085
    1UNL    H21   46  -0.225  -0.128   0.208
    1UNL    H22   47  -0.152  -0.363   0.236
    1UNL    H23   48  -0.289  -0.360   0.113
    1UNL    H24   49  -0.125  -0.381   0.058
   0.00000   0.00000   0.00000   0.00000   0.00000   0.00000   0.00000   0.00000   0.00000
Generated with MDTraj, t= 28.0
 49
    1UNL     C1    1  -0.370   0.320  -0.126
    1UNL     O1    2  -0.252   0.290  -0.053
    1UNL     C2    3  -0.248   0.161  -0.000
    1UNL     O2    4  -0.368   0.096  -0.029
    1UNL     C3    5  -0.379  -0.038   0.028
    1UNL     O3    6  -0.499  -0.107  -0.010
    1UNL     C4    7  -0.255  -0.133  -0.012
    1UNL     C5    8  -0.151  -0.051  -0.103
    1UNL     C6    9  -0.019  -0.130  -0.136
    1UNL     C7   10   0.045  -0.169  -0.002
    1UNL     C8   11   0.181  -0.107   0.006
    1UNL     N1   12   0.293  -0.146  -0.064
    1UNL     C9   13   0.383  -0.039  -0.061
    1UNL    C10   14   0.509  -0.029  -0.116
    1UNL    C11   15   0.582   0.083  -0.086
    1UNL    C12   16   0.537   0.183  -0.006
    1UNL    C13   17   0.407   0.185   0.048
    1UNL    C14   18   0.331   0.065   0.015
    1UNL    C15   19   0.199   0.027   0.051
    1UNL    C16   20   0.102   0.089   0.136
    1UNL    C17   21  -0.044   0.036   0.108
    1UNL    C18   22  -0.115   0.077  -0.025
    1UNL     N2   23  -0.041  -0.115   0.116
    1UNL    C19   24  -0.182  -0.177   0.114
    1UNL    C20   25  -0.161  -0.336   0.126
    1UNL     H1   26  -0.377   0.433  -0.123
    1UNL     H2   27  -0.467   0.274  -0.094
    1UNL     H3   28  -0.351   0.294  -0.230
    1UNL     H4   29  -0.254   0.176   0.113
    1UNL     H5   30  -0.398  -0.029   0.139
    1UNL     H6   31  -0.567  -0.039  -0.032
    1UNL     H7   32  -0.297  -0.226  -0.062
    1UNL     H8   33  -0.198  -0.019  -0.202
    1UNL     H9   34   0.050  -0.059  -0.199
    1UNL    H10   35  -0.030  -0.216  -0.205
    1UNL    H11   36   0.055  -0.279   0.010
    1UNL    H12   37   0.317  -0.237  -0.115
    1UNL    H13   38   0.550  -0.119  -0.168
    1UNL    H14   39   0.680   0.092  -0.131
    1UNL    H15   40   0.601   0.270   0.013
    1UNL    H16   41   0.374   0.254   0.126
    1UNL    H17   42   0.098   0.198   0.113
    1UNL    H18   43   0.130   0.070   0.246
    1UNL    H19   44  -0.105   0.072   0.194
    1UNL    H20   45  -0.041   0.143  -0.082
    1UNL    H21   46  -0.249  -0.129   0.190
    1UNL    H22   47  -0.092  -0.343   0.206
    1UNL    H23   48  -0.259  -0.385   0.137
    1UNL    H24   49  -0.120  -0.377   0.035
   0.00000   0.00000   0.00000   0.00000   0.00000   0.00000   0.00000   0.00000   0.00000
Generated with MDTraj, t= 29.0
 49
    1UNL     C1    1  -0.376   0.328  -0.106
    1UNL     O1    2  -0.253   0.288  -0.057
    1UNL     C2    3  -0.259   0.157   0.010
    1UNL     O2    4  -0.375   0.082  -0.023
    1UNL     C3    5  -0.383  -0.054   0.030
    1UNL     O3    6  -0.498  -0.128  -0.006
    1UNL     C4    7  -0.252  -0.127  -0.010
    1UNL     C5    8  -0.165  -0.047  -0.112
    1UNL     C6    9  -0.032  -0.121  -0.146
    1UNL     C7   10   0.044  -0.156  -0.018
    1UNL     C8   11   0.176  -0.094  -0.017
    1UNL     N1   12   0.294  -0.140  -0.078
    1UNL     C9   13   0.401  -0.056  -0.047
    1UNL    C10   14   0.534  -0.043  -0.088
    1UNL    C11   15   0.603   0.075  -0.069
    1UNL    C12   16   0.540   0.184   0.001
    1UNL    C13   17   0.414   0.173   0.048
    1UNL    C14   18   0.340   0.051   0.030
    1UNL    C15   19   0.198   0.029   0.041
    1UNL    C16   20   0.085   0.107   0.110
    1UNL    C17   21  -0.051   0.041   0.094
    1UNL    C18   22  -0.131   0.080  -0.030
    1UNL     N2   23  -0.027  -0.110   0.101
    1UNL    C19   24  -0.163  -0.166   0.115
    1UNL    C20   25  -0.171  -0.316   0.139
    1UNL     H1   26  -0.375   0.354  -0.210
    1UNL     H2   27  -0.406   0.424  -0.049
    1UNL     H3   28  -0.445   0.251  -0.089
    1UNL     H4   29  -0.255   0.183   0.121
    1UNL     H5   30  -0.380  -0.047   0.142
    1UNL     H6   31  -0.572  -0.068   0.018
    1UNL     H7   32  -0.272  -0.231  -0.050
    1UNL     H8   33  -0.231  -0.030  -0.203
    1UNL     H9   34   0.040  -0.069  -0.214
    1UNL    H10   35  -0.061  -0.210  -0.206
    1UNL    H11   36   0.060  -0.266  -0.021
    1UNL    H12   37   0.306  -0.229  -0.139
    1UNL    H13   38   0.588  -0.117  -0.147
    1UNL    H14   39   0.712   0.077  -0.092
    1UNL    H15   40   0.594   0.273   0.005
    1UNL    H16   41   0.361   0.250   0.101
    1UNL    H17   42   0.083   0.211   0.064
    1UNL    H18   43   0.108   0.113   0.219
    1UNL    H19   44  -0.115   0.061   0.185
    1UNL    H20   45  -0.069   0.155  -0.090
    1UNL    H21   46  -0.202  -0.104   0.201
    1UNL    H22   47  -0.104  -0.347   0.216
    1UNL    H23   48  -0.275  -0.332   0.168
    1UNL    H24   49  -0.158  -0.385   0.058
   0.00000   0.00000   0.00000   0.00000   0.00000   0.00000   0.00000   0.00000   0.00000
Generated with MDTraj, t= 30.0
 49
    1UNL     C1    1  -0.386   0.333  -0.058
    1UNL     O1    2  -0.261   0.282  -0.057
    1UNL     C2    3  -0.263   0.152  -0.004
    1UNL     O2    4  -0.380   0.073  -0.045
    1UNL     C3    5  -0.380  -0.052   0.031
    1UNL     O3    6  -0.499  -0.118  -0.002
    1UNL     C4    7  -0.255  -0.135  -0.004
    1UNL     C5    8  -0.168  -0.064  -0.104
    1UNL     C6    9  -0.038  -0.144  -0.141
    1UNL     C7   10   0.047  -0.152  -0.016
    1UNL     C8   11   0.178  -0.077  -0.044
    1UNL     N1   12   0.296  -0.127  -0.092
    1UNL     C9   13   0.398  -0.043  -0.060
    1UNL    C10   14   0.534  -0.060  -0.072
    1UNL    C11   15   0.610   0.047  -0.024
    1UNL    C12   16   0.546   0.165   0.031
    1UNL    C13   17   0.415   0.177   0.045
    1UNL    C14   18   0.336   0.071  -0.006
    1UNL    C15   19   0.198   0.045   0.012
    1UNL    C16   20   0.093   0.124   0.079
    1UNL    C17   21  -0.045   0.053   0.095
    1UNL    C18   22  -0.132   0.070  -0.028
    1UNL     N2   23  -0.030  -0.095   0.109
    1UNL    C19   24  -0.164  -0.168   0.126
    1UNL    C20   25  -0.158  -0.319   0.134
    1UNL     H1   26  -0.461   0.264  -0.075
    1UNL     H2   27  -0.387   0.414  -0.139
    1UNL     H3   28  -0.403   0.366   0.039
    1UNL     H4   29  -0.268   0.167   0.107
    1UNL     H5   30  -0.382  -0.035   0.142
    1UNL     H6   31  -0.542  -0.058  -0.066
    1UNL     H7   32  -0.297  -0.230  -0.044
    1UNL     H8   33  -0.229  -0.040  -0.196
    1UNL     H9   34   0.004  -0.082  -0.215
    1UNL    H10   35  -0.041  -0.247  -0.189
    1UNL    H11   36   0.074  -0.253   0.018
    1UNL    H12   37   0.311  -0.229  -0.120
    1UNL    H13   38   0.577  -0.143  -0.118
    1UNL    H14   39   0.714   0.052  -0.032
    1UNL    H15   40   0.611   0.234   0.092
    1UNL    H16   41   0.361   0.268   0.072
    1UNL    H17   42   0.079   0.217   0.009
    1UNL    H18   43   0.137   0.159   0.174
    1UNL    H19   44  -0.100   0.096   0.186
    1UNL    H20   45  -0.069   0.130  -0.100
    1UNL    H21   46  -0.211  -0.111   0.212
    1UNL    H22   47  -0.089  -0.354   0.210
    1UNL    H23   48  -0.254  -0.363   0.150
    1UNL    H24   49  -0.130  -0.368   0.044
   0.00000   0.00000   0.00000   0.00000   0.00000   0.00000   0.00000   0.00000   0.00000
Generated with MDTraj, t= 31.0
 49
    1UNL     C1    1  -0.372   0.369  -0.025
    1UNL     O1    2  -0.295   0.270  -0.086
    1UNL     C2    3  -0.272   0.157  -0.007
    1UNL     O2    4  -0.387   0.071  -0.029
    1UNL     C3    5  -0.378  -0.060   0.039
    1UNL     O3    6  -0.495  -0.134   0.006
    1UNL     C4    7  -0.247  -0.137  -0.007
    1UNL     C5    8  -0.175  -0.055  -0.115
    1UNL     C6    9  -0.040  -0.116  -0.160
    1UNL     C7   10   0.039  -0.159  -0.037
    1UNL     C8   11   0.173  -0.094  -0.041
    1UNL     N1   12   0.291  -0.146  -0.073
    1UNL     C9   13   0.396  -0.053  -0.046
    1UNL    C10   14   0.538  -0.054  -0.061
    1UNL    C11   15   0.613   0.057  -0.021
    1UNL    C12   16   0.555   0.169   0.041
    1UNL    C13   17   0.418   0.168   0.059
    1UNL    C14   18   0.340   0.060   0.012
    1UNL    C15   19   0.199   0.040   0.003
    1UNL    C16   20   0.092   0.125   0.067
    1UNL    C17   21  -0.043   0.050   0.063
    1UNL    C18   22  -0.141   0.085  -0.056
    1UNL     N2   23  -0.025  -0.101   0.083
    1UNL    C19   24  -0.152  -0.167   0.118
    1UNL    C20   25  -0.143  -0.308   0.174
    1UNL     H1   26  -0.459   0.328   0.005
    1UNL     H2   27  -0.390   0.453  -0.097
    1UNL     H3   28  -0.327   0.396   0.064
    1UNL     H4   29  -0.261   0.181   0.100
    1UNL     H5   30  -0.369  -0.041   0.148
    1UNL     H6   31  -0.510  -0.132  -0.092
    1UNL     H7   32  -0.273  -0.234  -0.054
    1UNL     H8   33  -0.241  -0.047  -0.205
    1UNL     H9   34   0.021  -0.055  -0.217
    1UNL    H10   35  -0.067  -0.207  -0.226
    1UNL    H11   36   0.062  -0.265  -0.026
    1UNL    H12   37   0.292  -0.237  -0.125
    1UNL    H13   38   0.588  -0.130  -0.129
    1UNL    H14   39   0.725   0.058  -0.037
    1UNL    H15   40   0.604   0.260   0.058
    1UNL    H16   41   0.357   0.243   0.105
    1UNL    H17   42   0.091   0.223   0.002
    1UNL    H18   43   0.122   0.154   0.168
    1UNL    H19   44  -0.106   0.077   0.154
    1UNL    H20   45  -0.101   0.154  -0.135
    1UNL    H21   46  -0.184  -0.097   0.200
    1UNL    H22   47  -0.058  -0.296   0.245
    1UNL    H23   48  -0.233  -0.340   0.219
    1UNL    H24   49  -0.114  -0.372   0.094
   0.00000   0.00000   0.00000   0.00000   0.00000   0.00000   0.00000   0.00000   0.00000
Generated with MDTraj, t= 32.0
 49
    1UNL     C1    1  -0.400   0.352  -0.021
    1UNL     O1    2  -0.272   0.291  -0.051
    1UNL     C2    3  -0.268   0.153  -0.016
    1UNL     O2    4  -0.388   0.068  -0.031
    1UNL     C3    5  -0.381  -0.062   0.032
    1UNL     O3    6  -0.502  -0.134   0.006
    1UNL     C4    7  -0.256  -0.142  -0.013
    1UNL     C5    8  -0.171  -0.066  -0.121
    1UNL     C6    9  -0.039  -0.143  -0.159
    1UNL     C7   10   0.045  -0.147  -0.026
    1UNL     C8   11   0.185  -0.083  -0.032
    1UNL     N1   12   0.308  -0.142  -0.057
    1UNL     C9   13   0.402  -0.045  -0.045
    1UNL    C10   14   0.536  -0.066  -0.057
    1UNL    C11   15   0.622   0.039  -0.022
    1UNL    C12   16   0.562   0.157   0.031
    1UNL    C13   17   0.429   0.183   0.041
    1UNL    C14   18   0.345   0.080  -0.004
    1UNL    C15   19   0.201   0.044   0.010
    1UNL    C16   20   0.084   0.131   0.052
    1UNL    C17   21  -0.053   0.058   0.069
    1UNL    C18   22  -0.138   0.078  -0.055
    1UNL     N2   23  -0.032  -0.086   0.088
    1UNL    C19   24  -0.162  -0.164   0.113
    1UNL    C20   25  -0.153  -0.312   0.147
    1UNL     H1   26  -0.471   0.284  -0.055
    1UNL     H2   27  -0.418   0.448  -0.075
    1UNL     H3   28  -0.424   0.352   0.080
    1UNL     H4   29  -0.257   0.154   0.092
    1UNL     H5   30  -0.367  -0.036   0.138
    1UNL     H6   31  -0.580  -0.074   0.013
    1UNL     H7   32  -0.298  -0.238  -0.046
    1UNL     H8   33  -0.234  -0.045  -0.212
    1UNL     H9   34   0.010  -0.092  -0.237
    1UNL    H10   35  -0.060  -0.248  -0.192
    1UNL    H11   36   0.063  -0.249   0.004
    1UNL    H12   37   0.317  -0.244  -0.064
    1UNL    H13   38   0.572  -0.159  -0.081
    1UNL    H14   39   0.723   0.033  -0.041
    1UNL    H15   40   0.623   0.242   0.064
    1UNL    H16   41   0.391   0.267   0.097
    1UNL    H17   42   0.076   0.228  -0.010
    1UNL    H18   43   0.116   0.166   0.151
    1UNL    H19   44  -0.108   0.091   0.165
    1UNL    H20   45  -0.085   0.143  -0.127
    1UNL    H21   46  -0.203  -0.112   0.203
    1UNL    H22   47  -0.070  -0.306   0.221
    1UNL    H23   48  -0.246  -0.349   0.181
    1UNL    H24   49  -0.121  -0.358   0.055
   0.00000   0.00000   0.00000   0.00000   0.00000   0.00000   0.00000   0.00000   0.00000
Generated with MDTraj, t= 33.0
 49
    1UNL     C1    1  -0.413   0.337  -0.050
    1UNL     O1    2  -0.283   0.290  -0.038
    1UNL     C2    3  -0.272   0.157   0.008
    1UNL     O2    4  -0.383   0.080  -0.032
    1UNL     C3    5  -0.383  -0.056   0.016
    1UNL     O3    6  -0.495  -0.147  -0.019
    1UNL     C4    7  -0.248  -0.126  -0.012
    1UNL     C5    8  -0.168  -0.044  -0.110
    1UNL     C6    9  -0.039  -0.120  -0.149
    1UNL     C7   10   0.045  -0.159  -0.021
    1UNL     C8   11   0.179  -0.095  -0.025
    1UNL     N1   12   0.296  -0.151  -0.074
    1UNL     C9   13   0.402  -0.063  -0.053
    1UNL    C10   14   0.546  -0.062  -0.054
    1UNL    C11   15   0.613   0.051  -0.016
    1UNL    C12   16   0.549   0.172   0.003
    1UNL    C13   17   0.411   0.172   0.017
    1UNL    C14   18   0.341   0.055  -0.004
    1UNL    C15   19   0.201   0.034   0.012
    1UNL    C16   20   0.101   0.119   0.088
    1UNL    C17   21  -0.035   0.054   0.084
    1UNL    C18   22  -0.134   0.085  -0.038
    1UNL     N2   23  -0.023  -0.093   0.095
    1UNL    C19   24  -0.159  -0.153   0.114
    1UNL    C20   25  -0.149  -0.296   0.152
    1UNL     H1   26  -0.454   0.285  -0.134
    1UNL     H2   27  -0.409   0.443  -0.075
    1UNL     H3   28  -0.478   0.313   0.032
    1UNL     H4   29  -0.268   0.158   0.115
    1UNL     H5   30  -0.378  -0.028   0.122
    1UNL     H6   31  -0.534  -0.125  -0.106
    1UNL     H7   32  -0.278  -0.225  -0.048
    1UNL     H8   33  -0.239  -0.029  -0.195
    1UNL     H9   34   0.016  -0.055  -0.217
    1UNL    H10   35  -0.064  -0.209  -0.199
    1UNL    H11   36   0.053  -0.265  -0.005
    1UNL    H12   37   0.314  -0.247  -0.091
    1UNL    H13   38   0.606  -0.155  -0.047
    1UNL    H14   39   0.725   0.060  -0.012
    1UNL    H15   40   0.605   0.261   0.029
    1UNL    H16   41   0.344   0.254   0.047
    1UNL    H17   42   0.093   0.223   0.051
    1UNL    H18   43   0.133   0.133   0.193
    1UNL    H19   44  -0.090   0.087   0.179
    1UNL    H20   45  -0.091   0.154  -0.110
    1UNL    H21   46  -0.204  -0.096   0.196
    1UNL    H22   47  -0.086  -0.306   0.240
    1UNL    H23   48  -0.248  -0.331   0.172
    1UNL    H24   49  -0.114  -0.359   0.070
   0.00000   0.00000   0.00000   0.00000   0.00000   0.00000   0.00000   0.00000   0.00000
Generated with MDTraj, t= 34.0
 49
    1UNL     C1    1  -0.389   0.320  -0.063
    1UNL     O1    2  -0.265   0.277  -0.028
    1UNL     C2    3  -0.273   0.143   0.015
    1UNL     O2    4  -0.394   0.074  -0.028
    1UNL     C3    5  -0.391  -0.065   0.016
    1UNL     O3    6  -0.501  -0.126  -0.058
    1UNL     C4    7  -0.254  -0.135  -0.013
    1UNL     C5    8  -0.164  -0.050  -0.109
    1UNL     C6    9  -0.033  -0.127  -0.141
    1UNL     C7   10   0.048  -0.146  -0.010
    1UNL     C8   11   0.183  -0.088  -0.018
    1UNL     N1   12   0.302  -0.147  -0.064
    1UNL     C9   13   0.397  -0.058  -0.041
    1UNL    C10   14   0.531  -0.055  -0.086
    1UNL    C11   15   0.604   0.057  -0.076
    1UNL    C12   16   0.560   0.170  -0.003
    1UNL    C13   17   0.432   0.178   0.044
    1UNL    C14   18   0.351   0.058   0.026
    1UNL    C15   19   0.207   0.039   0.037
    1UNL    C16   20   0.096   0.125   0.080
    1UNL    C17   21  -0.042   0.061   0.093
    1UNL    C18   22  -0.129   0.083  -0.036
    1UNL     N2   23  -0.039  -0.089   0.102
    1UNL    C19   24  -0.175  -0.156   0.124
    1UNL    C20   25  -0.158  -0.300   0.161
    1UNL     H1   26  -0.437   0.242  -0.129
    1UNL     H2   27  -0.375   0.410  -0.115
    1UNL     H3   28  -0.457   0.341   0.024
    1UNL     H4   29  -0.282   0.144   0.121
    1UNL     H5   30  -0.416  -0.058   0.121
    1UNL     H6   31  -0.538  -0.078  -0.134
    1UNL     H7   32  -0.276  -0.229  -0.062
    1UNL     H8   33  -0.215  -0.035  -0.208
    1UNL     H9   34   0.032  -0.081  -0.214
    1UNL    H10   35  -0.067  -0.214  -0.181
    1UNL    H11   36   0.068  -0.250   0.006
    1UNL    H12   37   0.310  -0.224  -0.123
    1UNL    H13   38   0.558  -0.145  -0.140
    1UNL    H14   39   0.707   0.055  -0.098
    1UNL    H15   40   0.622   0.255   0.009
    1UNL    H16   41   0.405   0.270   0.088
    1UNL    H17   42   0.080   0.201   0.010
    1UNL    H18   43   0.121   0.181   0.174
    1UNL    H19   44  -0.093   0.099   0.188
    1UNL    H20   45  -0.088   0.152  -0.106
    1UNL    H21   46  -0.229  -0.095   0.195
    1UNL    H22   47  -0.110  -0.330   0.252
    1UNL    H23   48  -0.257  -0.344   0.162
    1UNL    H24   49  -0.113  -0.357   0.079
   0.00000   0.00000   0.00000   0.00000   0.00000   0.00000   0.00000   0.00000   0.00000
Generated with MDTraj, t= 35.0
 49
    1UNL     C1    1  -0.392   0.332  -0.052
    1UNL     O1    2  -0.258   0.286  -0.049
    1UNL     C2    3  -0.266   0.154   0.002
    1UNL     O2    4  -0.365   0.076  -0.064
    1UNL     C3    5  -0.372  -0.057  -0.002
    1UNL     O3    6  -0.481  -0.132  -0.050
    1UNL     C4    7  -0.237  -0.130  -0.013
    1UNL     C5    8  -0.152  -0.047  -0.096
    1UNL     C6    9  -0.024  -0.128  -0.127
    1UNL     C7   10   0.045  -0.167   0.004
    1UNL     C8   11   0.178  -0.100   0.002
    1UNL     N1   12   0.289  -0.147  -0.070
    1UNL     C9   13   0.386  -0.045  -0.066
    1UNL    C10   14   0.524  -0.040  -0.109
    1UNL    C11   15   0.598   0.063  -0.073
    1UNL    C12   16   0.542   0.168   0.002
    1UNL    C13   17   0.407   0.174   0.034
    1UNL    C14   18   0.329   0.068  -0.004
    1UNL    C15   19   0.197   0.029   0.033
    1UNL    C16   20   0.095   0.115   0.108
    1UNL    C17   21  -0.042   0.047   0.113
    1UNL    C18   22  -0.122   0.084  -0.020
    1UNL     N2   23  -0.032  -0.106   0.120
    1UNL    C19   24  -0.173  -0.156   0.124
    1UNL    C20   25  -0.189  -0.302   0.169
    1UNL     H1   26  -0.435   0.330  -0.160
    1UNL     H2   27  -0.395   0.429  -0.010
    1UNL     H3   28  -0.468   0.275   0.016
    1UNL     H4   29  -0.295   0.159   0.106
    1UNL     H5   30  -0.393  -0.025   0.098
    1UNL     H6   31  -0.491  -0.119  -0.147
    1UNL     H7   32  -0.252  -0.228  -0.057
    1UNL     H8   33  -0.200  -0.021  -0.193
    1UNL     H9   34   0.037  -0.057  -0.183
    1UNL    H10   35  -0.037  -0.211  -0.185
    1UNL    H11   36   0.056  -0.272   0.019
    1UNL    H12   37   0.299  -0.229  -0.121
    1UNL    H13   38   0.561  -0.108  -0.181
    1UNL    H14   39   0.702   0.066  -0.111
    1UNL    H15   40   0.613   0.246   0.036
    1UNL    H16   41   0.357   0.268   0.065
    1UNL    H17   42   0.084   0.218   0.098
    1UNL    H18   43   0.128   0.111   0.217
    1UNL    H19   44  -0.094   0.078   0.209
    1UNL    H20   45  -0.064   0.143  -0.084
    1UNL    H21   46  -0.228  -0.094   0.193
    1UNL    H22   47  -0.114  -0.321   0.241
    1UNL    H23   48  -0.289  -0.317   0.213
    1UNL    H24   49  -0.173  -0.369   0.083
   0.00000   0.00000   0.00000   0.00000   0.00000   0.00000   0.00000   0.00000   0.00000
Generated with MDTraj, t= 36.0
 49
    1UNL     C1    1  -0.355   0.369  -0.051
    1UNL     O1    2  -0.239   0.283  -0.063
    1UNL     C2    3  -0.251   0.152  -0.009
    1UNL     O2    4  -0.368   0.086  -0.044
    1UNL     C3    5  -0.389  -0.049   0.007
    1UNL     O3    6  -0.495  -0.112  -0.057
    1UNL     C4    7  -0.260  -0.145  -0.009
    1UNL     C5    8  -0.163  -0.065  -0.101
    1UNL     C6    9  -0.031  -0.151  -0.136
    1UNL     C7   10   0.048  -0.166  -0.004
    1UNL     C8   11   0.179  -0.093  -0.009
    1UNL     N1   12   0.302  -0.143  -0.048
    1UNL     C9   13   0.402  -0.045  -0.041
    1UNL    C10   14   0.523  -0.032  -0.104
    1UNL    C11   15   0.586   0.091  -0.095
    1UNL    C12   16   0.527   0.198  -0.030
    1UNL    C13   17   0.409   0.182   0.042
    1UNL    C14   18   0.341   0.060   0.030
    1UNL    C15   19   0.200   0.027   0.051
    1UNL    C16   20   0.082   0.107   0.112
    1UNL    C17   21  -0.047   0.026   0.106
    1UNL    C18   22  -0.123   0.063  -0.035
    1UNL     N2   23  -0.035  -0.118   0.116
    1UNL    C19   24  -0.179  -0.174   0.129
    1UNL    C20   25  -0.175  -0.323   0.164
    1UNL     H1   26  -0.405   0.392  -0.154
    1UNL     H2   27  -0.320   0.455   0.005
    1UNL     H3   28  -0.434   0.329   0.026
    1UNL     H4   29  -0.260   0.168   0.099
    1UNL     H5   30  -0.424  -0.041   0.108
    1UNL     H6   31  -0.532  -0.054  -0.129
    1UNL     H7   32  -0.294  -0.242  -0.041
    1UNL     H8   33  -0.226  -0.042  -0.190
    1UNL     H9   34   0.027  -0.110  -0.215
    1UNL    H10   35  -0.068  -0.246  -0.170
    1UNL    H11   36   0.062  -0.268   0.023
    1UNL    H12   37   0.312  -0.224  -0.101
    1UNL    H13   38   0.551  -0.124  -0.158
    1UNL    H14   39   0.678   0.107  -0.148
    1UNL    H15   40   0.576   0.290  -0.035
    1UNL    H16   41   0.375   0.270   0.087
    1UNL    H17   42   0.068   0.196   0.061
    1UNL    H18   43   0.102   0.155   0.213
    1UNL    H19   44  -0.114   0.062   0.189
    1UNL    H20   45  -0.060   0.118  -0.097
    1UNL    H21   46  -0.229  -0.123   0.209
    1UNL    H22   47  -0.131  -0.334   0.261
    1UNL    H23   48  -0.281  -0.359   0.165
    1UNL    H24   49  -0.113  -0.376   0.092
   0.00000   0.00000   0.00000   0.00000   0.00000   0.00000   0.00000   0.00000   0.00000
Generated with MDTraj, t= 37.0
 49
    1UNL     C1    1  -0.342   0.358  -0.063
    1UNL     O1    2  -0.219   0.294  -0.058
    1UNL     C2    3  -0.241   0.160  -0.016
    1UNL     O2    4  -0.356   0.085  -0.060
    1UNL     C3    5  -0.372  -0.041   0.007
    1UNL     O3    6  -0.490  -0.116  -0.011
    1UNL     C4    7  -0.252  -0.131  -0.019
    1UNL     C5    8  -0.145  -0.061  -0.108
    1UNL     C6    9  -0.022  -0.162  -0.122
    1UNL     C7   10   0.048  -0.178   0.015
    1UNL     C8   11   0.182  -0.114   0.014
    1UNL     N1   12   0.287  -0.147  -0.065
    1UNL     C9   13   0.376  -0.034  -0.055
    1UNL    C10   14   0.510  -0.029  -0.095
    1UNL    C11   15   0.576   0.089  -0.076
    1UNL    C12   16   0.514   0.204  -0.022
    1UNL    C13   17   0.379   0.196   0.012
    1UNL    C14   18   0.315   0.072   0.007
    1UNL    C15   19   0.196   0.021   0.057
    1UNL    C16   20   0.089   0.096   0.129
    1UNL    C17   21  -0.053   0.037   0.105
    1UNL    C18   22  -0.112   0.074  -0.034
    1UNL     N2   23  -0.042  -0.117   0.112
    1UNL    C19   24  -0.179  -0.182   0.110
    1UNL    C20   25  -0.178  -0.331   0.138
    1UNL     H1   26  -0.398   0.312  -0.154
    1UNL     H2   27  -0.329   0.466  -0.063
    1UNL     H3   28  -0.392   0.334   0.039
    1UNL     H4   29  -0.261   0.168   0.093
    1UNL     H5   30  -0.382  -0.010   0.108
    1UNL     H6   31  -0.566  -0.057  -0.002
    1UNL     H7   32  -0.275  -0.218  -0.077
    1UNL     H8   33  -0.178  -0.040  -0.212
    1UNL     H9   34   0.041  -0.122  -0.191
    1UNL    H10   35  -0.053  -0.261  -0.159
    1UNL    H11   36   0.056  -0.281   0.035
    1UNL    H12   37   0.307  -0.242  -0.090
    1UNL    H13   38   0.559  -0.118  -0.121
    1UNL    H14   39   0.681   0.078  -0.098
    1UNL    H15   40   0.571   0.301  -0.021
    1UNL    H16   41   0.337   0.279   0.072
    1UNL    H17   42   0.099   0.198   0.107
    1UNL    H18   43   0.113   0.103   0.236
    1UNL    H19   44  -0.125   0.065   0.184
    1UNL    H20   45  -0.038   0.126  -0.085
    1UNL    H21   46  -0.222  -0.131   0.193
    1UNL    H22   47  -0.140  -0.363   0.235
    1UNL    H23   48  -0.284  -0.363   0.133
    1UNL    H24   49  -0.123  -0.393   0.067
   0.00000   0.00000   0.00000   0.00000   0.00000   0.00000   0.00000   0.00000   0.00000
Generated with MDTraj, t= 38.0
 49
    1UNL     C1    1  -0.338   0.349  -0.106
    1UNL     O1    2  -0.225   0.264  -0.098
    1UNL     C2    3  -0.238   0.158  -0.004
    1UNL     O2    4  -0.368   0.097  -0.022
    1UNL     C3    5  -0.385  -0.042   0.026
    1UNL     O3    6  -0.514  -0.097  -0.009
    1UNL     C4    7  -0.259  -0.133  -0.015
    1UNL     C5    8  -0.159  -0.062  -0.107
    1UNL     C6    9  -0.035  -0.148  -0.136
    1UNL     C7   10   0.044  -0.178  -0.001
    1UNL     C8   11   0.182  -0.109   0.015
    1UNL     N1   12   0.294  -0.137  -0.057
    1UNL     C9   13   0.393  -0.033  -0.053
    1UNL    C10   14   0.519  -0.014  -0.115
    1UNL    C11   15   0.585   0.106  -0.096
    1UNL    C12   16   0.519   0.209  -0.015
    1UNL    C13   17   0.399   0.188   0.047
    1UNL    C14   18   0.329   0.066   0.029
    1UNL    C15   19   0.206   0.012   0.070
    1UNL    C16   20   0.095   0.088   0.134
    1UNL    C17   21  -0.044   0.023   0.106
    1UNL    C18   22  -0.111   0.062  -0.022
    1UNL     N2   23  -0.042  -0.128   0.115
    1UNL    C19   24  -0.186  -0.181   0.114
    1UNL    C20   25  -0.178  -0.331   0.124
    1UNL     H1   26  -0.422   0.275  -0.097
    1UNL     H2   27  -0.339   0.404  -0.202
    1UNL     H3   28  -0.326   0.417  -0.018
    1UNL     H4   29  -0.236   0.206   0.098
    1UNL     H5   30  -0.406  -0.037   0.130
    1UNL     H6   31  -0.577  -0.028  -0.036
    1UNL     H7   32  -0.299  -0.219  -0.064
    1UNL     H8   33  -0.207  -0.026  -0.201
    1UNL     H9   34   0.025  -0.092  -0.197
    1UNL    H10   35  -0.065  -0.240  -0.187
    1UNL    H11   36   0.055  -0.283   0.016
    1UNL    H12   37   0.286  -0.215  -0.123
    1UNL    H13   38   0.563  -0.107  -0.157
    1UNL    H14   39   0.685   0.124  -0.138
    1UNL    H15   40   0.577   0.293  -0.002
    1UNL    H16   41   0.359   0.265   0.109
    1UNL    H17   42   0.104   0.189   0.097
    1UNL    H18   43   0.119   0.097   0.236
    1UNL    H19   44  -0.118   0.048   0.182
    1UNL    H20   45  -0.043   0.118  -0.078
    1UNL    H21   46  -0.235  -0.134   0.198
    1UNL    H22   47  -0.089  -0.369   0.179
    1UNL    H23   48  -0.267  -0.374   0.167
    1UNL    H24   49  -0.161  -0.375   0.027
   0.00000   0.00000   0.00000   0.00000   0.00000   0.00000   0.00000   0.00000   0.00000
Generated with MDTraj, t= 39.0
 49
    1UNL     C1    1  -0.339   0.341  -0.120
    1UNL     O1    2  -0.221   0.267  -0.114
    1UNL     C2    3  -0.234   0.165  -0.022
    1UNL     O2    4  -0.355   0.092  -0.030
    1UNL     C3    5  -0.370  -0.039   0.045
    1UNL     O3    6  -0.491  -0.102   0.019
    1UNL     C4    7  -0.253  -0.135  -0.006
    1UNL     C5    8  -0.155  -0.059  -0.108
    1UNL     C6    9  -0.038  -0.146  -0.141
    1UNL     C7   10   0.043  -0.169  -0.011
    1UNL     C8   11   0.170  -0.095  -0.016
    1UNL     N1   12   0.283  -0.131  -0.086
    1UNL     C9   13   0.371  -0.024  -0.069
    1UNL    C10   14   0.499  -0.009  -0.122
    1UNL    C11   15   0.574   0.097  -0.077
    1UNL    C12   16   0.525   0.187   0.019
    1UNL    C13   17   0.401   0.169   0.072
    1UNL    C14   18   0.318   0.062   0.029
    1UNL    C15   19   0.189   0.016   0.064
    1UNL    C16   20   0.080   0.087   0.145
    1UNL    C17   21  -0.054   0.025   0.111
    1UNL    C18   22  -0.106   0.068  -0.024
    1UNL     N2   23  -0.036  -0.121   0.113
    1UNL    C19   24  -0.170  -0.179   0.114
    1UNL    C20   25  -0.163  -0.331   0.136
    1UNL     H1   26  -0.406   0.267  -0.160
    1UNL     H2   27  -0.327   0.426  -0.195
    1UNL     H3   28  -0.363   0.370  -0.019
    1UNL     H4   29  -0.239   0.211   0.081
    1UNL     H5   30  -0.366  -0.013   0.146
    1UNL     H6   31  -0.547  -0.045  -0.037
    1UNL     H7   32  -0.294  -0.225  -0.046
    1UNL     H8   33  -0.213  -0.041  -0.200
    1UNL     H9   34   0.026  -0.102  -0.216
    1UNL    H10   35  -0.081  -0.241  -0.173
    1UNL    H11   36   0.066  -0.270   0.012
    1UNL    H12   37   0.301  -0.215  -0.146
    1UNL    H13   38   0.529  -0.074  -0.200
    1UNL    H14   39   0.674   0.103  -0.110
    1UNL    H15   40   0.591   0.274   0.049
    1UNL    H16   41   0.353   0.243   0.135
    1UNL    H17   42   0.085   0.191   0.112
    1UNL    H18   43   0.101   0.089   0.244
    1UNL    H19   44  -0.131   0.042   0.185
    1UNL    H20   45  -0.029   0.125  -0.067
    1UNL    H21   46  -0.219  -0.141   0.203
    1UNL    H22   47  -0.120  -0.352   0.238
    1UNL    H23   48  -0.263  -0.369   0.132
    1UNL    H24   49  -0.088  -0.371   0.069
   0.00000   0.00000   0.00000   0.00000   0.00000   0.00000   0.00000   0.00000   0.00000
Generated with MDTraj, t= 40.0
 49
    1UNL     C1    1  -0.346   0.332  -0.127
    1UNL     O1    2  -0.223   0.273  -0.091
    1UNL     C2    3  -0.243   0.158  -0.008
    1UNL     O2    4  -0.359   0.093  -0.042
    1UNL     C3    5  -0.373  -0.027   0.037
    1UNL     O3    6  -0.493  -0.091   0.039
    1UNL     C4    7  -0.261  -0.127   0.005
    1UNL     C5    8  -0.163  -0.069  -0.101
    1UNL     C6    9  -0.046  -0.165  -0.130
    1UNL     C7   10   0.051  -0.178  -0.009
    1UNL     C8   11   0.172  -0.090  -0.023
    1UNL     N1   12   0.288  -0.123  -0.090
    1UNL     C9   13   0.383  -0.025  -0.065
    1UNL    C10   14   0.513  -0.006  -0.113
    1UNL    C11   15   0.590   0.096  -0.061
    1UNL    C12   16   0.538   0.179   0.036
    1UNL    C13   17   0.405   0.174   0.071
    1UNL    C14   18   0.328   0.073   0.015
    1UNL    C15   19   0.190   0.037   0.037
    1UNL    C16   20   0.088   0.097   0.122
    1UNL    C17   21  -0.051   0.027   0.097
    1UNL    C18   22  -0.118   0.063  -0.031
    1UNL     N2   23  -0.036  -0.126   0.107
    1UNL    C19   24  -0.171  -0.186   0.119
    1UNL    C20   25  -0.188  -0.345   0.128
    1UNL     H1   26  -0.380   0.269  -0.202
    1UNL     H2   27  -0.325   0.431  -0.178
    1UNL     H3   28  -0.407   0.328  -0.043
    1UNL     H4   29  -0.258   0.185   0.100
    1UNL     H5   30  -0.359   0.014   0.132
    1UNL     H6   31  -0.533  -0.102  -0.051
    1UNL     H7   32  -0.311  -0.211  -0.036
    1UNL     H8   33  -0.222  -0.049  -0.192
    1UNL     H9   34   0.004  -0.121  -0.222
    1UNL    H10   35  -0.077  -0.263  -0.152
    1UNL    H11   36   0.084  -0.279  -0.000
    1UNL    H12   37   0.314  -0.207  -0.150
    1UNL    H13   38   0.546  -0.056  -0.206
    1UNL    H14   39   0.692   0.112  -0.105
    1UNL    H15   40   0.592   0.259   0.073
    1UNL    H16   41   0.359   0.257   0.124
    1UNL    H17   42   0.082   0.205   0.107
    1UNL    H18   43   0.126   0.089   0.217
    1UNL    H19   44  -0.118   0.049   0.178
    1UNL    H20   45  -0.056   0.124  -0.091
    1UNL    H21   46  -0.209  -0.148   0.213
    1UNL    H22   47  -0.126  -0.390   0.209
    1UNL    H23   48  -0.292  -0.365   0.151
    1UNL    H24   49  -0.146  -0.396   0.040
   0.00000   0.00000   0.00000   0.00000   0.00000   0.00000   0.00000   0.00000   0.00000
Generated with MDTraj, t= 41.0
 49
    1UNL     C1    1  -0.370   0.340  -0.115
    1UNL     O1    2  -0.247   0.265  -0.111
    1UNL     C2    3  -0.251   0.164  -0.012
    1UNL     O2    4  -0.379   0.099  -0.005
    1UNL     C3    5  -0.370  -0.043   0.049
    1UNL     O3    6  -0.490  -0.099   0.005
    1UNL     C4    7  -0.254  -0.130  -0.004
    1UNL     C5    8  -0.165  -0.049  -0.103
    1UNL     C6    9  -0.043  -0.130  -0.151
    1UNL     C7   10   0.041  -0.162  -0.024
    1UNL     C8   11   0.173  -0.095  -0.026
    1UNL     N1   12   0.295  -0.139  -0.071
    1UNL     C9   13   0.393  -0.048  -0.043
    1UNL    C10   14   0.525  -0.033  -0.087
    1UNL    C11   15   0.596   0.083  -0.058
    1UNL    C12   16   0.532   0.188   0.004
    1UNL    C13   17   0.400   0.188   0.048
    1UNL    C14   18   0.331   0.064   0.025
    1UNL    C15   19   0.193   0.020   0.040
    1UNL    C16   20   0.092   0.094   0.120
    1UNL    C17   21  -0.045   0.021   0.109
    1UNL    C18   22  -0.120   0.072  -0.020
    1UNL     N2   23  -0.033  -0.125   0.107
    1UNL    C19   24  -0.166  -0.180   0.121
    1UNL    C20   25  -0.160  -0.332   0.133
    1UNL     H1   26  -0.441   0.277  -0.152
    1UNL     H2   27  -0.356   0.413  -0.200
    1UNL     H3   28  -0.396   0.373  -0.021
    1UNL     H4   29  -0.257   0.211   0.088
    1UNL     H5   30  -0.375  -0.038   0.155
    1UNL     H6   31  -0.516  -0.068  -0.086
    1UNL     H7   32  -0.301  -0.212  -0.053
    1UNL     H8   33  -0.229  -0.017  -0.187
    1UNL     H9   34   0.025  -0.074  -0.227
    1UNL    H10   35  -0.073  -0.216  -0.203
    1UNL    H11   36   0.054  -0.268  -0.024
    1UNL    H12   37   0.324  -0.208  -0.149
    1UNL    H13   38   0.582  -0.113  -0.134
    1UNL    H14   39   0.695   0.100  -0.087
    1UNL    H15   40   0.590   0.281   0.027
    1UNL    H16   41   0.358   0.268   0.103
    1UNL    H17   42   0.089   0.191   0.073
    1UNL    H18   43   0.123   0.114   0.221
    1UNL    H19   44  -0.104   0.042   0.196
    1UNL    H20   45  -0.057   0.132  -0.081
    1UNL    H21   46  -0.210  -0.132   0.209
    1UNL    H22   47  -0.063  -0.382   0.152
    1UNL    H23   48  -0.228  -0.375   0.204
    1UNL    H24   49  -0.179  -0.378   0.034
   0.00000   0.00000   0.00000   0.00000   0.00000   0.00000   0.00000   0.00000   0.00000
Generated with MDTraj, t= 42.0
 49
    1UNL     C1    1  -0.387   0.346  -0.076
    1UNL     O1    2  -0.257   0.291  -0.048
    1UNL     C2    3  -0.266   0.158  -0.004
    1UNL     O2    4  -0.370   0.077  -0.061
    1UNL     C3    5  -0.373  -0.050   0.016
    1UNL     O3    6  -0.496  -0.125   0.020
    1UNL     C4    7  -0.248  -0.131  -0.017
    1UNL     C5    8  -0.157  -0.054  -0.107
    1UNL     C6    9  -0.024  -0.139  -0.133
    1UNL     C7   10   0.055  -0.162  -0.002
    1UNL     C8   11   0.182  -0.095   0.006
    1UNL     N1   12   0.294  -0.140  -0.062
    1UNL     C9   13   0.389  -0.045  -0.051
    1UNL    C10   14   0.526  -0.046  -0.088
    1UNL    C11   15   0.603   0.059  -0.059
    1UNL    C12   16   0.546   0.173  -0.004
    1UNL    C13   17   0.414   0.180   0.032
    1UNL    C14   18   0.334   0.065   0.015
    1UNL    C15   19   0.194   0.035   0.048
    1UNL    C16   20   0.078   0.122   0.097
    1UNL    C17   21  -0.057   0.042   0.092
    1UNL    C18   22  -0.130   0.082  -0.038
    1UNL     N2   23  -0.032  -0.105   0.105
    1UNL    C19   24  -0.167  -0.170   0.104
    1UNL    C20   25  -0.164  -0.323   0.125
    1UNL     H1   26  -0.459   0.299  -0.020
    1UNL     H2   27  -0.415   0.314  -0.181
    1UNL     H3   28  -0.394   0.445  -0.048
    1UNL     H4   29  -0.286   0.160   0.104
    1UNL     H5   30  -0.360  -0.010   0.116
    1UNL     H6   31  -0.546  -0.100  -0.062
    1UNL     H7   32  -0.275  -0.223  -0.062
    1UNL     H8   33  -0.214  -0.037  -0.201
    1UNL     H9   34   0.043  -0.087  -0.212
    1UNL    H10   35  -0.039  -0.236  -0.179
    1UNL    H11   36   0.075  -0.268   0.009
    1UNL    H12   37   0.316  -0.239  -0.098
    1UNL    H13   38   0.577  -0.132  -0.117
    1UNL    H14   39   0.713   0.055  -0.074
    1UNL    H15   40   0.609   0.258   0.005
    1UNL    H16   41   0.370   0.262   0.095
    1UNL    H17   42   0.070   0.214   0.047
    1UNL    H18   43   0.098   0.149   0.205
    1UNL    H19   44  -0.115   0.077   0.174
    1UNL    H20   45  -0.072   0.143  -0.104
    1UNL    H21   46  -0.218  -0.121   0.189
    1UNL    H22   47  -0.157  -0.358   0.228
    1UNL    H23   48  -0.254  -0.373   0.089
    1UNL    H24   49  -0.070  -0.359   0.078
   0.00000   0.00000   0.00000   0.00000   0.00000   0.00000   0.00000   0.00000   0.00000
Generated with MDTraj, t= 43.0
 49
    1UNL     C1    1  -0.386   0.345  -0.040
    1UNL     O1    2  -0.267   0.271  -0.066
    1UNL     C2    3  -0.265   0.150  -0.000
    1UNL     O2    4  -0.396   0.082  -0.016
    1UNL     C3    5  -0.399  -0.060   0.014
    1UNL     O3    6  -0.499  -0.129  -0.061
    1UNL     C4    7  -0.262  -0.133  -0.010
    1UNL     C5    8  -0.166  -0.056  -0.108
    1UNL     C6    9  -0.039  -0.134  -0.146
    1UNL     C7   10   0.043  -0.159  -0.018
    1UNL     C8   11   0.182  -0.103  -0.018
    1UNL     N1   12   0.308  -0.148  -0.069
    1UNL     C9   13   0.401  -0.047  -0.054
    1UNL    C10   14   0.538  -0.042  -0.073
    1UNL    C11   15   0.608   0.069  -0.054
    1UNL    C12   16   0.548   0.181   0.004
    1UNL    C13   17   0.419   0.179   0.039
    1UNL    C14   18   0.344   0.062   0.010
    1UNL    C15   19   0.208   0.024   0.039
    1UNL    C16   20   0.103   0.119   0.085
    1UNL    C17   21  -0.037   0.047   0.093
    1UNL    C18   22  -0.124   0.075  -0.036
    1UNL     N2   23  -0.031  -0.099   0.102
    1UNL    C19   24  -0.173  -0.153   0.120
    1UNL    C20   25  -0.165  -0.298   0.178
    1UNL     H1   26  -0.387   0.391   0.055
    1UNL     H2   27  -0.472   0.272  -0.038
    1UNL     H3   28  -0.398   0.426  -0.107
    1UNL     H4   29  -0.260   0.177   0.104
    1UNL     H5   30  -0.423  -0.071   0.119
    1UNL     H6   31  -0.486  -0.113  -0.157
    1UNL     H7   32  -0.289  -0.231  -0.043
    1UNL     H8   33  -0.227  -0.024  -0.195
    1UNL     H9   34   0.028  -0.093  -0.229
    1UNL    H10   35  -0.063  -0.236  -0.187
    1UNL    H11   36   0.058  -0.265  -0.005
    1UNL    H12   37   0.318  -0.252  -0.096
    1UNL    H13   38   0.580  -0.141  -0.107
    1UNL    H14   39   0.711   0.076  -0.076
    1UNL    H15   40   0.605   0.271   0.025
    1UNL    H16   41   0.373   0.263   0.077
    1UNL    H17   42   0.100   0.203   0.023
    1UNL    H18   43   0.133   0.152   0.192
    1UNL    H19   44  -0.080   0.085   0.183
    1UNL    H20   45  -0.061   0.129  -0.105
    1UNL    H21   46  -0.221  -0.084   0.193
    1UNL    H22   47  -0.071  -0.326   0.220
    1UNL    H23   48  -0.241  -0.300   0.258
    1UNL    H24   49  -0.180  -0.360   0.086
   0.00000   0.00000   0.00000   0.00000   0.00000   0.00000   0.00000   0.00000   0.00000
Generated with MDTraj, t= 44.0
 49
    1UNL     C1    1  -0.385   0.337  -0.028
    1UNL     O1    2  -0.273   0.267  -0.060
    1UNL     C2    3  -0.263   0.149   0.013
    1UNL     O2    4  -0.383   0.073   0.000
    1UNL     C3    5  -0.382  -0.074   0.001
    1UNL     O3    6  -0.476  -0.134  -0.097
    1UNL     C4    7  -0.244  -0.136  -0.011
    1UNL     C5    8  -0.163  -0.052  -0.108
    1UNL     C6    9  -0.039  -0.134  -0.138
    1UNL     C7   10   0.043  -0.157  -0.008
    1UNL     C8   11   0.174  -0.088  -0.017
    1UNL     N1   12   0.288  -0.144  -0.057
    1UNL     C9   13   0.387  -0.045  -0.058
    1UNL    C10   14   0.527  -0.059  -0.076
    1UNL    C11   15   0.605   0.046  -0.046
    1UNL    C12   16   0.551   0.164   0.008
    1UNL    C13   17   0.417   0.177   0.032
    1UNL    C14   18   0.334   0.074  -0.001
    1UNL    C15   19   0.196   0.042   0.016
    1UNL    C16   20   0.096   0.130   0.084
    1UNL    C17   21  -0.037   0.054   0.083
    1UNL    C18   22  -0.128   0.083  -0.042
    1UNL     N2   23  -0.031  -0.091   0.108
    1UNL    C19   24  -0.167  -0.147   0.124
    1UNL    C20   25  -0.156  -0.290   0.185
    1UNL     H1   26  -0.383   0.373   0.077
    1UNL     H2   27  -0.469   0.268  -0.030
    1UNL     H3   28  -0.402   0.429  -0.086
    1UNL     H4   29  -0.257   0.180   0.115
    1UNL     H5   30  -0.421  -0.094   0.102
    1UNL     H6   31  -0.518  -0.058  -0.139
    1UNL     H7   32  -0.256  -0.236  -0.049
    1UNL     H8   33  -0.230  -0.030  -0.194
    1UNL     H9   34   0.031  -0.100  -0.219
    1UNL    H10   35  -0.075  -0.237  -0.185
    1UNL    H11   36   0.052  -0.261   0.022
    1UNL    H12   37   0.292  -0.244  -0.097
    1UNL    H13   38   0.569  -0.143  -0.122
    1UNL    H14   39   0.715   0.046  -0.063
    1UNL    H15   40   0.618   0.244   0.036
    1UNL    H16   41   0.369   0.274   0.060
    1UNL    H17   42   0.076   0.219   0.029
    1UNL    H18   43   0.130   0.150   0.194
    1UNL    H19   44  -0.087   0.094   0.170
    1UNL    H20   45  -0.086   0.146  -0.120
    1UNL    H21   46  -0.221  -0.073   0.186
    1UNL    H22   47  -0.170  -0.290   0.291
    1UNL    H23   48  -0.245  -0.348   0.151
    1UNL    H24   49  -0.057  -0.334   0.162
   0.00000   0.00000   0.00000   0.00000   0.00000   0.00000   0.00000   0.00000   0.00000
Generated with MDTraj, t= 45.0
 49
    1UNL     C1    1  -0.414   0.340  -0.035
    1UNL     O1    2  -0.284   0.296  -0.020
    1UNL     C2    3  -0.283   0.151  -0.003
    1UNL     O2    4  -0.384   0.066  -0.057
    1UNL     C3    5  -0.383  -0.065   0.003
    1UNL     O3    6  -0.487  -0.152  -0.054
    1UNL     C4    7  -0.248  -0.135  -0.012
    1UNL     C5    8  -0.160  -0.050  -0.107
    1UNL     C6    9  -0.033  -0.129  -0.138
    1UNL     C7   10   0.048  -0.153  -0.012
    1UNL     C8   11   0.187  -0.091  -0.015
    1UNL     N1   12   0.305  -0.153  -0.046
    1UNL     C9   13   0.406  -0.059  -0.040
    1UNL    C10   14   0.542  -0.059  -0.081
    1UNL    C11   15   0.623   0.054  -0.058
    1UNL    C12   16   0.567   0.168  -0.001
    1UNL    C13   17   0.429   0.174   0.022
    1UNL    C14   18   0.348   0.061   0.008
    1UNL    C15   19   0.206   0.036   0.027
    1UNL    C16   20   0.094   0.122   0.072
    1UNL    C17   21  -0.047   0.059   0.094
    1UNL    C18   22  -0.139   0.091  -0.028
    1UNL     N2   23  -0.036  -0.089   0.102
    1UNL    C19   24  -0.177  -0.148   0.126
    1UNL    C20   25  -0.172  -0.289   0.165
    1UNL     H1   26  -0.478   0.312   0.056
    1UNL     H2   27  -0.461   0.286  -0.114
    1UNL     H3   28  -0.428   0.454  -0.046
    1UNL     H4   29  -0.304   0.137   0.100
    1UNL     H5   30  -0.405  -0.056   0.111
    1UNL     H6   31  -0.551  -0.100  -0.107
    1UNL     H7   32  -0.253  -0.231  -0.060
    1UNL     H8   33  -0.214  -0.027  -0.201
    1UNL     H9   34   0.027  -0.077  -0.216
    1UNL    H10   35  -0.047  -0.237  -0.189
    1UNL    H11   36   0.052  -0.260   0.009
    1UNL    H12   37   0.298  -0.249  -0.086
    1UNL    H13   38   0.572  -0.146  -0.141
    1UNL    H14   39   0.725   0.048  -0.083
    1UNL    H15   40   0.626   0.253   0.023
    1UNL    H16   41   0.396   0.265   0.063
    1UNL    H17   42   0.087   0.208   0.002
    1UNL    H18   43   0.129   0.152   0.178
    1UNL    H19   44  -0.089   0.085   0.191
    1UNL    H20   45  -0.086   0.158  -0.097
    1UNL    H21   46  -0.223  -0.074   0.192
    1UNL    H22   47  -0.103  -0.312   0.244
    1UNL    H23   48  -0.271  -0.314   0.209
    1UNL    H24   49  -0.152  -0.357   0.082
   0.00000   0.00000   0.00000   0.00000   0.00000   0.00000   0.00000   0.00000   0.00000
Generated with MDTraj, t= 46.0
 49
    1UNL     C1    1  -0.418   0.330  -0.036
    1UNL     O1    2  -0.285   0.288  -0.036
    1UNL     C2    3  -0.269   0.152   0.004
    1UNL     O2    4  -0.376   0.080  -0.050
    1UNL     C3    5  -0.379  -0.051   0.003
    1UNL     O3    6  -0.489  -0.132  -0.039
    1UNL     C4    7  -0.248  -0.138  -0.017
    1UNL     C5    8  -0.161  -0.051  -0.112
    1UNL     C6    9  -0.036  -0.122  -0.146
    1UNL     C7   10   0.043  -0.149  -0.017
    1UNL     C8   11   0.181  -0.092  -0.011
    1UNL     N1   12   0.299  -0.149  -0.048
    1UNL     C9   13   0.404  -0.058  -0.022
    1UNL    C10   14   0.538  -0.062  -0.074
    1UNL    C11   15   0.611   0.049  -0.051
    1UNL    C12   16   0.553   0.172  -0.011
    1UNL    C13   17   0.414   0.175   0.018
    1UNL    C14   18   0.343   0.058   0.022
    1UNL    C15   19   0.205   0.037   0.035
    1UNL    C16   20   0.095   0.126   0.080
    1UNL    C17   21  -0.043   0.053   0.083
    1UNL    C18   22  -0.131   0.081  -0.041
    1UNL     N2   23  -0.028  -0.093   0.100
    1UNL    C19   24  -0.165  -0.162   0.116
    1UNL    C20   25  -0.150  -0.304   0.160
    1UNL     H1   26  -0.476   0.304   0.065
    1UNL     H2   27  -0.477   0.292  -0.117
    1UNL     H3   28  -0.428   0.445  -0.044
    1UNL     H4   29  -0.276   0.148   0.109
    1UNL     H5   30  -0.392  -0.031   0.111
    1UNL     H6   31  -0.565  -0.074  -0.061
    1UNL     H7   32  -0.277  -0.231  -0.065
    1UNL     H8   33  -0.237  -0.035  -0.192
    1UNL     H9   34   0.031  -0.063  -0.216
    1UNL    H10   35  -0.063  -0.218  -0.206
    1UNL    H11   36   0.055  -0.257  -0.002
    1UNL    H12   37   0.308  -0.245  -0.082
    1UNL    H13   38   0.574  -0.153  -0.123
    1UNL    H14   39   0.715   0.046  -0.088
    1UNL    H15   40   0.612   0.265   0.000
    1UNL    H16   41   0.370   0.265   0.060
    1UNL    H17   42   0.085   0.205  -0.004
    1UNL    H18   43   0.118   0.175   0.180
    1UNL    H19   44  -0.100   0.083   0.171
    1UNL    H20   45  -0.076   0.153  -0.107
    1UNL    H21   46  -0.215  -0.104   0.195
    1UNL    H22   47  -0.120  -0.298   0.265
    1UNL    H23   48  -0.254  -0.342   0.168
    1UNL    H24   49  -0.086  -0.371   0.102
   0.00000   0.00000   0.00000   0.00000   0.00000   0.00000   0.00000   0.00000   0.00000
Generated with MDTraj, t= 47.0
 49
    1UNL     C1    1  -0.360   0.349  -0.032
    1UNL     O1    2  -0.260   0.268  -0.069
    1UNL     C2    3  -0.266   0.151  -0.000
    1UNL     O2    4  -0.388   0.071  -0.019
    1UNL     C3    5  -0.386  -0.066   0.017
    1UNL     O3    6  -0.497  -0.138  -0.041
    1UNL     C4    7  -0.248  -0.140  -0.015
    1UNL     C5    8  -0.161  -0.052  -0.110
    1UNL     C6    9  -0.029  -0.129  -0.143
    1UNL     C7   10   0.049  -0.155  -0.014
    1UNL     C8   11   0.179  -0.092  -0.007
    1UNL     N1   12   0.294  -0.141  -0.064
    1UNL     C9   13   0.391  -0.042  -0.061
    1UNL    C10   14   0.531  -0.050  -0.078
    1UNL    C11   15   0.611   0.051  -0.025
    1UNL    C12   16   0.550   0.177   0.013
    1UNL    C13   17   0.414   0.189   0.017
    1UNL    C14   18   0.332   0.074  -0.003
    1UNL    C15   19   0.199   0.037   0.027
    1UNL    C16   20   0.089   0.125   0.078
    1UNL    C17   21  -0.050   0.050   0.089
    1UNL    C18   22  -0.132   0.079  -0.034
    1UNL     N2   23  -0.031  -0.095   0.103
    1UNL    C19   24  -0.169  -0.165   0.117
    1UNL    C20   25  -0.174  -0.312   0.160
    1UNL     H1   26  -0.336   0.413   0.065
    1UNL     H2   27  -0.454   0.298  -0.019
    1UNL     H3   28  -0.383   0.417  -0.121
    1UNL     H4   29  -0.261   0.180   0.102
    1UNL     H5   30  -0.407  -0.064   0.126
    1UNL     H6   31  -0.512  -0.090  -0.125
    1UNL     H7   32  -0.265  -0.237  -0.060
    1UNL     H8   33  -0.209  -0.023  -0.204
    1UNL     H9   34   0.034  -0.071  -0.224
    1UNL    H10   35  -0.050  -0.228  -0.190
    1UNL    H11   36   0.053  -0.260   0.015
    1UNL    H12   37   0.303  -0.226  -0.116
    1UNL    H13   38   0.559  -0.144  -0.114
    1UNL    H14   39   0.718   0.042  -0.029
    1UNL    H15   40   0.616   0.255   0.032
    1UNL    H16   41   0.378   0.283   0.057
    1UNL    H17   42   0.083   0.220   0.005
    1UNL    H18   43   0.118   0.155   0.182
    1UNL    H19   44  -0.107   0.084   0.178
    1UNL    H20   45  -0.067   0.144  -0.099
    1UNL    H21   46  -0.222  -0.122   0.203
    1UNL    H22   47  -0.088  -0.321   0.231
    1UNL    H23   48  -0.262  -0.331   0.225
    1UNL    H24   49  -0.186  -0.381   0.080
   0.00000   0.00000   0.00000   0.00000   0.00000   0.00000   0.00000   0.00000   0.00000
Generated with MDTraj, t= 48.0
 49
    1UNL     C1    1  -0.368   0.353  -0.041
    1UNL     O1    2  -0.247   0.285  -0.068
    1UNL     C2    3  -0.251   0.151  -0.019
    1UNL     O2    4  -0.374   0.076  -0.060
    1UNL     C3    5  -0.386  -0.042   0.020
    1UNL     O3    6  -0.504  -0.120  -0.007
    1UNL     C4    7  -0.259  -0.138  -0.002
    1UNL     C5    8  -0.169  -0.069  -0.106
    1UNL     C6    9  -0.049  -0.161  -0.140
    1UNL     C7   10   0.046  -0.166  -0.018
    1UNL     C8   11   0.174  -0.095  -0.025
    1UNL     N1   12   0.291  -0.137  -0.083
    1UNL     C9   13   0.392  -0.037  -0.060
    1UNL    C10   14   0.534  -0.033  -0.084
    1UNL    C11   15   0.599   0.081  -0.050
    1UNL    C12   16   0.537   0.184   0.030
    1UNL    C13   17   0.404   0.178   0.060
    1UNL    C14   18   0.334   0.063   0.017
    1UNL    C15   19   0.201   0.024   0.039
    1UNL    C16   20   0.095   0.109   0.094
    1UNL    C17   21  -0.046   0.037   0.084
    1UNL    C18   22  -0.122   0.064  -0.047
    1UNL     N2   23  -0.032  -0.107   0.097
    1UNL    C19   24  -0.167  -0.160   0.126
    1UNL    C20   25  -0.147  -0.302   0.157
    1UNL     H1   26  -0.393   0.344   0.069
    1UNL     H2   27  -0.442   0.306  -0.101
    1UNL     H3   28  -0.375   0.462  -0.076
    1UNL     H4   29  -0.245   0.168   0.086
    1UNL     H5   30  -0.404  -0.010   0.126
    1UNL     H6   31  -0.557  -0.085  -0.082
    1UNL     H7   32  -0.285  -0.235  -0.043
    1UNL     H8   33  -0.220  -0.046  -0.200
    1UNL     H9   34   0.011  -0.119  -0.233
    1UNL    H10   35  -0.088  -0.259  -0.170
    1UNL    H11   36   0.078  -0.270  -0.003
    1UNL    H12   37   0.313  -0.213  -0.140
    1UNL    H13   38   0.583  -0.120  -0.137
    1UNL    H14   39   0.703   0.088  -0.078
    1UNL    H15   40   0.606   0.267   0.061
    1UNL    H16   41   0.353   0.258   0.104
    1UNL    H17   42   0.086   0.207   0.029
    1UNL    H18   43   0.120   0.137   0.199
    1UNL    H19   44  -0.117   0.065   0.166
    1UNL    H20   45  -0.055   0.120  -0.120
    1UNL    H21   46  -0.212  -0.120   0.218
    1UNL    H22   47  -0.097  -0.307   0.258
    1UNL    H23   48  -0.242  -0.355   0.173
    1UNL    H24   49  -0.106  -0.361   0.077
   0.00000   0.00000   0.00000   0.00000   0.00000   0.00000   0.00000   0.00000   0.00000
Generated with MDTraj, t= 49.0
 49
    1UNL     C1    1  -0.372   0.341  -0.099
    1UNL     O1    2  -0.246   0.287  -0.080
    1UNL     C2    3  -0.253   0.161  -0.010
    1UNL     O2    4  -0.372   0.087  -0.043
    1UNL     C3    5  -0.382  -0.045   0.025
    1UNL     O3    6  -0.496  -0.133   0.012
    1UNL     C4    7  -0.255  -0.134  -0.011
    1UNL     C5    8  -0.162  -0.047  -0.102
    1UNL     C6    9  -0.042  -0.143  -0.142
    1UNL     C7   10   0.044  -0.167  -0.016
    1UNL     C8   11   0.176  -0.094  -0.017
    1UNL     N1   12   0.301  -0.134  -0.062
    1UNL     C9   13   0.391  -0.031  -0.058
    1UNL    C10   14   0.523  -0.028  -0.098
    1UNL    C11   15   0.601   0.080  -0.069
    1UNL    C12   16   0.547   0.182   0.008
    1UNL    C13   17   0.417   0.178   0.061
    1UNL    C14   18   0.331   0.067   0.023
    1UNL    C15   19   0.194   0.031   0.043
    1UNL    C16   20   0.090   0.092   0.125
    1UNL    C17   21  -0.047   0.029   0.103
    1UNL    C18   22  -0.123   0.077  -0.032
    1UNL     N2   23  -0.033  -0.117   0.102
    1UNL    C19   24  -0.171  -0.173   0.115
    1UNL    C20   25  -0.176  -0.322   0.128
    1UNL     H1   26  -0.424   0.348  -0.005
    1UNL     H2   27  -0.421   0.278  -0.173
    1UNL     H3   28  -0.366   0.437  -0.155
    1UNL     H4   29  -0.246   0.184   0.096
    1UNL     H5   30  -0.387  -0.005   0.131
    1UNL     H6   31  -0.576  -0.081   0.033
    1UNL     H7   32  -0.286  -0.218  -0.073
    1UNL     H8   33  -0.220  -0.027  -0.193
    1UNL     H9   34   0.024  -0.080  -0.216
    1UNL    H10   35  -0.073  -0.236  -0.192
    1UNL    H11   36   0.058  -0.276  -0.008
    1UNL    H12   37   0.330  -0.224  -0.083
    1UNL    H13   38   0.554  -0.108  -0.157
    1UNL    H14   39   0.706   0.079  -0.102
    1UNL    H15   40   0.607   0.261   0.040
    1UNL    H16   41   0.384   0.274   0.110
    1UNL    H17   42   0.087   0.203   0.097
    1UNL    H18   43   0.120   0.091   0.236
    1UNL    H19   44  -0.110   0.052   0.195
    1UNL    H20   45  -0.049   0.142  -0.090
    1UNL    H21   46  -0.214  -0.132   0.209
    1UNL    H22   47  -0.110  -0.355   0.212
    1UNL    H23   48  -0.272  -0.362   0.162
    1UNL    H24   49  -0.173  -0.380   0.036
   0.00000   0.00000   0.00000   0.00000   0.00000   0.00000   0.00000   0.00000   0.00000
Generated with MDTraj, t= 50.0
 49
    1UNL     C1    1  -0.361   0.307  -0.132
    1UNL     O1    2  -0.236   0.279  -0.086
    1UNL     C2    3  -0.243   0.165   0.003
    1UNL     O2    4  -0.374   0.094  -0.013
    1UNL     C3    5  -0.378  -0.037   0.044
    1UNL     O3    6  -0.496  -0.101   0.000
    1UNL     C4    7  -0.256  -0.127  -0.010
    1UNL     C5    8  -0.159  -0.040  -0.099
    1UNL     C6    9  -0.026  -0.123  -0.140
    1UNL     C7   10   0.048  -0.163  -0.014
    1UNL     C8   11   0.180  -0.098   0.003
    1UNL     N1   12   0.294  -0.148  -0.055
    1UNL     C9   13   0.384  -0.040  -0.052
    1UNL    C10   14   0.511  -0.031  -0.103
    1UNL    C11   15   0.582   0.084  -0.074
    1UNL    C12   16   0.535   0.191   0.003
    1UNL    C13   17   0.405   0.186   0.048
    1UNL    C14   18   0.330   0.070   0.020
    1UNL    C15   19   0.196   0.027   0.052
    1UNL    C16   20   0.085   0.099   0.121
    1UNL    C17   21  -0.052   0.030   0.115
    1UNL    C18   22  -0.122   0.079  -0.018
    1UNL     N2   23  -0.035  -0.124   0.105
    1UNL    C19   24  -0.171  -0.188   0.106
    1UNL    C20   25  -0.162  -0.346   0.098
    1UNL     H1   26  -0.410   0.356  -0.055
    1UNL     H2   27  -0.410   0.215  -0.170
    1UNL     H3   28  -0.346   0.367  -0.220
    1UNL     H4   29  -0.252   0.209   0.105
    1UNL     H5   30  -0.376  -0.032   0.158
    1UNL     H6   31  -0.564  -0.032  -0.019
    1UNL     H7   32  -0.298  -0.214  -0.060
    1UNL     H8   33  -0.209  -0.003  -0.188
    1UNL     H9   34   0.043  -0.063  -0.203
    1UNL    H10   35  -0.056  -0.215  -0.196
    1UNL    H11   36   0.056  -0.274  -0.017
    1UNL    H12   37   0.312  -0.235  -0.095
    1UNL    H13   38   0.562  -0.103  -0.169
    1UNL    H14   39   0.680   0.090  -0.111
    1UNL    H15   40   0.608   0.269   0.030
    1UNL    H16   41   0.366   0.253   0.115
    1UNL    H17   42   0.073   0.204   0.090
    1UNL    H18   43   0.117   0.112   0.233
    1UNL    H19   44  -0.097   0.042   0.219
    1UNL    H20   45  -0.050   0.138  -0.087
    1UNL    H21   46  -0.218  -0.174   0.207
    1UNL    H22   47  -0.099  -0.381   0.182
    1UNL    H23   48  -0.256  -0.396   0.118
    1UNL    H24   49  -0.143  -0.389  -0.002
   0.00000   0.00000   0.00000   0.00000   0.00000   0.00000   0.00000   0.00000   0.00000
Generated with MDTraj, t= 51.0
 49
    1UNL     C1    1  -0.332   0.312  -0.156
    1UNL     O1    2  -0.232   0.286  -0.057
    1UNL     C2    3  -0.243   0.157   0.008
    1UNL     O2    4  -0.363   0.091  -0.046
    1UNL     C3    5  -0.365  -0.033   0.030
    1UNL     O3    6  -0.496  -0.090   0.029
    1UNL     C4    7  -0.253  -0.137  -0.009
    1UNL     C5    8  -0.165  -0.058  -0.103
    1UNL     C6    9  -0.038  -0.135  -0.146
    1UNL     C7   10   0.039  -0.171  -0.018
    1UNL     C8   11   0.176  -0.103  -0.010
    1UNL     N1   12   0.286  -0.123  -0.094
    1UNL     C9   13   0.390  -0.036  -0.057
    1UNL    C10   14   0.521  -0.018  -0.103
    1UNL    C11   15   0.584   0.097  -0.062
    1UNL    C12   16   0.513   0.195   0.008
    1UNL    C13   17   0.388   0.186   0.050
    1UNL    C14   18   0.328   0.063   0.027
    1UNL    C15   19   0.198   0.015   0.060
    1UNL    C16   20   0.089   0.084   0.132
    1UNL    C17   21  -0.050   0.021   0.111
    1UNL    C18   22  -0.118   0.064  -0.024
    1UNL     N2   23  -0.038  -0.126   0.108
    1UNL    C19   24  -0.173  -0.182   0.117
    1UNL    C20   25  -0.170  -0.335   0.127
    1UNL     H1   26  -0.420   0.281  -0.119
    1UNL     H2   27  -0.307   0.268  -0.254
    1UNL     H3   28  -0.324   0.416  -0.166
    1UNL     H4   29  -0.261   0.173   0.119
    1UNL     H5   30  -0.349  -0.001   0.138
    1UNL     H6   31  -0.557  -0.014   0.009
    1UNL     H7   32  -0.304  -0.213  -0.069
    1UNL     H8   33  -0.219  -0.019  -0.188
    1UNL     H9   34   0.035  -0.079  -0.197
    1UNL    H10   35  -0.068  -0.228  -0.203
    1UNL    H11   36   0.058  -0.280  -0.010
    1UNL    H12   37   0.272  -0.178  -0.175
    1UNL    H13   38   0.566  -0.091  -0.168
    1UNL    H14   39   0.686   0.127  -0.099
    1UNL    H15   40   0.561   0.285   0.034
    1UNL    H16   41   0.345   0.254   0.128
    1UNL    H17   42   0.085   0.189   0.106
    1UNL    H18   43   0.118   0.087   0.246
    1UNL    H19   44  -0.109   0.054   0.202
    1UNL    H20   45  -0.046   0.120  -0.093
    1UNL    H21   46  -0.214  -0.137   0.212
    1UNL    H22   47  -0.140  -0.359   0.229
    1UNL    H23   48  -0.271  -0.371   0.117
    1UNL    H24   49  -0.123  -0.389   0.040
   0.00000   0.00000   0.00000   0.00000   0.00000   0.00000   0.00000   0.00000   0.00000
Generated with MDTraj, t= 52.0
 49
    1UNL     C1    1  -0.272   0.288  -0.176
    1UNL     O1    2  -0.221   0.287  -0.048
    1UNL     C2    3  -0.248   0.160   0.012
    1UNL     O2    4  -0.370   0.092  -0.014
    1UNL     C3    5  -0.378  -0.043   0.048
    1UNL     O3    6  -0.500  -0.108   0.000
    1UNL     C4    7  -0.263  -0.131   0.002
    1UNL     C5    8  -0.167  -0.059  -0.098
    1UNL     C6    9  -0.043  -0.151  -0.135
    1UNL     C7   10   0.038  -0.171  -0.009
    1UNL     C8   11   0.171  -0.094  -0.023
    1UNL     N1   12   0.284  -0.121  -0.095
    1UNL     C9   13   0.379  -0.020  -0.072
    1UNL    C10   14   0.512   0.003  -0.125
    1UNL    C11   15   0.590   0.098  -0.065
    1UNL    C12   16   0.534   0.194   0.021
    1UNL    C13   17   0.405   0.181   0.060
    1UNL    C14   18   0.325   0.066   0.026
    1UNL    C15   19   0.189   0.024   0.051
    1UNL    C16   20   0.079   0.092   0.125
    1UNL    C17   21  -0.057   0.027   0.111
    1UNL    C18   22  -0.124   0.069  -0.024
    1UNL     N2   23  -0.039  -0.119   0.111
    1UNL    C19   24  -0.179  -0.182   0.121
    1UNL    C20   25  -0.183  -0.336   0.116
    1UNL     H1   26  -0.372   0.288  -0.164
    1UNL     H2   27  -0.241   0.200  -0.238
    1UNL     H3   28  -0.230   0.377  -0.213
    1UNL     H4   29  -0.235   0.172   0.125
    1UNL     H5   30  -0.371  -0.031   0.162
    1UNL     H6   31  -0.574  -0.045   0.011
    1UNL     H7   32  -0.302  -0.217  -0.054
    1UNL     H8   33  -0.220  -0.031  -0.187
    1UNL     H9   34   0.018  -0.103  -0.203
    1UNL    H10   35  -0.066  -0.255  -0.175
    1UNL    H11   36   0.066  -0.277   0.013
    1UNL    H12   37   0.287  -0.202  -0.157
    1UNL    H13   38   0.554  -0.057  -0.200
    1UNL    H14   39   0.685   0.116  -0.097
    1UNL    H15   40   0.588   0.282   0.058
    1UNL    H16   41   0.357   0.245   0.128
    1UNL    H17   42   0.078   0.195   0.092
    1UNL    H18   43   0.104   0.101   0.239
    1UNL    H19   44  -0.122   0.060   0.196
    1UNL    H20   45  -0.050   0.125  -0.091
    1UNL    H21   46  -0.207  -0.150   0.225
    1UNL    H22   47  -0.111  -0.374   0.187
    1UNL    H23   48  -0.278  -0.383   0.138
    1UNL    H24   49  -0.172  -0.371   0.009
   0.00000   0.00000   0.00000   0.00000   0.00000   0.00000   0.00000   0.00000   0.00000
Generated with MDTraj, t= 53.0
 49
    1UNL     C1    1  -0.249   0.263  -0.188
    1UNL     O1    2  -0.248   0.289  -0.051
    1UNL     C2    3  -0.250   0.162   0.017
    1UNL     O2    4  -0.374   0.095  -0.008
    1UNL     C3    5  -0.381  -0.042   0.040
    1UNL     O3    6  -0.499  -0.117   0.000
    1UNL     C4    7  -0.263  -0.130  -0.011
    1UNL     C5    8  -0.170  -0.039  -0.098
    1UNL     C6    9  -0.040  -0.111  -0.142
    1UNL     C7   10   0.035  -0.159  -0.012
    1UNL     C8   11   0.169  -0.087  -0.013
    1UNL     N1   12   0.284  -0.127  -0.077
    1UNL     C9   13   0.374  -0.026  -0.074
    1UNL    C10   14   0.500  -0.014  -0.124
    1UNL    C11   15   0.576   0.096  -0.082
    1UNL    C12   16   0.532   0.185   0.018
    1UNL    C13   17   0.403   0.182   0.057
    1UNL    C14   18   0.324   0.073   0.016
    1UNL    C15   19   0.195   0.027   0.054
    1UNL    C16   20   0.096   0.078   0.152
    1UNL    C17   21  -0.049   0.026   0.121
    1UNL    C18   22  -0.121   0.082  -0.011
    1UNL     N2   23  -0.046  -0.124   0.106
    1UNL    C19   24  -0.177  -0.185   0.110
    1UNL    C20   25  -0.165  -0.336   0.125
    1UNL     H1   26  -0.297   0.171  -0.198
    1UNL     H2   27  -0.143   0.249  -0.228
    1UNL     H3   28  -0.293   0.346  -0.236
    1UNL     H4   29  -0.241   0.180   0.132
    1UNL     H5   30  -0.373  -0.035   0.154
    1UNL     H6   31  -0.534  -0.078  -0.082
    1UNL     H7   32  -0.320  -0.214  -0.054
    1UNL     H8   33  -0.231  -0.006  -0.179
    1UNL     H9   34   0.025  -0.047  -0.193
    1UNL    H10   35  -0.062  -0.192  -0.215
    1UNL    H11   36   0.052  -0.270  -0.022
    1UNL    H12   37   0.294  -0.217  -0.130
    1UNL    H13   38   0.542  -0.080  -0.202
    1UNL    H14   39   0.680   0.117  -0.122
    1UNL    H15   40   0.603   0.258   0.052
    1UNL    H16   41   0.354   0.262   0.110
    1UNL    H17   42   0.097   0.188   0.161
    1UNL    H18   43   0.137   0.042   0.249
    1UNL    H19   44  -0.126   0.051   0.197
    1UNL    H20   45  -0.052   0.137  -0.083
    1UNL    H21   46  -0.218  -0.149   0.208
    1UNL    H22   47  -0.093  -0.348   0.202
    1UNL    H23   48  -0.254  -0.393   0.156
    1UNL    H24   49  -0.139  -0.389   0.030
   0.00000   0.00000   0.00000   0.00000   0.00000   0.00000   0.00000   0.00000   0.00000
Generated with MDTraj, t= 54.0
 49
    1UNL     C1    1  -0.296   0.302  -0.157
    1UNL     O1    2  -0.241   0.294  -0.034
    1UNL     C2    3  -0.249   0.158   0.013
    1UNL     O2    4  -0.366   0.089  -0.035
    1UNL     C3    5  -0.379  -0.045   0.023
    1UNL     O3    6  -0.512  -0.095   0.020
    1UNL     C4    7  -0.257  -0.138  -0.009
    1UNL     C5    8  -0.163  -0.056  -0.105
    1UNL     C6    9  -0.042  -0.143  -0.145
    1UNL     C7   10   0.036  -0.169  -0.009
    1UNL     C8   11   0.175  -0.102  -0.004
    1UNL     N1   12   0.296  -0.139  -0.066
    1UNL     C9   13   0.387  -0.033  -0.057
    1UNL    C10   14   0.516  -0.015  -0.111
    1UNL    C11   15   0.580   0.108  -0.093
    1UNL    C12   16   0.526   0.201  -0.002
    1UNL    C13   17   0.406   0.181   0.066
    1UNL    C14   18   0.331   0.064   0.028
    1UNL    C15   19   0.194   0.021   0.055
    1UNL    C16   20   0.088   0.087   0.137
    1UNL    C17   21  -0.052   0.032   0.104
    1UNL    C18   22  -0.120   0.075  -0.029
    1UNL     N2   23  -0.042  -0.114   0.105
    1UNL    C19   24  -0.176  -0.180   0.114
    1UNL    C20   25  -0.168  -0.339   0.117
    1UNL     H1   26  -0.403   0.290  -0.140
    1UNL     H2   27  -0.269   0.207  -0.214
    1UNL     H3   28  -0.259   0.394  -0.203
    1UNL     H4   29  -0.253   0.165   0.130
    1UNL     H5   30  -0.355  -0.011   0.130
    1UNL     H6   31  -0.553  -0.077  -0.066
    1UNL     H7   32  -0.293  -0.224  -0.067
    1UNL     H8   33  -0.215  -0.021  -0.192
    1UNL     H9   34   0.017  -0.094  -0.219
    1UNL    H10   35  -0.075  -0.232  -0.189
    1UNL    H11   36   0.051  -0.280  -0.003
    1UNL    H12   37   0.308  -0.205  -0.149
    1UNL    H13   38   0.561  -0.079  -0.181
    1UNL    H14   39   0.673   0.124  -0.140
    1UNL    H15   40   0.576   0.292   0.029
    1UNL    H16   41   0.359   0.259   0.128
    1UNL    H17   42   0.110   0.197   0.125
    1UNL    H18   43   0.110   0.071   0.238
    1UNL    H19   44  -0.126   0.059   0.181
    1UNL    H20   45  -0.049   0.137  -0.094
    1UNL    H21   46  -0.219  -0.134   0.206
    1UNL    H22   47  -0.142  -0.373   0.215
    1UNL    H23   48  -0.258  -0.393   0.081
    1UNL    H24   49  -0.101  -0.374   0.038
   0.00000   0.00000   0.00000   0.00000   0.00000   0.00000   0.00000   0.00000   0.00000
Generated with MDTraj, t= 55.0
 49
    1UNL     C1    1  -0.336   0.325  -0.125
    1UNL     O1    2  -0.223   0.284  -0.059
    1UNL     C2    3  -0.235   0.159   0.005
    1UNL     O2    4  -0.361   0.086  -0.027
    1UNL     C3    5  -0.376  -0.042   0.037
    1UNL     O3    6  -0.483  -0.114  -0.019
    1UNL     C4    7  -0.251  -0.131  -0.005
    1UNL     C5    8  -0.157  -0.050  -0.099
    1UNL     C6    9  -0.042  -0.139  -0.133
    1UNL     C7   10   0.044  -0.168  -0.006
    1UNL     C8   11   0.176  -0.100  -0.011
    1UNL     N1   12   0.288  -0.138  -0.089
    1UNL     C9   13   0.384  -0.039  -0.067
    1UNL    C10   14   0.521  -0.025  -0.096
    1UNL    C11   15   0.584   0.095  -0.062
    1UNL    C12   16   0.515   0.204  -0.004
    1UNL    C13   17   0.385   0.188   0.042
    1UNL    C14   18   0.326   0.064   0.011
    1UNL    C15   19   0.193   0.026   0.048
    1UNL    C16   20   0.089   0.096   0.128
    1UNL    C17   21  -0.052   0.028   0.115
    1UNL    C18   22  -0.111   0.073  -0.020
    1UNL     N2   23  -0.041  -0.126   0.114
    1UNL    C19   24  -0.177  -0.178   0.117
    1UNL    C20   25  -0.186  -0.334   0.124
    1UNL     H1   26  -0.424   0.308  -0.057
    1UNL     H2   27  -0.350   0.244  -0.201
    1UNL     H3   28  -0.323   0.430  -0.163
    1UNL     H4   29  -0.238   0.183   0.120
    1UNL     H5   30  -0.383  -0.037   0.151
    1UNL     H6   31  -0.569  -0.067  -0.027
    1UNL     H7   32  -0.301  -0.212  -0.061
    1UNL     H8   33  -0.206  -0.015  -0.187
    1UNL     H9   34   0.020  -0.088  -0.206
    1UNL    H10   35  -0.081  -0.222  -0.175
    1UNL    H11   36   0.070  -0.276   0.009
    1UNL    H12   37   0.325  -0.234  -0.123
    1UNL    H13   38   0.576  -0.107  -0.144
    1UNL    H14   39   0.691   0.106  -0.080
    1UNL    H15   40   0.568   0.294   0.025
    1UNL    H16   41   0.334   0.251   0.107
    1UNL    H17   42   0.089   0.205   0.097
    1UNL    H18   43   0.135   0.103   0.220
    1UNL    H19   44  -0.121   0.065   0.192
    1UNL    H20   45  -0.028   0.130  -0.077
    1UNL    H21   46  -0.236  -0.132   0.198
    1UNL    H22   47  -0.095  -0.373   0.167
    1UNL    H23   48  -0.278  -0.380   0.168
    1UNL    H24   49  -0.195  -0.364   0.021
   0.00000   0.00000   0.00000   0.00000   0.00000   0.00000   0.00000   0.00000   0.00000
Generated with MDTraj, t= 56.0
 49
    1UNL     C1    1  -0.368   0.341  -0.084
    1UNL     O1    2  -0.240   0.280  -0.068
    1UNL     C2    3  -0.250   0.153  -0.006
    1UNL     O2    4  -0.369   0.087  -0.046
    1UNL     C3    5  -0.380  -0.044   0.013
    1UNL     O3    6  -0.500  -0.104  -0.014
    1UNL     C4    7  -0.255  -0.145  -0.009
    1UNL     C5    8  -0.160  -0.066  -0.104
    1UNL     C6    9  -0.026  -0.133  -0.141
    1UNL     C7   10   0.043  -0.167  -0.004
    1UNL     C8   11   0.176  -0.092  -0.005
    1UNL     N1   12   0.290  -0.130  -0.077
    1UNL     C9   13   0.391  -0.038  -0.053
    1UNL    C10   14   0.520  -0.025  -0.107
    1UNL    C11   15   0.598   0.084  -0.074
    1UNL    C12   16   0.545   0.192   0.002
    1UNL    C13   17   0.416   0.181   0.043
    1UNL    C14   18   0.334   0.067   0.027
    1UNL    C15   19   0.195   0.028   0.054
    1UNL    C16   20   0.089   0.110   0.118
    1UNL    C17   21  -0.047   0.032   0.105
    1UNL    C18   22  -0.126   0.066  -0.024
    1UNL     N2   23  -0.038  -0.122   0.111
    1UNL    C19   24  -0.174  -0.181   0.120
    1UNL    C20   25  -0.180  -0.339   0.144
    1UNL     H1   26  -0.417   0.363   0.020
    1UNL     H2   27  -0.427   0.257  -0.124
    1UNL     H3   28  -0.364   0.435  -0.147
    1UNL     H4   29  -0.260   0.180   0.109
    1UNL     H5   30  -0.371  -0.018   0.123
    1UNL     H6   31  -0.533  -0.048  -0.090
    1UNL     H7   32  -0.288  -0.242  -0.051
    1UNL     H8   33  -0.220  -0.041  -0.189
    1UNL     H9   34   0.033  -0.057  -0.189
    1UNL    H10   35  -0.041  -0.211  -0.207
    1UNL    H11   36   0.063  -0.276   0.014
    1UNL    H12   37   0.302  -0.222  -0.133
    1UNL    H13   38   0.552  -0.107  -0.167
    1UNL    H14   39   0.699   0.095  -0.117
    1UNL    H15   40   0.605   0.277   0.028
    1UNL    H16   41   0.376   0.246   0.125
    1UNL    H17   42   0.100   0.208   0.068
    1UNL    H18   43   0.110   0.130   0.217
    1UNL    H19   44  -0.108   0.048   0.196
    1UNL    H20   45  -0.059   0.132  -0.089
    1UNL    H21   46  -0.220  -0.131   0.206
    1UNL    H22   47  -0.150  -0.369   0.245
    1UNL    H23   48  -0.272  -0.396   0.114
    1UNL    H24   49  -0.116  -0.386   0.074
   0.00000   0.00000   0.00000   0.00000   0.00000   0.00000   0.00000   0.00000   0.00000
Generated with MDTraj, t= 57.0
 49
    1UNL     C1    1  -0.369   0.363  -0.032
    1UNL     O1    2  -0.262   0.289  -0.082
    1UNL     C2    3  -0.261   0.157  -0.030
    1UNL     O2    4  -0.372   0.071  -0.053
    1UNL     C3    5  -0.375  -0.049   0.017
    1UNL     O3    6  -0.492  -0.128  -0.011
    1UNL     C4    7  -0.249  -0.134  -0.010
    1UNL     C5    8  -0.157  -0.053  -0.111
    1UNL     C6    9  -0.024  -0.129  -0.139
    1UNL     C7   10   0.046  -0.166  -0.004
    1UNL     C8   11   0.186  -0.104  -0.006
    1UNL     N1   12   0.304  -0.152  -0.063
    1UNL     C9   13   0.390  -0.043  -0.051
    1UNL    C10   14   0.522  -0.035  -0.104
    1UNL    C11   15   0.590   0.075  -0.068
    1UNL    C12   16   0.533   0.179   0.015
    1UNL    C13   17   0.402   0.174   0.055
    1UNL    C14   18   0.328   0.061   0.022
    1UNL    C15   19   0.197   0.023   0.047
    1UNL    C16   20   0.085   0.106   0.100
    1UNL    C17   21  -0.057   0.042   0.084
    1UNL    C18   22  -0.130   0.081  -0.049
    1UNL     N2   23  -0.035  -0.109   0.108
    1UNL    C19   24  -0.170  -0.167   0.119
    1UNL    C20   25  -0.150  -0.317   0.158
    1UNL     H1   26  -0.362   0.382   0.085
    1UNL     H2   27  -0.457   0.301  -0.053
    1UNL     H3   28  -0.360   0.465  -0.080
    1UNL     H4   29  -0.269   0.180   0.086
    1UNL     H5   30  -0.399  -0.030   0.126
    1UNL     H6   31  -0.518  -0.120  -0.105
    1UNL     H7   32  -0.287  -0.224  -0.062
    1UNL     H8   33  -0.213  -0.038  -0.201
    1UNL     H9   34   0.032  -0.069  -0.203
    1UNL    H10   35  -0.048  -0.220  -0.191
    1UNL    H11   36   0.047  -0.276   0.013
    1UNL    H12   37   0.292  -0.216  -0.149
    1UNL    H13   38   0.558  -0.107  -0.175
    1UNL    H14   39   0.683   0.093  -0.111
    1UNL    H15   40   0.595   0.266   0.046
    1UNL    H16   41   0.359   0.246   0.117
    1UNL    H17   42   0.077   0.200   0.053
    1UNL    H18   43   0.116   0.127   0.199
    1UNL    H19   44  -0.118   0.079   0.169
    1UNL    H20   45  -0.061   0.146  -0.112
    1UNL    H21   46  -0.200  -0.105   0.204
    1UNL    H22   47  -0.078  -0.322   0.243
    1UNL    H23   48  -0.240  -0.376   0.184
    1UNL    H24   49  -0.119  -0.376   0.075
   0.00000   0.00000   0.00000   0.00000   0.00000   0.00000   0.00000   0.00000   0.00000
Generated with MDTraj, t= 58.0
 49
    1UNL     C1    1  -0.377   0.342  -0.045
    1UNL     O1    2  -0.249   0.284  -0.047
    1UNL     C2    3  -0.261   0.150   0.006
    1UNL     O2    4  -0.385   0.084  -0.033
    1UNL     C3    5  -0.392  -0.052   0.016
    1UNL     O3    6  -0.502  -0.139  -0.032
    1UNL     C4    7  -0.262  -0.136  -0.008
    1UNL     C5    8  -0.167  -0.071  -0.111
    1UNL     C6    9  -0.039  -0.157  -0.145
    1UNL     C7   10   0.047  -0.164  -0.012
    1UNL     C8   11   0.179  -0.084  -0.025
    1UNL     N1   12   0.300  -0.137  -0.067
    1UNL     C9   13   0.397  -0.039  -0.050
    1UNL    C10   14   0.540  -0.047  -0.061
    1UNL    C11   15   0.617   0.066  -0.040
    1UNL    C12   16   0.557   0.184   0.006
    1UNL    C13   17   0.419   0.191   0.022
    1UNL    C14   18   0.337   0.079  -0.001
    1UNL    C15   19   0.200   0.049   0.014
    1UNL    C16   20   0.095   0.113   0.097
    1UNL    C17   21  -0.044   0.041   0.089
    1UNL    C18   22  -0.126   0.067  -0.040
    1UNL     N2   23  -0.032  -0.110   0.104
    1UNL    C19   24  -0.175  -0.156   0.118
    1UNL    C20   25  -0.183  -0.307   0.145
    1UNL     H1   26  -0.393   0.388   0.061
    1UNL     H2   27  -0.444   0.263  -0.067
    1UNL     H3   28  -0.376   0.430  -0.113
    1UNL     H4   29  -0.281   0.164   0.122
    1UNL     H5   30  -0.417  -0.048   0.125
    1UNL     H6   31  -0.571  -0.079  -0.066
    1UNL     H7   32  -0.280  -0.238  -0.048
    1UNL     H8   33  -0.208  -0.054  -0.207
    1UNL     H9   34   0.022  -0.115  -0.215
    1UNL    H10   35  -0.073  -0.253  -0.189
    1UNL    H11   36   0.070  -0.270   0.014
    1UNL    H12   37   0.309  -0.245  -0.082
    1UNL    H13   38   0.577  -0.136  -0.114
    1UNL    H14   39   0.730   0.071  -0.057
    1UNL    H15   40   0.616   0.266   0.028
    1UNL    H16   41   0.383   0.293   0.040
    1UNL    H17   42   0.085   0.207   0.063
    1UNL    H18   43   0.115   0.116   0.202
    1UNL    H19   44  -0.104   0.070   0.177
    1UNL    H20   45  -0.066   0.123  -0.118
    1UNL    H21   46  -0.209  -0.101   0.207
    1UNL    H22   47  -0.115  -0.338   0.229
    1UNL    H23   48  -0.283  -0.344   0.163
    1UNL    H24   49  -0.163  -0.357   0.051
   0.00000   0.00000   0.00000   0.00000   0.00000   0.00000   0.00000   0.00000   0.00000
Generated with MDTraj, t= 59.0
 49
    1UNL     C1    1  -0.397   0.335  -0.063
    1UNL     O1    2  -0.264   0.285  -0.032
    1UNL     C2    3  -0.269   0.149   0.008
    1UNL     O2    4  -0.381   0.076  -0.035
    1UNL     C3    5  -0.383  -0.055   0.025
    1UNL     O3    6  -0.492  -0.137  -0.030
    1UNL     C4    7  -0.243  -0.126  -0.012
    1UNL     C5    8  -0.167  -0.044  -0.117
    1UNL     C6    9  -0.037  -0.120  -0.150
    1UNL     C7   10   0.042  -0.156  -0.022
    1UNL     C8   11   0.179  -0.097  -0.022
    1UNL     N1   12   0.302  -0.159  -0.057
    1UNL     C9   13   0.396  -0.055  -0.046
    1UNL    C10   14   0.535  -0.057  -0.067
    1UNL    C11   15   0.600   0.060  -0.042
    1UNL    C12   16   0.536   0.178   0.002
    1UNL    C13   17   0.402   0.175   0.036
    1UNL    C14   18   0.331   0.058   0.012
    1UNL    C15   19   0.197   0.024   0.026
    1UNL    C16   20   0.098   0.117   0.082
    1UNL    C17   21  -0.042   0.055   0.084
    1UNL    C18   22  -0.129   0.083  -0.044
    1UNL     N2   23  -0.024  -0.095   0.096
    1UNL    C19   24  -0.159  -0.150   0.116
    1UNL    C20   25  -0.140  -0.300   0.151
    1UNL     H1   26  -0.475   0.284  -0.001
    1UNL     H2   27  -0.413   0.319  -0.164
    1UNL     H3   28  -0.399   0.437  -0.021
    1UNL     H4   29  -0.289   0.152   0.125
    1UNL     H5   30  -0.406  -0.055   0.134
    1UNL     H6   31  -0.545  -0.067  -0.073
    1UNL     H7   32  -0.273  -0.229  -0.044
    1UNL     H8   33  -0.232  -0.017  -0.197
    1UNL     H9   34   0.018  -0.061  -0.217
    1UNL    H10   35  -0.065  -0.214  -0.198
    1UNL    H11   36   0.056  -0.266  -0.000
    1UNL    H12   37   0.338  -0.261  -0.059
    1UNL    H13   38   0.586  -0.144  -0.096
    1UNL    H14   39   0.702   0.057  -0.046
    1UNL    H15   40   0.600   0.267   0.027
    1UNL    H16   41   0.360   0.265   0.076
    1UNL    H17   42   0.088   0.210   0.041
    1UNL    H18   43   0.131   0.127   0.183
    1UNL    H19   44  -0.093   0.104   0.170
    1UNL    H20   45  -0.073   0.157  -0.110
    1UNL    H21   46  -0.213  -0.106   0.201
    1UNL    H22   47  -0.071  -0.302   0.238
    1UNL    H23   48  -0.228  -0.357   0.176
    1UNL    H24   49  -0.101  -0.356   0.063
   0.00000   0.00000   0.00000   0.00000   0.00000   0.00000   0.00000   0.00000   0.00000
Generated with MDTraj, t= 60.0
 49
    1UNL     C1    1  -0.417   0.318  -0.065
    1UNL     O1    2  -0.284   0.278  -0.042
    1UNL     C2    3  -0.285   0.148   0.008
    1UNL     O2    4  -0.388   0.064  -0.044
    1UNL     C3    5  -0.388  -0.064   0.015
    1UNL     O3    6  -0.508  -0.130  -0.026
    1UNL     C4    7  -0.254  -0.135  -0.013
    1UNL     C5    8  -0.163  -0.043  -0.109
    1UNL     C6    9  -0.025  -0.110  -0.149
    1UNL     C7   10   0.047  -0.145  -0.017
    1UNL     C8   11   0.185  -0.087  -0.009
    1UNL     N1   12   0.304  -0.141  -0.063
    1UNL     C9   13   0.401  -0.048  -0.060
    1UNL    C10   14   0.540  -0.054  -0.088
    1UNL    C11   15   0.624   0.047  -0.050
    1UNL    C12   16   0.576   0.157   0.016
    1UNL    C13   17   0.439   0.169   0.041
    1UNL    C14   18   0.348   0.064   0.007
    1UNL    C15   19   0.211   0.041   0.038
    1UNL    C16   20   0.098   0.128   0.087
    1UNL    C17   21  -0.043   0.059   0.093
    1UNL    C18   22  -0.144   0.087  -0.030
    1UNL     N2   23  -0.028  -0.094   0.096
    1UNL    C19   24  -0.166  -0.158   0.115
    1UNL    C20   25  -0.171  -0.303   0.154
    1UNL     H1   26  -0.460   0.341   0.033
    1UNL     H2   27  -0.465   0.242  -0.116
    1UNL     H3   28  -0.415   0.417  -0.110
    1UNL     H4   29  -0.304   0.150   0.125
    1UNL     H5   30  -0.397  -0.056   0.124
    1UNL     H6   31  -0.577  -0.060  -0.022
    1UNL     H7   32  -0.272  -0.231  -0.067
    1UNL     H8   33  -0.220  -0.026  -0.198
    1UNL     H9   34   0.038  -0.041  -0.210
    1UNL    H10   35  -0.040  -0.196  -0.211
    1UNL    H11   36   0.059  -0.257  -0.005
    1UNL    H12   37   0.317  -0.222  -0.132
    1UNL    H13   38   0.576  -0.154  -0.114
    1UNL    H14   39   0.733   0.034  -0.075
    1UNL    H15   40   0.646   0.225   0.050
    1UNL    H16   41   0.418   0.246   0.113
    1UNL    H17   42   0.096   0.213   0.019
    1UNL    H18   43   0.109   0.166   0.184
    1UNL    H19   44  -0.088   0.088   0.191
    1UNL    H20   45  -0.080   0.159  -0.091
    1UNL    H21   46  -0.216  -0.105   0.200
    1UNL    H22   47  -0.141  -0.326   0.256
    1UNL    H23   48  -0.268  -0.348   0.143
    1UNL    H24   49  -0.114  -0.364   0.077
   0.00000   0.00000   0.00000   0.00000   0.00000   0.00000   0.00000   0.00000   0.00000
Generated with MDTraj, t= 61.0
 49
    1UNL     C1    1  -0.402   0.348  -0.051
    1UNL     O1    2  -0.277   0.284  -0.066
    1UNL     C2    3  -0.261   0.157  -0.003
    1UNL     O2    4  -0.379   0.073  -0.029
    1UNL     C3    5  -0.375  -0.059   0.022
    1UNL     O3    6  -0.472  -0.140  -0.037
    1UNL     C4    7  -0.248  -0.134   0.002
    1UNL     C5    8  -0.168  -0.054  -0.105
    1UNL     C6    9  -0.044  -0.130  -0.155
    1UNL     C7   10   0.042  -0.151  -0.022
    1UNL     C8   11   0.173  -0.081  -0.032
    1UNL     N1   12   0.284  -0.135  -0.088
    1UNL     C9   13   0.388  -0.050  -0.052
    1UNL    C10   14   0.528  -0.053  -0.080
    1UNL    C11   15   0.607   0.045  -0.035
    1UNL    C12   16   0.549   0.158   0.028
    1UNL    C13   17   0.414   0.174   0.050
    1UNL    C14   18   0.336   0.062   0.015
    1UNL    C15   19   0.202   0.041   0.028
    1UNL    C16   20   0.096   0.126   0.086
    1UNL    C17   21  -0.040   0.049   0.089
    1UNL    C18   22  -0.132   0.079  -0.038
    1UNL     N2   23  -0.024  -0.102   0.103
    1UNL    C19   24  -0.156  -0.160   0.127
    1UNL    C20   25  -0.149  -0.305   0.163
    1UNL     H1   26  -0.414   0.361   0.054
    1UNL     H2   27  -0.473   0.282  -0.091
    1UNL     H3   28  -0.404   0.450  -0.087
    1UNL     H4   29  -0.276   0.187   0.111
    1UNL     H5   30  -0.398  -0.053   0.128
    1UNL     H6   31  -0.496  -0.105  -0.126
    1UNL     H7   32  -0.275  -0.228  -0.050
    1UNL     H8   33  -0.234  -0.034  -0.187
    1UNL     H9   34   0.017  -0.072  -0.234
    1UNL    H10   35  -0.073  -0.218  -0.207
    1UNL    H11   36   0.055  -0.262  -0.014
    1UNL    H12   37   0.306  -0.225  -0.138
    1UNL    H13   38   0.568  -0.132  -0.141
    1UNL    H14   39   0.707   0.053  -0.067
    1UNL    H15   40   0.623   0.242   0.040
    1UNL    H16   41   0.375   0.266   0.096
    1UNL    H17   42   0.072   0.220   0.028
    1UNL    H18   43   0.130   0.157   0.178
    1UNL    H19   44  -0.102   0.078   0.177
    1UNL    H20   45  -0.089   0.144  -0.122
    1UNL    H21   46  -0.206  -0.107   0.212
    1UNL    H22   47  -0.055  -0.331   0.209
    1UNL    H23   48  -0.225  -0.342   0.232
    1UNL    H24   49  -0.167  -0.361   0.068
   0.00000   0.00000   0.00000   0.00000   0.00000   0.00000   0.00000   0.00000   0.00000
Generated with MDTraj, t= 62.0
 49
    1UNL     C1    1  -0.375   0.350  -0.035
    1UNL     O1    2  -0.251   0.287  -0.041
    1UNL     C2    3  -0.259   0.153  -0.011
    1UNL     O2    4  -0.379   0.075  -0.048
    1UNL     C3    5  -0.383  -0.051   0.023
    1UNL     O3    6  -0.508  -0.123   0.001
    1UNL     C4    7  -0.251  -0.140  -0.008
    1UNL     C5    8  -0.165  -0.063  -0.116
    1UNL     C6    9  -0.043  -0.151  -0.147
    1UNL     C7   10   0.052  -0.163  -0.021
    1UNL     C8   11   0.184  -0.092  -0.036
    1UNL     N1   12   0.309  -0.143  -0.075
    1UNL     C9   13   0.400  -0.040  -0.047
    1UNL    C10   14   0.536  -0.037  -0.074
    1UNL    C11   15   0.612   0.067  -0.026
    1UNL    C12   16   0.547   0.182   0.026
    1UNL    C13   17   0.414   0.185   0.039
    1UNL    C14   18   0.333   0.070   0.013
    1UNL    C15   19   0.195   0.033   0.014
    1UNL    C16   20   0.084   0.119   0.071
    1UNL    C17   21  -0.044   0.043   0.075
    1UNL    C18   22  -0.133   0.072  -0.052
    1UNL     N2   23  -0.029  -0.106   0.094
    1UNL    C19   24  -0.166  -0.168   0.121
    1UNL    C20   25  -0.182  -0.318   0.158
    1UNL     H1   26  -0.401   0.365   0.066
    1UNL     H2   27  -0.447   0.286  -0.079
    1UNL     H3   28  -0.378   0.447  -0.082
    1UNL     H4   29  -0.265   0.144   0.107
    1UNL     H5   30  -0.388  -0.021   0.126
    1UNL     H6   31  -0.571  -0.059  -0.039
    1UNL     H7   32  -0.284  -0.239  -0.048
    1UNL     H8   33  -0.231  -0.045  -0.199
    1UNL     H9   34   0.007  -0.105  -0.240
    1UNL    H10   35  -0.075  -0.250  -0.173
    1UNL    H11   36   0.069  -0.271   0.008
    1UNL    H12   37   0.333  -0.241  -0.095
    1UNL    H13   38   0.572  -0.107  -0.146
    1UNL    H14   39   0.720   0.066  -0.041
    1UNL    H15   40   0.605   0.266   0.047
    1UNL    H16   41   0.369   0.279   0.055
    1UNL    H17   42   0.079   0.218   0.014
    1UNL    H18   43   0.109   0.145   0.168
    1UNL    H19   44  -0.092   0.066   0.174
    1UNL    H20   45  -0.064   0.124  -0.126
    1UNL    H21   46  -0.223  -0.110   0.196
    1UNL    H22   47  -0.161  -0.331   0.264
    1UNL    H23   48  -0.278  -0.369   0.136
    1UNL    H24   49  -0.110  -0.366   0.089
   0.00000   0.00000   0.00000   0.00000   0.00000   0.00000   0.00000   0.00000   0.00000
Generated with MDTraj, t= 63.0
 49
    1UNL     C1    1  -0.373   0.357  -0.048
    1UNL     O1    2  -0.262   0.283  -0.080
    1UNL     C2    3  -0.262   0.161  -0.010
    1UNL     O2    4  -0.382   0.077  -0.042
    1UNL     C3    5  -0.381  -0.047   0.028
    1UNL     O3    6  -0.501  -0.121   0.004
    1UNL     C4    7  -0.259  -0.137  -0.013
    1UNL     C5    8  -0.162  -0.053  -0.113
    1UNL     C6    9  -0.035  -0.126  -0.145
    1UNL     C7   10   0.048  -0.162  -0.020
    1UNL     C8   11   0.180  -0.097  -0.009
    1UNL     N1   12   0.300  -0.153  -0.047
    1UNL     C9   13   0.396  -0.048  -0.045
    1UNL    C10   14   0.531  -0.045  -0.073
    1UNL    C11   15   0.598   0.075  -0.049
    1UNL    C12   16   0.538   0.186   0.002
    1UNL    C13   17   0.403   0.179   0.020
    1UNL    C14   18   0.332   0.064   0.004
    1UNL    C15   19   0.198   0.033   0.039
    1UNL    C16   20   0.098   0.109   0.115
    1UNL    C17   21  -0.042   0.042   0.097
    1UNL    C18   22  -0.126   0.078  -0.038
    1UNL     N2   23  -0.036  -0.111   0.096
    1UNL    C19   24  -0.171  -0.180   0.106
    1UNL    C20   25  -0.142  -0.326   0.123
    1UNL     H1   26  -0.387   0.371   0.054
    1UNL     H2   27  -0.462   0.305  -0.086
    1UNL     H3   28  -0.373   0.457  -0.095
    1UNL     H4   29  -0.272   0.192   0.104
    1UNL     H5   30  -0.369  -0.021   0.130
    1UNL     H6   31  -0.560  -0.065  -0.050
    1UNL     H7   32  -0.283  -0.230  -0.069
    1UNL     H8   33  -0.228  -0.033  -0.196
    1UNL     H9   34   0.035  -0.062  -0.207
    1UNL    H10   35  -0.067  -0.218  -0.202
    1UNL    H11   36   0.065  -0.272  -0.005
    1UNL    H12   37   0.306  -0.236  -0.102
    1UNL    H13   38   0.583  -0.136  -0.106
    1UNL    H14   39   0.706   0.066  -0.049
    1UNL    H15   40   0.592   0.269   0.049
    1UNL    H16   41   0.338   0.261   0.056
    1UNL    H17   42   0.095   0.215   0.080
    1UNL    H18   43   0.132   0.114   0.219
    1UNL    H19   44  -0.103   0.074   0.185
    1UNL    H20   45  -0.068   0.157  -0.097
    1UNL    H21   46  -0.214  -0.141   0.201
    1UNL    H22   47  -0.049  -0.337   0.181
    1UNL    H23   48  -0.222  -0.378   0.181
    1UNL    H24   49  -0.151  -0.367   0.023
   0.00000   0.00000   0.00000   0.00000   0.00000   0.00000   0.00000   0.00000   0.00000
Generated with MDTraj, t= 64.0
 49
    1UNL     C1    1  -0.372   0.326  -0.092
    1UNL     O1    2  -0.246   0.278  -0.061
    1UNL     C2    3  -0.252   0.155   0.006
    1UNL     O2    4  -0.372   0.076  -0.024
    1UNL     C3    5  -0.376  -0.054   0.025
    1UNL     O3    6  -0.500  -0.119  -0.002
    1UNL     C4    7  -0.251  -0.129  -0.019
    1UNL     C5    8  -0.162  -0.047  -0.116
    1UNL     C6    9  -0.039  -0.130  -0.149
    1UNL     C7   10   0.040  -0.156  -0.016
    1UNL     C8   11   0.178  -0.091  -0.007
    1UNL     N1   12   0.294  -0.143  -0.059
    1UNL     C9   13   0.392  -0.040  -0.051
    1UNL    C10   14   0.521  -0.037  -0.097
    1UNL    C11   15   0.603   0.076  -0.074
    1UNL    C12   16   0.543   0.179  -0.004
    1UNL    C13   17   0.413   0.182   0.050
    1UNL    C14   18   0.336   0.068   0.023
    1UNL    C15   19   0.199   0.034   0.056
    1UNL    C16   20   0.091   0.108   0.120
    1UNL    C17   21  -0.047   0.042   0.097
    1UNL    C18   22  -0.124   0.079  -0.028
    1UNL     N2   23  -0.036  -0.106   0.108
    1UNL    C19   24  -0.172  -0.174   0.110
    1UNL    C20   25  -0.171  -0.323   0.118
    1UNL     H1   26  -0.395   0.413  -0.041
    1UNL     H2   27  -0.458   0.253  -0.077
    1UNL     H3   28  -0.370   0.348  -0.203
    1UNL     H4   29  -0.260   0.172   0.123
    1UNL     H5   30  -0.390  -0.049   0.130
    1UNL     H6   31  -0.525  -0.102  -0.095
    1UNL     H7   32  -0.297  -0.214  -0.075
    1UNL     H8   33  -0.203  -0.011  -0.209
    1UNL     H9   34   0.031  -0.087  -0.224
    1UNL    H10   35  -0.070  -0.239  -0.185
    1UNL    H11   36   0.049  -0.267   0.001
    1UNL    H12   37   0.298  -0.232  -0.098
    1UNL    H13   38   0.562  -0.124  -0.139
    1UNL    H14   39   0.707   0.078  -0.100
    1UNL    H15   40   0.602   0.266   0.025
    1UNL    H16   41   0.377   0.259   0.113
    1UNL    H17   42   0.093   0.209   0.080
    1UNL    H18   43   0.115   0.114   0.235
    1UNL    H19   44  -0.115   0.060   0.185
    1UNL    H20   45  -0.060   0.134  -0.104
    1UNL    H21   46  -0.226  -0.125   0.192
    1UNL    H22   47  -0.134  -0.352   0.218
    1UNL    H23   48  -0.277  -0.363   0.113
    1UNL    H24   49  -0.125  -0.366   0.031
   0.00000   0.00000   0.00000   0.00000   0.00000   0.00000   0.00000   0.00000   0.00000
Generated with MDTraj, t= 65.0
 49
    1UNL     C1    1  -0.363   0.339  -0.113
    1UNL     O1    2  -0.239   0.286  -0.060
    1UNL     C2    3  -0.255   0.155   0.003
    1UNL     O2    4  -0.364   0.082  -0.041
    1UNL     C3    5  -0.383  -0.047   0.026
    1UNL     O3    6  -0.497  -0.120  -0.017
    1UNL     C4    7  -0.256  -0.130  -0.003
    1UNL     C5    8  -0.159  -0.054  -0.104
    1UNL     C6    9  -0.034  -0.143  -0.143
    1UNL     C7   10   0.046  -0.168  -0.009
    1UNL     C8   11   0.181  -0.104  -0.012
    1UNL     N1   12   0.288  -0.131  -0.099
    1UNL     C9   13   0.384  -0.036  -0.069
    1UNL    C10   14   0.516  -0.012  -0.118
    1UNL    C11   15   0.593   0.090  -0.065
    1UNL    C12   16   0.532   0.186   0.023
    1UNL    C13   17   0.406   0.170   0.065
    1UNL    C14   18   0.332   0.056   0.024
    1UNL    C15   19   0.200   0.013   0.049
    1UNL    C16   20   0.098   0.094   0.123
    1UNL    C17   21  -0.042   0.035   0.109
    1UNL    C18   22  -0.121   0.073  -0.019
    1UNL     N2   23  -0.033  -0.110   0.108
    1UNL    C19   24  -0.175  -0.172   0.122
    1UNL    C20   25  -0.173  -0.318   0.146
    1UNL     H1   26  -0.360   0.443  -0.095
    1UNL     H2   27  -0.459   0.299  -0.061
    1UNL     H3   28  -0.376   0.311  -0.225
    1UNL     H4   29  -0.259   0.184   0.117
    1UNL     H5   30  -0.390  -0.025   0.128
    1UNL     H6   31  -0.527  -0.060  -0.089
    1UNL     H7   32  -0.283  -0.228  -0.048
    1UNL     H8   33  -0.220  -0.027  -0.191
    1UNL     H9   34   0.041  -0.101  -0.214
    1UNL    H10   35  -0.075  -0.243  -0.193
    1UNL    H11   36   0.054  -0.279  -0.000
    1UNL    H12   37   0.316  -0.219  -0.131
    1UNL    H13   38   0.566  -0.072  -0.196
    1UNL    H14   39   0.690   0.112  -0.115
    1UNL    H15   40   0.574   0.282   0.036
    1UNL    H16   41   0.352   0.236   0.132
    1UNL    H17   42   0.099   0.199   0.091
    1UNL    H18   43   0.134   0.090   0.236
    1UNL    H19   44  -0.108   0.069   0.195
    1UNL    H20   45  -0.063   0.152  -0.076
    1UNL    H21   46  -0.214  -0.121   0.210
    1UNL    H22   47  -0.110  -0.336   0.236
    1UNL    H23   48  -0.273  -0.356   0.176
    1UNL    H24   49  -0.147  -0.371   0.056
   0.00000   0.00000   0.00000   0.00000   0.00000   0.00000   0.00000   0.00000   0.00000
Generated with MDTraj, t= 66.0
 49
    1UNL     C1    1  -0.350   0.349  -0.106
    1UNL     O1    2  -0.226   0.288  -0.064
    1UNL     C2    3  -0.249   0.159  -0.003
    1UNL     O2    4  -0.364   0.092  -0.048
    1UNL     C3    5  -0.381  -0.039   0.023
    1UNL     O3    6  -0.501  -0.101  -0.016
    1UNL     C4    7  -0.256  -0.137  -0.007
    1UNL     C5    8  -0.160  -0.062  -0.102
    1UNL     C6    9  -0.032  -0.145  -0.130
    1UNL     C7   10   0.048  -0.170  -0.004
    1UNL     C8   11   0.174  -0.093  -0.012
    1UNL     N1   12   0.289  -0.124  -0.081
    1UNL     C9   13   0.381  -0.028  -0.063
    1UNL    C10   14   0.510  -0.018  -0.115
    1UNL    C11   15   0.587   0.088  -0.076
    1UNL    C12   16   0.538   0.189   0.014
    1UNL    C13   17   0.408   0.184   0.050
    1UNL    C14   18   0.325   0.072   0.016
    1UNL    C15   19   0.194   0.028   0.054
    1UNL    C16   20   0.086   0.090   0.130
    1UNL    C17   21  -0.049   0.017   0.113
    1UNL    C18   22  -0.121   0.062  -0.022
    1UNL     N2   23  -0.033  -0.132   0.120
    1UNL    C19   24  -0.172  -0.192   0.120
    1UNL    C20   25  -0.173  -0.341   0.137
    1UNL     H1   26  -0.329   0.404  -0.196
    1UNL     H2   27  -0.366   0.432  -0.028
    1UNL     H3   28  -0.444   0.281  -0.107
    1UNL     H4   29  -0.248   0.173   0.115
    1UNL     H5   30  -0.394  -0.033   0.127
    1UNL     H6   31  -0.516  -0.094  -0.113
    1UNL     H7   32  -0.307  -0.225  -0.051
    1UNL     H8   33  -0.210  -0.047  -0.198
    1UNL     H9   34   0.025  -0.082  -0.205
    1UNL    H10   35  -0.044  -0.251  -0.177
    1UNL    H11   36   0.083  -0.276  -0.005
    1UNL    H12   37   0.298  -0.179  -0.161
    1UNL    H13   38   0.540  -0.093  -0.181
    1UNL    H14   39   0.683   0.110  -0.108
    1UNL    H15   40   0.606   0.272   0.044
    1UNL    H16   41   0.362   0.258   0.113
    1UNL    H17   42   0.083   0.192   0.086
    1UNL    H18   43   0.119   0.103   0.242
    1UNL    H19   44  -0.111   0.051   0.200
    1UNL    H20   45  -0.038   0.114  -0.079
    1UNL    H21   46  -0.226  -0.147   0.203
    1UNL    H22   47  -0.106  -0.365   0.224
    1UNL    H23   48  -0.273  -0.378   0.164
    1UNL    H24   49  -0.141  -0.385   0.042
   0.00000   0.00000   0.00000   0.00000   0.00000   0.00000   0.00000   0.00000   0.00000
Generated with MDTraj, t= 67.0
 49
    1UNL     C1    1  -0.344   0.350  -0.076
    1UNL     O1    2  -0.230   0.280  -0.098
    1UNL     C2    3  -0.234   0.170  -0.009
    1UNL     O2    4  -0.367   0.097  -0.023
    1UNL     C3    5  -0.371  -0.042   0.031
    1UNL     O3    6  -0.490  -0.103   0.003
    1UNL     C4    7  -0.248  -0.128  -0.017
    1UNL     C5    8  -0.149  -0.055  -0.107
    1UNL     C6    9  -0.018  -0.141  -0.140
    1UNL     C7   10   0.051  -0.181  -0.008
    1UNL     C8   11   0.178  -0.106   0.001
    1UNL     N1   12   0.298  -0.143  -0.054
    1UNL     C9   13   0.383  -0.036  -0.044
    1UNL    C10   14   0.512  -0.019  -0.103
    1UNL    C11   15   0.578   0.097  -0.087
    1UNL    C12   16   0.511   0.199  -0.013
    1UNL    C13   17   0.387   0.189   0.047
    1UNL    C14   18   0.321   0.066   0.029
    1UNL    C15   19   0.191   0.020   0.060
    1UNL    C16   20   0.075   0.094   0.125
    1UNL    C17   21  -0.054   0.018   0.101
    1UNL    C18   22  -0.114   0.069  -0.027
    1UNL     N2   23  -0.038  -0.130   0.103
    1UNL    C19   24  -0.173  -0.190   0.109
    1UNL    C20   25  -0.185  -0.343   0.120
    1UNL     H1   26  -0.331   0.448  -0.125
    1UNL     H2   27  -0.333   0.370   0.035
    1UNL     H3   28  -0.437   0.289  -0.090
    1UNL     H4   29  -0.244   0.214   0.099
    1UNL     H5   30  -0.357  -0.031   0.134
    1UNL     H6   31  -0.513  -0.071  -0.087
    1UNL     H7   32  -0.282  -0.214  -0.078
    1UNL     H8   33  -0.185  -0.027  -0.207
    1UNL     H9   34   0.061  -0.081  -0.201
    1UNL    H10   35  -0.044  -0.229  -0.208
    1UNL    H11   36   0.082  -0.287  -0.002
    1UNL    H12   37   0.304  -0.208  -0.127
    1UNL    H13   38   0.560  -0.097  -0.164
    1UNL    H14   39   0.688   0.107  -0.118
    1UNL    H15   40   0.564   0.285   0.009
    1UNL    H16   41   0.332   0.268   0.094
    1UNL    H17   42   0.072   0.202   0.082
    1UNL    H18   43   0.098   0.105   0.234
    1UNL    H19   44  -0.125   0.051   0.182
    1UNL    H20   45  -0.045   0.133  -0.090
    1UNL    H21   46  -0.225  -0.150   0.194
    1UNL    H22   47  -0.150  -0.383   0.219
    1UNL    H23   48  -0.288  -0.375   0.115
    1UNL    H24   49  -0.127  -0.385   0.036
   0.00000   0.00000   0.00000   0.00000   0.00000   0.00000   0.00000   0.00000   0.00000
Generated with MDTraj, t= 68.0
 49
    1UNL     C1    1  -0.342   0.354  -0.079
    1UNL     O1    2  -0.222   0.282  -0.068
    1UNL     C2    3  -0.240   0.157  -0.015
    1UNL     O2    4  -0.362   0.087  -0.062
    1UNL     C3    5  -0.376  -0.035   0.019
    1UNL     O3    6  -0.501  -0.095   0.017
    1UNL     C4    7  -0.259  -0.134  -0.014
    1UNL     C5    8  -0.157  -0.064  -0.106
    1UNL     C6    9  -0.029  -0.151  -0.130
    1UNL     C7   10   0.045  -0.176   0.003
    1UNL     C8   11   0.182  -0.106  -0.001
    1UNL     N1   12   0.291  -0.143  -0.075
    1UNL     C9   13   0.387  -0.043  -0.051
    1UNL    C10   14   0.517  -0.021  -0.093
    1UNL    C11   15   0.578   0.103  -0.076
    1UNL    C12   16   0.510   0.205  -0.009
    1UNL    C13   17   0.385   0.190   0.046
    1UNL    C14   18   0.328   0.064   0.022
    1UNL    C15   19   0.196   0.018   0.049
    1UNL    C16   20   0.088   0.090   0.129
    1UNL    C17   21  -0.049   0.022   0.109
    1UNL    C18   22  -0.118   0.064  -0.028
    1UNL     N2   23  -0.039  -0.125   0.116
    1UNL    C19   24  -0.177  -0.182   0.109
    1UNL    C20   25  -0.161  -0.328   0.104
    1UNL     H1   26  -0.312   0.455  -0.123
    1UNL     H2   27  -0.374   0.369   0.023
    1UNL     H3   28  -0.418   0.299  -0.130
    1UNL     H4   29  -0.265   0.157   0.098
    1UNL     H5   30  -0.370  -0.001   0.120
    1UNL     H6   31  -0.538  -0.111  -0.073
    1UNL     H7   32  -0.315  -0.215  -0.064
    1UNL     H8   33  -0.216  -0.032  -0.194
    1UNL     H9   34   0.035  -0.099  -0.215
    1UNL    H10   35  -0.066  -0.244  -0.178
    1UNL    H11   36   0.063  -0.284   0.016
    1UNL    H12   37   0.310  -0.241  -0.081
    1UNL    H13   38   0.569  -0.093  -0.153
    1UNL    H14   39   0.672   0.118  -0.114
    1UNL    H15   40   0.556   0.306   0.002
    1UNL    H16   41   0.333   0.274   0.089
    1UNL    H17   42   0.086   0.203   0.094
    1UNL    H18   43   0.115   0.096   0.236
    1UNL    H19   44  -0.098   0.055   0.205
    1UNL    H20   45  -0.046   0.130  -0.084
    1UNL    H21   46  -0.225  -0.145   0.198
    1UNL    H22   47  -0.076  -0.356   0.170
    1UNL    H23   48  -0.243  -0.383   0.146
    1UNL    H24   49  -0.137  -0.364   0.000
   0.00000   0.00000   0.00000   0.00000   0.00000   0.00000   0.00000   0.00000   0.00000
Generated with MDTraj, t= 69.0
 49
    1UNL     C1    1  -0.348   0.340  -0.092
    1UNL     O1    2  -0.227   0.262  -0.085
    1UNL     C2    3  -0.238   0.150   0.003
    1UNL     O2    4  -0.369   0.087  -0.018
    1UNL     C3    5  -0.381  -0.050   0.024
    1UNL     O3    6  -0.501  -0.107  -0.026
    1UNL     C4    7  -0.255  -0.130  -0.011
    1UNL     C5    8  -0.152  -0.056  -0.108
    1UNL     C6    9  -0.037  -0.148  -0.140
    1UNL     C7   10   0.042  -0.166  -0.010
    1UNL     C8   11   0.176  -0.097  -0.019
    1UNL     N1   12   0.294  -0.126  -0.083
    1UNL     C9   13   0.383  -0.023  -0.068
    1UNL    C10   14   0.515  -0.018  -0.106
    1UNL    C11   15   0.588   0.093  -0.069
    1UNL    C12   16   0.541   0.192   0.010
    1UNL    C13   17   0.407   0.176   0.053
    1UNL    C14   18   0.324   0.074   0.011
    1UNL    C15   19   0.191   0.028   0.042
    1UNL    C16   20   0.091   0.089   0.138
    1UNL    C17   21  -0.048   0.032   0.116
    1UNL    C18   22  -0.111   0.066  -0.019
    1UNL     N2   23  -0.035  -0.120   0.114
    1UNL    C19   24  -0.180  -0.178   0.119
    1UNL    C20   25  -0.191  -0.327   0.141
    1UNL     H1   26  -0.333   0.427  -0.164
    1UNL     H2   27  -0.375   0.377   0.002
    1UNL     H3   28  -0.426   0.280  -0.122
    1UNL     H4   29  -0.236   0.188   0.111
    1UNL     H5   30  -0.383  -0.041   0.131
    1UNL     H6   31  -0.515  -0.077  -0.118
    1UNL     H7   32  -0.282  -0.226  -0.056
    1UNL     H8   33  -0.209  -0.030  -0.198
    1UNL     H9   34   0.016  -0.101  -0.235
    1UNL    H10   35  -0.075  -0.245  -0.178
    1UNL    H11   36   0.068  -0.269   0.013
    1UNL    H12   37   0.303  -0.204  -0.147
    1UNL    H13   38   0.562  -0.101  -0.153
    1UNL    H14   39   0.691   0.107  -0.111
    1UNL    H15   40   0.600   0.274   0.037
    1UNL    H16   41   0.368   0.242   0.130
    1UNL    H17   42   0.084   0.205   0.134
    1UNL    H18   43   0.125   0.067   0.241
    1UNL    H19   44  -0.113   0.058   0.203
    1UNL    H20   45  -0.050   0.139  -0.079
    1UNL    H21   46  -0.215  -0.132   0.211
    1UNL    H22   47  -0.151  -0.364   0.236
    1UNL    H23   48  -0.291  -0.365   0.133
    1UNL    H24   49  -0.128  -0.377   0.063
   0.00000   0.00000   0.00000   0.00000   0.00000   0.00000   0.00000   0.00000   0.00000
Generated with MDTraj, t= 70.0
 49
    1UNL     C1    1  -0.373   0.342  -0.098
    1UNL     O1    2  -0.245   0.293  -0.061
    1UNL     C2    3  -0.254   0.162  -0.004
    1UNL     O2    4  -0.365   0.081  -0.040
    1UNL     C3    5  -0.366  -0.050   0.027
    1UNL     O3    6  -0.491  -0.118  -0.010
    1UNL     C4    7  -0.249  -0.138  -0.017
    1UNL     C5    8  -0.160  -0.055  -0.109
    1UNL     C6    9  -0.034  -0.136  -0.136
    1UNL     C7   10   0.047  -0.169  -0.005
    1UNL     C8   11   0.176  -0.099  -0.006
    1UNL     N1   12   0.288  -0.140  -0.079
    1UNL     C9   13   0.378  -0.037  -0.067
    1UNL    C10   14   0.505  -0.013  -0.126
    1UNL    C11   15   0.580   0.089  -0.078
    1UNL    C12   16   0.535   0.171   0.028
    1UNL    C13   17   0.411   0.161   0.079
    1UNL    C14   18   0.330   0.057   0.025
    1UNL    C15   19   0.197   0.023   0.052
    1UNL    C16   20   0.093   0.105   0.121
    1UNL    C17   21  -0.045   0.042   0.093
    1UNL    C18   22  -0.119   0.078  -0.032
    1UNL     N2   23  -0.037  -0.113   0.103
    1UNL    C19   24  -0.169  -0.175   0.112
    1UNL    C20   25  -0.155  -0.322   0.147
    1UNL     H1   26  -0.345   0.429  -0.166
    1UNL     H2   27  -0.438   0.371  -0.022
    1UNL     H3   28  -0.415   0.273  -0.159
    1UNL     H4   29  -0.251   0.184   0.107
    1UNL     H5   30  -0.387  -0.030   0.132
    1UNL     H6   31  -0.517  -0.094  -0.102
    1UNL     H7   32  -0.292  -0.225  -0.067
    1UNL     H8   33  -0.210  -0.036  -0.205
    1UNL     H9   34   0.028  -0.076  -0.209
    1UNL    H10   35  -0.061  -0.226  -0.199
    1UNL    H11   36   0.074  -0.268   0.030
    1UNL    H12   37   0.297  -0.224  -0.140
    1UNL    H13   38   0.544  -0.089  -0.197
    1UNL    H14   39   0.674   0.110  -0.122
    1UNL    H15   40   0.599   0.250   0.071
    1UNL    H16   41   0.385   0.220   0.166
    1UNL    H17   42   0.094   0.209   0.088
    1UNL    H18   43   0.106   0.110   0.233
    1UNL    H19   44  -0.117   0.058   0.175
    1UNL    H20   45  -0.060   0.134  -0.107
    1UNL    H21   46  -0.212  -0.130   0.202
    1UNL    H22   47  -0.082  -0.336   0.227
    1UNL    H23   48  -0.253  -0.359   0.179
    1UNL    H24   49  -0.117  -0.378   0.060
   0.00000   0.00000   0.00000   0.00000   0.00000   0.00000   0.00000   0.00000   0.00000
Generated with MDTraj, t= 71.0
 49
    1UNL     C1    1  -0.390   0.347  -0.079
    1UNL     O1    2  -0.260   0.292  -0.079
    1UNL     C2    3  -0.266   0.162  -0.005
    1UNL     O2    4  -0.380   0.081  -0.036
    1UNL     C3    5  -0.380  -0.049   0.018
    1UNL     O3    6  -0.510  -0.115   0.006
    1UNL     C4    7  -0.255  -0.137  -0.014
    1UNL     C5    8  -0.157  -0.059  -0.105
    1UNL     C6    9  -0.029  -0.130  -0.143
    1UNL     C7   10   0.051  -0.162  -0.012
    1UNL     C8   11   0.178  -0.085  -0.018
    1UNL     N1   12   0.297  -0.132  -0.078
    1UNL     C9   13   0.403  -0.043  -0.051
    1UNL    C10   14   0.540  -0.036  -0.089
    1UNL    C11   15   0.615   0.071  -0.063
    1UNL    C12   16   0.553   0.185   0.001
    1UNL    C13   17   0.421   0.188   0.039
    1UNL    C14   18   0.343   0.068   0.024
    1UNL    C15   19   0.204   0.030   0.049
    1UNL    C16   20   0.093   0.097   0.125
    1UNL    C17   21  -0.050   0.033   0.107
    1UNL    C18   22  -0.124   0.076  -0.026
    1UNL     N2   23  -0.038  -0.122   0.108
    1UNL    C19   24  -0.180  -0.183   0.116
    1UNL    C20   25  -0.183  -0.337   0.123
    1UNL     H1   26  -0.382   0.460  -0.088
    1UNL     H2   27  -0.456   0.318  -0.003
    1UNL     H3   28  -0.425   0.319  -0.171
    1UNL     H4   29  -0.261   0.190   0.103
    1UNL     H5   30  -0.379  -0.024   0.127
    1UNL     H6   31  -0.532  -0.098  -0.088
    1UNL     H7   32  -0.283  -0.232  -0.059
    1UNL     H8   33  -0.208  -0.034  -0.198
    1UNL     H9   34   0.020  -0.069  -0.218
    1UNL    H10   35  -0.055  -0.223  -0.207
    1UNL    H11   36   0.065  -0.267   0.008
    1UNL    H12   37   0.319  -0.235  -0.089
    1UNL    H13   38   0.579  -0.113  -0.149
    1UNL    H14   39   0.719   0.079  -0.083
    1UNL    H15   40   0.624   0.262   0.017
    1UNL    H16   41   0.376   0.279   0.076
    1UNL    H17   42   0.079   0.196   0.095
    1UNL    H18   43   0.120   0.111   0.236
    1UNL    H19   44  -0.114   0.063   0.189
    1UNL    H20   45  -0.057   0.146  -0.077
    1UNL    H21   46  -0.219  -0.148   0.213
    1UNL    H22   47  -0.112  -0.377   0.195
    1UNL    H23   48  -0.288  -0.366   0.144
    1UNL    H24   49  -0.151  -0.380   0.027
   0.00000   0.00000   0.00000   0.00000   0.00000   0.00000   0.00000   0.00000   0.00000
Generated with MDTraj, t= 72.0
 49
    1UNL     C1    1  -0.369   0.349  -0.060
    1UNL     O1    2  -0.242   0.289  -0.056
    1UNL     C2    3  -0.248   0.157   0.005
    1UNL     O2    4  -0.366   0.083  -0.021
    1UNL     C3    5  -0.376  -0.048   0.032
    1UNL     O3    6  -0.492  -0.123  -0.014
    1UNL     C4    7  -0.250  -0.137  -0.013
    1UNL     C5    8  -0.167  -0.053  -0.113
    1UNL     C6    9  -0.039  -0.128  -0.147
    1UNL     C7   10   0.044  -0.162  -0.017
    1UNL     C8   11   0.176  -0.097  -0.023
    1UNL     N1   12   0.300  -0.147  -0.067
    1UNL     C9   13   0.395  -0.054  -0.035
    1UNL    C10   14   0.529  -0.048  -0.055
    1UNL    C11   15   0.587   0.072  -0.032
    1UNL    C12   16   0.521   0.187   0.002
    1UNL    C13   17   0.388   0.182   0.033
    1UNL    C14   18   0.328   0.057   0.011
    1UNL    C15   19   0.189   0.035   0.016
    1UNL    C16   20   0.086   0.121   0.075
    1UNL    C17   21  -0.047   0.042   0.089
    1UNL    C18   22  -0.128   0.078  -0.039
    1UNL     N2   23  -0.027  -0.108   0.100
    1UNL    C19   24  -0.159  -0.177   0.110
    1UNL    C20   25  -0.150  -0.330   0.126
    1UNL     H1   26  -0.385   0.393  -0.163
    1UNL     H2   27  -0.391   0.420   0.019
    1UNL     H3   28  -0.440   0.273  -0.058
    1UNL     H4   29  -0.251   0.163   0.116
    1UNL     H5   30  -0.390  -0.054   0.143
    1UNL     H6   31  -0.573  -0.074   0.007
    1UNL     H7   32  -0.292  -0.228  -0.055
    1UNL     H8   33  -0.226  -0.034  -0.201
    1UNL     H9   34   0.010  -0.073  -0.223
    1UNL    H10   35  -0.070  -0.220  -0.211
    1UNL    H11   36   0.051  -0.268  -0.008
    1UNL    H12   37   0.325  -0.240  -0.117
    1UNL    H13   38   0.575  -0.135  -0.108
    1UNL    H14   39   0.699   0.069  -0.051
    1UNL    H15   40   0.579   0.279   0.014
    1UNL    H16   41   0.327   0.270   0.047
    1UNL    H17   42   0.079   0.211   0.024
    1UNL    H18   43   0.109   0.157   0.180
    1UNL    H19   44  -0.101   0.070   0.179
    1UNL    H20   45  -0.070   0.146  -0.102
    1UNL    H21   46  -0.199  -0.128   0.201
    1UNL    H22   47  -0.069  -0.355   0.192
    1UNL    H23   48  -0.249  -0.370   0.162
    1UNL    H24   49  -0.121  -0.386   0.039
   0.00000   0.00000   0.00000   0.00000   0.00000   0.00000   0.00000   0.00000   0.00000
Generated with MDTraj, t= 73.0
 49
    1UNL     C1    1  -0.380   0.337  -0.026
    1UNL     O1    2  -0.270   0.270  -0.073
    1UNL     C2    3  -0.261   0.148  -0.009
    1UNL     O2    4  -0.380   0.074  -0.044
    1UNL     C3    5  -0.390  -0.050   0.021
    1UNL     O3    6  -0.514  -0.116   0.007
    1UNL     C4    7  -0.258  -0.137  -0.014
    1UNL     C5    8  -0.166  -0.059  -0.114
    1UNL     C6    9  -0.031  -0.133  -0.153
    1UNL     C7   10   0.046  -0.156  -0.017
    1UNL     C8   11   0.180  -0.092  -0.030
    1UNL     N1   12   0.298  -0.139  -0.078
    1UNL     C9   13   0.401  -0.040  -0.054
    1UNL    C10   14   0.538  -0.048  -0.069
    1UNL    C11   15   0.616   0.064  -0.032
    1UNL    C12   16   0.565   0.176   0.031
    1UNL    C13   17   0.426   0.181   0.044
    1UNL    C14   18   0.340   0.075   0.000
    1UNL    C15   19   0.200   0.040   0.013
    1UNL    C16   20   0.094   0.118   0.085
    1UNL    C17   21  -0.045   0.046   0.089
    1UNL    C18   22  -0.134   0.073  -0.040
    1UNL     N2   23  -0.034  -0.099   0.097
    1UNL    C19   24  -0.170  -0.166   0.116
    1UNL    C20   25  -0.173  -0.318   0.150
    1UNL     H1   26  -0.405   0.421  -0.092
    1UNL     H2   27  -0.369   0.365   0.081
    1UNL     H3   28  -0.465   0.267  -0.038
    1UNL     H4   29  -0.289   0.162   0.095
    1UNL     H5   30  -0.381  -0.032   0.133
    1UNL     H6   31  -0.538  -0.112  -0.087
    1UNL     H7   32  -0.282  -0.229  -0.065
    1UNL     H8   33  -0.222  -0.045  -0.204
    1UNL     H9   34   0.023  -0.072  -0.220
    1UNL    H10   35  -0.044  -0.226  -0.220
    1UNL    H11   36   0.061  -0.259   0.007
    1UNL    H12   37   0.312  -0.224  -0.144
    1UNL    H13   38   0.582  -0.137  -0.104
    1UNL    H14   39   0.715   0.053  -0.048
    1UNL    H15   40   0.625   0.253   0.074
    1UNL    H16   41   0.391   0.263   0.102
    1UNL    H17   42   0.080   0.213   0.043
    1UNL    H18   43   0.135   0.144   0.183
    1UNL    H19   44  -0.104   0.081   0.173
    1UNL    H20   45  -0.082   0.141  -0.107
    1UNL    H21   46  -0.218  -0.097   0.187
    1UNL    H22   47  -0.113  -0.339   0.238
    1UNL    H23   48  -0.277  -0.359   0.159
    1UNL    H24   49  -0.116  -0.380   0.085
   0.00000   0.00000   0.00000   0.00000   0.00000   0.00000   0.00000   0.00000   0.00000
Generated with MDTraj, t= 74.0
 49
    1UNL     C1    1  -0.397   0.350  -0.057
    1UNL     O1    2  -0.274   0.288  -0.049
    1UNL     C2    3  -0.275   0.151  -0.003
    1UNL     O2    4  -0.386   0.066  -0.048
    1UNL     C3    5  -0.388  -0.062   0.018
    1UNL     O3    6  -0.490  -0.141  -0.017
    1UNL     C4    7  -0.250  -0.133  -0.008
    1UNL     C5    8  -0.169  -0.050  -0.110
    1UNL     C6    9  -0.039  -0.127  -0.145
    1UNL     C7   10   0.042  -0.154  -0.015
    1UNL     C8   11   0.175  -0.085  -0.029
    1UNL     N1   12   0.290  -0.139  -0.078
    1UNL     C9   13   0.400  -0.048  -0.060
    1UNL    C10   14   0.539  -0.053  -0.097
    1UNL    C11   15   0.614   0.056  -0.050
    1UNL    C12   16   0.552   0.154   0.035
    1UNL    C13   17   0.421   0.159   0.071
    1UNL    C14   18   0.342   0.059   0.017
    1UNL    C15   19   0.202   0.037   0.023
    1UNL    C16   20   0.090   0.123   0.084
    1UNL    C17   21  -0.052   0.059   0.085
    1UNL    C18   22  -0.137   0.084  -0.045
    1UNL     N2   23  -0.034  -0.095   0.103
    1UNL    C19   24  -0.160  -0.156   0.123
    1UNL    C20   25  -0.128  -0.298   0.161
    1UNL     H1   26  -0.390   0.450  -0.094
    1UNL     H2   27  -0.450   0.346   0.045
    1UNL     H3   28  -0.462   0.297  -0.135
    1UNL     H4   29  -0.294   0.155   0.102
    1UNL     H5   30  -0.383  -0.056   0.132
    1UNL     H6   31  -0.494  -0.137  -0.116
    1UNL     H7   32  -0.269  -0.227  -0.057
    1UNL     H8   33  -0.232  -0.026  -0.192
    1UNL     H9   34   0.016  -0.063  -0.212
    1UNL    H10   35  -0.051  -0.223  -0.198
    1UNL    H11   36   0.053  -0.259   0.002
    1UNL    H12   37   0.300  -0.247  -0.088
    1UNL    H13   38   0.587  -0.137  -0.147
    1UNL    H14   39   0.723   0.073  -0.081
    1UNL    H15   40   0.620   0.230   0.068
    1UNL    H16   41   0.379   0.224   0.148
    1UNL    H17   42   0.096   0.219   0.035
    1UNL    H18   43   0.114   0.147   0.181
    1UNL    H19   44  -0.105   0.084   0.176
    1UNL    H20   45  -0.079   0.153  -0.103
    1UNL    H21   46  -0.216  -0.093   0.197
    1UNL    H22   47  -0.033  -0.303   0.213
    1UNL    H23   48  -0.220  -0.334   0.213
    1UNL    H24   49  -0.103  -0.353   0.071
   0.00000   0.00000   0.00000   0.00000   0.00000   0.00000   0.00000   0.00000   0.00000
Generated with MDTraj, t= 75.0
 49
    1UNL     C1    1  -0.409   0.306  -0.089
    1UNL     O1    2  -0.282   0.291  -0.035
    1UNL     C2    3  -0.268   0.163   0.020
    1UNL     O2    4  -0.389   0.087   0.001
    1UNL     C3    5  -0.380  -0.064   0.023
    1UNL     O3    6  -0.481  -0.133  -0.041
    1UNL     C4    7  -0.245  -0.131  -0.016
    1UNL     C5    8  -0.162  -0.048  -0.111
    1UNL     C6    9  -0.034  -0.129  -0.149
    1UNL     C7   10   0.045  -0.153  -0.022
    1UNL     C8   11   0.182  -0.085  -0.034
    1UNL     N1   12   0.301  -0.138  -0.078
    1UNL     C9   13   0.401  -0.049  -0.057
    1UNL    C10   14   0.539  -0.058  -0.070
    1UNL    C11   15   0.617   0.049  -0.041
    1UNL    C12   16   0.559   0.172   0.009
    1UNL    C13   17   0.429   0.175   0.040
    1UNL    C14   18   0.345   0.063   0.006
    1UNL    C15   19   0.205   0.040   0.024
    1UNL    C16   20   0.093   0.117   0.100
    1UNL    C17   21  -0.048   0.052   0.092
    1UNL    C18   22  -0.135   0.085  -0.032
    1UNL     N2   23  -0.026  -0.097   0.095
    1UNL    C19   24  -0.164  -0.159   0.112
    1UNL    C20   25  -0.189  -0.309   0.156
    1UNL     H1   26  -0.422   0.397  -0.141
    1UNL     H2   27  -0.485   0.299  -0.002
    1UNL     H3   28  -0.434   0.224  -0.169
    1UNL     H4   29  -0.264   0.179   0.126
    1UNL     H5   30  -0.388  -0.084   0.136
    1UNL     H6   31  -0.532  -0.065  -0.093
    1UNL     H7   32  -0.266  -0.226  -0.063
    1UNL     H8   33  -0.225  -0.034  -0.194
    1UNL     H9   34   0.039  -0.075  -0.211
    1UNL    H10   35  -0.060  -0.220  -0.194
    1UNL    H11   36   0.057  -0.256   0.003
    1UNL    H12   37   0.315  -0.244  -0.083
    1UNL    H13   38   0.578  -0.152  -0.107
    1UNL    H14   39   0.716   0.048  -0.071
    1UNL    H15   40   0.623   0.260   0.021
    1UNL    H16   41   0.384   0.263   0.081
    1UNL    H17   42   0.081   0.218   0.063
    1UNL    H18   43   0.132   0.127   0.193
    1UNL    H19   44  -0.102   0.071   0.187
    1UNL    H20   45  -0.072   0.152  -0.089
    1UNL    H21   46  -0.217  -0.094   0.189
    1UNL    H22   47  -0.152  -0.327   0.255
    1UNL    H23   48  -0.297  -0.328   0.142
    1UNL    H24   49  -0.120  -0.368   0.095
   0.00000   0.00000   0.00000   0.00000   0.00000   0.00000   0.00000   0.00000   0.00000
Generated with MDTraj, t= 76.0
 49
    1UNL     C1    1  -0.362   0.333  -0.112
    1UNL     O1    2  -0.272   0.291  -0.010
    1UNL     C2    3  -0.270   0.151   0.015
    1UNL     O2    4  -0.385   0.085  -0.029
    1UNL     C3    5  -0.386  -0.059   0.018
    1UNL     O3    6  -0.498  -0.132  -0.030
    1UNL     C4    7  -0.254  -0.133  -0.009
    1UNL     C5    8  -0.167  -0.043  -0.101
    1UNL     C6    9  -0.033  -0.109  -0.142
    1UNL     C7   10   0.043  -0.157  -0.015
    1UNL     C8   11   0.181  -0.096  -0.012
    1UNL     N1   12   0.297  -0.147  -0.064
    1UNL     C9   13   0.397  -0.055  -0.046
    1UNL    C10   14   0.536  -0.058  -0.066
    1UNL    C11   15   0.601   0.060  -0.053
    1UNL    C12   16   0.547   0.182  -0.003
    1UNL    C13   17   0.413   0.181   0.029
    1UNL    C14   18   0.337   0.063   0.006
    1UNL    C15   19   0.198   0.037   0.027
    1UNL    C16   20   0.089   0.119   0.086
    1UNL    C17   21  -0.047   0.050   0.100
    1UNL    C18   22  -0.137   0.086  -0.028
    1UNL     N2   23  -0.033  -0.102   0.107
    1UNL    C19   24  -0.167  -0.174   0.113
    1UNL    C20   25  -0.139  -0.326   0.140
    1UNL     H1   26  -0.351   0.433  -0.141
    1UNL     H2   27  -0.465   0.321  -0.067
    1UNL     H3   28  -0.355   0.269  -0.210
    1UNL     H4   29  -0.270   0.137   0.120
    1UNL     H5   30  -0.407  -0.051   0.131
    1UNL     H6   31  -0.565  -0.074  -0.073
    1UNL     H7   32  -0.284  -0.226  -0.056
    1UNL     H8   33  -0.218  -0.027  -0.191
    1UNL     H9   34   0.033  -0.038  -0.195
    1UNL    H10   35  -0.043  -0.195  -0.197
    1UNL    H11   36   0.058  -0.264  -0.009
    1UNL    H12   37   0.301  -0.227  -0.134
    1UNL    H13   38   0.581  -0.141  -0.113
    1UNL    H14   39   0.709   0.054  -0.076
    1UNL    H15   40   0.610   0.268   0.007
    1UNL    H16   41   0.355   0.268   0.059
    1UNL    H17   42   0.079   0.205   0.021
    1UNL    H18   43   0.116   0.145   0.184
    1UNL    H19   44  -0.102   0.081   0.191
    1UNL    H20   45  -0.090   0.150  -0.102
    1UNL    H21   46  -0.218  -0.136   0.208
    1UNL    H22   47  -0.037  -0.346   0.174
    1UNL    H23   48  -0.212  -0.375   0.203
    1UNL    H24   49  -0.132  -0.385   0.046
   0.00000   0.00000   0.00000   0.00000   0.00000   0.00000   0.00000   0.00000   0.00000
Generated with MDTraj, t= 77.0
 49
    1UNL     C1    1  -0.286   0.308  -0.130
    1UNL     O1    2  -0.259   0.286   0.001
    1UNL     C2    3  -0.272   0.150   0.029
    1UNL     O2    4  -0.385   0.076  -0.031
    1UNL     C3    5  -0.388  -0.066   0.014
    1UNL     O3    6  -0.513  -0.135  -0.010
    1UNL     C4    7  -0.258  -0.141  -0.014
    1UNL     C5    8  -0.169  -0.048  -0.104
    1UNL     C6    9  -0.036  -0.108  -0.147
    1UNL     C7   10   0.039  -0.158  -0.015
    1UNL     C8   11   0.179  -0.093  -0.017
    1UNL     N1   12   0.297  -0.142  -0.073
    1UNL     C9   13   0.396  -0.046  -0.048
    1UNL    C10   14   0.531  -0.041  -0.089
    1UNL    C11   15   0.606   0.079  -0.066
    1UNL    C12   16   0.545   0.186   0.001
    1UNL    C13   17   0.413   0.188   0.044
    1UNL    C14   18   0.338   0.071   0.014
    1UNL    C15   19   0.196   0.034   0.026
    1UNL    C16   20   0.086   0.116   0.088
    1UNL    C17   21  -0.048   0.041   0.098
    1UNL    C18   22  -0.139   0.082  -0.020
    1UNL     N2   23  -0.042  -0.105   0.100
    1UNL    C19   24  -0.176  -0.170   0.114
    1UNL    C20   25  -0.174  -0.313   0.150
    1UNL     H1   26  -0.287   0.413  -0.150
    1UNL     H2   27  -0.388   0.269  -0.145
    1UNL     H3   28  -0.213   0.254  -0.199
    1UNL     H4   29  -0.279   0.139   0.133
    1UNL     H5   30  -0.409  -0.048   0.125
    1UNL     H6   31  -0.537  -0.149  -0.104
    1UNL     H7   32  -0.291  -0.234  -0.059
    1UNL     H8   33  -0.227  -0.020  -0.185
    1UNL     H9   34   0.031  -0.028  -0.182
    1UNL    H10   35  -0.049  -0.177  -0.224
    1UNL    H11   36   0.041  -0.266  -0.024
    1UNL    H12   37   0.311  -0.224  -0.135
    1UNL    H13   38   0.576  -0.128  -0.142
    1UNL    H14   39   0.712   0.087  -0.090
    1UNL    H15   40   0.607   0.267   0.038
    1UNL    H16   41   0.373   0.273   0.093
    1UNL    H17   42   0.064   0.206   0.035
    1UNL    H18   43   0.120   0.130   0.193
    1UNL    H19   44  -0.092   0.086   0.189
    1UNL    H20   45  -0.090   0.155  -0.081
    1UNL    H21   46  -0.213  -0.119   0.208
    1UNL    H22   47  -0.165  -0.348   0.253
    1UNL    H23   48  -0.265  -0.352   0.110
    1UNL    H24   49  -0.092  -0.372   0.103
   0.00000   0.00000   0.00000   0.00000   0.00000   0.00000   0.00000   0.00000   0.00000
Generated with MDTraj, t= 78.0
 49
    1UNL     C1    1  -0.274   0.282  -0.163
    1UNL     O1    2  -0.258   0.290  -0.025
    1UNL     C2    3  -0.257   0.156   0.027
    1UNL     O2    4  -0.380   0.086  -0.005
    1UNL     C3    5  -0.387  -0.055   0.025
    1UNL     O3    6  -0.483  -0.120  -0.060
    1UNL     C4    7  -0.257  -0.130  -0.001
    1UNL     C5    8  -0.167  -0.050  -0.094
    1UNL     C6    9  -0.050  -0.129  -0.135
    1UNL     C7   10   0.041  -0.160  -0.009
    1UNL     C8   11   0.166  -0.084  -0.031
    1UNL     N1   12   0.282  -0.129  -0.095
    1UNL     C9   13   0.385  -0.032  -0.073
    1UNL    C10   14   0.519  -0.027  -0.113
    1UNL    C11   15   0.590   0.083  -0.064
    1UNL    C12   16   0.535   0.186   0.014
    1UNL    C13   17   0.401   0.175   0.052
    1UNL    C14   18   0.329   0.069   0.009
    1UNL    C15   19   0.189   0.036   0.034
    1UNL    C16   20   0.092   0.096   0.130
    1UNL    C17   21  -0.049   0.036   0.123
    1UNL    C18   22  -0.127   0.078  -0.012
    1UNL     N2   23  -0.037  -0.106   0.113
    1UNL    C19   24  -0.174  -0.170   0.124
    1UNL    C20   25  -0.164  -0.323   0.147
    1UNL     H1   26  -0.350   0.359  -0.196
    1UNL     H2   27  -0.316   0.186  -0.181
    1UNL     H3   28  -0.177   0.296  -0.212
    1UNL     H4   29  -0.253   0.170   0.131
    1UNL     H5   30  -0.423  -0.057   0.134
    1UNL     H6   31  -0.568  -0.074  -0.053
    1UNL     H7   32  -0.282  -0.229  -0.038
    1UNL     H8   33  -0.217  -0.015  -0.178
    1UNL     H9   34   0.009  -0.079  -0.209
    1UNL    H10   35  -0.080  -0.222  -0.175
    1UNL    H11   36   0.058  -0.267  -0.004
    1UNL    H12   37   0.305  -0.224  -0.115
    1UNL    H13   38   0.574  -0.103  -0.160
    1UNL    H14   39   0.693   0.092  -0.086
    1UNL    H15   40   0.586   0.273   0.052
    1UNL    H16   41   0.360   0.244   0.128
    1UNL    H17   42   0.088   0.199   0.105
    1UNL    H18   43   0.125   0.068   0.237
    1UNL    H19   44  -0.104   0.068   0.214
    1UNL    H20   45  -0.067   0.133  -0.082
    1UNL    H21   46  -0.216  -0.135   0.221
    1UNL    H22   47  -0.063  -0.350   0.180
    1UNL    H23   48  -0.239  -0.364   0.209
    1UNL    H24   49  -0.170  -0.376   0.050
   0.00000   0.00000   0.00000   0.00000   0.00000   0.00000   0.00000   0.00000   0.00000
Generated with MDTraj, t= 79.0
 49
    1UNL     C1    1  -0.296   0.295  -0.172
    1UNL     O1    2  -0.250   0.289  -0.040
    1UNL     C2    3  -0.252   0.156   0.007
    1UNL     O2    4  -0.373   0.093  -0.032
    1UNL     C3    5  -0.376  -0.040   0.031
    1UNL     O3    6  -0.500  -0.106   0.003
    1UNL     C4    7  -0.256  -0.136  -0.014
    1UNL     C5    8  -0.155  -0.054  -0.106
    1UNL     C6    9  -0.036  -0.146  -0.133
    1UNL     C7   10   0.042  -0.170  -0.002
    1UNL     C8   11   0.173  -0.091  -0.002
    1UNL     N1   12   0.284  -0.122  -0.078
    1UNL     C9   13   0.380  -0.024  -0.069
    1UNL    C10   14   0.507  -0.007  -0.127
    1UNL    C11   15   0.579   0.102  -0.091
    1UNL    C12   16   0.539   0.188   0.012
    1UNL    C13   17   0.416   0.172   0.068
    1UNL    C14   18   0.332   0.068   0.024
    1UNL    C15   19   0.197   0.029   0.065
    1UNL    C16   20   0.090   0.090   0.148
    1UNL    C17   21  -0.055   0.031   0.112
    1UNL    C18   22  -0.119   0.079  -0.029
    1UNL     N2   23  -0.039  -0.118   0.109
    1UNL    C19   24  -0.175  -0.187   0.113
    1UNL    C20   25  -0.186  -0.340   0.130
    1UNL     H1   26  -0.242   0.385  -0.219
    1UNL     H2   27  -0.398   0.315  -0.169
    1UNL     H3   28  -0.273   0.206  -0.223
    1UNL     H4   29  -0.252   0.172   0.111
    1UNL     H5   30  -0.379  -0.021   0.144
    1UNL     H6   31  -0.516  -0.094  -0.095
    1UNL     H7   32  -0.297  -0.220  -0.072
    1UNL     H8   33  -0.201  -0.037  -0.199
    1UNL     H9   34   0.036  -0.104  -0.195
    1UNL    H10   35  -0.066  -0.242  -0.172
    1UNL    H11   36   0.061  -0.274   0.028
    1UNL    H12   37   0.285  -0.204  -0.132
    1UNL    H13   38   0.536  -0.081  -0.202
    1UNL    H14   39   0.669   0.128  -0.151
    1UNL    H15   40   0.595   0.280   0.031
    1UNL    H16   41   0.381   0.233   0.148
    1UNL    H17   42   0.089   0.195   0.138
    1UNL    H18   43   0.124   0.050   0.254
    1UNL    H19   44  -0.118   0.068   0.195
    1UNL    H20   45  -0.044   0.131  -0.085
    1UNL    H21   46  -0.235  -0.145   0.195
    1UNL    H22   47  -0.150  -0.358   0.233
    1UNL    H23   48  -0.285  -0.376   0.111
    1UNL    H24   49  -0.111  -0.386   0.063
   0.00000   0.00000   0.00000   0.00000   0.00000   0.00000   0.00000   0.00000   0.00000
Generated with MDTraj, t= 80.0
 49
    1UNL     C1    1  -0.300   0.297  -0.185
    1UNL     O1    2  -0.216   0.291  -0.071
    1UNL     C2    3  -0.233   0.167   0.013
    1UNL     O2    4  -0.358   0.099  -0.010
    1UNL     C3    5  -0.370  -0.033   0.038
    1UNL     O3    6  -0.497  -0.089   0.029
    1UNL     C4    7  -0.257  -0.135  -0.014
    1UNL     C5    8  -0.157  -0.053  -0.101
    1UNL     C6    9  -0.027  -0.127  -0.146
    1UNL     C7   10   0.040  -0.174  -0.008
    1UNL     C8   11   0.179  -0.110  -0.002
    1UNL     N1   12   0.293  -0.146  -0.073
    1UNL     C9   13   0.376  -0.034  -0.056
    1UNL    C10   14   0.507  -0.005  -0.114
    1UNL    C11   15   0.560   0.115  -0.085
    1UNL    C12   16   0.500   0.211   0.004
    1UNL    C13   17   0.384   0.187   0.067
    1UNL    C14   18   0.318   0.065   0.034
    1UNL    C15   19   0.194   0.005   0.068
    1UNL    C16   20   0.084   0.080   0.135
    1UNL    C17   21  -0.057   0.021   0.110
    1UNL    C18   22  -0.119   0.072  -0.023
    1UNL     N2   23  -0.043  -0.131   0.107
    1UNL    C19   24  -0.177  -0.193   0.108
    1UNL    C20   25  -0.168  -0.344   0.113
    1UNL     H1   26  -0.236   0.355  -0.260
    1UNL     H2   27  -0.386   0.352  -0.166
    1UNL     H3   28  -0.324   0.204  -0.221
    1UNL     H4   29  -0.223   0.209   0.108
    1UNL     H5   30  -0.346  -0.025   0.147
    1UNL     H6   31  -0.531  -0.066  -0.062
    1UNL     H7   32  -0.290  -0.213  -0.084
    1UNL     H8   33  -0.219  -0.014  -0.179
    1UNL     H9   34   0.041  -0.061  -0.184
    1UNL    H10   35  -0.042  -0.205  -0.219
    1UNL    H11   36   0.046  -0.284  -0.011
    1UNL    H12   37   0.284  -0.195  -0.156
    1UNL    H13   38   0.552  -0.075  -0.184
    1UNL    H14   39   0.648   0.145  -0.132
    1UNL    H15   40   0.557   0.299   0.019
    1UNL    H16   41   0.326   0.258   0.123
    1UNL    H17   42   0.099   0.179   0.095
    1UNL    H18   43   0.104   0.072   0.250
    1UNL    H19   44  -0.118   0.033   0.201
    1UNL    H20   45  -0.045   0.125  -0.081
    1UNL    H21   46  -0.226  -0.158   0.199
    1UNL    H22   47  -0.094  -0.367   0.191
    1UNL    H23   48  -0.267  -0.382   0.135
    1UNL    H24   49  -0.138  -0.387   0.018
   0.00000   0.00000   0.00000   0.00000   0.00000   0.00000   0.00000   0.00000   0.00000
Generated with MDTraj, t= 81.0
 49
    1UNL     C1    1  -0.290   0.272  -0.192
    1UNL     O1    2  -0.206   0.279  -0.082
    1UNL     C2    3  -0.221   0.163   0.008
    1UNL     O2    4  -0.356   0.101  -0.004
    1UNL     C3    5  -0.378  -0.027   0.052
    1UNL     O3    6  -0.507  -0.080   0.023
    1UNL     C4    7  -0.269  -0.127  -0.008
    1UNL     C5    8  -0.157  -0.052  -0.094
    1UNL     C6    9  -0.032  -0.136  -0.132
    1UNL     C7   10   0.042  -0.181  -0.004
    1UNL     C8   11   0.173  -0.100  -0.006
    1UNL     N1   12   0.282  -0.118  -0.087
    1UNL     C9   13   0.380  -0.024  -0.063
    1UNL    C10   14   0.518  -0.006  -0.104
    1UNL    C11   15   0.579   0.113  -0.073
    1UNL    C12   16   0.511   0.217  -0.002
    1UNL    C13   17   0.382   0.198   0.040
    1UNL    C14   18   0.316   0.074   0.020
    1UNL    C15   19   0.188   0.020   0.060
    1UNL    C16   20   0.084   0.074   0.152
    1UNL    C17   21  -0.054   0.006   0.130
    1UNL    C18   22  -0.110   0.065  -0.006
    1UNL     N2   23  -0.041  -0.147   0.116
    1UNL    C19   24  -0.185  -0.199   0.108
    1UNL    C20   25  -0.192  -0.346   0.083
    1UNL     H1   26  -0.297   0.381  -0.222
    1UNL     H2   27  -0.383   0.230  -0.171
    1UNL     H3   28  -0.244   0.220  -0.269
    1UNL     H4   29  -0.216   0.204   0.104
    1UNL     H5   30  -0.368  -0.027   0.162
    1UNL     H6   31  -0.543  -0.028  -0.052
    1UNL     H7   32  -0.322  -0.191  -0.081
    1UNL     H8   33  -0.203  -0.004  -0.181
    1UNL     H9   34   0.031  -0.074  -0.185
    1UNL    H10   35  -0.045  -0.220  -0.197
    1UNL    H11   36   0.050  -0.291   0.009
    1UNL    H12   37   0.303  -0.197  -0.137
    1UNL    H13   38   0.566  -0.078  -0.167
    1UNL    H14   39   0.691   0.131  -0.084
    1UNL    H15   40   0.561   0.313   0.023
    1UNL    H16   41   0.337   0.286   0.086
    1UNL    H17   42   0.066   0.182   0.127
    1UNL    H18   43   0.134   0.062   0.255
    1UNL    H19   44  -0.123   0.022   0.213
    1UNL    H20   45  -0.028   0.107  -0.062
    1UNL    H21   46  -0.230  -0.168   0.203
    1UNL    H22   47  -0.125  -0.398   0.152
    1UNL    H23   48  -0.295  -0.385   0.094
    1UNL    H24   49  -0.163  -0.380  -0.015
   0.00000   0.00000   0.00000   0.00000   0.00000   0.00000   0.00000   0.00000   0.00000
Generated with MDTraj, t= 82.0
 49
    1UNL     C1    1  -0.235   0.284  -0.194
    1UNL     O1    2  -0.236   0.289  -0.054
    1UNL     C2    3  -0.248   0.158   0.005
    1UNL     O2    4  -0.372   0.094  -0.027
    1UNL     C3    5  -0.369  -0.033   0.041
    1UNL     O3    6  -0.498  -0.099   0.045
    1UNL     C4    7  -0.251  -0.134  -0.008
    1UNL     C5    8  -0.159  -0.053  -0.107
    1UNL     C6    9  -0.044  -0.139  -0.141
    1UNL     C7   10   0.040  -0.171  -0.015
    1UNL     C8   11   0.169  -0.095  -0.013
    1UNL     N1   12   0.281  -0.123  -0.096
    1UNL     C9   13   0.376  -0.029  -0.059
    1UNL    C10   14   0.495   0.001  -0.126
    1UNL    C11   15   0.557   0.117  -0.082
    1UNL    C12   16   0.512   0.200   0.017
    1UNL    C13   17   0.395   0.166   0.081
    1UNL    C14   18   0.327   0.055   0.036
    1UNL    C15   19   0.190   0.020   0.060
    1UNL    C16   20   0.084   0.093   0.137
    1UNL    C17   21  -0.056   0.028   0.118
    1UNL    C18   22  -0.122   0.073  -0.023
    1UNL     N2   23  -0.039  -0.120   0.105
    1UNL    C19   24  -0.171  -0.187   0.114
    1UNL    C20   25  -0.176  -0.343   0.114
    1UNL     H1   26  -0.226   0.391  -0.228
    1UNL     H2   27  -0.320   0.234  -0.233
    1UNL     H3   28  -0.152   0.228  -0.231
    1UNL     H4   29  -0.253   0.171   0.109
    1UNL     H5   30  -0.342  -0.011   0.146
    1UNL     H6   31  -0.516  -0.111  -0.049
    1UNL     H7   32  -0.288  -0.217  -0.072
    1UNL     H8   33  -0.214  -0.027  -0.203
    1UNL     H9   34   0.026  -0.096  -0.211
    1UNL    H10   35  -0.081  -0.226  -0.189
    1UNL    H11   36   0.066  -0.279   0.002
    1UNL    H12   37   0.304  -0.200  -0.153
    1UNL    H13   38   0.539  -0.064  -0.204
    1UNL    H14   39   0.646   0.135  -0.129
    1UNL    H15   40   0.570   0.282   0.047
    1UNL    H16   41   0.362   0.223   0.163
    1UNL    H17   42   0.089   0.203   0.095
    1UNL    H18   43   0.104   0.089   0.248
    1UNL    H19   44  -0.126   0.048   0.199
    1UNL    H20   45  -0.047   0.126  -0.080
    1UNL    H21   46  -0.211  -0.146   0.207
    1UNL    H22   47  -0.112  -0.370   0.198
    1UNL    H23   48  -0.278  -0.380   0.141
    1UNL    H24   49  -0.140  -0.399   0.031
   0.00000   0.00000   0.00000   0.00000   0.00000   0.00000   0.00000   0.00000   0.00000
Generated with MDTraj, t= 83.0
 49
    1UNL     C1    1  -0.257   0.272  -0.183
    1UNL     O1    2  -0.247   0.282  -0.046
    1UNL     C2    3  -0.257   0.162   0.021
    1UNL     O2    4  -0.374   0.089  -0.027
    1UNL     C3    5  -0.379  -0.041   0.030
    1UNL     O3    6  -0.506  -0.097  -0.001
    1UNL     C4    7  -0.260  -0.135  -0.009
    1UNL     C5    8  -0.162  -0.054  -0.098
    1UNL     C6    9  -0.044  -0.143  -0.135
    1UNL     C7   10   0.048  -0.165  -0.012
    1UNL     C8   11   0.173  -0.082  -0.018
    1UNL     N1   12   0.286  -0.130  -0.089
    1UNL     C9   13   0.380  -0.023  -0.081
    1UNL    C10   14   0.505  -0.004  -0.133
    1UNL    C11   15   0.577   0.098  -0.075
    1UNL    C12   16   0.533   0.181   0.031
    1UNL    C13   17   0.402   0.173   0.080
    1UNL    C14   18   0.321   0.077   0.014
    1UNL    C15   19   0.190   0.037   0.047
    1UNL    C16   20   0.088   0.088   0.140
    1UNL    C17   21  -0.049   0.025   0.115
    1UNL    C18   22  -0.126   0.076  -0.013
    1UNL     N2   23  -0.032  -0.121   0.106
    1UNL    C19   24  -0.174  -0.177   0.118
    1UNL    C20   25  -0.171  -0.334   0.133
    1UNL     H1   26  -0.286   0.371  -0.215
    1UNL     H2   27  -0.325   0.190  -0.212
    1UNL     H3   28  -0.160   0.242  -0.227
    1UNL     H4   29  -0.256   0.176   0.126
    1UNL     H5   30  -0.367  -0.042   0.139
    1UNL     H6   31  -0.568  -0.024   0.014
    1UNL     H7   32  -0.306  -0.222  -0.063
    1UNL     H8   33  -0.214  -0.004  -0.187
    1UNL     H9   34   0.010  -0.097  -0.220
    1UNL    H10   35  -0.080  -0.234  -0.169
    1UNL    H11   36   0.082  -0.272   0.000
    1UNL    H12   37   0.283  -0.203  -0.161
    1UNL    H13   38   0.542  -0.079  -0.196
    1UNL    H14   39   0.678   0.119  -0.119
    1UNL    H15   40   0.604   0.258   0.069
    1UNL    H16   41   0.379   0.232   0.172
    1UNL    H17   42   0.072   0.207   0.135
    1UNL    H18   43   0.126   0.060   0.241
    1UNL    H19   44  -0.114   0.055   0.195
    1UNL    H20   45  -0.056   0.139  -0.066
    1UNL    H21   46  -0.212  -0.137   0.212
    1UNL    H22   47  -0.114  -0.352   0.223
    1UNL    H23   48  -0.275  -0.365   0.158
    1UNL    H24   49  -0.133  -0.390   0.051
   0.00000   0.00000   0.00000   0.00000   0.00000   0.00000   0.00000   0.00000   0.00000
Generated with MDTraj, t= 84.0
 49
    1UNL     C1    1  -0.312   0.298  -0.166
    1UNL     O1    2  -0.245   0.290  -0.043
    1UNL     C2    3  -0.249   0.159   0.019
    1UNL     O2    4  -0.378   0.089  -0.004
    1UNL     C3    5  -0.388  -0.052   0.031
    1UNL     O3    6  -0.501  -0.117  -0.035
    1UNL     C4    7  -0.260  -0.132  -0.004
    1UNL     C5    8  -0.161  -0.049  -0.091
    1UNL     C6    9  -0.041  -0.133  -0.140
    1UNL     C7   10   0.045  -0.169  -0.015
    1UNL     C8   11   0.170  -0.088  -0.025
    1UNL     N1   12   0.287  -0.127  -0.083
    1UNL     C9   13   0.382  -0.029  -0.059
    1UNL    C10   14   0.523  -0.025  -0.098
    1UNL    C11   15   0.601   0.080  -0.061
    1UNL    C12   16   0.540   0.185   0.013
    1UNL    C13   17   0.405   0.186   0.041
    1UNL    C14   18   0.320   0.076   0.009
    1UNL    C15   19   0.187   0.036   0.039
    1UNL    C16   20   0.091   0.103   0.132
    1UNL    C17   21  -0.048   0.028   0.120
    1UNL    C18   22  -0.120   0.076  -0.011
    1UNL     N2   23  -0.035  -0.128   0.110
    1UNL    C19   24  -0.173  -0.177   0.118
    1UNL    C20   25  -0.166  -0.329   0.129
    1UNL     H1   26  -0.279   0.380  -0.222
    1UNL     H2   27  -0.423   0.299  -0.148
    1UNL     H3   28  -0.301   0.196  -0.219
    1UNL     H4   29  -0.245   0.180   0.125
    1UNL     H5   30  -0.392  -0.059   0.140
    1UNL     H6   31  -0.565  -0.041  -0.036
    1UNL     H7   32  -0.297  -0.221  -0.061
    1UNL     H8   33  -0.214  -0.007  -0.186
    1UNL     H9   34   0.020  -0.070  -0.210
    1UNL    H10   35  -0.077  -0.209  -0.201
    1UNL    H11   36   0.056  -0.280  -0.007
    1UNL    H12   37   0.319  -0.220  -0.119
    1UNL    H13   38   0.566  -0.106  -0.161
    1UNL    H14   39   0.706   0.076  -0.091
    1UNL    H15   40   0.597   0.272   0.024
    1UNL    H16   41   0.358   0.268   0.082
    1UNL    H17   42   0.084   0.216   0.110
    1UNL    H18   43   0.116   0.096   0.242
    1UNL    H19   44  -0.114   0.052   0.200
    1UNL    H20   45  -0.057   0.133  -0.079
    1UNL    H21   46  -0.210  -0.142   0.214
    1UNL    H22   47  -0.115  -0.356   0.221
    1UNL    H23   48  -0.270  -0.363   0.150
    1UNL    H24   49  -0.130  -0.383   0.042
   0.00000   0.00000   0.00000   0.00000   0.00000   0.00000   0.00000   0.00000   0.00000
Generated with MDTraj, t= 85.0
 49
    1UNL     C1    1  -0.336   0.334  -0.128
    1UNL     O1    2  -0.266   0.294  -0.014
    1UNL     C2    3  -0.267   0.149   0.013
    1UNL     O2    4  -0.385   0.075  -0.031
    1UNL     C3    5  -0.383  -0.060   0.026
    1UNL     O3    6  -0.505  -0.136  -0.002
    1UNL     C4    7  -0.251  -0.136  -0.021
    1UNL     C5    8  -0.164  -0.043  -0.111
    1UNL     C6    9  -0.031  -0.118  -0.147
    1UNL     C7   10   0.044  -0.157  -0.011
    1UNL     C8   11   0.182  -0.102  -0.009
    1UNL     N1   12   0.302  -0.146  -0.061
    1UNL     C9   13   0.398  -0.050  -0.036
    1UNL    C10   14   0.525  -0.043  -0.082
    1UNL    C11   15   0.592   0.077  -0.063
    1UNL    C12   16   0.532   0.193  -0.006
    1UNL    C13   17   0.407   0.181   0.040
    1UNL    C14   18   0.339   0.057   0.032
    1UNL    C15   19   0.207   0.018   0.055
    1UNL    C16   20   0.098   0.111   0.083
    1UNL    C17   21  -0.043   0.043   0.090
    1UNL    C18   22  -0.137   0.082  -0.030
    1UNL     N2   23  -0.031  -0.105   0.102
    1UNL    C19   24  -0.173  -0.161   0.108
    1UNL    C20   25  -0.164  -0.315   0.131
    1UNL     H1   26  -0.348   0.438  -0.134
    1UNL     H2   27  -0.437   0.276  -0.127
    1UNL     H3   28  -0.287   0.288  -0.223
    1UNL     H4   29  -0.262   0.158   0.124
    1UNL     H5   30  -0.380  -0.054   0.134
    1UNL     H6   31  -0.570  -0.070  -0.039
    1UNL     H7   32  -0.291  -0.221  -0.083
    1UNL     H8   33  -0.221  -0.019  -0.213
    1UNL     H9   34   0.034  -0.043  -0.200
    1UNL    H10   35  -0.043  -0.198  -0.213
    1UNL    H11   36   0.044  -0.270  -0.001
    1UNL    H12   37   0.314  -0.233  -0.123
    1UNL    H13   38   0.557  -0.132  -0.127
    1UNL    H14   39   0.693   0.087  -0.086
    1UNL    H15   40   0.586   0.288   0.002
    1UNL    H16   41   0.349   0.272   0.063
    1UNL    H17   42   0.091   0.183   0.003
    1UNL    H18   43   0.127   0.181   0.170
    1UNL    H19   44  -0.090   0.061   0.184
    1UNL    H20   45  -0.086   0.150  -0.098
    1UNL    H21   46  -0.226  -0.113   0.190
    1UNL    H22   47  -0.100  -0.344   0.214
    1UNL    H23   48  -0.252  -0.374   0.157
    1UNL    H24   49  -0.124  -0.367   0.042
   0.00000   0.00000   0.00000   0.00000   0.00000   0.00000   0.00000   0.00000   0.00000
Generated with MDTraj, t= 86.0
 49
    1UNL     C1    1  -0.341   0.308  -0.126
    1UNL     O1    2  -0.293   0.282   0.001
    1UNL     C2    3  -0.278   0.139   0.036
    1UNL     O2    4  -0.389   0.068  -0.029
    1UNL     C3    5  -0.395  -0.065   0.017
    1UNL     O3    6  -0.506  -0.136  -0.041
    1UNL     C4    7  -0.249  -0.131  -0.012
    1UNL     C5    8  -0.166  -0.038  -0.109
    1UNL     C6    9  -0.036  -0.119  -0.150
    1UNL     C7   10   0.045  -0.146  -0.018
    1UNL     C8   11   0.180  -0.083  -0.013
    1UNL     N1   12   0.292  -0.142  -0.066
    1UNL     C9   13   0.398  -0.045  -0.052
    1UNL    C10   14   0.535  -0.058  -0.075
    1UNL    C11   15   0.616   0.047  -0.044
    1UNL    C12   16   0.556   0.169   0.003
    1UNL    C13   17   0.422   0.181   0.024
    1UNL    C14   18   0.340   0.073   0.000
    1UNL    C15   19   0.203   0.046   0.027
    1UNL    C16   20   0.099   0.129   0.097
    1UNL    C17   21  -0.047   0.055   0.102
    1UNL    C18   22  -0.141   0.092  -0.024
    1UNL     N2   23  -0.031  -0.096   0.100
    1UNL    C19   24  -0.164  -0.158   0.114
    1UNL    C20   25  -0.160  -0.311   0.155
    1UNL     H1   26  -0.396   0.399  -0.126
    1UNL     H2   27  -0.407   0.219  -0.161
    1UNL     H3   28  -0.256   0.317  -0.203
    1UNL     H4   29  -0.269   0.149   0.148
    1UNL     H5   30  -0.396  -0.066   0.123
    1UNL     H6   31  -0.562  -0.070  -0.089
    1UNL     H7   32  -0.261  -0.224  -0.074
    1UNL     H8   33  -0.225  -0.016  -0.210
    1UNL     H9   34   0.022  -0.072  -0.230
    1UNL    H10   35  -0.066  -0.216  -0.189
    1UNL    H11   36   0.060  -0.257   0.001
    1UNL    H12   37   0.286  -0.229  -0.132
    1UNL    H13   38   0.582  -0.152  -0.108
    1UNL    H14   39   0.729   0.034  -0.044
    1UNL    H15   40   0.621   0.253   0.026
    1UNL    H16   41   0.371   0.272   0.054
    1UNL    H17   42   0.099   0.227   0.060
    1UNL    H18   43   0.140   0.154   0.204
    1UNL    H19   44  -0.092   0.070   0.198
    1UNL    H20   45  -0.098   0.175  -0.077
    1UNL    H21   46  -0.210  -0.108   0.199
    1UNL    H22   47  -0.103  -0.344   0.242
    1UNL    H23   48  -0.254  -0.358   0.179
    1UNL    H24   49  -0.124  -0.370   0.066
   0.00000   0.00000   0.00000   0.00000   0.00000   0.00000   0.00000   0.00000   0.00000
Generated with MDTraj, t= 87.0
 49
    1UNL     C1    1  -0.327   0.301  -0.133
    1UNL     O1    2  -0.292   0.286  -0.004
    1UNL     C2    3  -0.273   0.149   0.044
    1UNL     O2    4  -0.399   0.067   0.008
    1UNL     C3    5  -0.390  -0.074   0.027
    1UNL     O3    6  -0.471  -0.140  -0.072
    1UNL     C4    7  -0.245  -0.134  -0.007
    1UNL     C5    8  -0.181  -0.044  -0.103
    1UNL     C6    9  -0.055  -0.112  -0.157
    1UNL     C7   10   0.039  -0.138  -0.033
    1UNL     C8   11   0.173  -0.078  -0.041
    1UNL     N1   12   0.290  -0.146  -0.067
    1UNL     C9   13   0.393  -0.054  -0.053
    1UNL    C10   14   0.530  -0.053  -0.086
    1UNL    C11   15   0.613   0.052  -0.040
    1UNL    C12   16   0.551   0.155   0.028
    1UNL    C13   17   0.416   0.172   0.045
    1UNL    C14   18   0.334   0.066  -0.001
    1UNL    C15   19   0.193   0.048   0.012
    1UNL    C16   20   0.090   0.138   0.072
    1UNL    C17   21  -0.044   0.054   0.095
    1UNL    C18   22  -0.144   0.087  -0.021
    1UNL     N2   23  -0.022  -0.090   0.103
    1UNL    C19   24  -0.152  -0.152   0.118
    1UNL    C20   25  -0.147  -0.303   0.174
    1UNL     H1   26  -0.274   0.388  -0.174
    1UNL     H2   27  -0.439   0.312  -0.137
    1UNL     H3   28  -0.303   0.209  -0.191
    1UNL     H4   29  -0.261   0.154   0.156
    1UNL     H5   30  -0.424  -0.097   0.124
    1UNL     H6   31  -0.485  -0.068  -0.135
    1UNL     H7   32  -0.279  -0.230  -0.055
    1UNL     H8   33  -0.259  -0.019  -0.187
    1UNL     H9   34  -0.002  -0.052  -0.228
    1UNL    H10   35  -0.089  -0.204  -0.210
    1UNL    H11   36   0.047  -0.248  -0.009
    1UNL    H12   37   0.293  -0.254  -0.074
    1UNL    H13   38   0.574  -0.141  -0.132
    1UNL    H14   39   0.714   0.045  -0.051
    1UNL    H15   40   0.612   0.234   0.064
    1UNL    H16   41   0.376   0.249   0.103
    1UNL    H17   42   0.088   0.230   0.023
    1UNL    H18   43   0.134   0.176   0.172
    1UNL    H19   44  -0.085   0.084   0.190
    1UNL    H20   45  -0.089   0.149  -0.090
    1UNL    H21   46  -0.200  -0.105   0.205
    1UNL    H22   47  -0.084  -0.319   0.263
    1UNL    H23   48  -0.242  -0.340   0.206
    1UNL    H24   49  -0.107  -0.363   0.088
   0.00000   0.00000   0.00000   0.00000   0.00000   0.00000   0.00000   0.00000   0.00000
Generated with MDTraj, t= 88.0
 49
    1UNL     C1    1  -0.356   0.317  -0.117
    1UNL     O1    2  -0.284   0.289  -0.003
    1UNL     C2    3  -0.280   0.148   0.022
    1UNL     O2    4  -0.390   0.065  -0.037
    1UNL     C3    5  -0.389  -0.067   0.028
    1UNL     O3    6  -0.506  -0.146  -0.006
    1UNL     C4    7  -0.254  -0.137  -0.010
    1UNL     C5    8  -0.173  -0.045  -0.107
    1UNL     C6    9  -0.043  -0.113  -0.154
    1UNL     C7   10   0.037  -0.153  -0.027
    1UNL     C8   11   0.180  -0.087  -0.041
    1UNL     N1   12   0.304  -0.136  -0.078
    1UNL     C9   13   0.406  -0.046  -0.048
    1UNL    C10   14   0.540  -0.045  -0.082
    1UNL    C11   15   0.618   0.053  -0.032
    1UNL    C12   16   0.568   0.167   0.031
    1UNL    C13   17   0.432   0.172   0.045
    1UNL    C14   18   0.346   0.066   0.009
    1UNL    C15   19   0.205   0.039   0.015
    1UNL    C16   20   0.099   0.124   0.076
    1UNL    C17   21  -0.043   0.048   0.087
    1UNL    C18   22  -0.145   0.091  -0.030
    1UNL     N2   23  -0.034  -0.097   0.096
    1UNL    C19   24  -0.175  -0.153   0.116
    1UNL    C20   25  -0.170  -0.302   0.157
    1UNL     H1   26  -0.334   0.420  -0.161
    1UNL     H2   27  -0.460   0.303  -0.087
    1UNL     H3   28  -0.333   0.242  -0.189
    1UNL     H4   29  -0.295   0.136   0.132
    1UNL     H5   30  -0.396  -0.053   0.132
    1UNL     H6   31  -0.522  -0.139  -0.102
    1UNL     H7   32  -0.275  -0.231  -0.065
    1UNL     H8   33  -0.236  -0.012  -0.196
    1UNL     H9   34   0.010  -0.060  -0.229
    1UNL    H10   35  -0.071  -0.210  -0.205
    1UNL    H11   36   0.060  -0.263  -0.029
    1UNL    H12   37   0.330  -0.236  -0.103
    1UNL    H13   38   0.585  -0.124  -0.134
    1UNL    H14   39   0.728   0.055  -0.055
    1UNL    H15   40   0.630   0.255   0.057
    1UNL    H16   41   0.379   0.261   0.089
    1UNL    H17   42   0.093   0.214   0.022
    1UNL    H18   43   0.138   0.163   0.173
    1UNL    H19   44  -0.089   0.074   0.182
    1UNL    H20   45  -0.108   0.165  -0.099
    1UNL    H21   46  -0.215  -0.110   0.210
    1UNL    H22   47  -0.106  -0.322   0.247
    1UNL    H23   48  -0.266  -0.343   0.185
    1UNL    H24   49  -0.128  -0.354   0.069
   0.00000   0.00000   0.00000   0.00000   0.00000   0.00000   0.00000   0.00000   0.00000
Generated with MDTraj, t= 89.0
 49
    1UNL     C1    1  -0.376   0.315  -0.123
    1UNL     O1    2  -0.259   0.290  -0.041
    1UNL     C2    3  -0.261   0.158   0.011
    1UNL     O2    4  -0.377   0.084  -0.023
    1UNL     C3    5  -0.379  -0.054   0.033
    1UNL     O3    6  -0.502  -0.130   0.007
    1UNL     C4    7  -0.254  -0.132  -0.006
    1UNL     C5    8  -0.170  -0.040  -0.108
    1UNL     C6    9  -0.044  -0.115  -0.147
    1UNL     C7   10   0.041  -0.153  -0.024
    1UNL     C8   11   0.174  -0.089  -0.023
    1UNL     N1   12   0.292  -0.143  -0.076
    1UNL     C9   13   0.389  -0.053  -0.045
    1UNL    C10   14   0.530  -0.054  -0.065
    1UNL    C11   15   0.606   0.058  -0.037
    1UNL    C12   16   0.540   0.173   0.016
    1UNL    C13   17   0.411   0.179   0.040
    1UNL    C14   18   0.331   0.065   0.012
    1UNL    C15   19   0.197   0.035   0.034
    1UNL    C16   20   0.092   0.122   0.092
    1UNL    C17   21  -0.043   0.043   0.095
    1UNL    C18   22  -0.133   0.088  -0.032
    1UNL     N2   23  -0.029  -0.103   0.104
    1UNL    C19   24  -0.166  -0.174   0.114
    1UNL    C20   25  -0.130  -0.322   0.117
    1UNL     H1   26  -0.458   0.383  -0.080
    1UNL     H2   27  -0.417   0.221  -0.142
    1UNL     H3   28  -0.345   0.358  -0.213
    1UNL     H4   29  -0.268   0.165   0.122
    1UNL     H5   30  -0.376  -0.043   0.137
    1UNL     H6   31  -0.553  -0.084  -0.064
    1UNL     H7   32  -0.293  -0.215  -0.070
    1UNL     H8   33  -0.238  -0.026  -0.194
    1UNL     H9   34   0.019  -0.056  -0.207
    1UNL    H10   35  -0.065  -0.204  -0.216
    1UNL    H11   36   0.059  -0.263  -0.016
    1UNL    H12   37   0.298  -0.206  -0.159
    1UNL    H13   38   0.582  -0.141  -0.110
    1UNL    H14   39   0.710   0.066  -0.053
    1UNL    H15   40   0.597   0.260   0.024
    1UNL    H16   41   0.366   0.269   0.063
    1UNL    H17   42   0.092   0.216   0.041
    1UNL    H18   43   0.121   0.149   0.189
    1UNL    H19   44  -0.089   0.077   0.187
    1UNL    H20   45  -0.070   0.153  -0.089
    1UNL    H21   46  -0.206  -0.150   0.214
    1UNL    H22   47  -0.042  -0.346   0.184
    1UNL    H23   48  -0.203  -0.390   0.161
    1UNL    H24   49  -0.106  -0.362   0.019
   0.00000   0.00000   0.00000   0.00000   0.00000   0.00000   0.00000   0.00000   0.00000
Generated with MDTraj, t= 90.0
 49
    1UNL     C1    1  -0.377   0.305  -0.130
    1UNL     O1    2  -0.246   0.283  -0.076
    1UNL     C2    3  -0.247   0.162   0.008
    1UNL     O2    4  -0.374   0.094  -0.006
    1UNL     C3    5  -0.378  -0.043   0.041
    1UNL     O3    6  -0.502  -0.111   0.018
    1UNL     C4    7  -0.261  -0.127  -0.012
    1UNL     C5    8  -0.166  -0.054  -0.110
    1UNL     C6    9  -0.038  -0.131  -0.150
    1UNL     C7   10   0.048  -0.160  -0.024
    1UNL     C8   11   0.187  -0.094  -0.019
    1UNL     N1   12   0.301  -0.140  -0.084
    1UNL     C9   13   0.391  -0.035  -0.060
    1UNL    C10   14   0.534  -0.031  -0.086
    1UNL    C11   15   0.609   0.077  -0.049
    1UNL    C12   16   0.544   0.182   0.019
    1UNL    C13   17   0.410   0.182   0.056
    1UNL    C14   18   0.332   0.071   0.015
    1UNL    C15   19   0.198   0.032   0.044
    1UNL    C16   20   0.089   0.106   0.118
    1UNL    C17   21  -0.047   0.034   0.099
    1UNL    C18   22  -0.122   0.072  -0.031
    1UNL     N2   23  -0.033  -0.117   0.098
    1UNL    C19   24  -0.174  -0.181   0.106
    1UNL    C20   25  -0.182  -0.332   0.121
    1UNL     H1   26  -0.458   0.231  -0.098
    1UNL     H2   27  -0.368   0.288  -0.231
    1UNL     H3   28  -0.407   0.400  -0.101
    1UNL     H4   29  -0.252   0.202   0.110
    1UNL     H5   30  -0.362  -0.035   0.144
    1UNL     H6   31  -0.571  -0.047   0.050
    1UNL     H7   32  -0.319  -0.209  -0.059
    1UNL     H8   33  -0.223  -0.014  -0.193
    1UNL     H9   34   0.022  -0.078  -0.219
    1UNL    H10   35  -0.061  -0.228  -0.203
    1UNL    H11   36   0.064  -0.269  -0.013
    1UNL    H12   37   0.311  -0.215  -0.153
    1UNL    H13   38   0.586  -0.109  -0.132
    1UNL    H14   39   0.717   0.082  -0.047
    1UNL    H15   40   0.605   0.269   0.048
    1UNL    H16   41   0.364   0.269   0.107
    1UNL    H17   42   0.078   0.206   0.079
    1UNL    H18   43   0.113   0.113   0.215
    1UNL    H19   44  -0.110   0.052   0.189
    1UNL    H20   45  -0.057   0.121  -0.100
    1UNL    H21   46  -0.220  -0.150   0.202
    1UNL    H22   47  -0.158  -0.373   0.223
    1UNL    H23   48  -0.288  -0.364   0.117
    1UNL    H24   49  -0.131  -0.399   0.055
   0.00000   0.00000   0.00000   0.00000   0.00000   0.00000   0.00000   0.00000   0.00000
Generated with MDTraj, t= 91.0
 49
    1UNL     C1    1  -0.340   0.344  -0.139
    1UNL     O1    2  -0.226   0.285  -0.084
    1UNL     C2    3  -0.252   0.162  -0.013
    1UNL     O2    4  -0.366   0.083  -0.041
    1UNL     C3    5  -0.370  -0.039   0.043
    1UNL     O3    6  -0.495  -0.097   0.037
    1UNL     C4    7  -0.256  -0.139  -0.002
    1UNL     C5    8  -0.165  -0.060  -0.109
    1UNL     C6    9  -0.043  -0.137  -0.144
    1UNL     C7   10   0.041  -0.170  -0.014
    1UNL     C8   11   0.172  -0.095  -0.012
    1UNL     N1   12   0.286  -0.123  -0.089
    1UNL     C9   13   0.381  -0.028  -0.066
    1UNL    C10   14   0.506  -0.008  -0.119
    1UNL    C11   15   0.580   0.095  -0.066
    1UNL    C12   16   0.536   0.181   0.029
    1UNL    C13   17   0.405   0.162   0.075
    1UNL    C14   18   0.326   0.062   0.027
    1UNL    C15   19   0.189   0.025   0.050
    1UNL    C16   20   0.085   0.090   0.135
    1UNL    C17   21  -0.055   0.029   0.105
    1UNL    C18   22  -0.122   0.071  -0.035
    1UNL     N2   23  -0.037  -0.122   0.107
    1UNL    C19   24  -0.172  -0.186   0.121
    1UNL    C20   25  -0.144  -0.337   0.122
    1UNL     H1   26  -0.433   0.290  -0.105
    1UNL     H2   27  -0.330   0.333  -0.241
    1UNL     H3   28  -0.331   0.440  -0.100
    1UNL     H4   29  -0.258   0.199   0.090
    1UNL     H5   30  -0.350  -0.009   0.140
    1UNL     H6   31  -0.505  -0.141  -0.049
    1UNL     H7   32  -0.298  -0.229  -0.051
    1UNL     H8   33  -0.219  -0.029  -0.194
    1UNL     H9   34   0.026  -0.093  -0.217
    1UNL    H10   35  -0.076  -0.234  -0.185
    1UNL    H11   36   0.064  -0.278  -0.006
    1UNL    H12   37   0.307  -0.217  -0.113
    1UNL    H13   38   0.547  -0.087  -0.185
    1UNL    H14   39   0.684   0.098  -0.098
    1UNL    H15   40   0.591   0.255   0.079
    1UNL    H16   41   0.364   0.231   0.147
    1UNL    H17   42   0.074   0.195   0.111
    1UNL    H18   43   0.109   0.071   0.233
    1UNL    H19   44  -0.124   0.053   0.190
    1UNL    H20   45  -0.048   0.117  -0.096
    1UNL    H21   46  -0.220  -0.163   0.219
    1UNL    H22   47  -0.046  -0.361   0.167
    1UNL    H23   48  -0.223  -0.387   0.182
    1UNL    H24   49  -0.142  -0.383   0.026
   0.00000   0.00000   0.00000   0.00000   0.00000   0.00000   0.00000   0.00000   0.00000
Generated with MDTraj, t= 92.0
 49
    1UNL     C1    1  -0.340   0.340  -0.112
    1UNL     O1    2  -0.221   0.263  -0.115
    1UNL     C2    3  -0.231   0.159  -0.008
    1UNL     O2    4  -0.356   0.096  -0.027
    1UNL     C3    5  -0.374  -0.034   0.036
    1UNL     O3    6  -0.497  -0.088   0.008
    1UNL     C4    7  -0.254  -0.135  -0.006
    1UNL     C5    8  -0.155  -0.066  -0.105
    1UNL     C6    9  -0.037  -0.157  -0.135
    1UNL     C7   10   0.048  -0.176  -0.005
    1UNL     C8   11   0.176  -0.097  -0.012
    1UNL     N1   12   0.290  -0.127  -0.082
    1UNL     C9   13   0.381  -0.021  -0.064
    1UNL    C10   14   0.509  -0.000  -0.118
    1UNL    C11   15   0.579   0.112  -0.080
    1UNL    C12   16   0.528   0.199   0.018
    1UNL    C13   17   0.399   0.183   0.064
    1UNL    C14   18   0.326   0.074   0.021
    1UNL    C15   19   0.192   0.021   0.052
    1UNL    C16   20   0.093   0.079   0.146
    1UNL    C17   21  -0.046   0.013   0.114
    1UNL    C18   22  -0.112   0.060  -0.029
    1UNL     N2   23  -0.040  -0.134   0.115
    1UNL    C19   24  -0.187  -0.187   0.122
    1UNL    C20   25  -0.197  -0.342   0.119
    1UNL     H1   26  -0.370   0.341  -0.004
    1UNL     H2   27  -0.418   0.293  -0.167
    1UNL     H3   28  -0.306   0.437  -0.139
    1UNL     H4   29  -0.212   0.205   0.087
    1UNL     H5   30  -0.375  -0.014   0.138
    1UNL     H6   31  -0.569  -0.030   0.035
    1UNL     H7   32  -0.305  -0.208  -0.072
    1UNL     H8   33  -0.206  -0.044  -0.193
    1UNL     H9   34   0.036  -0.104  -0.203
    1UNL    H10   35  -0.059  -0.251  -0.185
    1UNL    H11   36   0.069  -0.281   0.019
    1UNL    H12   37   0.290  -0.194  -0.153
    1UNL    H13   38   0.552  -0.080  -0.175
    1UNL    H14   39   0.674   0.123  -0.122
    1UNL    H15   40   0.589   0.287   0.049
    1UNL    H16   41   0.363   0.247   0.142
    1UNL    H17   42   0.087   0.185   0.150
    1UNL    H18   43   0.108   0.029   0.242
    1UNL    H19   44  -0.116   0.050   0.194
    1UNL    H20   45  -0.034   0.106  -0.085
    1UNL    H21   46  -0.235  -0.144   0.210
    1UNL    H22   47  -0.167  -0.374   0.218
    1UNL    H23   48  -0.299  -0.375   0.089
    1UNL    H24   49  -0.120  -0.378   0.051
   0.00000   0.00000   0.00000   0.00000   0.00000   0.00000   0.00000   0.00000   0.00000
Generated with MDTraj, t= 93.0
 49
    1UNL     C1    1  -0.318   0.350  -0.105
    1UNL     O1    2  -0.196   0.292  -0.063
    1UNL     C2    3  -0.229   0.159  -0.011
    1UNL     O2    4  -0.350   0.088  -0.054
    1UNL     C3    5  -0.378  -0.031   0.027
    1UNL     O3    6  -0.491  -0.104   0.011
    1UNL     C4    7  -0.256  -0.133  -0.010
    1UNL     C5    8  -0.154  -0.063  -0.106
    1UNL     C6    9  -0.027  -0.149  -0.136
    1UNL     C7   10   0.048  -0.176   0.005
    1UNL     C8   11   0.174  -0.110  -0.001
    1UNL     N1   12   0.289  -0.150  -0.073
    1UNL     C9   13   0.377  -0.039  -0.051
    1UNL    C10   14   0.505  -0.008  -0.107
    1UNL    C11   15   0.561   0.112  -0.093
    1UNL    C12   16   0.491   0.209  -0.011
    1UNL    C13   17   0.371   0.185   0.056
    1UNL    C14   18   0.315   0.060   0.031
    1UNL    C15   19   0.191   0.013   0.064
    1UNL    C16   20   0.083   0.095   0.139
    1UNL    C17   21  -0.052   0.022   0.112
    1UNL    C18   22  -0.112   0.072  -0.029
    1UNL     N2   23  -0.038  -0.128   0.115
    1UNL    C19   24  -0.173  -0.193   0.111
    1UNL    C20   25  -0.171  -0.340   0.114
    1UNL     H1   26  -0.310   0.456  -0.090
    1UNL     H2   27  -0.401   0.309  -0.044
    1UNL     H3   28  -0.322   0.323  -0.213
    1UNL     H4   29  -0.243   0.179   0.094
    1UNL     H5   30  -0.366  -0.009   0.127
    1UNL     H6   31  -0.520  -0.079  -0.080
    1UNL     H7   32  -0.293  -0.225  -0.058
    1UNL     H8   33  -0.198  -0.024  -0.191
    1UNL     H9   34   0.046  -0.090  -0.203
    1UNL    H10   35  -0.039  -0.241  -0.191
    1UNL    H11   36   0.058  -0.284   0.015
    1UNL    H12   37   0.291  -0.205  -0.153
    1UNL    H13   38   0.541  -0.085  -0.173
    1UNL    H14   39   0.648   0.149  -0.150
    1UNL    H15   40   0.529   0.306  -0.012
    1UNL    H16   41   0.320   0.265   0.113
    1UNL    H17   42   0.068   0.189   0.096
    1UNL    H18   43   0.109   0.091   0.249
    1UNL    H19   44  -0.127   0.045   0.195
    1UNL    H20   45  -0.044   0.120  -0.095
    1UNL    H21   46  -0.215  -0.163   0.207
    1UNL    H22   47  -0.091  -0.378   0.175
    1UNL    H23   48  -0.274  -0.373   0.144
    1UNL    H24   49  -0.152  -0.381   0.013
   0.00000   0.00000   0.00000   0.00000   0.00000   0.00000   0.00000   0.00000   0.00000
Generated with MDTraj, t= 94.0
 49
    1UNL     C1    1  -0.341   0.341  -0.091
    1UNL     O1    2  -0.216   0.277  -0.072
    1UNL     C2    3  -0.234   0.155   0.006
    1UNL     O2    4  -0.351   0.090  -0.044
    1UNL     C3    5  -0.382  -0.039   0.007
    1UNL     O3    6  -0.502  -0.092  -0.042
    1UNL     C4    7  -0.250  -0.132  -0.016
    1UNL     C5    8  -0.145  -0.057  -0.100
    1UNL     C6    9  -0.019  -0.133  -0.127
    1UNL     C7   10   0.050  -0.176   0.007
    1UNL     C8   11   0.179  -0.105   0.014
    1UNL     N1   12   0.294  -0.132  -0.058
    1UNL     C9   13   0.385  -0.030  -0.054
    1UNL    C10   14   0.509  -0.014  -0.117
    1UNL    C11   15   0.570   0.104  -0.105
    1UNL    C12   16   0.511   0.213  -0.031
    1UNL    C13   17   0.395   0.192   0.033
    1UNL    C14   18   0.327   0.067   0.022
    1UNL    C15   19   0.197   0.018   0.070
    1UNL    C16   20   0.091   0.082   0.154
    1UNL    C17   21  -0.047   0.010   0.125
    1UNL    C18   22  -0.113   0.065  -0.012
    1UNL     N2   23  -0.044  -0.140   0.127
    1UNL    C19   24  -0.186  -0.191   0.120
    1UNL    C20   25  -0.200  -0.342   0.116
    1UNL     H1   26  -0.350   0.355  -0.196
    1UNL     H2   27  -0.344   0.439  -0.034
    1UNL     H3   28  -0.426   0.268  -0.058
    1UNL     H4   29  -0.249   0.185   0.110
    1UNL     H5   30  -0.403  -0.037   0.108
    1UNL     H6   31  -0.574  -0.024  -0.033
    1UNL     H7   32  -0.295  -0.207  -0.083
    1UNL     H8   33  -0.190  -0.021  -0.187
    1UNL     H9   34   0.059  -0.067  -0.182
    1UNL    H10   35  -0.034  -0.217  -0.191
    1UNL    H11   36   0.062  -0.284   0.014
    1UNL    H12   37   0.325  -0.216  -0.096
    1UNL    H13   38   0.533  -0.096  -0.190
    1UNL    H14   39   0.661   0.117  -0.156
    1UNL    H15   40   0.569   0.306  -0.023
    1UNL    H16   41   0.348   0.271   0.082
    1UNL    H17   42   0.087   0.181   0.123
    1UNL    H18   43   0.112   0.065   0.266
    1UNL    H19   44  -0.115   0.044   0.211
    1UNL    H20   45  -0.036   0.117  -0.064
    1UNL    H21   46  -0.239  -0.139   0.199
    1UNL    H22   47  -0.131  -0.392   0.179
    1UNL    H23   48  -0.305  -0.379   0.121
    1UNL    H24   49  -0.167  -0.386   0.017
   0.00000   0.00000   0.00000   0.00000   0.00000   0.00000   0.00000   0.00000   0.00000
Generated with MDTraj, t= 95.0
 49
    1UNL     C1    1  -0.343   0.356  -0.068
    1UNL     O1    2  -0.225   0.294  -0.043
    1UNL     C2    3  -0.244   0.158   0.002
    1UNL     O2    4  -0.353   0.085  -0.054
    1UNL     C3    5  -0.376  -0.048   0.008
    1UNL     O3    6  -0.484  -0.109  -0.053
    1UNL     C4    7  -0.250  -0.141  -0.012
    1UNL     C5    8  -0.150  -0.065  -0.110
    1UNL     C6    9  -0.024  -0.140  -0.133
    1UNL     C7   10   0.046  -0.178   0.002
    1UNL     C8   11   0.180  -0.114   0.011
    1UNL     N1   12   0.289  -0.145  -0.068
    1UNL     C9   13   0.378  -0.040  -0.062
    1UNL    C10   14   0.499  -0.013  -0.122
    1UNL    C11   15   0.562   0.106  -0.097
    1UNL    C12   16   0.514   0.203  -0.007
    1UNL    C13   17   0.392   0.178   0.053
    1UNL    C14   18   0.325   0.060   0.025
    1UNL    C15   19   0.198   0.014   0.063
    1UNL    C16   20   0.090   0.097   0.128
    1UNL    C17   21  -0.046   0.031   0.109
    1UNL    C18   22  -0.116   0.070  -0.025
    1UNL     N2   23  -0.039  -0.119   0.114
    1UNL    C19   24  -0.182  -0.177   0.118
    1UNL    C20   25  -0.178  -0.327   0.149
    1UNL     H1   26  -0.416   0.281  -0.090
    1UNL     H2   27  -0.327   0.419  -0.160
    1UNL     H3   28  -0.376   0.427   0.022
    1UNL     H4   29  -0.274   0.173   0.108
    1UNL     H5   30  -0.385  -0.041   0.111
    1UNL     H6   31  -0.461  -0.130  -0.148
    1UNL     H7   32  -0.273  -0.232  -0.070
    1UNL     H8   33  -0.194  -0.043  -0.202
    1UNL     H9   34   0.050  -0.079  -0.195
    1UNL    H10   35  -0.037  -0.233  -0.188
    1UNL    H11   36   0.054  -0.285   0.020
    1UNL    H12   37   0.301  -0.221  -0.130
    1UNL    H13   38   0.534  -0.083  -0.187
    1UNL    H14   39   0.662   0.108  -0.143
    1UNL    H15   40   0.583   0.280   0.015
    1UNL    H16   41   0.353   0.242   0.137
    1UNL    H17   42   0.088   0.192   0.083
    1UNL    H18   43   0.114   0.095   0.241
    1UNL    H19   44  -0.113   0.067   0.196
    1UNL    H20   45  -0.042   0.131  -0.070
    1UNL    H21   46  -0.232  -0.121   0.198
    1UNL    H22   47  -0.125  -0.345   0.241
    1UNL    H23   48  -0.281  -0.367   0.136
    1UNL    H24   49  -0.114  -0.383   0.075
   0.00000   0.00000   0.00000   0.00000   0.00000   0.00000   0.00000   0.00000   0.00000
Generated with MDTraj, t= 96.0
 49
    1UNL     C1    1  -0.364   0.350  -0.037
    1UNL     O1    2  -0.243   0.283  -0.048
    1UNL     C2    3  -0.251   0.148  -0.006
    1UNL     O2    4  -0.369   0.083  -0.052
    1UNL     C3    5  -0.385  -0.054   0.001
    1UNL     O3    6  -0.495  -0.119  -0.060
    1UNL     C4    7  -0.251  -0.134  -0.016
    1UNL     C5    8  -0.153  -0.065  -0.115
    1UNL     C6    9  -0.032  -0.151  -0.136
    1UNL     C7   10   0.046  -0.171   0.004
    1UNL     C8   11   0.185  -0.099  -0.004
    1UNL     N1   12   0.293  -0.139  -0.075
    1UNL     C9   13   0.391  -0.033  -0.061
    1UNL    C10   14   0.523  -0.021  -0.111
    1UNL    C11   15   0.601   0.092  -0.083
    1UNL    C12   16   0.537   0.187  -0.004
    1UNL    C13   17   0.407   0.185   0.052
    1UNL    C14   18   0.332   0.067   0.020
    1UNL    C15   19   0.200   0.026   0.054
    1UNL    C16   20   0.091   0.095   0.134
    1UNL    C17   21  -0.045   0.039   0.097
    1UNL    C18   22  -0.114   0.072  -0.036
    1UNL     N2   23  -0.043  -0.115   0.114
    1UNL    C19   24  -0.182  -0.169   0.117
    1UNL    C20   25  -0.187  -0.317   0.157
    1UNL     H1   26  -0.402   0.346   0.063
    1UNL     H2   27  -0.448   0.309  -0.099
    1UNL     H3   28  -0.347   0.464  -0.067
    1UNL     H4   29  -0.279   0.152   0.102
    1UNL     H5   30  -0.406  -0.047   0.103
    1UNL     H6   31  -0.570  -0.059  -0.040
    1UNL     H7   32  -0.299  -0.227  -0.055
    1UNL     H8   33  -0.207  -0.036  -0.201
    1UNL     H9   34   0.036  -0.115  -0.217
    1UNL    H10   35  -0.065  -0.254  -0.165
    1UNL    H11   36   0.064  -0.275   0.023
    1UNL    H12   37   0.291  -0.213  -0.145
    1UNL    H13   38   0.568  -0.111  -0.159
    1UNL    H14   39   0.699   0.102  -0.119
    1UNL    H15   40   0.597   0.272   0.028
    1UNL    H16   41   0.386   0.259   0.122
    1UNL    H17   42   0.088   0.201   0.103
    1UNL    H18   43   0.111   0.076   0.245
    1UNL    H19   44  -0.118   0.061   0.181
    1UNL    H20   45  -0.051   0.132  -0.097
    1UNL    H21   46  -0.236  -0.122   0.200
    1UNL    H22   47  -0.136  -0.323   0.254
    1UNL    H23   48  -0.295  -0.338   0.158
    1UNL    H24   49  -0.132  -0.386   0.091
   0.00000   0.00000   0.00000   0.00000   0.00000   0.00000   0.00000   0.00000   0.00000
Generated with MDTraj, t= 97.0
 49
    1UNL     C1    1  -0.379   0.352  -0.033
    1UNL     O1    2  -0.252   0.286  -0.046
    1UNL     C2    3  -0.262   0.156  -0.001
    1UNL     O2    4  -0.384   0.083  -0.034
    1UNL     C3    5  -0.385  -0.059   0.006
    1UNL     O3    6  -0.490  -0.143  -0.037
    1UNL     C4    7  -0.256  -0.131  -0.021
    1UNL     C5    8  -0.162  -0.054  -0.113
    1UNL     C6    9  -0.034  -0.129  -0.141
    1UNL     C7   10   0.048  -0.157  -0.013
    1UNL     C8   11   0.181  -0.096  -0.015
    1UNL     N1   12   0.298  -0.144  -0.068
    1UNL     C9   13   0.392  -0.045  -0.052
    1UNL    C10   14   0.529  -0.046  -0.084
    1UNL    C11   15   0.603   0.067  -0.046
    1UNL    C12   16   0.547   0.180   0.011
    1UNL    C13   17   0.412   0.178   0.031
    1UNL    C14   18   0.335   0.065   0.010
    1UNL    C15   19   0.200   0.034   0.032
    1UNL    C16   20   0.091   0.113   0.106
    1UNL    C17   21  -0.045   0.044   0.094
    1UNL    C18   22  -0.132   0.076  -0.031
    1UNL     N2   23  -0.034  -0.103   0.107
    1UNL    C19   24  -0.176  -0.166   0.112
    1UNL    C20   25  -0.159  -0.315   0.135
    1UNL     H1   26  -0.373   0.437   0.032
    1UNL     H2   27  -0.459   0.296   0.017
    1UNL     H3   28  -0.423   0.389  -0.131
    1UNL     H4   29  -0.282   0.165   0.109
    1UNL     H5   30  -0.399  -0.056   0.109
    1UNL     H6   31  -0.525  -0.122  -0.124
    1UNL     H7   32  -0.292  -0.224  -0.073
    1UNL     H8   33  -0.211  -0.044  -0.206
    1UNL     H9   34   0.028  -0.072  -0.211
    1UNL    H10   35  -0.058  -0.231  -0.192
    1UNL    H11   36   0.056  -0.262   0.009
    1UNL    H12   37   0.319  -0.245  -0.085
    1UNL    H13   38   0.585  -0.127  -0.132
    1UNL    H14   39   0.710   0.068  -0.081
    1UNL    H15   40   0.604   0.271   0.025
    1UNL    H16   41   0.361   0.268   0.067
    1UNL    H17   42   0.086   0.222   0.068
    1UNL    H18   43   0.118   0.108   0.216
    1UNL    H19   44  -0.105   0.089   0.178
    1UNL    H20   45  -0.074   0.147  -0.087
    1UNL    H21   46  -0.215  -0.131   0.209
    1UNL    H22   47  -0.070  -0.345   0.195
    1UNL    H23   48  -0.251  -0.364   0.169
    1UNL    H24   49  -0.138  -0.369   0.044
   0.00000   0.00000   0.00000   0.00000   0.00000   0.00000   0.00000   0.00000   0.00000
Generated with MDTraj, t= 98.0
 49
    1UNL     C1    1  -0.407   0.321  -0.039
    1UNL     O1    2  -0.269   0.289  -0.033
    1UNL     C2    3  -0.268   0.158   0.003
    1UNL     O2    4  -0.383   0.075  -0.033
    1UNL     C3    5  -0.383  -0.057   0.028
    1UNL     O3    6  -0.503  -0.127  -0.002
    1UNL     C4    7  -0.249  -0.132  -0.020
    1UNL     C5    8  -0.166  -0.043  -0.117
    1UNL     C6    9  -0.033  -0.110  -0.158
    1UNL     C7   10   0.047  -0.157  -0.033
    1UNL     C8   11   0.183  -0.092  -0.029
    1UNL     N1   12   0.307  -0.148  -0.056
    1UNL     C9   13   0.405  -0.053  -0.035
    1UNL    C10   14   0.537  -0.055  -0.057
    1UNL    C11   15   0.613   0.055  -0.032
    1UNL    C12   16   0.552   0.170   0.022
    1UNL    C13   17   0.420   0.174   0.037
    1UNL    C14   18   0.341   0.059   0.016
    1UNL    C15   19   0.199   0.038   0.013
    1UNL    C16   20   0.088   0.124   0.071
    1UNL    C17   21  -0.045   0.045   0.078
    1UNL    C18   22  -0.136   0.089  -0.042
    1UNL     N2   23  -0.033  -0.106   0.086
    1UNL    C19   24  -0.166  -0.167   0.103
    1UNL    C20   25  -0.153  -0.311   0.134
    1UNL     H1   26  -0.423   0.427  -0.036
    1UNL     H2   27  -0.459   0.289   0.053
    1UNL     H3   28  -0.458   0.283  -0.127
    1UNL     H4   29  -0.279   0.161   0.116
    1UNL     H5   30  -0.397  -0.038   0.130
    1UNL     H6   31  -0.543  -0.083  -0.079
    1UNL     H7   32  -0.273  -0.227  -0.075
    1UNL     H8   33  -0.218  -0.022  -0.207
    1UNL     H9   34   0.021  -0.042  -0.224
    1UNL    H10   35  -0.049  -0.209  -0.221
    1UNL    H11   36   0.068  -0.263  -0.035
    1UNL    H12   37   0.328  -0.241  -0.105
    1UNL    H13   38   0.571  -0.139  -0.106
    1UNL    H14   39   0.713   0.063  -0.057
    1UNL    H15   40   0.614   0.256   0.032
    1UNL    H16   41   0.369   0.267   0.057
    1UNL    H17   42   0.077   0.216  -0.005
    1UNL    H18   43   0.114   0.170   0.169
    1UNL    H19   44  -0.088   0.075   0.177
    1UNL    H20   45  -0.083   0.164  -0.098
    1UNL    H21   46  -0.209  -0.129   0.199
    1UNL    H22   47  -0.097  -0.341   0.227
    1UNL    H23   48  -0.243  -0.370   0.123
    1UNL    H24   49  -0.087  -0.360   0.065
   0.00000   0.00000   0.00000   0.00000   0.00000   0.00000   0.00000   0.00000   0.00000
Generated with MDTraj, t= 99.0
 49
    1UNL     C1    1  -0.416   0.342  -0.036
    1UNL     O1    2  -0.293   0.278  -0.063
    1UNL     C2    3  -0.276   0.157   0.009
    1UNL     O2    4  -0.393   0.069  -0.030
    1UNL     C3    5  -0.382  -0.061   0.026
    1UNL     O3    6  -0.490  -0.140  -0.000
    1UNL     C4    7  -0.244  -0.134  -0.013
    1UNL     C5    8  -0.178  -0.045  -0.113
    1UNL     C6    9  -0.045  -0.105  -0.163
    1UNL     C7   10   0.046  -0.144  -0.037
    1UNL     C8   11   0.177  -0.082  -0.051
    1UNL     N1   12   0.298  -0.142  -0.082
    1UNL     C9   13   0.401  -0.049  -0.054
    1UNL    C10   14   0.544  -0.064  -0.047
    1UNL    C11   15   0.624   0.033  -0.005
    1UNL    C12   16   0.563   0.151   0.043
    1UNL    C13   17   0.427   0.177   0.050
    1UNL    C14   18   0.343   0.071  -0.003
    1UNL    C15   19   0.203   0.044   0.002
    1UNL    C16   20   0.093   0.127   0.066
    1UNL    C17   21  -0.039   0.052   0.082
    1UNL    C18   22  -0.141   0.084  -0.032
    1UNL     N2   23  -0.021  -0.097   0.091
    1UNL    C19   24  -0.156  -0.163   0.111
    1UNL    C20   25  -0.142  -0.315   0.145
    1UNL     H1   26  -0.440   0.412  -0.114
    1UNL     H2   27  -0.399   0.402   0.055
    1UNL     H3   28  -0.493   0.271  -0.031
    1UNL     H4   29  -0.291   0.182   0.117
    1UNL     H5   30  -0.404  -0.046   0.129
    1UNL     H6   31  -0.550  -0.097  -0.066
    1UNL     H7   32  -0.281  -0.232  -0.056
    1UNL     H8   33  -0.245  -0.025  -0.193
    1UNL     H9   34   0.014  -0.037  -0.226
    1UNL    H10   35  -0.071  -0.194  -0.234
    1UNL    H11   36   0.066  -0.250  -0.031
    1UNL    H12   37   0.304  -0.209  -0.166
    1UNL    H13   38   0.594  -0.161  -0.078
    1UNL    H14   39   0.733   0.015  -0.002
    1UNL    H15   40   0.629   0.215   0.104
    1UNL    H16   41   0.375   0.262   0.089
    1UNL    H17   42   0.075   0.230   0.011
    1UNL    H18   43   0.138   0.164   0.163
    1UNL    H19   44  -0.078   0.080   0.182
    1UNL    H20   45  -0.093   0.156  -0.096
    1UNL    H21   46  -0.207  -0.132   0.204
    1UNL    H22   47  -0.049  -0.339   0.205
    1UNL    H23   48  -0.234  -0.359   0.183
    1UNL    H24   49  -0.120  -0.365   0.054
   0.00000   0.00000   0.00000   0.00000   0.00000   0.00000   0.00000   0.00000   0.00000
