1TPCN03150
13
    1res  C1    1   -0.313  -0.208   0.206
    1res  C2    2   -0.352  -0.075  -0.031
    1res  C3    3   -0.386   0.163  -0.013
    1res  C4    4   -0.175   0.260   0.158
    1res  C5    5   -0.071  -0.017   0.034
    1res  C6    6   -0.147   0.081  -0.216
    1res  C7    7   -0.089  -0.196  -0.135
    1res  C8    8    0.147  -0.101  -0.249
    1res  C9    9    0.227  -0.201  -0.021
    1res  C10   10    0.252  -0.294   0.222
    1res  C11   11    0.251   0.067   0.057
    1res  C12   12    0.117   0.166  -0.130
    1res  C13   13    0.482   0.198  -0.107
  10.00000  10.00000  10.00000
