1TPCN05333
23
    1res  C1    1   -0.995  -0.100  -0.187
    1res  C2    2   -0.754  -0.016  -0.070
    1res  C3    3   -0.601   0.058   0.213
    1res  C4    4   -0.430   0.126  -0.142
    1res  C5    5   -0.438   0.291   0.145
    1res  C6    6   -0.135   0.284   0.090
    1res  C7    7   -0.031   0.277  -0.148
    1res  C8    8    0.142   0.113  -0.078
    1res  C9    9    0.400  -0.042  -0.071
    1res  C10   10    0.677  -0.073   0.008
    1res  C11   11    0.954  -0.107   0.037
    1res  C12   12    1.010   0.126   0.119
    1res  C13   13    1.172  -0.152   0.173
    1res  C14   14    1.091  -0.336   0.021
    1res  C15   15    0.858  -0.389   0.048
    1res  C16   16    0.582  -0.134  -0.255
    1res  C17   17    0.525   0.065  -0.318
    1res  C18   18    0.287   0.044  -0.303
    1res  C19   19    0.115   0.090   0.165
    1res  C20   20   -0.226   0.098   0.284
    1res  C21   21   -0.491  -0.184   0.138
    1res  C22   22   -0.809  -0.296  -0.059
    1res  C23   23   -0.601  -0.207  -0.205
  10.00000  10.00000  10.00000
