1TPCN06311
56
    1res  C1    1    2.098   0.354  -0.050
    1res  C2    2    1.937   0.094  -0.188
    1res  C3    3    2.109  -0.126  -0.074
    1res  C4    4    1.898  -0.308  -0.106
    1res  C5    5    1.715  -0.175   0.268
    1res  C6    6    1.567  -0.043   0.060
    1res  C7    7    1.395  -0.164  -0.114
    1res  C8    8    1.341   0.121  -0.095
    1res  C9    9    1.536   0.185  -0.225
    1res  C10   10    1.123   0.002  -0.124
    1res  C11   11    0.863  -0.068  -0.218
    1res  C12   12    0.885   0.104   0.010
    1res  C13   13    0.646   0.170  -0.084
    1res  C14   14    0.502   0.232   0.093
    1res  C15   15    0.300   0.163  -0.160
    1res  C16   16    0.111   0.281  -0.049
    1res  C17   17    0.290   0.161   0.191
    1res  C18   18    0.302  -0.040   0.227
    1res  C19   19    0.232  -0.214   0.137
    1res  C20   20    0.023  -0.175  -0.088
    1res  C21   21   -0.161  -0.100   0.116
    1res  C22   22   -0.391  -0.367   0.070
    1res  C23   23   -0.387  -0.220  -0.136
    1res  C24   24   -0.382   0.077  -0.149
    1res  C25   25   -0.642  -0.149  -0.212
    1res  C26   26   -0.746   0.155  -0.133
    1res  C27   27   -0.858   0.408  -0.149
    1res  C28   28   -0.992   0.192   0.005
    1res  C29   29   -0.958  -0.071  -0.171
    1res  C30   30   -1.133  -0.226  -0.177
    1res  C31   31   -1.414  -0.164  -0.111
    1res  C32   32   -1.579  -0.000   0.050
    1res  C33   33   -1.651  -0.103   0.238
    1res  C34   34   -1.703   0.206   0.109
    1res  C35   35   -1.816   0.385   0.040
    1res  C36   36   -1.875   0.625   0.046
    1res  C37   37   -2.130   0.534  -0.039
    1res  C38   38   -2.146   0.377   0.115
    1res  C39   39   -1.997   0.204   0.016
    1res  C40   40   -1.498   0.263   0.185
    1res  C41   41   -1.380   0.220  -0.030
    1res  C42   42   -1.323  -0.430  -0.093
    1res  C43   43   -1.102  -0.510  -0.017
    1res  C44   44   -1.008  -0.446  -0.263
    1res  C45   45   -0.761  -0.149   0.071
    1res  C46   46   -0.051  -0.459  -0.052
    1res  C47   47   -0.012  -0.459   0.250
    1res  C48   48    0.259  -0.324   0.377
    1res  C49   49    0.447  -0.256   0.496
    1res  C50   50    0.520  -0.113   0.310
    1res  C51   51    0.726   0.148  -0.290
    1res  C52   52    1.189  -0.195  -0.241
    1res  C53   53    1.685   0.105   0.190
    1res  C54   54    1.777   0.297   0.181
    1res  C55   55    1.905   0.029   0.266
    1res  C56   56    2.252   0.069   0.061
  10.00000  10.00000  10.00000
