[ moleculetype ]
; name        nrexcl
res           1

[ atoms ]
;    nr  type  resnr resid  atom  cgnr     charge       mass
      1 SP5       1 res   C1        1      0.000     54.000
      2 SN6d      1 res   C2        2      0.000     54.000
      3 TN6a      1 res   C3        3      0.000     36.000
      4 TN6d      1 res   C4        4      0.000     36.000

[ bonds ]
;  ai    aj   funct      b0(nm)          k(kJ/mol/nm^2)
    1     2     1      0.34909          45408.6
    2     3     1      0.33373         143425.5
    2     4     1      0.23993          60981.1
    3     4     1      0.21211         149747.9

[ angles ]
;  ai    aj    ak  funct     th0(deg)        k(kJ/mol/rad^2)
    1     2     3     1     70.93575          2780.36
    1     2     4     1    109.71599          2157.70
    2     3     4     1     45.74206          3164.09
    2     4     3     1     94.98439          2597.45
    3     2     4     1     39.27350          8331.71

[ dihedrals ]
;  ai    aj    ak    al  funct   phi0(deg)        k(kJ/mol)   mult
    1     2     3     4     1      1.70060       16.402      1
    1     2     3     4     1   -176.54509       15.179      2
    1     2     3     4     1      5.32738       13.274      3
    1     2     4     3     1    179.76068       16.374      1
    1     2     4     3     1    179.59980       15.078      2
    1     2     4     3     1    179.61780       13.072      3
