1TPCN03640
13
    1res  C1    1    0.822   0.090   0.091
    1res  C2    2    0.385   0.013   0.198
    1res  C3    3    0.285  -0.151   0.018
    1res  C4    4    0.117   0.109  -0.182
    1res  C5    5    0.068  -0.141  -0.104
    1res  C6    6   -0.084  -0.091   0.201
    1res  C7    7   -0.191  -0.210  -0.055
    1res  C8    8   -0.355   0.175  -0.101
    1res  C9    9   -0.474  -0.112   0.150
    1res  C10   10   -0.644   0.094   0.237
    1res  C11   11   -0.629   0.115  -0.067
    1res  C12   12   -0.300  -0.056  -0.248
    1res  C13   13    0.470   0.172  -0.082
  10.00000  10.00000  10.00000
