[ moleculetype ]
; name        nrexcl
res           1

[ atoms ]
;    nr  type  resnr resid  atom  cgnr     charge       mass
      1 TN1       1 res   C1        1      0.000     36.000
      2 TN6a      1 res   C2        2      0.000     36.000
      3 SX3       1 res   C3        3      0.000     54.000
      4 SN3a      1 res   C4        4      0.000     54.000

[ constraints ]
;  ai    aj   funct      b0(nm)
    1     2     1      0.28535
    1     3     1      0.37129
    2     3     1      0.26302
    3     4     1      0.25800

[ bonds ]
;  ai    aj   funct      b0(nm)          k(kJ/mol/nm^2)

[ angles ]
;  ai    aj    ak  funct     th0(deg)        k(kJ/mol/rad^2)
    1     2     3     1     85.16817          1232.79
    1     3     2     1     49.96380          2239.00
    1     3     4     1     60.21730          1053.04
    2     1     3     1     44.86781          6414.71
    2     3     4     1    109.98034          1516.84

[ dihedrals ]
;  ai    aj    ak    al  funct   phi0(deg)        k(kJ/mol)   mult
    1     2     3     4     1   -179.98847       10.735      1
    2     1     3     4     1     -0.12635       10.741      1
