1TPCN02766
10
    1res  C1    1   -0.399   0.101   0.052
    1res  C2    2   -0.264  -0.185  -0.017
    1res  C3    3   -0.087   0.021   0.173
    1res  C4    4   -0.050   0.156  -0.152
    1res  C5    5    0.213   0.127  -0.022
    1res  C6    6    0.229  -0.136   0.073
    1res  C7    7    0.535  -0.115   0.084
    1res  C8    8    0.604   0.090  -0.058
    1res  C9    9    0.389  -0.211   0.124
    1res  C10   10    0.048  -0.091  -0.041
  10.00000  10.00000  10.00000
