[ moleculetype ]
; name        nrexcl
res           1

[ atoms ]
;    nr  type resnr resid  atom  cgnr     charge       mass
      1 SC4       1 res   C1        1      0.000     54.000
      2 TC3       1 res   C2        2      0.000     36.000
      3 TC5       1 res   C3        3      0.000     36.000
      4 SN4a      1 res   C4        4      0.000     54.000
      5 SN4a      1 res   C5        5      0.000     54.000
      6 TP1       1 res   C6        6      0.000     36.000
      7 TN6       1 res   C7        7      0.000     36.000
      8 TN6       1 res   C8        8      0.000     36.000
      9 TN6       1 res   C9        9      0.000     36.000
     10 TC3       1 res   C10      10      0.000     36.000
     11 SC4       1 res   C11      11      0.000     54.000
     12 TC3       1 res   C12      12      0.000     36.000
     13 SC4       1 res   C13      13      0.000     54.000
     14 SC4       1 res   C14      14      0.000     54.000
     15 SN6       1 res   C15      15      0.000     54.000
     16 TN6       1 res   C16      16      0.000     36.000
     17 TC4       1 res   C17      17      0.000     36.000
     18 TP1       1 res   C18      18      0.000     36.000
     19 TC3       1 res   C19      19      0.000     36.000
     20 TN6       1 res   C20      20      0.000     36.000

[ bonds ]
;  ai    aj   funct      b0(nm)        k
    1     2     1      0.30359    20000
    1    20     1      0.26234    20000
    2     3     1      0.28120    20000
    3     4     1      0.24370    20000
    3    10     1      0.29117    20000
    3    11     1      0.26498    20000
    3    20     1      0.26141    20000
    4     5     1      0.29364    20000
    5     6     1      0.24427    20000
    5     7     1      0.27693    20000
    5     9     1      0.25900    20000
    7     8     1      0.24150    20000
    8     9     1      0.25138    20000
   10    11     1      0.30171    20000
   11    12     1      0.39347    20000
   11    13     1      0.27111    20000
   12    13     1      0.26982    20000
   13    14     1      0.34008    20000
   13    19     1      0.28774    20000
   14    15     1      0.28669    20000
   14    17     1      0.39331    20000
   14    19     1      0.31861    20000
   15    16     1      0.25851    20000
   16    17     1      0.26720    20000
   17    18     1      0.30485    20000
