1TPCN03400
13
    1res  C1    1   -0.498  -0.190   0.140
    1res  C2    2   -0.241  -0.136  -0.037
    1res  C3    3   -0.048  -0.142  -0.262
    1res  C4    4   -0.281   0.043  -0.285
    1res  C5    5    0.022   0.193  -0.284
    1res  C6    6   -0.042   0.127  -0.012
    1res  C7    7    0.251   0.137   0.064
    1res  C8    8    0.167  -0.102   0.001
    1res  C9    9    0.339  -0.231   0.082
    1res  C10   10    0.566  -0.299  -0.008
    1res  C11   11    0.129   0.356   0.044
    1res  C12   12    0.200   0.450   0.252
    1res  C13   13   -0.214   0.216   0.300
  10.00000  10.00000  10.00000
