[ moleculetype ]
; name        nrexcl
res           1

[ atoms ]
;    nr  type  resnr resid  atom  cgnr     charge       mass
      1 SN3a      1 res   C1        1      0.000     54.000
      2 TC5       1 res   C2        2      0.000     36.000
      3 TC5       1 res   C3        3      0.000     36.000
      4 TC6       1 res   C4        4      0.000     36.000

[ constraints ]
;  ai    aj   funct      b0(nm)
    1     2     1      0.24759
    3     4     1      0.24201
    2     3     1      0.28431
    2     4     1      0.20939

[ bonds ]
;  ai    aj   funct      b0(nm)          k(kJ/mol/nm^2)

[ angles ]
;  ai    aj    ak  funct     th0(deg)        k(kJ/mol/rad^2)
    1     2     3     1     88.16582          2649.71
    1     2     4     1    144.27954          2036.38
    2     3     4     1     46.01327          8749.40
    2     4     3     1     77.71723          3592.50
    3     2     4     1     56.26951          6169.47

[ dihedrals ]
;  ai    aj    ak    al  funct   phi0(deg)        k(kJ/mol)   mult
    1     2     3     4     1     -0.00207        7.773      1
    1     2     4     3     1    179.91329       12.167      1
