[ moleculetype ]
; name        nrexcl
res           1

[ atoms ]
;    nr  type resnr resid  atom  cgnr     charge       mass
      1 SC4       1 res   C1        1      0.000     54.000
      2 TC3       1 res   C2        2      0.000     36.000
      3 SC5       1 res   C3        3      0.000     54.000
      4 SP2       1 res   C4        4      0.000     54.000
      5 TC3       1 res   C5        5      0.000     36.000
      6 SC4       1 res   C6        6      0.000     54.000
      7 TC3       1 res   C7        7      0.000     36.000
      8 SC4       1 res   C8        8      0.000     54.000
      9 SC4       1 res   C9        9      0.000     54.000
     10 SN6       1 res   C10      10      0.000     54.000
     11 TN6       1 res   C11      11      0.000     36.000
     12 SN4a      1 res   C12      12      0.000     54.000
     13 TP1       1 res   C13      13      0.000     36.000
     14 TN6       1 res   C14      14      0.000     36.000
     15 TN6       1 res   C15      15      0.000     36.000
     16 TN6       1 res   C16      16      0.000     36.000
     17 TC4       1 res   C17      17      0.000     36.000
     18 TP1       1 res   C18      18      0.000     36.000
     19 SN6       1 res   C19      19      0.000     54.000

[ bonds ]
;  ai    aj   funct      b0(nm)        k
    1     2     1      0.29229    20000
    1     3     1      0.27850    20000
    2     3     1      0.28459    20000
    3     4     1      0.37585    20000
    3     5     1      0.32764    20000
    3     6     1      0.37600    20000
    5     6     1      0.30967    20000
    6     7     1      0.32732    20000
    6     8     1      0.26912    20000
    7     8     1      0.37945    20000
    8     9     1      0.27659    20000
    8    19     1      0.30074    20000
    9    10     1      0.30132    20000
    9    17     1      0.41625    20000
    9    19     1      0.34594    20000
   10    11     1      0.25145    20000
   11    12     1      0.26809    20000
   11    17     1      0.27795    20000
   12    13     1      0.28617    20000
   12    14     1      0.23393    20000
   12    16     1      0.24264    20000
   14    15     1      0.23330    20000
   15    16     1      0.26856    20000
   17    18     1      0.30459    20000
