[ moleculetype ]
; name        nrexcl
res           1

[ atoms ]
;    nr  type  resnr resid  atom  cgnr     charge       mass
      1 TN2a      1 res   C1        1      0.000     36.000
      2 TC5       1 res   C2        2      0.000     36.000
      3 TN6a      1 res   C3        3      0.000     36.000
      4 TN6d      1 res   C4        4      0.000     36.000

[ bonds ]
;  ai    aj   funct      b0(nm)          k(kJ/mol/nm^2)
    1     2     1      0.28672           2788.0
    2     3     1      0.25261         144897.3
    2     4     1      0.20924          86797.9
    3     4     1      0.25681         124627.0

[ angles ]
;  ai    aj    ak  funct     th0(deg)        k(kJ/mol/rad^2)
    1     2     3     1     85.62457            36.49
    1     2     4     1    145.82090            41.86
    2     3     4     1     48.48763          3627.51
    2     4     3     1     64.71020          2552.44
    3     2     4     1     66.80208          2693.17

[ dihedrals ]
;  ai    aj    ak    al  funct   phi0(deg)        k(kJ/mol)   mult
    1     2     3     4     1      0.12259       22.730      1
    1     2     3     4     1   -179.67055       18.538      2
    1     2     3     4     1      0.82633       12.547      3
    1     2     4     3     1   -179.89941       29.286      1
    1     2     4     3     1    175.64517        5.273      2
    1     2     4     3     1      1.64506       10.875      3
