[ moleculetype ]
; name        nrexcl
res           1

[ atoms ]
;    nr  type  resnr resid  atom  cgnr     charge       mass
      1 SC4       1 res   C1        1      0.000     54.000
      2 TN4a      1 res   C2        2      0.000     36.000
      3 TN6a      1 res   C3        3      0.000     36.000
      4 SN6       1 res   C4        4      0.000     54.000
      5 SN3r      1 res   C5        5      0.000     54.000
      6 SN4a      1 res   C6        6      0.000     54.000
      7 N4a       1 res   C7        7      0.000     72.000
      8 TC5       1 res   C8        8      0.000     36.000
      9 TC5       1 res   C9        9      0.000     36.000
     10 SN6       1 res   C10      10      0.000     54.000
     11 TC5       1 res   C11      11      0.000     36.000
     12 SP4       1 res   C12      12      0.000     54.000
     13 TN6       1 res   C13      13      0.000     36.000

[ constraints ]
;  ai    aj   funct      b0(nm)
    1     2     1      0.32815
   10    11     1      0.28553
    2     3     1      0.26759
    6    12     1      0.27224
    4     5     1      0.34052
    9    11     1      0.29859
    3     4     1      0.31312
    7     8     1      0.33284
    5     6     1      0.31832
    9    10     1      0.30171
    6     7     1      0.27865
    2     4     1      0.22112
    6    13     1      0.28217
    8     9     1      0.22744

[ bonds ]
;  ai    aj   funct      b0(nm)          k(kJ/mol/nm^2)
   12    13     1      0.27661          16472.1

[ angles ]
;  ai    aj    ak  funct     th0(deg)        k(kJ/mol/rad^2)
    1     2     3     1    140.05706           169.22
    1     2     4     1     90.25975           364.03
    2     3     4     1     43.87707          2720.85
    2     4     3     1     57.06643          1776.39
    2     4     5     1    109.41526           650.75
    3     2     4     1     79.05643          1719.96
    3     4     5     1     53.30815          1839.87
    4     5     6     1    141.10166           220.53
    5     6     7     1     77.72204           593.71
    5     6    12     1    122.16971           277.71
    5     6    13     1     83.36335           908.81
    6     7     8     1    114.58306           222.26
    6    12    13     1     61.88011          1491.79
    6    13    12     1     58.31614          1009.48
    7     6    12     1     93.93225           813.74
    7     6    13     1    130.74162           466.62
    7     8     9     1    148.98406           483.23
    8     9    10     1    151.84290          1456.15
    8     9    11     1     95.73358          2381.47
    9    10    11     1     61.05199          7156.30
    9    11    10     1     62.14626          9303.61
   10     9    11     1     56.80173          7715.55
   12     6    13     1     59.80286          1085.59

[ dihedrals ]
;  ai    aj    ak    al  funct   phi0(deg)        k(kJ/mol)   mult
    1     2     3     4     1   -101.25320       13.572      1
    1     2     4     3     1     38.14469       12.194      1
    1     2     4     5     1     34.13948       17.699      1
    2     3     4     5     1     -5.56177       17.757      1
    2     4     5     6     1    118.37884       26.235      1
    3     2     4     5     1    177.14244       15.739      1
    3     4     5     6     1    111.86683       22.896      1
    4     5     6     7     1     95.20783       28.867      1
    4     5     6    12     1   -177.25766       28.330      1
    4     5     6    13     1   -131.73257       25.362      1
    5     6     7     8     1     86.24095        9.347      1
    5     6    12    13     1   -121.06273       10.045      1
    5     6    13    12     1     48.78768       11.457      1
    6     7     8     9     1    -96.58093       23.719      1
    7     6    12    13     1    -41.26352        9.965      1
    7     6    13    12     1    115.88747       12.175      1
    7     8     9    10     1     -2.86371       24.441      1
    7     8     9    11     1     -4.25101       17.066      1
    8     7     6    12     1    -32.14068       10.798      1
    8     7     6    13     1     17.53266       11.469      1
    8     9    10    11     1   -179.49531       20.370      1
    8     9    11    10     1      0.00662       12.235      1
