1TPCN02099
15
    1res  C1    1    0.610   0.135   0.006
    1res  C2    2    0.488   0.073   0.228
    1res  C3    3    0.441  -0.108   0.040
    1res  C4    4    0.376   0.177  -0.148
    1res  C5    5    0.178   0.051  -0.141
    1res  C6    6    0.016   0.204  -0.027
    1res  C7    7    0.026  -0.026   0.050
    1res  C8    8   -0.035   0.015   0.260
    1res  C9    9   -0.186  -0.115   0.127
    1res  C10   10   -0.454  -0.188   0.005
    1res  C11   11   -0.522   0.167  -0.143
    1res  C12   12   -0.469   0.245   0.103
    1res  C13   13   -0.273   0.125  -0.007
    1res  C14   14    0.288  -0.292  -0.044
    1res  C15   15    0.090  -0.238   0.118
  10.00000  10.00000  10.00000
