[ moleculetype ]
; name        nrexcl
res           1

[ atoms ]
;    nr  type  resnr resid  atom  cgnr     charge       mass
      1 X2        1 res   C1        1      0.000     72.000
      2 TN6a      1 res   C2        2      0.000     36.000
      3 TN6a      1 res   C3        3      0.000     36.000
      4 X2        1 res   C4        4      0.000     72.000
      5 TN6a      1 res   C5        5      0.000     36.000
      6 TC6       1 res   C6        6      0.000     36.000

[ constraints ]
;  ai    aj   funct      b0(nm)
    1     2     1      0.23032
    3     5     1      0.19799
    2     3     1      0.19812
    2     5     1      0.19817
    3     4     1      0.23032

[ bonds ]
;  ai    aj   funct      b0(nm)          k(kJ/mol/nm^2)
    5     6     1      0.28973           4046.8

[ angles ]
;  ai    aj    ak  funct     th0(deg)        k(kJ/mol/rad^2)
    1     2     3     1    163.39687           793.89
    1     2     5     1    104.49667          1090.38
    2     3     4     1    104.54679          1599.09
    2     3     5     1     60.04430          4367.94
    2     5     3     1     60.00689          6907.14
    2     5     6     1    142.06028           123.09
    3     2     5     1     59.94878          4889.77
    3     5     6     1    101.15854            17.16
    4     3     5     1    163.60843          1063.16

[ dihedrals ]
;  ai    aj    ak    al  funct   phi0(deg)        k(kJ/mol)   mult
    1     2     3     4     1     -0.14913       28.472      1
    1     2     3     5     1   -179.74315       28.329      1
    1     2     5     3     1      0.93549       11.512      1
    1     2     5     6     1      8.29424       12.286      1
    2     3     5     6     1     -0.80228       27.502      1
    2     5     3     4     1    179.67370       24.591      1
    3     2     5     6     1   -178.74958       14.049      1
    4     3     2     5     1      0.93341       11.499      1
    4     3     5     6     1      2.10103       32.911      1
