1TPCN04424
12
    1res  C1    1    0.419   0.125  -0.053
    1res  C2    2    0.574  -0.185  -0.032
    1res  C3    3    0.702  -0.041   0.215
    1res  C4    4    0.219  -0.037  -0.163
    1res  C5    5    0.012   0.101  -0.180
    1res  C6    6   -0.177  -0.060  -0.036
    1res  C7    7   -0.357   0.133  -0.113
    1res  C8    8   -0.337  -0.042   0.215
    1res  C9    9   -0.641   0.075   0.173
    1res  C10   10   -0.684  -0.124   0.001
    1res  C11   11   -0.447  -0.252   0.061
    1res  C12   12   -0.013   0.066   0.144
  10.00000  10.00000  10.00000
