1TPCN04842
42
    1res  C1    1    1.298   0.164  -0.338
    1res  C2    2    1.208   0.261  -0.116
    1res  C3    3    0.992   0.201  -0.016
    1res  C4    4    1.209  -0.085   0.002
    1res  C5    5    0.750   0.253   0.018
    1res  C6    6    0.987   0.206   0.290
    1res  C7    7    0.888   0.455  -0.112
    1res  C8    8    0.603   0.181   0.304
    1res  C9    9    0.525  -0.021  -0.030
    1res  C10   10    0.402  -0.079   0.300
    1res  C11   11    0.214   0.116   0.015
    1res  C12   12    0.113  -0.107  -0.086
    1res  C13   13   -0.083  -0.161   0.052
    1res  C14   14   -0.323  -0.151  -0.135
    1res  C15   15   -0.411   0.095  -0.066
    1res  C16   16   -0.570   0.325  -0.242
    1res  C17   17   -0.794   0.402  -0.371
    1res  C18   18   -0.859   0.316  -0.181
    1res  C19   19   -0.924   0.534  -0.111
    1res  C20   20   -0.928   0.846  -0.159
    1res  C21   21   -0.817   0.705   0.122
    1res  C22   22   -1.047   0.626   0.167
    1res  C23   23   -1.063   0.422   0.087
    1res  C24   24   -0.769   0.142  -0.102
    1res  C25   25   -0.569  -0.182  -0.100
    1res  C26   26   -0.795  -0.330  -0.136
    1res  C27   27   -0.907  -0.515   0.054
    1res  C28   28   -0.978  -0.483  -0.258
    1res  C29   29   -0.861  -0.384  -0.442
    1res  C30   30   -0.627  -0.400  -0.356
    1res  C31   31   -0.520  -0.225   0.131
    1res  C32   32   -0.339  -0.323   0.064
    1res  C33   33   -0.250  -0.585   0.132
    1res  C34   34   -0.033  -0.787   0.038
    1res  C35   35   -0.293  -0.869   0.094
    1res  C36   36   -0.473  -0.728   0.255
    1res  C37   37   -0.493  -0.614   0.032
    1res  C38   38    0.072  -0.179   0.274
    1res  C39   39   -0.159  -0.010   0.288
    1res  C40   40    0.250   0.158   0.310
    1res  C41   41    0.701  -0.103   0.299
    1res  C42   42    0.873  -0.080   0.172
  10.00000  10.00000  10.00000
