1TPCN05681
21
    1res  C1    1   -0.862   0.195  -0.359
    1res  C2    2   -0.830   0.093  -0.111
    1res  C3    3   -0.541   0.188  -0.085
    1res  C4    4   -0.577  -0.170  -0.093
    1res  C5    5   -0.500  -0.013   0.175
    1res  C6    6   -0.298   0.175   0.200
    1res  C7    7   -0.341  -0.223   0.260
    1res  C8    8   -0.046  -0.184   0.234
    1res  C9    9    0.104   0.023   0.235
    1res  C10   10    0.212  -0.025   0.020
    1res  C11   11    0.383   0.188  -0.069
    1res  C12   12    0.518   0.245  -0.276
    1res  C13   13    0.644   0.093  -0.166
    1res  C14   14    0.817  -0.007  -0.073
    1res  C15   15    0.849  -0.050   0.243
    1res  C16   16    1.082   0.002   0.176
    1res  C17   17    1.134   0.101  -0.035
    1res  C18   18    0.904   0.227  -0.095
    1res  C19   19    0.510  -0.104  -0.129
    1res  C20   20    0.136  -0.246  -0.047
    1res  C21   21   -0.217  -0.284   0.011
  10.00000  10.00000  10.00000
