1TPCN06296
33
    1res  C1    1   -0.909   0.267  -0.328
    1res  C2    2   -0.997   0.117  -0.134
    1res  C3    3   -0.920  -0.014   0.088
    1res  C4    4   -0.950  -0.264   0.014
    1res  C5    5   -1.173  -0.334  -0.110
    1res  C6    6   -0.660   0.104   0.085
    1res  C7    7   -0.683  -0.150  -0.170
    1res  C8    8   -0.888   0.210   0.230
    1res  C9    9   -0.469  -0.007   0.270
    1res  C10   10   -0.318   0.058  -0.097
    1res  C11   11   -0.209  -0.157   0.193
    1res  C12   12    0.019  -0.167   0.075
    1res  C13   13    0.071  -0.079  -0.185
    1res  C14   14    0.287  -0.018  -0.052
    1res  C15   15    0.519   0.108  -0.112
    1res  C16   16    0.667   0.380  -0.266
    1res  C17   17    0.753   0.052  -0.300
    1res  C18   18    0.732  -0.074  -0.110
    1res  C19   19    0.910  -0.103   0.105
    1res  C20   20    1.065  -0.030   0.298
    1res  C21   21    1.103   0.113   0.146
    1res  C22   22    1.251   0.184  -0.001
    1res  C23   23    1.273  -0.061  -0.177
    1res  C24   24    1.548  -0.020  -0.123
    1res  C25   25    1.533   0.007   0.090
    1res  C26   26    1.399   0.184   0.177
    1res  C27   27    0.895   0.158   0.068
    1res  C28   28    0.501  -0.144  -0.158
    1res  C29   29    0.248   0.132   0.150
    1res  C30   30    0.117   0.245  -0.063
    1res  C31   31   -0.142   0.136   0.207
    1res  C32   32   -0.461  -0.282   0.162
    1res  C33   33   -0.677  -0.244   0.203
  10.00000  10.00000  10.00000
