1TPCN00325
11
    1res  C1    1   -0.193   0.237  -0.225
    1res  C2    2    0.023   0.170   0.094
    1res  C3    3    0.123  -0.033  -0.099
    1res  C4    4   -0.151  -0.177  -0.076
    1res  C5    5   -0.263  -0.074   0.020
    1res  C6    6   -0.485  -0.166  -0.047
    1res  C7    7   -0.441   0.048   0.149
    1res  C8    8   -0.004  -0.021   0.212
    1res  C9    9    0.153  -0.178   0.134
    1res  C10   10    0.368  -0.121   0.049
    1res  C11   11    0.478   0.057  -0.103
  10.00000  10.00000  10.00000
