[ moleculetype ]
; name        nrexcl
res           1

[ atoms ]
;    nr  type  resnr resid  atom  cgnr     charge       mass
      1 TN4a      1 res   C1        1      0.000     36.000
      2 TC5       1 res   C2        2      0.000     36.000
      3 TC5       1 res   C3        3      0.000     36.000
      4 TC5       1 res   C4        4      0.000     36.000

[ constraints ]
;  ai    aj   funct      b0(nm)
    1     2     1      0.23992
    3     4     1      0.28782
    2     3     1      0.25613
    2     4     1      0.29795

[ bonds ]
;  ai    aj   funct      b0(nm)          k(kJ/mol/nm^2)

[ angles ]
;  ai    aj    ak  funct     th0(deg)        k(kJ/mol/rad^2)
    1     2     3     1    146.94506          1295.10
    1     2     4     1     85.54502          1620.53
    2     3     4     1     66.13690          3522.58
    2     4     3     1     51.81214          7483.39
    3     2     4     1     62.05094          4614.00

[ dihedrals ]
;  ai    aj    ak    al  funct   phi0(deg)        k(kJ/mol)   mult
    1     2     3     4     1   -179.99175       19.217      1
    1     2     4     3     1      0.00701       12.236      1
