[ moleculetype ]
; name        nrexcl
res           1

[ atoms ]
;    nr  type resnr resid  atom  cgnr     charge       mass
      1 SN4a      1 res   C1        1      0.000     54.000
      2 SN6       1 res   C2        2      0.000     54.000
      3 TN4a      1 res   C3        3      0.000     36.000
      4 TN6       1 res   C4        4      0.000     36.000
      5 SC3       1 res   C5        5      0.000     54.000
      6 SC3       1 res   C6        6      0.000     54.000
      7 TC3       1 res   C7        7      0.000     36.000
      8 TC4       1 res   C8        8      0.000     36.000
      9 SN6       1 res   C9        9      0.000     54.000
     10 TC4       1 res   C10      10      0.000     36.000
     11 TC3       1 res   C11      11      0.000     36.000
     12 TN4a      1 res   C12      12      0.000     36.000
     13 P1        1 res   C13      13      0.000     72.000
     14 SC4       1 res   C14      14      0.000     54.000
     15 TC3       1 res   C15      15      0.000     36.000
     16 TN6       1 res   C16      16      0.000     36.000
     17 SN4a      1 res   C17      17      0.000     54.000
     18 TP1       1 res   C18      18      0.000     36.000
     19 TN6       1 res   C19      19      0.000     36.000
     20 TN6       1 res   C20      20      0.000     36.000
     21 TN6       1 res   C21      21      0.000     36.000
     22 TC5       1 res   C22      22      0.000     36.000
     23 SC4       1 res   C23      23      0.000     54.000
     24 TN6       1 res   C24      24      0.000     36.000

[ bonds ]
;  ai    aj   funct      b0(nm)        k
    1     2     1      0.34844    20000
    2     3     1      0.29653    20000
    2    24     1      0.23117    20000
    3     4     1      0.26298    20000
    4     5     1      0.29561    20000
    4    24     1      0.23756    20000
    5     6     1      0.33586    20000
    5    23     1      0.34305    20000
    6     7     1      0.32038    20000
    6    15     1      0.30516    20000
    6    22     1      0.28487    20000
    7     8     1      0.30440    20000
    8     9     1      0.34338    20000
    8    14     1      0.34581    20000
    9    10     1      0.26389    20000
    9    14     1      0.24222    20000
   10    11     1      0.30753    20000
   10    12     1      0.25477    20000
   11    12     1      0.22896    20000
   12    13     1      0.23927    20000
   14    15     1      0.23511    20000
   15    16     1      0.21979    20000
   16    17     1      0.28316    20000
   16    22     1      0.21390    20000
   17    18     1      0.30179    20000
   17    19     1      0.23163    20000
   17    21     1      0.30260    20000
   19    20     1      0.27822    20000
   20    21     1      0.24000    20000
   22    23     1      0.26010    20000
