[ moleculetype ]
; name        nrexcl
res           1

[ atoms ]
;    nr  type  resnr resid  atom  cgnr     charge       mass
      1 SC4       1 res   C1        1      0.000     54.000
      2 TC4       1 res   C2        2      0.000     36.000
      3 SN6d      1 res   C3        3      0.000     54.000
      4 TC4       1 res   C4        4      0.000     36.000

[ constraints ]
;  ai    aj   funct      b0(nm)
    1     2     1      0.41587
    2     3     1      0.31443
    1     4     1      0.31413
    3     4     1      0.39693

[ bonds ]
;  ai    aj   funct      b0(nm)          k(kJ/mol/nm^2)

[ angles ]
;  ai    aj    ak  funct     th0(deg)        k(kJ/mol/rad^2)
    1     2     3     1     75.55918          4923.05
    1     4     3     1     78.52592          3524.03
    2     1     4     1    100.68308          1920.80
    2     3     4     1    104.76298          2619.58

[ dihedrals ]
;  ai    aj    ak    al  funct   phi0(deg)        k(kJ/mol)   mult
    1     2     3     4     1    179.04606        9.959      1
    1     4     3     2     1   -179.83630       10.808      1
    2     1     4     3     1    179.67330        9.234      1
    3     2     1     4     1    179.39388       10.038      1
