1TPCN05011
12
    1res  C1    1    0.812   0.085   0.101
    1res  C2    2    0.387   0.167  -0.048
    1res  C3    3    0.221   0.124   0.149
    1res  C4    4    0.047  -0.045  -0.127
    1res  C5    5   -0.099   0.218  -0.045
    1res  C6    6   -0.240   0.052  -0.211
    1res  C7    7   -0.308  -0.235  -0.102
    1res  C8    8   -0.395   0.009   0.028
    1res  C9    9   -0.325  -0.195   0.221
    1res  C10   10   -0.651   0.019  -0.028
    1res  C11   11    0.128  -0.215   0.048
    1res  C12   12    0.489  -0.131   0.064
  10.00000  10.00000  10.00000
