[ moleculetype ]
; name        nrexcl
res           1

[ atoms ]
;    nr  type  resnr resid  atom  cgnr     charge       mass
      1 SN6d      1 res   C1        1      0.000     54.000
      2 SX3       1 res   C2        2      0.000     54.000
      3 TX3       1 res   C3        3      0.000     36.000
      4 TX3       1 res   C4        4      0.000     36.000

[ bonds ]
;  ai    aj   funct      b0(nm)          k(kJ/mol/nm^2)
    1     2     1      0.31024          83983.4
    1     4     1      0.35298         103179.0
    2     3     1      0.29448         112142.0
    3     4     1      0.22581          79655.6

[ angles ]
;  ai    aj    ak  funct     th0(deg)        k(kJ/mol/rad^2)
    1     2     3     1     93.16992          5117.60
    1     4     3     1     96.30732          2931.52
    2     1     4     1     72.65765          8493.41
    2     3     4     1     97.71535          4156.71

[ dihedrals ]
;  ai    aj    ak    al  funct   phi0(deg)        k(kJ/mol)   mult
    1     2     3     4     1    177.94069        7.755      1
    1     2     3     4     1    175.89501        7.629      2
    1     2     3     4     1    173.87730        7.421      3
    1     4     3     2     1   -178.85116        6.989      1
    1     4     3     2     1   -177.71332        6.896      2
    1     4     3     2     1   -176.59793        6.742      3
    2     1     4     3     1    178.84992        6.991      1
    2     1     4     3     1    177.71081        6.898      2
    2     1     4     3     1    176.59409        6.744      3
    3     2     1     4     1   -178.79732        5.497      1
    3     2     1     4     1   -177.60268        5.450      2
    3     2     1     4     1   -176.42436        5.371      3
