1TPCN02892
9
    1res  C1    1    0.414  -0.046   0.088
    1res  C2    2    0.103   0.073   0.166
    1res  C3    3   -0.125  -0.007   0.127
    1res  C4    4   -0.350   0.084   0.047
    1res  C5    5   -0.202  -0.134  -0.187
    1res  C6    6   -0.050   0.169  -0.014
    1res  C7    7    0.257   0.123  -0.161
    1res  C8    8    0.178  -0.188  -0.155
    1res  C9    9    0.090  -0.188   0.059
  10.00000  10.00000  10.00000
