[ moleculetype ]
; name        nrexcl
res           1

[ atoms ]
;    nr  type resnr resid  atom  cgnr     charge       mass
      1 SC4       1 res   C1        1      0.000     54.000
      2 TN4a      1 res   C2        2      0.000     36.000
      3 TC3       1 res   C3        3      0.000     36.000
      4 SC4       1 res   C4        4      0.000     54.000
      5 TN4a      1 res   C5        5      0.000     36.000
      6 TC3       1 res   C6        6      0.000     36.000
      7 SC4       1 res   C7        7      0.000     54.000
      8 SC4       1 res   C8        8      0.000     54.000
      9 TC3       1 res   C9        9      0.000     36.000
     10 TN6       1 res   C10      10      0.000     36.000
     11 SN4a      1 res   C11      11      0.000     54.000
     12 TN6       1 res   C12      12      0.000     36.000
     13 SN4a      1 res   C13      13      0.000     54.000
     14 TP1       1 res   C14      14      0.000     36.000
     15 TN6       1 res   C15      15      0.000     36.000
     16 TN6       1 res   C16      16      0.000     36.000
     17 TN6       1 res   C17      17      0.000     36.000
     18 TN4a      1 res   C18      18      0.000     36.000
     19 TC3       1 res   C19      19      0.000     36.000
     20 TN6       1 res   C20      20      0.000     36.000
     21 TN4a      1 res   C21      21      0.000     36.000
     22 TP1       1 res   C22      22      0.000     36.000
     23 TN6       1 res   C23      23      0.000     36.000
     24 TN6       1 res   C24      24      0.000     36.000
     25 TN6       1 res   C25      25      0.000     36.000
     26 TN6       1 res   C26      26      0.000     36.000
     27 TN6       1 res   C27      27      0.000     36.000
     28 TN6       1 res   C28      28      0.000     36.000
     29 TN6       1 res   C29      29      0.000     36.000
     30 SN4a      1 res   C30      30      0.000     54.000
     31 TP1       1 res   C31      31      0.000     36.000
     32 TN6       1 res   C32      32      0.000     36.000
     33 TN6       1 res   C33      33      0.000     36.000
     34 TN6       1 res   C34      34      0.000     36.000
     35 SC4       1 res   C35      35      0.000     54.000
     36 TC3       1 res   C36      36      0.000     36.000
     37 SC4       1 res   C37      37      0.000     54.000
     38 TN6       1 res   C38      38      0.000     36.000

[ bonds ]
;  ai    aj   funct      b0(nm)        k
    1     2     1      0.26526    20000
    1     3     1      0.30638    20000
    1     4     1      0.34060    20000
    3     4     1      0.31239    20000
    4     5     1      0.23946    20000
    4     6     1      0.33900    20000
    4    37     1      0.26063    20000
    4    38     1      0.28172    20000
    6     7     1      0.30164    20000
    7     8     1      0.32499    20000
    7    36     1      0.26809    20000
    7    37     1      0.30495    20000
    8     9     1      0.27769    20000
    8    35     1      0.33448    20000
    8    36     1      0.29728    20000
    9    10     1      0.25694    20000
   10    11     1      0.30359    20000
   10    35     1      0.24385    20000
   11    12     1      0.24695    20000
   11    29     1      0.27926    20000
   12    13     1      0.25870    20000
   12    28     1      0.22556    20000
   13    14     1      0.31514    20000
   13    15     1      0.26479    20000
   13    17     1      0.26267    20000
   15    16     1      0.24926    20000
   16    17     1      0.21844    20000
   17    18     1      0.19707    20000
   18    19     1      0.24127    20000
   18    27     1      0.22947    20000
   19    20     1      0.23130    20000
   19    26     1      0.27059    20000
   20    21     1      0.23039    20000
   20    25     1      0.22466    20000
   21    22     1      0.24113    20000
   21    23     1      0.24934    20000
   23    24     1      0.26191    20000
   24    25     1      0.24853    20000
   26    27     1      0.24228    20000
   28    29     1      0.24816    20000
   29    30     1      0.28060    20000
   30    31     1      0.28964    20000
   30    32     1      0.28327    20000
   30    34     1      0.27469    20000
   32    33     1      0.24984    20000
   33    34     1      0.23897    20000
   37    38     1      0.29699    20000
