1TPCN03342
9
    1res  C1    1    0.333  -0.114   0.160
    1res  C2    2    0.312  -0.071  -0.154
    1res  C3    3    0.147   0.148  -0.081
    1res  C4    4   -0.084   0.041   0.003
    1res  C5    5   -0.205  -0.035  -0.210
    1res  C6    6   -0.319  -0.001   0.117
    1res  C7    7   -0.372  -0.232   0.089
    1res  C8    8   -0.444   0.208  -0.047
    1res  C9    9    0.039   0.101   0.210
  10.00000  10.00000  10.00000
