[ moleculetype ]
; name        nrexcl
res           1

[ atoms ]
;    nr  type resnr resid  atom  cgnr     charge       mass
      1 SC4       1 res   C1        1      0.000     54.000
      2 SC3       1 res   C2        2      0.000     54.000
      3 SC4       1 res   C3        3      0.000     54.000
      4 TC5       1 res   C4        4      0.000     36.000
      5 SN6       1 res   C5        5      0.000     54.000
      6 SC3       1 res   C6        6      0.000     54.000
      7 SC4       1 res   C7        7      0.000     54.000
      8 TP1       1 res   C8        8      0.000     36.000
      9 TC3       1 res   C9        9      0.000     36.000

[ bonds ]
;  ai    aj   funct      b0(nm)        k
    1     2     1      0.31719    20000
    1     3     1      0.40078    20000
    2     3     1      0.28313    20000
    3     4     1      0.26796    20000
    3     9     1      0.31386    20000
    4     5     1      0.25681    20000
    4     6     1      0.26506    20000
    4     9     1      0.24758    20000
    5     6     1      0.34739    20000
    6     7     1      0.23874    20000
    6     8     1      0.29290    20000
