1TPCN04022
30
    1res  C1    1   -1.023   0.272   0.242
    1res  C2    2   -1.115   0.176  -0.028
    1res  C3    3   -0.863   0.004  -0.023
    1res  C4    4   -1.021  -0.164   0.039
    1res  C5    5   -0.622  -0.142   0.171
    1res  C6    6   -0.522  -0.201  -0.199
    1res  C7    7   -0.291  -0.129  -0.088
    1res  C8    8   -0.190  -0.145   0.155
    1res  C9    9   -0.033   0.007   0.010
    1res  C10   10    0.164   0.006  -0.017
    1res  C11   11    0.266  -0.020  -0.292
    1res  C12   12    0.443   0.098  -0.180
    1res  C13   13    0.440   0.115   0.034
    1res  C14   14    0.718   0.005   0.064
    1res  C15   15    0.925  -0.176  -0.013
    1res  C16   16    1.123  -0.063  -0.086
    1res  C17   17    1.101   0.210  -0.199
    1res  C18   18    1.357   0.128  -0.042
    1res  C19   19    1.391  -0.070   0.077
    1res  C20   20    1.285  -0.269  -0.000
    1res  C21   21    0.859  -0.162   0.285
    1res  C22   22    0.650  -0.126   0.354
    1res  C23   23    0.630   0.131   0.280
    1res  C24   24    0.240   0.167   0.150
    1res  C25   25   -0.148   0.167  -0.146
    1res  C26   26   -0.190   0.266   0.119
    1res  C27   27   -0.499   0.083  -0.168
    1res  C28   28   -0.776  -0.244  -0.177
    1res  C29   29   -0.972   0.012  -0.251
    1res  C30   30   -0.778   0.173   0.175
  10.00000  10.00000  10.00000
