[ moleculetype ]
; name        nrexcl
res           1

[ atoms ]
;    nr  type resnr resid  atom  cgnr     charge       mass
      1 C1        1 res   C1        1      0.000     72.000
      2 SP1       1 res   C2        2      0.000     54.000
      3 TC4       1 res   C3        3      0.000     36.000
      4 TC4       1 res   C4        4      0.000     36.000
      5 TC3       1 res   C5        5      0.000     36.000
      6 SC4       1 res   C6        6      0.000     54.000
      7 TC5       1 res   C7        7      0.000     36.000
      8 SP2       1 res   C8        8      0.000     54.000
      9 TC3       1 res   C9        9      0.000     36.000

[ bonds ]
;  ai    aj   funct      b0(nm)        k
    1     2     1      0.32242    20000
    1     3     1      0.37953    20000
    3     4     1      0.29234    20000
    3     6     1      0.39820    20000
    4     5     1      0.30270    20000
    5     6     1      0.25879    20000
    6     7     1      0.28622    20000
    6     9     1      0.29889    20000
    7     8     1      0.28285    20000
    7     9     1      0.25803    20000
