[ moleculetype ]
; name        nrexcl
res           1

[ atoms ]
;    nr  type resnr resid  atom  cgnr     charge       mass
      1 TC5       1 res   C1        1      0.000     36.000
      2 TN4a      1 res   C2        2      0.000     36.000
      3 TN3r      1 res   C3        3      0.000     36.000
      4 SC4       1 res   C4        4      0.000     54.000
      5 TN6a      1 res   C5        5      0.000     36.000
      6 TN4a      1 res   C6        6      0.000     36.000
      7 SC2       1 res   C7        7      0.000     54.000
      8 SC4       1 res   C8        8      0.000     54.000
      9 TC5       1 res   C9        9      0.000     36.000
     10 TN6a      1 res   C10      10      0.000     36.000
     11 SP1       1 res   C11      11      0.000     54.000

[ bonds ]
;  ai    aj   funct      b0(nm)        k
    1     2     1      0.29498    20000
    1    11     1      0.27895    20000
    2     3     1      0.21233    20000
    3     4     1      0.24523    20000
    3     8     1      0.25561    20000
    4     5     1      0.25317    20000
    4     6     1      0.30726    20000
    5     6     1      0.27403    20000
    6     7     1      0.31885    20000
    7     8     1      0.32636    20000
    8     9     1      0.28926    20000
    8    10     1      0.24115    20000
    9    10     1      0.26283    20000
