1TPCN00362
13
    1res  C1    1    0.172  -0.386  -0.099
    1res  C2    2    0.063  -0.129   0.089
    1res  C3    3    0.362   0.007  -0.098
    1res  C4    4    0.208   0.064   0.142
    1res  C5    5   -0.151   0.016   0.254
    1res  C6    6   -0.236  -0.317   0.022
    1res  C7    7    0.008   0.122  -0.023
    1res  C8    8   -0.019   0.098  -0.241
    1res  C9    9    0.101   0.229  -0.139
    1res  C10   10    0.052   0.318   0.089
    1res  C11   11   -0.143   0.228   0.026
    1res  C12   12   -0.277   0.425   0.102
    1res  C13   13   -0.383   0.186  -0.031
  10.00000  10.00000  10.00000
