[ moleculetype ]
; name        nrexcl
res           1

[ atoms ]
;    nr  type resnr resid  atom  cgnr     charge       mass
      1 TN3r      1 res   C1        1      0.000     36.000
      2 TN4a      1 res   C2        2      0.000     36.000
      3 TN3r      1 res   C3        3      0.000     36.000
      4 TC4       1 res   C4        4      0.000     36.000
      5 TN6       1 res   C5        5      0.000     36.000
      6 TP1       1 res   C6        6      0.000     36.000
      7 TC3       1 res   C7        7      0.000     36.000
      8 SN6       1 res   C8        8      0.000     54.000
      9 SC3       1 res   C9        9      0.000     54.000
     10 N4a       1 res   C10      10      0.000     72.000
     11 TC5       1 res   C11      11      0.000     36.000
     12 TC5       1 res   C12      12      0.000     36.000
     13 TC5       1 res   C13      13      0.000     36.000
     14 TN6       1 res   C14      14      0.000     36.000

[ bonds ]
;  ai    aj   funct      b0(nm)        k
    1     2     1      0.24110    20000
    2     3     1      0.27897    20000
    2     7     1      0.24804    20000
    2    14     1      0.25379    20000
    3     4     1      0.27378    20000
    4     5     1      0.27273    20000
    4     8     1      0.27529    20000
    5     6     1      0.24811    20000
    5     7     1      0.33428    20000
    7     8     1      0.28677    20000
    8     9     1      0.22369    20000
    8    14     1      0.37214    20000
    9    10     1      0.36253    20000
   10    11     1      0.35817    20000
   11    12     1      0.25813    20000
   11    13     1      0.30213    20000
   12    13     1      0.29083    20000
