1TPCN05673
24
    1res  C1    1   -0.545  -0.425  -0.045
    1res  C2    2   -0.474  -0.283   0.213
    1res  C3    3   -0.338  -0.145   0.008
    1res  C4    4   -0.470   0.017   0.133
    1res  C5    5   -0.610   0.228  -0.056
    1res  C6    6   -0.709   0.282  -0.326
    1res  C7    7   -0.808   0.387  -0.026
    1res  C8    8   -0.932   0.150   0.016
    1res  C9    9   -0.775   0.031   0.117
    1res  C10   10   -0.151  -0.020   0.194
    1res  C11   11   -0.210   0.066  -0.089
    1res  C12   12    0.022  -0.244  -0.147
    1res  C13   13    0.046   0.029  -0.170
    1res  C14   14    0.327  -0.029  -0.172
    1res  C15   15    0.402  -0.136   0.106
    1res  C16   16    0.598   0.002   0.035
    1res  C17   17    0.840   0.072  -0.003
    1res  C18   18    1.108   0.146   0.005
    1res  C19   19    1.052  -0.068   0.105
    1res  C20   20    0.884   0.001   0.272
    1res  C21   21    0.539   0.183  -0.139
    1res  C22   22    0.484   0.285   0.141
    1res  C23   23    0.140   0.203   0.033
    1res  C24   24   -0.276  -0.367  -0.021
  10.00000  10.00000  10.00000
