[ moleculetype ]
; name        nrexcl
res           1

[ atoms ]
;    nr  type  resnr resid  atom  cgnr     charge       mass
      1 SN3a      1 res   C1        1      0.000     54.000
      2 SX3       1 res   C2        2      0.000     54.000
      3 TN6a      1 res   C3        3      0.000     36.000
      4 TN6d      1 res   C4        4      0.000     36.000

[ constraints ]
;  ai    aj   funct      b0(nm)
    1     2     1      0.25908
    3     4     1      0.21283
    2     3     1      0.28015
    2     4     1      0.21758

[ bonds ]
;  ai    aj   funct      b0(nm)          k(kJ/mol/nm^2)

[ angles ]
;  ai    aj    ak  funct     th0(deg)        k(kJ/mol/rad^2)
    1     2     3     1     92.07841           877.86
    1     2     4     1    139.69958           624.85
    2     3     4     1     50.14034          2356.49
    2     4     3     1     81.20589          2123.37
    3     2     4     1     48.65372          2421.21

[ dihedrals ]
;  ai    aj    ak    al  funct   phi0(deg)        k(kJ/mol)   mult
    1     2     3     4     1      0.94547       15.826      1
    1     2     4     3     1   -178.05043       21.769      1
