1TPCN01611
14
    1res  C1    1    0.342   0.490  -0.178
    1res  C2    2    0.210   0.226  -0.168
    1res  C3    3    0.232   0.014  -0.008
    1res  C4    4    0.244  -0.307   0.020
    1res  C5    5    0.430  -0.286   0.082
    1res  C6    6    0.240  -0.555  -0.239
    1res  C7    7    0.074  -0.282  -0.014
    1res  C8    8   -0.021  -0.154   0.271
    1res  C9    9   -0.300  -0.288   0.132
    1res  C10   10   -0.246  -0.088  -0.030
    1res  C11   11   -0.423   0.115   0.060
    1res  C12   12   -0.142   0.147   0.123
    1res  C13   13   -0.219   0.402   0.013
    1res  C14   14    0.257   0.274   0.126
  10.00000  10.00000  10.00000
