Generated with MDTraj, t= 0.0
 47
    1UNL     C1    1   0.184   0.370  -0.046
    1UNL     C2    2   0.206   0.226  -0.023
    1UNL     C3    3   0.101   0.136  -0.033
    1UNL     C4    4   0.119  -0.000  -0.012
    1UNL     O1    5   0.015  -0.095  -0.020
    1UNL     C5    6  -0.115  -0.041   0.003
    1UNL     O2    7  -0.207  -0.134   0.064
    1UNL     C6    8  -0.340  -0.081   0.076
    1UNL     C7    9  -0.344   0.049   0.156
    1UNL     O3   10  -0.278   0.034   0.280
    1UNL     C8   11  -0.405  -0.066  -0.065
    1UNL     O4   12  -0.496  -0.171  -0.092
    1UNL     C9   13  -0.299  -0.056  -0.179
    1UNL     O5   14  -0.354   0.012  -0.290
    1UNL    C10   15  -0.173   0.020  -0.130
    1UNL     O6   16  -0.203   0.157  -0.114
    1UNL    C11   17   0.247  -0.047   0.020
    1UNL    C12   18   0.266  -0.195   0.046
    1UNL    C13   19   0.375  -0.255  -0.043
    1UNL    C14   20   0.291  -0.222   0.194
    1UNL    C15   21   0.352   0.042   0.031
    1UNL    C16   22   0.334   0.179   0.010
    1UNL     O7   23   0.439   0.269   0.022
    1UNL     H1   24   0.277   0.426  -0.032
    1UNL     H2   25   0.110   0.410   0.023
    1UNL     H3   26   0.149   0.389  -0.148
    1UNL     H4   27   0.004   0.173  -0.060
    1UNL     H5   28  -0.102   0.038   0.077
    1UNL     H6   29  -0.395  -0.158   0.132
    1UNL     H7   30  -0.296   0.129   0.099
    1UNL     H8   31  -0.448   0.080   0.174
    1UNL     H9   32  -0.280   0.118   0.331
    1UNL    H10   33  -0.465   0.027  -0.068
    1UNL    H11   34  -0.448  -0.256  -0.087
    1UNL    H12   35  -0.271  -0.158  -0.210
    1UNL    H13   36  -0.440  -0.030  -0.314
    1UNL    H14   37  -0.095   0.012  -0.207
    1UNL    H15   38  -0.259   0.183  -0.190
    1UNL    H16   39   0.170  -0.243   0.019
    1UNL    H17   40   0.383  -0.363  -0.029
    1UNL    H18   41   0.473  -0.212  -0.019
    1UNL    H19   42   0.356  -0.235  -0.148
    1UNL    H20   43   0.211  -0.182   0.256
    1UNL    H21   44   0.299  -0.329   0.215
    1UNL    H22   45   0.384  -0.176   0.227
    1UNL    H23   46   0.450   0.006   0.058
    1UNL    H24   47   0.521   0.221   0.045
   0.00000   0.00000   0.00000   0.00000   0.00000   0.00000   0.00000   0.00000   0.00000
Generated with MDTraj, t= 1.0
 47
    1UNL     C1    1   0.187   0.373  -0.034
    1UNL     C2    2   0.205   0.220  -0.024
    1UNL     C3    3   0.101   0.129  -0.036
    1UNL     C4    4   0.114  -0.010  -0.029
    1UNL     O1    5   0.014  -0.101  -0.043
    1UNL     C5    6  -0.114  -0.043  -0.005
    1UNL     O2    7  -0.209  -0.132   0.056
    1UNL     C6    8  -0.342  -0.083   0.072
    1UNL     C7    9  -0.340   0.034   0.166
    1UNL     O3   10  -0.243   0.007   0.276
    1UNL     C8   11  -0.407  -0.057  -0.072
    1UNL     O4   12  -0.515  -0.144  -0.092
    1UNL     C9   13  -0.290  -0.056  -0.178
    1UNL     O5   14  -0.334  -0.003  -0.297
    1UNL    C10   15  -0.175   0.033  -0.126
    1UNL     O6   16  -0.221   0.165  -0.089
    1UNL    C11   17   0.246  -0.047   0.006
    1UNL    C12   18   0.262  -0.191   0.057
    1UNL    C13   19   0.378  -0.268  -0.006
    1UNL    C14   20   0.281  -0.186   0.207
    1UNL    C15   21   0.350   0.045   0.027
    1UNL    C16   22   0.334   0.177  -0.005
    1UNL     O7   23   0.433   0.276   0.006
    1UNL     H1   24   0.286   0.408  -0.035
    1UNL     H2   25   0.130   0.409   0.058
    1UNL     H3   26   0.144   0.399  -0.128
    1UNL     H4   27   0.006   0.178  -0.050
    1UNL     H5   28  -0.088   0.028   0.074
    1UNL     H6   29  -0.408  -0.161   0.114
    1UNL     H7   30  -0.297   0.119   0.120
    1UNL     H8   31  -0.432   0.063   0.213
    1UNL     H9   32  -0.281  -0.052   0.343
    1UNL    H10   33  -0.456   0.041  -0.077
    1UNL    H11   34  -0.472  -0.229  -0.097
    1UNL    H12   35  -0.261  -0.165  -0.190
    1UNL    H13   36  -0.429  -0.044  -0.312
    1UNL    H14   37  -0.100   0.044  -0.204
    1UNL    H15   38  -0.294   0.195  -0.148
    1UNL    H16   39   0.171  -0.246   0.035
    1UNL    H17   40   0.371  -0.273  -0.116
    1UNL    H18   41   0.383  -0.370   0.039
    1UNL    H19   42   0.473  -0.227   0.009
    1UNL    H20   43   0.191  -0.145   0.249
    1UNL    H21   44   0.283  -0.291   0.249
    1UNL    H22   45   0.375  -0.140   0.223
    1UNL    H23   46   0.439  -0.006   0.060
    1UNL    H24   47   0.512   0.243   0.059
   0.00000   0.00000   0.00000   0.00000   0.00000   0.00000   0.00000   0.00000   0.00000
Generated with MDTraj, t= 2.0
 47
    1UNL     C1    1   0.194   0.370  -0.061
    1UNL     C2    2   0.212   0.226  -0.037
    1UNL     C3    3   0.102   0.141  -0.036
    1UNL     C4    4   0.123   0.005  -0.013
    1UNL     O1    5   0.023  -0.087  -0.019
    1UNL     C5    6  -0.115  -0.042  -0.001
    1UNL     O2    7  -0.201  -0.140   0.054
    1UNL     C6    8  -0.334  -0.092   0.075
    1UNL     C7    9  -0.346   0.016   0.176
    1UNL     O3   10  -0.259  -0.021   0.281
    1UNL     C8   11  -0.408  -0.056  -0.062
    1UNL     O4   12  -0.513  -0.144  -0.100
    1UNL     C9   13  -0.310  -0.049  -0.177
    1UNL     O5   14  -0.369   0.025  -0.277
    1UNL    C10   15  -0.169   0.013  -0.140
    1UNL     O6   16  -0.183   0.156  -0.130
    1UNL    C11   17   0.246  -0.035   0.029
    1UNL    C12   18   0.258  -0.190   0.060
    1UNL    C13   19   0.380  -0.258  -0.004
    1UNL    C14   20   0.254  -0.198   0.214
    1UNL    C15   21   0.354   0.047   0.032
    1UNL    C16   22   0.342   0.177  -0.003
    1UNL     O7   23   0.436   0.277  -0.006
    1UNL     H1   24   0.289   0.405  -0.086
    1UNL     H2   25   0.155   0.420   0.036
    1UNL     H3   26   0.134   0.389  -0.148
    1UNL     H4   27   0.017   0.195  -0.074
    1UNL     H5   28  -0.109   0.045   0.063
    1UNL     H6   29  -0.392  -0.182   0.109
    1UNL     H7   30  -0.307   0.111   0.156
    1UNL     H8   31  -0.433   0.031   0.235
    1UNL     H9   32  -0.200  -0.093   0.243
    1UNL    H10   33  -0.461   0.042  -0.060
    1UNL    H11   34  -0.477  -0.234  -0.108
    1UNL    H12   35  -0.295  -0.152  -0.224
    1UNL    H13   36  -0.475   0.017  -0.275
    1UNL    H14   37  -0.102  -0.017  -0.223
    1UNL    H15   38  -0.274   0.184  -0.157
    1UNL    H16   39   0.171  -0.231   0.013
    1UNL    H17   40   0.467  -0.191  -0.022
    1UNL    H18   41   0.358  -0.331  -0.087
    1UNL    H19   42   0.419  -0.322   0.067
    1UNL    H20   43   0.168  -0.138   0.237
    1UNL    H21   44   0.217  -0.296   0.265
    1UNL    H22   45   0.343  -0.167   0.261
    1UNL    H23   46   0.448   0.011   0.072
    1UNL    H24   47   0.508   0.265   0.064
   0.00000   0.00000   0.00000   0.00000   0.00000   0.00000   0.00000   0.00000   0.00000
Generated with MDTraj, t= 3.0
 47
    1UNL     C1    1   0.198   0.365  -0.093
    1UNL     C2    2   0.216   0.229  -0.050
    1UNL     C3    3   0.108   0.141  -0.049
    1UNL     C4    4   0.120   0.008  -0.008
    1UNL     O1    5   0.019  -0.082  -0.026
    1UNL     C5    6  -0.118  -0.037  -0.011
    1UNL     O2    7  -0.198  -0.135   0.050
    1UNL     C6    8  -0.334  -0.102   0.078
    1UNL     C7    9  -0.348  -0.005   0.189
    1UNL     O3   10  -0.280  -0.049   0.301
    1UNL     C8   11  -0.405  -0.046  -0.052
    1UNL     O4   12  -0.517  -0.124  -0.085
    1UNL     C9   13  -0.316  -0.041  -0.177
    1UNL     O5   14  -0.379   0.034  -0.274
    1UNL    C10   15  -0.168   0.005  -0.152
    1UNL     O6   16  -0.166   0.144  -0.155
    1UNL    C11   17   0.246  -0.036   0.036
    1UNL    C12   18   0.256  -0.183   0.067
    1UNL    C13   19   0.402  -0.228   0.004
    1UNL    C14   20   0.246  -0.206   0.213
    1UNL    C15   21   0.351   0.051   0.042
    1UNL    C16   22   0.335   0.179  -0.004
    1UNL     O7   23   0.445   0.264   0.010
    1UNL     H1   24   0.294   0.397  -0.130
    1UNL     H2   25   0.157   0.431  -0.013
    1UNL     H3   26   0.139   0.372  -0.183
    1UNL     H4   27   0.012   0.186  -0.064
    1UNL     H5   28  -0.109   0.055   0.045
    1UNL     H6   29  -0.390  -0.194   0.111
    1UNL     H7   30  -0.302   0.088   0.172
    1UNL     H8   31  -0.444   0.007   0.231
    1UNL     H9   32  -0.209  -0.099   0.255
    1UNL    H10   33  -0.442   0.059  -0.041
    1UNL    H11   34  -0.490  -0.215  -0.119
    1UNL    H12   35  -0.301  -0.151  -0.210
    1UNL    H13   36  -0.481   0.033  -0.261
    1UNL    H14   37  -0.106  -0.048  -0.228
    1UNL    H15   38  -0.253   0.189  -0.158
    1UNL    H16   39   0.182  -0.238   0.018
    1UNL    H17   40   0.480  -0.244   0.080
    1UNL    H18   41   0.428  -0.147  -0.067
    1UNL    H19   42   0.397  -0.308  -0.067
    1UNL    H20   43   0.145  -0.214   0.250
    1UNL    H21   44   0.288  -0.307   0.242
    1UNL    H22   45   0.308  -0.138   0.266
    1UNL    H23   46   0.446   0.016   0.076
    1UNL    H24   47   0.515   0.218   0.062
   0.00000   0.00000   0.00000   0.00000   0.00000   0.00000   0.00000   0.00000   0.00000
Generated with MDTraj, t= 4.0
 47
    1UNL     C1    1   0.190   0.368  -0.108
    1UNL     C2    2   0.218   0.231  -0.063
    1UNL     C3    3   0.111   0.141  -0.065
    1UNL     C4    4   0.126   0.004  -0.027
    1UNL     O1    5   0.023  -0.092  -0.039
    1UNL     C5    6  -0.109  -0.047  -0.013
    1UNL     O2    7  -0.196  -0.146   0.045
    1UNL     C6    8  -0.333  -0.095   0.072
    1UNL     C7    9  -0.343  -0.015   0.198
    1UNL     O3   10  -0.265  -0.076   0.306
    1UNL     C8   11  -0.402  -0.026  -0.055
    1UNL     O4   12  -0.537  -0.069  -0.061
    1UNL     C9   13  -0.310  -0.051  -0.181
    1UNL     O5   14  -0.373   0.003  -0.295
    1UNL    C10   15  -0.166   0.010  -0.150
    1UNL     O6   16  -0.179   0.151  -0.143
    1UNL    C11   17   0.247  -0.037   0.029
    1UNL    C12   18   0.268  -0.181   0.068
    1UNL    C13   19   0.401  -0.243   0.017
    1UNL    C14   20   0.243  -0.209   0.220
    1UNL    C15   21   0.349   0.055   0.036
    1UNL    C16   22   0.336   0.191   0.003
    1UNL     O7   23   0.437   0.288   0.044
    1UNL     H1   24   0.283   0.424  -0.127
    1UNL     H2   25   0.126   0.415  -0.044
    1UNL     H3   26   0.151   0.364  -0.210
    1UNL     H4   27   0.012   0.161  -0.103
    1UNL     H5   28  -0.106   0.040   0.051
    1UNL     H6   29  -0.398  -0.183   0.098
    1UNL     H7   30  -0.299   0.080   0.180
    1UNL     H8   31  -0.447  -0.014   0.233
    1UNL     H9   32  -0.321  -0.147   0.342
    1UNL    H10   33  -0.409   0.086  -0.053
    1UNL    H11   34  -0.550  -0.155  -0.110
    1UNL    H12   35  -0.303  -0.167  -0.189
    1UNL    H13   36  -0.466  -0.000  -0.276
    1UNL    H14   37  -0.114  -0.028  -0.242
    1UNL    H15   38  -0.269   0.182  -0.175
    1UNL    H16   39   0.191  -0.241   0.026
    1UNL    H17   40   0.486  -0.178   0.020
    1UNL    H18   41   0.387  -0.288  -0.081
    1UNL    H19   42   0.432  -0.332   0.083
    1UNL    H20   43   0.160  -0.142   0.241
    1UNL    H21   44   0.198  -0.304   0.242
    1UNL    H22   45   0.328  -0.193   0.290
    1UNL    H23   46   0.450   0.021   0.063
    1UNL    H24   47   0.517   0.236   0.035
   0.00000   0.00000   0.00000   0.00000   0.00000   0.00000   0.00000   0.00000   0.00000
Generated with MDTraj, t= 5.0
 47
    1UNL     C1    1   0.172   0.376  -0.082
    1UNL     C2    2   0.201   0.230  -0.058
    1UNL     C3    3   0.109   0.131  -0.084
    1UNL     C4    4   0.134  -0.005  -0.045
    1UNL     O1    5   0.025  -0.105  -0.058
    1UNL     C5    6  -0.107  -0.056  -0.039
    1UNL     O2    7  -0.190  -0.144   0.046
    1UNL     C6    8  -0.325  -0.092   0.077
    1UNL     C7    9  -0.317  -0.014   0.208
    1UNL     O3   10  -0.268  -0.103   0.312
    1UNL     C8   11  -0.392  -0.016  -0.043
    1UNL     O4   12  -0.529  -0.041  -0.051
    1UNL     C9   13  -0.318  -0.050  -0.178
    1UNL     O5   14  -0.372   0.008  -0.295
    1UNL    C10   15  -0.170  -0.002  -0.169
    1UNL     O6   16  -0.169   0.142  -0.166
    1UNL    C11   17   0.249  -0.037   0.020
    1UNL    C12   18   0.252  -0.175   0.077
    1UNL    C13   19   0.382  -0.249   0.033
    1UNL    C14   20   0.252  -0.185   0.237
    1UNL    C15   21   0.346   0.057   0.043
    1UNL    C16   22   0.323   0.190   0.008
    1UNL     O7   23   0.424   0.282   0.041
    1UNL     H1   24   0.252   0.444  -0.046
    1UNL     H2   25   0.079   0.398  -0.042
    1UNL     H3   26   0.183   0.388  -0.190
    1UNL     H4   27   0.011   0.154  -0.122
    1UNL     H5   28  -0.090   0.027   0.025
    1UNL     H6   29  -0.388  -0.177   0.110
    1UNL     H7   30  -0.245   0.066   0.187
    1UNL     H8   31  -0.423   0.012   0.236
    1UNL     H9   32  -0.172  -0.086   0.330
    1UNL    H10   33  -0.376   0.093  -0.037
    1UNL    H11   34  -0.530  -0.134  -0.080
    1UNL    H12   35  -0.318  -0.166  -0.180
    1UNL    H13   36  -0.464   0.028  -0.288
    1UNL    H14   37  -0.116  -0.049  -0.255
    1UNL    H15   38  -0.235   0.196  -0.215
    1UNL    H16   39   0.164  -0.224   0.044
    1UNL    H17   40   0.462  -0.255   0.105
    1UNL    H18   41   0.419  -0.224  -0.062
    1UNL    H19   42   0.363  -0.364   0.026
    1UNL    H20   43   0.169  -0.124   0.276
    1UNL    H21   44   0.231  -0.280   0.268
    1UNL    H22   45   0.347  -0.141   0.282
    1UNL    H23   46   0.447   0.048   0.069
    1UNL    H24   47   0.506   0.231   0.026
   0.00000   0.00000   0.00000   0.00000   0.00000   0.00000   0.00000   0.00000   0.00000
Generated with MDTraj, t= 6.0
 47
    1UNL     C1    1   0.196   0.375  -0.091
    1UNL     C2    2   0.202   0.236  -0.039
    1UNL     C3    3   0.103   0.146  -0.071
    1UNL     C4    4   0.118   0.005  -0.033
    1UNL     O1    5   0.026  -0.098  -0.056
    1UNL     C5    6  -0.108  -0.054  -0.044
    1UNL     O2    7  -0.188  -0.150   0.020
    1UNL     C6    8  -0.313  -0.102   0.068
    1UNL     C7    9  -0.302  -0.028   0.209
    1UNL     O3   10  -0.234  -0.096   0.306
    1UNL     C8   11  -0.388  -0.022  -0.040
    1UNL     O4   12  -0.532  -0.039  -0.043
    1UNL     C9   13  -0.333  -0.044  -0.183
    1UNL     O5   14  -0.402   0.046  -0.270
    1UNL    C10   15  -0.180  -0.026  -0.178
    1UNL     O6   16  -0.153   0.106  -0.225
    1UNL    C11   17   0.239  -0.034   0.041
    1UNL    C12   18   0.249  -0.177   0.089
    1UNL    C13   19   0.379  -0.250   0.033
    1UNL    C14   20   0.254  -0.178   0.240
    1UNL    C15   21   0.338   0.059   0.058
    1UNL    C16   22   0.319   0.195   0.024
    1UNL     O7   23   0.429   0.284   0.037
    1UNL     H1   24   0.274   0.438  -0.048
    1UNL     H2   25   0.092   0.407  -0.088
    1UNL     H3   26   0.231   0.358  -0.191
    1UNL     H4   27   0.005   0.173  -0.110
    1UNL     H5   28  -0.112   0.029   0.020
    1UNL     H6   29  -0.370  -0.192   0.086
    1UNL     H7   30  -0.246   0.065   0.184
    1UNL     H8   31  -0.412  -0.021   0.243
    1UNL     H9   32  -0.283  -0.168   0.354
    1UNL    H10   33  -0.384   0.086  -0.024
    1UNL    H11   34  -0.565  -0.129  -0.053
    1UNL    H12   35  -0.367  -0.151  -0.214
    1UNL    H13   36  -0.498   0.074  -0.235
    1UNL    H14   37  -0.151  -0.089  -0.265
    1UNL    H15   38  -0.211   0.145  -0.294
    1UNL    H16   39   0.164  -0.236   0.061
    1UNL    H17   40   0.468  -0.192   0.014
    1UNL    H18   41   0.342  -0.291  -0.058
    1UNL    H19   42   0.420  -0.335   0.096
    1UNL    H20   43   0.159  -0.203   0.285
    1UNL    H21   44   0.315  -0.258   0.271
    1UNL    H22   45   0.290  -0.076   0.277
    1UNL    H23   46   0.437   0.026   0.093
    1UNL    H24   47   0.510   0.235   0.070
   0.00000   0.00000   0.00000   0.00000   0.00000   0.00000   0.00000   0.00000   0.00000
Generated with MDTraj, t= 7.0
 47
    1UNL     C1    1   0.200   0.371  -0.103
    1UNL     C2    2   0.203   0.231  -0.055
    1UNL     C3    3   0.114   0.134  -0.091
    1UNL     C4    4   0.128   0.003  -0.039
    1UNL     O1    5   0.029  -0.095  -0.051
    1UNL     C5    6  -0.109  -0.050  -0.054
    1UNL     O2    7  -0.184  -0.145   0.029
    1UNL     C6    8  -0.314  -0.100   0.071
    1UNL     C7    9  -0.294  -0.037   0.211
    1UNL     O3   10  -0.207  -0.114   0.280
    1UNL     C8   11  -0.386  -0.005  -0.030
    1UNL     O4   12  -0.527  -0.021  -0.025
    1UNL     C9   13  -0.337  -0.042  -0.179
    1UNL     O5   14  -0.406   0.047  -0.264
    1UNL    C10   15  -0.182  -0.042  -0.191
    1UNL     O6   16  -0.150   0.090  -0.243
    1UNL    C11   17   0.227  -0.023   0.054
    1UNL    C12   18   0.240  -0.175   0.092
    1UNL    C13   19   0.368  -0.236   0.018
    1UNL    C14   20   0.244  -0.187   0.253
    1UNL    C15   21   0.323   0.062   0.089
    1UNL    C16   22   0.311   0.194   0.034
    1UNL     O7   23   0.415   0.289   0.048
    1UNL     H1   24   0.272   0.439  -0.061
    1UNL     H2   25   0.096   0.417  -0.106
    1UNL     H3   26   0.231   0.367  -0.203
    1UNL     H4   27   0.031   0.161  -0.154
    1UNL     H5   28  -0.109   0.034   0.009
    1UNL     H6   29  -0.369  -0.191   0.083
    1UNL     H7   30  -0.232   0.057   0.199
    1UNL     H8   31  -0.395  -0.036   0.271
    1UNL     H9   32  -0.151  -0.175   0.227
    1UNL    H10   33  -0.347   0.095  -0.014
    1UNL    H11   34  -0.549  -0.116  -0.014
    1UNL    H12   35  -0.371  -0.150  -0.193
    1UNL    H13   36  -0.501   0.054  -0.241
    1UNL    H14   37  -0.147  -0.115  -0.265
    1UNL    H15   38  -0.208   0.129  -0.313
    1UNL    H16   39   0.155  -0.223   0.045
    1UNL    H17   40   0.446  -0.258   0.092
    1UNL    H18   41   0.396  -0.184  -0.073
    1UNL    H19   42   0.338  -0.337  -0.007
    1UNL    H20   43   0.215  -0.096   0.307
    1UNL    H21   44   0.173  -0.260   0.290
    1UNL    H22   45   0.341  -0.206   0.297
    1UNL    H23   46   0.405   0.028   0.148
    1UNL    H24   47   0.459   0.287   0.139
   0.00000   0.00000   0.00000   0.00000   0.00000   0.00000   0.00000   0.00000   0.00000
Generated with MDTraj, t= 8.0
 47
    1UNL     C1    1   0.203   0.365  -0.116
    1UNL     C2    2   0.193   0.227  -0.061
    1UNL     C3    3   0.106   0.123  -0.101
    1UNL     C4    4   0.122  -0.010  -0.050
    1UNL     O1    5   0.030  -0.107  -0.084
    1UNL     C5    6  -0.103  -0.065  -0.056
    1UNL     O2    7  -0.173  -0.155   0.029
    1UNL     C6    8  -0.295  -0.095   0.070
    1UNL     C7    9  -0.284  -0.033   0.205
    1UNL     O3   10  -0.190  -0.121   0.279
    1UNL     C8   11  -0.364   0.001  -0.035
    1UNL     O4   12  -0.497   0.011  -0.007
    1UNL     C9   13  -0.328  -0.049  -0.182
    1UNL     O5   14  -0.407   0.033  -0.261
    1UNL    C10   15  -0.176  -0.033  -0.186
    1UNL     O6   16  -0.154   0.106  -0.221
    1UNL    C11   17   0.229  -0.033   0.043
    1UNL    C12   18   0.233  -0.175   0.095
    1UNL    C13   19   0.345  -0.252   0.026
    1UNL    C14   20   0.228  -0.163   0.248
    1UNL    C15   21   0.307   0.072   0.090
    1UNL    C16   22   0.297   0.198   0.033
    1UNL     O7   23   0.385   0.293   0.083
    1UNL     H1   24   0.289   0.412  -0.079
    1UNL     H2   25   0.114   0.437  -0.115
    1UNL     H3   26   0.230   0.356  -0.217
    1UNL     H4   27   0.020   0.149  -0.159
    1UNL     H5   28  -0.107   0.025   0.001
    1UNL     H6   29  -0.366  -0.178   0.070
    1UNL     H7   30  -0.236   0.070   0.195
    1UNL     H8   31  -0.383  -0.036   0.266
    1UNL     H9   32  -0.128  -0.163   0.214
    1UNL    H10   33  -0.317   0.099  -0.031
    1UNL    H11   34  -0.549  -0.076   0.006
    1UNL    H12   35  -0.352  -0.157  -0.187
    1UNL    H13   36  -0.499   0.033  -0.227
    1UNL    H14   37  -0.136  -0.086  -0.273
    1UNL    H15   38  -0.206   0.131  -0.300
    1UNL    H16   39   0.140  -0.221   0.053
    1UNL    H17   40   0.430  -0.189  -0.004
    1UNL    H18   41   0.297  -0.291  -0.066
    1UNL    H19   42   0.373  -0.338   0.079
    1UNL    H20   43   0.126  -0.161   0.282
    1UNL    H21   44   0.272  -0.253   0.299
    1UNL    H22   45   0.269  -0.074   0.285
    1UNL    H23   46   0.395   0.048   0.147
    1UNL    H24   47   0.415   0.271   0.175
   0.00000   0.00000   0.00000   0.00000   0.00000   0.00000   0.00000   0.00000   0.00000
Generated with MDTraj, t= 9.0
 47
    1UNL     C1    1   0.178   0.361  -0.117
    1UNL     C2    2   0.210   0.217  -0.068
    1UNL     C3    3   0.125   0.119  -0.114
    1UNL     C4    4   0.133  -0.008  -0.066
    1UNL     O1    5   0.038  -0.111  -0.094
    1UNL     C5    6  -0.102  -0.063  -0.076
    1UNL     O2    7  -0.166  -0.158   0.014
    1UNL     C6    8  -0.281  -0.095   0.074
    1UNL     C7    9  -0.241  -0.020   0.195
    1UNL     O3   10  -0.192  -0.126   0.292
    1UNL     C8   11  -0.366   0.005  -0.023
    1UNL     O4   12  -0.501  -0.008  -0.004
    1UNL     C9   13  -0.338  -0.033  -0.175
    1UNL     O5   14  -0.424   0.043  -0.256
    1UNL    C10   15  -0.185  -0.023  -0.202
    1UNL     O6   16  -0.161   0.119  -0.233
    1UNL    C11   17   0.222  -0.036   0.046
    1UNL    C12   18   0.228  -0.178   0.104
    1UNL    C13   19   0.356  -0.258   0.057
    1UNL    C14   20   0.212  -0.174   0.260
    1UNL    C15   21   0.302   0.069   0.094
    1UNL    C16   22   0.296   0.194   0.039
    1UNL     O7   23   0.374   0.304   0.083
    1UNL     H1   24   0.259   0.420  -0.083
    1UNL     H2   25   0.081   0.403  -0.089
    1UNL     H3   26   0.183   0.363  -0.225
    1UNL     H4   27   0.042   0.134  -0.180
    1UNL     H5   28  -0.101   0.024  -0.015
    1UNL     H6   29  -0.356  -0.172   0.102
    1UNL     H7   30  -0.158   0.053   0.187
    1UNL     H8   31  -0.327   0.024   0.256
    1UNL     H9   32  -0.137  -0.187   0.240
    1UNL    H10   33  -0.328   0.105  -0.009
    1UNL    H11   34  -0.530  -0.104   0.003
    1UNL    H12   35  -0.359  -0.140  -0.181
    1UNL    H13   36  -0.521   0.060  -0.220
    1UNL    H14   37  -0.153  -0.089  -0.283
    1UNL    H15   38  -0.240   0.149  -0.284
    1UNL    H16   39   0.141  -0.232   0.054
    1UNL    H17   40   0.452  -0.220   0.092
    1UNL    H18   41   0.366  -0.250  -0.054
    1UNL    H19   42   0.357  -0.361   0.065
    1UNL    H20   43   0.162  -0.089   0.300
    1UNL    H21   44   0.143  -0.263   0.276
    1UNL    H22   45   0.304  -0.187   0.309
    1UNL    H23   46   0.361   0.050   0.182
    1UNL    H24   47   0.415   0.287   0.169
   0.00000   0.00000   0.00000   0.00000   0.00000   0.00000   0.00000   0.00000   0.00000
Generated with MDTraj, t= 10.0
 47
    1UNL     C1    1   0.201   0.375  -0.115
    1UNL     C2    2   0.212   0.231  -0.073
    1UNL     C3    3   0.123   0.133  -0.115
    1UNL     C4    4   0.121   0.007  -0.065
    1UNL     O1    5   0.030  -0.101  -0.104
    1UNL     C5    6  -0.104  -0.064  -0.061
    1UNL     O2    7  -0.174  -0.160   0.018
    1UNL     C6    8  -0.291  -0.108   0.083
    1UNL     C7    9  -0.259  -0.039   0.216
    1UNL     O3   10  -0.156  -0.108   0.288
    1UNL     C8   11  -0.371  -0.013  -0.021
    1UNL     O4   12  -0.508  -0.020  -0.006
    1UNL     C9   13  -0.337  -0.037  -0.176
    1UNL     O5   14  -0.405   0.065  -0.251
    1UNL    C10   15  -0.185  -0.033  -0.188
    1UNL     O6   16  -0.145   0.089  -0.245
    1UNL    C11   17   0.206  -0.029   0.036
    1UNL    C12   18   0.217  -0.175   0.087
    1UNL    C13   19   0.347  -0.242   0.075
    1UNL    C14   20   0.189  -0.170   0.240
    1UNL    C15   21   0.303   0.064   0.084
    1UNL    C16   22   0.303   0.195   0.031
    1UNL     O7   23   0.382   0.287   0.093
    1UNL     H1   24   0.292   0.425  -0.080
    1UNL     H2   25   0.117   0.427  -0.090
    1UNL     H3   26   0.207   0.376  -0.225
    1UNL     H4   27   0.039   0.173  -0.168
    1UNL     H5   28  -0.115   0.026  -0.002
    1UNL     H6   29  -0.370  -0.189   0.094
    1UNL     H7   30  -0.204   0.055   0.209
    1UNL     H8   31  -0.342  -0.033   0.291
    1UNL     H9   32  -0.118  -0.172   0.221
    1UNL    H10   33  -0.342   0.089  -0.001
    1UNL    H11   34  -0.542  -0.108  -0.030
    1UNL    H12   35  -0.381  -0.133  -0.196
    1UNL    H13   36  -0.494   0.081  -0.221
    1UNL    H14   37  -0.163  -0.111  -0.260
    1UNL    H15   38  -0.222   0.124  -0.294
    1UNL    H16   39   0.138  -0.233   0.026
    1UNL    H17   40   0.417  -0.193   0.143
    1UNL    H18   41   0.396  -0.246  -0.022
    1UNL    H19   42   0.337  -0.345   0.099
    1UNL    H20   43   0.089  -0.196   0.261
    1UNL    H21   44   0.248  -0.249   0.294
    1UNL    H22   45   0.206  -0.075   0.285
    1UNL    H23   46   0.379   0.041   0.157
    1UNL    H24   47   0.428   0.229   0.154
   0.00000   0.00000   0.00000   0.00000   0.00000   0.00000   0.00000   0.00000   0.00000
Generated with MDTraj, t= 11.0
 47
    1UNL     C1    1   0.208   0.366  -0.128
    1UNL     C2    2   0.214   0.235  -0.062
    1UNL     C3    3   0.113   0.142  -0.090
    1UNL     C4    4   0.117   0.011  -0.046
    1UNL     O1    5   0.024  -0.086  -0.087
    1UNL     C5    6  -0.119  -0.061  -0.070
    1UNL     O2    7  -0.178  -0.162   0.010
    1UNL     C6    8  -0.293  -0.109   0.070
    1UNL     C7    9  -0.264  -0.051   0.211
    1UNL     O3   10  -0.165  -0.119   0.276
    1UNL     C8   11  -0.376  -0.012  -0.019
    1UNL     O4   12  -0.515  -0.015  -0.000
    1UNL     C9   13  -0.347  -0.037  -0.172
    1UNL     O5   14  -0.417   0.053  -0.256
    1UNL    C10   15  -0.200  -0.033  -0.205
    1UNL     O6   16  -0.156   0.095  -0.252
    1UNL    C11   17   0.224  -0.029   0.046
    1UNL    C12   18   0.233  -0.169   0.101
    1UNL    C13   19   0.369  -0.244   0.085
    1UNL    C14   20   0.192  -0.192   0.249
    1UNL    C15   21   0.311   0.073   0.085
    1UNL    C16   22   0.308   0.201   0.037
    1UNL     O7   23   0.412   0.293   0.073
    1UNL     H1   24   0.303   0.414  -0.100
    1UNL     H2   25   0.125   0.427  -0.109
    1UNL     H3   26   0.209   0.354  -0.236
    1UNL     H4   27   0.023   0.165  -0.148
    1UNL     H5   28  -0.133   0.030  -0.013
    1UNL     H6   29  -0.365  -0.197   0.080
    1UNL     H7   30  -0.229   0.050   0.198
    1UNL     H8   31  -0.350  -0.068   0.279
    1UNL     H9   32  -0.098  -0.146   0.209
    1UNL    H10   33  -0.342   0.089  -0.003
    1UNL    H11   34  -0.544  -0.100  -0.031
    1UNL    H12   35  -0.388  -0.131  -0.193
    1UNL    H13   36  -0.508   0.076  -0.226
    1UNL    H14   37  -0.164  -0.113  -0.272
    1UNL    H15   38  -0.198   0.139  -0.330
    1UNL    H16   39   0.151  -0.229   0.045
    1UNL    H17   40   0.445  -0.180   0.124
    1UNL    H18   41   0.383  -0.261  -0.019
    1UNL    H19   42   0.364  -0.348   0.129
    1UNL    H20   43   0.143  -0.107   0.292
    1UNL    H21   44   0.129  -0.276   0.265
    1UNL    H22   45   0.281  -0.209   0.312
    1UNL    H23   46   0.390   0.046   0.154
    1UNL    H24   47   0.503   0.257   0.096
   0.00000   0.00000   0.00000   0.00000   0.00000   0.00000   0.00000   0.00000   0.00000
Generated with MDTraj, t= 12.0
 47
    1UNL     C1    1   0.188   0.372  -0.106
    1UNL     C2    2   0.215   0.232  -0.069
    1UNL     C3    3   0.127   0.132  -0.105
    1UNL     C4    4   0.125   0.002  -0.045
    1UNL     O1    5   0.030  -0.094  -0.092
    1UNL     C5    6  -0.110  -0.066  -0.060
    1UNL     O2    7  -0.191  -0.168   0.008
    1UNL     C6    8  -0.308  -0.103   0.070
    1UNL     C7    9  -0.266  -0.043   0.214
    1UNL     O3   10  -0.184  -0.133   0.289
    1UNL     C8   11  -0.375  -0.006  -0.031
    1UNL     O4   12  -0.513  -0.012  -0.009
    1UNL     C9   13  -0.331  -0.047  -0.178
    1UNL     O5   14  -0.412   0.028  -0.270
    1UNL    C10   15  -0.178  -0.018  -0.193
    1UNL     O6   16  -0.157   0.121  -0.209
    1UNL    C11   17   0.223  -0.029   0.047
    1UNL    C12   18   0.225  -0.170   0.104
    1UNL    C13   19   0.356  -0.246   0.066
    1UNL    C14   20   0.192  -0.166   0.257
    1UNL    C15   21   0.314   0.069   0.077
    1UNL    C16   22   0.318   0.201   0.024
    1UNL     O7   23   0.420   0.288   0.058
    1UNL     H1   24   0.257   0.443  -0.064
    1UNL     H2   25   0.084   0.408  -0.092
    1UNL     H3   26   0.198   0.388  -0.211
    1UNL     H4   27   0.060   0.164  -0.182
    1UNL     H5   28  -0.111   0.024   0.002
    1UNL     H6   29  -0.380  -0.184   0.102
    1UNL     H7   30  -0.202   0.037   0.193
    1UNL     H8   31  -0.355  -0.017   0.269
    1UNL     H9   32  -0.141  -0.199   0.227
    1UNL    H10   33  -0.348   0.095  -0.007
    1UNL    H11   34  -0.555  -0.096  -0.041
    1UNL    H12   35  -0.361  -0.147  -0.188
    1UNL    H13   36  -0.503   0.053  -0.226
    1UNL    H14   37  -0.147  -0.080  -0.278
    1UNL    H15   38  -0.221   0.165  -0.269
    1UNL    H16   39   0.129  -0.217   0.063
    1UNL    H17   40   0.434  -0.204   0.122
    1UNL    H18   41   0.371  -0.226  -0.036
    1UNL    H19   42   0.349  -0.361   0.073
    1UNL    H20   43   0.086  -0.152   0.279
    1UNL    H21   44   0.234  -0.241   0.312
    1UNL    H22   45   0.238  -0.072   0.296
    1UNL    H23   46   0.393   0.027   0.133
    1UNL    H24   47   0.511   0.244   0.054
   0.00000   0.00000   0.00000   0.00000   0.00000   0.00000   0.00000   0.00000   0.00000
Generated with MDTraj, t= 13.0
 47
    1UNL     C1    1   0.194   0.354  -0.121
    1UNL     C2    2   0.207   0.223  -0.069
    1UNL     C3    3   0.119   0.127  -0.098
    1UNL     C4    4   0.130  -0.002  -0.049
    1UNL     O1    5   0.031  -0.097  -0.087
    1UNL     C5    6  -0.105  -0.054  -0.056
    1UNL     O2    7  -0.180  -0.154   0.022
    1UNL     C6    8  -0.307  -0.111   0.075
    1UNL     C7    9  -0.296  -0.049   0.214
    1UNL     O3   10  -0.213  -0.126   0.304
    1UNL     C8   11  -0.373  -0.017  -0.029
    1UNL     O4   12  -0.507  -0.038  -0.027
    1UNL     C9   13  -0.322  -0.036  -0.176
    1UNL     O5   14  -0.398   0.041  -0.271
    1UNL    C10   15  -0.171   0.003  -0.185
    1UNL     O6   16  -0.164   0.143  -0.190
    1UNL    C11   17   0.238  -0.036   0.025
    1UNL    C12   18   0.232  -0.167   0.097
    1UNL    C13   19   0.346  -0.264   0.059
    1UNL    C14   20   0.212  -0.140   0.248
    1UNL    C15   21   0.330   0.058   0.064
    1UNL    C16   22   0.315   0.190   0.019
    1UNL     O7   23   0.401   0.291   0.063
    1UNL     H1   24   0.262   0.425  -0.082
    1UNL     H2   25   0.084   0.383  -0.113
    1UNL     H3   26   0.206   0.343  -0.224
    1UNL     H4   27   0.034   0.158  -0.156
    1UNL     H5   28  -0.087   0.034   0.006
    1UNL     H6   29  -0.361  -0.208   0.089
    1UNL     H7   30  -0.260   0.048   0.199
    1UNL     H8   31  -0.398  -0.039   0.244
    1UNL     H9   32  -0.147  -0.171   0.248
    1UNL    H10   33  -0.363   0.086   0.001
    1UNL    H11   34  -0.537  -0.133  -0.045
    1UNL    H12   35  -0.323  -0.135  -0.208
    1UNL    H13   36  -0.485   0.056  -0.240
    1UNL    H14   37  -0.133  -0.049  -0.275
    1UNL    H15   38  -0.247   0.193  -0.211
    1UNL    H16   39   0.132  -0.212   0.073
    1UNL    H17   40   0.436  -0.216   0.089
    1UNL    H18   41   0.353  -0.290  -0.044
    1UNL    H19   42   0.342  -0.363   0.111
    1UNL    H20   43   0.161  -0.220   0.303
    1UNL    H21   44   0.305  -0.117   0.289
    1UNL    H22   45   0.141  -0.056   0.268
    1UNL    H23   46   0.414   0.038   0.133
    1UNL    H24   47   0.471   0.263   0.129
   0.00000   0.00000   0.00000   0.00000   0.00000   0.00000   0.00000   0.00000   0.00000
Generated with MDTraj, t= 14.0
 47
    1UNL     C1    1   0.224   0.355  -0.126
    1UNL     C2    2   0.231   0.220  -0.075
    1UNL     C3    3   0.126   0.131  -0.101
    1UNL     C4    4   0.121   0.001  -0.043
    1UNL     O1    5   0.024  -0.100  -0.065
    1UNL     C5    6  -0.109  -0.052  -0.037
    1UNL     O2    7  -0.184  -0.160   0.018
    1UNL     C6    8  -0.313  -0.108   0.067
    1UNL     C7    9  -0.306  -0.042   0.209
    1UNL     O3   10  -0.226  -0.120   0.287
    1UNL     C8   11  -0.400  -0.022  -0.038
    1UNL     O4   12  -0.531  -0.065  -0.043
    1UNL     C9   13  -0.336  -0.038  -0.179
    1UNL     O5   14  -0.403   0.056  -0.262
    1UNL    C10   15  -0.180  -0.003  -0.170
    1UNL     O6   16  -0.169   0.139  -0.184
    1UNL    C11   17   0.227  -0.032   0.052
    1UNL    C12   18   0.238  -0.163   0.101
    1UNL    C13   19   0.368  -0.230   0.049
    1UNL    C14   20   0.232  -0.172   0.249
    1UNL    C15   21   0.327   0.063   0.073
    1UNL    C16   22   0.334   0.193   0.014
    1UNL     O7   23   0.428   0.293   0.040
    1UNL     H1   24   0.306   0.408  -0.084
    1UNL     H2   25   0.120   0.391  -0.098
    1UNL     H3   26   0.225   0.342  -0.231
    1UNL     H4   27   0.044   0.146  -0.171
    1UNL     H5   28  -0.090   0.036   0.026
    1UNL     H6   29  -0.362  -0.204   0.082
    1UNL     H7   30  -0.265   0.057   0.201
    1UNL     H8   31  -0.400  -0.020   0.259
    1UNL     H9   32  -0.218  -0.205   0.236
    1UNL    H10   33  -0.397   0.077  -0.004
    1UNL    H11   34  -0.538  -0.163  -0.058
    1UNL    H12   35  -0.346  -0.140  -0.209
    1UNL    H13   36  -0.498   0.061  -0.216
    1UNL    H14   37  -0.132  -0.054  -0.255
    1UNL    H15   38  -0.251   0.192  -0.179
    1UNL    H16   39   0.151  -0.219   0.066
    1UNL    H17   40   0.450  -0.170   0.090
    1UNL    H18   41   0.377  -0.238  -0.059
    1UNL    H19   42   0.384  -0.331   0.083
    1UNL    H20   43   0.251  -0.273   0.283
    1UNL    H21   44   0.307  -0.101   0.286
    1UNL    H22   45   0.131  -0.154   0.285
    1UNL    H23   46   0.393   0.048   0.156
    1UNL    H24   47   0.447   0.300   0.134
   0.00000   0.00000   0.00000   0.00000   0.00000   0.00000   0.00000   0.00000   0.00000
Generated with MDTraj, t= 15.0
 47
    1UNL     C1    1   0.229   0.354  -0.143
    1UNL     C2    2   0.214   0.230  -0.056
    1UNL     C3    3   0.111   0.144  -0.066
    1UNL     C4    4   0.126   0.013  -0.017
    1UNL     O1    5   0.023  -0.090  -0.054
    1UNL     C5    6  -0.114  -0.047  -0.033
    1UNL     O2    7  -0.192  -0.150   0.034
    1UNL     C6    8  -0.324  -0.120   0.069
    1UNL     C7    9  -0.314  -0.051   0.198
    1UNL     O3   10  -0.221  -0.116   0.275
    1UNL     C8   11  -0.398  -0.032  -0.040
    1UNL     O4   12  -0.533  -0.062  -0.056
    1UNL     C9   13  -0.325  -0.039  -0.174
    1UNL     O5   14  -0.394   0.045  -0.269
    1UNL    C10   15  -0.176   0.002  -0.167
    1UNL     O6   16  -0.170   0.146  -0.179
    1UNL    C11   17   0.235  -0.030   0.051
    1UNL    C12   18   0.240  -0.165   0.099
    1UNL    C13   19   0.369  -0.226   0.043
    1UNL    C14   20   0.235  -0.191   0.245
    1UNL    C15   21   0.330   0.063   0.080
    1UNL    C16   22   0.329   0.186   0.012
    1UNL     O7   23   0.431   0.283   0.012
    1UNL     H1   24   0.328   0.396  -0.146
    1UNL     H2   25   0.157   0.431  -0.128
    1UNL     H3   26   0.205   0.329  -0.248
    1UNL     H4   27   0.024   0.174  -0.119
    1UNL     H5   28  -0.094   0.035   0.037
    1UNL     H6   29  -0.378  -0.213   0.071
    1UNL     H7   30  -0.284   0.055   0.198
    1UNL     H8   31  -0.409  -0.033   0.254
    1UNL     H9   32  -0.186  -0.194   0.225
    1UNL    H10   33  -0.400   0.069  -0.011
    1UNL    H11   34  -0.547  -0.157  -0.068
    1UNL    H12   35  -0.334  -0.138  -0.217
    1UNL    H13   36  -0.483   0.056  -0.228
    1UNL    H14   37  -0.133  -0.047  -0.256
    1UNL    H15   38  -0.253   0.186  -0.215
    1UNL    H16   39   0.162  -0.218   0.049
    1UNL    H17   40   0.450  -0.188   0.109
    1UNL    H18   41   0.399  -0.224  -0.064
    1UNL    H19   42   0.363  -0.328   0.062
    1UNL    H20   43   0.220  -0.295   0.271
    1UNL    H21   44   0.336  -0.153   0.286
    1UNL    H22   45   0.155  -0.146   0.296
    1UNL    H23   46   0.420   0.050   0.139
    1UNL    H24   47   0.486   0.266   0.089
   0.00000   0.00000   0.00000   0.00000   0.00000   0.00000   0.00000   0.00000   0.00000
Generated with MDTraj, t= 16.0
 47
    1UNL     C1    1   0.199   0.371  -0.090
    1UNL     C2    2   0.209   0.233  -0.054
    1UNL     C3    3   0.110   0.141  -0.086
    1UNL     C4    4   0.117   0.006  -0.041
    1UNL     O1    5   0.019  -0.092  -0.057
    1UNL     C5    6  -0.108  -0.045  -0.020
    1UNL     O2    7  -0.192  -0.149   0.039
    1UNL     C6    8  -0.328  -0.114   0.068
    1UNL     C7    9  -0.326  -0.043   0.201
    1UNL     O3   10  -0.233  -0.111   0.283
    1UNL     C8   11  -0.399  -0.033  -0.049
    1UNL     O4   12  -0.540  -0.048  -0.058
    1UNL     C9   13  -0.311  -0.051  -0.173
    1UNL     O5   14  -0.377   0.025  -0.275
    1UNL    C10   15  -0.169   0.004  -0.156
    1UNL     O6   16  -0.166   0.147  -0.165
    1UNL    C11   17   0.237  -0.036   0.026
    1UNL    C12   18   0.252  -0.169   0.102
    1UNL    C13   19   0.370  -0.260   0.046
    1UNL    C14   20   0.237  -0.155   0.248
    1UNL    C15   21   0.343   0.055   0.036
    1UNL    C16   22   0.329   0.189   0.001
    1UNL     O7   23   0.434   0.278   0.022
    1UNL     H1   24   0.293   0.423  -0.076
    1UNL     H2   25   0.125   0.417  -0.039
    1UNL     H3   26   0.176   0.388  -0.197
    1UNL     H4   27   0.037   0.170  -0.162
    1UNL     H5   28  -0.094   0.036   0.052
    1UNL     H6   29  -0.384  -0.203   0.076
    1UNL     H7   30  -0.311   0.070   0.203
    1UNL     H8   31  -0.423  -0.033   0.259
    1UNL     H9   32  -0.166  -0.160   0.230
    1UNL    H10   33  -0.386   0.068  -0.021
    1UNL    H11   34  -0.556  -0.138  -0.084
    1UNL    H12   35  -0.306  -0.157  -0.208
    1UNL    H13   36  -0.473   0.022  -0.254
    1UNL    H14   37  -0.102  -0.031  -0.236
    1UNL    H15   38  -0.233   0.185  -0.227
    1UNL    H16   39   0.167  -0.228   0.074
    1UNL    H17   40   0.463  -0.218   0.089
    1UNL    H18   41   0.383  -0.272  -0.064
    1UNL    H19   42   0.364  -0.359   0.076
    1UNL    H20   43   0.258  -0.245   0.306
    1UNL    H21   44   0.316  -0.075   0.271
    1UNL    H22   45   0.142  -0.124   0.277
    1UNL    H23   46   0.435   0.022   0.082
    1UNL    H24   47   0.503   0.231   0.075
   0.00000   0.00000   0.00000   0.00000   0.00000   0.00000   0.00000   0.00000   0.00000
Generated with MDTraj, t= 17.0
 47
    1UNL     C1    1   0.165   0.375  -0.072
    1UNL     C2    2   0.202   0.233  -0.045
    1UNL     C3    3   0.112   0.127  -0.069
    1UNL     C4    4   0.134  -0.005  -0.033
    1UNL     O1    5   0.028  -0.090  -0.054
    1UNL     C5    6  -0.106  -0.048  -0.030
    1UNL     O2    7  -0.189  -0.153   0.025
    1UNL     C6    8  -0.324  -0.111   0.070
    1UNL     C7    9  -0.308  -0.021   0.188
    1UNL     O3   10  -0.268  -0.096   0.301
    1UNL     C8   11  -0.401  -0.027  -0.042
    1UNL     O4   12  -0.536  -0.058  -0.063
    1UNL     C9   13  -0.321  -0.045  -0.173
    1UNL     O5   14  -0.388   0.026  -0.281
    1UNL    C10   15  -0.177   0.006  -0.161
    1UNL     O6   16  -0.172   0.148  -0.166
    1UNL    C11   17   0.260  -0.045   0.017
    1UNL    C12   18   0.259  -0.181   0.095
    1UNL    C13   19   0.382  -0.262   0.048
    1UNL    C14   20   0.248  -0.161   0.248
    1UNL    C15   21   0.354   0.056   0.027
    1UNL    C16   22   0.329   0.191   0.001
    1UNL     O7   23   0.436   0.280   0.016
    1UNL     H1   24   0.257   0.430  -0.052
    1UNL     H2   25   0.089   0.403  -0.007
    1UNL     H3   26   0.134   0.392  -0.175
    1UNL     H4   27   0.015   0.154  -0.106
    1UNL     H5   28  -0.107   0.033   0.042
    1UNL     H6   29  -0.385  -0.195   0.091
    1UNL     H7   30  -0.238   0.063   0.157
    1UNL     H8   31  -0.394   0.049   0.207
    1UNL     H9   32  -0.172  -0.120   0.306
    1UNL    H10   33  -0.398   0.073  -0.011
    1UNL    H11   34  -0.552  -0.153  -0.083
    1UNL    H12   35  -0.320  -0.156  -0.199
    1UNL    H13   36  -0.490   0.009  -0.277
    1UNL    H14   37  -0.116  -0.028  -0.246
    1UNL    H15   38  -0.228   0.170  -0.243
    1UNL    H16   39   0.174  -0.238   0.065
    1UNL    H17   40   0.465  -0.198   0.076
    1UNL    H18   41   0.387  -0.298  -0.055
    1UNL    H19   42   0.395  -0.353   0.105
    1UNL    H20   43   0.238  -0.256   0.299
    1UNL    H21   44   0.346  -0.117   0.280
    1UNL    H22   45   0.166  -0.097   0.271
    1UNL    H23   46   0.445   0.021   0.073
    1UNL    H24   47   0.526   0.240   0.039
   0.00000   0.00000   0.00000   0.00000   0.00000   0.00000   0.00000   0.00000   0.00000
Generated with MDTraj, t= 18.0
 47
    1UNL     C1    1   0.177   0.363  -0.101
    1UNL     C2    2   0.206   0.224  -0.048
    1UNL     C3    3   0.099   0.139  -0.064
    1UNL     C4    4   0.122   0.009  -0.019
    1UNL     O1    5   0.030  -0.091  -0.038
    1UNL     C5    6  -0.107  -0.052  -0.014
    1UNL     O2    7  -0.193  -0.148   0.045
    1UNL     C6    8  -0.329  -0.097   0.076
    1UNL     C7    9  -0.324  -0.018   0.204
    1UNL     O3   10  -0.257  -0.078   0.309
    1UNL     C8   11  -0.408  -0.026  -0.046
    1UNL     O4   12  -0.539  -0.068  -0.072
    1UNL     C9   13  -0.320  -0.043  -0.176
    1UNL     O5   14  -0.373   0.027  -0.289
    1UNL    C10   15  -0.175  -0.001  -0.155
    1UNL     O6   16  -0.159   0.133  -0.188
    1UNL    C11   17   0.240  -0.031   0.036
    1UNL    C12   18   0.262  -0.181   0.072
    1UNL    C13   19   0.395  -0.223   0.018
    1UNL    C14   20   0.255  -0.203   0.220
    1UNL    C15   21   0.339   0.057   0.053
    1UNL    C16   22   0.328   0.186   0.014
    1UNL     O7   23   0.438   0.271   0.028
    1UNL     H1   24   0.271   0.413  -0.109
    1UNL     H2   25   0.118   0.416  -0.025
    1UNL     H3   26   0.128   0.365  -0.194
    1UNL     H4   27   0.020   0.192  -0.114
    1UNL     H5   28  -0.115   0.026   0.062
    1UNL     H6   29  -0.386  -0.186   0.095
    1UNL     H7   30  -0.294   0.088   0.180
    1UNL     H8   31  -0.430  -0.004   0.227
    1UNL     H9   32  -0.159  -0.079   0.304
    1UNL    H10   33  -0.404   0.075  -0.020
    1UNL    H11   34  -0.544  -0.164  -0.105
    1UNL    H12   35  -0.320  -0.153  -0.206
    1UNL    H13   36  -0.461   0.008  -0.303
    1UNL    H14   37  -0.112  -0.060  -0.223
    1UNL    H15   38  -0.231   0.141  -0.256
    1UNL    H16   39   0.175  -0.227   0.027
    1UNL    H17   40   0.465  -0.174   0.080
    1UNL    H18   41   0.406  -0.203  -0.087
    1UNL    H19   42   0.417  -0.334   0.026
    1UNL    H20   43   0.254  -0.308   0.249
    1UNL    H21   44   0.339  -0.160   0.267
    1UNL    H22   45   0.162  -0.156   0.252
    1UNL    H23   46   0.431   0.027   0.103
    1UNL    H24   47   0.521   0.217   0.046
   0.00000   0.00000   0.00000   0.00000   0.00000   0.00000   0.00000   0.00000   0.00000
Generated with MDTraj, t= 19.0
 47
    1UNL     C1    1   0.201   0.365  -0.110
    1UNL     C2    2   0.218   0.230  -0.046
    1UNL     C3    3   0.109   0.138  -0.051
    1UNL     C4    4   0.118   0.007  -0.007
    1UNL     O1    5   0.022  -0.097  -0.013
    1UNL     C5    6  -0.118  -0.048  -0.012
    1UNL     O2    7  -0.202  -0.138   0.053
    1UNL     C6    8  -0.342  -0.101   0.072
    1UNL     C7    9  -0.337  -0.016   0.205
    1UNL     O3   10  -0.240  -0.046   0.297
    1UNL     C8   11  -0.405  -0.025  -0.053
    1UNL     O4   12  -0.544  -0.052  -0.076
    1UNL     C9   13  -0.323  -0.065  -0.178
    1UNL     O5   14  -0.373  -0.001  -0.289
    1UNL    C10   15  -0.178  -0.020  -0.162
    1UNL     O6   16  -0.172   0.122  -0.181
    1UNL    C11   17   0.249  -0.025   0.040
    1UNL    C12   18   0.269  -0.175   0.054
    1UNL    C13   19   0.398  -0.232  -0.009
    1UNL    C14   20   0.251  -0.223   0.198
    1UNL    C15   21   0.351   0.065   0.059
    1UNL    C16   22   0.335   0.194   0.022
    1UNL     O7   23   0.429   0.293   0.053
    1UNL     H1   24   0.294   0.411  -0.120
    1UNL     H2   25   0.145   0.432  -0.037
    1UNL     H3   26   0.158   0.364  -0.204
    1UNL     H4   27   0.017   0.148  -0.108
    1UNL     H5   28  -0.131   0.048   0.038
    1UNL     H6   29  -0.392  -0.196   0.089
    1UNL     H7   30  -0.315   0.088   0.171
    1UNL     H8   31  -0.429  -0.014   0.260
    1UNL     H9   32  -0.167  -0.108   0.271
    1UNL    H10   33  -0.390   0.077  -0.032
    1UNL    H11   34  -0.569  -0.141  -0.114
    1UNL    H12   35  -0.339  -0.178  -0.197
    1UNL    H13   36  -0.474  -0.017  -0.300
    1UNL    H14   37  -0.103  -0.067  -0.228
    1UNL    H15   38  -0.232   0.136  -0.257
    1UNL    H16   39   0.181  -0.220   0.005
    1UNL    H17   40   0.477  -0.204   0.055
    1UNL    H18   41   0.408  -0.190  -0.106
    1UNL    H19   42   0.403  -0.345  -0.029
    1UNL    H20   43   0.287  -0.325   0.211
    1UNL    H21   44   0.312  -0.171   0.261
    1UNL    H22   45   0.146  -0.215   0.237
    1UNL    H23   46   0.446   0.026   0.091
    1UNL    H24   47   0.513   0.248   0.078
   0.00000   0.00000   0.00000   0.00000   0.00000   0.00000   0.00000   0.00000   0.00000
Generated with MDTraj, t= 20.0
 47
    1UNL     C1    1   0.174   0.380  -0.045
    1UNL     C2    2   0.202   0.231  -0.030
    1UNL     C3    3   0.108   0.133  -0.054
    1UNL     C4    4   0.123  -0.004  -0.023
    1UNL     O1    5   0.025  -0.100  -0.046
    1UNL     C5    6  -0.115  -0.049  -0.029
    1UNL     O2    7  -0.196  -0.128   0.052
    1UNL     C6    8  -0.325  -0.075   0.079
    1UNL     C7    9  -0.330   0.025   0.203
    1UNL     O3   10  -0.252  -0.032   0.307
    1UNL     C8   11  -0.389  -0.031  -0.054
    1UNL     O4   12  -0.528  -0.058  -0.066
    1UNL     C9   13  -0.314  -0.075  -0.180
    1UNL     O5   14  -0.380  -0.021  -0.292
    1UNL    C10   15  -0.174  -0.015  -0.173
    1UNL     O6   16  -0.174   0.130  -0.189
    1UNL    C11   17   0.250  -0.044   0.023
    1UNL    C12   18   0.274  -0.190   0.059
    1UNL    C13   19   0.401  -0.240  -0.010
    1UNL    C14   20   0.258  -0.216   0.213
    1UNL    C15   21   0.350   0.048   0.054
    1UNL    C16   22   0.322   0.182   0.019
    1UNL     O7   23   0.414   0.289   0.038
    1UNL     H1   24   0.254   0.441  -0.016
    1UNL     H2   25   0.092   0.411   0.024
    1UNL     H3   26   0.153   0.409  -0.144
    1UNL     H4   27   0.007   0.148  -0.084
    1UNL     H5   28  -0.113   0.047   0.024
    1UNL     H6   29  -0.379  -0.167   0.110
    1UNL     H7   30  -0.275   0.115   0.175
    1UNL     H8   31  -0.431   0.042   0.233
    1UNL     H9   32  -0.268  -0.126   0.327
    1UNL    H10   33  -0.380   0.074  -0.054
    1UNL    H11   34  -0.541  -0.147  -0.099
    1UNL    H12   35  -0.316  -0.189  -0.203
    1UNL    H13   36  -0.477  -0.048  -0.300
    1UNL    H14   37  -0.104  -0.063  -0.245
    1UNL    H15   38  -0.247   0.151  -0.251
    1UNL    H16   39   0.187  -0.242   0.010
    1UNL    H17   40   0.482  -0.168   0.010
    1UNL    H18   41   0.381  -0.250  -0.114
    1UNL    H19   42   0.434  -0.340   0.022
    1UNL    H20   43   0.274  -0.317   0.245
    1UNL    H21   44   0.331  -0.167   0.269
    1UNL    H22   45   0.160  -0.180   0.253
    1UNL    H23   46   0.448   0.033   0.097
    1UNL    H24   47   0.498   0.243   0.039
   0.00000   0.00000   0.00000   0.00000   0.00000   0.00000   0.00000   0.00000   0.00000
Generated with MDTraj, t= 21.0
 47
    1UNL     C1    1   0.175   0.374  -0.016
    1UNL     C2    2   0.192   0.224  -0.017
    1UNL     C3    3   0.092   0.138  -0.051
    1UNL     C4    4   0.122   0.000  -0.034
    1UNL     O1    5   0.026  -0.104  -0.054
    1UNL     C5    6  -0.109  -0.055  -0.034
    1UNL     O2    7  -0.189  -0.139   0.047
    1UNL     C6    8  -0.313  -0.078   0.077
    1UNL     C7    9  -0.307   0.040   0.173
    1UNL     O3   10  -0.282  -0.011   0.307
    1UNL     C8   11  -0.387  -0.025  -0.051
    1UNL     O4   12  -0.521  -0.076  -0.043
    1UNL     C9   13  -0.318  -0.069  -0.182
    1UNL     O5   14  -0.399  -0.008  -0.290
    1UNL    C10   15  -0.170  -0.027  -0.177
    1UNL     O6   16  -0.159   0.112  -0.194
    1UNL    C11   17   0.245  -0.043   0.013
    1UNL    C12   18   0.272  -0.189   0.057
    1UNL    C13   19   0.394  -0.252  -0.008
    1UNL    C14   20   0.274  -0.183   0.213
    1UNL    C15   21   0.344   0.044   0.026
    1UNL    C16   22   0.322   0.181   0.028
    1UNL     O7   23   0.414   0.282   0.056
    1UNL     H1   24   0.257   0.418   0.037
    1UNL     H2   25   0.088   0.394   0.042
    1UNL     H3   26   0.176   0.416  -0.118
    1UNL     H4   27  -0.000   0.168  -0.098
    1UNL     H5   28  -0.091   0.040   0.011
    1UNL     H6   29  -0.383  -0.155   0.122
    1UNL     H7   30  -0.225   0.105   0.141
    1UNL     H8   31  -0.410   0.076   0.179
    1UNL     H9   32  -0.198  -0.060   0.299
    1UNL    H10   33  -0.399   0.079  -0.042
    1UNL    H11   34  -0.512  -0.170  -0.060
    1UNL    H12   35  -0.331  -0.183  -0.191
    1UNL    H13   36  -0.485  -0.040  -0.278
    1UNL    H14   37  -0.106  -0.077  -0.256
    1UNL    H15   38  -0.238   0.146  -0.242
    1UNL    H16   39   0.177  -0.238   0.017
    1UNL    H17   40   0.492  -0.232   0.045
    1UNL    H18   41   0.393  -0.219  -0.111
    1UNL    H19   42   0.386  -0.357  -0.015
    1UNL    H20   43   0.262  -0.277   0.260
    1UNL    H21   44   0.373  -0.149   0.249
    1UNL    H22   45   0.197  -0.112   0.245
    1UNL    H23   46   0.439   0.023   0.070
    1UNL    H24   47   0.497   0.236   0.063
   0.00000   0.00000   0.00000   0.00000   0.00000   0.00000   0.00000   0.00000   0.00000
Generated with MDTraj, t= 22.0
 47
    1UNL     C1    1   0.178   0.377  -0.054
    1UNL     C2    2   0.203   0.232  -0.027
    1UNL     C3    3   0.110   0.137  -0.064
    1UNL     C4    4   0.122   0.003  -0.019
    1UNL     O1    5   0.023  -0.090  -0.029
    1UNL     C5    6  -0.115  -0.039  -0.022
    1UNL     O2    7  -0.193  -0.125   0.058
    1UNL     C6    8  -0.327  -0.083   0.076
    1UNL     C7    9  -0.331   0.023   0.183
    1UNL     O3   10  -0.231  -0.015   0.283
    1UNL     C8   11  -0.401  -0.021  -0.051
    1UNL     O4   12  -0.531  -0.083  -0.054
    1UNL     C9   13  -0.322  -0.061  -0.177
    1UNL     O5   14  -0.401  -0.021  -0.293
    1UNL    C10   15  -0.174  -0.018  -0.167
    1UNL     O6   16  -0.162   0.110  -0.208
    1UNL    C11   17   0.251  -0.040   0.030
    1UNL    C12   18   0.260  -0.192   0.047
    1UNL    C13   19   0.385  -0.250  -0.018
    1UNL    C14   20   0.277  -0.227   0.203
    1UNL    C15   21   0.343   0.057   0.064
    1UNL    C16   22   0.324   0.193   0.033
    1UNL     O7   23   0.420   0.292   0.067
    1UNL     H1   24   0.257   0.428  -0.000
    1UNL     H2   25   0.085   0.394  -0.016
    1UNL     H3   26   0.190   0.390  -0.164
    1UNL     H4   27   0.016   0.163  -0.111
    1UNL     H5   28  -0.093   0.058   0.017
    1UNL     H6   29  -0.380  -0.178   0.112
    1UNL     H7   30  -0.297   0.118   0.147
    1UNL     H8   31  -0.430   0.013   0.237
    1UNL     H9   32  -0.211  -0.110   0.262
    1UNL    H10   33  -0.412   0.084  -0.045
    1UNL    H11   34  -0.515  -0.180  -0.059
    1UNL    H12   35  -0.309  -0.174  -0.182
    1UNL    H13   36  -0.486  -0.059  -0.280
    1UNL    H14   37  -0.117  -0.077  -0.243
    1UNL    H15   38  -0.221   0.134  -0.283
    1UNL    H16   39   0.164  -0.237   0.004
    1UNL    H17   40   0.478  -0.194   0.006
    1UNL    H18   41   0.368  -0.254  -0.126
    1UNL    H19   42   0.402  -0.349   0.010
    1UNL    H20   43   0.303  -0.330   0.209
    1UNL    H21   44   0.374  -0.182   0.244
    1UNL    H22   45   0.189  -0.205   0.258
    1UNL    H23   46   0.441   0.024   0.097
    1UNL    H24   47   0.505   0.257   0.103
   0.00000   0.00000   0.00000   0.00000   0.00000   0.00000   0.00000   0.00000   0.00000
Generated with MDTraj, t= 23.0
 47
    1UNL     C1    1   0.198   0.363  -0.100
    1UNL     C2    2   0.203   0.238  -0.029
    1UNL     C3    3   0.100   0.145  -0.044
    1UNL     C4    4   0.115   0.006  -0.020
    1UNL     O1    5   0.017  -0.093  -0.039
    1UNL     C5    6  -0.121  -0.059  -0.023
    1UNL     O2    7  -0.197  -0.153   0.054
    1UNL     C6    8  -0.319  -0.085   0.077
    1UNL     C7    9  -0.315   0.024   0.191
    1UNL     O3   10  -0.210  -0.019   0.274
    1UNL     C8   11  -0.393  -0.030  -0.056
    1UNL     O4   12  -0.533  -0.056  -0.062
    1UNL     C9   13  -0.320  -0.082  -0.184
    1UNL     O5   14  -0.382  -0.018  -0.298
    1UNL    C10   15  -0.176  -0.020  -0.167
    1UNL     O6   16  -0.187   0.121  -0.177
    1UNL    C11   17   0.232  -0.028   0.046
    1UNL    C12   18   0.258  -0.183   0.054
    1UNL    C13   19   0.376  -0.217  -0.028
    1UNL    C14   20   0.279  -0.224   0.203
    1UNL    C15   21   0.328   0.061   0.092
    1UNL    C16   22   0.318   0.196   0.045
    1UNL     O7   23   0.431   0.273   0.065
    1UNL     H1   24   0.277   0.430  -0.075
    1UNL     H2   25   0.109   0.412  -0.071
    1UNL     H3   26   0.200   0.353  -0.209
    1UNL     H4   27   0.023   0.184  -0.107
    1UNL     H5   28  -0.101   0.028   0.037
    1UNL     H6   29  -0.380  -0.173   0.115
    1UNL     H7   30  -0.273   0.120   0.162
    1UNL     H8   31  -0.409   0.018   0.256
    1UNL     H9   32  -0.196  -0.116   0.262
    1UNL    H10   33  -0.388   0.075  -0.061
    1UNL    H11   34  -0.563  -0.153  -0.067
    1UNL    H12   35  -0.307  -0.193  -0.195
    1UNL    H13   36  -0.477  -0.064  -0.304
    1UNL    H14   37  -0.118  -0.067  -0.250
    1UNL    H15   38  -0.234   0.142  -0.261
    1UNL    H16   39   0.164  -0.225   0.004
    1UNL    H17   40   0.466  -0.176   0.014
    1UNL    H18   41   0.354  -0.185  -0.132
    1UNL    H19   42   0.390  -0.323  -0.032
    1UNL    H20   43   0.314  -0.326   0.198
    1UNL    H21   44   0.373  -0.182   0.257
    1UNL    H22   45   0.187  -0.217   0.253
    1UNL    H23   46   0.409   0.025   0.153
    1UNL    H24   47   0.504   0.220   0.112
   0.00000   0.00000   0.00000   0.00000   0.00000   0.00000   0.00000   0.00000   0.00000
Generated with MDTraj, t= 24.0
 47
    1UNL     C1    1   0.162   0.369  -0.079
    1UNL     C2    2   0.200   0.227  -0.037
    1UNL     C3    3   0.114   0.123  -0.072
    1UNL     C4    4   0.124  -0.008  -0.024
    1UNL     O1    5   0.016  -0.097  -0.057
    1UNL     C5    6  -0.117  -0.048  -0.035
    1UNL     O2    7  -0.199  -0.134   0.040
    1UNL     C6    8  -0.326  -0.088   0.073
    1UNL     C7    9  -0.308   0.014   0.197
    1UNL     O3   10  -0.217  -0.035   0.297
    1UNL     C8   11  -0.400  -0.030  -0.053
    1UNL     O4   12  -0.527  -0.078  -0.064
    1UNL     C9   13  -0.325  -0.058  -0.182
    1UNL     O5   14  -0.395   0.005  -0.291
    1UNL    C10   15  -0.175  -0.006  -0.177
    1UNL     O6   16  -0.178   0.134  -0.188
    1UNL    C11   17   0.244  -0.042   0.044
    1UNL    C12   18   0.271  -0.185   0.080
    1UNL    C13   19   0.375  -0.261  -0.006
    1UNL    C14   20   0.299  -0.196   0.231
    1UNL    C15   21   0.336   0.059   0.063
    1UNL    C16   22   0.319   0.192   0.030
    1UNL     O7   23   0.420   0.284   0.067
    1UNL     H1   24   0.223   0.443  -0.030
    1UNL     H2   25   0.059   0.396  -0.044
    1UNL     H3   26   0.172   0.395  -0.179
    1UNL     H4   27   0.018   0.152  -0.114
    1UNL     H5   28  -0.094   0.046   0.013
    1UNL     H6   29  -0.384  -0.176   0.109
    1UNL     H7   30  -0.252   0.101   0.160
    1UNL     H8   31  -0.405   0.028   0.259
    1UNL     H9   32  -0.137  -0.072   0.254
    1UNL    H10   33  -0.407   0.074  -0.041
    1UNL    H11   34  -0.528  -0.177  -0.077
    1UNL    H12   35  -0.315  -0.165  -0.199
    1UNL    H13   36  -0.487  -0.025  -0.282
    1UNL    H14   37  -0.122  -0.046  -0.266
    1UNL    H15   38  -0.235   0.166  -0.262
    1UNL    H16   39   0.174  -0.232   0.044
    1UNL    H17   40   0.474  -0.245   0.021
    1UNL    H18   41   0.351  -0.234  -0.110
    1UNL    H19   42   0.357  -0.371  -0.002
    1UNL    H20   43   0.277  -0.300   0.255
    1UNL    H21   44   0.408  -0.203   0.262
    1UNL    H22   45   0.233  -0.138   0.290
    1UNL    H23   46   0.422   0.027   0.120
    1UNL    H24   47   0.491   0.244   0.129
   0.00000   0.00000   0.00000   0.00000   0.00000   0.00000   0.00000   0.00000   0.00000
Generated with MDTraj, t= 25.0
 47
    1UNL     C1    1   0.164   0.375  -0.060
    1UNL     C2    2   0.206   0.232  -0.042
    1UNL     C3    3   0.109   0.139  -0.075
    1UNL     C4    4   0.125   0.006  -0.049
    1UNL     O1    5   0.032  -0.098  -0.062
    1UNL     C5    6  -0.107  -0.064  -0.034
    1UNL     O2    7  -0.194  -0.157   0.026
    1UNL     C6    8  -0.319  -0.101   0.077
    1UNL     C7    9  -0.300   0.005   0.190
    1UNL     O3   10  -0.235  -0.045   0.308
    1UNL     C8   11  -0.400  -0.034  -0.045
    1UNL     O4   12  -0.529  -0.081  -0.056
    1UNL     C9   13  -0.324  -0.049  -0.182
    1UNL     O5   14  -0.388   0.032  -0.284
    1UNL    C10   15  -0.168  -0.012  -0.169
    1UNL     O6   16  -0.156   0.123  -0.185
    1UNL    C11   17   0.240  -0.043   0.021
    1UNL    C12   18   0.251  -0.179   0.084
    1UNL    C13   19   0.343  -0.275   0.015
    1UNL    C14   20   0.285  -0.164   0.241
    1UNL    C15   21   0.344   0.055   0.043
    1UNL    C16   22   0.326   0.189   0.015
    1UNL     O7   23   0.411   0.287   0.061
    1UNL     H1   24   0.230   0.438  -0.007
    1UNL     H2   25   0.063   0.379  -0.008
    1UNL     H3   26   0.163   0.404  -0.159
    1UNL     H4   27   0.018   0.165  -0.125
    1UNL     H5   28  -0.095   0.018   0.037
    1UNL     H6   29  -0.385  -0.183   0.107
    1UNL     H7   30  -0.241   0.090   0.152
    1UNL     H8   31  -0.406   0.023   0.230
    1UNL     H9   32  -0.136  -0.049   0.297
    1UNL    H10   33  -0.419   0.067  -0.023
    1UNL    H11   34  -0.526  -0.170  -0.094
    1UNL    H12   35  -0.324  -0.149  -0.218
    1UNL    H13   36  -0.478   0.025  -0.275
    1UNL    H14   37  -0.109  -0.063  -0.247
    1UNL    H15   38  -0.227   0.164  -0.242
    1UNL    H16   39   0.148  -0.219   0.071
    1UNL    H17   40   0.432  -0.235  -0.021
    1UNL    H18   41   0.288  -0.322  -0.068
    1UNL    H19   42   0.375  -0.361   0.080
    1UNL    H20   43   0.313  -0.261   0.286
    1UNL    H21   44   0.376  -0.111   0.261
    1UNL    H22   45   0.198  -0.129   0.294
    1UNL    H23   46   0.433   0.031   0.100
    1UNL    H24   47   0.476   0.246   0.122
   0.00000   0.00000   0.00000   0.00000   0.00000   0.00000   0.00000   0.00000   0.00000
Generated with MDTraj, t= 26.0
 47
    1UNL     C1    1   0.204   0.369  -0.098
    1UNL     C2    2   0.203   0.234  -0.039
    1UNL     C3    3   0.105   0.137  -0.055
    1UNL     C4    4   0.121   0.013  -0.016
    1UNL     O1    5   0.026  -0.087  -0.059
    1UNL     C5    6  -0.111  -0.045  -0.040
    1UNL     O2    7  -0.181  -0.145   0.019
    1UNL     C6    8  -0.311  -0.100   0.073
    1UNL     C7    9  -0.306  -0.020   0.198
    1UNL     O3   10  -0.220  -0.087   0.287
    1UNL     C8   11  -0.401  -0.024  -0.039
    1UNL     O4   12  -0.532  -0.065  -0.058
    1UNL     C9   13  -0.325  -0.052  -0.175
    1UNL     O5   14  -0.391  -0.002  -0.290
    1UNL    C10   15  -0.180   0.003  -0.173
    1UNL     O6   16  -0.173   0.139  -0.187
    1UNL    C11   17   0.230  -0.029   0.053
    1UNL    C12   18   0.241  -0.179   0.093
    1UNL    C13   19   0.349  -0.247   0.016
    1UNL    C14   20   0.270  -0.194   0.242
    1UNL    C15   21   0.333   0.065   0.077
    1UNL    C16   22   0.322   0.194   0.019
    1UNL     O7   23   0.428   0.278   0.024
    1UNL     H1   24   0.296   0.419  -0.089
    1UNL     H2   25   0.126   0.423  -0.041
    1UNL     H3   26   0.182   0.366  -0.202
    1UNL     H4   27   0.019   0.155  -0.118
    1UNL     H5   28  -0.117   0.044   0.024
    1UNL     H6   29  -0.364  -0.191   0.096
    1UNL     H7   30  -0.262   0.078   0.184
    1UNL     H8   31  -0.404  -0.023   0.256
    1UNL     H9   32  -0.133  -0.096   0.244
    1UNL    H10   33  -0.403   0.077  -0.012
    1UNL    H11   34  -0.531  -0.160  -0.076
    1UNL    H12   35  -0.325  -0.156  -0.192
    1UNL    H13   36  -0.491   0.014  -0.266
    1UNL    H14   37  -0.135  -0.041  -0.262
    1UNL    H15   38  -0.242   0.172  -0.250
    1UNL    H16   39   0.150  -0.232   0.070
    1UNL    H17   40   0.451  -0.218   0.047
    1UNL    H18   41   0.334  -0.232  -0.089
    1UNL    H19   42   0.348  -0.356   0.037
    1UNL    H20   43   0.263  -0.297   0.283
    1UNL    H21   44   0.372  -0.180   0.250
    1UNL    H22   45   0.209  -0.125   0.304
    1UNL    H23   46   0.428   0.048   0.124
    1UNL    H24   47   0.492   0.235   0.082
   0.00000   0.00000   0.00000   0.00000   0.00000   0.00000   0.00000   0.00000   0.00000
Generated with MDTraj, t= 27.0
 47
    1UNL     C1    1   0.240   0.369  -0.116
    1UNL     C2    2   0.226   0.228  -0.055
    1UNL     C3    3   0.119   0.142  -0.078
    1UNL     C4    4   0.120   0.017  -0.021
    1UNL     O1    5   0.027  -0.084  -0.045
    1UNL     C5    6  -0.114  -0.048  -0.030
    1UNL     O2    7  -0.198  -0.154   0.031
    1UNL     C6    8  -0.334  -0.116   0.066
    1UNL     C7    9  -0.323  -0.045   0.198
    1UNL     O3   10  -0.220  -0.103   0.280
    1UNL     C8   11  -0.404  -0.031  -0.047
    1UNL     O4   12  -0.547  -0.049  -0.051
    1UNL     C9   13  -0.326  -0.062  -0.174
    1UNL     O5   14  -0.390   0.010  -0.276
    1UNL    C10   15  -0.180  -0.010  -0.171
    1UNL     O6   16  -0.187   0.134  -0.182
    1UNL    C11   17   0.235  -0.025   0.051
    1UNL    C12   18   0.245  -0.162   0.089
    1UNL    C13   19   0.365  -0.230   0.011
    1UNL    C14   20   0.253  -0.176   0.242
    1UNL    C15   21   0.335   0.064   0.073
    1UNL    C16   22   0.334   0.193   0.022
    1UNL     O7   23   0.438   0.284   0.040
    1UNL     H1   24   0.336   0.415  -0.104
    1UNL     H2   25   0.170   0.430  -0.070
    1UNL     H3   26   0.224   0.379  -0.224
    1UNL     H4   27   0.031   0.179  -0.130
    1UNL     H5   28  -0.124   0.032   0.047
    1UNL     H6   29  -0.385  -0.210   0.072
    1UNL     H7   30  -0.287   0.056   0.185
    1UNL     H8   31  -0.414  -0.054   0.261
    1UNL     H9   32  -0.136  -0.112   0.227
    1UNL    H10   33  -0.384   0.069  -0.027
    1UNL    H11   34  -0.586  -0.134  -0.084
    1UNL    H12   35  -0.336  -0.164  -0.196
    1UNL    H13   36  -0.480   0.027  -0.252
    1UNL    H14   37  -0.122  -0.057  -0.250
    1UNL    H15   38  -0.228   0.171  -0.263
    1UNL    H16   39   0.157  -0.216   0.063
    1UNL    H17   40   0.463  -0.223   0.069
    1UNL    H18   41   0.369  -0.176  -0.081
    1UNL    H19   42   0.344  -0.333  -0.009
    1UNL    H20   43   0.266  -0.281   0.270
    1UNL    H21   44   0.336  -0.133   0.288
    1UNL    H22   45   0.158  -0.135   0.284
    1UNL    H23   46   0.418   0.034   0.136
    1UNL    H24   47   0.495   0.256   0.112
   0.00000   0.00000   0.00000   0.00000   0.00000   0.00000   0.00000   0.00000   0.00000
Generated with MDTraj, t= 28.0
 47
    1UNL     C1    1   0.199   0.362  -0.116
    1UNL     C2    2   0.215   0.227  -0.062
    1UNL     C3    3   0.116   0.134  -0.086
    1UNL     C4    4   0.134  -0.002  -0.041
    1UNL     O1    5   0.034  -0.097  -0.070
    1UNL     C5    6  -0.097  -0.043  -0.038
    1UNL     O2    7  -0.179  -0.140   0.036
    1UNL     C6    8  -0.315  -0.112   0.070
    1UNL     C7    9  -0.315  -0.039   0.204
    1UNL     O3   10  -0.257  -0.115   0.306
    1UNL     C8   11  -0.388  -0.036  -0.042
    1UNL     O4   12  -0.527  -0.077  -0.048
    1UNL     C9   13  -0.318  -0.038  -0.174
    1UNL     O5   14  -0.394   0.055  -0.253
    1UNL    C10   15  -0.171   0.002  -0.171
    1UNL     O6   16  -0.165   0.146  -0.203
    1UNL    C11   17   0.243  -0.035   0.033
    1UNL    C12   18   0.244  -0.174   0.093
    1UNL    C13   19   0.366  -0.253   0.035
    1UNL    C14   20   0.227  -0.166   0.250
    1UNL    C15   21   0.336   0.061   0.063
    1UNL    C16   22   0.326   0.193   0.019
    1UNL     O7   23   0.414   0.292   0.038
    1UNL     H1   24   0.280   0.429  -0.089
    1UNL     H2   25   0.113   0.398  -0.076
    1UNL     H3   26   0.195   0.370  -0.227
    1UNL     H4   27   0.031   0.158  -0.144
    1UNL     H5   28  -0.105   0.044   0.032
    1UNL     H6   29  -0.362  -0.208   0.075
    1UNL     H7   30  -0.248   0.043   0.194
    1UNL     H8   31  -0.419  -0.015   0.232
    1UNL     H9   32  -0.270  -0.211   0.291
    1UNL    H10   33  -0.380   0.064  -0.014
    1UNL    H11   34  -0.544  -0.171  -0.081
    1UNL    H12   35  -0.326  -0.135  -0.211
    1UNL    H13   36  -0.484   0.058  -0.215
    1UNL    H14   37  -0.117  -0.050  -0.251
    1UNL    H15   38  -0.208   0.163  -0.290
    1UNL    H16   39   0.155  -0.227   0.068
    1UNL    H17   40   0.444  -0.181  -0.004
    1UNL    H18   41   0.342  -0.317  -0.049
    1UNL    H19   42   0.421  -0.309   0.106
    1UNL    H20   43   0.235  -0.260   0.300
    1UNL    H21   44   0.295  -0.107   0.310
    1UNL    H22   45   0.123  -0.128   0.266
    1UNL    H23   46   0.414   0.032   0.132
    1UNL    H24   47   0.486   0.284   0.104
   0.00000   0.00000   0.00000   0.00000   0.00000   0.00000   0.00000   0.00000   0.00000
Generated with MDTraj, t= 29.0
 47
    1UNL     C1    1   0.189   0.366  -0.102
    1UNL     C2    2   0.203   0.223  -0.064
    1UNL     C3    3   0.123   0.124  -0.103
    1UNL     C4    4   0.125  -0.007  -0.052
    1UNL     O1    5   0.030  -0.107  -0.089
    1UNL     C5    6  -0.101  -0.062  -0.049
    1UNL     O2    7  -0.178  -0.164   0.014
    1UNL     C6    8  -0.303  -0.117   0.076
    1UNL     C7    9  -0.283  -0.033   0.204
    1UNL     O3   10  -0.259  -0.128   0.300
    1UNL     C8   11  -0.388  -0.026  -0.029
    1UNL     O4   12  -0.527  -0.052  -0.036
    1UNL     C9   13  -0.327  -0.037  -0.170
    1UNL     O5   14  -0.385   0.057  -0.265
    1UNL    C10   15  -0.181  -0.003  -0.165
    1UNL     O6   16  -0.160   0.140  -0.181
    1UNL    C11   17   0.241  -0.031   0.025
    1UNL    C12   18   0.238  -0.166   0.094
    1UNL    C13   19   0.372  -0.239   0.067
    1UNL    C14   20   0.216  -0.145   0.244
    1UNL    C15   21   0.338   0.065   0.057
    1UNL    C16   22   0.320   0.198   0.012
    1UNL     O7   23   0.420   0.289   0.046
    1UNL     H1   24   0.256   0.426  -0.046
    1UNL     H2   25   0.087   0.389  -0.078
    1UNL     H3   26   0.208   0.381  -0.207
    1UNL     H4   27   0.049   0.158  -0.175
    1UNL     H5   28  -0.099   0.015   0.033
    1UNL     H6   29  -0.367  -0.201   0.101
    1UNL     H7   30  -0.199   0.030   0.188
    1UNL     H8   31  -0.375   0.021   0.225
    1UNL     H9   32  -0.338  -0.185   0.306
    1UNL    H10   33  -0.386   0.075  -0.001
    1UNL    H11   34  -0.538  -0.150  -0.045
    1UNL    H12   35  -0.341  -0.136  -0.204
    1UNL    H13   36  -0.486   0.069  -0.237
    1UNL    H14   37  -0.130  -0.056  -0.249
    1UNL    H15   38  -0.204   0.161  -0.266
    1UNL    H16   39   0.152  -0.228   0.070
    1UNL    H17   40   0.436  -0.261   0.153
    1UNL    H18   41   0.437  -0.177   0.000
    1UNL    H19   42   0.368  -0.333   0.017
    1UNL    H20   43   0.186  -0.232   0.295
    1UNL    H21   44   0.312  -0.126   0.301
    1UNL    H22   45   0.144  -0.066   0.260
    1UNL    H23   46   0.431   0.028   0.098
    1UNL    H24   47   0.479   0.246   0.115
   0.00000   0.00000   0.00000   0.00000   0.00000   0.00000   0.00000   0.00000   0.00000
Generated with MDTraj, t= 30.0
 47
    1UNL     C1    1   0.202   0.360  -0.138
    1UNL     C2    2   0.216   0.229  -0.062
    1UNL     C3    3   0.116   0.141  -0.093
    1UNL     C4    4   0.129   0.009  -0.054
    1UNL     O1    5   0.035  -0.089  -0.090
    1UNL     C5    6  -0.098  -0.052  -0.042
    1UNL     O2    7  -0.182  -0.158   0.021
    1UNL     C6    8  -0.314  -0.118   0.067
    1UNL     C7    9  -0.297  -0.062   0.204
    1UNL     O3   10  -0.214  -0.140   0.291
    1UNL     C8   11  -0.382  -0.007  -0.033
    1UNL     O4   12  -0.519  -0.016  -0.021
    1UNL     C9   13  -0.326  -0.041  -0.170
    1UNL     O5   14  -0.401   0.021  -0.273
    1UNL    C10   15  -0.179   0.000  -0.170
    1UNL     O6   16  -0.177   0.140  -0.191
    1UNL    C11   17   0.234  -0.031   0.032
    1UNL    C12   18   0.233  -0.168   0.099
    1UNL    C13   19   0.375  -0.238   0.086
    1UNL    C14   20   0.189  -0.182   0.245
    1UNL    C15   21   0.332   0.059   0.064
    1UNL    C16   22   0.326   0.195   0.023
    1UNL     O7   23   0.418   0.298   0.045
    1UNL     H1   24   0.276   0.421  -0.094
    1UNL     H2   25   0.101   0.406  -0.115
    1UNL     H3   26   0.217   0.357  -0.240
    1UNL     H4   27   0.033   0.165  -0.161
    1UNL     H5   28  -0.095   0.032   0.034
    1UNL     H6   29  -0.380  -0.206   0.077
    1UNL     H7   30  -0.258   0.038   0.196
    1UNL     H8   31  -0.391  -0.058   0.255
    1UNL     H9   32  -0.195  -0.233   0.262
    1UNL    H10   33  -0.368   0.092  -0.005
    1UNL    H11   34  -0.536  -0.111  -0.021
    1UNL    H12   35  -0.333  -0.145  -0.194
    1UNL    H13   36  -0.490   0.033  -0.240
    1UNL    H14   37  -0.128  -0.045  -0.258
    1UNL    H15   38  -0.219   0.163  -0.276
    1UNL    H16   39   0.170  -0.235   0.040
    1UNL    H17   40   0.361  -0.338   0.058
    1UNL    H18   41   0.425  -0.234   0.184
    1UNL    H19   42   0.444  -0.193   0.010
    1UNL    H20   43   0.233  -0.266   0.292
    1UNL    H21   44   0.228  -0.096   0.310
    1UNL    H22   45   0.083  -0.182   0.244
    1UNL    H23   46   0.413   0.031   0.129
    1UNL    H24   47   0.490   0.276   0.111
   0.00000   0.00000   0.00000   0.00000   0.00000   0.00000   0.00000   0.00000   0.00000
Generated with MDTraj, t= 31.0
 47
    1UNL     C1    1   0.224   0.370  -0.144
    1UNL     C2    2   0.226   0.239  -0.066
    1UNL     C3    3   0.126   0.144  -0.095
    1UNL     C4    4   0.120   0.013  -0.041
    1UNL     O1    5   0.022  -0.083  -0.092
    1UNL     C5    6  -0.111  -0.061  -0.049
    1UNL     O2    7  -0.186  -0.165   0.016
    1UNL     C6    8  -0.311  -0.116   0.075
    1UNL     C7    9  -0.295  -0.061   0.211
    1UNL     O3   10  -0.199  -0.140   0.288
    1UNL     C8   11  -0.389  -0.019  -0.023
    1UNL     O4   12  -0.527  -0.034  -0.015
    1UNL     C9   13  -0.339  -0.039  -0.166
    1UNL     O5   14  -0.405   0.046  -0.255
    1UNL    C10   15  -0.189  -0.014  -0.179
    1UNL     O6   16  -0.152   0.119  -0.223
    1UNL    C11   17   0.229  -0.028   0.040
    1UNL    C12   18   0.233  -0.172   0.094
    1UNL    C13   19   0.383  -0.217   0.094
    1UNL    C14   20   0.163  -0.196   0.227
    1UNL    C15   21   0.326   0.069   0.075
    1UNL    C16   22   0.329   0.202   0.024
    1UNL     O7   23   0.429   0.295   0.051
    1UNL     H1   24   0.309   0.421  -0.109
    1UNL     H2   25   0.137   0.438  -0.120
    1UNL     H3   26   0.234   0.370  -0.247
    1UNL     H4   27   0.041   0.172  -0.149
    1UNL     H5   28  -0.109   0.025   0.026
    1UNL     H6   29  -0.369  -0.211   0.077
    1UNL     H7   30  -0.252   0.039   0.212
    1UNL     H8   31  -0.384  -0.056   0.271
    1UNL     H9   32  -0.198  -0.234   0.259
    1UNL    H10   33  -0.378   0.080   0.007
    1UNL    H11   34  -0.548  -0.126  -0.037
    1UNL    H12   35  -0.360  -0.140  -0.204
    1UNL    H13   36  -0.499   0.049  -0.217
    1UNL    H14   37  -0.148  -0.080  -0.259
    1UNL    H15   38  -0.201   0.148  -0.302
    1UNL    H16   39   0.192  -0.234   0.011
    1UNL    H17   40   0.392  -0.318   0.116
    1UNL    H18   41   0.431  -0.157   0.172
    1UNL    H19   42   0.443  -0.198  -0.001
    1UNL    H20   43   0.099  -0.282   0.233
    1UNL    H21   44   0.240  -0.211   0.309
    1UNL    H22   45   0.110  -0.105   0.241
    1UNL    H23   46   0.414   0.060   0.138
    1UNL    H24   47   0.492   0.252   0.115
   0.00000   0.00000   0.00000   0.00000   0.00000   0.00000   0.00000   0.00000   0.00000
Generated with MDTraj, t= 32.0
 47
    1UNL     C1    1   0.199   0.366  -0.118
    1UNL     C2    2   0.213   0.227  -0.067
    1UNL     C3    3   0.119   0.135  -0.101
    1UNL     C4    4   0.128   0.005  -0.063
    1UNL     O1    5   0.029  -0.091  -0.102
    1UNL     C5    6  -0.104  -0.057  -0.061
    1UNL     O2    7  -0.177  -0.161   0.008
    1UNL     C6    8  -0.295  -0.114   0.079
    1UNL     C7    9  -0.267  -0.046   0.216
    1UNL     O3   10  -0.215  -0.136   0.311
    1UNL     C8   11  -0.379  -0.021  -0.012
    1UNL     O4   12  -0.515  -0.057  -0.018
    1UNL     C9   13  -0.331  -0.031  -0.160
    1UNL     O5   14  -0.403   0.068  -0.236
    1UNL    C10   15  -0.179  -0.013  -0.191
    1UNL     O6   16  -0.140   0.118  -0.238
    1UNL    C11   17   0.235  -0.025   0.026
    1UNL    C12   18   0.227  -0.166   0.091
    1UNL    C13   19   0.367  -0.237   0.104
    1UNL    C14   20   0.140  -0.167   0.220
    1UNL    C15   21   0.332   0.067   0.070
    1UNL    C16   22   0.319   0.195   0.019
    1UNL     O7   23   0.415   0.296   0.057
    1UNL     H1   24   0.284   0.422  -0.084
    1UNL     H2   25   0.108   0.409  -0.079
    1UNL     H3   26   0.193   0.377  -0.224
    1UNL     H4   27   0.039   0.153  -0.175
    1UNL     H5   28  -0.091   0.027   0.015
    1UNL     H6   29  -0.346  -0.213   0.089
    1UNL     H7   30  -0.195   0.038   0.216
    1UNL     H8   31  -0.357  -0.003   0.261
    1UNL     H9   32  -0.261  -0.219   0.290
    1UNL    H10   33  -0.363   0.073   0.028
    1UNL    H11   34  -0.530  -0.150  -0.051
    1UNL    H12   35  -0.360  -0.131  -0.203
    1UNL    H13   36  -0.496   0.069  -0.183
    1UNL    H14   37  -0.156  -0.090  -0.268
    1UNL    H15   38  -0.204   0.147  -0.307
    1UNL    H16   39   0.183  -0.240   0.015
    1UNL    H17   40   0.354  -0.325   0.167
    1UNL    H18   41   0.439  -0.177   0.156
    1UNL    H19   42   0.424  -0.277   0.017
    1UNL    H20   43   0.189  -0.227   0.298
    1UNL    H21   44   0.141  -0.068   0.262
    1UNL    H22   45   0.039  -0.196   0.203
    1UNL    H23   46   0.403   0.039   0.145
    1UNL    H24   47   0.479   0.243   0.107
   0.00000   0.00000   0.00000   0.00000   0.00000   0.00000   0.00000   0.00000   0.00000
Generated with MDTraj, t= 33.0
 47
    1UNL     C1    1   0.179   0.367  -0.107
    1UNL     C2    2   0.213   0.225  -0.070
    1UNL     C3    3   0.125   0.130  -0.122
    1UNL     C4    4   0.137  -0.005  -0.072
    1UNL     O1    5   0.045  -0.099  -0.118
    1UNL     C5    6  -0.087  -0.063  -0.070
    1UNL     O2    7  -0.165  -0.156   0.005
    1UNL     C6    8  -0.287  -0.112   0.068
    1UNL     C7    9  -0.264  -0.052   0.208
    1UNL     O3   10  -0.192  -0.129   0.301
    1UNL     C8   11  -0.360  -0.009  -0.017
    1UNL     O4   12  -0.505  -0.016   0.007
    1UNL     C9   13  -0.323  -0.045  -0.163
    1UNL     O5   14  -0.409   0.035  -0.246
    1UNL    C10   15  -0.174  -0.008  -0.189
    1UNL     O6   16  -0.167   0.131  -0.206
    1UNL    C11   17   0.232  -0.037   0.025
    1UNL    C12   18   0.219  -0.174   0.088
    1UNL    C13   19   0.353  -0.232   0.129
    1UNL    C14   20   0.128  -0.153   0.203
    1UNL    C15   21   0.317   0.059   0.075
    1UNL    C16   22   0.320   0.186   0.022
    1UNL     O7   23   0.395   0.295   0.068
    1UNL     H1   24   0.261   0.430  -0.075
    1UNL     H2   25   0.090   0.390  -0.063
    1UNL     H3   26   0.166   0.377  -0.216
    1UNL     H4   27   0.047   0.158  -0.191
    1UNL     H5   28  -0.078   0.028   0.001
    1UNL     H6   29  -0.342  -0.209   0.078
    1UNL     H7   30  -0.215   0.048   0.201
    1UNL     H8   31  -0.361  -0.025   0.258
    1UNL     H9   32  -0.198  -0.222   0.268
    1UNL    H10   33  -0.322   0.084   0.012
    1UNL    H11   34  -0.554  -0.103  -0.008
    1UNL    H12   35  -0.327  -0.155  -0.194
    1UNL    H13   36  -0.491   0.057  -0.193
    1UNL    H14   37  -0.145  -0.051  -0.287
    1UNL    H15   38  -0.244   0.153  -0.263
    1UNL    H16   39   0.165  -0.240   0.010
    1UNL    H17   40   0.338  -0.341   0.160
    1UNL    H18   41   0.402  -0.179   0.207
    1UNL    H19   42   0.421  -0.237   0.047
    1UNL    H20   43   0.060  -0.238   0.228
    1UNL    H21   44   0.182  -0.131   0.288
    1UNL    H22   45   0.065  -0.069   0.178
    1UNL    H23   46   0.388   0.032   0.153
    1UNL    H24   47   0.468   0.269   0.123
   0.00000   0.00000   0.00000   0.00000   0.00000   0.00000   0.00000   0.00000   0.00000
Generated with MDTraj, t= 34.0
 47
    1UNL     C1    1   0.227   0.372  -0.129
    1UNL     C2    2   0.217   0.228  -0.072
    1UNL     C3    3   0.120   0.132  -0.113
    1UNL     C4    4   0.131  -0.001  -0.062
    1UNL     O1    5   0.032  -0.091  -0.098
    1UNL     C5    6  -0.100  -0.054  -0.066
    1UNL     O2    7  -0.168  -0.157   0.009
    1UNL     C6    8  -0.281  -0.099   0.075
    1UNL     C7    9  -0.237  -0.040   0.213
    1UNL     O3   10  -0.169  -0.150   0.273
    1UNL     C8   11  -0.365   0.001  -0.017
    1UNL     O4   12  -0.507  -0.004   0.006
    1UNL     C9   13  -0.332  -0.052  -0.158
    1UNL     O5   14  -0.404   0.018  -0.257
    1UNL    C10   15  -0.189  -0.016  -0.190
    1UNL     O6   16  -0.181   0.121  -0.214
    1UNL    C11   17   0.231  -0.035   0.028
    1UNL    C12   18   0.216  -0.175   0.079
    1UNL    C13   19   0.361  -0.219   0.120
    1UNL    C14   20   0.120  -0.181   0.204
    1UNL    C15   21   0.306   0.065   0.080
    1UNL    C16   22   0.309   0.191   0.029
    1UNL     O7   23   0.388   0.292   0.082
    1UNL     H1   24   0.321   0.421  -0.112
    1UNL     H2   25   0.149   0.429  -0.092
    1UNL     H3   26   0.211   0.369  -0.237
    1UNL     H4   27   0.037   0.168  -0.170
    1UNL     H5   28  -0.096   0.033   0.010
    1UNL     H6   29  -0.347  -0.183   0.105
    1UNL     H7   30  -0.168   0.047   0.200
    1UNL     H8   31  -0.327   0.002   0.266
    1UNL     H9   32  -0.204  -0.240   0.248
    1UNL    H10   33  -0.332   0.099  -0.004
    1UNL    H11   34  -0.542  -0.096   0.010
    1UNL    H12   35  -0.351  -0.166  -0.157
    1UNL    H13   36  -0.495   0.031  -0.226
    1UNL    H14   37  -0.142  -0.073  -0.271
    1UNL    H15   38  -0.264   0.150  -0.256
    1UNL    H16   39   0.163  -0.237   0.000
    1UNL    H17   40   0.366  -0.331   0.132
    1UNL    H18   41   0.383  -0.167   0.216
    1UNL    H19   42   0.429  -0.184   0.049
    1UNL    H20   43   0.135  -0.268   0.270
    1UNL    H21   44   0.132  -0.099   0.265
    1UNL    H22   45   0.016  -0.181   0.172
    1UNL    H23   46   0.356   0.045   0.172
    1UNL    H24   47   0.431   0.262   0.163
   0.00000   0.00000   0.00000   0.00000   0.00000   0.00000   0.00000   0.00000   0.00000
Generated with MDTraj, t= 35.0
 47
    1UNL     C1    1   0.237   0.363  -0.129
    1UNL     C2    2   0.217   0.234  -0.069
    1UNL     C3    3   0.130   0.137  -0.121
    1UNL     C4    4   0.126   0.011  -0.066
    1UNL     O1    5   0.037  -0.088  -0.111
    1UNL     C5    6  -0.096  -0.057  -0.067
    1UNL     O2    7  -0.157  -0.156   0.016
    1UNL     C6    8  -0.284  -0.120   0.069
    1UNL     C7    9  -0.270  -0.046   0.202
    1UNL     O3   10  -0.186  -0.115   0.292
    1UNL     C8   11  -0.372  -0.024  -0.014
    1UNL     O4   12  -0.509  -0.038   0.023
    1UNL     C9   13  -0.340  -0.036  -0.164
    1UNL     O5   14  -0.414   0.070  -0.235
    1UNL    C10   15  -0.187  -0.025  -0.191
    1UNL     O6   16  -0.167   0.103  -0.249
    1UNL    C11   17   0.213  -0.020   0.043
    1UNL    C12   18   0.230  -0.173   0.091
    1UNL    C13   19   0.372  -0.222   0.120
    1UNL    C14   20   0.131  -0.215   0.199
    1UNL    C15   21   0.308   0.070   0.086
    1UNL    C16   22   0.305   0.199   0.032
    1UNL     O7   23   0.400   0.297   0.077
    1UNL     H1   24   0.324   0.419  -0.108
    1UNL     H2   25   0.148   0.424  -0.105
    1UNL     H3   26   0.230   0.341  -0.233
    1UNL     H4   27   0.054   0.162  -0.196
    1UNL     H5   28  -0.101   0.041  -0.007
    1UNL     H6   29  -0.343  -0.211   0.082
    1UNL     H7   30  -0.242   0.059   0.175
    1UNL     H8   31  -0.374  -0.031   0.244
    1UNL     H9   32  -0.160  -0.206   0.267
    1UNL    H10   33  -0.363   0.080  -0.003
    1UNL    H11   34  -0.526  -0.127  -0.008
    1UNL    H12   35  -0.397  -0.131  -0.203
    1UNL    H13   36  -0.512   0.075  -0.195
    1UNL    H14   37  -0.160  -0.093  -0.273
    1UNL    H15   38  -0.254   0.130  -0.286
    1UNL    H16   39   0.189  -0.236   0.007
    1UNL    H17   40   0.370  -0.317   0.176
    1UNL    H18   41   0.430  -0.145   0.176
    1UNL    H19   42   0.421  -0.236   0.026
    1UNL    H20   43   0.114  -0.321   0.202
    1UNL    H21   44   0.167  -0.188   0.296
    1UNL    H22   45   0.034  -0.167   0.180
    1UNL    H23   46   0.375   0.041   0.164
    1UNL    H24   47   0.419   0.278   0.173
   0.00000   0.00000   0.00000   0.00000   0.00000   0.00000   0.00000   0.00000   0.00000
Generated with MDTraj, t= 36.0
 47
    1UNL     C1    1   0.209   0.380  -0.115
    1UNL     C2    2   0.206   0.239  -0.062
    1UNL     C3    3   0.124   0.135  -0.115
    1UNL     C4    4   0.131   0.005  -0.067
    1UNL     O1    5   0.035  -0.095  -0.091
    1UNL     C5    6  -0.102  -0.059  -0.056
    1UNL     O2    7  -0.174  -0.156   0.028
    1UNL     C6    8  -0.293  -0.107   0.088
    1UNL     C7    9  -0.248  -0.041   0.223
    1UNL     O3   10  -0.201  -0.139   0.310
    1UNL     C8   11  -0.376  -0.014  -0.010
    1UNL     O4   12  -0.513  -0.044  -0.003
    1UNL     C9   13  -0.333  -0.025  -0.163
    1UNL     O5   14  -0.404   0.057  -0.249
    1UNL    C10   15  -0.180  -0.020  -0.189
    1UNL     O6   16  -0.145   0.097  -0.261
    1UNL    C11   17   0.231  -0.036   0.019
    1UNL    C12   18   0.222  -0.170   0.073
    1UNL    C13   19   0.359  -0.233   0.111
    1UNL    C14   20   0.127  -0.168   0.195
    1UNL    C15   21   0.323   0.061   0.054
    1UNL    C16   22   0.310   0.198   0.027
    1UNL     O7   23   0.399   0.289   0.082
    1UNL     H1   24   0.272   0.446  -0.063
    1UNL     H2   25   0.110   0.435  -0.105
    1UNL     H3   26   0.245   0.377  -0.212
    1UNL     H4   27   0.046   0.147  -0.185
    1UNL     H5   28  -0.093   0.035   0.010
    1UNL     H6   29  -0.359  -0.191   0.112
    1UNL     H7   30  -0.160   0.029   0.208
    1UNL     H8   31  -0.324   0.027   0.271
    1UNL     H9   32  -0.166  -0.215   0.260
    1UNL    H10   33  -0.371   0.086   0.020
    1UNL    H11   34  -0.520  -0.136  -0.039
    1UNL    H12   35  -0.373  -0.132  -0.180
    1UNL    H13   36  -0.498   0.041  -0.238
    1UNL    H14   37  -0.140  -0.104  -0.250
    1UNL    H15   38  -0.223   0.126  -0.314
    1UNL    H16   39   0.171  -0.222  -0.008
    1UNL    H17   40   0.370  -0.333   0.079
    1UNL    H18   41   0.385  -0.231   0.219
    1UNL    H19   42   0.443  -0.176   0.063
    1UNL    H20   43   0.116  -0.262   0.240
    1UNL    H21   44   0.176  -0.105   0.274
    1UNL    H22   45   0.028  -0.131   0.176
    1UNL    H23   46   0.415   0.041   0.108
    1UNL    H24   47   0.443   0.245   0.162
   0.00000   0.00000   0.00000   0.00000   0.00000   0.00000   0.00000   0.00000   0.00000
Generated with MDTraj, t= 37.0
 47
    1UNL     C1    1   0.170   0.374  -0.093
    1UNL     C2    2   0.199   0.232  -0.050
    1UNL     C3    3   0.119   0.136  -0.097
    1UNL     C4    4   0.142  -0.003  -0.070
    1UNL     O1    5   0.041  -0.108  -0.094
    1UNL     C5    6  -0.093  -0.061  -0.063
    1UNL     O2    7  -0.164  -0.158   0.014
    1UNL     C6    8  -0.291  -0.114   0.069
    1UNL     C7    9  -0.288  -0.057   0.213
    1UNL     O3   10  -0.219  -0.131   0.305
    1UNL     C8   11  -0.363  -0.006  -0.025
    1UNL     O4   12  -0.501   0.025  -0.007
    1UNL     C9   13  -0.335  -0.053  -0.171
    1UNL     O5   14  -0.418   0.022  -0.252
    1UNL    C10   15  -0.178  -0.017  -0.192
    1UNL     O6   16  -0.169   0.125  -0.214
    1UNL    C11   17   0.249  -0.039   0.017
    1UNL    C12   18   0.243  -0.175   0.087
    1UNL    C13   19   0.378  -0.234   0.111
    1UNL    C14   20   0.151  -0.182   0.211
    1UNL    C15   21   0.320   0.071   0.068
    1UNL    C16   22   0.310   0.201   0.025
    1UNL     O7   23   0.419   0.288   0.042
    1UNL     H1   24   0.213   0.441  -0.024
    1UNL     H2   25   0.062   0.403  -0.090
    1UNL     H3   26   0.212   0.388  -0.189
    1UNL     H4   27   0.034   0.158  -0.163
    1UNL     H5   28  -0.084   0.035  -0.001
    1UNL     H6   29  -0.347  -0.207   0.064
    1UNL     H7   30  -0.244   0.046   0.222
    1UNL     H8   31  -0.389  -0.040   0.259
    1UNL     H9   32  -0.159  -0.185   0.248
    1UNL    H10   33  -0.309   0.081  -0.003
    1UNL    H11   34  -0.566  -0.049  -0.030
    1UNL    H12   35  -0.351  -0.163  -0.192
    1UNL    H13   36  -0.503   0.044  -0.218
    1UNL    H14   37  -0.139  -0.060  -0.286
    1UNL    H15   38  -0.250   0.152  -0.263
    1UNL    H16   39   0.195  -0.233   0.011
    1UNL    H17   40   0.375  -0.308   0.186
    1UNL    H18   41   0.456  -0.160   0.133
    1UNL    H19   42   0.408  -0.284   0.011
    1UNL    H20   43   0.140  -0.277   0.253
    1UNL    H21   44   0.187  -0.116   0.296
    1UNL    H22   45   0.052  -0.152   0.186
    1UNL    H23   46   0.400   0.054   0.135
    1UNL    H24   47   0.499   0.235   0.072
   0.00000   0.00000   0.00000   0.00000   0.00000   0.00000   0.00000   0.00000   0.00000
Generated with MDTraj, t= 38.0
 47
    1UNL     C1    1   0.184   0.369  -0.112
    1UNL     C2    2   0.200   0.235  -0.062
    1UNL     C3    3   0.115   0.137  -0.086
    1UNL     C4    4   0.124   0.007  -0.034
    1UNL     O1    5   0.034  -0.100  -0.051
    1UNL     C5    6  -0.108  -0.061  -0.046
    1UNL     O2    7  -0.200  -0.152   0.023
    1UNL     C6    8  -0.320  -0.089   0.072
    1UNL     C7    9  -0.281  -0.045   0.207
    1UNL     O3   10  -0.226  -0.158   0.288
    1UNL     C8   11  -0.389   0.009  -0.026
    1UNL     O4   12  -0.530   0.000  -0.023
    1UNL     C9   13  -0.333  -0.038  -0.167
    1UNL     O5   14  -0.394   0.031  -0.267
    1UNL    C10   15  -0.175  -0.023  -0.179
    1UNL     O6   16  -0.153   0.107  -0.216
    1UNL    C11   17   0.238  -0.029   0.034
    1UNL    C12   18   0.261  -0.176   0.077
    1UNL    C13   19   0.404  -0.228   0.083
    1UNL    C14   20   0.195  -0.181   0.217
    1UNL    C15   21   0.337   0.060   0.054
    1UNL    C16   22   0.315   0.196   0.014
    1UNL     O7   23   0.411   0.287   0.047
    1UNL     H1   24   0.253   0.429  -0.057
    1UNL     H2   25   0.089   0.415  -0.095
    1UNL     H3   26   0.208   0.366  -0.219
    1UNL     H4   27   0.026   0.161  -0.143
    1UNL     H5   28  -0.099   0.029   0.023
    1UNL     H6   29  -0.377  -0.183   0.079
    1UNL     H7   30  -0.208   0.038   0.205
    1UNL     H8   31  -0.366  -0.003   0.263
    1UNL     H9   32  -0.186  -0.216   0.221
    1UNL    H10   33  -0.355   0.106  -0.004
    1UNL    H11   34  -0.574  -0.077  -0.062
    1UNL    H12   35  -0.356  -0.145  -0.183
    1UNL    H13   36  -0.489   0.057  -0.237
    1UNL    H14   37  -0.140  -0.088  -0.263
    1UNL    H15   38  -0.223   0.136  -0.279
    1UNL    H16   39   0.210  -0.234   0.004
    1UNL    H17   40   0.403  -0.338   0.075
    1UNL    H18   41   0.441  -0.209   0.182
    1UNL    H19   42   0.471  -0.182   0.004
    1UNL    H20   43   0.208  -0.281   0.251
    1UNL    H21   44   0.258  -0.121   0.290
    1UNL    H22   45   0.091  -0.162   0.228
    1UNL    H23   46   0.433   0.024   0.093
    1UNL    H24   47   0.492   0.239   0.076
   0.00000   0.00000   0.00000   0.00000   0.00000   0.00000   0.00000   0.00000   0.00000
Generated with MDTraj, t= 39.0
 47
    1UNL     C1    1   0.188   0.365  -0.122
    1UNL     C2    2   0.199   0.228  -0.069
    1UNL     C3    3   0.099   0.137  -0.071
    1UNL     C4    4   0.120   0.002  -0.025
    1UNL     O1    5   0.027  -0.095  -0.055
    1UNL     C5    6  -0.110  -0.051  -0.038
    1UNL     O2    7  -0.182  -0.150   0.035
    1UNL     C6    8  -0.322  -0.116   0.066
    1UNL     C7    9  -0.348  -0.055   0.210
    1UNL     O3   10  -0.241  -0.103   0.293
    1UNL     C8   11  -0.388  -0.013  -0.028
    1UNL     O4   12  -0.527  -0.043  -0.030
    1UNL     C9   13  -0.337  -0.029  -0.174
    1UNL     O5   14  -0.367   0.085  -0.249
    1UNL    C10   15  -0.174  -0.027  -0.174
    1UNL     O6   16  -0.133   0.101  -0.217
    1UNL    C11   17   0.239  -0.032   0.046
    1UNL    C12   18   0.267  -0.176   0.084
    1UNL    C13   19   0.401  -0.228   0.044
    1UNL    C14   20   0.232  -0.208   0.229
    1UNL    C15   21   0.330   0.066   0.061
    1UNL    C16   22   0.311   0.197   0.009
    1UNL     O7   23   0.412   0.287   0.034
    1UNL     H1   24   0.281   0.410  -0.089
    1UNL     H2   25   0.119   0.428  -0.081
    1UNL     H3   26   0.179   0.364  -0.233
    1UNL     H4   27   0.010   0.170  -0.118
    1UNL     H5   28  -0.097   0.040   0.026
    1UNL     H6   29  -0.373  -0.215   0.054
    1UNL     H7   30  -0.339   0.053   0.209
    1UNL     H8   31  -0.449  -0.083   0.242
    1UNL     H9   32  -0.170  -0.133   0.229
    1UNL    H10   33  -0.374   0.087   0.002
    1UNL    H11   34  -0.539  -0.124  -0.080
    1UNL    H12   35  -0.377  -0.118  -0.221
    1UNL    H13   36  -0.467   0.103  -0.237
    1UNL    H14   37  -0.129  -0.093  -0.251
    1UNL    H15   38  -0.194   0.148  -0.277
    1UNL    H16   39   0.196  -0.227   0.020
    1UNL    H17   40   0.434  -0.323   0.101
    1UNL    H18   41   0.479  -0.156   0.067
    1UNL    H19   42   0.401  -0.244  -0.064
    1UNL    H20   43   0.240  -0.316   0.241
    1UNL    H21   44   0.306  -0.159   0.292
    1UNL    H22   45   0.131  -0.187   0.257
    1UNL    H23   46   0.418   0.047   0.117
    1UNL    H24   47   0.497   0.252   0.064
   0.00000   0.00000   0.00000   0.00000   0.00000   0.00000   0.00000   0.00000   0.00000
Generated with MDTraj, t= 40.0
 47
    1UNL     C1    1   0.196   0.376  -0.092
    1UNL     C2    2   0.218   0.229  -0.060
    1UNL     C3    3   0.112   0.143  -0.064
    1UNL     C4    4   0.123   0.010  -0.019
    1UNL     O1    5   0.019  -0.090  -0.033
    1UNL     C5    6  -0.124  -0.054  -0.029
    1UNL     O2    7  -0.203  -0.150   0.040
    1UNL     C6    8  -0.331  -0.101   0.070
    1UNL     C7    9  -0.328  -0.036   0.210
    1UNL     O3   10  -0.246  -0.120   0.281
    1UNL     C8   11  -0.394  -0.017  -0.040
    1UNL     O4   12  -0.537  -0.038  -0.043
    1UNL     C9   13  -0.337  -0.046  -0.177
    1UNL     O5   14  -0.384   0.047  -0.273
    1UNL    C10   15  -0.179  -0.025  -0.169
    1UNL     O6   16  -0.148   0.102  -0.224
    1UNL    C11   17   0.245  -0.034   0.038
    1UNL    C12   18   0.263  -0.175   0.088
    1UNL    C13   19   0.373  -0.246   0.009
    1UNL    C14   20   0.277  -0.179   0.247
    1UNL    C15   21   0.341   0.059   0.048
    1UNL    C16   22   0.336   0.192   0.007
    1UNL     O7   23   0.425   0.295   0.045
    1UNL     H1   24   0.287   0.430  -0.070
    1UNL     H2   25   0.129   0.429  -0.032
    1UNL     H3   26   0.164   0.396  -0.195
    1UNL     H4   27   0.020   0.181  -0.105
    1UNL     H5   28  -0.122   0.046   0.021
    1UNL     H6   29  -0.399  -0.187   0.087
    1UNL     H7   30  -0.281   0.059   0.197
    1UNL     H8   31  -0.426  -0.031   0.257
    1UNL     H9   32  -0.178  -0.158   0.222
    1UNL    H10   33  -0.391   0.087  -0.026
    1UNL    H11   34  -0.547  -0.120  -0.097
    1UNL    H12   35  -0.362  -0.144  -0.208
    1UNL    H13   36  -0.475   0.049  -0.269
    1UNL    H14   37  -0.136  -0.090  -0.247
    1UNL    H15   38  -0.217   0.127  -0.291
    1UNL    H16   39   0.168  -0.220   0.060
    1UNL    H17   40   0.363  -0.360  -0.005
    1UNL    H18   41   0.472  -0.229   0.059
    1UNL    H19   42   0.381  -0.198  -0.086
    1UNL    H20   43   0.273  -0.280   0.293
    1UNL    H21   44   0.369  -0.136   0.267
    1UNL    H22   45   0.197  -0.127   0.296
    1UNL    H23   46   0.430   0.021   0.098
    1UNL    H24   47   0.509   0.271   0.086
   0.00000   0.00000   0.00000   0.00000   0.00000   0.00000   0.00000   0.00000   0.00000
Generated with MDTraj, t= 41.0
 47
    1UNL     C1    1   0.181   0.367  -0.066
    1UNL     C2    2   0.198   0.232  -0.028
    1UNL     C3    3   0.101   0.136  -0.053
    1UNL     C4    4   0.117   0.005  -0.023
    1UNL     O1    5   0.030  -0.096  -0.068
    1UNL     C5    6  -0.107  -0.053  -0.043
    1UNL     O2    7  -0.189  -0.151   0.039
    1UNL     C6    8  -0.318  -0.100   0.069
    1UNL     C7    9  -0.309  -0.024   0.203
    1UNL     O3   10  -0.272  -0.106   0.304
    1UNL     C8   11  -0.369  -0.011  -0.049
    1UNL     O4   12  -0.509  -0.012  -0.057
    1UNL     C9   13  -0.316  -0.062  -0.178
    1UNL     O5   14  -0.392  -0.010  -0.284
    1UNL    C10   15  -0.169  -0.008  -0.179
    1UNL     O6   16  -0.180   0.131  -0.195
    1UNL    C11   17   0.231  -0.028   0.050
    1UNL    C12   18   0.247  -0.170   0.096
    1UNL    C13   19   0.327  -0.251  -0.007
    1UNL    C14   20   0.306  -0.177   0.235
    1UNL    C15   21   0.346   0.059   0.063
    1UNL    C16   22   0.327   0.193   0.018
    1UNL     O7   23   0.432   0.285   0.022
    1UNL     H1   24   0.270   0.427  -0.056
    1UNL     H2   25   0.107   0.420  -0.003
    1UNL     H3   26   0.138   0.365  -0.163
    1UNL     H4   27   0.011   0.161  -0.111
    1UNL     H5   28  -0.092   0.030   0.029
    1UNL     H6   29  -0.387  -0.186   0.085
    1UNL     H7   30  -0.230   0.050   0.202
    1UNL     H8   31  -0.406   0.014   0.233
    1UNL     H9   32  -0.189  -0.157   0.283
    1UNL    H10   33  -0.340   0.090  -0.045
    1UNL    H11   34  -0.534  -0.101  -0.098
    1UNL    H12   35  -0.321  -0.167  -0.180
    1UNL    H13   36  -0.490  -0.012  -0.260
    1UNL    H14   37  -0.110  -0.060  -0.256
    1UNL    H15   38  -0.234   0.151  -0.274
    1UNL    H16   39   0.142  -0.207   0.098
    1UNL    H17   40   0.380  -0.340   0.035
    1UNL    H18   41   0.408  -0.179  -0.039
    1UNL    H19   42   0.268  -0.274  -0.095
    1UNL    H20   43   0.316  -0.273   0.291
    1UNL    H21   44   0.403  -0.147   0.216
    1UNL    H22   45   0.256  -0.116   0.308
    1UNL    H23   46   0.441   0.026   0.098
    1UNL    H24   47   0.511   0.235   0.049
   0.00000   0.00000   0.00000   0.00000   0.00000   0.00000   0.00000   0.00000   0.00000
Generated with MDTraj, t= 42.0
 47
    1UNL     C1    1   0.180   0.369  -0.085
    1UNL     C2    2   0.207   0.230  -0.029
    1UNL     C3    3   0.114   0.132  -0.069
    1UNL     C4    4   0.131   0.004  -0.037
    1UNL     O1    5   0.024  -0.093  -0.040
    1UNL     C5    6  -0.108  -0.047  -0.019
    1UNL     O2    7  -0.195  -0.146   0.042
    1UNL     C6    8  -0.327  -0.094   0.077
    1UNL     C7    9  -0.334  -0.011   0.204
    1UNL     O3   10  -0.264  -0.081   0.307
    1UNL     C8   11  -0.392  -0.018  -0.049
    1UNL     O4   12  -0.529  -0.049  -0.068
    1UNL     C9   13  -0.317  -0.056  -0.169
    1UNL     O5   14  -0.377   0.001  -0.283
    1UNL    C10   15  -0.169  -0.013  -0.162
    1UNL     O6   16  -0.147   0.119  -0.203
    1UNL    C11   17   0.253  -0.035   0.027
    1UNL    C12   18   0.252  -0.170   0.082
    1UNL    C13   19   0.294  -0.271  -0.023
    1UNL    C14   20   0.331  -0.190   0.208
    1UNL    C15   21   0.350   0.062   0.062
    1UNL    C16   22   0.328   0.197   0.037
    1UNL     O7   23   0.419   0.310   0.055
    1UNL     H1   24   0.258   0.440  -0.067
    1UNL     H2   25   0.084   0.414  -0.043
    1UNL     H3   26   0.158   0.353  -0.185
    1UNL     H4   27   0.023   0.153  -0.121
    1UNL     H5   28  -0.116   0.052   0.025
    1UNL     H6   29  -0.381  -0.189   0.091
    1UNL     H7   30  -0.281   0.083   0.194
    1UNL     H8   31  -0.438  -0.004   0.233
    1UNL     H9   32  -0.182  -0.116   0.268
    1UNL    H10   33  -0.384   0.086  -0.042
    1UNL    H11   34  -0.544  -0.146  -0.071
    1UNL    H12   35  -0.327  -0.161  -0.176
    1UNL    H13   36  -0.482  -0.021  -0.282
    1UNL    H14   37  -0.111  -0.067  -0.237
    1UNL    H15   38  -0.220   0.137  -0.268
    1UNL    H16   39   0.143  -0.187   0.107
    1UNL    H17   40   0.263  -0.372  -0.004
    1UNL    H18   41   0.406  -0.270  -0.027
    1UNL    H19   42   0.256  -0.235  -0.124
    1UNL    H20   43   0.329  -0.287   0.260
    1UNL    H21   44   0.432  -0.174   0.179
    1UNL    H22   45   0.292  -0.127   0.287
    1UNL    H23   46   0.439   0.032   0.115
    1UNL    H24   47   0.501   0.285   0.107
   0.00000   0.00000   0.00000   0.00000   0.00000   0.00000   0.00000   0.00000   0.00000
Generated with MDTraj, t= 43.0
 47
    1UNL     C1    1   0.199   0.369  -0.097
    1UNL     C2    2   0.208   0.230  -0.030
    1UNL     C3    3   0.110   0.133  -0.065
    1UNL     C4    4   0.121   0.007  -0.009
    1UNL     O1    5   0.017  -0.093  -0.023
    1UNL     C5    6  -0.121  -0.049  -0.020
    1UNL     O2    7  -0.209  -0.146   0.042
    1UNL     C6    8  -0.339  -0.097   0.079
    1UNL     C7    9  -0.338   0.000   0.190
    1UNL     O3   10  -0.248  -0.050   0.294
    1UNL     C8   11  -0.408  -0.031  -0.050
    1UNL     O4   12  -0.542  -0.081  -0.063
    1UNL     C9   13  -0.321  -0.055  -0.177
    1UNL     O5   14  -0.371   0.022  -0.288
    1UNL    C10   15  -0.170  -0.020  -0.167
    1UNL     O6   16  -0.139   0.110  -0.204
    1UNL    C11   17   0.242  -0.029   0.057
    1UNL    C12   18   0.267  -0.174   0.080
    1UNL    C13   19   0.289  -0.259  -0.048
    1UNL    C14   20   0.376  -0.193   0.187
    1UNL    C15   21   0.335   0.069   0.085
    1UNL    C16   22   0.324   0.198   0.046
    1UNL     O7   23   0.425   0.293   0.060
    1UNL     H1   24   0.276   0.437  -0.073
    1UNL     H2   25   0.103   0.423  -0.080
    1UNL     H3   26   0.199   0.348  -0.201
    1UNL     H4   27   0.026   0.164  -0.125
    1UNL     H5   28  -0.116   0.031   0.051
    1UNL     H6   29  -0.391  -0.189   0.104
    1UNL     H7   30  -0.297   0.095   0.151
    1UNL     H8   31  -0.435   0.008   0.236
    1UNL     H9   32  -0.177  -0.095   0.242
    1UNL    H10   33  -0.413   0.069  -0.019
    1UNL    H11   34  -0.546  -0.177  -0.052
    1UNL    H12   35  -0.325  -0.156  -0.201
    1UNL    H13   36  -0.458   0.003  -0.323
    1UNL    H14   37  -0.102  -0.089  -0.217
    1UNL    H15   38  -0.212   0.127  -0.267
    1UNL    H16   39   0.165  -0.203   0.123
    1UNL    H17   40   0.324  -0.358  -0.028
    1UNL    H18   41   0.368  -0.216  -0.112
    1UNL    H19   42   0.198  -0.265  -0.118
    1UNL    H20   43   0.394  -0.294   0.216
    1UNL    H21   44   0.471  -0.163   0.140
    1UNL    H22   45   0.340  -0.145   0.275
    1UNL    H23   46   0.427   0.046   0.137
    1UNL    H24   47   0.491   0.255   0.127
   0.00000   0.00000   0.00000   0.00000   0.00000   0.00000   0.00000   0.00000   0.00000
Generated with MDTraj, t= 44.0
 47
    1UNL     C1    1   0.173   0.370  -0.077
    1UNL     C2    2   0.195   0.236  -0.025
    1UNL     C3    3   0.090   0.140  -0.021
    1UNL     C4    4   0.114   0.001   0.004
    1UNL     O1    5   0.025  -0.102  -0.020
    1UNL     C5    6  -0.109  -0.053  -0.022
    1UNL     O2    7  -0.196  -0.142   0.044
    1UNL     C6    8  -0.329  -0.092   0.072
    1UNL     C7    9  -0.315   0.017   0.182
    1UNL     O3   10  -0.240  -0.030   0.293
    1UNL     C8   11  -0.392  -0.033  -0.061
    1UNL     O4   12  -0.532  -0.065  -0.063
    1UNL     C9   13  -0.302  -0.070  -0.190
    1UNL     O5   14  -0.366  -0.009  -0.302
    1UNL    C10   15  -0.162  -0.010  -0.169
    1UNL     O6   16  -0.180   0.131  -0.191
    1UNL    C11   17   0.236  -0.033   0.062
    1UNL    C12   18   0.266  -0.186   0.087
    1UNL    C13   19   0.273  -0.255  -0.053
    1UNL    C14   20   0.381  -0.210   0.186
    1UNL    C15   21   0.338   0.063   0.076
    1UNL    C16   22   0.318   0.193   0.029
    1UNL     O7   23   0.423   0.284   0.044
    1UNL     H1   24   0.236   0.447  -0.037
    1UNL     H2   25   0.071   0.398  -0.063
    1UNL     H3   26   0.182   0.360  -0.187
    1UNL     H4   27  -0.002   0.160  -0.075
    1UNL     H5   28  -0.114   0.037   0.035
    1UNL     H6   29  -0.379  -0.184   0.098
    1UNL     H7   30  -0.259   0.107   0.145
    1UNL     H8   31  -0.417   0.045   0.212
    1UNL     H9   32  -0.175  -0.091   0.253
    1UNL    H10   33  -0.384   0.068  -0.037
    1UNL    H11   34  -0.547  -0.160  -0.056
    1UNL    H12   35  -0.306  -0.173  -0.211
    1UNL    H13   36  -0.459  -0.031  -0.299
    1UNL    H14   37  -0.096  -0.027  -0.254
    1UNL    H15   38  -0.243   0.126  -0.267
    1UNL    H16   39   0.172  -0.228   0.136
    1UNL    H17   40   0.302  -0.362  -0.045
    1UNL    H18   41   0.358  -0.211  -0.104
    1UNL    H19   42   0.185  -0.241  -0.124
    1UNL    H20   43   0.404  -0.310   0.200
    1UNL    H21   44   0.477  -0.171   0.140
    1UNL    H22   45   0.343  -0.171   0.278
    1UNL    H23   46   0.428   0.041   0.127
    1UNL    H24   47   0.487   0.251   0.112
   0.00000   0.00000   0.00000   0.00000   0.00000   0.00000   0.00000   0.00000   0.00000
Generated with MDTraj, t= 45.0
 47
    1UNL     C1    1   0.168   0.382  -0.015
    1UNL     C2    2   0.196   0.235  -0.034
    1UNL     C3    3   0.100   0.138  -0.047
    1UNL     C4    4   0.123   0.003  -0.014
    1UNL     O1    5   0.026  -0.095  -0.019
    1UNL     C5    6  -0.113  -0.051  -0.012
    1UNL     O2    7  -0.201  -0.137   0.057
    1UNL     C6    8  -0.332  -0.081   0.072
    1UNL     C7    9  -0.327   0.026   0.192
    1UNL     O3   10  -0.240  -0.019   0.291
    1UNL     C8   11  -0.397  -0.029  -0.060
    1UNL     O4   12  -0.529  -0.064  -0.099
    1UNL     C9   13  -0.307  -0.077  -0.175
    1UNL     O5   14  -0.361  -0.048  -0.299
    1UNL    C10   15  -0.172  -0.012  -0.157
    1UNL     O6   16  -0.182   0.134  -0.172
    1UNL    C11   17   0.254  -0.035   0.023
    1UNL    C12   18   0.263  -0.176   0.073
    1UNL    C13   19   0.288  -0.277  -0.046
    1UNL    C14   20   0.356  -0.198   0.188
    1UNL    C15   21   0.351   0.056   0.037
    1UNL    C16   22   0.325   0.191   0.011
    1UNL     O7   23   0.420   0.284   0.056
    1UNL     H1   24   0.245   0.425   0.047
    1UNL     H2   25   0.077   0.401   0.025
    1UNL     H3   26   0.171   0.428  -0.117
    1UNL     H4   27  -0.000   0.163  -0.062
    1UNL     H5   28  -0.093   0.030   0.054
    1UNL     H6   29  -0.389  -0.169   0.099
    1UNL     H7   30  -0.293   0.128   0.157
    1UNL     H8   31  -0.426   0.035   0.240
    1UNL     H9   32  -0.182  -0.092   0.258
    1UNL    H10   33  -0.385   0.075  -0.061
    1UNL    H11   34  -0.538  -0.162  -0.094
    1UNL    H12   35  -0.298  -0.184  -0.176
    1UNL    H13   36  -0.455  -0.006  -0.277
    1UNL    H14   37  -0.084  -0.043  -0.217
    1UNL    H15   38  -0.232   0.154  -0.251
    1UNL    H16   39   0.158  -0.199   0.109
    1UNL    H17   40   0.345  -0.369  -0.004
    1UNL    H18   41   0.356  -0.231  -0.116
    1UNL    H19   42   0.196  -0.304  -0.099
    1UNL    H20   43   0.346  -0.296   0.222
    1UNL    H21   44   0.462  -0.205   0.146
    1UNL    H22   45   0.333  -0.135   0.271
    1UNL    H23   46   0.446   0.026   0.081
    1UNL    H24   47   0.482   0.236   0.112
   0.00000   0.00000   0.00000   0.00000   0.00000   0.00000   0.00000   0.00000   0.00000
Generated with MDTraj, t= 46.0
 47
    1UNL     C1    1   0.181   0.380  -0.034
    1UNL     C2    2   0.204   0.234  -0.007
    1UNL     C3    3   0.102   0.146  -0.017
    1UNL     C4    4   0.127   0.006  -0.007
    1UNL     O1    5   0.023  -0.091  -0.038
    1UNL     C5    6  -0.111  -0.049  -0.019
    1UNL     O2    7  -0.201  -0.124   0.057
    1UNL     C6    8  -0.336  -0.077   0.072
    1UNL     C7    9  -0.349   0.031   0.183
    1UNL     O3   10  -0.284  -0.002   0.301
    1UNL     C8   11  -0.415  -0.034  -0.058
    1UNL     O4   12  -0.534  -0.109  -0.080
    1UNL     C9   13  -0.321  -0.069  -0.176
    1UNL     O5   14  -0.368  -0.022  -0.299
    1UNL    C10   15  -0.173  -0.017  -0.159
    1UNL     O6   16  -0.164   0.125  -0.177
    1UNL    C11   17   0.252  -0.041   0.040
    1UNL    C12   18   0.280  -0.189   0.062
    1UNL    C13   19   0.336  -0.264  -0.059
    1UNL    C14   20   0.361  -0.217   0.185
    1UNL    C15   21   0.343   0.055   0.055
    1UNL    C16   22   0.329   0.192   0.031
    1UNL     O7   23   0.433   0.284   0.025
    1UNL     H1   24   0.277   0.427  -0.017
    1UNL     H2   25   0.113   0.427   0.031
    1UNL     H3   26   0.154   0.395  -0.139
    1UNL     H4   27   0.008   0.181  -0.064
    1UNL     H5   28  -0.103   0.043   0.031
    1UNL     H6   29  -0.392  -0.161   0.114
    1UNL     H7   30  -0.302   0.127   0.145
    1UNL     H8   31  -0.454   0.061   0.200
    1UNL     H9   32  -0.213  -0.069   0.291
    1UNL    H10   33  -0.446   0.066  -0.062
    1UNL    H11   34  -0.516  -0.206  -0.062
    1UNL    H12   35  -0.327  -0.177  -0.202
    1UNL    H13   36  -0.468  -0.013  -0.289
    1UNL    H14   37  -0.123  -0.062  -0.247
    1UNL    H15   38  -0.228   0.140  -0.252
    1UNL    H16   39   0.175  -0.223   0.076
    1UNL    H17   40   0.273  -0.360  -0.073
    1UNL    H18   41   0.439  -0.304  -0.041
    1UNL    H19   42   0.334  -0.209  -0.150
    1UNL    H20   43   0.353  -0.312   0.233
    1UNL    H21   44   0.469  -0.209   0.158
    1UNL    H22   45   0.331  -0.145   0.256
    1UNL    H23   46   0.443   0.035   0.080
    1UNL    H24   47   0.514   0.237   0.044
   0.00000   0.00000   0.00000   0.00000   0.00000   0.00000   0.00000   0.00000   0.00000
Generated with MDTraj, t= 47.0
 47
    1UNL     C1    1   0.189   0.375  -0.070
    1UNL     C2    2   0.212   0.239  -0.027
    1UNL     C3    3   0.111   0.149  -0.035
    1UNL     C4    4   0.115   0.015   0.002
    1UNL     O1    5   0.016  -0.081  -0.004
    1UNL     C5    6  -0.119  -0.040   0.003
    1UNL     O2    7  -0.215  -0.129   0.066
    1UNL     C6    8  -0.350  -0.085   0.078
    1UNL     C7    9  -0.359   0.030   0.179
    1UNL     O3   10  -0.289  -0.006   0.298
    1UNL     C8   11  -0.407  -0.051  -0.064
    1UNL     O4   12  -0.527  -0.126  -0.075
    1UNL     C9   13  -0.304  -0.070  -0.181
    1UNL     O5   14  -0.354  -0.001  -0.292
    1UNL    C10   15  -0.159  -0.012  -0.147
    1UNL     O6   16  -0.155   0.126  -0.163
    1UNL    C11   17   0.239  -0.038   0.039
    1UNL    C12   18   0.268  -0.189   0.047
    1UNL    C13   19   0.358  -0.224  -0.077
    1UNL    C14   20   0.323  -0.236   0.184
    1UNL    C15   21   0.343   0.047   0.053
    1UNL    C16   22   0.329   0.186   0.023
    1UNL     O7   23   0.436   0.272   0.035
    1UNL     H1   24   0.287   0.409  -0.092
    1UNL     H2   25   0.144   0.441   0.007
    1UNL     H3   26   0.133   0.374  -0.158
    1UNL     H4   27   0.015   0.177  -0.070
    1UNL     H5   28  -0.110   0.050   0.057
    1UNL     H6   29  -0.415  -0.160   0.130
    1UNL     H7   30  -0.327   0.130   0.133
    1UNL     H8   31  -0.461   0.065   0.204
    1UNL     H9   32  -0.206  -0.053   0.279
    1UNL    H10   33  -0.439   0.050  -0.068
    1UNL    H11   34  -0.504  -0.220  -0.052
    1UNL    H12   35  -0.288  -0.179  -0.201
    1UNL    H13   36  -0.441  -0.030  -0.307
    1UNL    H14   37  -0.078  -0.065  -0.202
    1UNL    H15   38  -0.200   0.145  -0.247
    1UNL    H16   39   0.172  -0.241   0.036
    1UNL    H17   40   0.438  -0.294  -0.043
    1UNL    H18   41   0.423  -0.138  -0.115
    1UNL    H19   42   0.311  -0.268  -0.165
    1UNL    H20   43   0.371  -0.335   0.177
    1UNL    H21   44   0.408  -0.174   0.204
    1UNL    H22   45   0.256  -0.235   0.265
    1UNL    H23   46   0.447   0.013   0.065
    1UNL    H24   47   0.512   0.221   0.068
   0.00000   0.00000   0.00000   0.00000   0.00000   0.00000   0.00000   0.00000   0.00000
Generated with MDTraj, t= 48.0
 47
    1UNL     C1    1   0.173   0.362  -0.065
    1UNL     C2    2   0.203   0.225  -0.035
    1UNL     C3    3   0.103   0.135  -0.034
    1UNL     C4    4   0.118   0.001  -0.001
    1UNL     O1    5   0.010  -0.083   0.018
    1UNL     C5    6  -0.117  -0.030   0.013
    1UNL     O2    7  -0.204  -0.131   0.066
    1UNL     C6    8  -0.343  -0.089   0.081
    1UNL     C7    9  -0.361   0.026   0.176
    1UNL     O3   10  -0.287  -0.006   0.290
    1UNL     C8   11  -0.389  -0.051  -0.065
    1UNL     O4   12  -0.518  -0.102  -0.099
    1UNL     C9   13  -0.287  -0.071  -0.179
    1UNL     O5   14  -0.351  -0.022  -0.301
    1UNL    C10   15  -0.163   0.015  -0.134
    1UNL     O6   16  -0.199   0.147  -0.130
    1UNL    C11   17   0.250  -0.041   0.020
    1UNL    C12   18   0.276  -0.186   0.046
    1UNL    C13   19   0.376  -0.243  -0.054
    1UNL    C14   20   0.306  -0.229   0.187
    1UNL    C15   21   0.354   0.051   0.011
    1UNL    C16   22   0.334   0.190   0.006
    1UNL     O7   23   0.438   0.277   0.040
    1UNL     H1   24   0.264   0.406  -0.096
    1UNL     H2   25   0.132   0.423   0.021
    1UNL     H3   26   0.108   0.367  -0.143
    1UNL     H4   27   0.006   0.168  -0.056
    1UNL     H5   28  -0.122   0.060   0.069
    1UNL     H6   29  -0.398  -0.182   0.112
    1UNL     H7   30  -0.332   0.126   0.129
    1UNL     H8   31  -0.462   0.050   0.200
    1UNL     H9   32  -0.204  -0.050   0.256
    1UNL    H10   33  -0.400   0.053  -0.081
    1UNL    H11   34  -0.523  -0.197  -0.080
    1UNL    H12   35  -0.258  -0.183  -0.185
    1UNL    H13   36  -0.440  -0.063  -0.306
    1UNL    H14   37  -0.080  -0.000  -0.205
    1UNL    H15   38  -0.261   0.166  -0.206
    1UNL    H16   39   0.179  -0.233   0.030
    1UNL    H17   40   0.350  -0.341  -0.094
    1UNL    H18   41   0.475  -0.260  -0.003
    1UNL    H19   42   0.391  -0.166  -0.136
    1UNL    H20   43   0.309  -0.341   0.192
    1UNL    H21   44   0.401  -0.202   0.217
    1UNL    H22   45   0.233  -0.188   0.254
    1UNL    H23   46   0.451   0.014   0.034
    1UNL    H24   47   0.513   0.219   0.069
   0.00000   0.00000   0.00000   0.00000   0.00000   0.00000   0.00000   0.00000   0.00000
Generated with MDTraj, t= 49.0
 47
    1UNL     C1    1   0.172   0.376  -0.024
    1UNL     C2    2   0.205   0.226  -0.011
    1UNL     C3    3   0.103   0.134  -0.023
    1UNL     C4    4   0.123  -0.004  -0.011
    1UNL     O1    5   0.019  -0.105  -0.016
    1UNL     C5    6  -0.114  -0.055   0.007
    1UNL     O2    7  -0.213  -0.144   0.077
    1UNL     C6    8  -0.341  -0.081   0.078
    1UNL     C7    9  -0.345   0.028   0.177
    1UNL     O3   10  -0.306  -0.011   0.303
    1UNL     C8   11  -0.397  -0.038  -0.070
    1UNL     O4   12  -0.511  -0.119  -0.111
    1UNL     C9   13  -0.294  -0.053  -0.177
    1UNL     O5   14  -0.343  -0.013  -0.307
    1UNL    C10   15  -0.168   0.019  -0.126
    1UNL     O6   16  -0.190   0.158  -0.113
    1UNL    C11   17   0.249  -0.045   0.012
    1UNL    C12   18   0.267  -0.186   0.043
    1UNL    C13   19   0.391  -0.241  -0.024
    1UNL    C14   20   0.284  -0.203   0.197
    1UNL    C15   21   0.352   0.046   0.009
    1UNL    C16   22   0.336   0.180  -0.004
    1UNL     O7   23   0.437   0.273  -0.022
    1UNL     H1   24   0.261   0.433  -0.026
    1UNL     H2   25   0.106   0.420   0.053
    1UNL     H3   26   0.127   0.392  -0.119
    1UNL     H4   27   0.004   0.177  -0.046
    1UNL     H5   28  -0.100   0.022   0.076
    1UNL     H6   29  -0.407  -0.163   0.115
    1UNL     H7   30  -0.299   0.127   0.148
    1UNL     H8   31  -0.444   0.064   0.183
    1UNL     H9   32  -0.226  -0.065   0.290
    1UNL    H10   33  -0.423   0.063  -0.063
    1UNL    H11   34  -0.493  -0.212  -0.097
    1UNL    H12   35  -0.278  -0.169  -0.172
    1UNL    H13   36  -0.437  -0.054  -0.324
    1UNL    H14   37  -0.097  -0.006  -0.207
    1UNL    H15   38  -0.250   0.190  -0.186
    1UNL    H16   39   0.174  -0.235   0.022
    1UNL    H17   40   0.436  -0.324   0.027
    1UNL    H18   41   0.469  -0.162  -0.023
    1UNL    H19   42   0.363  -0.265  -0.134
    1UNL    H20   43   0.282  -0.308   0.231
    1UNL    H21   44   0.374  -0.165   0.228
    1UNL    H22   45   0.207  -0.142   0.245
    1UNL    H23   46   0.452   0.011   0.028
    1UNL    H24   47   0.526   0.238  -0.057
   0.00000   0.00000   0.00000   0.00000   0.00000   0.00000   0.00000   0.00000   0.00000
Generated with MDTraj, t= 50.0
 47
    1UNL     C1    1   0.188   0.371  -0.038
    1UNL     C2    2   0.210   0.228  -0.017
    1UNL     C3    3   0.104   0.135  -0.017
    1UNL     C4    4   0.117  -0.000  -0.008
    1UNL     O1    5   0.013  -0.096   0.004
    1UNL     C5    6  -0.124  -0.045   0.020
    1UNL     O2    7  -0.220  -0.140   0.072
    1UNL     C6    8  -0.359  -0.096   0.068
    1UNL     C7    9  -0.366   0.011   0.178
    1UNL     O3   10  -0.296  -0.015   0.296
    1UNL     C8   11  -0.414  -0.050  -0.079
    1UNL     O4   12  -0.507  -0.157  -0.110
    1UNL     C9   13  -0.303  -0.040  -0.177
    1UNL     O5   14  -0.335   0.038  -0.287
    1UNL    C10   15  -0.169   0.013  -0.118
    1UNL     O6   16  -0.177   0.156  -0.113
    1UNL    C11   17   0.256  -0.043   0.003
    1UNL    C12   18   0.278  -0.184   0.049
    1UNL    C13   19   0.395  -0.260  -0.016
    1UNL    C14   20   0.272  -0.197   0.208
    1UNL    C15   21   0.365   0.047  -0.000
    1UNL    C16   22   0.343   0.184  -0.020
    1UNL     O7   23   0.437   0.283  -0.032
    1UNL     H1   24   0.274   0.434  -0.027
    1UNL     H2   25   0.107   0.403   0.019
    1UNL     H3   26   0.157   0.375  -0.146
    1UNL     H4   27   0.009   0.181  -0.026
    1UNL     H5   28  -0.123   0.037   0.085
    1UNL     H6   29  -0.412  -0.185   0.108
    1UNL     H7   30  -0.325   0.104   0.133
    1UNL     H8   31  -0.461   0.047   0.200
    1UNL     H9   32  -0.212  -0.064   0.274
    1UNL    H10   33  -0.467   0.040  -0.073
    1UNL    H11   34  -0.466  -0.247  -0.101
    1UNL    H12   35  -0.282  -0.147  -0.215
    1UNL    H13   36  -0.405  -0.004  -0.348
    1UNL    H14   37  -0.086  -0.020  -0.184
    1UNL    H15   38  -0.207   0.193  -0.198
    1UNL    H16   39   0.189  -0.238   0.020
    1UNL    H17   40   0.379  -0.369  -0.038
    1UNL    H18   41   0.486  -0.258   0.045
    1UNL    H19   42   0.414  -0.206  -0.114
    1UNL    H20   43   0.307  -0.291   0.244
    1UNL    H21   44   0.338  -0.128   0.257
    1UNL    H22   45   0.172  -0.171   0.245
    1UNL    H23   46   0.465   0.004   0.013
    1UNL    H24   47   0.521   0.251  -0.076
   0.00000   0.00000   0.00000   0.00000   0.00000   0.00000   0.00000   0.00000   0.00000
Generated with MDTraj, t= 51.0
 47
    1UNL     C1    1   0.191   0.372  -0.081
    1UNL     C2    2   0.207   0.229  -0.041
    1UNL     C3    3   0.098   0.144  -0.024
    1UNL     C4    4   0.123   0.017   0.013
    1UNL     O1    5   0.017  -0.075   0.021
    1UNL     C5    6  -0.124  -0.033   0.019
    1UNL     O2    7  -0.205  -0.142   0.056
    1UNL     C6    8  -0.341  -0.107   0.073
    1UNL     C7    9  -0.361   0.010   0.174
    1UNL     O3   10  -0.299  -0.025   0.296
    1UNL     C8   11  -0.399  -0.070  -0.075
    1UNL     O4   12  -0.501  -0.154  -0.114
    1UNL     C9   13  -0.288  -0.044  -0.179
    1UNL     O5   14  -0.334   0.040  -0.281
    1UNL    C10   15  -0.166   0.032  -0.116
    1UNL     O6   16  -0.211   0.170  -0.095
    1UNL    C11   17   0.248  -0.039   0.038
    1UNL    C12   18   0.265  -0.193   0.052
    1UNL    C13   19   0.389  -0.252  -0.023
    1UNL    C14   20   0.262  -0.230   0.199
    1UNL    C15   21   0.358   0.043   0.013
    1UNL    C16   22   0.336   0.181  -0.020
    1UNL     O7   23   0.444   0.271  -0.033
    1UNL     H1   24   0.278   0.437  -0.072
    1UNL     H2   25   0.112   0.416  -0.034
    1UNL     H3   26   0.166   0.374  -0.190
    1UNL     H4   27   0.001   0.175  -0.054
    1UNL     H5   28  -0.142   0.043   0.089
    1UNL     H6   29  -0.382  -0.194   0.125
    1UNL     H7   30  -0.328   0.105   0.130
    1UNL     H8   31  -0.464   0.022   0.183
    1UNL     H9   32  -0.215  -0.072   0.279
    1UNL    H10   33  -0.451   0.021  -0.073
    1UNL    H11   34  -0.468  -0.246  -0.140
    1UNL    H12   35  -0.253  -0.133  -0.243
    1UNL    H13   36  -0.399  -0.007  -0.333
    1UNL    H14   37  -0.075   0.031  -0.178
    1UNL    H15   38  -0.249   0.209  -0.179
    1UNL    H16   39   0.181  -0.242   0.002
    1UNL    H17   40   0.415  -0.361   0.011
    1UNL    H18   41   0.485  -0.201  -0.008
    1UNL    H19   42   0.366  -0.258  -0.130
    1UNL    H20   43   0.267  -0.332   0.213
    1UNL    H21   44   0.351  -0.198   0.256
    1UNL    H22   45   0.177  -0.186   0.252
    1UNL    H23   46   0.453   0.005   0.029
    1UNL    H24   47   0.532   0.231  -0.018
   0.00000   0.00000   0.00000   0.00000   0.00000   0.00000   0.00000   0.00000   0.00000
Generated with MDTraj, t= 52.0
 47
    1UNL     C1    1   0.198   0.375  -0.086
    1UNL     C2    2   0.207   0.228  -0.055
    1UNL     C3    3   0.093   0.151  -0.037
    1UNL     C4    4   0.116   0.013  -0.008
    1UNL     O1    5   0.017  -0.087  -0.008
    1UNL     C5    6  -0.114  -0.030   0.021
    1UNL     O2    7  -0.201  -0.139   0.058
    1UNL     C6    8  -0.339  -0.105   0.077
    1UNL     C7    9  -0.365   0.006   0.183
    1UNL     O3   10  -0.325  -0.031   0.313
    1UNL     C8   11  -0.394  -0.064  -0.071
    1UNL     O4   12  -0.498  -0.142  -0.125
    1UNL     C9   13  -0.279  -0.046  -0.166
    1UNL     O5   14  -0.323   0.009  -0.293
    1UNL    C10   15  -0.167   0.043  -0.105
    1UNL     O6   16  -0.213   0.172  -0.071
    1UNL    C11   17   0.242  -0.047   0.010
    1UNL    C12   18   0.252  -0.190   0.046
    1UNL    C13   19   0.382  -0.240  -0.022
    1UNL    C14   20   0.273  -0.200   0.199
    1UNL    C15   21   0.347   0.046   0.018
    1UNL    C16   22   0.338   0.178  -0.021
    1UNL     O7   23   0.456   0.250  -0.011
    1UNL     H1   24   0.290   0.429  -0.080
    1UNL     H2   25   0.122   0.428  -0.028
    1UNL     H3   26   0.175   0.390  -0.192
    1UNL     H4   27  -0.005   0.199  -0.028
    1UNL     H5   28  -0.106   0.026   0.109
    1UNL     H6   29  -0.393  -0.189   0.117
    1UNL     H7   30  -0.305   0.091   0.145
    1UNL     H8   31  -0.465   0.038   0.184
    1UNL     H9   32  -0.242  -0.086   0.311
    1UNL    H10   33  -0.438   0.031  -0.066
    1UNL    H11   34  -0.458  -0.230  -0.151
    1UNL    H12   35  -0.246  -0.150  -0.193
    1UNL    H13   36  -0.399  -0.042  -0.305
    1UNL    H14   37  -0.082   0.051  -0.175
    1UNL    H15   38  -0.270   0.203  -0.144
    1UNL    H16   39   0.167  -0.242  -0.007
    1UNL    H17   40   0.390  -0.354  -0.038
    1UNL    H18   41   0.477  -0.216   0.037
    1UNL    H19   42   0.386  -0.193  -0.119
    1UNL    H20   43   0.276  -0.296   0.237
    1UNL    H21   44   0.370  -0.160   0.238
    1UNL    H22   45   0.198  -0.141   0.249
    1UNL    H23   46   0.445   0.013   0.058
    1UNL    H24   47   0.522   0.201   0.038
   0.00000   0.00000   0.00000   0.00000   0.00000   0.00000   0.00000   0.00000   0.00000
Generated with MDTraj, t= 53.0
 47
    1UNL     C1    1   0.181   0.372  -0.056
    1UNL     C2    2   0.216   0.229  -0.039
    1UNL     C3    3   0.110   0.146  -0.029
    1UNL     C4    4   0.134   0.008  -0.013
    1UNL     O1    5   0.028  -0.091  -0.013
    1UNL     C5    6  -0.106  -0.032   0.004
    1UNL     O2    7  -0.206  -0.117   0.068
    1UNL     C6    8  -0.349  -0.088   0.074
    1UNL     C7    9  -0.382   0.007   0.183
    1UNL     O3   10  -0.336  -0.030   0.307
    1UNL     C8   11  -0.411  -0.055  -0.070
    1UNL     O4   12  -0.508  -0.161  -0.107
    1UNL     C9   13  -0.301  -0.047  -0.167
    1UNL     O5   14  -0.344   0.019  -0.291
    1UNL    C10   15  -0.172   0.030  -0.127
    1UNL     O6   16  -0.203   0.160  -0.092
    1UNL    C11   17   0.264  -0.043   0.006
    1UNL    C12   18   0.276  -0.190   0.043
    1UNL    C13   19   0.382  -0.282  -0.019
    1UNL    C14   20   0.283  -0.192   0.200
    1UNL    C15   21   0.374   0.048   0.011
    1UNL    C16   22   0.349   0.184  -0.012
    1UNL     O7   23   0.454   0.277  -0.014
    1UNL     H1   24   0.267   0.434  -0.050
    1UNL     H2   25   0.099   0.396   0.021
    1UNL     H3   26   0.145   0.387  -0.152
    1UNL     H4   27   0.011   0.173  -0.054
    1UNL     H5   28  -0.099   0.051   0.068
    1UNL     H6   29  -0.399  -0.180   0.093
    1UNL     H7   30  -0.336   0.107   0.163
    1UNL     H8   31  -0.487   0.022   0.193
    1UNL     H9   32  -0.249  -0.076   0.299
    1UNL    H10   33  -0.466   0.034  -0.070
    1UNL    H11   34  -0.461  -0.244  -0.120
    1UNL    H12   35  -0.273  -0.151  -0.188
    1UNL    H13   36  -0.438  -0.002  -0.318
    1UNL    H14   37  -0.101   0.039  -0.211
    1UNL    H15   38  -0.289   0.182  -0.131
    1UNL    H16   39   0.184  -0.245   0.003
    1UNL    H17   40   0.370  -0.389   0.012
    1UNL    H18   41   0.489  -0.257   0.011
    1UNL    H19   42   0.371  -0.277  -0.129
    1UNL    H20   43   0.282  -0.296   0.228
    1UNL    H21   44   0.379  -0.154   0.242
    1UNL    H22   45   0.202  -0.137   0.238
    1UNL    H23   46   0.472   0.012   0.036
    1UNL    H24   47   0.534   0.241   0.026
   0.00000   0.00000   0.00000   0.00000   0.00000   0.00000   0.00000   0.00000   0.00000
Generated with MDTraj, t= 54.0
 47
    1UNL     C1    1   0.192   0.386  -0.036
    1UNL     C2    2   0.208   0.236  -0.030
    1UNL     C3    3   0.103   0.145  -0.032
    1UNL     C4    4   0.118   0.011   0.002
    1UNL     O1    5   0.015  -0.088  -0.005
    1UNL     C5    6  -0.121  -0.041   0.005
    1UNL     O2    7  -0.211  -0.135   0.063
    1UNL     C6    8  -0.348  -0.084   0.076
    1UNL     C7    9  -0.351   0.026   0.180
    1UNL     O3   10  -0.295  -0.021   0.300
    1UNL     C8   11  -0.412  -0.059  -0.073
    1UNL     O4   12  -0.508  -0.162  -0.106
    1UNL     C9   13  -0.303  -0.060  -0.179
    1UNL     O5   14  -0.348   0.022  -0.288
    1UNL    C10   15  -0.171   0.013  -0.131
    1UNL     O6   16  -0.182   0.153  -0.128
    1UNL    C11   17   0.244  -0.038   0.028
    1UNL    C12   18   0.265  -0.181   0.046
    1UNL    C13   19   0.378  -0.240  -0.040
    1UNL    C14   20   0.292  -0.208   0.201
    1UNL    C15   21   0.355   0.044   0.037
    1UNL    C16   22   0.337   0.180  -0.003
    1UNL     O7   23   0.451   0.255  -0.025
    1UNL     H1   24   0.290   0.430  -0.047
    1UNL     H2   25   0.133   0.426   0.052
    1UNL     H3   26   0.146   0.416  -0.125
    1UNL     H4   27   0.008   0.181  -0.075
    1UNL     H5   28  -0.117   0.044   0.066
    1UNL     H6   29  -0.399  -0.167   0.123
    1UNL     H7   30  -0.301   0.126   0.160
    1UNL     H8   31  -0.451   0.052   0.212
    1UNL     H9   32  -0.221  -0.081   0.283
    1UNL    H10   33  -0.465   0.032  -0.069
    1UNL    H11   34  -0.460  -0.242  -0.125
    1UNL    H12   35  -0.272  -0.161  -0.195
    1UNL    H13   36  -0.449   0.003  -0.313
    1UNL    H14   37  -0.087  -0.008  -0.198
    1UNL    H15   38  -0.277   0.173  -0.151
    1UNL    H16   39   0.176  -0.245   0.014
    1UNL    H17   40   0.403  -0.341  -0.009
    1UNL    H18   41   0.478  -0.188  -0.046
    1UNL    H19   42   0.337  -0.252  -0.147
    1UNL    H20   43   0.333  -0.311   0.201
    1UNL    H21   44   0.367  -0.146   0.247
    1UNL    H22   45   0.202  -0.200   0.253
    1UNL    H23   46   0.455   0.009   0.047
    1UNL    H24   47   0.524   0.210   0.022
   0.00000   0.00000   0.00000   0.00000   0.00000   0.00000   0.00000   0.00000   0.00000
Generated with MDTraj, t= 55.0
 47
    1UNL     C1    1   0.177   0.374  -0.064
    1UNL     C2    2   0.196   0.234  -0.015
    1UNL     C3    3   0.088   0.143  -0.006
    1UNL     C4    4   0.113   0.003   0.005
    1UNL     O1    5   0.011  -0.094   0.006
    1UNL     C5    6  -0.118  -0.036   0.008
    1UNL     O2    7  -0.199  -0.141   0.059
    1UNL     C6    8  -0.338  -0.101   0.076
    1UNL     C7    9  -0.342   0.024   0.171
    1UNL     O3   10  -0.245   0.019   0.279
    1UNL     C8   11  -0.401  -0.061  -0.064
    1UNL     O4   12  -0.519  -0.119  -0.103
    1UNL     C9   13  -0.293  -0.063  -0.178
    1UNL     O5   14  -0.354  -0.003  -0.291
    1UNL    C10   15  -0.162   0.016  -0.134
    1UNL     O6   16  -0.185   0.153  -0.139
    1UNL    C11   17   0.247  -0.044   0.019
    1UNL    C12   18   0.263  -0.192   0.047
    1UNL    C13   19   0.362  -0.251  -0.052
    1UNL    C14   20   0.312  -0.227   0.196
    1UNL    C15   21   0.344   0.048   0.026
    1UNL    C16   22   0.323   0.186   0.012
    1UNL     O7   23   0.426   0.274   0.015
    1UNL     H1   24   0.275   0.403  -0.103
    1UNL     H2   25   0.137   0.443   0.009
    1UNL     H3   26   0.118   0.383  -0.156
    1UNL     H4   27  -0.009   0.183  -0.029
    1UNL     H5   28  -0.112   0.042   0.078
    1UNL     H6   29  -0.374  -0.197   0.116
    1UNL     H7   30  -0.315   0.115   0.109
    1UNL     H8   31  -0.442   0.045   0.210
    1UNL     H9   32  -0.187  -0.061   0.261
    1UNL    H10   33  -0.439   0.039  -0.060
    1UNL    H11   34  -0.504  -0.205  -0.147
    1UNL    H12   35  -0.271  -0.161  -0.213
    1UNL    H13   36  -0.453  -0.031  -0.287
    1UNL    H14   37  -0.088  -0.010  -0.210
    1UNL    H15   38  -0.277   0.158  -0.171
    1UNL    H16   39   0.168  -0.251   0.026
    1UNL    H17   40   0.328  -0.346  -0.094
    1UNL    H18   41   0.466  -0.270  -0.018
    1UNL    H19   42   0.358  -0.176  -0.143
    1UNL    H20   43   0.280  -0.330   0.230
    1UNL    H21   44   0.417  -0.230   0.214
    1UNL    H22   45   0.273  -0.156   0.262
    1UNL    H23   46   0.448   0.024   0.054
    1UNL    H24   47   0.500   0.240   0.074
   0.00000   0.00000   0.00000   0.00000   0.00000   0.00000   0.00000   0.00000   0.00000
Generated with MDTraj, t= 56.0
 47
    1UNL     C1    1   0.169   0.368  -0.031
    1UNL     C2    2   0.197   0.223  -0.025
    1UNL     C3    3   0.102   0.129  -0.057
    1UNL     C4    4   0.118  -0.003  -0.011
    1UNL     O1    5   0.020  -0.099  -0.021
    1UNL     C5    6  -0.116  -0.051  -0.001
    1UNL     O2    7  -0.216  -0.137   0.067
    1UNL     C6    8  -0.338  -0.078   0.076
    1UNL     C7    9  -0.332   0.045   0.169
    1UNL     O3   10  -0.255   0.016   0.283
    1UNL     C8   11  -0.409  -0.045  -0.057
    1UNL     O4   12  -0.535  -0.104  -0.075
    1UNL     C9   13  -0.307  -0.061  -0.178
    1UNL     O5   14  -0.349  -0.022  -0.310
    1UNL    C10   15  -0.167   0.001  -0.143
    1UNL     O6   16  -0.178   0.144  -0.140
    1UNL    C11   17   0.241  -0.043   0.036
    1UNL    C12   18   0.275  -0.189   0.054
    1UNL    C13   19   0.363  -0.247  -0.063
    1UNL    C14   20   0.344  -0.222   0.193
    1UNL    C15   21   0.348   0.045   0.031
    1UNL    C16   22   0.321   0.182   0.023
    1UNL     O7   23   0.411   0.287   0.045
    1UNL     H1   24   0.265   0.418  -0.049
    1UNL     H2   25   0.113   0.397   0.051
    1UNL     H3   26   0.116   0.397  -0.127
    1UNL     H4   27   0.014   0.164  -0.105
    1UNL     H5   28  -0.090   0.033   0.058
    1UNL     H6   29  -0.396  -0.156   0.131
    1UNL     H7   30  -0.288   0.133   0.111
    1UNL     H8   31  -0.438   0.066   0.192
    1UNL     H9   32  -0.208  -0.068   0.263
    1UNL    H10   33  -0.436   0.059  -0.047
    1UNL    H11   34  -0.514  -0.198  -0.103
    1UNL    H12   35  -0.293  -0.164  -0.187
    1UNL    H13   36  -0.423  -0.074  -0.330
    1UNL    H14   37  -0.087  -0.020  -0.216
    1UNL    H15   38  -0.248   0.177  -0.200
    1UNL    H16   39   0.183  -0.253   0.059
    1UNL    H17   40   0.425  -0.335  -0.029
    1UNL    H18   41   0.434  -0.175  -0.108
    1UNL    H19   42   0.291  -0.284  -0.143
    1UNL    H20   43   0.413  -0.309   0.191
    1UNL    H21   44   0.413  -0.151   0.228
    1UNL    H22   45   0.281  -0.234   0.280
    1UNL    H23   46   0.446   0.016   0.055
    1UNL    H24   47   0.492   0.251   0.093
   0.00000   0.00000   0.00000   0.00000   0.00000   0.00000   0.00000   0.00000   0.00000
Generated with MDTraj, t= 57.0
 47
    1UNL     C1    1   0.170   0.365  -0.036
    1UNL     C2    2   0.196   0.224  -0.007
    1UNL     C3    3   0.104   0.128  -0.028
    1UNL     C4    4   0.123  -0.011  -0.014
    1UNL     O1    5   0.018  -0.095  -0.039
    1UNL     C5    6  -0.116  -0.046  -0.019
    1UNL     O2    7  -0.200  -0.127   0.064
    1UNL     C6    8  -0.329  -0.074   0.073
    1UNL     C7    9  -0.331   0.047   0.181
    1UNL     O3   10  -0.267   0.020   0.299
    1UNL     C8   11  -0.406  -0.033  -0.063
    1UNL     O4   12  -0.534  -0.103  -0.063
    1UNL     C9   13  -0.319  -0.075  -0.183
    1UNL     O5   14  -0.376  -0.020  -0.305
    1UNL    C10   15  -0.178  -0.013  -0.159
    1UNL     O6   16  -0.182   0.125  -0.174
    1UNL    C11   17   0.252  -0.046   0.026
    1UNL    C12   18   0.283  -0.194   0.051
    1UNL    C13   19   0.359  -0.247  -0.063
    1UNL    C14   20   0.353  -0.222   0.188
    1UNL    C15   21   0.347   0.055   0.057
    1UNL    C16   22   0.325   0.188   0.034
    1UNL     O7   23   0.418   0.290   0.057
    1UNL     H1   24   0.263   0.421  -0.018
    1UNL     H2   25   0.082   0.394   0.013
    1UNL     H3   26   0.163   0.377  -0.148
    1UNL     H4   27   0.009   0.160  -0.071
    1UNL     H5   28  -0.099   0.046   0.030
    1UNL     H6   29  -0.391  -0.154   0.123
    1UNL     H7   30  -0.261   0.123   0.135
    1UNL     H8   31  -0.432   0.088   0.199
    1UNL     H9   32  -0.197  -0.048   0.278
    1UNL    H10   33  -0.435   0.070  -0.063
    1UNL    H11   34  -0.520  -0.198  -0.092
    1UNL    H12   35  -0.311  -0.180  -0.201
    1UNL    H13   36  -0.454  -0.076  -0.329
    1UNL    H14   37  -0.109  -0.040  -0.240
    1UNL    H15   38  -0.241   0.150  -0.252
    1UNL    H16   39   0.189  -0.249   0.066
    1UNL    H17   40   0.337  -0.360  -0.086
    1UNL    H18   41   0.471  -0.241  -0.047
    1UNL    H19   42   0.324  -0.185  -0.147
    1UNL    H20   43   0.316  -0.306   0.242
    1UNL    H21   44   0.457  -0.245   0.173
    1UNL    H22   45   0.347  -0.129   0.247
    1UNL    H23   46   0.442   0.022   0.096
    1UNL    H24   47   0.508   0.250   0.048
   0.00000   0.00000   0.00000   0.00000   0.00000   0.00000   0.00000   0.00000   0.00000
Generated with MDTraj, t= 58.0
 47
    1UNL     C1    1   0.187   0.382  -0.048
    1UNL     C2    2   0.208   0.235  -0.015
    1UNL     C3    3   0.102   0.148  -0.030
    1UNL     C4    4   0.119   0.012  -0.005
    1UNL     O1    5   0.019  -0.082  -0.025
    1UNL     C5    6  -0.122  -0.045  -0.018
    1UNL     O2    7  -0.200  -0.133   0.076
    1UNL     C6    8  -0.332  -0.083   0.087
    1UNL     C7    9  -0.328   0.035   0.188
    1UNL     O3   10  -0.238   0.003   0.295
    1UNL     C8   11  -0.397  -0.038  -0.055
    1UNL     O4   12  -0.527  -0.099  -0.080
    1UNL     C9   13  -0.315  -0.086  -0.178
    1UNL     O5   14  -0.381  -0.025  -0.294
    1UNL    C10   15  -0.171  -0.027  -0.166
    1UNL     O6   16  -0.160   0.108  -0.201
    1UNL    C11   17   0.239  -0.033   0.034
    1UNL    C12   18   0.254  -0.184   0.043
    1UNL    C13   19   0.328  -0.244  -0.080
    1UNL    C14   20   0.316  -0.215   0.187
    1UNL    C15   21   0.343   0.056   0.052
    1UNL    C16   22   0.331   0.188   0.035
    1UNL     O7   23   0.430   0.277   0.073
    1UNL     H1   24   0.247   0.442   0.019
    1UNL     H2   25   0.079   0.408  -0.049
    1UNL     H3   26   0.234   0.412  -0.140
    1UNL     H4   27   0.012   0.177  -0.085
    1UNL     H5   28  -0.123   0.050   0.029
    1UNL     H6   29  -0.392  -0.170   0.131
    1UNL     H7   30  -0.299   0.135   0.151
    1UNL     H8   31  -0.425   0.036   0.242
    1UNL     H9   32  -0.167  -0.055   0.259
    1UNL    H10   33  -0.407   0.070  -0.062
    1UNL    H11   34  -0.524  -0.187  -0.120
    1UNL    H12   35  -0.312  -0.195  -0.188
    1UNL    H13   36  -0.483  -0.053  -0.294
    1UNL    H14   37  -0.103  -0.081  -0.232
    1UNL    H15   38  -0.194   0.121  -0.290
    1UNL    H16   39   0.156  -0.227   0.058
    1UNL    H17   40   0.371  -0.350  -0.060
    1UNL    H18   41   0.425  -0.187  -0.100
    1UNL    H19   42   0.264  -0.246  -0.169
    1UNL    H20   43   0.377  -0.298   0.180
    1UNL    H21   44   0.379  -0.132   0.221
    1UNL    H22   45   0.232  -0.223   0.260
    1UNL    H23   46   0.438   0.022   0.097
    1UNL    H24   47   0.519   0.245   0.053
   0.00000   0.00000   0.00000   0.00000   0.00000   0.00000   0.00000   0.00000   0.00000
Generated with MDTraj, t= 59.0
 47
    1UNL     C1    1   0.180   0.382  -0.039
    1UNL     C2    2   0.214   0.238  -0.023
    1UNL     C3    3   0.107   0.145  -0.038
    1UNL     C4    4   0.119   0.013   0.002
    1UNL     O1    5   0.024  -0.086  -0.025
    1UNL     C5    6  -0.115  -0.043  -0.020
    1UNL     O2    7  -0.197  -0.135   0.051
    1UNL     C6    8  -0.331  -0.087   0.076
    1UNL     C7    9  -0.329   0.022   0.181
    1UNL     O3   10  -0.231  -0.023   0.288
    1UNL     C8   11  -0.402  -0.036  -0.057
    1UNL     O4   12  -0.538  -0.070  -0.059
    1UNL     C9   13  -0.328  -0.078  -0.181
    1UNL     O5   14  -0.392  -0.034  -0.299
    1UNL    C10   15  -0.179  -0.022  -0.167
    1UNL     O6   16  -0.178   0.109  -0.200
    1UNL    C11   17   0.243  -0.030   0.051
    1UNL    C12   18   0.264  -0.183   0.058
    1UNL    C13   19   0.346  -0.236  -0.060
    1UNL    C14   20   0.309  -0.229   0.194
    1UNL    C15   21   0.347   0.062   0.069
    1UNL    C16   22   0.336   0.195   0.026
    1UNL     O7   23   0.440   0.283   0.051
    1UNL     H1   24   0.233   0.449   0.028
    1UNL     H2   25   0.065   0.391  -0.032
    1UNL     H3   26   0.210   0.421  -0.130
    1UNL     H4   27   0.018   0.183  -0.077
    1UNL     H5   28  -0.124   0.048   0.033
    1UNL     H6   29  -0.383  -0.181   0.110
    1UNL     H7   30  -0.288   0.112   0.138
    1UNL     H8   31  -0.428   0.041   0.226
    1UNL     H9   32  -0.162  -0.072   0.237
    1UNL    H10   33  -0.384   0.071  -0.051
    1UNL    H11   34  -0.553  -0.158  -0.095
    1UNL    H12   35  -0.311  -0.189  -0.175
    1UNL    H13   36  -0.479  -0.082  -0.298
    1UNL    H14   37  -0.112  -0.074  -0.236
    1UNL    H15   38  -0.199   0.111  -0.297
    1UNL    H16   39   0.165  -0.225   0.052
    1UNL    H17   40   0.357  -0.348  -0.064
    1UNL    H18   41   0.456  -0.202  -0.048
    1UNL    H19   42   0.300  -0.193  -0.152
    1UNL    H20   43   0.267  -0.318   0.230
    1UNL    H21   44   0.417  -0.252   0.201
    1UNL    H22   45   0.291  -0.146   0.264
    1UNL    H23   46   0.433   0.034   0.119
    1UNL    H24   47   0.521   0.232   0.045
   0.00000   0.00000   0.00000   0.00000   0.00000   0.00000   0.00000   0.00000   0.00000
Generated with MDTraj, t= 60.0
 47
    1UNL     C1    1   0.172   0.375  -0.053
    1UNL     C2    2   0.196   0.230  -0.025
    1UNL     C3    3   0.094   0.135  -0.040
    1UNL     C4    4   0.115   0.001  -0.023
    1UNL     O1    5   0.022  -0.099  -0.045
    1UNL     C5    6  -0.108  -0.044  -0.025
    1UNL     O2    7  -0.189  -0.132   0.044
    1UNL     C6    8  -0.318  -0.087   0.076
    1UNL     C7    9  -0.319   0.014   0.184
    1UNL     O3   10  -0.252  -0.041   0.297
    1UNL     C8   11  -0.393  -0.021  -0.048
    1UNL     O4   12  -0.530  -0.058  -0.044
    1UNL     C9   13  -0.329  -0.067  -0.180
    1UNL     O5   14  -0.387  -0.015  -0.301
    1UNL    C10   15  -0.174  -0.014  -0.172
    1UNL     O6   16  -0.175   0.127  -0.191
    1UNL    C11   17   0.243  -0.041   0.022
    1UNL    C12   18   0.271  -0.180   0.065
    1UNL    C13   19   0.372  -0.259  -0.027
    1UNL    C14   20   0.324  -0.191   0.209
    1UNL    C15   21   0.337   0.051   0.053
    1UNL    C16   22   0.316   0.185   0.028
    1UNL     O7   23   0.416   0.279   0.057
    1UNL     H1   24   0.256   0.441  -0.030
    1UNL     H2   25   0.073   0.403  -0.005
    1UNL     H3   26   0.161   0.394  -0.156
    1UNL     H4   27  -0.008   0.165  -0.077
    1UNL     H5   28  -0.112   0.043   0.036
    1UNL     H6   29  -0.376  -0.180   0.088
    1UNL     H7   30  -0.255   0.094   0.151
    1UNL     H8   31  -0.423   0.042   0.209
    1UNL     H9   32  -0.177  -0.092   0.262
    1UNL    H10   33  -0.385   0.088  -0.040
    1UNL    H11   34  -0.544  -0.149  -0.077
    1UNL    H12   35  -0.331  -0.181  -0.185
    1UNL    H13   36  -0.470  -0.052  -0.318
    1UNL    H14   37  -0.109  -0.063  -0.246
    1UNL    H15   38  -0.209   0.141  -0.282
    1UNL    H16   39   0.178  -0.236   0.054
    1UNL    H17   40   0.378  -0.363   0.007
    1UNL    H18   41   0.478  -0.226  -0.001
    1UNL    H19   42   0.352  -0.253  -0.142
    1UNL    H20   43   0.386  -0.277   0.228
    1UNL    H21   44   0.391  -0.113   0.250
    1UNL    H22   45   0.247  -0.186   0.284
    1UNL    H23   46   0.435   0.020   0.098
    1UNL    H24   47   0.498   0.235   0.086
   0.00000   0.00000   0.00000   0.00000   0.00000   0.00000   0.00000   0.00000   0.00000
Generated with MDTraj, t= 61.0
 47
    1UNL     C1    1   0.168   0.374  -0.071
    1UNL     C2    2   0.196   0.227  -0.051
    1UNL     C3    3   0.105   0.129  -0.086
    1UNL     C4    4   0.126  -0.002  -0.033
    1UNL     O1    5   0.024  -0.104  -0.040
    1UNL     C5    6  -0.111  -0.061  -0.021
    1UNL     O2    7  -0.193  -0.146   0.056
    1UNL     C6    8  -0.322  -0.093   0.074
    1UNL     C7    9  -0.316   0.005   0.202
    1UNL     O3   10  -0.246  -0.066   0.298
    1UNL     C8   11  -0.392  -0.022  -0.051
    1UNL     O4   12  -0.532  -0.055  -0.058
    1UNL     C9   13  -0.320  -0.050  -0.179
    1UNL     O5   14  -0.376   0.027  -0.279
    1UNL    C10   15  -0.172  -0.015  -0.161
    1UNL     O6   16  -0.149   0.119  -0.183
    1UNL    C11   17   0.242  -0.044   0.031
    1UNL    C12   18   0.267  -0.185   0.066
    1UNL    C13   19   0.383  -0.250  -0.008
    1UNL    C14   20   0.288  -0.195   0.214
    1UNL    C15   21   0.332   0.056   0.062
    1UNL    C16   22   0.309   0.191   0.026
    1UNL     O7   23   0.399   0.297   0.044
    1UNL     H1   24   0.259   0.435  -0.086
    1UNL     H2   25   0.108   0.406   0.011
    1UNL     H3   26   0.112   0.392  -0.165
    1UNL     H4   27   0.026   0.148  -0.155
    1UNL     H5   28  -0.114   0.020   0.049
    1UNL     H6   29  -0.384  -0.176   0.103
    1UNL     H7   30  -0.258   0.093   0.193
    1UNL     H8   31  -0.414   0.015   0.256
    1UNL     H9   32  -0.168  -0.118   0.263
    1UNL    H10   33  -0.388   0.084  -0.025
    1UNL    H11   34  -0.544  -0.136  -0.116
    1UNL    H12   35  -0.334  -0.159  -0.213
    1UNL    H13   36  -0.480   0.015  -0.268
    1UNL    H14   37  -0.108  -0.068  -0.234
    1UNL    H15   38  -0.206   0.139  -0.262
    1UNL    H16   39   0.176  -0.234   0.023
    1UNL    H17   40   0.404  -0.354   0.021
    1UNL    H18   41   0.483  -0.201   0.007
    1UNL    H19   42   0.360  -0.251  -0.122
    1UNL    H20   43   0.243  -0.287   0.258
    1UNL    H21   44   0.393  -0.200   0.240
    1UNL    H22   45   0.250  -0.105   0.253
    1UNL    H23   46   0.426   0.025   0.098
    1UNL    H24   47   0.464   0.275   0.116
   0.00000   0.00000   0.00000   0.00000   0.00000   0.00000   0.00000   0.00000   0.00000
Generated with MDTraj, t= 62.0
 47
    1UNL     C1    1   0.200   0.361  -0.111
    1UNL     C2    2   0.198   0.229  -0.045
    1UNL     C3    3   0.104   0.135  -0.057
    1UNL     C4    4   0.123   0.004  -0.017
    1UNL     O1    5   0.015  -0.093  -0.043
    1UNL     C5    6  -0.118  -0.050  -0.035
    1UNL     O2    7  -0.197  -0.146   0.032
    1UNL     C6    8  -0.328  -0.110   0.070
    1UNL     C7    9  -0.306  -0.027   0.202
    1UNL     O3   10  -0.225  -0.099   0.292
    1UNL     C8   11  -0.393  -0.017  -0.043
    1UNL     O4   12  -0.532  -0.041  -0.049
    1UNL     C9   13  -0.332  -0.053  -0.181
    1UNL     O5   14  -0.407   0.024  -0.276
    1UNL    C10   15  -0.178  -0.013  -0.177
    1UNL     O6   16  -0.167   0.128  -0.191
    1UNL    C11   17   0.249  -0.035   0.037
    1UNL    C12   18   0.263  -0.182   0.081
    1UNL    C13   19   0.390  -0.233   0.010
    1UNL    C14   20   0.264  -0.205   0.242
    1UNL    C15   21   0.339   0.068   0.072
    1UNL    C16   22   0.320   0.199   0.023
    1UNL     O7   23   0.428   0.295   0.029
    1UNL     H1   24   0.300   0.386  -0.152
    1UNL     H2   25   0.166   0.432  -0.045
    1UNL     H3   26   0.135   0.361  -0.204
    1UNL     H4   27   0.016   0.157  -0.106
    1UNL     H5   28  -0.128   0.034   0.032
    1UNL     H6   29  -0.384  -0.199   0.090
    1UNL     H7   30  -0.252   0.060   0.177
    1UNL     H8   31  -0.404  -0.013   0.253
    1UNL     H9   32  -0.157  -0.146   0.241
    1UNL    H10   33  -0.384   0.092  -0.026
    1UNL    H11   34  -0.546  -0.122  -0.107
    1UNL    H12   35  -0.352  -0.159  -0.224
    1UNL    H13   36  -0.498   0.056  -0.235
    1UNL    H14   37  -0.106  -0.056  -0.252
    1UNL    H15   38  -0.245   0.160  -0.241
    1UNL    H16   39   0.178  -0.234   0.026
    1UNL    H17   40   0.412  -0.345   0.023
    1UNL    H18   41   0.479  -0.189   0.059
    1UNL    H19   42   0.392  -0.213  -0.101
    1UNL    H20   43   0.337  -0.291   0.262
    1UNL    H21   44   0.300  -0.116   0.283
    1UNL    H22   45   0.164  -0.220   0.271
    1UNL    H23   46   0.434   0.045   0.116
    1UNL    H24   47   0.476   0.291   0.118
   0.00000   0.00000   0.00000   0.00000   0.00000   0.00000   0.00000   0.00000   0.00000
Generated with MDTraj, t= 63.0
 47
    1UNL     C1    1   0.201   0.369  -0.107
    1UNL     C2    2   0.212   0.233  -0.054
    1UNL     C3    3   0.111   0.145  -0.084
    1UNL     C4    4   0.118   0.014  -0.035
    1UNL     O1    5   0.021  -0.086  -0.065
    1UNL     C5    6  -0.111  -0.055  -0.041
    1UNL     O2    7  -0.190  -0.155   0.028
    1UNL     C6    8  -0.318  -0.115   0.076
    1UNL     C7    9  -0.314  -0.055   0.214
    1UNL     O3   10  -0.213  -0.130   0.291
    1UNL     C8   11  -0.391  -0.024  -0.038
    1UNL     O4   12  -0.531  -0.031  -0.027
    1UNL     C9   13  -0.334  -0.045  -0.179
    1UNL     O5   14  -0.407   0.022  -0.279
    1UNL    C10   15  -0.183  -0.003  -0.175
    1UNL     O6   16  -0.164   0.134  -0.195
    1UNL    C11   17   0.230  -0.025   0.044
    1UNL    C12   18   0.247  -0.169   0.089
    1UNL    C13   19   0.384  -0.226   0.039
    1UNL    C14   20   0.227  -0.171   0.243
    1UNL    C15   21   0.339   0.055   0.061
    1UNL    C16   22   0.329   0.195   0.018
    1UNL     O7   23   0.443   0.277   0.032
    1UNL     H1   24   0.302   0.404  -0.131
    1UNL     H2   25   0.155   0.427  -0.029
    1UNL     H3   26   0.145   0.377  -0.203
    1UNL     H4   27   0.032   0.167  -0.156
    1UNL     H5   28  -0.115   0.023   0.034
    1UNL     H6   29  -0.361  -0.212   0.086
    1UNL     H7   30  -0.278   0.042   0.199
    1UNL     H8   31  -0.419  -0.064   0.254
    1UNL     H9   32  -0.134  -0.146   0.230
    1UNL    H10   33  -0.369   0.081  -0.011
    1UNL    H11   34  -0.556  -0.116  -0.069
    1UNL    H12   35  -0.353  -0.155  -0.203
    1UNL    H13   36  -0.490  -0.019  -0.274
    1UNL    H14   37  -0.121  -0.047  -0.258
    1UNL    H15   38  -0.245   0.174  -0.233
    1UNL    H16   39   0.159  -0.222   0.036
    1UNL    H17   40   0.395  -0.341   0.061
    1UNL    H18   41   0.468  -0.179   0.096
    1UNL    H19   42   0.394  -0.210  -0.069
    1UNL    H20   43   0.180  -0.270   0.271
    1UNL    H21   44   0.324  -0.160   0.284
    1UNL    H22   45   0.168  -0.088   0.271
    1UNL    H23   46   0.421   0.020   0.124
    1UNL    H24   47   0.501   0.250   0.108
   0.00000   0.00000   0.00000   0.00000   0.00000   0.00000   0.00000   0.00000   0.00000
Generated with MDTraj, t= 64.0
 47
    1UNL     C1    1   0.184   0.380  -0.108
    1UNL     C2    2   0.213   0.234  -0.065
    1UNL     C3    3   0.126   0.137  -0.104
    1UNL     C4    4   0.131   0.007  -0.056
    1UNL     O1    5   0.031  -0.092  -0.084
    1UNL     C5    6  -0.095  -0.051  -0.050
    1UNL     O2    7  -0.170  -0.156   0.021
    1UNL     C6    8  -0.300  -0.124   0.075
    1UNL     C7    9  -0.286  -0.058   0.215
    1UNL     O3   10  -0.226  -0.154   0.303
    1UNL     C8   11  -0.381  -0.023  -0.025
    1UNL     O4   12  -0.521  -0.046  -0.018
    1UNL     C9   13  -0.336  -0.038  -0.167
    1UNL     O5   14  -0.402   0.045  -0.265
    1UNL    C10   15  -0.180   0.001  -0.175
    1UNL     O6   16  -0.153   0.135  -0.198
    1UNL    C11   17   0.243  -0.031   0.024
    1UNL    C12   18   0.222  -0.163   0.095
    1UNL    C13   19   0.337  -0.257   0.071
    1UNL    C14   20   0.187  -0.148   0.241
    1UNL    C15   21   0.339   0.061   0.052
    1UNL    C16   22   0.333   0.194   0.006
    1UNL     O7   23   0.426   0.294   0.044
    1UNL     H1   24   0.270   0.442  -0.088
    1UNL     H2   25   0.092   0.422  -0.055
    1UNL     H3   26   0.173   0.394  -0.214
    1UNL     H4   27   0.035   0.171  -0.157
    1UNL     H5   28  -0.082   0.027   0.027
    1UNL     H6   29  -0.343  -0.223   0.080
    1UNL     H7   30  -0.226   0.027   0.204
    1UNL     H8   31  -0.391  -0.038   0.251
    1UNL     H9   32  -0.146  -0.183   0.257
    1UNL    H10   33  -0.359   0.082   0.002
    1UNL    H11   34  -0.533  -0.138  -0.046
    1UNL    H12   35  -0.359  -0.141  -0.203
    1UNL    H13   36  -0.504   0.030  -0.256
    1UNL    H14   37  -0.137  -0.054  -0.262
    1UNL    H15   38  -0.233   0.191  -0.220
    1UNL    H16   39   0.125  -0.206   0.049
    1UNL    H17   40   0.324  -0.356   0.128
    1UNL    H18   41   0.429  -0.206   0.114
    1UNL    H19   42   0.341  -0.274  -0.038
    1UNL    H20   43   0.196  -0.240   0.296
    1UNL    H21   44   0.246  -0.073   0.291
    1UNL    H22   45   0.085  -0.117   0.264
    1UNL    H23   46   0.415   0.045   0.124
    1UNL    H24   47   0.505   0.259   0.089
   0.00000   0.00000   0.00000   0.00000   0.00000   0.00000   0.00000   0.00000   0.00000
Generated with MDTraj, t= 65.0
 47
    1UNL     C1    1   0.219   0.366  -0.140
    1UNL     C2    2   0.218   0.226  -0.077
    1UNL     C3    3   0.121   0.136  -0.111
    1UNL     C4    4   0.132   0.005  -0.066
    1UNL     O1    5   0.037  -0.089  -0.108
    1UNL     C5    6  -0.095  -0.057  -0.068
    1UNL     O2    7  -0.168  -0.161   0.004
    1UNL     C6    8  -0.291  -0.128   0.063
    1UNL     C7    9  -0.263  -0.074   0.208
    1UNL     O3   10  -0.202  -0.164   0.294
    1UNL     C8   11  -0.376  -0.018  -0.025
    1UNL     O4   12  -0.524  -0.039  -0.009
    1UNL     C9   13  -0.344  -0.033  -0.165
    1UNL     O5   14  -0.420   0.063  -0.240
    1UNL    C10   15  -0.186  -0.001  -0.180
    1UNL     O6   16  -0.166   0.135  -0.198
    1UNL    C11   17   0.226  -0.025   0.035
    1UNL    C12   18   0.221  -0.162   0.107
    1UNL    C13   19   0.351  -0.239   0.097
    1UNL    C14   20   0.175  -0.149   0.255
    1UNL    C15   21   0.321   0.068   0.071
    1UNL    C16   22   0.320   0.196   0.015
    1UNL     O7   23   0.412   0.289   0.062
    1UNL     H1   24   0.296   0.426  -0.092
    1UNL     H2   25   0.117   0.420  -0.130
    1UNL     H3   26   0.249   0.370  -0.241
    1UNL     H4   27   0.048   0.152  -0.183
    1UNL     H5   28  -0.083   0.025   0.006
    1UNL     H6   29  -0.343  -0.226   0.066
    1UNL     H7   30  -0.205   0.014   0.212
    1UNL     H8   31  -0.364  -0.055   0.256
    1UNL     H9   32  -0.120  -0.194   0.245
    1UNL    H10   33  -0.350   0.083   0.011
    1UNL    H11   34  -0.556  -0.122  -0.047
    1UNL    H12   35  -0.373  -0.133  -0.201
    1UNL    H13   36  -0.510   0.082  -0.193
    1UNL    H14   37  -0.155  -0.052  -0.272
    1UNL    H15   38  -0.244   0.176  -0.240
    1UNL    H16   39   0.132  -0.215   0.062
    1UNL    H17   40   0.344  -0.330   0.160
    1UNL    H18   41   0.434  -0.177   0.150
    1UNL    H19   42   0.380  -0.266  -0.008
    1UNL    H20   43   0.160  -0.238   0.306
    1UNL    H21   44   0.242  -0.088   0.316
    1UNL    H22   45   0.081  -0.095   0.284
    1UNL    H23   46   0.387   0.043   0.156
    1UNL    H24   47   0.494   0.243   0.077
   0.00000   0.00000   0.00000   0.00000   0.00000   0.00000   0.00000   0.00000   0.00000
Generated with MDTraj, t= 66.0
 47
    1UNL     C1    1   0.253   0.351  -0.166
    1UNL     C2    2   0.231   0.223  -0.094
    1UNL     C3    3   0.131   0.136  -0.125
    1UNL     C4    4   0.118   0.017  -0.055
    1UNL     O1    5   0.033  -0.084  -0.093
    1UNL     C5    6  -0.105  -0.066  -0.066
    1UNL     O2    7  -0.180  -0.166   0.002
    1UNL     C6    8  -0.297  -0.129   0.070
    1UNL     C7    9  -0.254  -0.097   0.212
    1UNL     O3   10  -0.150  -0.186   0.251
    1UNL     C8   11  -0.380  -0.015  -0.011
    1UNL     O4   12  -0.530  -0.015  -0.000
    1UNL     C9   13  -0.344  -0.027  -0.154
    1UNL     O5   14  -0.413   0.062  -0.237
    1UNL    C10   15  -0.184  -0.004  -0.182
    1UNL     O6   16  -0.159   0.131  -0.201
    1UNL    C11   17   0.207  -0.017   0.052
    1UNL    C12   18   0.210  -0.163   0.111
    1UNL    C13   19   0.348  -0.216   0.100
    1UNL    C14   20   0.155  -0.159   0.257
    1UNL    C15   21   0.303   0.080   0.090
    1UNL    C16   22   0.310   0.196   0.019
    1UNL     O7   23   0.394   0.293   0.064
    1UNL     H1   24   0.317   0.421  -0.109
    1UNL     H2   25   0.157   0.398  -0.190
    1UNL     H3   26   0.308   0.335  -0.259
    1UNL     H4   27   0.069   0.144  -0.217
    1UNL     H5   28  -0.099   0.019   0.008
    1UNL     H6   29  -0.347  -0.229   0.070
    1UNL     H7   30  -0.215   0.001   0.224
    1UNL     H8   31  -0.336  -0.107   0.292
    1UNL     H9   32  -0.107  -0.218   0.170
    1UNL    H10   33  -0.338   0.080   0.027
    1UNL    H11   34  -0.568  -0.092  -0.051
    1UNL    H12   35  -0.371  -0.127  -0.183
    1UNL    H13   36  -0.468   0.114  -0.186
    1UNL    H14   37  -0.161  -0.057  -0.275
    1UNL    H15   38  -0.232   0.165  -0.261
    1UNL    H16   39   0.131  -0.220   0.058
    1UNL    H17   40   0.365  -0.323   0.117
    1UNL    H18   41   0.419  -0.165   0.172
    1UNL    H19   42   0.383  -0.192  -0.008
    1UNL    H20   43   0.116  -0.249   0.289
    1UNL    H21   44   0.228  -0.116   0.327
    1UNL    H22   45   0.074  -0.083   0.272
    1UNL    H23   46   0.378   0.063   0.161
    1UNL    H24   47   0.471   0.253   0.110
   0.00000   0.00000   0.00000   0.00000   0.00000   0.00000   0.00000   0.00000   0.00000
Generated with MDTraj, t= 67.0
 47
    1UNL     C1    1   0.238   0.348  -0.172
    1UNL     C2    2   0.225   0.217  -0.096
    1UNL     C3    3   0.129   0.117  -0.128
    1UNL     C4    4   0.126   0.000  -0.059
    1UNL     O1    5   0.040  -0.095  -0.116
    1UNL     C5    6  -0.094  -0.065  -0.077
    1UNL     O2    7  -0.170  -0.171  -0.025
    1UNL     C6    8  -0.285  -0.143   0.054
    1UNL     C7    9  -0.252  -0.095   0.199
    1UNL     O3   10  -0.162  -0.191   0.260
    1UNL     C8   11  -0.363  -0.022  -0.010
    1UNL     O4   12  -0.499  -0.019   0.037
    1UNL     C9   13  -0.344  -0.020  -0.164
    1UNL     O5   14  -0.401   0.088  -0.220
    1UNL    C10   15  -0.180  -0.001  -0.192
    1UNL     O6   16  -0.153   0.134  -0.195
    1UNL    C11   17   0.204  -0.021   0.051
    1UNL    C12   18   0.192  -0.150   0.126
    1UNL    C13   19   0.326  -0.229   0.106
    1UNL    C14   20   0.149  -0.132   0.279
    1UNL    C15   21   0.288   0.081   0.088
    1UNL    C16   22   0.301   0.201   0.021
    1UNL     O7   23   0.386   0.303   0.059
    1UNL     H1   24   0.296   0.424  -0.113
    1UNL     H2   25   0.144   0.386  -0.200
    1UNL     H3   26   0.296   0.335  -0.267
    1UNL     H4   27   0.061   0.131  -0.208
    1UNL     H5   28  -0.081   0.008   0.009
    1UNL     H6   29  -0.356  -0.231   0.042
    1UNL     H7   30  -0.201  -0.002   0.193
    1UNL     H8   31  -0.344  -0.074   0.265
    1UNL     H9   32  -0.154  -0.273   0.205
    1UNL    H10   33  -0.320   0.079   0.012
    1UNL    H11   34  -0.542  -0.105   0.008
    1UNL    H12   35  -0.381  -0.107  -0.210
    1UNL    H13   36  -0.479   0.112  -0.157
    1UNL    H14   37  -0.144  -0.043  -0.285
    1UNL    H15   38  -0.234   0.185  -0.207
    1UNL    H16   39   0.108  -0.204   0.081
    1UNL    H17   40   0.333  -0.333   0.145
    1UNL    H18   41   0.417  -0.177   0.145
    1UNL    H19   42   0.336  -0.234  -0.011
    1UNL    H20   43   0.154  -0.230   0.324
    1UNL    H21   44   0.209  -0.052   0.321
    1UNL    H22   45   0.047  -0.094   0.289
    1UNL    H23   46   0.347   0.067   0.181
    1UNL    H24   47   0.435   0.276   0.142
   0.00000   0.00000   0.00000   0.00000   0.00000   0.00000   0.00000   0.00000   0.00000
Generated with MDTraj, t= 68.0
 47
    1UNL     C1    1   0.218   0.350  -0.162
    1UNL     C2    2   0.224   0.218  -0.100
    1UNL     C3    3   0.146   0.112  -0.152
    1UNL     C4    4   0.131  -0.004  -0.081
    1UNL     O1    5   0.038  -0.104  -0.114
    1UNL     C5    6  -0.090  -0.068  -0.066
    1UNL     O2    7  -0.166  -0.172  -0.005
    1UNL     C6    8  -0.280  -0.134   0.068
    1UNL     C7    9  -0.234  -0.102   0.211
    1UNL     O3   10  -0.176  -0.227   0.251
    1UNL     C8   11  -0.360  -0.014   0.003
    1UNL     O4   12  -0.500  -0.032   0.026
    1UNL     C9   13  -0.330  -0.008  -0.156
    1UNL     O5   14  -0.383   0.096  -0.217
    1UNL    C10   15  -0.169   0.005  -0.182
    1UNL     O6   16  -0.135   0.139  -0.204
    1UNL    C11   17   0.206  -0.020   0.032
    1UNL    C12   18   0.178  -0.136   0.121
    1UNL    C13   19   0.285  -0.241   0.113
    1UNL    C14   20   0.147  -0.098   0.269
    1UNL    C15   21   0.291   0.077   0.081
    1UNL    C16   22   0.291   0.202   0.020
    1UNL     O7   23   0.376   0.306   0.061
    1UNL     H1   24   0.276   0.427  -0.107
    1UNL     H2   25   0.117   0.376  -0.172
    1UNL     H3   26   0.253   0.340  -0.269
    1UNL     H4   27   0.095   0.134  -0.244
    1UNL     H5   28  -0.074   0.007   0.019
    1UNL     H6   29  -0.349  -0.225   0.077
    1UNL     H7   30  -0.162  -0.022   0.218
    1UNL     H8   31  -0.323  -0.074   0.278
    1UNL     H9   32  -0.148  -0.290   0.179
    1UNL    H10   33  -0.326   0.082   0.050
    1UNL    H11   34  -0.523  -0.123  -0.007
    1UNL    H12   35  -0.369  -0.096  -0.200
    1UNL    H13   36  -0.467   0.115  -0.163
    1UNL    H14   37  -0.141  -0.034  -0.279
    1UNL    H15   38  -0.221   0.191  -0.204
    1UNL    H16   39   0.093  -0.188   0.079
    1UNL    H17   40   0.262  -0.328   0.183
    1UNL    H18   41   0.389  -0.209   0.143
    1UNL    H19   42   0.279  -0.274   0.006
    1UNL    H20   43   0.075  -0.170   0.320
    1UNL    H21   44   0.232  -0.060   0.323
    1UNL    H22   45   0.093  -0.009   0.257
    1UNL    H23   46   0.341   0.053   0.172
    1UNL    H24   47   0.392   0.303   0.161
   0.00000   0.00000   0.00000   0.00000   0.00000   0.00000   0.00000   0.00000   0.00000
Generated with MDTraj, t= 69.0
 47
    1UNL     C1    1   0.245   0.345  -0.185
    1UNL     C2    2   0.226   0.228  -0.102
    1UNL     C3    3   0.151   0.118  -0.143
    1UNL     C4    4   0.127   0.002  -0.074
    1UNL     O1    5   0.037  -0.101  -0.120
    1UNL     C5    6  -0.091  -0.076  -0.070
    1UNL     O2    7  -0.162  -0.184  -0.010
    1UNL     C6    8  -0.281  -0.156   0.055
    1UNL     C7    9  -0.259  -0.127   0.206
    1UNL     O3   10  -0.172  -0.224   0.252
    1UNL     C8   11  -0.347  -0.029  -0.005
    1UNL     O4   12  -0.481  -0.006   0.025
    1UNL     C9   13  -0.328  -0.016  -0.157
    1UNL     O5   14  -0.396   0.097  -0.200
    1UNL    C10   15  -0.171   0.005  -0.174
    1UNL     O6   16  -0.150   0.144  -0.193
    1UNL    C11   17   0.195  -0.010   0.044
    1UNL    C12   18   0.163  -0.134   0.121
    1UNL    C13   19   0.281  -0.239   0.118
    1UNL    C14   20   0.145  -0.104   0.271
    1UNL    C15   21   0.277   0.093   0.091
    1UNL    C16   22   0.297   0.209   0.019
    1UNL     O7   23   0.392   0.309   0.049
    1UNL     H1   24   0.334   0.401  -0.156
    1UNL     H2   25   0.156   0.412  -0.187
    1UNL     H3   26   0.252   0.313  -0.291
    1UNL     H4   27   0.113   0.115  -0.247
    1UNL     H5   28  -0.070  -0.018   0.027
    1UNL     H6   29  -0.344  -0.250   0.045
    1UNL     H7   30  -0.214  -0.031   0.215
    1UNL     H8   31  -0.355  -0.125   0.268
    1UNL     H9   32  -0.132  -0.273   0.176
    1UNL    H10   33  -0.294   0.055   0.044
    1UNL    H11   34  -0.539  -0.076  -0.008
    1UNL    H12   35  -0.365  -0.094  -0.220
    1UNL    H13   36  -0.457   0.129  -0.138
    1UNL    H14   37  -0.136  -0.032  -0.270
    1UNL    H15   38  -0.234   0.187  -0.173
    1UNL    H16   39   0.086  -0.190   0.070
    1UNL    H17   40   0.252  -0.344   0.165
    1UNL    H18   41   0.370  -0.214   0.182
    1UNL    H19   42   0.315  -0.250   0.015
    1UNL    H20   43   0.116  -0.198   0.329
    1UNL    H21   44   0.226  -0.048   0.313
    1UNL    H22   45   0.071  -0.035   0.297
    1UNL    H23   46   0.342   0.070   0.174
    1UNL    H24   47   0.391   0.339   0.143
   0.00000   0.00000   0.00000   0.00000   0.00000   0.00000   0.00000   0.00000   0.00000
Generated with MDTraj, t= 70.0
 47
    1UNL     C1    1   0.285   0.324  -0.201
    1UNL     C2    2   0.248   0.216  -0.106
    1UNL     C3    3   0.156   0.123  -0.151
    1UNL     C4    4   0.128   0.007  -0.072
    1UNL     O1    5   0.024  -0.087  -0.111
    1UNL     C5    6  -0.104  -0.063  -0.062
    1UNL     O2    7  -0.182  -0.179  -0.021
    1UNL     C6    8  -0.295  -0.149   0.059
    1UNL     C7    9  -0.234  -0.137   0.206
    1UNL     O3   10  -0.170  -0.258   0.231
    1UNL     C8   11  -0.363  -0.018   0.002
    1UNL     O4   12  -0.502  -0.019   0.021
    1UNL     C9   13  -0.339  -0.014  -0.148
    1UNL     O5   14  -0.413   0.086  -0.206
    1UNL    C10   15  -0.182   0.006  -0.175
    1UNL     O6   16  -0.160   0.147  -0.194
    1UNL    C11   17   0.192  -0.003   0.053
    1UNL    C12   18   0.176  -0.127   0.135
    1UNL    C13   19   0.304  -0.209   0.124
    1UNL    C14   20   0.148  -0.108   0.282
    1UNL    C15   21   0.274   0.102   0.096
    1UNL    C16   22   0.308   0.214   0.019
    1UNL     O7   23   0.406   0.306   0.052
    1UNL     H1   24   0.381   0.365  -0.171
    1UNL     H2   25   0.207   0.412  -0.203
    1UNL     H3   26   0.286   0.294  -0.304
    1UNL     H4   27   0.136   0.117  -0.252
    1UNL     H5   28  -0.091  -0.000   0.031
    1UNL     H6   29  -0.356  -0.240   0.040
    1UNL     H7   30  -0.161  -0.058   0.203
    1UNL     H8   31  -0.315  -0.105   0.279
    1UNL     H9   32  -0.148  -0.296   0.143
    1UNL    H10   33  -0.308   0.066   0.053
    1UNL    H11   34  -0.543  -0.095  -0.022
    1UNL    H12   35  -0.377  -0.105  -0.195
    1UNL    H13   36  -0.485   0.122  -0.143
    1UNL    H14   37  -0.146  -0.040  -0.267
    1UNL    H15   38  -0.252   0.186  -0.209
    1UNL    H16   39   0.101  -0.187   0.083
    1UNL    H17   40   0.303  -0.308   0.185
    1UNL    H18   41   0.402  -0.168   0.164
    1UNL    H19   42   0.321  -0.229   0.017
    1UNL    H20   43   0.130  -0.211   0.328
    1UNL    H21   44   0.206  -0.038   0.338
    1UNL    H22   45   0.052  -0.064   0.298
    1UNL    H23   46   0.309   0.097   0.200
    1UNL    H24   47   0.409   0.304   0.148
   0.00000   0.00000   0.00000   0.00000   0.00000   0.00000   0.00000   0.00000   0.00000
Generated with MDTraj, t= 71.0
 47
    1UNL     C1    1   0.284   0.329  -0.210
    1UNL     C2    2   0.251   0.216  -0.115
    1UNL     C3    3   0.161   0.122  -0.152
    1UNL     C4    4   0.125   0.022  -0.067
    1UNL     O1    5   0.032  -0.071  -0.119
    1UNL     C5    6  -0.098  -0.059  -0.070
    1UNL     O2    7  -0.165  -0.180  -0.020
    1UNL     C6    8  -0.290  -0.163   0.046
    1UNL     C7    9  -0.274  -0.150   0.198
    1UNL     O3   10  -0.174  -0.236   0.245
    1UNL     C8   11  -0.370  -0.035  -0.000
    1UNL     O4   12  -0.513  -0.050   0.033
    1UNL     C9   13  -0.337  -0.009  -0.148
    1UNL     O5   14  -0.407   0.097  -0.198
    1UNL    C10   15  -0.185   0.019  -0.173
    1UNL     O6   16  -0.156   0.155  -0.174
    1UNL    C11   17   0.199  -0.004   0.049
    1UNL    C12   18   0.179  -0.129   0.133
    1UNL    C13   19   0.305  -0.216   0.137
    1UNL    C14   20   0.126  -0.092   0.278
    1UNL    C15   21   0.290   0.092   0.087
    1UNL    C16   22   0.318   0.201   0.007
    1UNL     O7   23   0.412   0.300   0.051
    1UNL     H1   24   0.365   0.388  -0.162
    1UNL     H2   25   0.196   0.399  -0.237
    1UNL     H3   26   0.314   0.296  -0.307
    1UNL     H4   27   0.113   0.116  -0.254
    1UNL     H5   28  -0.090   0.012   0.016
    1UNL     H6   29  -0.335  -0.257   0.013
    1UNL     H7   30  -0.260  -0.046   0.224
    1UNL     H8   31  -0.375  -0.175   0.245
    1UNL     H9   32  -0.135  -0.280   0.165
    1UNL    H10   33  -0.325   0.047   0.062
    1UNL    H11   34  -0.550  -0.131  -0.010
    1UNL    H12   35  -0.383  -0.099  -0.197
    1UNL    H13   36  -0.505   0.095  -0.162
    1UNL    H14   37  -0.153  -0.010  -0.275
    1UNL    H15   38  -0.237   0.203  -0.197
    1UNL    H16   39   0.099  -0.191   0.089
    1UNL    H17   40   0.285  -0.290   0.218
    1UNL    H18   41   0.401  -0.172   0.180
    1UNL    H19   42   0.332  -0.263   0.038
    1UNL    H20   43   0.071  -0.182   0.310
    1UNL    H21   44   0.193  -0.051   0.349
    1UNL    H22   45   0.046  -0.018   0.269
    1UNL    H23   46   0.335   0.102   0.180
    1UNL    H24   47   0.440   0.282   0.141
   0.00000   0.00000   0.00000   0.00000   0.00000   0.00000   0.00000   0.00000   0.00000
Generated with MDTraj, t= 72.0
 47
    1UNL     C1    1   0.262   0.350  -0.197
    1UNL     C2    2   0.250   0.225  -0.119
    1UNL     C3    3   0.147   0.136  -0.148
    1UNL     C4    4   0.125   0.019  -0.070
    1UNL     O1    5   0.037  -0.077  -0.121
    1UNL     C5    6  -0.088  -0.059  -0.061
    1UNL     O2    7  -0.168  -0.178  -0.025
    1UNL     C6    8  -0.282  -0.158   0.058
    1UNL     C7    9  -0.258  -0.143   0.205
    1UNL     O3   10  -0.176  -0.249   0.250
    1UNL     C8   11  -0.371  -0.036  -0.000
    1UNL     O4   12  -0.517  -0.068   0.011
    1UNL     C9   13  -0.327  -0.011  -0.146
    1UNL     O5   14  -0.399   0.095  -0.203
    1UNL    C10   15  -0.175   0.028  -0.156
    1UNL     O6   16  -0.150   0.157  -0.139
    1UNL    C11   17   0.203  -0.009   0.044
    1UNL    C12   18   0.157  -0.128   0.132
    1UNL    C13   19   0.282  -0.219   0.155
    1UNL    C14   20   0.097  -0.070   0.259
    1UNL    C15   21   0.307   0.077   0.074
    1UNL    C16   22   0.333   0.195  -0.008
    1UNL     O7   23   0.420   0.286   0.032
    1UNL     H1   24   0.299   0.429  -0.125
    1UNL     H2   25   0.169   0.379  -0.245
    1UNL     H3   26   0.334   0.339  -0.280
    1UNL     H4   27   0.096   0.145  -0.238
    1UNL     H5   28  -0.067  -0.006   0.035
    1UNL     H6   29  -0.335  -0.250   0.039
    1UNL     H7   30  -0.206  -0.049   0.221
    1UNL     H8   31  -0.352  -0.123   0.264
    1UNL     H9   32  -0.120  -0.270   0.172
    1UNL    H10   33  -0.350   0.063   0.048
    1UNL    H11   34  -0.534  -0.149  -0.047
    1UNL    H12   35  -0.361  -0.100  -0.209
    1UNL    H13   36  -0.490   0.079  -0.211
    1UNL    H14   37  -0.132   0.002  -0.256
    1UNL    H15   38  -0.218   0.211  -0.189
    1UNL    H16   39   0.073  -0.186   0.087
    1UNL    H17   40   0.247  -0.319   0.176
    1UNL    H18   41   0.349  -0.201   0.245
    1UNL    H19   42   0.342  -0.206   0.055
    1UNL    H20   43   0.063  -0.149   0.320
    1UNL    H21   44   0.170  -0.009   0.306
    1UNL    H22   45   0.012  -0.001   0.235
    1UNL    H23   46   0.356   0.076   0.174
    1UNL    H24   47   0.477   0.235   0.095
   0.00000   0.00000   0.00000   0.00000   0.00000   0.00000   0.00000   0.00000   0.00000
Generated with MDTraj, t= 73.0
 47
    1UNL     C1    1   0.262   0.343  -0.188
    1UNL     C2    2   0.252   0.210  -0.117
    1UNL     C3    3   0.146   0.129  -0.148
    1UNL     C4    4   0.132   0.007  -0.078
    1UNL     O1    5   0.036  -0.086  -0.126
    1UNL     C5    6  -0.094  -0.060  -0.071
    1UNL     O2    7  -0.167  -0.180  -0.030
    1UNL     C6    8  -0.285  -0.163   0.046
    1UNL     C7    9  -0.249  -0.136   0.194
    1UNL     O3   10  -0.175  -0.245   0.249
    1UNL     C8   11  -0.373  -0.037  -0.007
    1UNL     O4   12  -0.517  -0.053  -0.008
    1UNL     C9   13  -0.336  -0.011  -0.150
    1UNL     O5   14  -0.412   0.089  -0.205
    1UNL    C10   15  -0.187   0.031  -0.154
    1UNL     O6   16  -0.177   0.158  -0.107
    1UNL    C11   17   0.208  -0.006   0.040
    1UNL    C12   18   0.173  -0.119   0.136
    1UNL    C13   19   0.297  -0.212   0.167
    1UNL    C14   20   0.106  -0.071   0.271
    1UNL    C15   21   0.306   0.081   0.078
    1UNL    C16   22   0.332   0.189  -0.003
    1UNL     O7   23   0.432   0.289   0.029
    1UNL     H1   24   0.283   0.420  -0.107
    1UNL     H2   25   0.178   0.373  -0.241
    1UNL     H3   26   0.346   0.344  -0.266
    1UNL     H4   27   0.096   0.142  -0.245
    1UNL     H5   28  -0.075   0.002   0.019
    1UNL     H6   29  -0.334  -0.257   0.052
    1UNL     H7   30  -0.202  -0.041   0.219
    1UNL     H8   31  -0.340  -0.121   0.258
    1UNL     H9   32  -0.104  -0.268   0.186
    1UNL    H10   33  -0.346   0.053   0.053
    1UNL    H11   34  -0.534  -0.128  -0.072
    1UNL    H12   35  -0.366  -0.111  -0.200
    1UNL    H13   36  -0.509   0.086  -0.177
    1UNL    H14   37  -0.144   0.032  -0.258
    1UNL    H15   38  -0.231   0.215  -0.166
    1UNL    H16   39   0.086  -0.178   0.095
    1UNL    H17   40   0.275  -0.250   0.265
    1UNL    H18   41   0.397  -0.161   0.174
    1UNL    H19   42   0.304  -0.289   0.079
    1UNL    H20   43   0.075  -0.150   0.328
    1UNL    H21   44   0.171  -0.009   0.331
    1UNL    H22   45   0.021  -0.000   0.250
    1UNL    H23   46   0.353   0.078   0.171
    1UNL    H24   47   0.527   0.262   0.051
   0.00000   0.00000   0.00000   0.00000   0.00000   0.00000   0.00000   0.00000   0.00000
Generated with MDTraj, t= 74.0
 47
    1UNL     C1    1   0.282   0.322  -0.213
    1UNL     C2    2   0.254   0.211  -0.118
    1UNL     C3    3   0.148   0.125  -0.142
    1UNL     C4    4   0.122   0.013  -0.060
    1UNL     O1    5   0.030  -0.089  -0.106
    1UNL     C5    6  -0.099  -0.065  -0.055
    1UNL     O2    7  -0.171  -0.181  -0.014
    1UNL     C6    8  -0.296  -0.162   0.047
    1UNL     C7    9  -0.271  -0.155   0.204
    1UNL     O3   10  -0.155  -0.226   0.240
    1UNL     C8   11  -0.381  -0.042  -0.015
    1UNL     O4   12  -0.523  -0.064  -0.020
    1UNL     C9   13  -0.338  -0.006  -0.153
    1UNL     O5   14  -0.412   0.099  -0.207
    1UNL    C10   15  -0.180   0.033  -0.144
    1UNL     O6   16  -0.172   0.173  -0.120
    1UNL    C11   17   0.211  -0.003   0.049
    1UNL    C12   18   0.180  -0.123   0.133
    1UNL    C13   19   0.300  -0.215   0.140
    1UNL    C14   20   0.129  -0.089   0.273
    1UNL    C15   21   0.307   0.089   0.086
    1UNL    C16   22   0.332   0.201   0.003
    1UNL     O7   23   0.416   0.306   0.029
    1UNL     H1   24   0.340   0.401  -0.162
    1UNL     H2   25   0.194   0.365  -0.256
    1UNL     H3   26   0.340   0.281  -0.303
    1UNL     H4   27   0.094   0.131  -0.238
    1UNL     H5   28  -0.086  -0.005   0.036
    1UNL     H6   29  -0.350  -0.253   0.025
    1UNL     H7   30  -0.270  -0.051   0.237
    1UNL     H8   31  -0.357  -0.187   0.265
    1UNL     H9   32  -0.117  -0.265   0.157
    1UNL    H10   33  -0.374   0.057   0.037
    1UNL    H11   34  -0.550  -0.126  -0.090
    1UNL    H12   35  -0.364  -0.098  -0.218
    1UNL    H13   36  -0.514   0.105  -0.183
    1UNL    H14   37  -0.130   0.015  -0.244
    1UNL    H15   38  -0.245   0.208  -0.178
    1UNL    H16   39   0.092  -0.173   0.082
    1UNL    H17   40   0.272  -0.321   0.159
    1UNL    H18   41   0.360  -0.191   0.231
    1UNL    H19   42   0.370  -0.195   0.052
    1UNL    H20   43   0.092  -0.169   0.329
    1UNL    H21   44   0.198  -0.038   0.342
    1UNL    H22   45   0.053  -0.013   0.256
    1UNL    H23   46   0.372   0.058   0.167
    1UNL    H24   47   0.491   0.275   0.088
   0.00000   0.00000   0.00000   0.00000   0.00000   0.00000   0.00000   0.00000   0.00000
Generated with MDTraj, t= 75.0
 47
    1UNL     C1    1   0.277   0.321  -0.211
    1UNL     C2    2   0.248   0.208  -0.116
    1UNL     C3    3   0.148   0.117  -0.145
    1UNL     C4    4   0.123   0.008  -0.064
    1UNL     O1    5   0.029  -0.091  -0.105
    1UNL     C5    6  -0.104  -0.069  -0.054
    1UNL     O2    7  -0.180  -0.185  -0.020
    1UNL     C6    8  -0.297  -0.158   0.050
    1UNL     C7    9  -0.260  -0.127   0.197
    1UNL     O3   10  -0.179  -0.225   0.244
    1UNL     C8   11  -0.384  -0.045  -0.015
    1UNL     O4   12  -0.520  -0.084  -0.015
    1UNL     C9   13  -0.340   0.006  -0.157
    1UNL     O5   14  -0.400   0.114  -0.206
    1UNL    C10   15  -0.177   0.030  -0.152
    1UNL     O6   16  -0.153   0.164  -0.122
    1UNL    C11   17   0.194  -0.003   0.053
    1UNL    C12   18   0.181  -0.126   0.139
    1UNL    C13   19   0.319  -0.196   0.116
    1UNL    C14   20   0.145  -0.097   0.285
    1UNL    C15   21   0.291   0.092   0.091
    1UNL    C16   22   0.309   0.204   0.010
    1UNL     O7   23   0.422   0.296   0.031
    1UNL     H1   24   0.361   0.382  -0.178
    1UNL     H2   25   0.185   0.389  -0.224
    1UNL     H3   26   0.298   0.280  -0.313
    1UNL     H4   27   0.108   0.111  -0.240
    1UNL     H5   28  -0.087  -0.014   0.038
    1UNL     H6   29  -0.351  -0.254   0.046
    1UNL     H7   30  -0.208  -0.032   0.201
    1UNL     H8   31  -0.347  -0.103   0.259
    1UNL     H9   32  -0.133  -0.272   0.171
    1UNL    H10   33  -0.369   0.051   0.040
    1UNL    H11   34  -0.524  -0.155  -0.079
    1UNL    H12   35  -0.365  -0.082  -0.222
    1UNL    H13   36  -0.494   0.115  -0.196
    1UNL    H14   37  -0.128  -0.002  -0.249
    1UNL    H15   38  -0.211   0.206  -0.189
    1UNL    H16   39   0.095  -0.185   0.094
    1UNL    H17   40   0.351  -0.282   0.184
    1UNL    H18   41   0.401  -0.122   0.129
    1UNL    H19   42   0.332  -0.226   0.011
    1UNL    H20   43   0.147  -0.190   0.341
    1UNL    H21   44   0.222  -0.035   0.332
    1UNL    H22   45   0.061  -0.038   0.301
    1UNL    H23   46   0.343   0.088   0.187
    1UNL    H24   47   0.459   0.289   0.121
   0.00000   0.00000   0.00000   0.00000   0.00000   0.00000   0.00000   0.00000   0.00000
Generated with MDTraj, t= 76.0
 47
    1UNL     C1    1   0.246   0.329  -0.204
    1UNL     C2    2   0.230   0.213  -0.113
    1UNL     C3    3   0.147   0.106  -0.154
    1UNL     C4    4   0.130   0.004  -0.066
    1UNL     O1    5   0.035  -0.096  -0.104
    1UNL     C5    6  -0.090  -0.064  -0.047
    1UNL     O2    7  -0.170  -0.178  -0.022
    1UNL     C6    8  -0.294  -0.158   0.045
    1UNL     C7    9  -0.271  -0.123   0.191
    1UNL     O3   10  -0.190  -0.218   0.248
    1UNL     C8   11  -0.371  -0.037  -0.015
    1UNL     O4   12  -0.511  -0.056  -0.004
    1UNL     C9   13  -0.328  -0.002  -0.160
    1UNL     O5   14  -0.395   0.101  -0.213
    1UNL    C10   15  -0.169   0.027  -0.150
    1UNL     O6   16  -0.154   0.160  -0.121
    1UNL    C11   17   0.216  -0.013   0.050
    1UNL    C12   18   0.193  -0.134   0.138
    1UNL    C13   19   0.302  -0.237   0.127
    1UNL    C14   20   0.150  -0.100   0.282
    1UNL    C15   21   0.302   0.091   0.079
    1UNL    C16   22   0.304   0.210   0.006
    1UNL     O7   23   0.398   0.318   0.033
    1UNL     H1   24   0.340   0.380  -0.187
    1UNL     H2   25   0.163   0.411  -0.188
    1UNL     H3   26   0.242   0.294  -0.307
    1UNL     H4   27   0.106   0.099  -0.260
    1UNL     H5   28  -0.072  -0.005   0.042
    1UNL     H6   29  -0.350  -0.254   0.035
    1UNL     H7   30  -0.226  -0.024   0.203
    1UNL     H8   31  -0.366  -0.110   0.244
    1UNL     H9   32  -0.130  -0.257   0.179
    1UNL    H10   33  -0.353   0.059   0.041
    1UNL    H11   34  -0.539  -0.132  -0.060
    1UNL    H12   35  -0.362  -0.088  -0.221
    1UNL    H13   36  -0.479   0.111  -0.163
    1UNL    H14   37  -0.123   0.022  -0.252
    1UNL    H15   38  -0.220   0.208  -0.179
    1UNL    H16   39   0.105  -0.187   0.089
    1UNL    H17   40   0.296  -0.332   0.197
    1UNL    H18   41   0.395  -0.185   0.160
    1UNL    H19   42   0.324  -0.272   0.027
    1UNL    H20   43   0.127  -0.192   0.340
    1UNL    H21   44   0.229  -0.047   0.332
    1UNL    H22   45   0.080  -0.025   0.274
    1UNL    H23   46   0.361   0.081   0.164
    1UNL    H24   47   0.402   0.329   0.128
   0.00000   0.00000   0.00000   0.00000   0.00000   0.00000   0.00000   0.00000   0.00000
Generated with MDTraj, t= 77.0
 47
    1UNL     C1    1   0.228   0.351  -0.186
    1UNL     C2    2   0.219   0.224  -0.109
    1UNL     C3    3   0.140   0.114  -0.155
    1UNL     C4    4   0.128  -0.000  -0.075
    1UNL     O1    5   0.035  -0.103  -0.104
    1UNL     C5    6  -0.092  -0.068  -0.050
    1UNL     O2    7  -0.176  -0.184  -0.005
    1UNL     C6    8  -0.299  -0.146   0.060
    1UNL     C7    9  -0.271  -0.126   0.208
    1UNL     O3   10  -0.179  -0.232   0.245
    1UNL     C8   11  -0.365  -0.022  -0.009
    1UNL     O4   12  -0.513  -0.019  -0.012
    1UNL     C9   13  -0.315  -0.016  -0.155
    1UNL     O5   14  -0.380   0.083  -0.227
    1UNL    C10   15  -0.162   0.018  -0.153
    1UNL     O6   16  -0.138   0.155  -0.139
    1UNL    C11   17   0.206  -0.019   0.037
    1UNL    C12   18   0.183  -0.137   0.126
    1UNL    C13   19   0.308  -0.224   0.127
    1UNL    C14   20   0.159  -0.090   0.272
    1UNL    C15   21   0.287   0.084   0.080
    1UNL    C16   22   0.297   0.201   0.005
    1UNL     O7   23   0.392   0.298   0.038
    1UNL     H1   24   0.318   0.412  -0.159
    1UNL     H2   25   0.144   0.425  -0.170
    1UNL     H3   26   0.236   0.329  -0.293
    1UNL     H4   27   0.109   0.114  -0.256
    1UNL     H5   28  -0.058  -0.025   0.042
    1UNL     H6   29  -0.362  -0.241   0.056
    1UNL     H7   30  -0.229  -0.026   0.229
    1UNL     H8   31  -0.357  -0.129   0.274
    1UNL     H9   32  -0.141  -0.269   0.163
    1UNL    H10   33  -0.327   0.073   0.038
    1UNL    H11   34  -0.544  -0.105  -0.054
    1UNL    H12   35  -0.335  -0.106  -0.211
    1UNL    H13   36  -0.464   0.121  -0.175
    1UNL    H14   37  -0.108  -0.001  -0.247
    1UNL    H15   38  -0.214   0.205  -0.174
    1UNL    H16   39   0.103  -0.200   0.081
    1UNL    H17   40   0.286  -0.334   0.156
    1UNL    H18   41   0.371  -0.174   0.205
    1UNL    H19   42   0.365  -0.228   0.034
    1UNL    H20   43   0.155  -0.174   0.344
    1UNL    H21   44   0.248  -0.039   0.296
    1UNL    H22   45   0.092  -0.009   0.282
    1UNL    H23   46   0.340   0.083   0.178
    1UNL    H24   47   0.406   0.304   0.134
   0.00000   0.00000   0.00000   0.00000   0.00000   0.00000   0.00000   0.00000   0.00000
Generated with MDTraj, t= 78.0
 47
    1UNL     C1    1   0.227   0.342  -0.188
    1UNL     C2    2   0.226   0.219  -0.104
    1UNL     C3    3   0.133   0.120  -0.131
    1UNL     C4    4   0.129  -0.001  -0.062
    1UNL     O1    5   0.038  -0.101  -0.101
    1UNL     C5    6  -0.096  -0.069  -0.076
    1UNL     O2    7  -0.173  -0.183  -0.023
    1UNL     C6    8  -0.290  -0.144   0.047
    1UNL     C7    9  -0.248  -0.110   0.189
    1UNL     O3   10  -0.198  -0.225   0.262
    1UNL     C8   11  -0.366  -0.022  -0.016
    1UNL     O4   12  -0.513  -0.022   0.011
    1UNL     C9   13  -0.332  -0.016  -0.166
    1UNL     O5   14  -0.404   0.097  -0.209
    1UNL    C10   15  -0.175   0.005  -0.177
    1UNL     O6   16  -0.153   0.150  -0.177
    1UNL    C11   17   0.212  -0.013   0.051
    1UNL    C12   18   0.207  -0.138   0.140
    1UNL    C13   19   0.336  -0.224   0.142
    1UNL    C14   20   0.147  -0.127   0.277
    1UNL    C15   21   0.292   0.095   0.089
    1UNL    C16   22   0.313   0.203   0.007
    1UNL     O7   23   0.401   0.311   0.036
    1UNL     H1   24   0.304   0.420  -0.152
    1UNL     H2   25   0.134   0.396  -0.187
    1UNL     H3   26   0.256   0.309  -0.291
    1UNL     H4   27   0.096   0.116  -0.232
    1UNL     H5   28  -0.083  -0.002   0.005
    1UNL     H6   29  -0.354  -0.238   0.045
    1UNL     H7   30  -0.170  -0.033   0.195
    1UNL     H8   31  -0.334  -0.067   0.239
    1UNL     H9   32  -0.156  -0.278   0.189
    1UNL    H10   33  -0.322   0.067   0.037
    1UNL    H11   34  -0.550  -0.111   0.035
    1UNL    H12   35  -0.376  -0.100  -0.215
    1UNL    H13   36  -0.495   0.097  -0.170
    1UNL    H14   37  -0.142  -0.010  -0.278
    1UNL    H15   38  -0.239   0.196  -0.200
    1UNL    H16   39   0.138  -0.204   0.083
    1UNL    H17   40   0.333  -0.308   0.212
    1UNL    H18   41   0.419  -0.151   0.168
    1UNL    H19   42   0.352  -0.275   0.043
    1UNL    H20   43   0.147  -0.227   0.321
    1UNL    H21   44   0.214  -0.075   0.336
    1UNL    H22   45   0.054  -0.072   0.285
    1UNL    H23   46   0.333   0.092   0.185
    1UNL    H24   47   0.429   0.309   0.131
   0.00000   0.00000   0.00000   0.00000   0.00000   0.00000   0.00000   0.00000   0.00000
Generated with MDTraj, t= 79.0
 47
    1UNL     C1    1   0.245   0.355  -0.179
    1UNL     C2    2   0.236   0.221  -0.104
    1UNL     C3    3   0.136   0.131  -0.132
    1UNL     C4    4   0.126   0.007  -0.062
    1UNL     O1    5   0.033  -0.091  -0.102
    1UNL     C5    6  -0.097  -0.057  -0.061
    1UNL     O2    7  -0.171  -0.166   0.010
    1UNL     C6    8  -0.305  -0.141   0.066
    1UNL     C7    9  -0.275  -0.127   0.222
    1UNL     O3   10  -0.179  -0.223   0.258
    1UNL     C8   11  -0.376  -0.021  -0.004
    1UNL     O4   12  -0.521  -0.023   0.007
    1UNL     C9   13  -0.342  -0.015  -0.156
    1UNL     O5   14  -0.396   0.093  -0.226
    1UNL    C10   15  -0.183  -0.011  -0.177
    1UNL     O6   16  -0.148   0.122  -0.218
    1UNL    C11   17   0.218  -0.014   0.041
    1UNL    C12   18   0.212  -0.141   0.120
    1UNL    C13   19   0.342  -0.209   0.124
    1UNL    C14   20   0.133  -0.122   0.251
    1UNL    C15   21   0.303   0.083   0.077
    1UNL    C16   22   0.320   0.200   0.007
    1UNL     O7   23   0.397   0.299   0.065
    1UNL     H1   24   0.301   0.431  -0.113
    1UNL     H2   25   0.154   0.404  -0.200
    1UNL     H3   26   0.311   0.332  -0.270
    1UNL     H4   27   0.077   0.144  -0.224
    1UNL     H5   28  -0.074   0.019   0.008
    1UNL     H6   29  -0.353  -0.237   0.030
    1UNL     H7   30  -0.231  -0.026   0.238
    1UNL     H8   31  -0.360  -0.145   0.287
    1UNL     H9   32  -0.130  -0.235   0.175
    1UNL    H10   33  -0.327   0.072   0.038
    1UNL    H11   34  -0.556  -0.112  -0.012
    1UNL    H12   35  -0.386  -0.103  -0.195
    1UNL    H13   36  -0.484   0.115  -0.201
    1UNL    H14   37  -0.152  -0.077  -0.255
    1UNL    H15   38  -0.227   0.175  -0.240
    1UNL    H16   39   0.149  -0.204   0.058
    1UNL    H17   40   0.340  -0.310   0.161
    1UNL    H18   41   0.403  -0.145   0.195
    1UNL    H19   42   0.393  -0.220   0.021
    1UNL    H20   43   0.140  -0.206   0.311
    1UNL    H21   44   0.171  -0.042   0.306
    1UNL    H22   45   0.028  -0.088   0.237
    1UNL    H23   46   0.347   0.065   0.177
    1UNL    H24   47   0.430   0.262   0.153
   0.00000   0.00000   0.00000   0.00000   0.00000   0.00000   0.00000   0.00000   0.00000
Generated with MDTraj, t= 80.0
 47
    1UNL     C1    1   0.228   0.362  -0.161
    1UNL     C2    2   0.229   0.233  -0.088
    1UNL     C3    3   0.129   0.145  -0.112
    1UNL     C4    4   0.125   0.017  -0.056
    1UNL     O1    5   0.044  -0.084  -0.108
    1UNL     C5    6  -0.090  -0.065  -0.074
    1UNL     O2    7  -0.153  -0.169   0.004
    1UNL     C6    8  -0.276  -0.133   0.066
    1UNL     C7    9  -0.269  -0.104   0.214
    1UNL     O3   10  -0.215  -0.209   0.284
    1UNL     C8   11  -0.361  -0.026  -0.007
    1UNL     O4   12  -0.504  -0.022   0.028
    1UNL     C9   13  -0.340  -0.022  -0.163
    1UNL     O5   14  -0.402   0.077  -0.228
    1UNL    C10   15  -0.184  -0.016  -0.192
    1UNL     O6   16  -0.158   0.114  -0.234
    1UNL    C11   17   0.218  -0.016   0.042
    1UNL    C12   18   0.201  -0.151   0.110
    1UNL    C13   19   0.333  -0.222   0.119
    1UNL    C14   20   0.119  -0.132   0.246
    1UNL    C15   21   0.309   0.075   0.075
    1UNL    C16   22   0.314   0.202   0.017
    1UNL     O7   23   0.411   0.298   0.049
    1UNL     H1   24   0.261   0.446  -0.094
    1UNL     H2   25   0.132   0.399  -0.195
    1UNL     H3   26   0.305   0.350  -0.245
    1UNL     H4   27   0.069   0.160  -0.197
    1UNL     H5   28  -0.090   0.021  -0.012
    1UNL     H6   29  -0.328  -0.232   0.057
    1UNL     H7   30  -0.201  -0.018   0.239
    1UNL     H8   31  -0.372  -0.090   0.249
    1UNL     H9   32  -0.147  -0.255   0.227
    1UNL    H10   33  -0.319   0.075   0.025
    1UNL    H11   34  -0.554  -0.086  -0.022
    1UNL    H12   35  -0.385  -0.112  -0.198
    1UNL    H13   36  -0.496   0.106  -0.189
    1UNL    H14   37  -0.173  -0.077  -0.279
    1UNL    H15   38  -0.241   0.167  -0.226
    1UNL    H16   39   0.133  -0.204   0.045
    1UNL    H17   40   0.327  -0.330   0.131
    1UNL    H18   41   0.385  -0.179   0.207
    1UNL    H19   42   0.402  -0.213   0.026
    1UNL    H20   43   0.096  -0.219   0.293
    1UNL    H21   44   0.189  -0.081   0.309
    1UNL    H22   45   0.039  -0.055   0.247
    1UNL    H23   46   0.372   0.076   0.161
    1UNL    H24   47   0.492   0.259   0.094
   0.00000   0.00000   0.00000   0.00000   0.00000   0.00000   0.00000   0.00000   0.00000
Generated with MDTraj, t= 81.0
 47
    1UNL     C1    1   0.221   0.368  -0.122
    1UNL     C2    2   0.226   0.231  -0.083
    1UNL     C3    3   0.133   0.137  -0.122
    1UNL     C4    4   0.126   0.010  -0.064
    1UNL     O1    5   0.038  -0.088  -0.112
    1UNL     C5    6  -0.092  -0.056  -0.072
    1UNL     O2    7  -0.165  -0.158   0.003
    1UNL     C6    8  -0.292  -0.125   0.064
    1UNL     C7    9  -0.269  -0.091   0.210
    1UNL     O3   10  -0.207  -0.198   0.286
    1UNL     C8   11  -0.362  -0.007  -0.006
    1UNL     O4   12  -0.500  -0.008   0.023
    1UNL     C9   13  -0.343  -0.036  -0.164
    1UNL     O5   14  -0.416   0.046  -0.240
    1UNL    C10   15  -0.181  -0.023  -0.197
    1UNL     O6   16  -0.164   0.109  -0.233
    1UNL    C11   17   0.227  -0.019   0.035
    1UNL    C12   18   0.212  -0.146   0.112
    1UNL    C13   19   0.338  -0.224   0.111
    1UNL    C14   20   0.141  -0.142   0.246
    1UNL    C15   21   0.313   0.074   0.077
    1UNL    C16   22   0.316   0.206   0.021
    1UNL     O7   23   0.412   0.297   0.057
    1UNL     H1   24   0.275   0.433  -0.052
    1UNL     H2   25   0.115   0.412  -0.115
    1UNL     H3   26   0.269   0.373  -0.222
    1UNL     H4   27   0.069   0.142  -0.213
    1UNL     H5   28  -0.083   0.028  -0.008
    1UNL     H6   29  -0.361  -0.209   0.072
    1UNL     H7   30  -0.185  -0.015   0.206
    1UNL     H8   31  -0.357  -0.061   0.268
    1UNL     H9   32  -0.141  -0.248   0.234
    1UNL    H10   33  -0.324   0.100   0.011
    1UNL    H11   34  -0.545  -0.076  -0.032
    1UNL    H12   35  -0.375  -0.139  -0.179
    1UNL    H13   36  -0.497   0.078  -0.203
    1UNL    H14   37  -0.148  -0.095  -0.272
    1UNL    H15   38  -0.252   0.150  -0.248
    1UNL    H16   39   0.139  -0.199   0.052
    1UNL    H17   40   0.339  -0.309   0.186
    1UNL    H18   41   0.418  -0.151   0.133
    1UNL    H19   42   0.347  -0.271   0.011
    1UNL    H20   43   0.135  -0.238   0.289
    1UNL    H21   44   0.208  -0.087   0.308
    1UNL    H22   45   0.050  -0.084   0.246
    1UNL    H23   46   0.382   0.049   0.159
    1UNL    H24   47   0.489   0.239   0.073
   0.00000   0.00000   0.00000   0.00000   0.00000   0.00000   0.00000   0.00000   0.00000
Generated with MDTraj, t= 82.0
 47
    1UNL     C1    1   0.220   0.369  -0.134
    1UNL     C2    2   0.214   0.231  -0.070
    1UNL     C3    3   0.124   0.137  -0.108
    1UNL     C4    4   0.122   0.007  -0.051
    1UNL     O1    5   0.030  -0.090  -0.093
    1UNL     C5    6  -0.105  -0.060  -0.062
    1UNL     O2    7  -0.172  -0.162   0.011
    1UNL     C6    8  -0.297  -0.116   0.073
    1UNL     C7    9  -0.278  -0.069   0.218
    1UNL     O3   10  -0.174  -0.157   0.275
    1UNL     C8   11  -0.370  -0.014  -0.017
    1UNL     O4   12  -0.511  -0.013   0.001
    1UNL     C9   13  -0.336  -0.038  -0.170
    1UNL     O5   14  -0.407   0.038  -0.250
    1UNL    C10   15  -0.180  -0.012  -0.188
    1UNL     O6   16  -0.154   0.118  -0.230
    1UNL    C11   17   0.224  -0.033   0.030
    1UNL    C12   18   0.218  -0.163   0.102
    1UNL    C13   19   0.348  -0.241   0.083
    1UNL    C14   20   0.181  -0.145   0.252
    1UNL    C15   21   0.312   0.061   0.065
    1UNL    C16   22   0.302   0.195   0.030
    1UNL     O7   23   0.392   0.304   0.073
    1UNL     H1   24   0.314   0.420  -0.116
    1UNL     H2   25   0.142   0.443  -0.085
    1UNL     H3   26   0.205   0.355  -0.241
    1UNL     H4   27   0.072   0.147  -0.199
    1UNL     H5   28  -0.105   0.026   0.002
    1UNL     H6   29  -0.364  -0.200   0.088
    1UNL     H7   30  -0.244   0.041   0.226
    1UNL     H8   31  -0.367  -0.099   0.275
    1UNL     H9   32  -0.119  -0.189   0.199
    1UNL    H10   33  -0.338   0.093  -0.004
    1UNL    H11   34  -0.538  -0.107  -0.023
    1UNL    H12   35  -0.363  -0.144  -0.190
    1UNL    H13   36  -0.504   0.040  -0.219
    1UNL    H14   37  -0.147  -0.070  -0.277
    1UNL    H15   38  -0.235   0.156  -0.273
    1UNL    H16   39   0.134  -0.208   0.049
    1UNL    H17   40   0.328  -0.355   0.090
    1UNL    H18   41   0.406  -0.205   0.171
    1UNL    H19   42   0.398  -0.225  -0.010
    1UNL    H20   43   0.190  -0.241   0.303
    1UNL    H21   44   0.248  -0.080   0.301
    1UNL    H22   45   0.089  -0.104   0.270
    1UNL    H23   46   0.396   0.034   0.129
    1UNL    H24   47   0.474   0.274   0.112
   0.00000   0.00000   0.00000   0.00000   0.00000   0.00000   0.00000   0.00000   0.00000
Generated with MDTraj, t= 83.0
 47
    1UNL     C1    1   0.191   0.360  -0.124
    1UNL     C2    2   0.205   0.230  -0.063
    1UNL     C3    3   0.120   0.128  -0.102
    1UNL     C4    4   0.117  -0.004  -0.045
    1UNL     O1    5   0.028  -0.106  -0.093
    1UNL     C5    6  -0.107  -0.070  -0.065
    1UNL     O2    7  -0.185  -0.165   0.008
    1UNL     C6    8  -0.301  -0.109   0.076
    1UNL     C7    9  -0.257  -0.025   0.192
    1UNL     O3   10  -0.180  -0.106   0.275
    1UNL     C8   11  -0.374  -0.022  -0.028
    1UNL     O4   12  -0.513  -0.044  -0.020
    1UNL     C9   13  -0.336  -0.040  -0.181
    1UNL     O5   14  -0.406   0.058  -0.248
    1UNL    C10   15  -0.178  -0.013  -0.185
    1UNL     O6   16  -0.157   0.126  -0.203
    1UNL    C11   17   0.219  -0.030   0.052
    1UNL    C12   18   0.231  -0.171   0.110
    1UNL    C13   19   0.354  -0.237   0.055
    1UNL    C14   20   0.223  -0.186   0.261
    1UNL    C15   21   0.307   0.072   0.087
    1UNL    C16   22   0.304   0.198   0.031
    1UNL     O7   23   0.396   0.296   0.061
    1UNL     H1   24   0.288   0.410  -0.144
    1UNL     H2   25   0.134   0.434  -0.058
    1UNL     H3   26   0.142   0.340  -0.221
    1UNL     H4   27   0.065   0.143  -0.196
    1UNL     H5   28  -0.094   0.006   0.011
    1UNL     H6   29  -0.365  -0.190   0.104
    1UNL     H7   30  -0.188   0.057   0.153
    1UNL     H8   31  -0.345   0.009   0.248
    1UNL     H9   32  -0.131  -0.161   0.211
    1UNL    H10   33  -0.353   0.088  -0.006
    1UNL    H11   34  -0.531  -0.142  -0.024
    1UNL    H12   35  -0.376  -0.142  -0.212
    1UNL    H13   36  -0.511   0.045  -0.237
    1UNL    H14   37  -0.128  -0.058  -0.275
    1UNL    H15   38  -0.224   0.165  -0.262
    1UNL    H16   39   0.138  -0.211   0.064
    1UNL    H17   40   0.385  -0.338   0.098
    1UNL    H18   41   0.434  -0.162   0.076
    1UNL    H19   42   0.347  -0.252  -0.051
    1UNL    H20   43   0.206  -0.291   0.291
    1UNL    H21   44   0.313  -0.157   0.308
    1UNL    H22   45   0.155  -0.122   0.299
    1UNL    H23   46   0.364   0.055   0.173
    1UNL    H24   47   0.465   0.260   0.119
   0.00000   0.00000   0.00000   0.00000   0.00000   0.00000   0.00000   0.00000   0.00000
Generated with MDTraj, t= 84.0
 47
    1UNL     C1    1   0.180   0.362  -0.106
    1UNL     C2    2   0.208   0.225  -0.060
    1UNL     C3    3   0.115   0.124  -0.095
    1UNL     C4    4   0.122  -0.002  -0.042
    1UNL     O1    5   0.025  -0.099  -0.071
    1UNL     C5    6  -0.110  -0.053  -0.043
    1UNL     O2    7  -0.194  -0.149   0.027
    1UNL     C6    8  -0.317  -0.096   0.072
    1UNL     C7    9  -0.280  -0.017   0.198
    1UNL     O3   10  -0.168  -0.072   0.264
    1UNL     C8   11  -0.388  -0.018  -0.038
    1UNL     O4   12  -0.524  -0.060  -0.040
    1UNL     C9   13  -0.333  -0.042  -0.176
    1UNL     O5   14  -0.402   0.030  -0.272
    1UNL    C10   15  -0.182  -0.011  -0.171
    1UNL     O6   16  -0.170   0.127  -0.202
    1UNL    C11   17   0.229  -0.032   0.037
    1UNL    C12   18   0.246  -0.174   0.098
    1UNL    C13   19   0.356  -0.260   0.032
    1UNL    C14   20   0.259  -0.184   0.252
    1UNL    C15   21   0.323   0.062   0.072
    1UNL    C16   22   0.312   0.193   0.027
    1UNL     O7   23   0.398   0.294   0.086
    1UNL     H1   24   0.274   0.426  -0.107
    1UNL     H2   25   0.112   0.414  -0.041
    1UNL     H3   26   0.139   0.359  -0.210
    1UNL     H4   27   0.046   0.138  -0.178
    1UNL     H5   28  -0.094   0.027   0.031
    1UNL     H6   29  -0.370  -0.188   0.093
    1UNL     H7   30  -0.242   0.086   0.170
    1UNL     H8   31  -0.357  -0.013   0.273
    1UNL     H9   32  -0.119  -0.113   0.188
    1UNL    H10   33  -0.369   0.092  -0.011
    1UNL    H11   34  -0.534  -0.157  -0.034
    1UNL    H12   35  -0.356  -0.149  -0.206
    1UNL    H13   36  -0.497   0.012  -0.281
    1UNL    H14   37  -0.128  -0.059  -0.259
    1UNL    H15   38  -0.237   0.156  -0.268
    1UNL    H16   39   0.147  -0.221   0.073
    1UNL    H17   40   0.357  -0.359   0.077
    1UNL    H18   41   0.458  -0.219   0.055
    1UNL    H19   42   0.349  -0.285  -0.076
    1UNL    H20   43   0.253  -0.289   0.274
    1UNL    H21   44   0.355  -0.148   0.278
    1UNL    H22   45   0.186  -0.127   0.307
    1UNL    H23   46   0.379   0.038   0.167
    1UNL    H24   47   0.440   0.256   0.168
   0.00000   0.00000   0.00000   0.00000   0.00000   0.00000   0.00000   0.00000   0.00000
Generated with MDTraj, t= 85.0
 47
    1UNL     C1    1   0.180   0.379  -0.085
    1UNL     C2    2   0.201   0.238  -0.029
    1UNL     C3    3   0.101   0.143  -0.060
    1UNL     C4    4   0.113   0.009  -0.021
    1UNL     O1    5   0.031  -0.093  -0.069
    1UNL     C5    6  -0.104  -0.062  -0.045
    1UNL     O2    7  -0.183  -0.153   0.042
    1UNL     C6    8  -0.309  -0.090   0.073
    1UNL     C7    9  -0.297   0.009   0.190
    1UNL     O3   10  -0.203  -0.038   0.283
    1UNL     C8   11  -0.384  -0.022  -0.048
    1UNL     O4   12  -0.524  -0.054  -0.046
    1UNL     C9   13  -0.325  -0.065  -0.182
    1UNL     O5   14  -0.397  -0.005  -0.282
    1UNL    C10   15  -0.176  -0.025  -0.178
    1UNL     O6   16  -0.184   0.123  -0.197
    1UNL    C11   17   0.235  -0.040   0.036
    1UNL    C12   18   0.241  -0.188   0.081
    1UNL    C13   19   0.348  -0.260   0.003
    1UNL    C14   20   0.277  -0.190   0.227
    1UNL    C15   21   0.327   0.057   0.071
    1UNL    C16   22   0.319   0.189   0.031
    1UNL     O7   23   0.422   0.279   0.066
    1UNL     H1   24   0.263   0.451  -0.051
    1UNL     H2   25   0.091   0.428  -0.062
    1UNL     H3   26   0.187   0.372  -0.199
    1UNL     H4   27   0.030   0.183  -0.127
    1UNL     H5   28  -0.097   0.028   0.019
    1UNL     H6   29  -0.368  -0.180   0.100
    1UNL     H7   30  -0.257   0.109   0.157
    1UNL     H8   31  -0.390   0.023   0.240
    1UNL     H9   32  -0.160  -0.111   0.234
    1UNL    H10   33  -0.372   0.091  -0.031
    1UNL    H11   34  -0.543  -0.146  -0.027
    1UNL    H12   35  -0.355  -0.175  -0.193
    1UNL    H13   36  -0.493  -0.022  -0.283
    1UNL    H14   37  -0.122  -0.050  -0.274
    1UNL    H15   38  -0.256   0.148  -0.259
    1UNL    H16   39   0.141  -0.235   0.053
    1UNL    H17   40   0.335  -0.365   0.011
    1UNL    H18   41   0.449  -0.235   0.045
    1UNL    H19   42   0.345  -0.232  -0.107
    1UNL    H20   43   0.297  -0.286   0.263
    1UNL    H21   44   0.358  -0.126   0.245
    1UNL    H22   45   0.192  -0.145   0.279
    1UNL    H23   46   0.403   0.037   0.137
    1UNL    H24   47   0.481   0.227   0.129
   0.00000   0.00000   0.00000   0.00000   0.00000   0.00000   0.00000   0.00000   0.00000
Generated with MDTraj, t= 86.0
 47
    1UNL     C1    1   0.190   0.381  -0.043
    1UNL     C2    2   0.212   0.232  -0.031
    1UNL     C3    3   0.105   0.140  -0.055
    1UNL     C4    4   0.123   0.010  -0.019
    1UNL     O1    5   0.024  -0.085  -0.047
    1UNL     C5    6  -0.112  -0.039  -0.044
    1UNL     O2    7  -0.195  -0.128   0.043
    1UNL     C6    8  -0.323  -0.075   0.081
    1UNL     C7    9  -0.316   0.027   0.194
    1UNL     O3   10  -0.242  -0.031   0.303
    1UNL     C8   11  -0.400  -0.024  -0.049
    1UNL     O4   12  -0.532  -0.076  -0.055
    1UNL     C9   13  -0.324  -0.071  -0.177
    1UNL     O5   14  -0.397  -0.037  -0.282
    1UNL    C10   15  -0.175  -0.023  -0.180
    1UNL     O6   16  -0.171   0.109  -0.220
    1UNL    C11   17   0.243  -0.033   0.041
    1UNL    C12   18   0.254  -0.182   0.072
    1UNL    C13   19   0.357  -0.248  -0.032
    1UNL    C14   20   0.284  -0.220   0.217
    1UNL    C15   21   0.341   0.063   0.070
    1UNL    C16   22   0.333   0.192   0.031
    1UNL     O7   23   0.438   0.279   0.046
    1UNL     H1   24   0.251   0.422   0.040
    1UNL     H2   25   0.089   0.414  -0.028
    1UNL     H3   26   0.229   0.417  -0.144
    1UNL     H4   27   0.027   0.151  -0.135
    1UNL     H5   28  -0.102   0.055   0.015
    1UNL     H6   29  -0.378  -0.164   0.121
    1UNL     H7   30  -0.266   0.116   0.149
    1UNL     H8   31  -0.414   0.057   0.219
    1UNL     H9   32  -0.192  -0.109   0.270
    1UNL    H10   33  -0.405   0.091  -0.055
    1UNL    H11   34  -0.521  -0.173  -0.045
    1UNL    H12   35  -0.318  -0.183  -0.173
    1UNL    H13   36  -0.500  -0.055  -0.266
    1UNL    H14   37  -0.115  -0.084  -0.252
    1UNL    H15   38  -0.249   0.122  -0.279
    1UNL    H16   39   0.154  -0.224   0.038
    1UNL    H17   40   0.377  -0.345   0.008
    1UNL    H18   41   0.449  -0.189  -0.042
    1UNL    H19   42   0.312  -0.262  -0.137
    1UNL    H20   43   0.273  -0.321   0.228
    1UNL    H21   44   0.381  -0.192   0.247
    1UNL    H22   45   0.213  -0.171   0.286
    1UNL    H23   46   0.418   0.036   0.147
    1UNL    H24   47   0.508   0.238   0.107
   0.00000   0.00000   0.00000   0.00000   0.00000   0.00000   0.00000   0.00000   0.00000
Generated with MDTraj, t= 87.0
 47
    1UNL     C1    1   0.211   0.385  -0.047
    1UNL     C2    2   0.213   0.237  -0.018
    1UNL     C3    3   0.110   0.151  -0.036
    1UNL     C4    4   0.118   0.012  -0.007
    1UNL     O1    5   0.022  -0.090  -0.027
    1UNL     C5    6  -0.111  -0.048  -0.023
    1UNL     O2    7  -0.205  -0.125   0.060
    1UNL     C6    8  -0.338  -0.082   0.087
    1UNL     C7    9  -0.357   0.025   0.193
    1UNL     O3   10  -0.270   0.006   0.303
    1UNL     C8   11  -0.401  -0.036  -0.050
    1UNL     O4   12  -0.540  -0.070  -0.056
    1UNL     C9   13  -0.320  -0.086  -0.180
    1UNL     O5   14  -0.384  -0.036  -0.291
    1UNL    C10   15  -0.166  -0.033  -0.167
    1UNL     O6   16  -0.165   0.100  -0.218
    1UNL    C11   17   0.249  -0.037   0.010
    1UNL    C12   18   0.270  -0.187   0.044
    1UNL    C13   19   0.368  -0.255  -0.054
    1UNL    C14   20   0.303  -0.200   0.194
    1UNL    C15   21   0.356   0.050   0.046
    1UNL    C16   22   0.333   0.184   0.033
    1UNL     O7   23   0.432   0.280   0.066
    1UNL     H1   24   0.267   0.441   0.027
    1UNL     H2   25   0.105   0.425  -0.049
    1UNL     H3   26   0.244   0.405  -0.152
    1UNL     H4   27   0.026   0.186  -0.085
    1UNL     H5   28  -0.115   0.059   0.010
    1UNL     H6   29  -0.388  -0.174   0.131
    1UNL     H7   30  -0.346   0.127   0.149
    1UNL     H8   31  -0.458   0.024   0.223
    1UNL     H9   32  -0.202  -0.064   0.292
    1UNL    H10   33  -0.403   0.078  -0.070
    1UNL    H11   34  -0.550  -0.169  -0.068
    1UNL    H12   35  -0.324  -0.195  -0.169
    1UNL    H13   36  -0.483  -0.049  -0.274
    1UNL    H14   37  -0.106  -0.088  -0.241
    1UNL    H15   38  -0.235   0.093  -0.287
    1UNL    H16   39   0.168  -0.231   0.025
    1UNL    H17   40   0.355  -0.365  -0.050
    1UNL    H18   41   0.473  -0.229  -0.041
    1UNL    H19   42   0.348  -0.221  -0.160
    1UNL    H20   43   0.288  -0.301   0.221
    1UNL    H21   44   0.398  -0.163   0.224
    1UNL    H22   45   0.227  -0.147   0.250
    1UNL    H23   46   0.450   0.014   0.084
    1UNL    H24   47   0.499   0.231   0.118
   0.00000   0.00000   0.00000   0.00000   0.00000   0.00000   0.00000   0.00000   0.00000
Generated with MDTraj, t= 88.0
 47
    1UNL     C1    1   0.179   0.378  -0.038
    1UNL     C2    2   0.201   0.230  -0.020
    1UNL     C3    3   0.099   0.136  -0.028
    1UNL     C4    4   0.116   0.000   0.005
    1UNL     O1    5   0.017  -0.101  -0.003
    1UNL     C5    6  -0.112  -0.044  -0.012
    1UNL     O2    7  -0.205  -0.120   0.069
    1UNL     C6    8  -0.338  -0.068   0.079
    1UNL     C7    9  -0.342   0.050   0.192
    1UNL     O3   10  -0.278   0.003   0.308
    1UNL     C8   11  -0.396  -0.022  -0.059
    1UNL     O4   12  -0.532  -0.069  -0.071
    1UNL     C9   13  -0.313  -0.078  -0.174
    1UNL     O5   14  -0.349  -0.052  -0.307
    1UNL    C10   15  -0.166  -0.022  -0.157
    1UNL     O6   16  -0.171   0.112  -0.203
    1UNL    C11   17   0.246  -0.043   0.030
    1UNL    C12   18   0.268  -0.192   0.039
    1UNL    C13   19   0.373  -0.228  -0.063
    1UNL    C14   20   0.317  -0.235   0.182
    1UNL    C15   21   0.347   0.049   0.050
    1UNL    C16   22   0.327   0.186   0.030
    1UNL     O7   23   0.427   0.281   0.025
    1UNL     H1   24   0.260   0.434   0.006
    1UNL     H2   25   0.083   0.417   0.017
    1UNL     H3   26   0.157   0.410  -0.141
    1UNL     H4   27   0.012   0.155  -0.095
    1UNL     H5   28  -0.098   0.053   0.041
    1UNL     H6   29  -0.407  -0.148   0.118
    1UNL     H7   30  -0.290   0.146   0.162
    1UNL     H8   31  -0.435   0.091   0.218
    1UNL     H9   32  -0.241  -0.087   0.291
    1UNL    H10   33  -0.395   0.089  -0.087
    1UNL    H11   34  -0.532  -0.170  -0.073
    1UNL    H12   35  -0.309  -0.185  -0.160
    1UNL    H13   36  -0.440  -0.065  -0.323
    1UNL    H14   37  -0.097  -0.084  -0.211
    1UNL    H15   38  -0.233   0.106  -0.279
    1UNL    H16   39   0.170  -0.241   0.020
    1UNL    H17   40   0.383  -0.343  -0.070
    1UNL    H18   41   0.474  -0.190  -0.047
    1UNL    H19   42   0.349  -0.187  -0.160
    1UNL    H20   43   0.335  -0.342   0.184
    1UNL    H21   44   0.393  -0.178   0.231
    1UNL    H22   45   0.230  -0.222   0.238
    1UNL    H23   46   0.439   0.011   0.088
    1UNL    H24   47   0.501   0.242   0.072
   0.00000   0.00000   0.00000   0.00000   0.00000   0.00000   0.00000   0.00000   0.00000
Generated with MDTraj, t= 89.0
 47
    1UNL     C1    1   0.158   0.362  -0.040
    1UNL     C2    2   0.192   0.223  -0.018
    1UNL     C3    3   0.089   0.127  -0.011
    1UNL     C4    4   0.118  -0.004   0.015
    1UNL     O1    5   0.020  -0.103   0.016
    1UNL     C5    6  -0.117  -0.059   0.016
    1UNL     O2    7  -0.222  -0.136   0.074
    1UNL     C6    8  -0.346  -0.074   0.074
    1UNL     C7    9  -0.347   0.046   0.168
    1UNL     O3   10  -0.279   0.021   0.286
    1UNL     C8   11  -0.395  -0.027  -0.064
    1UNL     O4   12  -0.533  -0.065  -0.096
    1UNL     C9   13  -0.307  -0.078  -0.176
    1UNL     O5   14  -0.344  -0.028  -0.305
    1UNL    C10   15  -0.161  -0.023  -0.135
    1UNL     O6   16  -0.161   0.119  -0.159
    1UNL    C11   17   0.256  -0.041   0.017
    1UNL    C12   18   0.279  -0.185   0.041
    1UNL    C13   19   0.384  -0.241  -0.064
    1UNL    C14   20   0.330  -0.230   0.183
    1UNL    C15   21   0.353   0.054   0.029
    1UNL    C16   22   0.324   0.190   0.012
    1UNL     O7   23   0.427   0.284   0.012
    1UNL     H1   24   0.254   0.418  -0.048
    1UNL     H2   25   0.103   0.403   0.051
    1UNL     H3   26   0.083   0.374  -0.120
    1UNL     H4   27  -0.004   0.147  -0.061
    1UNL     H5   28  -0.125   0.037   0.072
    1UNL     H6   29  -0.418  -0.144   0.119
    1UNL     H7   30  -0.306   0.147   0.133
    1UNL     H8   31  -0.444   0.079   0.200
    1UNL     H9   32  -0.244  -0.072   0.283
    1UNL    H10   33  -0.393   0.087  -0.073
    1UNL    H11   34  -0.536  -0.161  -0.107
    1UNL    H12   35  -0.327  -0.182  -0.169
    1UNL    H13   36  -0.448  -0.011  -0.307
    1UNL    H14   37  -0.088  -0.058  -0.204
    1UNL    H15   38  -0.211   0.133  -0.243
    1UNL    H16   39   0.178  -0.227   0.033
    1UNL    H17   40   0.405  -0.352  -0.042
    1UNL    H18   41   0.477  -0.185  -0.088
    1UNL    H19   42   0.330  -0.234  -0.157
    1UNL    H20   43   0.318  -0.340   0.188
    1UNL    H21   44   0.430  -0.204   0.212
    1UNL    H22   45   0.264  -0.200   0.254
    1UNL    H23   46   0.458   0.031   0.053
    1UNL    H24   47   0.515   0.258   0.042
   0.00000   0.00000   0.00000   0.00000   0.00000   0.00000   0.00000   0.00000   0.00000
Generated with MDTraj, t= 90.0
 47
    1UNL     C1    1   0.158   0.369  -0.034
    1UNL     C2    2   0.194   0.230  -0.012
    1UNL     C3    3   0.094   0.138  -0.001
    1UNL     C4    4   0.112   0.003   0.020
    1UNL     O1    5   0.009  -0.097   0.017
    1UNL     C5    6  -0.126  -0.047   0.014
    1UNL     O2    7  -0.226  -0.132   0.072
    1UNL     C6    8  -0.359  -0.079   0.077
    1UNL     C7    9  -0.367   0.035   0.181
    1UNL     O3   10  -0.275   0.009   0.290
    1UNL     C8   11  -0.393  -0.033  -0.067
    1UNL     O4   12  -0.517  -0.096  -0.109
    1UNL     C9   13  -0.288  -0.064  -0.176
    1UNL     O5   14  -0.336  -0.021  -0.298
    1UNL    C10   15  -0.156   0.003  -0.137
    1UNL     O6   16  -0.152   0.137  -0.153
    1UNL    C11   17   0.241  -0.049   0.014
    1UNL    C12   18   0.274  -0.200   0.050
    1UNL    C13   19   0.368  -0.251  -0.059
    1UNL    C14   20   0.343  -0.200   0.192
    1UNL    C15   21   0.346   0.038   0.004
    1UNL    C16   22   0.324   0.182  -0.007
    1UNL     O7   23   0.434   0.265  -0.005
    1UNL     H1   24   0.245   0.430  -0.078
    1UNL     H2   25   0.131   0.418   0.059
    1UNL     H3   26   0.061   0.372  -0.089
    1UNL     H4   27   0.002   0.170  -0.037
    1UNL     H5   28  -0.118   0.031   0.092
    1UNL     H6   29  -0.423  -0.163   0.104
    1UNL     H7   30  -0.330   0.133   0.134
    1UNL     H8   31  -0.463   0.064   0.221
    1UNL     H9   32  -0.260  -0.088   0.282
    1UNL    H10   33  -0.410   0.079  -0.084
    1UNL    H11   34  -0.494  -0.185  -0.133
    1UNL    H12   35  -0.281  -0.170  -0.184
    1UNL    H13   36  -0.439  -0.021  -0.302
    1UNL    H14   37  -0.069  -0.033  -0.188
    1UNL    H15   38  -0.182   0.161  -0.243
    1UNL    H16   39   0.181  -0.254   0.053
    1UNL    H17   40   0.368  -0.361  -0.051
    1UNL    H18   41   0.473  -0.209  -0.062
    1UNL    H19   42   0.318  -0.217  -0.150
    1UNL    H20   43   0.366  -0.296   0.235
    1UNL    H21   44   0.429  -0.138   0.207
    1UNL    H22   45   0.269  -0.168   0.259
    1UNL    H23   46   0.444   0.003   0.020
    1UNL    H24   47   0.511   0.207   0.015
   0.00000   0.00000   0.00000   0.00000   0.00000   0.00000   0.00000   0.00000   0.00000
Generated with MDTraj, t= 91.0
 47
    1UNL     C1    1   0.189   0.382  -0.029
    1UNL     C2    2   0.207   0.237  -0.016
    1UNL     C3    3   0.104   0.149  -0.006
    1UNL     C4    4   0.117   0.012   0.014
    1UNL     O1    5   0.016  -0.084   0.018
    1UNL     C5    6  -0.121  -0.043   0.020
    1UNL     O2    7  -0.215  -0.136   0.068
    1UNL     C6    8  -0.352  -0.090   0.070
    1UNL     C7    9  -0.364   0.028   0.166
    1UNL     O3   10  -0.319  -0.020   0.296
    1UNL     C8   11  -0.399  -0.044  -0.075
    1UNL     O4   12  -0.519  -0.118  -0.099
    1UNL     C9   13  -0.287  -0.070  -0.185
    1UNL     O5   14  -0.327   0.000  -0.297
    1UNL    C10   15  -0.156   0.003  -0.130
    1UNL     O6   16  -0.177   0.138  -0.127
    1UNL    C11   17   0.246  -0.037   0.030
    1UNL    C12   18   0.260  -0.185   0.064
    1UNL    C13   19   0.331  -0.263  -0.052
    1UNL    C14   20   0.331  -0.224   0.202
    1UNL    C15   21   0.354   0.054   0.008
    1UNL    C16   22   0.340   0.189  -0.020
    1UNL     O7   23   0.454   0.271  -0.044
    1UNL     H1   24   0.287   0.439  -0.053
    1UNL     H2   25   0.161   0.426   0.063
    1UNL     H3   26   0.103   0.411  -0.095
    1UNL     H4   27   0.006   0.172  -0.054
    1UNL     H5   28  -0.132   0.044   0.086
    1UNL     H6   29  -0.398  -0.175   0.117
    1UNL     H7   30  -0.318   0.127   0.126
    1UNL     H8   31  -0.471   0.047   0.172
    1UNL     H9   32  -0.220  -0.025   0.293
    1UNL    H10   33  -0.425   0.067  -0.070
    1UNL    H11   34  -0.486  -0.206  -0.126
    1UNL    H12   35  -0.286  -0.175  -0.211
    1UNL    H13   36  -0.412  -0.021  -0.327
    1UNL    H14   37  -0.075  -0.007  -0.201
    1UNL    H15   38  -0.222   0.163  -0.212
    1UNL    H16   39   0.158  -0.220   0.071
    1UNL    H17   40   0.319  -0.366  -0.030
    1UNL    H18   41   0.440  -0.241  -0.076
    1UNL    H19   42   0.278  -0.239  -0.148
    1UNL    H20   43   0.328  -0.328   0.214
    1UNL    H21   44   0.432  -0.197   0.213
    1UNL    H22   45   0.273  -0.191   0.289
    1UNL    H23   46   0.446   0.017   0.053
    1UNL    H24   47   0.535   0.212  -0.049
   0.00000   0.00000   0.00000   0.00000   0.00000   0.00000   0.00000   0.00000   0.00000
Generated with MDTraj, t= 92.0
 47
    1UNL     C1    1   0.207   0.371  -0.075
    1UNL     C2    2   0.217   0.232  -0.023
    1UNL     C3    3   0.103   0.155  -0.017
    1UNL     C4    4   0.118   0.018   0.016
    1UNL     O1    5   0.012  -0.072   0.029
    1UNL     C5    6  -0.128  -0.030   0.026
    1UNL     O2    7  -0.217  -0.126   0.083
    1UNL     C6    8  -0.358  -0.092   0.071
    1UNL     C7    9  -0.399   0.008   0.185
    1UNL     O3   10  -0.327  -0.036   0.298
    1UNL     C8   11  -0.398  -0.047  -0.074
    1UNL     O4   12  -0.500  -0.141  -0.124
    1UNL     C9   13  -0.283  -0.047  -0.172
    1UNL     O5   14  -0.320   0.000  -0.298
    1UNL    C10   15  -0.165   0.033  -0.114
    1UNL     O6   16  -0.199   0.167  -0.121
    1UNL    C11   17   0.247  -0.043   0.018
    1UNL    C12   18   0.262  -0.187   0.059
    1UNL    C13   19   0.330  -0.266  -0.045
    1UNL    C14   20   0.352  -0.206   0.181
    1UNL    C15   21   0.357   0.043   0.014
    1UNL    C16   22   0.345   0.174  -0.016
    1UNL     O7   23   0.453   0.253  -0.022
    1UNL     H1   24   0.309   0.416  -0.087
    1UNL     H2   25   0.156   0.436  -0.006
    1UNL     H3   26   0.143   0.379  -0.169
    1UNL     H4   27   0.006   0.184  -0.052
    1UNL     H5   28  -0.133   0.044   0.108
    1UNL     H6   29  -0.387  -0.195   0.088
    1UNL     H7   30  -0.367   0.112   0.148
    1UNL     H8   31  -0.507   0.003   0.195
    1UNL     H9   32  -0.242  -0.071   0.262
    1UNL    H10   33  -0.444   0.056  -0.065
    1UNL    H11   34  -0.456  -0.225  -0.158
    1UNL    H12   35  -0.256  -0.154  -0.182
    1UNL    H13   36  -0.406  -0.034  -0.337
    1UNL    H14   37  -0.075   0.012  -0.174
    1UNL    H15   38  -0.253   0.178  -0.203
    1UNL    H16   39   0.163  -0.222   0.080
    1UNL    H17   40   0.358  -0.364  -0.011
    1UNL    H18   41   0.419  -0.222  -0.095
    1UNL    H19   42   0.258  -0.273  -0.133
    1UNL    H20   43   0.335  -0.303   0.207
    1UNL    H21   44   0.456  -0.198   0.167
    1UNL    H22   45   0.314  -0.143   0.265
    1UNL    H23   46   0.451   0.009   0.052
    1UNL    H24   47   0.544   0.207  -0.028
   0.00000   0.00000   0.00000   0.00000   0.00000   0.00000   0.00000   0.00000   0.00000
Generated with MDTraj, t= 93.0
 47
    1UNL     C1    1   0.206   0.373  -0.095
    1UNL     C2    2   0.216   0.228  -0.047
    1UNL     C3    3   0.109   0.139  -0.034
    1UNL     C4    4   0.117   0.011   0.016
    1UNL     O1    5   0.013  -0.087   0.022
    1UNL     C5    6  -0.118  -0.035   0.039
    1UNL     O2    7  -0.213  -0.137   0.076
    1UNL     C6    8  -0.351  -0.103   0.065
    1UNL     C7    9  -0.383   0.010   0.171
    1UNL     O3   10  -0.358  -0.030   0.298
    1UNL     C8   11  -0.393  -0.047  -0.074
    1UNL     O4   12  -0.491  -0.137  -0.134
    1UNL     C9   13  -0.278  -0.043  -0.166
    1UNL     O5   14  -0.316   0.015  -0.288
    1UNL    C10   15  -0.155   0.029  -0.102
    1UNL     O6   16  -0.203   0.160  -0.083
    1UNL    C11   17   0.247  -0.037   0.037
    1UNL    C12   18   0.259  -0.185   0.068
    1UNL    C13   19   0.303  -0.260  -0.058
    1UNL    C14   20   0.352  -0.208   0.191
    1UNL    C15   21   0.355   0.046   0.021
    1UNL    C16   22   0.345   0.182  -0.019
    1UNL     O7   23   0.453   0.267  -0.029
    1UNL     H1   24   0.291   0.433  -0.067
    1UNL     H2   25   0.118   0.418  -0.042
    1UNL     H3   26   0.174   0.384  -0.203
    1UNL     H4   27   0.024   0.174  -0.087
    1UNL     H5   28  -0.122   0.040   0.121
    1UNL     H6   29  -0.392  -0.203   0.089
    1UNL     H7   30  -0.323   0.106   0.153
    1UNL     H8   31  -0.488   0.028   0.160
    1UNL     H9   32  -0.267  -0.071   0.299
    1UNL    H10   33  -0.432   0.059  -0.061
    1UNL    H11   34  -0.447  -0.221  -0.167
    1UNL    H12   35  -0.256  -0.153  -0.180
    1UNL    H13   36  -0.408  -0.022  -0.322
    1UNL    H14   37  -0.070   0.036  -0.177
    1UNL    H15   38  -0.249   0.187  -0.165
    1UNL    H16   39   0.157  -0.219   0.088
    1UNL    H17   40   0.289  -0.370  -0.043
    1UNL    H18   41   0.409  -0.249  -0.078
    1UNL    H19   42   0.255  -0.224  -0.153
    1UNL    H20   43   0.359  -0.311   0.210
    1UNL    H21   44   0.451  -0.182   0.171
    1UNL    H22   45   0.311  -0.158   0.281
    1UNL    H23   46   0.450   0.010   0.059
    1UNL    H24   47   0.533   0.208  -0.031
   0.00000   0.00000   0.00000   0.00000   0.00000   0.00000   0.00000   0.00000   0.00000
Generated with MDTraj, t= 94.0
 47
    1UNL     C1    1   0.185   0.361  -0.085
    1UNL     C2    2   0.210   0.222  -0.036
    1UNL     C3    3   0.102   0.139  -0.010
    1UNL     C4    4   0.116   0.008   0.026
    1UNL     O1    5   0.013  -0.087   0.022
    1UNL     C5    6  -0.121  -0.036   0.020
    1UNL     O2    7  -0.218  -0.135   0.065
    1UNL     C6    8  -0.349  -0.091   0.064
    1UNL     C7    9  -0.379   0.026   0.167
    1UNL     O3   10  -0.335  -0.028   0.291
    1UNL     C8   11  -0.394  -0.054  -0.084
    1UNL     O4   12  -0.491  -0.154  -0.118
    1UNL     C9   13  -0.274  -0.038  -0.180
    1UNL     O5   14  -0.323   0.037  -0.287
    1UNL    C10   15  -0.156   0.035  -0.112
    1UNL     O6   16  -0.196   0.167  -0.093
    1UNL    C11   17   0.250  -0.043   0.038
    1UNL    C12   18   0.274  -0.187   0.081
    1UNL    C13   19   0.297  -0.266  -0.049
    1UNL    C14   20   0.371  -0.205   0.199
    1UNL    C15   21   0.362   0.042   0.019
    1UNL    C16   22   0.336   0.175  -0.013
    1UNL     O7   23   0.444   0.262  -0.044
    1UNL     H1   24   0.254   0.430  -0.040
    1UNL     H2   25   0.079   0.388  -0.044
    1UNL     H3   26   0.171   0.367  -0.195
    1UNL     H4   27   0.000   0.174  -0.039
    1UNL     H5   28  -0.122   0.029   0.112
    1UNL     H6   29  -0.407  -0.181   0.098
    1UNL     H7   30  -0.321   0.121   0.145
    1UNL     H8   31  -0.482   0.050   0.181
    1UNL     H9   32  -0.329  -0.128   0.290
    1UNL    H10   33  -0.448   0.045  -0.085
    1UNL    H11   34  -0.443  -0.231  -0.154
    1UNL    H12   35  -0.239  -0.142  -0.213
    1UNL    H13   36  -0.401  -0.012  -0.323
    1UNL    H14   37  -0.067   0.043  -0.182
    1UNL    H15   38  -0.245   0.197  -0.173
    1UNL    H16   39   0.176  -0.223   0.114
    1UNL    H17   40   0.311  -0.378  -0.027
    1UNL    H18   41   0.379  -0.227  -0.106
    1UNL    H19   42   0.212  -0.245  -0.118
    1UNL    H20   43   0.390  -0.309   0.223
    1UNL    H21   44   0.465  -0.167   0.170
    1UNL    H22   45   0.338  -0.151   0.284
    1UNL    H23   46   0.464   0.014   0.040
    1UNL    H24   47   0.527   0.217  -0.067
   0.00000   0.00000   0.00000   0.00000   0.00000   0.00000   0.00000   0.00000   0.00000
Generated with MDTraj, t= 95.0
 47
    1UNL     C1    1   0.185   0.369  -0.050
    1UNL     C2    2   0.202   0.224  -0.027
    1UNL     C3    3   0.091   0.136  -0.011
    1UNL     C4    4   0.119   0.002   0.018
    1UNL     O1    5   0.013  -0.092   0.023
    1UNL     C5    6  -0.120  -0.044   0.025
    1UNL     O2    7  -0.225  -0.136   0.066
    1UNL     C6    8  -0.353  -0.094   0.065
    1UNL     C7    9  -0.385   0.017   0.160
    1UNL     O3   10  -0.295   0.004   0.274
    1UNL     C8   11  -0.407  -0.057  -0.086
    1UNL     O4   12  -0.503  -0.152  -0.124
    1UNL     C9   13  -0.283  -0.048  -0.178
    1UNL     O5   14  -0.321   0.037  -0.284
    1UNL    C10   15  -0.158   0.019  -0.112
    1UNL     O6   16  -0.183   0.160  -0.099
    1UNL    C11   17   0.249  -0.048   0.021
    1UNL    C12   18   0.269  -0.181   0.079
    1UNL    C13   19   0.294  -0.275  -0.033
    1UNL    C14   20   0.379  -0.187   0.185
    1UNL    C15   21   0.353   0.044   0.013
    1UNL    C16   22   0.338   0.177  -0.013
    1UNL     O7   23   0.447   0.260  -0.035
    1UNL     H1   24   0.279   0.418  -0.022
    1UNL     H2   25   0.109   0.417   0.020
    1UNL     H3   26   0.153   0.399  -0.151
    1UNL     H4   27  -0.012   0.161  -0.027
    1UNL     H5   28  -0.114   0.026   0.113
    1UNL     H6   29  -0.414  -0.185   0.095
    1UNL     H7   30  -0.369   0.121   0.120
    1UNL     H8   31  -0.486   0.014   0.192
    1UNL     H9   32  -0.221  -0.057   0.255
    1UNL    H10   33  -0.463   0.041  -0.097
    1UNL    H11   34  -0.458  -0.234  -0.145
    1UNL    H12   35  -0.249  -0.146  -0.228
    1UNL    H13   36  -0.407   0.016  -0.314
    1UNL    H14   37  -0.064   0.024  -0.176
    1UNL    H15   38  -0.235   0.192  -0.175
    1UNL    H16   39   0.168  -0.202   0.122
    1UNL    H17   40   0.327  -0.379   0.005
    1UNL    H18   41   0.376  -0.228  -0.088
    1UNL    H19   42   0.217  -0.277  -0.111
    1UNL    H20   43   0.382  -0.280   0.243
    1UNL    H21   44   0.475  -0.186   0.137
    1UNL    H22   45   0.374  -0.102   0.242
    1UNL    H23   46   0.450   0.007   0.040
    1UNL    H24   47   0.521   0.202  -0.052
   0.00000   0.00000   0.00000   0.00000   0.00000   0.00000   0.00000   0.00000   0.00000
Generated with MDTraj, t= 96.0
 47
    1UNL     C1    1   0.177   0.373  -0.039
    1UNL     C2    2   0.197   0.228  -0.021
    1UNL     C3    3   0.094   0.143  -0.009
    1UNL     C4    4   0.118   0.009   0.018
    1UNL     O1    5   0.021  -0.097   0.017
    1UNL     C5    6  -0.109  -0.045   0.016
    1UNL     O2    7  -0.211  -0.140   0.059
    1UNL     C6    8  -0.341  -0.083   0.065
    1UNL     C7    9  -0.346   0.043   0.155
    1UNL     O3   10  -0.295   0.014   0.287
    1UNL     C8   11  -0.404  -0.052  -0.076
    1UNL     O4   12  -0.501  -0.142  -0.119
    1UNL     C9   13  -0.291  -0.055  -0.174
    1UNL     O5   14  -0.326  -0.003  -0.298
    1UNL    C10   15  -0.164   0.019  -0.125
    1UNL     O6   16  -0.198   0.157  -0.111
    1UNL    C11   17   0.246  -0.042   0.035
    1UNL    C12   18   0.262  -0.192   0.075
    1UNL    C13   19   0.288  -0.279  -0.050
    1UNL    C14   20   0.364  -0.217   0.186
    1UNL    C15   21   0.351   0.050   0.021
    1UNL    C16   22   0.328   0.180  -0.004
    1UNL     O7   23   0.442   0.275  -0.028
    1UNL     H1   24   0.277   0.423  -0.065
    1UNL     H2   25   0.152   0.421   0.055
    1UNL     H3   26   0.097   0.402  -0.108
    1UNL     H4   27   0.001   0.170  -0.051
    1UNL     H5   28  -0.103   0.031   0.101
    1UNL     H6   29  -0.401  -0.162   0.117
    1UNL     H7   30  -0.273   0.118   0.118
    1UNL     H8   31  -0.437   0.094   0.165
    1UNL     H9   32  -0.280  -0.082   0.295
    1UNL    H10   33  -0.446   0.054  -0.079
    1UNL    H11   34  -0.467  -0.231  -0.140
    1UNL    H12   35  -0.265  -0.167  -0.182
    1UNL    H13   36  -0.418  -0.020  -0.308
    1UNL    H14   37  -0.090   0.027  -0.209
    1UNL    H15   38  -0.243   0.185  -0.194
    1UNL    H16   39   0.161  -0.220   0.117
    1UNL    H17   40   0.277  -0.390  -0.037
    1UNL    H18   41   0.397  -0.260  -0.072
    1UNL    H19   42   0.248  -0.244  -0.146
    1UNL    H20   43   0.384  -0.322   0.202
    1UNL    H21   44   0.456  -0.181   0.144
    1UNL    H22   45   0.344  -0.157   0.269
    1UNL    H23   46   0.457   0.024   0.040
    1UNL    H24   47   0.524   0.224  -0.024
   0.00000   0.00000   0.00000   0.00000   0.00000   0.00000   0.00000   0.00000   0.00000
Generated with MDTraj, t= 97.0
 47
    1UNL     C1    1   0.185   0.375  -0.051
    1UNL     C2    2   0.209   0.233  -0.021
    1UNL     C3    3   0.102   0.142  -0.031
    1UNL     C4    4   0.117   0.009   0.009
    1UNL     O1    5   0.015  -0.086  -0.000
    1UNL     C5    6  -0.122  -0.035   0.016
    1UNL     O2    7  -0.218  -0.126   0.073
    1UNL     C6    8  -0.355  -0.085   0.081
    1UNL     C7    9  -0.367   0.044   0.173
    1UNL     O3   10  -0.295   0.042   0.289
    1UNL     C8   11  -0.403  -0.056  -0.067
    1UNL     O4   12  -0.506  -0.140  -0.109
    1UNL     C9   13  -0.288  -0.071  -0.172
    1UNL     O5   14  -0.329  -0.028  -0.304
    1UNL    C10   15  -0.167   0.017  -0.125
    1UNL     O6   16  -0.193   0.154  -0.136
    1UNL    C11   17   0.247  -0.046   0.036
    1UNL    C12   18   0.275  -0.196   0.054
    1UNL    C13   19   0.314  -0.257  -0.080
    1UNL    C14   20   0.366  -0.229   0.169
    1UNL    C15   21   0.353   0.039   0.045
    1UNL    C16   22   0.332   0.178   0.013
    1UNL     O7   23   0.436   0.268   0.019
    1UNL     H1   24   0.275   0.404  -0.120
    1UNL     H2   25   0.198   0.432   0.038
    1UNL     H3   26   0.085   0.396  -0.093
    1UNL     H4   27   0.008   0.167  -0.084
    1UNL     H5   28  -0.114   0.045   0.097
    1UNL     H6   29  -0.406  -0.171   0.127
    1UNL     H7   30  -0.337   0.136   0.120
    1UNL     H8   31  -0.468   0.049   0.204
    1UNL     H9   32  -0.264  -0.051   0.303
    1UNL    H10   33  -0.434   0.054  -0.072
    1UNL    H11   34  -0.480  -0.235  -0.121
    1UNL    H12   35  -0.254  -0.180  -0.175
    1UNL    H13   36  -0.425  -0.045  -0.315
    1UNL    H14   37  -0.083  -0.011  -0.190
    1UNL    H15   38  -0.244   0.151  -0.221
    1UNL    H16   39   0.173  -0.233   0.087
    1UNL    H17   40   0.353  -0.356  -0.072
    1UNL    H18   41   0.399  -0.188  -0.119
    1UNL    H19   42   0.243  -0.247  -0.166
    1UNL    H20   43   0.391  -0.332   0.170
    1UNL    H21   44   0.456  -0.183   0.140
    1UNL    H22   45   0.337  -0.177   0.262
    1UNL    H23   46   0.442  -0.005   0.076
    1UNL    H24   47   0.510   0.213   0.056
   0.00000   0.00000   0.00000   0.00000   0.00000   0.00000   0.00000   0.00000   0.00000
Generated with MDTraj, t= 98.0
 47
    1UNL     C1    1   0.197   0.373  -0.060
    1UNL     C2    2   0.215   0.233  -0.009
    1UNL     C3    3   0.107   0.142  -0.013
    1UNL     C4    4   0.118   0.005   0.005
    1UNL     O1    5   0.011  -0.093   0.004
    1UNL     C5    6  -0.124  -0.040   0.012
    1UNL     O2    7  -0.216  -0.118   0.074
    1UNL     C6    8  -0.354  -0.071   0.078
    1UNL     C7    9  -0.361   0.064   0.162
    1UNL     O3   10  -0.304   0.047   0.291
    1UNL     C8   11  -0.407  -0.058  -0.066
    1UNL     O4   12  -0.519  -0.147  -0.081
    1UNL     C9   13  -0.299  -0.086  -0.176
    1UNL     O5   14  -0.338  -0.034  -0.306
    1UNL    C10   15  -0.172  -0.009  -0.134
    1UNL     O6   16  -0.190   0.127  -0.146
    1UNL    C11   17   0.253  -0.037   0.020
    1UNL    C12   18   0.280  -0.187   0.033
    1UNL    C13   19   0.327  -0.241  -0.098
    1UNL    C14   20   0.346  -0.244   0.161
    1UNL    C15   21   0.354   0.048   0.037
    1UNL    C16   22   0.345   0.183   0.025
    1UNL     O7   23   0.446   0.278   0.058
    1UNL     H1   24   0.280   0.397  -0.130
    1UNL     H2   25   0.207   0.446   0.020
    1UNL     H3   26   0.096   0.392  -0.106
    1UNL     H4   27   0.023   0.189  -0.056
    1UNL     H5   28  -0.126   0.064   0.059
    1UNL     H6   29  -0.410  -0.152   0.125
    1UNL     H7   30  -0.310   0.145   0.102
    1UNL     H8   31  -0.464   0.089   0.182
    1UNL     H9   32  -0.208   0.057   0.282
    1UNL    H10   33  -0.448   0.047  -0.078
    1UNL    H11   34  -0.488  -0.242  -0.089
    1UNL    H12   35  -0.286  -0.197  -0.181
    1UNL    H13   36  -0.431  -0.064  -0.341
    1UNL    H14   37  -0.081  -0.028  -0.191
    1UNL    H15   38  -0.230   0.144  -0.234
    1UNL    H16   39   0.170  -0.217   0.041
    1UNL    H17   40   0.333  -0.348  -0.090
    1UNL    H18   41   0.432  -0.195  -0.108
    1UNL    H19   42   0.274  -0.200  -0.189
    1UNL    H20   43   0.339  -0.346   0.176
    1UNL    H21   44   0.450  -0.232   0.152
    1UNL    H22   45   0.321  -0.178   0.249
    1UNL    H23   46   0.445   0.017   0.090
    1UNL    H24   47   0.528   0.259   0.114
   0.00000   0.00000   0.00000   0.00000   0.00000   0.00000   0.00000   0.00000   0.00000
Generated with MDTraj, t= 99.0
 47
    1UNL     C1    1   0.172   0.375  -0.004
    1UNL     C2    2   0.208   0.227  -0.001
    1UNL     C3    3   0.102   0.140  -0.028
    1UNL     C4    4   0.116   0.002   0.004
    1UNL     O1    5   0.020  -0.098  -0.021
    1UNL     C5    6  -0.115  -0.039  -0.004
    1UNL     O2    7  -0.202  -0.112   0.083
    1UNL     C6    8  -0.338  -0.061   0.083
    1UNL     C7    9  -0.352   0.074   0.157
    1UNL     O3   10  -0.285   0.061   0.286
    1UNL     C8   11  -0.396  -0.059  -0.059
    1UNL     O4   12  -0.506  -0.146  -0.078
    1UNL     C9   13  -0.299  -0.084  -0.174
    1UNL     O5   14  -0.357  -0.051  -0.303
    1UNL    C10   15  -0.171  -0.002  -0.153
    1UNL     O6   16  -0.189   0.137  -0.167
    1UNL    C11   17   0.245  -0.040   0.039
    1UNL    C12   18   0.265  -0.189   0.039
    1UNL    C13   19   0.340  -0.235  -0.086
    1UNL    C14   20   0.333  -0.246   0.161
    1UNL    C15   21   0.353   0.042   0.041
    1UNL    C16   22   0.336   0.180   0.025
    1UNL     O7   23   0.440   0.269   0.029
    1UNL     H1   24   0.245   0.434  -0.052
    1UNL     H2   25   0.163   0.419   0.100
    1UNL     H3   26   0.070   0.392  -0.047
    1UNL     H4   27   0.018   0.167  -0.090
    1UNL     H5   28  -0.094   0.056   0.056
    1UNL     H6   29  -0.396  -0.130   0.140
    1UNL     H7   30  -0.303   0.160   0.102
    1UNL     H8   31  -0.457   0.100   0.167
    1UNL     H9   32  -0.327  -0.010   0.341
    1UNL    H10   33  -0.437   0.046  -0.068
    1UNL    H11   34  -0.465  -0.234  -0.072
    1UNL    H12   35  -0.291  -0.192  -0.183
    1UNL    H13   36  -0.445  -0.083  -0.322
    1UNL    H14   37  -0.093  -0.036  -0.219
    1UNL    H15   38  -0.234   0.152  -0.253
    1UNL    H16   39   0.158  -0.223   0.037
    1UNL    H17   40   0.350  -0.345  -0.089
    1UNL    H18   41   0.440  -0.192  -0.068
    1UNL    H19   42   0.304  -0.185  -0.182
    1UNL    H20   43   0.372  -0.341   0.145
    1UNL    H21   44   0.421  -0.187   0.174
    1UNL    H22   45   0.276  -0.229   0.255
    1UNL    H23   46   0.436  -0.014   0.081
    1UNL    H24   47   0.508   0.227   0.085
   0.00000   0.00000   0.00000   0.00000   0.00000   0.00000   0.00000   0.00000   0.00000
