[ moleculetype ]
; name        nrexcl
res           1

[ atoms ]
;    nr  type  resnr resid  atom  cgnr     charge       mass
      1 SC2       1 res   C1        1      0.000     54.000
      2 TN6       1 res   C2        2      0.000     36.000
      3 TC5       1 res   C3        3      0.000     36.000
      4 SN6       1 res   C4        4      0.000     54.000
      5 SN6       1 res   C5        5      0.000     54.000
      6 SN4a      1 res   C6        6      0.000     54.000
      7 TP1       1 res   C7        7      0.000     36.000
      8 TN6       1 res   C8        8      0.000     36.000
      9 TN6       1 res   C9        9      0.000     36.000
     10 TN6       1 res   C10      10      0.000     36.000

[ bonds ]
;  ai    aj   funct      b0(nm)          k(kJ/mol/nm^2)
    1     2     1      0.27198          18915.7
    2     3     1      0.27403          16711.1
    2     5     1      0.26030          13966.9
    3     4     1      0.30672          54832.5
    4     5     1      0.27861          28222.3
    5     6     1      0.37115           8080.7
    6     7     1      0.20879          33273.1
    6     8     1      0.28889          53916.5
    6    10     1      0.29483          55346.9
    8     9     1      0.23297          36796.4
    9    10     1      0.23356          36410.6

[ angles ]
;  ai    aj    ak  funct     th0(deg)        k(kJ/mol/rad^2)
    1     2     3     1     93.19610           403.91
    1     2     5     1     99.45761           674.55
    2     3     4     1     98.63320           459.31
    2     5     4     1    109.87029           269.13
    2     5     6     1    116.05581            78.18
    3     2     5     1     77.18383           808.26
    3     4     5     1     69.25253          2179.87
    4     5     6     1     74.19547           100.77
    5     6     7     1    107.39818           228.57
    5     6     8     1    149.14509           258.73
    5     6    10     1     67.07354           301.11
    6     8     9     1     76.50494          1431.72
    6    10     9     1     75.18062          2352.76
    7     6     8     1     89.52289           815.04
    7     6    10     1    135.59400           258.09
    8     6    10     1     83.92883          2095.02
    8     9    10     1    113.64390           816.40
