1TPCN03672
22
    1res  C1    1   -0.554   0.586   0.202
    1res  C2    2   -0.404   0.262   0.064
    1res  C3    3   -0.286   0.097  -0.052
    1res  C4    4   -0.136  -0.066  -0.206
    1res  C5    5    0.158  -0.052  -0.268
    1res  C6    6    0.317   0.108   0.009
    1res  C7    7    0.115  -0.128   0.072
    1res  C8    8    0.247  -0.314  -0.104
    1res  C9    9    0.585  -0.315  -0.065
    1res  C10   10    0.544  -0.337   0.190
    1res  C11   11    0.728  -0.057   0.304
    1res  C12   12   -0.021   0.249  -0.156
    1res  C13   13    0.088   0.371  -0.352
    1res  C14   14   -0.124   0.354  -0.535
    1res  C15   15   -0.284   0.245  -0.375
    1res  C16   16   -0.365  -0.026   0.099
    1res  C17   17   -0.403  -0.338   0.001
    1res  C18   18   -0.533  -0.530   0.095
    1res  C19   19   -0.348  -0.501   0.262
    1res  C20   20   -0.333  -0.242   0.305
    1res  C21   21   -0.258   0.058   0.280
    1res  C22   22   -0.399   0.253   0.324
  10.00000  10.00000  10.00000
