[ moleculetype ]
; name        nrexcl
res           1

[ atoms ]
;    nr  type resnr resid  atom  cgnr     charge       mass
      1 N4a       1 res   C1        1      0.000     72.000
      2 TN4a      1 res   C2        2      0.000     36.000
      3 TN6       1 res   C3        3      0.000     36.000
      4 TC3       1 res   C4        4      0.000     36.000
      5 SC4       1 res   C5        5      0.000     54.000
      6 SN6       1 res   C6        6      0.000     54.000
      7 SC4       1 res   C7        7      0.000     54.000
      8 SC3       1 res   C8        8      0.000     54.000
      9 SN4a      1 res   C9        9      0.000     54.000
     10 SC3       1 res   C10      10      0.000     54.000
     11 P1        1 res   C11      11      0.000     72.000
     12 SC4       1 res   C12      12      0.000     54.000
     13 TC3       1 res   C13      13      0.000     36.000
     14 TN6       1 res   C14      14      0.000     36.000
     15 SC4       1 res   C15      15      0.000     54.000
     16 TN6       1 res   C16      16      0.000     36.000
     17 SN4a      1 res   C17      17      0.000     54.000
     18 TN6       1 res   C18      18      0.000     36.000
     19 TN6       1 res   C19      19      0.000     36.000
     20 TN6       1 res   C20      20      0.000     36.000
     21 TN6       1 res   C21      21      0.000     36.000
     22 TN6       1 res   C22      22      0.000     36.000

[ bonds ]
;  ai    aj   funct      b0(nm)        k
    1     2     1      0.38233    20000
    2     3     1      0.23424    20000
    2    22     1      0.26053    20000
    3     4     1      0.26989    20000
    3    16     1      0.21060    20000
    4     5     1      0.30081    20000
    4    12     1      0.33983    20000
    5     6     1      0.35759    20000
    5     7     1      0.35099    20000
    5    12     1      0.36763    20000
    6     7     1      0.31709    20000
    7     8     1      0.28782    20000
    8     9     1      0.34101    20000
    9    10     1      0.25915    20000
   10    11     1      0.35332    20000
   12    13     1      0.25571    20000
   12    15     1      0.34327    20000
   13    14     1      0.28040    20000
   14    15     1      0.25167    20000
   16    17     1      0.32924    20000
   16    21     1      0.22611    20000
   17    18     1      0.25070    20000
   17    20     1      0.32651    20000
   18    19     1      0.25024    20000
   19    20     1      0.26377    20000
   21    22     1      0.24414    20000
