[ moleculetype ]
; name        nrexcl
res           1

[ atoms ]
;    nr  type resnr resid  atom  cgnr     charge       mass
      1 TC4       1 res   C1        1      0.000     36.000
      2 TN4a      1 res   C2        2      0.000     36.000
      3 TN6       1 res   C3        3      0.000     36.000
      4 SN4a      1 res   C4        4      0.000     54.000
      5 SN4a      1 res   C5        5      0.000     54.000
      6 SC5       1 res   C6        6      0.000     54.000
      7 TC3       1 res   C7        7      0.000     36.000
      8 SC4       1 res   C8        8      0.000     54.000
      9 SC4       1 res   C9        9      0.000     54.000
     10 TC3       1 res   C10      10      0.000     36.000
     11 SC4       1 res   C11      11      0.000     54.000
     12 SC4       1 res   C12      12      0.000     54.000
     13 TC3       1 res   C13      13      0.000     36.000
     14 TN6       1 res   C14      14      0.000     36.000
     15 SN4a      1 res   C15      15      0.000     54.000
     16 TN6       1 res   C16      16      0.000     36.000
     17 TN6       1 res   C17      17      0.000     36.000
     18 TN6       1 res   C18      18      0.000     36.000
     19 TC4       1 res   C19      19      0.000     36.000
     20 TP1       1 res   C20      20      0.000     36.000
     21 TC3       1 res   C21      21      0.000     36.000
     22 TC3       1 res   C22      22      0.000     36.000
     23 TN3r      1 res   C23      23      0.000     36.000
     24 SN4a      1 res   C24      24      0.000     54.000
     25 TN6       1 res   C25      25      0.000     36.000
     26 TN6       1 res   C26      26      0.000     36.000
     27 TN6       1 res   C27      27      0.000     36.000
     28 TN6       1 res   C28      28      0.000     36.000
     29 TN6       1 res   C29      29      0.000     36.000
     30 TN6       1 res   C30      30      0.000     36.000
     31 TN6       1 res   C31      31      0.000     36.000
     32 TN6       1 res   C32      32      0.000     36.000

[ bonds ]
;  ai    aj   funct      b0(nm)        k
    1     2     1      0.30410    20000
    1    32     1      0.26747    20000
    2     3     1      0.22358    20000
    2    30     1      0.24448    20000
    3     4     1      0.24031    20000
    3    29     1      0.24169    20000
    4     5     1      0.33331    20000
    4    23     1      0.27360    20000
    4    28     1      0.27003    20000
    5     6     1      0.34068    20000
    6     7     1      0.28142    20000
    6     8     1      0.28073    20000
    6     9     1      0.35422    20000
    6    22     1      0.35941    20000
    7     8     1      0.30123    20000
    9    10     1      0.34817    20000
    9    11     1      0.31553    20000
    9    22     1      0.30372    20000
   10    11     1      0.28651    20000
   11    12     1      0.36249    20000
   11    21     1      0.25797    20000
   12    13     1      0.30631    20000
   12    19     1      0.40599    20000
   12    21     1      0.36623    20000
   13    14     1      0.25032    20000
   14    15     1      0.24938    20000
   14    19     1      0.27150    20000
   15    16     1      0.27499    20000
   15    18     1      0.28510    20000
   16    17     1      0.27806    20000
   17    18     1      0.22077    20000
   19    20     1      0.28262    20000
   23    24     1      0.32286    20000
   24    25     1      0.26450    20000
   24    27     1      0.29212    20000
   25    26     1      0.21394    20000
   26    27     1      0.27041    20000
   28    29     1      0.21565    20000
   30    31     1      0.25566    20000
   31    32     1      0.24765    20000
