1TPCN02006
17
    1res  C1    1    0.008   0.163   0.349
    1res  C2    2    0.093  -0.132   0.099
    1res  C3    3    0.285  -0.152  -0.048
    1res  C4    4    0.207   0.167  -0.136
    1res  C5    5    0.031   0.222  -0.301
    1res  C6    6   -0.087   0.407  -0.437
    1res  C7    7    0.148   0.467  -0.264
    1res  C8    8    0.446  -0.145  -0.363
    1res  C9    9    0.292  -0.345   0.183
    1res  C10   10   -0.118  -0.400   0.008
    1res  C11   11   -0.136  -0.127   0.117
    1res  C12   12   -0.486  -0.129   0.077
    1res  C13   13   -0.175   0.126  -0.058
    1res  C14   14   -0.285   0.338  -0.137
    1res  C15   15   -0.286   0.596  -0.124
    1res  C16   16   -0.084   0.472   0.044
    1res  C17   17    0.004  -0.264   0.318
  10.00000  10.00000  10.00000
