[ moleculetype ]
; name        nrexcl
res           1

[ atoms ]
;    nr  type  resnr resid  atom  cgnr     charge       mass
      1 N3r       1 res   C1        1      0.000     72.000
      2 N3r       1 res   C2        2      0.000     72.000
      3 P4        1 res   C3        3      0.000     72.000
      4 TC5       1 res   C4        4      0.000     36.000
      5 TC5       1 res   C5        5      0.000     36.000
      6 TC5       1 res   C6        6      0.000     36.000
      7 SN1       1 res   C7        7      0.000     54.000
      8 TC5       1 res   C8        8      0.000     36.000
      9 TC5       1 res   C9        9      0.000     36.000
     10 TC5       1 res   C10      10      0.000     36.000
     11 TN1       1 res   C11      11      0.000     36.000

[ constraints ]
;  ai    aj   funct      b0(nm)
    4     5     1      0.22168
    8    11     1      0.30219
    7     8     1      0.26487
    5     6     1      0.29766
    8    10     1      0.24891
    9    10     1      0.29052
    8     9     1      0.24884
    4     6     1      0.29815

[ bonds ]
;  ai    aj   funct      b0(nm)          k(kJ/mol/nm^2)
    1     2     1      0.37479           4917.6
    2     3     1      0.34056           5825.2
    5     7     1      0.28959           4679.8
    3     4     1      0.35020          11223.1
    7    11     1      0.42018          18438.7

[ angles ]
;  ai    aj    ak  funct     th0(deg)        k(kJ/mol/rad^2)
    1     2     3     1     87.71276            51.02
    2     3     4     1     82.61548           232.16
    3     4     5     1    132.83116           582.12
    3     4     6     1     69.10893           410.54
    4     5     6     1     68.27377          5828.72
    4     5     7     1    137.03745           172.69
    4     6     5     1     43.68119         12806.76
    5     4     6     1     68.04503          5205.61
    5     7     8     1     71.34260           445.33
    5     7    11     1     52.03494           218.37
    6     5     7     1     88.45583           102.99
    7     8     9     1    102.75623          1762.70
    7     8    10     1    170.16117           451.48
    7     8    11     1     95.44435           848.11
    7    11     8     1     38.85460          3180.83
    8     7    11     1     45.70149          2575.18
    8     9    10     1     54.29540          8617.47
    8    10     9     1     54.28288          5630.87
    9     8    10     1     71.42177          3066.62
    9     8    11     1    158.80835           600.63
   10     8    11     1     89.55137          1207.30

[ dihedrals ]
;  ai    aj    ak    al  funct   phi0(deg)        k(kJ/mol)   mult
    1     2     3     4     1    -27.51231       24.592      1
    2     3     4     5     1    -45.26684       17.060      1
    2     3     4     6     1    -19.08572       19.366      1
    3     4     5     6     1   -155.17938       21.485      1
    3     4     5     7     1    -92.41820       20.368      1
    3     4     6     5     1     18.16086       16.396      1
    4     5     7     8     1    -14.87436       12.929      1
    4     5     7    11     1     34.83231       14.361      1
    4     6     5     7     1     36.98120       12.848      1
    5     7     8     9     1     55.50818       12.893      1
    5     7     8    10     1     41.99834       29.975      1
    5     7     8    11     1   -121.50442       16.281      1
    5     7    11     8     1     80.08846       14.991      1
    6     4     5     7     1   -114.63536       19.697      1
    6     5     7     8     1     41.12293       17.213      1
    6     5     7    11     1     87.48404       17.051      1
    7     8     9    10     1      3.03111       14.377      1
    7     8    10     9     1   -169.41729       30.735      1
    7    11     8     9     1      3.60371       28.218      1
    7    11     8    10     1      3.19003       14.372      1
    9     8     7    11     1     -2.92772       16.910      1
    9    10     8    11     1     -0.96565       16.983      1
   10     8     7    11     1    -15.51777       31.398      1
   10     9     8    11     1    179.82277       29.205      1
