[ moleculetype ]
; name        nrexcl
res           1

[ atoms ]
;    nr  type  resnr resid  atom  cgnr     charge       mass
      1 TC5       1 res   C1        1      0.000     36.000
      2 SP1       1 res   C2        2      0.000     54.000
      3 SC2       1 res   C3        3      0.000     54.000
      4 TC3       1 res   C4        4      0.000     36.000
      5 SN4a      1 res   C5        5      0.000     54.000
      6 SN4a      1 res   C6        6      0.000     54.000
      7 TP1       1 res   C7        7      0.000     36.000
      8 SP4       1 res   C8        8      0.000     54.000
      9 TN6       1 res   C9        9      0.000     36.000

[ constraints ]
;  ai    aj   funct      b0(nm)
    4     5     1      0.28347
    8     9     1      0.26195

[ bonds ]
;  ai    aj   funct      b0(nm)          k(kJ/mol/nm^2)
    1     2     1      0.29145           8961.8
    2     3     1      0.28479          18266.5
    6     9     1      0.27690          11776.7
    6     8     1      0.24900          19811.6
    3     4     1      0.31915           4168.2
    5     6     1      0.26476           2344.9
    6     7     1      0.28419          14342.7

[ angles ]
;  ai    aj    ak  funct     th0(deg)        k(kJ/mol/rad^2)
    1     2     3     1     78.92635            96.18
    2     3     4     1    115.17651            18.44
    3     4     5     1     88.96231           479.36
    4     5     6     1    146.98405            35.00
    5     6     7     1    155.58880            82.05
    5     6     8     1    106.53119            20.65
    5     6     9     1     79.99301            40.21
    6     8     9     1     65.65708           394.21
    6     9     8     1     55.03679           486.45
    7     6     8     1     73.87774           912.92
    7     6     9     1    101.38899            54.14
    8     6     9     1     59.30519          2117.41

[ dihedrals ]
;  ai    aj    ak    al  funct   phi0(deg)        k(kJ/mol)   mult
    1     2     3     4     1    -47.27229       28.928      1
    2     3     4     5     1    177.82660       17.233      1
    3     4     5     6     1   -159.73957       18.373      1
    4     5     6     7     1    -46.31757        4.830      1
    4     5     6     8     1     92.10504       31.059      1
    4     5     6     9     1     38.36281       30.366      1
    5     6     8     9     1    109.84757       15.576      1
    5     6     9     8     1    -62.73461       20.439      1
    7     6     8     9     1    -63.92535       20.466      1
    7     6     9     8     1    119.92055       16.468      1
