1TPCN01000
8
    1res  C1    1    0.356   0.025  -0.012
    1res  C2    2    0.325  -0.226  -0.043
    1res  C3    3    0.104  -0.122   0.073
    1res  C4    4    0.017   0.194   0.068
    1res  C5    5   -0.118   0.099  -0.135
    1res  C6    6   -0.340   0.031   0.055
    1res  C7    7   -0.217  -0.211   0.030
    1res  C8    8   -0.013  -0.120  -0.180
  10.00000  10.00000  10.00000
