1TPCN04005
29
    1res  C1    1    0.654   0.165   0.270
    1res  C2    2    0.536  -0.034   0.085
    1res  C3    3    0.373  -0.016  -0.028
    1res  C4    4    0.251   0.174  -0.134
    1res  C5    5    0.095  -0.001  -0.289
    1res  C6    6   -0.059  -0.074   0.046
    1res  C7    7   -0.094   0.198  -0.038
    1res  C8    8   -0.222  -0.024  -0.321
    1res  C9    9   -0.345   0.076  -0.114
    1res  C10   10   -0.573  -0.082  -0.178
    1res  C11   11   -0.735   0.115  -0.344
    1res  C12   12   -0.691   0.164  -0.057
    1res  C13   13   -0.680  -0.176   0.077
    1res  C14   14   -0.910  -0.157   0.244
    1res  C15   15   -1.008   0.012   0.466
    1res  C16   16   -1.186  -0.046   0.214
    1res  C17   17   -1.159  -0.289   0.130
    1res  C18   18   -0.931  -0.242  -0.009
    1res  C19   19   -0.423   0.073   0.124
    1res  C20   20   -0.337   0.350  -0.136
    1res  C21   21    0.279  -0.220  -0.128
    1res  C22   22    0.696  -0.123  -0.049
    1res  C23   23    0.783  -0.149   0.194
    1res  C24   24    0.964   0.077   0.143
    1res  C25   25    1.155  -0.087   0.051
    1res  C26   26    1.204  -0.172   0.274
    1res  C27   27    1.353   0.046   0.118
    1res  C28   28    1.244   0.219  -0.049
    1res  C29   29    1.012   0.241   0.001
  10.00000  10.00000  10.00000
