[ moleculetype ]
; name        nrexcl
res           1

[ atoms ]
;    nr  type resnr resid  atom  cgnr     charge       mass
      1 SN4a      1 res   C1        1      0.000     54.000
      2 SN6       1 res   C2        2      0.000     54.000
      3 TC4       1 res   C3        3      0.000     36.000
      4 TN4a      1 res   C4        4      0.000     36.000
      5 SN4a      1 res   C5        5      0.000     54.000
      6 SC5       1 res   C6        6      0.000     54.000
      7 TC3       1 res   C7        7      0.000     36.000
      8 SC4       1 res   C8        8      0.000     54.000
      9 SC4       1 res   C9        9      0.000     54.000
     10 TC3       1 res   C10      10      0.000     36.000
     11 SC4       1 res   C11      11      0.000     54.000
     12 SC4       1 res   C12      12      0.000     54.000
     13 TC3       1 res   C13      13      0.000     36.000
     14 TN6       1 res   C14      14      0.000     36.000
     15 SN4a      1 res   C15      15      0.000     54.000
     16 SP2       1 res   C16      16      0.000     54.000
     17 TN6       1 res   C17      17      0.000     36.000
     18 TN6       1 res   C18      18      0.000     36.000
     19 TN6       1 res   C19      19      0.000     36.000
     20 SN4a      1 res   C20      20      0.000     54.000
     21 TP1       1 res   C21      21      0.000     36.000
     22 TN6       1 res   C22      22      0.000     36.000
     23 TN6       1 res   C23      23      0.000     36.000
     24 TN6       1 res   C24      24      0.000     36.000
     25 SN6       1 res   C25      25      0.000     54.000
     26 TC3       1 res   C26      26      0.000     36.000
     27 TC3       1 res   C27      27      0.000     36.000
     28 TN6       1 res   C28      28      0.000     36.000
     29 TN4a      1 res   C29      29      0.000     36.000
     30 TC4       1 res   C30      30      0.000     36.000
     31 TN6       1 res   C31      31      0.000     36.000
     32 SN4a      1 res   C32      32      0.000     54.000
     33 TN6       1 res   C33      33      0.000     36.000
     34 TN6       1 res   C34      34      0.000     36.000
     35 TN6       1 res   C35      35      0.000     36.000
     36 TN6       1 res   C36      36      0.000     36.000
     37 TN6       1 res   C37      37      0.000     36.000
     38 SN4a      1 res   C38      38      0.000     54.000
     39 TP1       1 res   C39      39      0.000     36.000
     40 TN6       1 res   C40      40      0.000     36.000
     41 TN6       1 res   C41      41      0.000     36.000

[ bonds ]
;  ai    aj   funct      b0(nm)        k
    1     2     1      0.38969    20000
    2     3     1      0.32561    20000
    2    28     1      0.24906    20000
    2    38     1      0.36066    20000
    3     4     1      0.32281    20000
    4     5     1      0.22115    20000
    4    28     1      0.21826    20000
    5     6     1      0.28539    20000
    6     7     1      0.29931    20000
    6     8     1      0.30332    20000
    6     9     1      0.40425    20000
    6    27     1      0.36400    20000
    7     8     1      0.29308    20000
    9    10     1      0.31319    20000
    9    11     1      0.27704    20000
    9    27     1      0.27028    20000
   10    11     1      0.37850    20000
   11    12     1      0.27053    20000
   11    26     1      0.28784    20000
   12    13     1      0.27997    20000
   12    25     1      0.30549    20000
   12    26     1      0.30325    20000
   13    14     1      0.24956    20000
   14    15     1      0.24315    20000
   14    25     1      0.23185    20000
   15    16     1      0.33264    20000
   15    17     1      0.29171    20000
   15    19     1      0.24925    20000
   17    18     1      0.24799    20000
   18    19     1      0.23778    20000
   19    20     1      0.28032    20000
   20    21     1      0.22708    20000
   20    22     1      0.27581    20000
   20    24     1      0.30612    20000
   22    23     1      0.20647    20000
   23    24     1      0.21761    20000
   28    29     1      0.21713    20000
   29    30     1      0.32287    20000
   29    37     1      0.21417    20000
   30    31     1      0.25407    20000
   31    32     1      0.28720    20000
   31    36     1      0.23733    20000
   32    33     1      0.28859    20000
   32    35     1      0.26774    20000
   33    34     1      0.21313    20000
   34    35     1      0.21898    20000
   36    37     1      0.21808    20000
   38    39     1      0.30673    20000
   38    40     1      0.25379    20000
   38    41     1      0.27434    20000
   40    41     1      0.22483    20000
