1TPCN04123
23
    1res  C1    1   -0.784  -0.112  -0.245
    1res  C2    2   -0.961   0.053  -0.242
    1res  C3    3   -0.816  -0.174   0.064
    1res  C4    4   -0.557  -0.140  -0.054
    1res  C5    5   -0.507  -0.045   0.209
    1res  C6    6   -0.523   0.240   0.097
    1res  C7    7   -0.339   0.103  -0.196
    1res  C8    8   -0.251   0.232   0.059
    1res  C9    9   -0.003   0.135   0.011
    1res  C10   10    0.035  -0.123  -0.086
    1res  C11   11    0.250  -0.063   0.030
    1res  C12   12    0.503  -0.131   0.160
    1res  C13   13    0.798  -0.152   0.216
    1res  C14   14    0.498  -0.407   0.108
    1res  C15   15    0.607  -0.308  -0.079
    1res  C16   16    0.529  -0.109  -0.095
    1res  C17   17    0.677   0.135  -0.165
    1res  C18   18    0.713   0.200   0.125
    1res  C19   19    0.942   0.041  -0.094
    1res  C20   20    0.919   0.089  -0.335
    1res  C21   21    0.709  -0.026  -0.362
    1res  C22   22    0.191   0.018   0.256
    1res  C23   23   -0.153   0.140   0.280
  10.00000  10.00000  10.00000
