[ moleculetype ]
; name        nrexcl
res           1

[ atoms ]
;    nr  type  resnr resid  atom  cgnr     charge       mass
      1 TC4       1 res   C1        1      0.000     36.000
      2 SN6       1 res   C2        2      0.000     54.000
      3 SC3       1 res   C3        3      0.000     54.000
      4 TN6       1 res   C4        4      0.000     36.000
      5 SN4a      1 res   C5        5      0.000     54.000
      6 N4a       1 res   C6        6      0.000     72.000
      7 TC5       1 res   C7        7      0.000     36.000
      8 SP4       1 res   C8        8      0.000     54.000
      9 SN6       1 res   C9        9      0.000     54.000
     10 SP4       1 res   C10      10      0.000     54.000
     11 TN6       1 res   C11      11      0.000     36.000
     12 N4a       1 res   C12      12      0.000     72.000
     13 TC5       1 res   C13      13      0.000     36.000
     14 TC5       1 res   C14      14      0.000     36.000
     15 TC5       1 res   C15      15      0.000     36.000
     16 SN4a      1 res   C16      16      0.000     54.000

[ constraints ]
;  ai    aj   funct      b0(nm)
    4     5     1      0.28047
    5    10     1      0.23212
   13    14     1      0.25601
   14    15     1      0.28763
    7     9     1      0.33479
    5     6     1      0.31010
    6     7     1      0.31489
    1     2     1      0.34842
   10    11     1      0.30783
    2     3     1      0.27256
    7     8     1      0.28232
   13    15     1      0.29768
    1     4     1      0.25972
    3     4     1      0.22707
   12    13     1      0.31246
    1    16     1      0.34861
    3    16     1      0.33488
    8     9     1      0.33233

[ bonds ]
;  ai    aj   funct      b0(nm)          k(kJ/mol/nm^2)
    3    12     1      0.29702           3166.1
    5    11     1      0.24335           9307.3

[ angles ]
;  ai    aj    ak  funct     th0(deg)        k(kJ/mol/rad^2)
    1     2     3     1     77.80867          1628.30
    1     4     3     1    108.08822          1157.33
    1     4     5     1     95.28586            32.04
    1    16     3     1     70.45352          2567.79
    2     1     4     1     73.24856          3695.86
    2     1    16     1     49.90555          1701.13
    2     3     4     1     95.05941          1949.75
    2     3    12     1    127.42216           228.20
    2     3    16     1     56.77899          2146.12
    3     4     5     1    101.90794           276.11
    3    12    13     1     97.19010            35.30
    4     1    16     1     57.51721          1943.89
    4     3    12     1     73.94041           321.49
    4     3    16     1     61.77132          1478.71
    4     5     6     1    130.17797           295.72
    4     5    10     1    123.60523           282.23
    4     5    11     1     73.87487           448.48
    5     6     7     1    132.62622           207.33
    5    10    11     1     51.22623           578.69
    5    11    10     1     47.99244          2503.46
    6     5    10     1     82.00658           977.88
    6     5    11     1    154.27946           272.46
    6     7     8     1    169.14725           514.39
    6     7     9     1    106.89811           853.09
    7     8     9     1     65.41476          8230.58
    7     9     8     1     50.07228          7958.07
    8     7     9     1     64.51293          5074.95
   10     5    11     1     80.78150           507.40
   12     3    16     1     73.93774           337.07
   12    13    14     1    160.98480           399.66
   12    13    15     1    100.40637           568.28
   13    14    15     1     66.10298          9794.47
   13    15    14     1     51.83796         14096.40
   14    13    15     1     62.05904          8763.39

[ dihedrals ]
;  ai    aj    ak    al  funct   phi0(deg)        k(kJ/mol)   mult
    1     2     3     4     1    163.07213        8.463      1
    1     2     3    12     1     92.20893       13.622      1
    1     2     3    16     1    112.96088        4.005      1
    1     4     3     2     1   -156.62134        9.975      1
    1     4     3    12     1    -31.70388       12.863      1
    1     4     3    16     1   -108.05815        7.729      1
    1     4     5     6     1    -85.19798       17.104      1
    1     4     5    10     1     24.13612       16.460      1
    1     4     5    11     1     89.75825       15.077      1
    1    16     3     2     1   -107.02557        5.537      1
    1    16     3     4     1    134.09809        6.248      1
    1    16     3    12     1     55.00649       10.104      1
    2     1     4     3     1    160.74201        8.498      1
    2     1     4     5     1     56.01515       10.765      1
    2     1    16     3     1    125.01944        3.950      1
    2     3     4     5     1    -53.19471       22.399      1
    2     3    12    13     1     76.75658       29.066      1
    3     2     1     4     1   -164.12397        7.727      1
    3     2     1    16     1   -104.02792        4.752      1
    3     4     1    16     1    108.96488        7.027      1
    3     4     5     6     1    163.00826       18.455      1
    3     4     5    10     1    -83.05301       18.503      1
    3     4     5    11     1    -17.97350       15.111      1
    3    12    13    14     1     55.16074       30.462      1
    3    12    13    15     1     63.09761       28.605      1
    3    16     1     4     1   -139.05235        4.013      1
    4     3    12    13     1    -10.56892       27.639      1
    4     5     6     7     1    -14.70053       23.395      1
    4     5    10    11     1   -120.77170       13.538      1
    4     5    11    10     1     50.30441       13.608      1
    5     4     1    16     1      3.01388       10.053      1
    5     4     3    12     1     69.85211       24.214      1
    5     4     3    16     1     -6.76503       21.069      1
    5     6     7     8     1     53.15252       30.034      1
    5     6     7     9     1     61.29079       24.621      1
    6     5    10    11     1     16.38164       15.670      1
    6     5    11    10     1   -145.37841       23.843      1
    6     7     8     9     1   -171.27528       31.858      1
    6     7     9     8     1      0.14196       13.611      1
    7     6     5    10     1   -145.98417       22.949      1
    7     6     5    11     1    175.92357       29.708      1
   12    13    14    15     1   -175.05960       28.295      1
   12    13    15    14     1      3.07980       14.329      1
   13    12     3    16     1     58.38362       29.047      1
