1TPCN00697
8
    1res  C1    1    0.389   0.277   0.131
    1res  C2    2    0.237   0.071   0.043
    1res  C3    3    0.109  -0.179   0.036
    1res  C4    4   -0.179  -0.091  -0.081
    1res  C5    5   -0.215   0.155  -0.278
    1res  C6    6   -0.402   0.074  -0.073
    1res  C7    7   -0.488  -0.147  -0.013
    1res  C8    8   -0.317  -0.216   0.093
  10.00000  10.00000  10.00000
