[ moleculetype ]
; name        nrexcl
res           1

[ atoms ]
;    nr  type resnr resid  atom  cgnr     charge       mass
      1 SN4a      1 res   C1        1      0.000     54.000
      2 SN6       1 res   C2        2      0.000     54.000
      3 SC5       1 res   C3        3      0.000     54.000
      4 N4a       1 res   C4        4      0.000     72.000
      5 SC2       1 res   C5        5      0.000     54.000
      6 SN6       1 res   C6        6      0.000     54.000
      7 SC4       1 res   C7        7      0.000     54.000
      8 TC3       1 res   C8        8      0.000     36.000
      9 SC4       1 res   C9        9      0.000     54.000
     10 SC4       1 res   C10      10      0.000     54.000
     11 TC3       1 res   C11      11      0.000     36.000
     12 TN6       1 res   C12      12      0.000     36.000
     13 SN4a      1 res   C13      13      0.000     54.000
     14 SP2       1 res   C14      14      0.000     54.000
     15 TN6       1 res   C15      15      0.000     36.000
     16 TN4a      1 res   C16      16      0.000     36.000
     17 TC4       1 res   C17      17      0.000     36.000
     18 TN6       1 res   C18      18      0.000     36.000
     19 TN6       1 res   C19      19      0.000     36.000
     20 TN6       1 res   C20      20      0.000     36.000
     21 TN6       1 res   C21      21      0.000     36.000
     22 TN6       1 res   C22      22      0.000     36.000
     23 SN4a      1 res   C23      23      0.000     54.000
     24 TP1       1 res   C24      24      0.000     36.000
     25 TN6       1 res   C25      25      0.000     36.000
     26 TN6       1 res   C26      26      0.000     36.000
     27 TN6       1 res   C27      27      0.000     36.000
     28 SC4       1 res   C28      28      0.000     54.000
     29 TC3       1 res   C29      29      0.000     36.000
     30 SC4       1 res   C30      30      0.000     54.000

[ bonds ]
;  ai    aj   funct      b0(nm)        k
    1     2     1      0.42408    20000
    2     3     1      0.31112    20000
    2    30     1      0.33505    20000
    3     4     1      0.45653    20000
    3     6     1      0.33110    20000
    3     7     1      0.28320    20000
    3    30     1      0.28764    20000
    4     5     1      0.35716    20000
    6     7     1      0.28464    20000
    7     8     1      0.39707    20000
    7     9     1      0.30871    20000
    8     9     1      0.37870    20000
    9    10     1      0.26680    20000
    9    29     1      0.28462    20000
   10    11     1      0.25955    20000
   10    28     1      0.33405    20000
   10    29     1      0.31345    20000
   11    12     1      0.26367    20000
   12    13     1      0.31511    20000
   12    28     1      0.24742    20000
   13    14     1      0.33407    20000
   13    15     1      0.22997    20000
   13    22     1      0.26798    20000
   15    16     1      0.22008    20000
   15    21     1      0.23675    20000
   16    17     1      0.29512    20000
   16    20     1      0.25766    20000
   17    18     1      0.26346    20000
   18    19     1      0.21803    20000
   19    20     1      0.21487    20000
   21    22     1      0.22741    20000
   22    23     1      0.29287    20000
   23    24     1      0.31011    20000
   23    25     1      0.27710    20000
   23    27     1      0.25388    20000
   25    26     1      0.25795    20000
   26    27     1      0.26001    20000
