[ moleculetype ]
; name        nrexcl
res           1

[ atoms ]
;    nr  type resnr resid  atom  cgnr     charge       mass
      1 SC4       1 res   C1        1      0.000     54.000
      2 TC3       1 res   C2        2      0.000     36.000
      3 SC5       1 res   C3        3      0.000     54.000
      4 SN4a      1 res   C4        4      0.000     54.000
      5 TC3       1 res   C5        5      0.000     36.000
      6 SC4       1 res   C6        6      0.000     54.000
      7 SC4       1 res   C7        7      0.000     54.000
      8 TC3       1 res   C8        8      0.000     36.000
      9 TN6       1 res   C9        9      0.000     36.000
     10 SN4a      1 res   C10      10      0.000     54.000
     11 TN6       1 res   C11      11      0.000     36.000
     12 SN4a      1 res   C12      12      0.000     54.000
     13 TP1       1 res   C13      13      0.000     36.000
     14 TN6       1 res   C14      14      0.000     36.000
     15 TN6       1 res   C15      15      0.000     36.000
     16 SN4a      1 res   C16      16      0.000     54.000
     17 TP1       1 res   C17      17      0.000     36.000
     18 TN6       1 res   C18      18      0.000     36.000
     19 TN6       1 res   C19      19      0.000     36.000
     20 SN4a      1 res   C20      20      0.000     54.000
     21 TP1       1 res   C21      21      0.000     36.000
     22 TN6       1 res   C22      22      0.000     36.000
     23 TN6       1 res   C23      23      0.000     36.000
     24 TN6       1 res   C24      24      0.000     36.000
     25 TN6       1 res   C25      25      0.000     36.000
     26 TN6       1 res   C26      26      0.000     36.000
     27 SN4a      1 res   C27      27      0.000     54.000
     28 TN6       1 res   C28      28      0.000     36.000
     29 TN6       1 res   C29      29      0.000     36.000
     30 TN6       1 res   C30      30      0.000     36.000
     31 TN6       1 res   C31      31      0.000     36.000
     32 TN6       1 res   C32      32      0.000     36.000
     33 SN4a      1 res   C33      33      0.000     54.000
     34 TP1       1 res   C34      34      0.000     36.000
     35 TN6       1 res   C35      35      0.000     36.000
     36 TN6       1 res   C36      36      0.000     36.000
     37 TN6       1 res   C37      37      0.000     36.000
     38 SC4       1 res   C38      38      0.000     54.000
     39 TC3       1 res   C39      39      0.000     36.000
     40 SC4       1 res   C40      40      0.000     54.000
     41 TN6       1 res   C41      41      0.000     36.000

[ bonds ]
;  ai    aj   funct      b0(nm)        k
    1     2     1      0.29384    20000
    1     3     1      0.28371    20000
    2     3     1      0.27736    20000
    3     4     1      0.24495    20000
    3    41     1      0.35359    20000
    4     5     1      0.38481    20000
    4    40     1      0.29620    20000
    5     6     1      0.36937    20000
    6     7     1      0.26340    20000
    6    39     1      0.28310    20000
    6    40     1      0.26834    20000
    7     8     1      0.26239    20000
    7    38     1      0.35450    20000
    7    39     1      0.30658    20000
    8     9     1      0.26302    20000
    9    10     1      0.31992    20000
    9    38     1      0.24022    20000
   10    11     1      0.22909    20000
   10    32     1      0.29452    20000
   11    12     1      0.27463    20000
   11    31     1      0.22299    20000
   12    13     1      0.31426    20000
   12    14     1      0.25375    20000
   12    26     1      0.26830    20000
   14    15     1      0.23861    20000
   15    16     1      0.26564    20000
   15    26     1      0.21293    20000
   16    17     1      0.29823    20000
   16    18     1      0.29315    20000
   16    25     1      0.27752    20000
   18    19     1      0.23955    20000
   19    20     1      0.29723    20000
   19    25     1      0.24104    20000
   20    21     1      0.28897    20000
   20    22     1      0.28512    20000
   20    24     1      0.28695    20000
   22    23     1      0.23829    20000
   23    24     1      0.24863    20000
   26    27     1      0.30914    20000
   27    28     1      0.27171    20000
   27    30     1      0.28419    20000
   28    29     1      0.24889    20000
   29    30     1      0.26231    20000
   31    32     1      0.22243    20000
   32    33     1      0.25766    20000
   33    34     1      0.32011    20000
   33    35     1      0.25434    20000
   33    37     1      0.28367    20000
   35    36     1      0.25024    20000
   36    37     1      0.24251    20000
   40    41     1      0.36730    20000
