1TPCN00800
13
    1res  C1    1    0.348  -0.251  -0.142
    1res  C2    2    0.075  -0.217  -0.130
    1res  C3    3   -0.096  -0.105  -0.051
    1res  C4    4   -0.304  -0.238  -0.100
    1res  C5    5   -0.290  -0.004  -0.032
    1res  C6    6   -0.221   0.202  -0.004
    1res  C7    7   -0.419   0.110  -0.000
    1res  C8    8   -0.538   0.326   0.047
    1res  C9    9   -0.665   0.063   0.014
    1res  C10   10    0.061   0.006   0.056
    1res  C11   11    0.297  -0.001   0.155
    1res  C12   12    0.507   0.086   0.319
    1res  C13   13    0.433   0.223  -0.132
  10.00000  10.00000  10.00000
