1TPCN06361
17
    1res  C1    1   -1.253   0.063  -0.356
    1res  C2    2   -1.307  -0.033  -0.092
    1res  C3    3   -1.262   0.168   0.067
    1res  C4    4   -1.046   0.062   0.268
    1res  C5    5   -0.996  -0.084   0.028
    1res  C6    6   -0.830   0.079  -0.187
    1res  C7    7   -0.733  -0.043   0.162
    1res  C8    8   -0.488   0.055  -0.065
    1res  C9    9   -0.370   0.096   0.159
    1res  C10   10    0.014  -0.030   0.250
    1res  C11   11    0.333  -0.023   0.075
    1res  C12   12    0.770  -0.225   0.020
    1res  C13   13    1.044   0.040   0.071
    1res  C14   14    1.436   0.223   0.026
    1res  C15   15    1.800  -0.014  -0.157
    1res  C16   16   -0.283  -0.190  -0.033
    1res  C17   17   -0.664  -0.218  -0.068
  10.00000  10.00000  10.00000
