1TPCN02364
13
    1res  C1    1    0.064   0.067   0.364
    1res  C2    2   -0.020  -0.038   0.132
    1res  C3    3   -0.269   0.134   0.076
    1res  C4    4   -0.594   0.228   0.013
    1res  C5    5   -0.178  -0.112  -0.008
    1res  C6    6   -0.405  -0.126  -0.231
    1res  C7    7   -0.086   0.024  -0.304
    1res  C8    8    0.204   0.021   0.049
    1res  C9    9    0.356  -0.323  -0.054
    1res  C10   10    0.569  -0.498  -0.010
    1res  C11   11    0.277   0.460  -0.081
    1res  C12   12    0.295   0.550   0.223
    1res  C13   13   -0.127  -0.363  -0.097
  10.00000  10.00000  10.00000
