[ moleculetype ]
; name        nrexcl
res           1

[ atoms ]
;    nr  type  resnr resid  atom  cgnr     charge       mass
      1 SN3r      1 res   C1        1      0.000     54.000
      2 TN3r      1 res   C2        2      0.000     36.000
      3 TC5       1 res   C3        3      0.000     36.000
      4 TN6a      1 res   C4        4      0.000     36.000
      5 N4a       1 res   C5        5      0.000     72.000
      6 TC5       1 res   C6        6      0.000     36.000
      7 TC5       1 res   C7        7      0.000     36.000
      8 TC5       1 res   C8        8      0.000     36.000
      9 TC5       1 res   C9        9      0.000     36.000
     10 SC3       1 res   C10      10      0.000     54.000

[ bonds ]
;  ai    aj   funct      b0(nm)          k(kJ/mol/nm^2)
    1     3     1      0.26838           4608.0
    3     4     1      0.26885         148700.5
    3     9     1      0.25390         256784.7
    4     5     1      0.26549          31504.7
    4     9     1      0.21851         204600.7
    5     6     1      0.29641          14997.2
    6     7     1      0.25592         164047.5
    6     8     1      0.29748         345400.5
    7     8     1      0.28752         247493.7
    9    10     1      0.20358         103597.7

[ angles ]
;  ai    aj    ak  funct     th0(deg)        k(kJ/mol/rad^2)
    1     3     4     1    131.75259            75.81
    1     3     9     1     94.11198            88.99
    3     4     5     1     68.47398           865.78
    3     4     9     1     61.77565          6553.35
    3     9     4     1     68.91102          4598.67
    3     9    10     1    166.17659           348.96
    4     3     9     1     49.31333          7060.21
    4     5     6     1    106.23171           127.67
    4     9    10     1    117.90986           951.25
    5     4     9     1    129.73693           857.77
    5     6     7     1    128.83153           644.42
    5     6     8     1     71.25634           497.62
    6     7     8     1     66.07973          9724.66
    6     8     7     1     51.84902          9274.45
    7     6     8     1     62.07125          8100.80
