[ moleculetype ]
; name        nrexcl
res           1

[ atoms ]
;    nr  type resnr resid  atom  cgnr     charge       mass
      1 SC4       1 res   C1        1      0.000     54.000
      2 N4a       1 res   C2        2      0.000     72.000
      3 P4        1 res   C3        3      0.000     72.000
      4 SN4a      1 res   C4        4      0.000     54.000
      5 SP2       1 res   C5        5      0.000     54.000
      6 TN6       1 res   C6        6      0.000     36.000
      7 TN6       1 res   C7        7      0.000     36.000
      8 TN6       1 res   C8        8      0.000     36.000
      9 TC3       1 res   C9        9      0.000     36.000
     10 TC5       1 res   C10      10      0.000     36.000
     11 TN2a      1 res   C11      11      0.000     36.000
     12 TC3       1 res   C12      12      0.000     36.000
     13 SC4       1 res   C13      13      0.000     54.000
     14 TC3       1 res   C14      14      0.000     36.000
     15 SC4       1 res   C15      15      0.000     54.000
     16 SC4       1 res   C16      16      0.000     54.000
     17 TC3       1 res   C17      17      0.000     36.000
     18 TN6       1 res   C18      18      0.000     36.000
     19 SN4a      1 res   C19      19      0.000     54.000
     20 TN6       1 res   C20      20      0.000     36.000
     21 SN4a      1 res   C21      21      0.000     54.000
     22 TP1       1 res   C22      22      0.000     36.000
     23 TN6       1 res   C23      23      0.000     36.000
     24 TN6       1 res   C24      24      0.000     36.000
     25 TN6       1 res   C25      25      0.000     36.000
     26 TN6       1 res   C26      26      0.000     36.000
     27 TN6       1 res   C27      27      0.000     36.000
     28 SN4a      1 res   C28      28      0.000     54.000
     29 TP1       1 res   C29      29      0.000     36.000
     30 TN6       1 res   C30      30      0.000     36.000
     31 TN6       1 res   C31      31      0.000     36.000
     32 TN6       1 res   C32      32      0.000     36.000
     33 SC4       1 res   C33      33      0.000     54.000
     34 TC3       1 res   C34      34      0.000     36.000

[ bonds ]
;  ai    aj   funct      b0(nm)        k
    1     2     1      0.29369    20000
    1     9     1      0.31320    20000
    1    10     1      0.29675    20000
    2     3     1      0.29009    20000
    3     4     1      0.39747    20000
    4     5     1      0.28167    20000
    4     6     1      0.28359    20000
    4     8     1      0.25068    20000
    6     7     1      0.22305    20000
    7     8     1      0.21663    20000
    9    10     1      0.24987    20000
   10    11     1      0.30080    20000
   10    12     1      0.26864    20000
   10    13     1      0.28150    20000
   12    13     1      0.27566    20000
   13    14     1      0.32305    20000
   13    15     1      0.34689    20000
   14    15     1      0.30248    20000
   15    16     1      0.41018    20000
   15    34     1      0.27893    20000
   16    17     1      0.28029    20000
   16    33     1      0.32733    20000
   16    34     1      0.36993    20000
   17    18     1      0.24852    20000
   18    19     1      0.33293    20000
   18    33     1      0.25049    20000
   19    20     1      0.23575    20000
   19    27     1      0.30162    20000
   20    21     1      0.30065    20000
   20    26     1      0.23895    20000
   21    22     1      0.28325    20000
   21    23     1      0.27872    20000
   21    25     1      0.28382    20000
   23    24     1      0.28126    20000
   24    25     1      0.25225    20000
   26    27     1      0.21699    20000
   27    28     1      0.33185    20000
   28    29     1      0.29115    20000
   28    30     1      0.23139    20000
   28    32     1      0.22678    20000
   30    31     1      0.23486    20000
   31    32     1      0.22310    20000
