[ moleculetype ]
; name        nrexcl
res           1

[ atoms ]
;    nr  type resnr resid  atom  cgnr     charge       mass
      1 SC4       1 res   C1        1      0.000     54.000
      2 TC3       1 res   C2        2      0.000     36.000
      3 SC3       1 res   C3        3      0.000     54.000
      4 SP2       1 res   C4        4      0.000     54.000
      5 TC3       1 res   C5        5      0.000     36.000
      6 SC4       1 res   C6        6      0.000     54.000
      7 TC3       1 res   C7        7      0.000     36.000
      8 SC4       1 res   C8        8      0.000     54.000
      9 SC4       1 res   C9        9      0.000     54.000
     10 TC3       1 res   C10      10      0.000     36.000
     11 TN6       1 res   C11      11      0.000     36.000
     12 SN4a      1 res   C12      12      0.000     54.000
     13 TN6       1 res   C13      13      0.000     36.000
     14 TN6       1 res   C14      14      0.000     36.000
     15 TN6       1 res   C15      15      0.000     36.000
     16 TN4a      1 res   C16      16      0.000     36.000
     17 TC4       1 res   C17      17      0.000     36.000
     18 TN6       1 res   C18      18      0.000     36.000
     19 SN6       1 res   C19      19      0.000     54.000
     20 TN6       1 res   C20      20      0.000     36.000
     21 TN4a      1 res   C21      21      0.000     36.000
     22 TN6       1 res   C22      22      0.000     36.000
     23 TN6       1 res   C23      23      0.000     36.000
     24 TN6       1 res   C24      24      0.000     36.000
     25 SC4       1 res   C25      25      0.000     54.000
     26 TC3       1 res   C26      26      0.000     36.000

[ bonds ]
;  ai    aj   funct      b0(nm)        k
    1     2     1      0.28386    20000
    2     3     1      0.18227    20000
    3     4     1      0.27649    20000
    3     5     1      0.28492    20000
    3     6     1      0.36349    20000
    5     6     1      0.28174    20000
    6     7     1      0.29215    20000
    6     8     1      0.26576    20000
    7     8     1      0.37509    20000
    8     9     1      0.26384    20000
    8    26     1      0.28459    20000
    9    10     1      0.26239    20000
    9    25     1      0.35260    20000
    9    26     1      0.30926    20000
   10    11     1      0.26279    20000
   11    12     1      0.29715    20000
   11    25     1      0.24735    20000
   12    13     1      0.27773    20000
   12    15     1      0.27600    20000
   13    14     1      0.22652    20000
   14    15     1      0.23843    20000
   15    16     1      0.19581    20000
   16    17     1      0.29614    20000
   16    19     1      0.25607    20000
   17    18     1      0.27610    20000
   18    19     1      0.29078    20000
   19    20     1      0.23524    20000
   20    21     1      0.26014    20000
   20    24     1      0.22252    20000
   21    22     1      0.24860    20000
   22    23     1      0.26255    20000
   23    24     1      0.25030    20000
