1TPCN06193
26
    1res  C1    1   -0.662   0.466   0.159
    1res  C2    2   -0.748   0.248   0.320
    1res  C3    3   -0.781   0.083   0.249
    1res  C4    4   -0.978  -0.027   0.091
    1res  C5    5   -0.685  -0.169   0.157
    1res  C6    6   -0.581   0.000  -0.043
    1res  C7    7   -0.367   0.183   0.036
    1res  C8    8   -0.381  -0.164  -0.104
    1res  C9    9   -0.120  -0.132  -0.095
    1res  C10   10    0.042   0.075  -0.093
    1res  C11   11    0.182  -0.143  -0.049
    1res  C12   12    0.198  -0.398  -0.200
    1res  C13   13    0.287  -0.446  -0.459
    1res  C14   14    0.300  -0.220  -0.462
    1res  C15   15    0.399  -0.214  -0.245
    1res  C16   16    0.560  -0.108  -0.211
    1res  C17   17    0.760  -0.170  -0.002
    1res  C18   18    0.821  -0.002  -0.213
    1res  C19   19    0.572   0.146  -0.240
    1res  C20   20    0.644   0.276  -0.057
    1res  C21   21    0.541   0.288   0.182
    1res  C22   22    0.717   0.400   0.316
    1res  C23   23    0.874   0.240   0.179
    1res  C24   24    0.844   0.371  -0.032
    1res  C25   25    0.095  -0.208   0.174
    1res  C26   26   -0.277  -0.229   0.153
  10.00000  10.00000  10.00000
