[ moleculetype ]
; name        nrexcl
res           1

[ atoms ]
;    nr  type  resnr resid  atom  cgnr     charge       mass
      1 TC3       1 res   C1        1      0.000     36.000
      2 SC3       1 res   C2        2      0.000     54.000
      3 SN6d      1 res   C3        3      0.000     54.000
      4 TC3       1 res   C4        4      0.000     36.000
      5 SN6       1 res   C5        5      0.000     54.000
      6 TN1       1 res   C6        6      0.000     36.000
      7 TC5       1 res   C7        7      0.000     36.000
      8 TC5       1 res   C8        8      0.000     36.000
      9 TC5       1 res   C9        9      0.000     36.000
     10 N4a       1 res   C10      10      0.000     72.000
     11 TN4a      1 res   C11      11      0.000     36.000

[ constraints ]
;  ai    aj   funct      b0(nm)
    1     2     1      0.41312
    2     3     1      0.24900
    4     5     1      0.24398
    5     7     1      0.21327
    7     9     1      0.24854
    3     4     1      0.27833
    7     8     1      0.24834
    5     6     1      0.18106
    6     7     1      0.18130
    8     9     1      0.29041

[ bonds ]
;  ai    aj   funct      b0(nm)          k(kJ/mol/nm^2)
    3    11     1      0.26267          14664.5
    6    10     1      0.31321          17613.2
    2    10     1      0.33981           3958.1

[ angles ]
;  ai    aj    ak  funct     th0(deg)        k(kJ/mol/rad^2)
    1     2     3     1     66.61899          2660.77
    1     2    10     1    109.62932           197.57
    2     3     4     1    122.09038           450.73
    2     3    11     1     83.03010           665.59
    2    10     6     1     53.25875           989.44
    3     2    10     1    148.57611           202.28
    3     4     5     1     63.99621          2306.90
    4     3    11     1    123.20172            96.95
    4     5     6     1    171.45439           541.84
    4     5     7     1    120.61339           632.53
    5     6     7     1     72.12010          2399.03
    5     6    10     1    138.15108            94.63
    5     7     6     1     53.88795          3873.46
    5     7     8     1    156.17301          1622.91
    5     7     9     1    131.16707          1982.14
    6     5     7     1     53.99213          5413.91
    6     7     8     1    102.89176          2004.16
    6     7     9     1    172.24874           794.09
    7     6    10     1    147.99610            91.82
    7     8     9     1     54.26521         10302.31
    7     9     8     1     54.20192          8319.72
    8     7     9     1     71.53287          5895.04

[ dihedrals ]
;  ai    aj    ak    al  funct   phi0(deg)        k(kJ/mol)   mult
    1     2     3     4     1     71.75581       17.767      1
    1     2     3    11     1    -53.31209       21.034      1
    1     2    10     6     1   -111.12568       17.041      1
    2     3     4     5     1   -163.98727        7.829      1
    2    10     6     5     1   -150.98502       17.663      1
    2    10     6     7     1     44.63212       20.875      1
    3     2    10     6     1    173.54962       22.192      1
    3     4     5     6     1    -95.31063       22.638      1
    3     4     5     7     1    -55.02300       11.492      1
    4     3     2    10     1    160.66370       22.217      1
    4     5     6     7     1   -137.68959       23.835      1
    4     5     6    10     1     49.67543       24.292      1
    4     5     7     6     1      6.01369        9.307      1
    4     5     7     8     1      3.96804       21.646      1
    4     5     7     9     1   -170.15584       14.922      1
    5     4     3    11     1    -61.89124       10.753      1
    5     6     7     8     1     -1.96454       10.773      1
    5     6     7     9     1     -7.48134       32.391      1
    5     7     6    10     1     -5.55742       22.797      1
    5     7     8     9     1      4.20418       21.296      1
    5     7     9     8     1     -4.08703       15.019      1
    6     5     7     8     1    177.20782       20.959      1
    6     5     7     9     1      2.75524       14.288      1
    6     7     8     9     1      3.60318       12.126      1
    6     7     9     8     1   -174.59991       30.313      1
    7     5     6    10     1     10.11858       19.097      1
    8     7     6    10     1    174.90541       22.990      1
    9     7     6    10     1    158.82051       28.884      1
   10     2     3    11     1     34.24846       24.474      1
