[ moleculetype ]
; name        nrexcl
res           1

[ atoms ]
;    nr  type resnr resid  atom  cgnr     charge       mass
      1 TC4       1 res   C1        1      0.000     36.000
      2 TC3       1 res   C2        2      0.000     36.000
      3 TC3       1 res   C3        3      0.000     36.000
      4 TC3       1 res   C4        4      0.000     36.000
      5 SC5       1 res   C5        5      0.000     54.000
      6 TC4       1 res   C6        6      0.000     36.000
      7 SC3       1 res   C7        7      0.000     54.000
      8 TN2a      1 res   C8        8      0.000     36.000
      9 TC3       1 res   C9        9      0.000     36.000
     10 SP2       1 res   C10      10      0.000     54.000
     11 TN3r      1 res   C11      11      0.000     36.000
     12 TC4       1 res   C12      12      0.000     36.000
     13 SC4       1 res   C13      13      0.000     54.000
     14 TN6a      1 res   C14      14      0.000     36.000
     15 SC4       1 res   C15      15      0.000     54.000
     16 TN6d      1 res   C16      16      0.000     36.000
     17 TC3       1 res   C17      17      0.000     36.000
     18 TN6       1 res   C18      18      0.000     36.000

[ bonds ]
;  ai    aj   funct      b0(nm)        k
    1     2     1      0.31672    20000
    1    18     1      0.27993    20000
    2     3     1      0.24895    20000
    2    17     1      0.26183    20000
    3     4     1      0.30548    20000
    3    17     1      0.29606    20000
    3    18     1      0.28561    20000
    4     5     1      0.32450    20000
    5     6     1      0.35909    20000
    5     7     1      0.30236    20000
    5     8     1      0.25090    20000
    5    16     1      0.25400    20000
    5    17     1      0.25544    20000
    6     7     1      0.35847    20000
    6    16     1      0.27657    20000
    8     9     1      0.19807    20000
    9    10     1      0.30075    20000
    9    11     1      0.25228    20000
    9    16     1      0.29591    20000
   11    12     1      0.33622    20000
   12    13     1      0.40169    20000
   12    15     1      0.39611    20000
   13    14     1      0.25556    20000
   14    15     1      0.26114    20000
