[ moleculetype ]
; name        nrexcl
res           1

[ atoms ]
;    nr  type  resnr resid  atom  cgnr     charge       mass
      1 SC4       1 res   C1        1      0.000     54.000
      2 TN4a      1 res   C2        2      0.000     36.000
      3 TN6a      1 res   C3        3      0.000     36.000
      4 SN6       1 res   C4        4      0.000     54.000
      5 SN3r      1 res   C5        5      0.000     54.000
      6 SN4a      1 res   C6        6      0.000     54.000
      7 N4a       1 res   C7        7      0.000     72.000
      8 TC5       1 res   C8        8      0.000     36.000
      9 TC5       1 res   C9        9      0.000     36.000
     10 SN6       1 res   C10      10      0.000     54.000
     11 TC5       1 res   C11      11      0.000     36.000
     12 TN6       1 res   C12      12      0.000     36.000
     13 TN6       1 res   C13      13      0.000     36.000
     14 TN6       1 res   C14      14      0.000     36.000

[ bonds ]
;  ai    aj   funct      b0(nm)          k(kJ/mol/nm^2)
    1     2     1      0.31654          25273.7
    2     3     1      0.26782          77675.8
    2     4     1      0.21994          55035.8
    3     4     1      0.31485          94749.6
    4     5     1      0.33039          24387.2
    5     6     1      0.32825           3968.6
    6     7     1      0.28359          21840.7
    6    12     1      0.25201          14656.6
    6    14     1      0.28432          96212.8
    8     9     1      0.22711          61277.4
    9    10     1      0.30163         157221.7
    9    11     1      0.29877         268930.8
   10    11     1      0.28517         116249.8
   12    13     1      0.23148           8791.8
   13    14     1      0.22242          22877.7

[ angles ]
;  ai    aj    ak  funct     th0(deg)        k(kJ/mol/rad^2)
    1     2     3     1    113.94931            18.89
    1     2     4     1    105.58440            53.57
    2     3     4     1     43.40659          3492.21
    2     4     3     1     56.82462          2189.98
    2     4     5     1    109.10161           394.13
    3     2     4     1     79.76855          1527.64
    3     4     5     1     55.55046           921.86
    4     5     6     1    116.61679            75.11
    5     6     7     1     81.85696           135.44
    5     6    12     1    143.70699           114.67
    5     6    14     1     78.69644            91.72
    6    12    13     1     85.49384           327.11
    6    14    13     1     79.55341          1050.83
    7     6    12     1     84.09344           449.47
    7     6    14     1    122.56596           233.99
    8     9    10     1    151.43571           855.92
    8     9    11     1     95.54433          1240.15
    9    10    11     1     61.13735          9912.30
    9    11    10     1     62.14919          7929.87
   10     9    11     1     56.71346          6312.47
   12     6    14     1     82.68501           908.65
   12    13    14     1    102.99258           389.72

[ dihedrals ]
;  ai    aj    ak    al  funct   phi0(deg)        k(kJ/mol)   mult
    1     2     3     4     1    -78.55368       20.730      1
    1     2     3     4     1     22.89873       17.089      2
    1     2     3     4     1    124.54440       11.919      3
    1     2     4     3     1     64.81303       21.146      1
    1     2     4     3     1    -50.42812       16.800      2
    1     2     4     3     1   -165.86106       10.635      3
    1     2     4     5     1     48.54396       26.275      1
    1     2     4     5     1    -83.31372       20.115      2
    1     2     4     5     1    143.55383       11.972      3
    2     3     4     5     1    -16.53257       20.970      1
    2     3     4     5     1    146.60921       18.097      2
    2     3     4     5     1    -51.08745       13.898      3
    2     4     5     6     1    114.30438       20.037      1
    2     4     5     6     1     49.42926       16.741      2
    2     4     5     6     1    -13.10888       12.123      3
    3     2     4     5     1    168.08311       17.761      1
    3     2     4     5     1    156.03894       16.079      2
    3     2     4     5     1    143.69158       13.513      3
    3     4     5     6     1    100.27432       14.961      1
    3     4     5     6     1     20.45821       13.865      2
    3     4     5     6     1    -59.55981       12.165      3
    4     5     6     7     1    147.78718       20.811      1
    4     5     6     7     1    117.21983       15.857      2
    4     5     6     7     1     92.86923        9.362      3
    4     5     6    12     1   -142.47248       25.270      1
    4     5     6    12     1   -103.92474       18.428      2
    4     5     6    12     1    -61.87445       10.004      3
    4     5     6    14     1    -84.68758       19.431      1
    4     5     6    14     1     11.37565       16.473      2
    4     5     6    14     1    109.55949       12.241      3
    5     6    12    13     1   -141.90699       22.215      1
    5     6    12    13     1   -103.91009       18.637      2
    5     6    12    13     1    -66.17719       13.462      3
    5     6    14    13     1     51.10047       15.718      1
    5     6    14    13     1    -77.83137       14.621      2
    5     6    14    13     1    153.16618       12.908      3
    6    12    13    14     1   -155.89173       12.140      1
    6    12    13    14     1   -131.77732       11.644      2
    6    12    13    14     1   -107.64960       10.847      3
    6    14    13    12     1    158.90735       11.412      1
    6    14    13    12     1    137.81020       11.036      2
    6    14    13    12     1    116.70341       10.427      3
    7     6    12    13     1    -73.13207       11.509      1
    7     6    12    13     1     33.73137       11.127      2
    7     6    12    13     1    140.58521       10.506      3
    7     6    14    13     1    124.23591       15.012      1
    7     6    14    13     1     68.35272       13.995      2
    7     6    14    13     1     12.21553       12.416      3
    8     9    10    11     1    179.52340       20.889      1
    8     9    10    11     1    179.05179       17.692      2
    8     9    10    11     1    178.45980       13.153      3
    8     9    11    10     1     -0.08714       13.624      1
    8     9    11    10     1    179.85373       12.906      2
    8     9    11    10     1     -0.14587       11.768      3
   12     6    14    13     1   -159.00705       11.424      1
   12     6    14    13     1   -138.01414       11.010      2
   12     6    14    13     1   -117.02130       10.343      3
   13    12     6    14     1    162.06192        9.246      1
   13    12     6    14     1    144.10740        9.036      2
   13    12     6    14     1    126.11882        8.693      3
