[ moleculetype ]
; name        nrexcl
res           1

[ atoms ]
;    nr  type  resnr resid  atom  cgnr     charge       mass
      1 TX3       1 res   C1        1      0.000     36.000
      2 SX1       1 res   C2        2      0.000     54.000
      3 SX2       1 res   C3        3      0.000     54.000

[ constraints ]
;  ai    aj   funct      b0(nm)
    1     2     1      0.23388
    2     3     1      0.23839

[ bonds ]
;  ai    aj   funct      b0(nm)          k(kJ/mol/nm^2)

[ angles ]
;  ai    aj    ak  funct     th0(deg)        k(kJ/mol/rad^2)
    1     2     3     1     83.26767           799.70

[ dihedrals ]
;  ai    aj    ak    al  funct   phi0(deg)        k(kJ/mol)   mult
