[ moleculetype ]
; name        nrexcl
res           1

[ atoms ]
;    nr  type  resnr resid  atom  cgnr     charge       mass
      1 TX2       1 res   C1        1      0.000     36.000
      2 TX2       1 res   C2        2      0.000     36.000
      3 TX2       1 res   C3        3      0.000     36.000
      4 TX2       1 res   C4        4      0.000     36.000
      5 TX2       1 res   C5        5      0.000     36.000
      6 SN2a      1 res   C6        6      0.000     54.000

[ constraints ]
;  ai    aj   funct      b0(nm)
    1     2     1      0.23335
    2     3     1      0.23349
    4     5     1      0.23374
    3     4     1      0.23369

[ bonds ]
;  ai    aj   funct      b0(nm)          k(kJ/mol/nm^2)
    5     6     1      0.29869           1779.9
    1     6     1      0.28999           1960.5

[ angles ]
;  ai    aj    ak  funct     th0(deg)        k(kJ/mol/rad^2)
    1     2     3     1    119.21149           980.46
    1     6     5     1     85.01588          1292.36
    2     1     6     1    131.93423           122.41
    2     3     4     1    118.97401          1219.56
    3     4     5     1    118.95524           922.31
    4     5     6     1    130.52149           160.62

[ dihedrals ]
;  ai    aj    ak    al  funct   phi0(deg)        k(kJ/mol)   mult
    1     2     3     4     1   -179.98473       21.773      1
    1     6     5     4     1   -171.99501       26.698      1
    2     1     6     5     1    166.75348       29.334      1
    2     3     4     5     1    178.15022       25.350      1
    3     2     1     6     1   -167.43504       27.417      1
    3     4     5     6     1    172.90657       27.002      1
