[ moleculetype ]
; name        nrexcl
res           1

[ atoms ]
;    nr  type  resnr resid  atom  cgnr     charge       mass
      1 SX2       1 res   C1        1      0.000     54.000
      2 TN6       1 res   C2        2      0.000     36.000
      3 SX2       1 res   C3        3      0.000     54.000
      4 TX2       1 res   C4        4      0.000     36.000

[ bonds ]
;  ai    aj   funct      b0(nm)          k(kJ/mol/nm^2)
    1     2     1      0.31637          48706.2
    1     4     1      0.30414          68146.5
    2     3     1      0.28117          30312.3
    3     4     1      0.30362          71703.9

[ angles ]
;  ai    aj    ak  funct     th0(deg)        k(kJ/mol/rad^2)
    1     2     3     1     75.59048          7712.98
    1     4     3     1     74.37583          5160.32
    2     1     4     1    100.39713          1045.67
    2     3     4     1    109.17841          1027.49

[ dihedrals ]
;  ai    aj    ak    al  funct   phi0(deg)        k(kJ/mol)   mult
    1     2     3     4     1    179.96107        9.342      1
    1     2     3     4     1    179.92207        9.144      2
    1     2     3     4     1    179.88293        8.819      3
    1     4     3     2     1   -179.96843        9.348      1
    1     4     3     2     1   -179.93695        9.149      2
    1     4     3     2     1   -179.90564        8.823      3
    2     1     4     3     1    179.03754        8.574      1
    2     1     4     3     1    178.07586        8.422      2
    2     1     4     3     1    177.11581        8.172      3
    3     2     1     4     1   -179.02700        8.615      1
    3     2     1     4     1   -178.05474        8.460      2
    3     2     1     4     1   -177.08402        8.206      3
