1TPCN03960
24
    1res  C1    1   -0.730   0.073   0.187
    1res  C2    2   -0.566  -0.181   0.168
    1res  C3    3   -0.447  -0.113   0.007
    1res  C4    4   -0.346   0.070   0.041
    1res  C5    5   -0.145   0.081   0.207
    1res  C6    6    0.130   0.171   0.225
    1res  C7    7    0.105   0.039  -0.119
    1res  C8    8    0.138  -0.202   0.075
    1res  C9    9    0.406   0.030   0.151
    1res  C10   10    0.332  -0.167  -0.184
    1res  C11   11    0.595   0.017  -0.176
    1res  C12   12    0.821   0.196  -0.081
    1res  C13   13    0.805  -0.077   0.011
    1res  C14   14    0.669  -0.338  -0.253
    1res  C15   15    0.490  -0.287   0.038
    1res  C16   16   -0.104   0.286  -0.106
    1res  C17   17   -0.060   0.433   0.151
    1res  C18   18   -0.399   0.144  -0.171
    1res  C19   19   -0.540   0.261  -0.280
    1res  C20   20   -0.539  -0.011  -0.307
    1res  C21   21   -0.341  -0.132  -0.196
    1res  C22   22   -0.701  -0.336   0.129
    1res  C23   23   -0.892  -0.238   0.027
    1res  C24   24   -0.924  -0.092   0.245
  10.00000  10.00000  10.00000
