1TPCN00420
9
    1res  C1    1   -0.386   0.025  -0.194
    1res  C2    2   -0.341   0.177   0.082
    1res  C3    3   -0.190  -0.030   0.172
    1res  C4    4   -0.343  -0.201  -0.022
    1res  C5    5   -0.105  -0.038  -0.079
    1res  C6    6    0.131  -0.040   0.159
    1res  C7    7    0.368  -0.076  -0.055
    1res  C8    8    0.584  -0.059  -0.196
    1res  C9    9    0.547   0.164  -0.012
  10.00000  10.00000  10.00000
