1TPCN04832
24
    1res  C1    1   -0.929  -0.255   0.040
    1res  C2    2   -0.972   0.036   0.077
    1res  C3    3   -0.727  -0.063   0.009
    1res  C4    4   -0.821   0.230  -0.193
    1res  C5    5   -0.639   0.217   0.148
    1res  C6    6   -0.455   0.184  -0.043
    1res  C7    7   -0.392  -0.098  -0.155
    1res  C8    8   -0.357  -0.065   0.176
    1res  C9    9   -0.069  -0.035   0.085
    1res  C10   10    0.033  -0.161  -0.125
    1res  C11   11    0.207   0.020  -0.049
    1res  C12   12    0.482   0.162  -0.040
    1res  C13   13    0.794   0.230  -0.153
    1res  C14   14    0.677   0.159   0.139
    1res  C15   15    0.627  -0.070   0.087
    1res  C16   16    0.839  -0.142   0.062
    1res  C17   17    1.095   0.031   0.102
    1res  C18   18    1.102  -0.219  -0.040
    1res  C19   19    0.891  -0.256  -0.219
    1res  C20   20    0.810  -0.372  -0.015
    1res  C21   21    0.406  -0.074   0.089
    1res  C22   22    0.121   0.259  -0.043
    1res  C23   23    0.064   0.165  -0.306
    1res  C24   24   -0.181   0.200   0.156
  10.00000  10.00000  10.00000
