[ moleculetype ]
; name        nrexcl
res           1

[ atoms ]
;    nr  type  resnr resid  atom  cgnr     charge       mass
      1 TC3       1 res   C1        1      0.000     36.000
      2 TC5       1 res   C2        2      0.000     36.000
      3 TC5       1 res   C3        3      0.000     36.000
      4 TN6d      1 res   C4        4      0.000     36.000

[ bonds ]
;  ai    aj   funct      b0(nm)          k(kJ/mol/nm^2)
    1     2     1      0.28464           5488.6
    2     3     1      0.24039         115266.5
    2     4     1      0.26871         171540.6
    3     4     1      0.24742          97093.4

[ angles ]
;  ai    aj    ak  funct     th0(deg)        k(kJ/mol/rad^2)
    1     2     3     1    125.28894            82.51
    1     2     4     1     69.93927            78.27
    2     3     4     1     66.83231          4375.89
    2     4     3     1     55.33704          3888.14
    3     2     4     1     57.83066          4481.17

[ dihedrals ]
;  ai    aj    ak    al  funct   phi0(deg)        k(kJ/mol)   mult
    1     2     3     4     1   -179.32552       23.879      1
    1     2     3     4     1   -179.04261       18.957      2
    1     2     3     4     1    179.92001       12.207      3
    1     2     4     3     1      0.51539       21.608      1
    1     2     4     3     1   -179.26140       18.316      2
    1     2     4     3     1      0.15020       13.547      3
