[ moleculetype ]
; name        nrexcl
res           1

[ atoms ]
;    nr  type  resnr resid  atom  cgnr     charge       mass
      1 TC4       1 res   C1        1      0.000     36.000
      2 SN6       1 res   C2        2      0.000     54.000
      3 SN5a      1 res   C3        3      0.000     54.000
      4 SC5       1 res   C4        4      0.000     54.000
      5 N4a       1 res   C5        5      0.000     72.000
      6 TC5       1 res   C6        6      0.000     36.000
      7 TC5       1 res   C7        7      0.000     36.000
      8 TC5       1 res   C8        8      0.000     36.000
      9 TN6       1 res   C9        9      0.000     36.000
     10 TN4a      1 res   C10      10      0.000     36.000
     11 TC5       1 res   C11      11      0.000     36.000
     12 TN4a      1 res   C12      12      0.000     36.000
     13 TN4a      1 res   C13      13      0.000     36.000
     14 SN6       1 res   C14      14      0.000     54.000
     15 TC5       1 res   C15      15      0.000     36.000
     16 TC5       1 res   C16      16      0.000     36.000
     17 SN4a      1 res   C17      17      0.000     54.000
     18 TN3r      1 res   C18      18      0.000     36.000
     19 SN4a      1 res   C19      19      0.000     54.000
     20 SP4       1 res   C20      20      0.000     54.000
     21 TN6       1 res   C21      21      0.000     36.000
     22 SP4       1 res   C22      22      0.000     54.000
     23 TN6       1 res   C23      23      0.000     36.000
     24 SP4       1 res   C24      24      0.000     54.000

[ constraints ]
;  ai    aj   funct      b0(nm)
   13    14     1      0.25999
   22    23     1      0.28345
    6     8     1      0.29798
    1     3     1      0.35836
    9    10     1      0.20391
    1     9     1      0.26463
   11    13     1      0.24829
    2     4     1      0.28561
   14    15     1      0.30964
   17    23     1      0.29446
   19    20     1      0.27337
    6     7     1      0.25573
   15    16     1      0.28655
    1     2     1      0.36403
   10    11     1      0.24833
    2     3     1      0.28700
   11    12     1      0.23266
   20    21     1      0.30578
   11    24     1      0.27629
   14    17     1      0.35078
    7     8     1      0.28774
   17    22     1      0.27003
    4     9     1      0.22558
    3     4     1      0.31846
   12    13     1      0.24388
   14    16     1      0.26395
   17    18     1      0.23086

[ bonds ]
;  ai    aj   funct      b0(nm)          k(kJ/mol/nm^2)
    4     5     1      0.31650           2995.5
   19    21     1      0.27656           2341.7
   18    19     1      0.27828           1885.9
   10    24     1      0.24370          17937.9
    5     6     1      0.32249          13664.2

[ angles ]
;  ai    aj    ak  funct     th0(deg)        k(kJ/mol/rad^2)
    1     2     3     1     65.54637          4290.73
    1     2     4     1     73.68891          2189.43
    1     3     2     1     67.64456          2196.34
    1     3     4     1     71.06458          2597.98
    1     9     4     1    107.00216          1214.10
    1     9    10     1     97.25486            41.09
    2     1     3     1     46.80901          4701.23
    2     1     9     1     75.41984          1652.10
    2     3     4     1     55.99671          3019.21
    2     4     3     1     56.40466          5905.27
    2     4     5     1    120.38284            56.53
    2     4     9     1     99.66578          2442.41
    3     1     9     1     58.42231          3639.09
    3     2     4     1     67.59872          2969.56
    3     4     5     1     67.47032            74.18
    3     4     9     1     68.32355          2818.92
    4     5     6     1     93.04707            40.59
    4     9    10     1    102.94958           127.24
    5     4     9     1     74.13127           217.20
    5     6     7     1    157.33527           194.34
    5     6     8     1     96.89386           231.42
    6     7     8     1     66.19727          7273.44
    6     8     7     1     51.73288         22325.72
    7     6     8     1     62.06984          8077.02
    9    10    11     1    167.74142           253.77
    9    10    24     1    117.84465           489.19
   10    11    12     1     80.68286           289.71
   10    11    13     1     79.46771           687.94
   10    11    24     1     55.01642          1230.78
   10    24    11     1     56.67848          1169.05
   11    10    24     1     68.30530          1185.77
   11    12    13     1     62.75400          1165.59
   11    13    12     1     56.43921          1383.47
   11    13    14     1    143.54652           314.40
   12    11    13     1     60.80666          2490.86
   12    11    24     1    134.69223           142.97
   12    13    14     1     92.18156           984.94
   13    11    24     1     99.39188           286.58
   13    14    15     1     73.02571          1609.34
   13    14    16     1    131.81375          1311.47
   13    14    17     1    152.35165           809.89
   14    15    16     1     52.38158         11307.09
   14    16    15     1     68.31324          9080.17
   14    17    18     1    143.98573            67.31
   14    17    22     1    109.93769           168.07
   14    17    23     1     54.18481           346.52
   15    14    16     1     59.30519         14390.76
   15    14    17     1    131.21424           476.41
   16    14    17     1     74.24607          1317.62
   17    18    19     1     95.29688            63.62
   17    22    23     1     64.22734          1774.49
   17    23    22     1     55.67703          1722.13
   18    17    22     1     96.06021           756.61
   18    17    23     1    133.16003           250.08
   18    19    20     1    104.85323            27.43
   18    19    21     1     95.02764           100.28
   19    20    21     1     56.71891           172.17
   19    21    20     1     55.52724          1327.60
   20    19    21     1     67.74995           290.23
   22    17    23     1     60.09573          1423.89

[ dihedrals ]
;  ai    aj    ak    al  funct   phi0(deg)        k(kJ/mol)   mult
    1     2     3     4     1    -98.01580        4.796      1
    1     2     4     3     1    110.94024        4.002      1
    1     2     4     5     1     89.16892       12.937      1
    1     2     4     9     1    165.08280        7.039      1
    1     3     2     4     1     98.01580        4.796      1
    1     3     4     2     1   -104.95558        5.540      1
    1     3     4     5     1     55.96507       13.691      1
    1     3     4     9     1    136.07078        4.758      1
    1     9     4     2     1   -160.95530        8.575      1
    1     9     4     3     1   -112.96856        7.048      1
    1     9     4     5     1    -40.14710       15.736      1
    1     9    10    11     1   -163.50292       22.786      1
    1     9    10    24     1     55.05156       23.505      1
    2     1     3     4     1    120.95613        5.473      1
    2     1     9     4     1    164.98479        7.057      1
    2     1     9    10     1     57.99882        9.343      1
    2     3     1     9     1    -79.81643        7.723      1
    2     3     4     5     1    -19.95591       13.677      1
    2     3     4     9     1     61.01500        5.581      1
    2     4     5     6     1     81.50685       28.443      1
    2     4     9    10     1    -51.64676       18.316      1
    3     1     2     4     1   -107.04084        4.036      1
    3     1     9     4     1    116.96189        5.513      1
    3     1     9    10     1      9.96607        9.313      1
    3     2     1     9     1    119.99397        6.272      1
    3     2     4     5     1    160.83954       12.952      1
    3     2     4     9     1   -124.94243        5.523      1
    3     4     5     6     1     61.94508       28.603      1
    3     4     9    10     1     -3.50906       17.708      1
    4     2     1     9     1   -167.99966        6.295      1
    4     3     1     9     1   -139.08332        5.498      1
    4     5     6     7     1     18.47737       28.063      1
    4     5     6     8     1     10.71045       26.167      1
    4     9    10    11     1     89.79209       22.954      1
    4     9    10    24     1    -53.98106       24.283      1
    5     4     9    10     1     58.28445       19.735      1
    5     6     7     8     1   -177.15821       27.423      1
    5     6     8     7     1      0.44693       15.030      1
    6     5     4     9     1     -6.79035       27.599      1
    9    10    11    12     1   -125.32140       21.965      1
    9    10    11    13     1    -62.17075       19.861      1
    9    10    11    24     1     46.00770       24.380      1
    9    10    24    11     1     -8.84922       14.302      1
   10    11    12    13     1    -95.12319        8.550      1
   10    11    13    12     1     94.99527       11.471      1
   10    11    13    14     1    131.29118       18.312      1
   10    24    11    12     1   -170.96882       12.916      1
   10    24    11    13     1   -109.99248        9.288      1
   11    12    13    14     1     20.15745       16.363      1
   11    13    14    15     1    -39.60937       24.471      1
   11    13    14    16     1    -39.79267       23.723      1
   11    13    14    17     1    158.57974       27.337      1
   12    11    10    24     1      8.05799       10.765      1
   12    11    13    14     1   -146.86197       20.745      1
   12    13    11    24     1     43.94727       10.785      1
   12    13    14    15     1     -6.63078       21.575      1
   12    13    14    16     1     -2.77638       27.267      1
   12    13    14    17     1   -179.09111       24.693      1
   13    11    10    24     1     69.10854       10.087      1
   13    12    11    24     1   -104.94205       10.053      1
   13    14    15    16     1     -1.93697       13.532      1
   13    14    16    15     1    177.01962       16.990      1
   13    14    17    18     1     90.47831       29.084      1
   13    14    17    22     1   -140.91303       29.239      1
   13    14    17    23     1   -156.37714       28.458      1
   14    13    11    24     1     79.30766       19.621      1
   14    17    18    19     1    160.19218       26.038      1
   14    17    22    23     1    169.65572       15.653      1
   14    17    23    22     1    -16.47158       19.733      1
   15    14    17    18     1    -67.77455       25.670      1
   15    14    17    22     1     64.86188       22.071      1
   15    14    17    23     1     39.77775       21.528      1
   15    16    14    17     1    -11.45530       20.950      1
   16    14    17    18     1    -81.64170       27.249      1
   16    14    17    22     1     42.64425       24.143      1
   16    14    17    23     1     27.62544       26.820      1
   16    15    14    17     1    167.79138       22.843      1
   17    18    19    20     1     56.35333       26.589      1
   17    18    19    21     1    122.31411       27.789      1
   18    17    22    23     1    -41.24647       11.501      1
   18    17    23    22     1    114.87014       11.495      1
   18    19    20    21     1    -94.39048       19.056      1
   18    19    21    20     1     72.46333       23.466      1
   19    18    17    22     1     21.28934       24.473      1
   19    18    17    23     1     71.02347       23.062      1
