1TPCN01271
10
    1res  C1    1   -0.064  -0.100  -0.149
    1res  C2    2    0.213  -0.138  -0.107
    1res  C3    3    0.290  -0.334   0.043
    1res  C4    4    0.177  -0.425   0.251
    1res  C5    5    0.191   0.216  -0.028
    1res  C6    6    0.111   0.446  -0.098
    1res  C7    7   -0.067   0.269  -0.174
    1res  C8    8   -0.247   0.067   0.010
    1res  C9    9   -0.282   0.391   0.038
    1res  C10   10   -0.322   0.186   0.192
  10.00000  10.00000  10.00000
