[ moleculetype ]
; name        nrexcl
res           1

[ atoms ]
;    nr  type  resnr resid  atom  cgnr     charge       mass
      1 TN3r      1 res   C1        1      0.000     36.000
      2 TN4a      1 res   C2        2      0.000     36.000
      3 SC3       1 res   C3        3      0.000     54.000
      4 TC3       1 res   C4        4      0.000     36.000
      5 TC3       1 res   C5        5      0.000     36.000
      6 N4a       1 res   C6        6      0.000     72.000
      7 TC5       1 res   C7        7      0.000     36.000
      8 TC5       1 res   C8        8      0.000     36.000
      9 SN6       1 res   C9        9      0.000     54.000
     10 SN6       1 res   C10      10      0.000     54.000
     11 TN6       1 res   C11      11      0.000     36.000
     12 TN3r      1 res   C12      12      0.000     36.000

[ constraints ]
;  ai    aj   funct      b0(nm)
    5    11     1      0.21680
    2     3     1      0.18694
    4     5     1      0.27754
    3     4     1      0.27723
    7     8     1      0.27025
    8    10     1      0.33503
    9    10     1      0.29739
    6     7     1      0.31142
    8     9     1      0.29729

[ bonds ]
;  ai    aj   funct      b0(nm)          k(kJ/mol/nm^2)
    1     2     1      0.25616           7572.4
    3    11     1      0.27033          15827.2
    5     6     1      0.24797          10512.1
    3    12     1      0.36333           4603.9

[ angles ]
;  ai    aj    ak  funct     th0(deg)        k(kJ/mol/rad^2)
    1     2     3     1    108.82820            49.03
    2     3     4     1    146.21360            60.45
    2     3    11     1    124.61103            18.44
    2     3    12     1     69.90479           165.18
    3     4     5     1     81.93504          1276.86
    3    11     5     1     95.99616           949.48
    4     3    11     1     78.43344          1199.70
    4     3    12     1     98.78630            50.40
    4     5     6     1     91.43762           138.42
    4     5    11     1     88.09318           580.57
    5     6     7     1    141.67465           116.37
    6     5    11     1    139.28207            84.41
    6     7     8     1    136.85886           543.52
    7     8     9     1    138.02360          2187.79
    7     8    10     1     82.55198          1926.24
    8     9    10     1     68.57638          6448.52
    8    10     9     1     55.69742          6528.79
    9     8    10     1     55.72606          3790.40
   11     3    12     1     92.77692           240.09

[ dihedrals ]
;  ai    aj    ak    al  funct   phi0(deg)        k(kJ/mol)   mult
    1     2     3     4     1    -94.97846       25.527      1
    1     2     3    11     1     40.05257       28.847      1
    1     2     3    12     1    -41.36723       27.934      1
    2     3     4     5     1    -77.56325       27.534      1
    2     3    11     5     1     44.50185       17.023      1
    3     4     5     6     1    -10.24449       15.084      1
    3     4     5    11     1   -152.60032        7.770      1
    3    11     5     4     1    149.67508        8.488      1
    3    11     5     6     1     61.41948       22.273      1
    4     3    11     5     1   -149.79529        8.510      1
    4     5     6     7     1    125.81398       28.110      1
    5     4     3    11     1    157.52502        7.007      1
    5     4     3    12     1   -115.38514       11.415      1
    5     6     7     8     1    -58.01143       28.520      1
    5    11     3    12     1    109.15703       18.944      1
    6     7     8     9     1     -4.68291       22.278      1
    6     7     8    10     1     -3.60466       21.466      1
    7     6     5    11     1   -148.33785       24.531      1
    7     8     9    10     1    179.97801       13.632      1
    7     8    10     9     1     -0.01149        9.305      1
