Generated with MDTraj, t= 0.0
 75
    1UNL     C1    1  -0.136   0.035  -0.301
    1UNL     C2    2  -0.123   0.015  -0.172
    1UNL     C3    3  -0.233   0.035  -0.069
    1UNL     O1    4  -0.306   0.154  -0.094
    1UNL     C4    5  -0.420   0.156  -0.017
    1UNL     O2    6  -0.451   0.067   0.060
    1UNL     C5    7  -0.507   0.274  -0.031
    1UNL     C6    8  -0.474   0.376  -0.120
    1UNL     C7    9  -0.555   0.486  -0.132
    1UNL     C8   10  -0.672   0.498  -0.056
    1UNL     O3   11  -0.751   0.609  -0.070
    1UNL     C9   12  -0.704   0.395   0.033
    1UNL    C10   13  -0.622   0.285   0.045
    1UNL    C11   14  -0.164   0.039   0.071
    1UNL    C12   15  -0.012   0.037   0.044
    1UNL    C13   16   0.049   0.178   0.053
    1UNL    C14   17   0.056   0.229   0.196
    1UNL     O4   18   0.131   0.144   0.280
    1UNL    C15   19   0.003  -0.024  -0.099
    1UNL    C16   20   0.023  -0.176  -0.097
    1UNL     O5   21   0.127  -0.217  -0.009
    1UNL    C17   22   0.078  -0.271   0.114
    1UNL     O6   23   0.153  -0.234   0.231
    1UNL    C18   24   0.289  -0.283   0.234
    1UNL    C19   25   0.388  -0.171   0.204
    1UNL     O7   26   0.386  -0.139   0.067
    1UNL    C20   27   0.371  -0.005   0.045
    1UNL     O8   28   0.366   0.079   0.133
    1UNL    C21   29   0.357   0.035  -0.097
    1UNL    C22   30   0.365   0.168  -0.134
    1UNL    C23   31   0.344   0.205  -0.264
    1UNL    C24   32   0.315   0.109  -0.362
    1UNL     O9   33   0.291   0.143  -0.493
    1UNL    C25   34   0.310  -0.025  -0.324
    1UNL    C26   35   0.331  -0.062  -0.193
    1UNL    C27   36   0.312  -0.402   0.137
    1UNL    O10   37   0.435  -0.468   0.158
    1UNL    C28   38   0.192  -0.499   0.143
    1UNL    O11   39   0.216  -0.615   0.066
    1UNL    C29   40   0.061  -0.426   0.102
    1UNL    O12   41  -0.047  -0.472   0.181
    1UNL     H1   42  -0.230   0.066  -0.342
    1UNL     H2   43  -0.053   0.023  -0.368
    1UNL     H3   44  -0.305  -0.048  -0.075
    1UNL     H4   45  -0.385   0.366  -0.179
    1UNL     H5   46  -0.531   0.565  -0.201
    1UNL     H6   47  -0.829   0.603  -0.010
    1UNL     H7   48  -0.793   0.403   0.093
    1UNL     H8   49  -0.646   0.205   0.113
    1UNL     H9   50  -0.195   0.130   0.123
    1UNL    H10   51  -0.196  -0.045   0.133
    1UNL    H11   52   0.040  -0.027   0.117
    1UNL    H12   53  -0.008   0.246  -0.010
    1UNL    H13   54   0.150   0.176   0.011
    1UNL    H14   55   0.101   0.329   0.201
    1UNL    H15   56  -0.043   0.238   0.241
    1UNL    H16   57   0.215   0.119   0.234
    1UNL    H17   58   0.089   0.023  -0.148
    1UNL    H18   59  -0.070  -0.226  -0.070
    1UNL    H19   60   0.049  -0.212  -0.198
    1UNL    H20   61  -0.022  -0.228   0.132
    1UNL    H21   62   0.305  -0.319   0.337
    1UNL    H22   63   0.363  -0.081   0.261
    1UNL    H23   64   0.491  -0.200   0.228
    1UNL    H24   65   0.386   0.242  -0.058
    1UNL    H25   66   0.349   0.309  -0.293
    1UNL    H26   67   0.301   0.240  -0.505
    1UNL    H27   68   0.289  -0.099  -0.399
    1UNL    H28   69   0.325  -0.165  -0.162
    1UNL    H29   70   0.318  -0.359   0.036
    1UNL    H30   71   0.426  -0.534   0.231
    1UNL    H31   72   0.179  -0.534   0.247
    1UNL    H32   73   0.249  -0.590  -0.023
    1UNL    H33   74   0.040  -0.452  -0.002
    1UNL    H34   75  -0.130  -0.425   0.158
   0.00000   0.00000   0.00000   0.00000   0.00000   0.00000   0.00000   0.00000   0.00000
Generated with MDTraj, t= 1.0
 75
    1UNL     C1    1  -0.144   0.048  -0.299
    1UNL     C2    2  -0.133   0.020  -0.171
    1UNL     C3    3  -0.241   0.034  -0.064
    1UNL     O1    4  -0.310   0.155  -0.081
    1UNL     C4    5  -0.424   0.158  -0.003
    1UNL     O2    6  -0.450   0.072   0.080
    1UNL     C5    7  -0.509   0.270  -0.025
    1UNL     C6    8  -0.459   0.391  -0.069
    1UNL     C7    9  -0.549   0.496  -0.094
    1UNL     C8   10  -0.683   0.496  -0.053
    1UNL     O3   11  -0.762   0.608  -0.062
    1UNL     C9   12  -0.727   0.374   0.005
    1UNL    C10   13  -0.640   0.269   0.023
    1UNL    C11   14  -0.157   0.036   0.066
    1UNL    C12   15  -0.007   0.037   0.039
    1UNL    C13   16   0.053   0.180   0.050
    1UNL    C14   17   0.061   0.232   0.186
    1UNL     O4   18   0.145   0.154   0.270
    1UNL    C15   19   0.001  -0.023  -0.102
    1UNL    C16   20   0.029  -0.171  -0.114
    1UNL     O5   21   0.125  -0.221  -0.018
    1UNL    C17   22   0.066  -0.276   0.096
    1UNL     O6   23   0.128  -0.228   0.223
    1UNL    C18   24   0.263  -0.271   0.241
    1UNL    C19   25   0.371  -0.158   0.215
    1UNL     O7   26   0.374  -0.133   0.076
    1UNL    C20   27   0.382   0.001   0.047
    1UNL     O8   28   0.385   0.085   0.132
    1UNL    C21   29   0.380   0.029  -0.100
    1UNL    C22   30   0.378   0.161  -0.145
    1UNL    C23   31   0.371   0.198  -0.279
    1UNL    C24   32   0.333   0.098  -0.370
    1UNL     O9   33   0.302   0.129  -0.504
    1UNL    C25   34   0.321  -0.038  -0.325
    1UNL    C26   35   0.352  -0.067  -0.197
    1UNL    C27   36   0.302  -0.395   0.143
    1UNL    O10   37   0.425  -0.446   0.181
    1UNL    C28   38   0.190  -0.502   0.149
    1UNL    O11   39   0.216  -0.620   0.078
    1UNL    C29   40   0.057  -0.432   0.083
    1UNL    O12   41  -0.045  -0.495   0.165
    1UNL     H1   42  -0.236   0.089  -0.347
    1UNL     H2   43  -0.055   0.038  -0.355
    1UNL     H3   44  -0.325  -0.040  -0.072
    1UNL     H4   45  -0.352   0.414  -0.073
    1UNL     H5   46  -0.520   0.580  -0.167
    1UNL     H6   47  -0.855   0.598  -0.034
    1UNL     H7   48  -0.831   0.355   0.032
    1UNL     H8   49  -0.677   0.176   0.053
    1UNL     H9   50  -0.195   0.116   0.124
    1UNL    H10   51  -0.181  -0.055   0.124
    1UNL    H11   52   0.045  -0.033   0.105
    1UNL    H12   53   0.004   0.247  -0.015
    1UNL    H13   54   0.164   0.172   0.017
    1UNL    H14   55   0.114   0.333   0.190
    1UNL    H15   56  -0.034   0.253   0.234
    1UNL    H16   57   0.232   0.124   0.220
    1UNL    H17   58   0.091   0.030  -0.149
    1UNL    H18   59  -0.067  -0.223  -0.093
    1UNL    H19   60   0.061  -0.201  -0.219
    1UNL    H20   61  -0.039  -0.245   0.112
    1UNL    H21   62   0.275  -0.318   0.336
    1UNL    H22   63   0.343  -0.065   0.265
    1UNL    H23   64   0.479  -0.177   0.237
    1UNL    H24   65   0.378   0.244  -0.074
    1UNL    H25   66   0.396   0.304  -0.303
    1UNL    H26   67   0.276   0.226  -0.521
    1UNL    H27   68   0.273  -0.102  -0.403
    1UNL    H28   69   0.366  -0.172  -0.157
    1UNL    H29   70   0.313  -0.361   0.040
    1UNL    H30   71   0.466  -0.485   0.100
    1UNL    H31   72   0.166  -0.527   0.256
    1UNL    H32   73   0.316  -0.619   0.055
    1UNL    H33   74   0.041  -0.461  -0.024
    1UNL    H34   75  -0.130  -0.460   0.151
   0.00000   0.00000   0.00000   0.00000   0.00000   0.00000   0.00000   0.00000   0.00000
Generated with MDTraj, t= 2.0
 75
    1UNL     C1    1  -0.156   0.049  -0.301
    1UNL     C2    2  -0.131   0.026  -0.173
    1UNL     C3    3  -0.230   0.041  -0.059
    1UNL     O1    4  -0.296   0.166  -0.066
    1UNL     C4    5  -0.414   0.162   0.001
    1UNL     O2    6  -0.450   0.061   0.064
    1UNL     C5    7  -0.512   0.278  -0.007
    1UNL     C6    8  -0.461   0.404  -0.033
    1UNL     C7    9  -0.546   0.505  -0.060
    1UNL     C8   10  -0.680   0.485  -0.037
    1UNL     O3   11  -0.767   0.589  -0.062
    1UNL     C9   12  -0.733   0.360  -0.001
    1UNL    C10   13  -0.648   0.252  -0.000
    1UNL    C11   14  -0.148   0.040   0.078
    1UNL    C12   15   0.003   0.033   0.038
    1UNL    C13   16   0.061   0.176   0.042
    1UNL    C14   17   0.069   0.231   0.180
    1UNL     O4   18   0.151   0.158   0.273
    1UNL    C15   19  -0.006  -0.026  -0.105
    1UNL    C16   20  -0.004  -0.171  -0.105
    1UNL     O5   21   0.108  -0.229  -0.037
    1UNL    C17   22   0.066  -0.282   0.091
    1UNL     O6   23   0.119  -0.228   0.217
    1UNL    C18   24   0.252  -0.265   0.240
    1UNL    C19   25   0.349  -0.146   0.221
    1UNL     O7   26   0.355  -0.122   0.081
    1UNL    C20   27   0.382   0.007   0.044
    1UNL     O8   28   0.401   0.096   0.118
    1UNL    C21   29   0.379   0.034  -0.103
    1UNL    C22   30   0.388   0.166  -0.152
    1UNL    C23   31   0.382   0.188  -0.293
    1UNL    C24   32   0.343   0.084  -0.385
    1UNL     O9   33   0.336   0.114  -0.517
    1UNL    C25   34   0.322  -0.041  -0.324
    1UNL    C26   35   0.359  -0.067  -0.195
    1UNL    C27   36   0.301  -0.389   0.156
    1UNL    O10   37   0.414  -0.443   0.208
    1UNL    C28   38   0.188  -0.498   0.143
    1UNL    O11   39   0.236  -0.611   0.068
    1UNL    C29   40   0.055  -0.434   0.082
    1UNL    O12   41  -0.054  -0.493   0.146
    1UNL     H1   42  -0.253   0.085  -0.327
    1UNL     H2   43  -0.079   0.027  -0.374
    1UNL     H3   44  -0.303  -0.049  -0.065
    1UNL     H4   45  -0.354   0.419  -0.046
    1UNL     H5   46  -0.517   0.597  -0.089
    1UNL     H6   47  -0.860   0.565  -0.086
    1UNL     H7   48  -0.838   0.338  -0.012
    1UNL     H8   49  -0.672   0.140  -0.004
    1UNL     H9   50  -0.173   0.121   0.141
    1UNL    H10   51  -0.182  -0.043   0.144
    1UNL    H11   52   0.064  -0.035   0.099
    1UNL    H12   53  -0.002   0.237  -0.016
    1UNL    H13   54   0.171   0.174   0.001
    1UNL    H14   55   0.081   0.343   0.192
    1UNL    H15   56  -0.029   0.232   0.230
    1UNL    H16   57   0.239   0.141   0.239
    1UNL    H17   58   0.087   0.015  -0.164
    1UNL    H18   59  -0.104  -0.213  -0.074
    1UNL    H19   60   0.004  -0.209  -0.214
    1UNL    H20   61  -0.039  -0.252   0.116
    1UNL    H21   62   0.251  -0.297   0.343
    1UNL    H22   63   0.311  -0.051   0.263
    1UNL    H23   64   0.451  -0.168   0.262
    1UNL    H24   65   0.413   0.245  -0.085
    1UNL    H25   66   0.401   0.282  -0.330
    1UNL    H26   67   0.334   0.217  -0.533
    1UNL    H27   68   0.306  -0.121  -0.387
    1UNL    H28   69   0.359  -0.158  -0.149
    1UNL    H29   70   0.320  -0.344   0.061
    1UNL    H30   71   0.389  -0.476   0.298
    1UNL    H31   72   0.178  -0.544   0.248
    1UNL    H32   73   0.196  -0.613  -0.025
    1UNL    H33   74   0.059  -0.458  -0.029
    1UNL    H34   75  -0.131  -0.447   0.131
   0.00000   0.00000   0.00000   0.00000   0.00000   0.00000   0.00000   0.00000   0.00000
Generated with MDTraj, t= 3.0
 75
    1UNL     C1    1  -0.159   0.059  -0.289
    1UNL     C2    2  -0.128   0.024  -0.166
    1UNL     C3    3  -0.226   0.048  -0.052
    1UNL     O1    4  -0.297   0.175  -0.058
    1UNL     C4    5  -0.423   0.154   0.000
    1UNL     O2    6  -0.470   0.048   0.048
    1UNL     C5    7  -0.517   0.271  -0.006
    1UNL     C6    8  -0.469   0.404  -0.016
    1UNL     C7    9  -0.556   0.506  -0.039
    1UNL     C8   10  -0.696   0.487  -0.033
    1UNL     O3   11  -0.778   0.598  -0.048
    1UNL     C9   12  -0.738   0.359  -0.003
    1UNL    C10   13  -0.652   0.251  -0.008
    1UNL    C11   14  -0.140   0.037   0.084
    1UNL    C12   15   0.014   0.042   0.036
    1UNL    C13   16   0.069   0.189   0.040
    1UNL    C14   17   0.086   0.240   0.180
    1UNL     O4   18   0.167   0.160   0.263
    1UNL    C15   19   0.009  -0.021  -0.113
    1UNL    C16   20   0.030  -0.173  -0.120
    1UNL     O5   21   0.124  -0.229  -0.033
    1UNL    C17   22   0.058  -0.290   0.084
    1UNL     O6   23   0.103  -0.235   0.211
    1UNL    C18   24   0.237  -0.261   0.240
    1UNL    C19   25   0.322  -0.143   0.204
    1UNL     O7   26   0.332  -0.124   0.065
    1UNL    C20   27   0.363   0.005   0.035
    1UNL     O8   28   0.381   0.088   0.117
    1UNL    C21   29   0.372   0.033  -0.110
    1UNL    C22   30   0.402   0.164  -0.162
    1UNL    C23   31   0.401   0.182  -0.295
    1UNL    C24   32   0.366   0.081  -0.385
    1UNL     O9   33   0.365   0.102  -0.521
    1UNL    C25   34   0.332  -0.042  -0.335
    1UNL    C26   35   0.337  -0.063  -0.200
    1UNL    C27   36   0.294  -0.384   0.166
    1UNL    O10   37   0.407  -0.443   0.228
    1UNL    C28   38   0.189  -0.499   0.150
    1UNL    O11   39   0.256  -0.606   0.086
    1UNL    C29   40   0.057  -0.447   0.085
    1UNL    O12   41  -0.053  -0.490   0.153
    1UNL     H1   42  -0.253   0.099  -0.311
    1UNL     H2   43  -0.077   0.059  -0.364
    1UNL     H3   44  -0.310  -0.033  -0.056
    1UNL     H4   45  -0.367   0.433  -0.019
    1UNL     H5   46  -0.523   0.612  -0.010
    1UNL     H6   47  -0.868   0.579  -0.086
    1UNL     H7   48  -0.844   0.335   0.004
    1UNL     H8   49  -0.682   0.155  -0.004
    1UNL     H9   50  -0.171   0.118   0.149
    1UNL    H10   51  -0.161  -0.053   0.145
    1UNL    H11   52   0.073  -0.027   0.096
    1UNL    H12   53  -0.004   0.251  -0.005
    1UNL    H13   54   0.176   0.193  -0.005
    1UNL    H14   55   0.114   0.348   0.181
    1UNL    H15   56  -0.008   0.247   0.234
    1UNL    H16   57   0.255   0.141   0.210
    1UNL    H17   58   0.095   0.037  -0.170
    1UNL    H18   59  -0.061  -0.241  -0.121
    1UNL    H19   60   0.068  -0.194  -0.228
    1UNL    H20   61  -0.052  -0.262   0.089
    1UNL    H21   62   0.232  -0.292   0.344
    1UNL    H22   63   0.282  -0.053   0.258
    1UNL    H23   64   0.430  -0.162   0.230
    1UNL    H24   65   0.426   0.248  -0.098
    1UNL    H25   66   0.417   0.282  -0.344
    1UNL    H26   67   0.412   0.190  -0.541
    1UNL    H27   68   0.300  -0.124  -0.404
    1UNL    H28   69   0.311  -0.169  -0.167
    1UNL    H29   70   0.316  -0.344   0.070
    1UNL    H30   71   0.431  -0.532   0.190
    1UNL    H31   72   0.161  -0.538   0.254
    1UNL    H32   73   0.245  -0.608  -0.012
    1UNL    H33   74   0.036  -0.482  -0.024
    1UNL    H34   75  -0.134  -0.452   0.120
   0.00000   0.00000   0.00000   0.00000   0.00000   0.00000   0.00000   0.00000   0.00000
Generated with MDTraj, t= 4.0
 75
    1UNL     C1    1  -0.162   0.067  -0.287
    1UNL     C2    2  -0.128   0.045  -0.160
    1UNL     C3    3  -0.220   0.053  -0.041
    1UNL     O1    4  -0.295   0.174  -0.039
    1UNL     C4    5  -0.430   0.146  -0.012
    1UNL     O2    6  -0.470   0.035   0.023
    1UNL     C5    7  -0.518   0.258  -0.012
    1UNL     C6    8  -0.462   0.386  -0.039
    1UNL     C7    9  -0.548   0.497  -0.036
    1UNL     C8   10  -0.689   0.478  -0.023
    1UNL     O3   11  -0.766   0.589  -0.011
    1UNL     C9   12  -0.740   0.350  -0.011
    1UNL    C10   13  -0.653   0.245  -0.006
    1UNL    C11   14  -0.143   0.040   0.087
    1UNL    C12   15   0.002   0.037   0.044
    1UNL    C13   16   0.066   0.178   0.047
    1UNL    C14   17   0.076   0.251   0.190
    1UNL     O4   18   0.163   0.186   0.275
    1UNL    C15   19   0.004  -0.018  -0.109
    1UNL    C16   20   0.004  -0.170  -0.115
    1UNL     O5   21   0.104  -0.233  -0.033
    1UNL    C17   22   0.040  -0.289   0.091
    1UNL     O6   23   0.094  -0.215   0.208
    1UNL    C18   24   0.234  -0.250   0.232
    1UNL    C19   25   0.326  -0.134   0.191
    1UNL     O7   26   0.343  -0.126   0.057
    1UNL    C20   27   0.374   0.006   0.032
    1UNL     O8   28   0.387   0.095   0.110
    1UNL    C21   29   0.376   0.026  -0.115
    1UNL    C22   30   0.431   0.145  -0.167
    1UNL    C23   31   0.425   0.176  -0.298
    1UNL    C24   32   0.388   0.078  -0.391
    1UNL     O9   33   0.388   0.103  -0.527
    1UNL    C25   34   0.343  -0.045  -0.347
    1UNL    C26   35   0.325  -0.072  -0.202
    1UNL    C27   36   0.287  -0.376   0.164
    1UNL    O10   37   0.409  -0.422   0.223
    1UNL    C28   38   0.183  -0.485   0.158
    1UNL    O11   39   0.235  -0.600   0.099
    1UNL    C29   40   0.057  -0.444   0.084
    1UNL    O12   41  -0.058  -0.513   0.126
    1UNL     H1   42  -0.242   0.129  -0.323
    1UNL     H2   43  -0.092   0.028  -0.359
    1UNL     H3   44  -0.304  -0.030  -0.049
    1UNL     H4   45  -0.352   0.402  -0.030
    1UNL     H5   46  -0.513   0.597  -0.027
    1UNL     H6   47  -0.858   0.562   0.013
    1UNL     H7   48  -0.844   0.335  -0.005
    1UNL     H8   49  -0.690   0.135  -0.017
    1UNL     H9   50  -0.168   0.127   0.154
    1UNL    H10   51  -0.174  -0.051   0.136
    1UNL    H11   52   0.046  -0.042   0.105
    1UNL    H12   53   0.004   0.242  -0.012
    1UNL    H13   54   0.172   0.160   0.017
    1UNL    H14   55   0.110   0.354   0.187
    1UNL    H15   56  -0.024   0.258   0.235
    1UNL    H16   57   0.235   0.143   0.233
    1UNL    H17   58   0.094   0.034  -0.161
    1UNL    H18   59  -0.100  -0.197  -0.092
    1UNL    H19   60   0.014  -0.214  -0.221
    1UNL    H20   61  -0.073  -0.274   0.102
    1UNL    H21   62   0.244  -0.275   0.341
    1UNL    H22   63   0.275  -0.036   0.215
    1UNL    H23   64   0.428  -0.139   0.234
    1UNL    H24   65   0.456   0.221  -0.095
    1UNL    H25   66   0.454   0.269  -0.338
    1UNL    H26   67   0.435   0.187  -0.534
    1UNL    H27   68   0.315  -0.110  -0.424
    1UNL    H28   69   0.286  -0.159  -0.161
    1UNL    H29   70   0.310  -0.347   0.066
    1UNL    H30   71   0.446  -0.498   0.175
    1UNL    H31   72   0.162  -0.515   0.268
    1UNL    H32   73   0.160  -0.655   0.081
    1UNL    H33   74   0.069  -0.464  -0.028
    1UNL    H34   75  -0.113  -0.464   0.196
   0.00000   0.00000   0.00000   0.00000   0.00000   0.00000   0.00000   0.00000   0.00000
Generated with MDTraj, t= 5.0
 75
    1UNL     C1    1  -0.148   0.092  -0.278
    1UNL     C2    2  -0.122   0.039  -0.159
    1UNL     C3    3  -0.225   0.043  -0.047
    1UNL     O1    4  -0.312   0.165  -0.048
    1UNL     C4    5  -0.442   0.138  -0.031
    1UNL     O2    6  -0.496   0.030  -0.004
    1UNL     C5    7  -0.531   0.261  -0.015
    1UNL     C6    8  -0.476   0.385  -0.047
    1UNL     C7    9  -0.549   0.498  -0.030
    1UNL     C8   10  -0.686   0.482   0.000
    1UNL     O3   11  -0.773   0.589  -0.003
    1UNL     C9   12  -0.744   0.354   0.012
    1UNL    C10   13  -0.665   0.247   0.021
    1UNL    C11   14  -0.148   0.040   0.086
    1UNL    C12   15   0.003   0.041   0.043
    1UNL    C13   16   0.055   0.190   0.043
    1UNL    C14   17   0.075   0.241   0.190
    1UNL     O4   18   0.166   0.174   0.269
    1UNL    C15   19   0.010  -0.014  -0.108
    1UNL    C16   20   0.017  -0.172  -0.118
    1UNL     O5   21   0.115  -0.232  -0.027
    1UNL    C17   22   0.049  -0.288   0.087
    1UNL     O6   23   0.100  -0.231   0.214
    1UNL    C18   24   0.240  -0.255   0.225
    1UNL    C19   25   0.320  -0.116   0.202
    1UNL     O7   26   0.325  -0.099   0.065
    1UNL    C20   27   0.367   0.023   0.028
    1UNL     O8   28   0.397   0.118   0.095
    1UNL    C21   29   0.379   0.038  -0.123
    1UNL    C22   30   0.455   0.138  -0.173
    1UNL    C23   31   0.456   0.162  -0.308
    1UNL    C24   32   0.402   0.076  -0.395
    1UNL     O9   33   0.407   0.100  -0.529
    1UNL    C25   34   0.350  -0.049  -0.344
    1UNL    C26   35   0.332  -0.058  -0.213
    1UNL    C27   36   0.286  -0.383   0.156
    1UNL    O10   37   0.408  -0.437   0.208
    1UNL    C28   38   0.174  -0.488   0.174
    1UNL    O11   39   0.217  -0.627   0.131
    1UNL    C29   40   0.056  -0.442   0.085
    1UNL    O12   41  -0.061  -0.504   0.132
    1UNL     H1   42  -0.251   0.111  -0.312
    1UNL     H2   43  -0.073   0.123  -0.344
    1UNL     H3   44  -0.290  -0.057  -0.049
    1UNL     H4   45  -0.375   0.392  -0.071
    1UNL     H5   46  -0.505   0.593  -0.049
    1UNL     H6   47  -0.854   0.570   0.049
    1UNL     H7   48  -0.853   0.346   0.012
    1UNL     H8   49  -0.700   0.150   0.013
    1UNL     H9   50  -0.171   0.134   0.143
    1UNL    H10   51  -0.173  -0.043   0.150
    1UNL    H11   52   0.059  -0.020   0.112
    1UNL    H12   53  -0.027   0.244  -0.001
    1UNL    H13   54   0.153   0.185  -0.004
    1UNL    H14   55   0.120   0.338   0.176
    1UNL    H15   56  -0.011   0.260   0.256
    1UNL    H16   57   0.257   0.189   0.220
    1UNL    H17   58   0.094   0.044  -0.160
    1UNL    H18   59  -0.076  -0.225  -0.113
    1UNL    H19   60   0.044  -0.188  -0.226
    1UNL    H20   61  -0.062  -0.260   0.080
    1UNL    H21   62   0.254  -0.272   0.336
    1UNL    H22   63   0.264  -0.030   0.249
    1UNL    H23   64   0.422  -0.111   0.240
    1UNL    H24   65   0.510   0.204  -0.110
    1UNL    H25   66   0.495   0.253  -0.350
    1UNL    H26   67   0.471   0.166  -0.550
    1UNL    H27   68   0.328  -0.141  -0.401
    1UNL    H28   69   0.279  -0.149  -0.175
    1UNL    H29   70   0.295  -0.367   0.054
    1UNL    H30   71   0.437  -0.514   0.153
    1UNL    H31   72   0.153  -0.505   0.285
    1UNL    H32   73   0.137  -0.679   0.136
    1UNL    H33   74   0.077  -0.473  -0.021
    1UNL    H34   75  -0.069  -0.609   0.130
   0.00000   0.00000   0.00000   0.00000   0.00000   0.00000   0.00000   0.00000   0.00000
Generated with MDTraj, t= 6.0
 75
    1UNL     C1    1  -0.150   0.079  -0.300
    1UNL     C2    2  -0.133   0.039  -0.173
    1UNL     C3    3  -0.232   0.055  -0.059
    1UNL     O1    4  -0.317   0.175  -0.060
    1UNL     C4    5  -0.448   0.139  -0.039
    1UNL     O2    6  -0.494   0.029  -0.011
    1UNL     C5    7  -0.532   0.254  -0.025
    1UNL     C6    8  -0.482   0.380  -0.053
    1UNL     C7    9  -0.557   0.492  -0.031
    1UNL     C8   10  -0.691   0.484   0.003
    1UNL     O3   11  -0.777   0.592   0.017
    1UNL     C9   12  -0.742   0.354   0.038
    1UNL    C10   13  -0.659   0.242   0.035
    1UNL    C11   14  -0.155   0.034   0.074
    1UNL    C12   15  -0.008   0.030   0.043
    1UNL    C13   16   0.054   0.178   0.049
    1UNL    C14   17   0.068   0.230   0.202
    1UNL     O4   18   0.170   0.161   0.270
    1UNL    C15   19  -0.011  -0.017  -0.106
    1UNL    C16   20  -0.014  -0.171  -0.112
    1UNL     O5   21   0.098  -0.228  -0.035
    1UNL    C17   22   0.054  -0.274   0.096
    1UNL     O6   23   0.107  -0.214   0.213
    1UNL    C18   24   0.241  -0.245   0.231
    1UNL    C19   25   0.337  -0.128   0.188
    1UNL     O7   26   0.334  -0.119   0.049
    1UNL    C20   27   0.374   0.011   0.024
    1UNL     O8   28   0.404   0.095   0.107
    1UNL    C21   29   0.389   0.042  -0.120
    1UNL    C22   30   0.458   0.148  -0.167
    1UNL    C23   31   0.472   0.166  -0.312
    1UNL    C24   32   0.421   0.069  -0.401
    1UNL     O9   33   0.444   0.079  -0.535
    1UNL    C25   34   0.339  -0.035  -0.350
    1UNL    C26   35   0.321  -0.043  -0.216
    1UNL    C27   36   0.285  -0.377   0.172
    1UNL    O10   37   0.408  -0.426   0.230
    1UNL    C28   38   0.175  -0.481   0.173
    1UNL    O11   39   0.233  -0.621   0.132
    1UNL    C29   40   0.057  -0.427   0.088
    1UNL    O12   41  -0.070  -0.482   0.123
    1UNL     H1   42  -0.226   0.153  -0.318
    1UNL     H2   43  -0.093   0.052  -0.387
    1UNL     H3   44  -0.312  -0.034  -0.070
    1UNL     H4   45  -0.380   0.384  -0.103
    1UNL     H5   46  -0.512   0.596  -0.039
    1UNL     H6   47  -0.863   0.558   0.046
    1UNL     H7   48  -0.847   0.344   0.050
    1UNL     H8   49  -0.686   0.143   0.075
    1UNL     H9   50  -0.184   0.110   0.149
    1UNL    H10   51  -0.178  -0.067   0.112
    1UNL    H11   52   0.049  -0.037   0.105
    1UNL    H12   53  -0.019   0.232  -0.006
    1UNL    H13   54   0.149   0.155   0.007
    1UNL    H14   55   0.086   0.336   0.215
    1UNL    H15   56  -0.026   0.207   0.257
    1UNL    H16   57   0.242   0.134   0.217
    1UNL    H17   58   0.078   0.031  -0.149
    1UNL    H18   59  -0.112  -0.202  -0.088
    1UNL    H19   60   0.008  -0.201  -0.215
    1UNL    H20   61  -0.059  -0.252   0.099
    1UNL    H21   62   0.247  -0.244   0.345
    1UNL    H22   63   0.318  -0.027   0.234
    1UNL    H23   64   0.437  -0.154   0.215
    1UNL    H24   65   0.499   0.210  -0.085
    1UNL    H25   66   0.533   0.251  -0.349
    1UNL    H26   67   0.509   0.149  -0.536
    1UNL    H27   68   0.304  -0.106  -0.423
    1UNL    H28   69   0.276  -0.126  -0.170
    1UNL    H29   70   0.300  -0.354   0.072
    1UNL    H30   71   0.420  -0.520   0.201
    1UNL    H31   72   0.134  -0.491   0.276
    1UNL    H32   73   0.197  -0.637   0.038
    1UNL    H33   74   0.082  -0.452  -0.016
    1UNL    H34   75  -0.062  -0.523   0.217
   0.00000   0.00000   0.00000   0.00000   0.00000   0.00000   0.00000   0.00000   0.00000
Generated with MDTraj, t= 7.0
 75
    1UNL     C1    1  -0.158   0.053  -0.301
    1UNL     C2    2  -0.138   0.040  -0.171
    1UNL     C3    3  -0.249   0.049  -0.069
    1UNL     O1    4  -0.334   0.171  -0.087
    1UNL     C4    5  -0.453   0.153  -0.027
    1UNL     O2    6  -0.480   0.042   0.014
    1UNL     C5    7  -0.540   0.266  -0.025
    1UNL     C6    8  -0.496   0.393  -0.067
    1UNL     C7    9  -0.575   0.502  -0.040
    1UNL     C8   10  -0.705   0.484   0.013
    1UNL     O3   11  -0.780   0.591   0.046
    1UNL     C9   12  -0.749   0.359   0.051
    1UNL    C10   13  -0.668   0.251   0.034
    1UNL    C11   14  -0.168   0.047   0.063
    1UNL    C12   15  -0.012   0.037   0.036
    1UNL    C13   16   0.054   0.182   0.050
    1UNL    C14   17   0.068   0.215   0.194
    1UNL     O4   18   0.161   0.142   0.270
    1UNL    C15   19  -0.007  -0.014  -0.109
    1UNL    C16   20   0.015  -0.177  -0.125
    1UNL     O5   21   0.113  -0.229  -0.042
    1UNL    C17   22   0.054  -0.280   0.082
    1UNL     O6   23   0.106  -0.207   0.201
    1UNL    C18   24   0.236  -0.249   0.237
    1UNL    C19   25   0.339  -0.136   0.200
    1UNL     O7   26   0.348  -0.124   0.057
    1UNL    C20   27   0.376   0.007   0.023
    1UNL     O8   28   0.373   0.102   0.102
    1UNL    C21   29   0.403   0.034  -0.122
    1UNL    C22   30   0.470   0.142  -0.179
    1UNL    C23   31   0.495   0.157  -0.309
    1UNL    C24   32   0.433   0.069  -0.398
    1UNL     O9   33   0.452   0.084  -0.536
    1UNL    C25   34   0.352  -0.032  -0.346
    1UNL    C26   35   0.347  -0.056  -0.211
    1UNL    C27   36   0.285  -0.379   0.173
    1UNL    O10   37   0.392  -0.433   0.249
    1UNL    C28   38   0.183  -0.483   0.168
    1UNL    O11   39   0.243  -0.607   0.117
    1UNL    C29   40   0.059  -0.437   0.088
    1UNL    O12   41  -0.066  -0.467   0.151
    1UNL     H1   42  -0.254   0.078  -0.334
    1UNL     H2   43  -0.082   0.036  -0.380
    1UNL     H3   44  -0.325  -0.043  -0.081
    1UNL     H4   45  -0.420   0.398  -0.135
    1UNL     H5   46  -0.545   0.598  -0.054
    1UNL     H6   47  -0.873   0.567   0.064
    1UNL     H7   48  -0.846   0.353   0.102
    1UNL     H8   49  -0.712   0.154   0.066
    1UNL     H9   50  -0.191   0.137   0.118
    1UNL    H10   51  -0.195  -0.041   0.128
    1UNL    H11   52   0.040  -0.033   0.099
    1UNL    H12   53  -0.022   0.244   0.007
    1UNL    H13   54   0.147   0.171   0.005
    1UNL    H14   55   0.116   0.314   0.189
    1UNL    H15   56  -0.026   0.225   0.254
    1UNL    H16   57   0.247   0.137   0.212
    1UNL    H17   58   0.068   0.041  -0.160
    1UNL    H18   59  -0.062  -0.246  -0.110
    1UNL    H19   60   0.051  -0.186  -0.227
    1UNL    H20   61  -0.060  -0.261   0.072
    1UNL    H21   62   0.232  -0.267   0.348
    1UNL    H22   63   0.310  -0.038   0.250
    1UNL    H23   64   0.437  -0.158   0.234
    1UNL    H24   65   0.514   0.222  -0.123
    1UNL    H25   66   0.551   0.238  -0.341
    1UNL    H26   67   0.474   0.176  -0.569
    1UNL    H27   68   0.302  -0.096  -0.417
    1UNL    H28   69   0.289  -0.143  -0.177
    1UNL    H29   70   0.322  -0.358   0.079
    1UNL    H30   71   0.417  -0.519   0.211
    1UNL    H31   72   0.152  -0.512   0.269
    1UNL    H32   73   0.214  -0.629   0.021
    1UNL    H33   74   0.062  -0.481  -0.012
    1UNL    H34   75  -0.060  -0.444   0.246
   0.00000   0.00000   0.00000   0.00000   0.00000   0.00000   0.00000   0.00000   0.00000
Generated with MDTraj, t= 8.0
 75
    1UNL     C1    1  -0.169   0.044  -0.318
    1UNL     C2    2  -0.142   0.026  -0.190
    1UNL     C3    3  -0.243   0.047  -0.081
    1UNL     O1    4  -0.326   0.159  -0.101
    1UNL     C4    5  -0.434   0.152  -0.018
    1UNL     O2    6  -0.470   0.054   0.043
    1UNL     C5    7  -0.526   0.267  -0.002
    1UNL     C6    8  -0.493   0.386  -0.063
    1UNL     C7    9  -0.577   0.494  -0.046
    1UNL     C8   10  -0.706   0.485   0.014
    1UNL     O3   11  -0.793   0.594   0.047
    1UNL     C9   12  -0.737   0.358   0.062
    1UNL    C10   13  -0.654   0.248   0.054
    1UNL    C11   14  -0.178   0.043   0.051
    1UNL    C12   15  -0.023   0.036   0.029
    1UNL    C13   16   0.038   0.186   0.040
    1UNL    C14   17   0.037   0.232   0.185
    1UNL     O4   18   0.131   0.160   0.264
    1UNL    C15   19  -0.008  -0.013  -0.120
    1UNL    C16   20   0.008  -0.170  -0.123
    1UNL     O5   21   0.113  -0.215  -0.041
    1UNL    C17   22   0.052  -0.261   0.092
    1UNL     O6   23   0.110  -0.201   0.211
    1UNL    C18   24   0.243  -0.247   0.238
    1UNL    C19   25   0.342  -0.134   0.211
    1UNL     O7   26   0.358  -0.122   0.069
    1UNL    C20   27   0.386   0.004   0.027
    1UNL     O8   28   0.380   0.106   0.101
    1UNL    C21   29   0.406   0.014  -0.121
    1UNL    C22   30   0.466   0.137  -0.165
    1UNL    C23   31   0.495   0.147  -0.298
    1UNL    C24   32   0.439   0.061  -0.396
    1UNL     O9   33   0.451   0.094  -0.526
    1UNL    C25   34   0.375  -0.051  -0.350
    1UNL    C26   35   0.370  -0.084  -0.210
    1UNL    C27   36   0.291  -0.377   0.165
    1UNL    O10   37   0.400  -0.436   0.232
    1UNL    C28   38   0.183  -0.476   0.152
    1UNL    O11   39   0.219  -0.599   0.095
    1UNL    C29   40   0.053  -0.421   0.089
    1UNL    O12   41  -0.063  -0.476   0.152
    1UNL     H1   42  -0.264   0.075  -0.349
    1UNL     H2   43  -0.092   0.034  -0.393
    1UNL     H3   44  -0.314  -0.048  -0.079
    1UNL     H4   45  -0.400   0.381  -0.129
    1UNL     H5   46  -0.559   0.578  -0.119
    1UNL     H6   47  -0.887   0.565   0.048
    1UNL     H7   48  -0.828   0.349   0.115
    1UNL     H8   49  -0.692   0.155   0.072
    1UNL     H9   50  -0.194   0.126   0.116
    1UNL    H10   51  -0.218  -0.045   0.111
    1UNL    H11   52   0.029  -0.032   0.095
    1UNL    H12   53  -0.027   0.246  -0.020
    1UNL    H13   54   0.137   0.174   0.014
    1UNL    H14   55   0.045   0.341   0.198
    1UNL    H15   56  -0.062   0.203   0.228
    1UNL    H16   57   0.214   0.136   0.221
    1UNL    H17   58   0.073   0.037  -0.161
    1UNL    H18   59  -0.081  -0.216  -0.093
    1UNL    H19   60   0.043  -0.212  -0.217
    1UNL    H20   61  -0.057  -0.221   0.087
    1UNL    H21   62   0.244  -0.285   0.341
    1UNL    H22   63   0.294  -0.039   0.252
    1UNL    H23   64   0.436  -0.147   0.261
    1UNL    H24   65   0.487   0.206  -0.082
    1UNL    H25   66   0.540   0.240  -0.339
    1UNL    H26   67   0.467   0.193  -0.554
    1UNL    H27   68   0.328  -0.116  -0.422
    1UNL    H28   69   0.323  -0.170  -0.171
    1UNL    H29   70   0.333  -0.351   0.074
    1UNL    H30   71   0.417  -0.523   0.185
    1UNL    H31   72   0.153  -0.491   0.253
    1UNL    H32   73   0.140  -0.644   0.059
    1UNL    H33   74   0.038  -0.446  -0.014
    1UNL    H34   75  -0.063  -0.460   0.243
   0.00000   0.00000   0.00000   0.00000   0.00000   0.00000   0.00000   0.00000   0.00000
Generated with MDTraj, t= 9.0
 75
    1UNL     C1    1  -0.159   0.047  -0.322
    1UNL     C2    2  -0.130   0.017  -0.195
    1UNL     C3    3  -0.244   0.028  -0.084
    1UNL     O1    4  -0.330   0.150  -0.090
    1UNL     C4    5  -0.437   0.136  -0.004
    1UNL     O2    6  -0.451   0.037   0.068
    1UNL     C5    7  -0.520   0.266   0.009
    1UNL     C6    8  -0.487   0.388  -0.053
    1UNL     C7    9  -0.576   0.492  -0.062
    1UNL     C8   10  -0.695   0.475   0.008
    1UNL     O3   11  -0.783   0.587   0.012
    1UNL     C9   12  -0.722   0.359   0.085
    1UNL    C10   13  -0.632   0.256   0.086
    1UNL    C11   14  -0.180   0.032   0.057
    1UNL    C12   15  -0.025   0.043   0.021
    1UNL    C13   16   0.017   0.197   0.017
    1UNL    C14   17   0.039   0.252   0.154
    1UNL     O4   18   0.120   0.172   0.232
    1UNL    C15   19  -0.001  -0.015  -0.121
    1UNL    C16   20   0.011  -0.167  -0.111
    1UNL     O5   21   0.111  -0.196  -0.006
    1UNL    C17   22   0.052  -0.259   0.103
    1UNL     O6   23   0.115  -0.221   0.222
    1UNL    C18   24   0.253  -0.250   0.235
    1UNL    C19   25   0.345  -0.129   0.213
    1UNL     O7   26   0.367  -0.123   0.071
    1UNL    C20   27   0.376   0.006   0.033
    1UNL     O8   28   0.363   0.104   0.111
    1UNL    C21   29   0.392   0.030  -0.108
    1UNL    C22   30   0.445   0.151  -0.155
    1UNL    C23   31   0.473   0.158  -0.289
    1UNL    C24   32   0.438   0.054  -0.383
    1UNL     O9   33   0.468   0.072  -0.521
    1UNL    C25   34   0.386  -0.060  -0.328
    1UNL    C26   35   0.366  -0.073  -0.196
    1UNL    C27   36   0.285  -0.376   0.142
    1UNL    O10   37   0.408  -0.434   0.188
    1UNL    C28   38   0.168  -0.474   0.145
    1UNL    O11   39   0.196  -0.602   0.088
    1UNL    C29   40   0.044  -0.410   0.077
    1UNL    O12   41  -0.068  -0.473   0.125
    1UNL     H1   42  -0.260   0.087  -0.343
    1UNL     H2   43  -0.092   0.051  -0.405
    1UNL     H3   44  -0.326  -0.053  -0.103
    1UNL     H4   45  -0.407   0.385  -0.119
    1UNL     H5   46  -0.556   0.577  -0.122
    1UNL     H6   47  -0.874   0.548   0.015
    1UNL     H7   48  -0.806   0.371   0.154
    1UNL     H8   49  -0.647   0.162   0.152
    1UNL     H9   50  -0.212   0.121   0.108
    1UNL    H10   51  -0.200  -0.051   0.132
    1UNL    H11   52   0.030  -0.017   0.093
    1UNL    H12   53  -0.063   0.253  -0.029
    1UNL    H13   54   0.108   0.202  -0.029
    1UNL    H14   55   0.091   0.350   0.149
    1UNL    H15   56  -0.054   0.273   0.209
    1UNL    H16   57   0.205   0.164   0.185
    1UNL    H17   58   0.082   0.027  -0.166
    1UNL    H18   59  -0.078  -0.223  -0.087
    1UNL    H19   60   0.043  -0.209  -0.208
    1UNL    H20   61  -0.053  -0.209   0.110
    1UNL    H21   62   0.258  -0.289   0.335
    1UNL    H22   63   0.312  -0.034   0.271
    1UNL    H23   64   0.444  -0.157   0.248
    1UNL    H24   65   0.455   0.235  -0.089
    1UNL    H25   66   0.526   0.246  -0.319
    1UNL    H26   67   0.532   0.152  -0.531
    1UNL    H27   68   0.356  -0.136  -0.398
    1UNL    H28   69   0.325  -0.176  -0.169
    1UNL    H29   70   0.301  -0.336   0.048
    1UNL    H30   71   0.413  -0.523   0.145
    1UNL    H31   72   0.147  -0.493   0.247
    1UNL    H32   73   0.125  -0.665   0.083
    1UNL    H33   74   0.047  -0.446  -0.023
    1UNL    H34   75  -0.125  -0.411   0.165
   0.00000   0.00000   0.00000   0.00000   0.00000   0.00000   0.00000   0.00000   0.00000
Generated with MDTraj, t= 10.0
 75
    1UNL     C1    1  -0.190   0.030  -0.308
    1UNL     C2    2  -0.148   0.025  -0.183
    1UNL     C3    3  -0.234   0.029  -0.064
    1UNL     O1    4  -0.331   0.136  -0.085
    1UNL     C4    5  -0.438   0.131   0.002
    1UNL     O2    6  -0.436   0.046   0.091
    1UNL     C5    7  -0.516   0.253   0.003
    1UNL     C6    8  -0.494   0.353  -0.088
    1UNL     C7    9  -0.580   0.463  -0.082
    1UNL     C8   10  -0.686   0.481   0.011
    1UNL     O3   11  -0.767   0.595   0.007
    1UNL     C9   12  -0.707   0.370   0.092
    1UNL    C10   13  -0.627   0.259   0.085
    1UNL    C11   14  -0.154   0.058   0.065
    1UNL    C12   15  -0.004   0.058   0.010
    1UNL    C13   16   0.045   0.199   0.001
    1UNL    C14   17   0.047   0.271   0.142
    1UNL     O4   18   0.102   0.205   0.253
    1UNL    C15   19  -0.010  -0.010  -0.131
    1UNL    C16   20   0.021  -0.161  -0.118
    1UNL     O5   21   0.125  -0.190  -0.010
    1UNL    C17   22   0.061  -0.257   0.104
    1UNL     O6   23   0.114  -0.236   0.232
    1UNL    C18   24   0.255  -0.269   0.235
    1UNL    C19   25   0.340  -0.152   0.208
    1UNL     O7   26   0.347  -0.115   0.066
    1UNL    C20   27   0.352   0.016   0.039
    1UNL     O8   28   0.339   0.102   0.127
    1UNL    C21   29   0.379   0.040  -0.103
    1UNL    C22   30   0.426   0.156  -0.157
    1UNL    C23   31   0.450   0.174  -0.296
    1UNL    C24   32   0.438   0.065  -0.379
    1UNL     O9   33   0.476   0.059  -0.511
    1UNL    C25   34   0.398  -0.061  -0.321
    1UNL    C26   35   0.365  -0.069  -0.190
    1UNL    C27   36   0.286  -0.387   0.143
    1UNL    O10   37   0.404  -0.452   0.184
    1UNL    C28   38   0.170  -0.485   0.137
    1UNL    O11   39   0.211  -0.608   0.068
    1UNL    C29   40   0.040  -0.406   0.073
    1UNL    O12   41  -0.082  -0.459   0.118
    1UNL     H1   42  -0.294   0.045  -0.334
    1UNL     H2   43  -0.129   0.008  -0.388
    1UNL     H3   44  -0.301  -0.066  -0.062
    1UNL     H4   45  -0.431   0.328  -0.176
    1UNL     H5   46  -0.565   0.532  -0.161
    1UNL     H6   47  -0.858   0.565   0.034
    1UNL     H7   48  -0.783   0.369   0.169
    1UNL     H8   49  -0.638   0.187   0.156
    1UNL     H9   50  -0.175   0.149   0.124
    1UNL    H10   51  -0.163  -0.026   0.138
    1UNL    H11   52   0.056  -0.001   0.076
    1UNL    H12   53  -0.012   0.256  -0.070
    1UNL    H13   54   0.143   0.192  -0.032
    1UNL    H14   55   0.088   0.374   0.136
    1UNL    H15   56  -0.057   0.288   0.173
    1UNL    H16   57   0.187   0.149   0.232
    1UNL    H17   58   0.065   0.033  -0.189
    1UNL    H18   59  -0.074  -0.209  -0.091
    1UNL    H19   60   0.045  -0.216  -0.215
    1UNL    H20   61  -0.040  -0.201   0.107
    1UNL    H21   62   0.271  -0.303   0.336
    1UNL    H22   63   0.299  -0.062   0.267
    1UNL    H23   64   0.440  -0.177   0.246
    1UNL    H24   65   0.447   0.235  -0.090
    1UNL    H25   66   0.485   0.266  -0.336
    1UNL    H26   67   0.555   0.116  -0.528
    1UNL    H27   68   0.401  -0.143  -0.390
    1UNL    H28   69   0.328  -0.153  -0.144
    1UNL    H29   70   0.298  -0.341   0.050
    1UNL    H30   71   0.398  -0.542   0.147
    1UNL    H31   72   0.136  -0.511   0.233
    1UNL    H32   73   0.136  -0.669   0.054
    1UNL    H33   74   0.040  -0.430  -0.031
    1UNL    H34   75  -0.078  -0.450   0.215
   0.00000   0.00000   0.00000   0.00000   0.00000   0.00000   0.00000   0.00000   0.00000
Generated with MDTraj, t= 11.0
 75
    1UNL     C1    1  -0.190  -0.003  -0.295
    1UNL     C2    2  -0.147   0.014  -0.172
    1UNL     C3    3  -0.239   0.031  -0.060
    1UNL     O1    4  -0.335   0.142  -0.081
    1UNL     C4    5  -0.435   0.139   0.014
    1UNL     O2    6  -0.434   0.060   0.107
    1UNL     C5    7  -0.530   0.251   0.004
    1UNL     C6    8  -0.522   0.334  -0.105
    1UNL     C7    9  -0.591   0.454  -0.105
    1UNL     C8   10  -0.686   0.480  -0.005
    1UNL     O3   11  -0.760   0.600  -0.001
    1UNL     C9   12  -0.701   0.383   0.098
    1UNL    C10   13  -0.621   0.271   0.106
    1UNL    C11   14  -0.148   0.060   0.060
    1UNL    C12   15   0.005   0.061   0.016
    1UNL    C13   16   0.053   0.204   0.002
    1UNL    C14   17   0.058   0.289   0.127
    1UNL     O4   18   0.120   0.218   0.227
    1UNL    C15   19   0.004  -0.010  -0.121
    1UNL    C16   20   0.031  -0.162  -0.120
    1UNL     O5   21   0.122  -0.202  -0.023
    1UNL    C17   22   0.052  -0.264   0.087
    1UNL     O6   23   0.110  -0.222   0.218
    1UNL    C18   24   0.250  -0.270   0.247
    1UNL    C19   25   0.344  -0.150   0.228
    1UNL     O7   26   0.376  -0.132   0.088
    1UNL    C20   27   0.353  -0.006   0.046
    1UNL     O8   28   0.330   0.093   0.116
    1UNL    C21   29   0.375   0.016  -0.099
    1UNL    C22   30   0.408   0.144  -0.143
    1UNL    C23   31   0.428   0.178  -0.276
    1UNL    C24   32   0.434   0.076  -0.370
    1UNL     O9   33   0.466   0.100  -0.505
    1UNL    C25   34   0.400  -0.060  -0.331
    1UNL    C26   35   0.363  -0.086  -0.199
    1UNL    C27   36   0.283  -0.389   0.147
    1UNL    O10   37   0.389  -0.453   0.202
    1UNL    C28   38   0.174  -0.485   0.124
    1UNL    O11   39   0.219  -0.585   0.041
    1UNL    C29   40   0.045  -0.417   0.065
    1UNL    O12   41  -0.079  -0.471   0.119
    1UNL     H1   42  -0.292  -0.008  -0.330
    1UNL     H2   43  -0.113  -0.026  -0.371
    1UNL     H3   44  -0.305  -0.060  -0.041
    1UNL     H4   45  -0.461   0.295  -0.184
    1UNL     H5   46  -0.592   0.526  -0.192
    1UNL     H6   47  -0.815   0.613   0.081
    1UNL     H7   48  -0.753   0.413   0.186
    1UNL     H8   49  -0.636   0.197   0.189
    1UNL     H9   50  -0.168   0.162   0.105
    1UNL    H10   51  -0.148  -0.003   0.151
    1UNL    H11   52   0.070   0.007   0.083
    1UNL    H12   53   0.005   0.248  -0.081
    1UNL    H13   54   0.155   0.194  -0.029
    1UNL    H14   55   0.112   0.383   0.117
    1UNL    H15   56  -0.038   0.316   0.173
    1UNL    H16   57   0.199   0.184   0.188
    1UNL    H17   58   0.078   0.038  -0.179
    1UNL    H18   59  -0.061  -0.226  -0.121
    1UNL    H19   60   0.080  -0.180  -0.222
    1UNL    H20   61  -0.060  -0.231   0.074
    1UNL    H21   62   0.262  -0.305   0.349
    1UNL    H22   63   0.288  -0.058   0.267
    1UNL    H23   64   0.439  -0.156   0.280
    1UNL    H24   65   0.425   0.225  -0.068
    1UNL    H25   66   0.437   0.286  -0.304
    1UNL    H26   67   0.537   0.164  -0.512
    1UNL    H27   68   0.403  -0.147  -0.397
    1UNL    H28   69   0.315  -0.181  -0.158
    1UNL    H29   70   0.318  -0.355   0.054
    1UNL    H30   71   0.389  -0.544   0.160
    1UNL    H31   72   0.150  -0.524   0.219
    1UNL    H32   73   0.142  -0.646   0.013
    1UNL    H33   74   0.039  -0.440  -0.040
    1UNL    H34   75  -0.079  -0.462   0.224
   0.00000   0.00000   0.00000   0.00000   0.00000   0.00000   0.00000   0.00000   0.00000
Generated with MDTraj, t= 12.0
 75
    1UNL     C1    1  -0.209  -0.007  -0.304
    1UNL     C2    2  -0.157  -0.004  -0.181
    1UNL     C3    3  -0.237   0.024  -0.063
    1UNL     O1    4  -0.333   0.135  -0.083
    1UNL     C4    5  -0.425   0.151   0.019
    1UNL     O2    6  -0.439   0.074   0.111
    1UNL     C5    7  -0.516   0.266   0.008
    1UNL     C6    8  -0.519   0.341  -0.106
    1UNL     C7    9  -0.600   0.447  -0.118
    1UNL     C8   10  -0.694   0.471  -0.018
    1UNL     O3   11  -0.782   0.577  -0.013
    1UNL     C9   12  -0.682   0.401   0.105
    1UNL    C10   13  -0.588   0.303   0.121
    1UNL    C11   14  -0.158   0.048   0.062
    1UNL    C12   15  -0.007   0.065   0.008
    1UNL    C13   16   0.055   0.206  -0.018
    1UNL    C14   17   0.050   0.285   0.113
    1UNL     O4   18   0.118   0.215   0.217
    1UNL    C15   19  -0.013  -0.011  -0.126
    1UNL    C16   20   0.043  -0.152  -0.120
    1UNL     O5   21   0.124  -0.188  -0.011
    1UNL    C17   22   0.052  -0.259   0.092
    1UNL     O6   23   0.105  -0.238   0.223
    1UNL    C18   24   0.245  -0.271   0.246
    1UNL    C19   25   0.344  -0.156   0.228
    1UNL     O7   26   0.367  -0.145   0.086
    1UNL    C20   27   0.362  -0.014   0.045
    1UNL     O8   28   0.351   0.080   0.123
    1UNL    C21   29   0.393   0.016  -0.094
    1UNL    C22   30   0.419   0.147  -0.128
    1UNL    C23   31   0.425   0.179  -0.262
    1UNL    C24   32   0.423   0.078  -0.360
    1UNL     O9   33   0.411   0.119  -0.496
    1UNL    C25   34   0.415  -0.053  -0.325
    1UNL    C26   35   0.395  -0.082  -0.190
    1UNL    C27   36   0.294  -0.392   0.151
    1UNL    O10   37   0.397  -0.463   0.214
    1UNL    C28   38   0.177  -0.483   0.116
    1UNL    O11   39   0.210  -0.599   0.036
    1UNL    C29   40   0.050  -0.405   0.066
    1UNL    O12   41  -0.069  -0.466   0.112
    1UNL     H1   42  -0.306   0.013  -0.329
    1UNL     H2   43  -0.146  -0.032  -0.389
    1UNL     H3   44  -0.315  -0.058  -0.054
    1UNL     H4   45  -0.467   0.305  -0.193
    1UNL     H5   46  -0.603   0.497  -0.206
    1UNL     H6   47  -0.801   0.602   0.080
    1UNL     H7   48  -0.728   0.435   0.199
    1UNL     H8   49  -0.581   0.249   0.216
    1UNL     H9   50  -0.195   0.144   0.113
    1UNL    H10   51  -0.163  -0.027   0.143
    1UNL    H11   52   0.068   0.010   0.063
    1UNL    H12   53  -0.001   0.259  -0.089
    1UNL    H13   54   0.155   0.193  -0.064
    1UNL    H14   55   0.102   0.380   0.101
    1UNL    H15   56  -0.053   0.304   0.141
    1UNL    H16   57   0.208   0.168   0.191
    1UNL    H17   58   0.050   0.049  -0.189
    1UNL    H18   59  -0.048  -0.218  -0.125
    1UNL    H19   60   0.105  -0.170  -0.215
    1UNL    H20   61  -0.061  -0.226   0.085
    1UNL    H21   62   0.253  -0.301   0.351
    1UNL    H22   63   0.304  -0.058   0.267
    1UNL    H23   64   0.437  -0.180   0.273
    1UNL    H24   65   0.418   0.223  -0.059
    1UNL    H25   66   0.441   0.272  -0.302
    1UNL    H26   67   0.468   0.193  -0.501
    1UNL    H27   68   0.409  -0.125  -0.403
    1UNL    H28   69   0.383  -0.183  -0.171
    1UNL    H29   70   0.340  -0.363   0.060
    1UNL    H30   71   0.392  -0.554   0.174
    1UNL    H31   72   0.156  -0.522   0.213
    1UNL    H32   73   0.122  -0.643   0.008
    1UNL    H33   74   0.049  -0.413  -0.044
    1UNL    H34   75  -0.085  -0.445   0.212
   0.00000   0.00000   0.00000   0.00000   0.00000   0.00000   0.00000   0.00000   0.00000
Generated with MDTraj, t= 13.0
 75
    1UNL     C1    1  -0.198  -0.028  -0.309
    1UNL     C2    2  -0.158   0.000  -0.185
    1UNL     C3    3  -0.250   0.030  -0.061
    1UNL     O1    4  -0.336   0.141  -0.087
    1UNL     C4    5  -0.411   0.159   0.025
    1UNL     O2    6  -0.409   0.092   0.127
    1UNL     C5    7  -0.500   0.280   0.010
    1UNL     C6    8  -0.518   0.339  -0.115
    1UNL     C7    9  -0.616   0.438  -0.127
    1UNL     C8   10  -0.698   0.473  -0.017
    1UNL     O3   11  -0.793   0.570  -0.028
    1UNL     C9   12  -0.676   0.416   0.109
    1UNL    C10   13  -0.581   0.315   0.118
    1UNL    C11   14  -0.154   0.045   0.058
    1UNL    C12   15  -0.008   0.059  -0.006
    1UNL    C13   16   0.051   0.196  -0.019
    1UNL    C14   17   0.058   0.275   0.107
    1UNL     O4   18   0.112   0.192   0.216
    1UNL    C15   19  -0.012  -0.022  -0.137
    1UNL    C16   20   0.019  -0.176  -0.112
    1UNL     O5   21   0.120  -0.191  -0.011
    1UNL    C17   22   0.058  -0.257   0.099
    1UNL     O6   23   0.120  -0.249   0.230
    1UNL    C18   24   0.257  -0.282   0.236
    1UNL    C19   25   0.346  -0.163   0.217
    1UNL     O7   26   0.387  -0.133   0.081
    1UNL    C20   27   0.389   0.008   0.062
    1UNL     O8   28   0.380   0.090   0.152
    1UNL    C21   29   0.403   0.041  -0.083
    1UNL    C22   30   0.407   0.175  -0.130
    1UNL    C23   31   0.412   0.195  -0.267
    1UNL    C24   32   0.394   0.093  -0.359
    1UNL     O9   33   0.399   0.100  -0.496
    1UNL    C25   34   0.392  -0.036  -0.308
    1UNL    C26   35   0.402  -0.065  -0.171
    1UNL    C27   36   0.292  -0.401   0.143
    1UNL    O10   37   0.399  -0.477   0.204
    1UNL    C28   38   0.162  -0.490   0.133
    1UNL    O11   39   0.198  -0.616   0.059
    1UNL    C29   40   0.043  -0.404   0.058
    1UNL    O12   41  -0.079  -0.463   0.072
    1UNL     H1   42  -0.307  -0.019  -0.330
    1UNL     H2   43  -0.134  -0.052  -0.394
    1UNL     H3   44  -0.327  -0.049  -0.052
    1UNL     H4   45  -0.483   0.282  -0.201
    1UNL     H5   46  -0.646   0.478  -0.228
    1UNL     H6   47  -0.815   0.601   0.062
    1UNL     H7   48  -0.751   0.425   0.182
    1UNL     H8   49  -0.555   0.262   0.206
    1UNL     H9   50  -0.175   0.122   0.140
    1UNL    H10   51  -0.157  -0.048   0.119
    1UNL    H11   52   0.067   0.008   0.055
    1UNL    H12   53  -0.014   0.239  -0.090
    1UNL    H13   54   0.155   0.196  -0.064
    1UNL    H14   55   0.104   0.374   0.089
    1UNL    H15   56  -0.044   0.288   0.140
    1UNL    H16   57   0.199   0.164   0.190
    1UNL    H17   58   0.061   0.028  -0.201
    1UNL    H18   59  -0.073  -0.224  -0.073
    1UNL    H19   60   0.043  -0.232  -0.208
    1UNL    H20   61  -0.045  -0.202   0.108
    1UNL    H21   62   0.268  -0.307   0.345
    1UNL    H22   63   0.288  -0.074   0.251
    1UNL    H23   64   0.433  -0.177   0.273
    1UNL    H24   65   0.418   0.260  -0.056
    1UNL    H25   66   0.438   0.297  -0.306
    1UNL    H26   67   0.428   0.189  -0.519
    1UNL    H27   68   0.379  -0.127  -0.368
    1UNL    H28   69   0.397  -0.169  -0.128
    1UNL    H29   70   0.315  -0.362   0.047
    1UNL    H30   71   0.397  -0.565   0.165
    1UNL    H31   72   0.129  -0.522   0.231
    1UNL    H32   73   0.111  -0.651   0.027
    1UNL    H33   74   0.061  -0.413  -0.053
    1UNL    H34   75  -0.098  -0.474   0.169
   0.00000   0.00000   0.00000   0.00000   0.00000   0.00000   0.00000   0.00000   0.00000
Generated with MDTraj, t= 14.0
 75
    1UNL     C1    1  -0.214  -0.021  -0.300
    1UNL     C2    2  -0.159  -0.006  -0.181
    1UNL     C3    3  -0.240   0.031  -0.058
    1UNL     O1    4  -0.337   0.132  -0.089
    1UNL     C4    5  -0.408   0.167   0.016
    1UNL     O2    6  -0.388   0.130   0.128
    1UNL     C5    7  -0.514   0.271   0.001
    1UNL     C6    8  -0.532   0.340  -0.123
    1UNL     C7    9  -0.633   0.434  -0.138
    1UNL     C8   10  -0.703   0.476  -0.022
    1UNL     O3   11  -0.794   0.583  -0.035
    1UNL     C9   12  -0.677   0.415   0.097
    1UNL    C10   13  -0.586   0.321   0.107
    1UNL    C11   14  -0.144   0.061   0.056
    1UNL    C12   15  -0.001   0.052  -0.005
    1UNL    C13   16   0.062   0.192  -0.007
    1UNL    C14   17   0.083   0.268   0.120
    1UNL     O4   18   0.136   0.179   0.222
    1UNL    C15   19  -0.012  -0.016  -0.139
    1UNL    C16   20   0.035  -0.167  -0.127
    1UNL     O5   21   0.133  -0.201  -0.025
    1UNL    C17   22   0.073  -0.273   0.088
    1UNL     O6   23   0.128  -0.240   0.216
    1UNL    C18   24   0.262  -0.288   0.250
    1UNL    C19   25   0.355  -0.169   0.226
    1UNL     O7   26   0.357  -0.143   0.086
    1UNL    C20   27   0.376  -0.006   0.061
    1UNL     O8   28   0.379   0.075   0.149
    1UNL    C21   29   0.378   0.030  -0.088
    1UNL    C22   30   0.382   0.163  -0.124
    1UNL    C23   31   0.410   0.200  -0.253
    1UNL    C24   32   0.389   0.104  -0.351
    1UNL     O9   33   0.392   0.132  -0.487
    1UNL    C25   34   0.361  -0.029  -0.312
    1UNL    C26   35   0.372  -0.069  -0.181
    1UNL    C27   36   0.288  -0.403   0.153
    1UNL    O10   37   0.404  -0.472   0.186
    1UNL    C28   38   0.171  -0.491   0.149
    1UNL    O11   39   0.207  -0.611   0.092
    1UNL    C29   40   0.060  -0.423   0.061
    1UNL    O12   41  -0.067  -0.475   0.069
    1UNL     H1   42  -0.321  -0.004  -0.301
    1UNL     H2   43  -0.159  -0.046  -0.383
    1UNL     H3   44  -0.306  -0.050  -0.027
    1UNL     H4   45  -0.482   0.311  -0.213
    1UNL     H5   46  -0.657   0.475  -0.235
    1UNL     H6   47  -0.844   0.598   0.048
    1UNL     H7   48  -0.730   0.458   0.185
    1UNL     H8   49  -0.578   0.267   0.207
    1UNL     H9   50  -0.158   0.168   0.085
    1UNL    H10   51  -0.148   0.010   0.156
    1UNL    H11   52   0.069  -0.016   0.047
    1UNL    H12   53   0.010   0.256  -0.078
    1UNL    H13   54   0.160   0.172  -0.059
    1UNL    H14   55   0.157   0.348   0.100
    1UNL    H15   56  -0.012   0.313   0.150
    1UNL    H16   57   0.219   0.132   0.193
    1UNL    H17   58   0.040   0.042  -0.217
    1UNL    H18   59  -0.053  -0.223  -0.098
    1UNL    H19   60   0.060  -0.219  -0.224
    1UNL    H20   61  -0.037  -0.234   0.090
    1UNL    H21   62   0.265  -0.319   0.359
    1UNL    H22   63   0.314  -0.076   0.268
    1UNL    H23   64   0.453  -0.184   0.257
    1UNL    H24   65   0.388   0.240  -0.056
    1UNL    H25   66   0.434   0.300  -0.279
    1UNL    H26   67   0.398   0.231  -0.509
    1UNL    H27   68   0.339  -0.100  -0.388
    1UNL    H28   69   0.336  -0.162  -0.143
    1UNL    H29   70   0.295  -0.357   0.055
    1UNL    H30   71   0.404  -0.567   0.150
    1UNL    H31   72   0.148  -0.525   0.254
    1UNL    H32   73   0.132  -0.651   0.049
    1UNL    H33   74   0.072  -0.450  -0.051
    1UNL    H34   75  -0.085  -0.493   0.159
   0.00000   0.00000   0.00000   0.00000   0.00000   0.00000   0.00000   0.00000   0.00000
Generated with MDTraj, t= 15.0
 75
    1UNL     C1    1  -0.205  -0.005  -0.298
    1UNL     C2    2  -0.154   0.004  -0.177
    1UNL     C3    3  -0.242   0.037  -0.061
    1UNL     O1    4  -0.325   0.141  -0.084
    1UNL     C4    5  -0.409   0.169   0.021
    1UNL     O2    6  -0.401   0.122   0.131
    1UNL     C5    7  -0.509   0.276   0.010
    1UNL     C6    8  -0.534   0.329  -0.120
    1UNL     C7    9  -0.629   0.431  -0.143
    1UNL     C8   10  -0.707   0.483  -0.039
    1UNL     O3   11  -0.797   0.580  -0.068
    1UNL     C9   12  -0.679   0.430   0.089
    1UNL    C10   13  -0.592   0.322   0.115
    1UNL    C11   14  -0.154   0.076   0.053
    1UNL    C12   15  -0.004   0.051   0.012
    1UNL    C13   16   0.078   0.179  -0.001
    1UNL    C14   17   0.087   0.258   0.128
    1UNL     O4   18   0.140   0.188   0.237
    1UNL    C15   19  -0.010  -0.020  -0.121
    1UNL    C16   20   0.024  -0.171  -0.121
    1UNL     O5   21   0.122  -0.214  -0.035
    1UNL    C17   22   0.063  -0.279   0.083
    1UNL     O6   23   0.123  -0.241   0.214
    1UNL    C18   24   0.265  -0.274   0.244
    1UNL    C19   25   0.368  -0.165   0.213
    1UNL     O7   26   0.384  -0.148   0.076
    1UNL    C20   27   0.382  -0.011   0.046
    1UNL     O8   28   0.382   0.068   0.135
    1UNL    C21   29   0.381   0.028  -0.095
    1UNL    C22   30   0.415   0.156  -0.121
    1UNL    C23   31   0.424   0.198  -0.252
    1UNL    C24   32   0.368   0.117  -0.354
    1UNL     O9   33   0.365   0.163  -0.487
    1UNL    C25   34   0.328  -0.011  -0.323
    1UNL    C26   35   0.347  -0.055  -0.196
    1UNL    C27   36   0.296  -0.404   0.168
    1UNL    O10   37   0.392  -0.487   0.234
    1UNL    C28   38   0.179  -0.498   0.135
    1UNL    O11   39   0.216  -0.623   0.068
    1UNL    C29   40   0.058  -0.435   0.063
    1UNL    O12   41  -0.062  -0.499   0.100
    1UNL     H1   42  -0.312   0.021  -0.304
    1UNL     H2   43  -0.149  -0.051  -0.381
    1UNL     H3   44  -0.310  -0.043  -0.037
    1UNL     H4   45  -0.469   0.301  -0.204
    1UNL     H5   46  -0.653   0.464  -0.238
    1UNL     H6   47  -0.847   0.593   0.017
    1UNL     H7   48  -0.734   0.475   0.165
    1UNL     H8   49  -0.579   0.270   0.201
    1UNL     H9   50  -0.161   0.183   0.069
    1UNL    H10   51  -0.188   0.034   0.153
    1UNL    H11   52   0.043  -0.017   0.086
    1UNL    H12   53   0.025   0.227  -0.090
    1UNL    H13   54   0.179   0.157  -0.044
    1UNL    H14   55   0.155   0.344   0.107
    1UNL    H15   56  -0.009   0.297   0.161
    1UNL    H16   57   0.230   0.148   0.214
    1UNL    H17   58   0.065   0.028  -0.189
    1UNL    H18   59  -0.056  -0.242  -0.117
    1UNL    H19   60   0.060  -0.200  -0.221
    1UNL    H20   61  -0.040  -0.226   0.091
    1UNL    H21   62   0.281  -0.304   0.352
    1UNL    H22   63   0.338  -0.066   0.257
    1UNL    H23   64   0.470  -0.183   0.239
    1UNL    H24   65   0.444   0.221  -0.034
    1UNL    H25   66   0.467   0.296  -0.264
    1UNL    H26   67   0.413   0.256  -0.487
    1UNL    H27   68   0.269  -0.064  -0.397
    1UNL    H28   69   0.322  -0.154  -0.166
    1UNL    H29   70   0.334  -0.370   0.070
    1UNL    H30   71   0.385  -0.580   0.202
    1UNL    H31   72   0.142  -0.535   0.237
    1UNL    H32   73   0.136  -0.657   0.029
    1UNL    H33   74   0.060  -0.451  -0.050
    1UNL    H34   75  -0.065  -0.514   0.192
   0.00000   0.00000   0.00000   0.00000   0.00000   0.00000   0.00000   0.00000   0.00000
Generated with MDTraj, t= 16.0
 75
    1UNL     C1    1  -0.189   0.028  -0.296
    1UNL     C2    2  -0.152   0.013  -0.169
    1UNL     C3    3  -0.240   0.038  -0.050
    1UNL     O1    4  -0.318   0.151  -0.068
    1UNL     C4    5  -0.414   0.169   0.024
    1UNL     O2    6  -0.427   0.102   0.125
    1UNL     C5    7  -0.507   0.283  -0.008
    1UNL     C6    8  -0.529   0.339  -0.138
    1UNL     C7    9  -0.625   0.427  -0.157
    1UNL     C8   10  -0.701   0.479  -0.051
    1UNL     O3   11  -0.799   0.570  -0.083
    1UNL     C9   12  -0.683   0.430   0.079
    1UNL    C10   13  -0.591   0.329   0.097
    1UNL    C11   14  -0.143   0.055   0.073
    1UNL    C12   15   0.003   0.044   0.024
    1UNL    C13   16   0.066   0.178   0.008
    1UNL    C14   17   0.089   0.255   0.140
    1UNL     O4   18   0.150   0.172   0.233
    1UNL    C15   19  -0.018  -0.026  -0.111
    1UNL    C16   20  -0.001  -0.179  -0.096
    1UNL     O5   21   0.114  -0.209  -0.014
    1UNL    C17   22   0.074  -0.277   0.102
    1UNL     O6   23   0.134  -0.256   0.225
    1UNL    C18   24   0.272  -0.290   0.229
    1UNL    C19   25   0.359  -0.169   0.197
    1UNL     O7   26   0.359  -0.143   0.062
    1UNL    C20   27   0.386  -0.010   0.044
    1UNL     O8   28   0.412   0.069   0.130
    1UNL    C21   29   0.388   0.034  -0.100
    1UNL    C22   30   0.456   0.150  -0.134
    1UNL    C23   31   0.441   0.195  -0.263
    1UNL    C24   32   0.357   0.128  -0.358
    1UNL     O9   33   0.333   0.181  -0.479
    1UNL    C25   34   0.304   0.001  -0.319
    1UNL    C26   35   0.326  -0.045  -0.193
    1UNL    C27   36   0.305  -0.417   0.154
    1UNL    O10   37   0.396  -0.488   0.238
    1UNL    C28   38   0.176  -0.502   0.134
    1UNL    O11   39   0.214  -0.632   0.066
    1UNL    C29   40   0.069  -0.424   0.068
    1UNL    O12   41  -0.059  -0.482   0.104
    1UNL     H1   42  -0.288   0.026  -0.321
    1UNL     H2   43  -0.115   0.018  -0.373
    1UNL     H3   44  -0.311  -0.040  -0.052
    1UNL     H4   45  -0.493   0.297  -0.227
    1UNL     H5   46  -0.634   0.481  -0.259
    1UNL     H6   47  -0.843   0.609  -0.002
    1UNL     H7   48  -0.747   0.467   0.160
    1UNL     H8   49  -0.593   0.267   0.194
    1UNL     H9   50  -0.157   0.149   0.123
    1UNL    H10   51  -0.169  -0.022   0.153
    1UNL    H11   52   0.062  -0.014   0.099
    1UNL    H12   53  -0.001   0.246  -0.062
    1UNL    H13   54   0.154   0.157  -0.054
    1UNL    H14   55   0.152   0.346   0.125
    1UNL    H15   56  -0.008   0.283   0.184
    1UNL    H16   57   0.239   0.149   0.201
    1UNL    H17   58   0.059   0.019  -0.182
    1UNL    H18   59  -0.095  -0.225  -0.064
    1UNL    H19   60   0.006  -0.239  -0.187
    1UNL    H20   61  -0.033  -0.249   0.131
    1UNL    H21   62   0.299  -0.317   0.333
    1UNL    H22   63   0.329  -0.072   0.252
    1UNL    H23   64   0.465  -0.184   0.217
    1UNL    H24   65   0.500   0.205  -0.055
    1UNL    H25   66   0.493   0.288  -0.294
    1UNL    H26   67   0.409   0.235  -0.516
    1UNL    H27   68   0.240  -0.056  -0.385
    1UNL    H28   69   0.280  -0.141  -0.156
    1UNL    H29   70   0.350  -0.385   0.057
    1UNL    H30   71   0.398  -0.579   0.210
    1UNL    H31   72   0.149  -0.522   0.244
    1UNL    H32   73   0.132  -0.673   0.030
    1UNL    H33   74   0.083  -0.432  -0.045
    1UNL    H34   75  -0.074  -0.484   0.201
   0.00000   0.00000   0.00000   0.00000   0.00000   0.00000   0.00000   0.00000   0.00000
Generated with MDTraj, t= 17.0
 75
    1UNL     C1    1  -0.177   0.032  -0.287
    1UNL     C2    2  -0.145   0.013  -0.163
    1UNL     C3    3  -0.241   0.051  -0.055
    1UNL     O1    4  -0.323   0.161  -0.079
    1UNL     C4    5  -0.426   0.166   0.012
    1UNL     O2    6  -0.442   0.101   0.114
    1UNL     C5    7  -0.519   0.276  -0.013
    1UNL     C6    8  -0.520   0.342  -0.133
    1UNL     C7    9  -0.615   0.438  -0.162
    1UNL     C8   10  -0.714   0.472  -0.069
    1UNL     O3   11  -0.792   0.582  -0.093
    1UNL     C9   12  -0.701   0.422   0.063
    1UNL    C10   13  -0.606   0.324   0.084
    1UNL    C11   14  -0.153   0.059   0.079
    1UNL    C12   15  -0.005   0.055   0.029
    1UNL    C13   16   0.064   0.185   0.021
    1UNL    C14   17   0.105   0.240   0.165
    1UNL     O4   18   0.186   0.152   0.235
    1UNL    C15   19  -0.014  -0.021  -0.108
    1UNL    C16   20   0.004  -0.171  -0.080
    1UNL     O5   21   0.111  -0.207   0.011
    1UNL    C17   22   0.064  -0.284   0.119
    1UNL     O6   23   0.133  -0.261   0.243
    1UNL    C18   24   0.271  -0.301   0.238
    1UNL    C19   25   0.361  -0.180   0.205
    1UNL     O7   26   0.362  -0.147   0.068
    1UNL    C20   27   0.398  -0.016   0.044
    1UNL     O8   28   0.440   0.059   0.127
    1UNL    C21   29   0.387   0.031  -0.101
    1UNL    C22   30   0.448   0.153  -0.146
    1UNL    C23   31   0.430   0.205  -0.270
    1UNL    C24   32   0.352   0.135  -0.361
    1UNL     O9   33   0.331   0.183  -0.494
    1UNL    C25   34   0.285   0.020  -0.319
    1UNL    C26   35   0.296  -0.032  -0.191
    1UNL    C27   36   0.301  -0.414   0.139
    1UNL    O10   37   0.421  -0.472   0.174
    1UNL    C28   38   0.182  -0.510   0.152
    1UNL    O11   39   0.218  -0.641   0.102
    1UNL    C29   40   0.069  -0.436   0.075
    1UNL    O12   41  -0.066  -0.489   0.100
    1UNL     H1   42  -0.275   0.076  -0.309
    1UNL     H2   43  -0.117  -0.014  -0.368
    1UNL     H3   44  -0.311  -0.026  -0.063
    1UNL     H4   45  -0.432   0.308  -0.193
    1UNL     H5   46  -0.616   0.502  -0.241
    1UNL     H6   47  -0.834   0.620  -0.012
    1UNL     H7   48  -0.763   0.451   0.147
    1UNL     H8   49  -0.597   0.283   0.178
    1UNL     H9   50  -0.175   0.151   0.132
    1UNL    H10   51  -0.164  -0.020   0.163
    1UNL    H11   52   0.053  -0.005   0.105
    1UNL    H12   53  -0.007   0.254  -0.046
    1UNL    H13   54   0.156   0.175  -0.038
    1UNL    H14   55   0.155   0.338   0.153
    1UNL    H15   56   0.011   0.242   0.222
    1UNL    H16   57   0.282   0.148   0.191
    1UNL    H17   58   0.069   0.019  -0.178
    1UNL    H18   59  -0.093  -0.214  -0.052
    1UNL    H19   60   0.011  -0.225  -0.172
    1UNL    H20   61  -0.044  -0.262   0.138
    1UNL    H21   62   0.301  -0.345   0.333
    1UNL    H22   63   0.334  -0.085   0.265
    1UNL    H23   64   0.467  -0.203   0.223
    1UNL    H24   65   0.510   0.202  -0.070
    1UNL    H25   66   0.465   0.298  -0.298
    1UNL    H26   67   0.412   0.203  -0.541
    1UNL    H27   68   0.226  -0.029  -0.394
    1UNL    H28   69   0.232  -0.105  -0.163
    1UNL    H29   70   0.300  -0.383   0.029
    1UNL    H30   71   0.411  -0.561   0.130
    1UNL    H31   72   0.149  -0.524   0.261
    1UNL    H32   73   0.129  -0.670   0.059
    1UNL    H33   74   0.092  -0.437  -0.036
    1UNL    H34   75  -0.075  -0.499   0.203
   0.00000   0.00000   0.00000   0.00000   0.00000   0.00000   0.00000   0.00000   0.00000
Generated with MDTraj, t= 18.0
 75
    1UNL     C1    1  -0.182   0.016  -0.274
    1UNL     C2    2  -0.150   0.014  -0.148
    1UNL     C3    3  -0.246   0.067  -0.040
    1UNL     O1    4  -0.333   0.158  -0.091
    1UNL     C4    5  -0.436   0.174   0.001
    1UNL     O2    6  -0.446   0.108   0.104
    1UNL     C5    7  -0.532   0.283  -0.019
    1UNL     C6    8  -0.521   0.360  -0.133
    1UNL     C7    9  -0.600   0.464  -0.167
    1UNL     C8   10  -0.702   0.487  -0.074
    1UNL     O3   11  -0.790   0.586  -0.096
    1UNL     C9   12  -0.724   0.407   0.044
    1UNL    C10   13  -0.638   0.306   0.072
    1UNL    C11   14  -0.153   0.112   0.073
    1UNL    C12   15  -0.009   0.053   0.045
    1UNL    C13   16   0.095   0.159   0.047
    1UNL    C14   17   0.118   0.230   0.183
    1UNL     O4   18   0.187   0.145   0.267
    1UNL    C15   19  -0.013  -0.030  -0.091
    1UNL    C16   20  -0.002  -0.181  -0.077
    1UNL     O5   21   0.109  -0.217   0.006
    1UNL    C17   22   0.067  -0.290   0.125
    1UNL     O6   23   0.140  -0.252   0.246
    1UNL    C18   24   0.282  -0.295   0.236
    1UNL    C19   25   0.381  -0.179   0.195
    1UNL     O7   26   0.355  -0.133   0.062
    1UNL    C20   27   0.392  -0.005   0.043
    1UNL     O8   28   0.432   0.068   0.130
    1UNL    C21   29   0.390   0.039  -0.100
    1UNL    C22   30   0.447   0.158  -0.149
    1UNL    C23   31   0.422   0.204  -0.276
    1UNL    C24   32   0.343   0.135  -0.366
    1UNL     O9   33   0.312   0.179  -0.495
    1UNL    C25   34   0.307   0.003  -0.332
    1UNL    C26   35   0.319  -0.040  -0.199
    1UNL    C27   36   0.307  -0.416   0.136
    1UNL    O10   37   0.429  -0.482   0.152
    1UNL    C28   38   0.188  -0.514   0.132
    1UNL    O11   39   0.214  -0.635   0.064
    1UNL    C29   40   0.059  -0.445   0.090
    1UNL    O12   41  -0.058  -0.512   0.146
    1UNL     H1   42  -0.281   0.043  -0.307
    1UNL     H2   43  -0.110  -0.013  -0.340
    1UNL     H3   44  -0.309  -0.009  -0.007
    1UNL     H4   45  -0.445   0.331  -0.197
    1UNL     H5   46  -0.601   0.523  -0.264
    1UNL     H6   47  -0.853   0.603  -0.023
    1UNL     H7   48  -0.808   0.422   0.107
    1UNL     H8   49  -0.675   0.232   0.145
    1UNL     H9   50  -0.136   0.218   0.086
    1UNL    H10   51  -0.197   0.084   0.175
    1UNL    H11   52   0.016  -0.024   0.124
    1UNL    H12   53   0.065   0.236  -0.033
    1UNL    H13   54   0.185   0.111  -0.000
    1UNL    H14   55   0.177   0.321   0.160
    1UNL    H15   56   0.020   0.255   0.226
    1UNL    H16   57   0.263   0.111   0.224
    1UNL    H17   58   0.075   0.000  -0.160
    1UNL    H18   59  -0.098  -0.216  -0.033
    1UNL    H19   60  -0.003  -0.232  -0.171
    1UNL    H20   61  -0.038  -0.262   0.142
    1UNL    H21   62   0.305  -0.329   0.335
    1UNL    H22   63   0.357  -0.092   0.268
    1UNL    H23   64   0.486  -0.211   0.197
    1UNL    H24   65   0.509   0.211  -0.080
    1UNL    H25   66   0.472   0.298  -0.315
    1UNL    H26   67   0.387   0.227  -0.526
    1UNL    H27   68   0.278  -0.054  -0.422
    1UNL    H28   69   0.283  -0.147  -0.179
    1UNL    H29   70   0.325  -0.346   0.044
    1UNL    H30   71   0.411  -0.576   0.125
    1UNL    H31   72   0.178  -0.547   0.240
    1UNL    H32   73   0.126  -0.669   0.030
    1UNL    H33   74   0.051  -0.451  -0.021
    1UNL    H34   75  -0.052  -0.520   0.250
   0.00000   0.00000   0.00000   0.00000   0.00000   0.00000   0.00000   0.00000   0.00000
Generated with MDTraj, t= 19.0
 75
    1UNL     C1    1  -0.190  -0.009  -0.272
    1UNL     C2    2  -0.152   0.014  -0.147
    1UNL     C3    3  -0.241   0.072  -0.040
    1UNL     O1    4  -0.327   0.167  -0.086
    1UNL     C4    5  -0.441   0.183  -0.004
    1UNL     O2    6  -0.461   0.119   0.098
    1UNL     C5    7  -0.536   0.291  -0.032
    1UNL     C6    8  -0.512   0.384  -0.128
    1UNL     C7    9  -0.602   0.480  -0.153
    1UNL     C8   10  -0.718   0.498  -0.081
    1UNL     O3   11  -0.802   0.602  -0.102
    1UNL     C9   12  -0.747   0.405   0.020
    1UNL    C10   13  -0.659   0.302   0.044
    1UNL    C11   14  -0.153   0.104   0.079
    1UNL    C12   15  -0.009   0.052   0.056
    1UNL    C13   16   0.105   0.164   0.054
    1UNL    C14   17   0.124   0.220   0.186
    1UNL     O4   18   0.190   0.134   0.279
    1UNL    C15   19  -0.022  -0.030  -0.077
    1UNL    C16   20  -0.013  -0.178  -0.059
    1UNL     O5   21   0.104  -0.210   0.018
    1UNL    C17   22   0.073  -0.287   0.137
    1UNL     O6   23   0.163  -0.263   0.246
    1UNL    C18   24   0.296  -0.301   0.220
    1UNL    C19   25   0.371  -0.168   0.193
    1UNL     O7   26   0.382  -0.152   0.051
    1UNL    C20   27   0.397  -0.023   0.035
    1UNL     O8   28   0.416   0.057   0.124
    1UNL    C21   29   0.385   0.031  -0.100
    1UNL    C22   30   0.418   0.162  -0.134
    1UNL    C23   31   0.397   0.206  -0.263
    1UNL    C24   32   0.345   0.125  -0.365
    1UNL     O9   33   0.329   0.169  -0.494
    1UNL    C25   34   0.312  -0.011  -0.330
    1UNL    C26   35   0.333  -0.056  -0.203
    1UNL    C27   36   0.317  -0.413   0.111
    1UNL    O10   37   0.432  -0.489   0.146
    1UNL    C28   38   0.195  -0.515   0.121
    1UNL    O11   39   0.214  -0.611   0.024
    1UNL    C29   40   0.059  -0.441   0.104
    1UNL    O12   41  -0.021  -0.500   0.191
    1UNL     H1   42  -0.295   0.010  -0.306
    1UNL     H2   43  -0.117  -0.031  -0.349
    1UNL     H3   44  -0.311  -0.005  -0.022
    1UNL     H4   45  -0.424   0.369  -0.196
    1UNL     H5   46  -0.577   0.545  -0.234
    1UNL     H6   47  -0.885   0.580  -0.055
    1UNL     H7   48  -0.852   0.412   0.060
    1UNL     H8   49  -0.679   0.218   0.111
    1UNL     H9   50  -0.147   0.215   0.072
    1UNL    H10   51  -0.198   0.077   0.178
    1UNL    H11   52   0.010  -0.019   0.141
    1UNL    H12   53   0.072   0.231  -0.028
    1UNL    H13   54   0.203   0.122   0.012
    1UNL    H14   55   0.171   0.318   0.179
    1UNL    H15   56   0.024   0.240   0.227
    1UNL    H16   57   0.279   0.112   0.234
    1UNL    H17   58   0.068   0.007  -0.139
    1UNL    H18   59  -0.106  -0.219  -0.011
    1UNL    H19   60   0.003  -0.221  -0.156
    1UNL    H20   61  -0.019  -0.244   0.173
    1UNL    H21   62   0.326  -0.355   0.310
    1UNL    H22   63   0.302  -0.085   0.235
    1UNL    H23   64   0.470  -0.170   0.239
    1UNL    H24   65   0.435   0.232  -0.054
    1UNL    H25   66   0.424   0.301  -0.293
    1UNL    H26   67   0.376   0.251  -0.514
    1UNL    H27   68   0.287  -0.085  -0.401
    1UNL    H28   69   0.304  -0.152  -0.177
    1UNL    H29   70   0.325  -0.361   0.006
    1UNL    H30   71   0.409  -0.578   0.117
    1UNL    H31   72   0.193  -0.584   0.210
    1UNL    H32   73   0.132  -0.647  -0.011
    1UNL    H33   74   0.004  -0.455   0.009
    1UNL    H34   75   0.010  -0.479   0.287
   0.00000   0.00000   0.00000   0.00000   0.00000   0.00000   0.00000   0.00000   0.00000
Generated with MDTraj, t= 20.0
 75
    1UNL     C1    1  -0.184  -0.004  -0.262
    1UNL     C2    2  -0.157   0.010  -0.134
    1UNL     C3    3  -0.258   0.060  -0.032
    1UNL     O1    4  -0.323   0.173  -0.075
    1UNL     C4    5  -0.439   0.185  -0.004
    1UNL     O2    6  -0.471   0.113   0.090
    1UNL     C5    7  -0.528   0.303  -0.036
    1UNL     C6    8  -0.495   0.410  -0.121
    1UNL     C7    9  -0.595   0.503  -0.149
    1UNL     C8   10  -0.726   0.492  -0.093
    1UNL     O3   11  -0.808   0.601  -0.122
    1UNL     C9   12  -0.749   0.390  -0.002
    1UNL    C10   13  -0.650   0.303   0.027
    1UNL    C11   14  -0.166   0.087   0.095
    1UNL    C12   15  -0.016   0.054   0.066
    1UNL    C13   16   0.062   0.184   0.058
    1UNL    C14   17   0.104   0.240   0.189
    1UNL     O4   18   0.173   0.138   0.265
    1UNL    C15   19  -0.026  -0.028  -0.067
    1UNL    C16   20  -0.009  -0.175  -0.033
    1UNL     O5   21   0.114  -0.209   0.034
    1UNL    C17   22   0.095  -0.284   0.160
    1UNL     O6   23   0.185  -0.271   0.263
    1UNL    C18   24   0.312  -0.309   0.220
    1UNL    C19   25   0.400  -0.190   0.189
    1UNL     O7   26   0.380  -0.159   0.049
    1UNL    C20   27   0.395  -0.029   0.034
    1UNL     O8   28   0.423   0.044   0.131
    1UNL    C21   29   0.379   0.021  -0.103
    1UNL    C22   30   0.388   0.156  -0.130
    1UNL    C23   31   0.389   0.204  -0.261
    1UNL    C24   32   0.351   0.110  -0.364
    1UNL     O9   33   0.335   0.156  -0.494
    1UNL    C25   34   0.326  -0.023  -0.329
    1UNL    C26   35   0.347  -0.067  -0.203
    1UNL    C27   36   0.322  -0.409   0.104
    1UNL    O10   37   0.438  -0.489   0.090
    1UNL    C28   38   0.198  -0.506   0.107
    1UNL    O11   39   0.204  -0.589  -0.008
    1UNL    C29   40   0.066  -0.430   0.125
    1UNL    O12   41  -0.028  -0.494   0.207
    1UNL     H1   42  -0.266   0.045  -0.299
    1UNL     H2   43  -0.119  -0.053  -0.332
    1UNL     H3   44  -0.334  -0.015  -0.016
    1UNL     H4   45  -0.399   0.417  -0.159
    1UNL     H5   46  -0.573   0.594  -0.199
    1UNL     H6   47  -0.898   0.577  -0.092
    1UNL     H7   48  -0.841   0.394   0.045
    1UNL     H8   49  -0.668   0.231   0.102
    1UNL     H9   50  -0.173   0.199   0.110
    1UNL    H10   51  -0.202   0.033   0.184
    1UNL    H11   52   0.034  -0.010   0.144
    1UNL    H12   53  -0.003   0.255   0.006
    1UNL    H13   54   0.146   0.160  -0.015
    1UNL    H14   55   0.162   0.331   0.174
    1UNL    H15   56   0.014   0.279   0.239
    1UNL    H16   57   0.251   0.101   0.218
    1UNL    H17   58   0.060   0.010  -0.132
    1UNL    H18   59  -0.092  -0.204   0.039
    1UNL    H19   60  -0.011  -0.231  -0.127
    1UNL    H20   61   0.009  -0.241   0.203
    1UNL    H21   62   0.357  -0.368   0.303
    1UNL    H22   63   0.360  -0.108   0.256
    1UNL    H23   64   0.503  -0.208   0.206
    1UNL    H24   65   0.395   0.219  -0.041
    1UNL    H25   66   0.382   0.313  -0.282
    1UNL    H26   67   0.327   0.257  -0.478
    1UNL    H27   68   0.289  -0.088  -0.409
    1UNL    H28   69   0.331  -0.171  -0.173
    1UNL    H29   70   0.320  -0.343   0.006
    1UNL    H30   71   0.409  -0.567   0.033
    1UNL    H31   72   0.207  -0.583   0.183
    1UNL    H32   73   0.122  -0.623  -0.041
    1UNL    H33   74   0.010  -0.422   0.033
    1UNL    H34   75  -0.004  -0.472   0.300
   0.00000   0.00000   0.00000   0.00000   0.00000   0.00000   0.00000   0.00000   0.00000
Generated with MDTraj, t= 21.0
 75
    1UNL     C1    1  -0.181   0.007  -0.253
    1UNL     C2    2  -0.145   0.015  -0.127
    1UNL     C3    3  -0.251   0.055  -0.029
    1UNL     O1    4  -0.318   0.173  -0.061
    1UNL     C4    5  -0.438   0.184   0.009
    1UNL     O2    6  -0.477   0.104   0.092
    1UNL     C5    7  -0.529   0.296  -0.018
    1UNL     C6    8  -0.491   0.394  -0.115
    1UNL     C7    9  -0.572   0.502  -0.145
    1UNL     C8   10  -0.705   0.496  -0.098
    1UNL     O3   11  -0.783   0.600  -0.152
    1UNL     C9   12  -0.748   0.386  -0.027
    1UNL    C10   13  -0.662   0.290   0.017
    1UNL    C11   14  -0.178   0.087   0.104
    1UNL    C12   15  -0.027   0.069   0.069
    1UNL    C13   16   0.050   0.194   0.054
    1UNL    C14   17   0.092   0.255   0.194
    1UNL     O4   18   0.163   0.166   0.276
    1UNL    C15   19  -0.019  -0.025  -0.055
    1UNL    C16   20   0.005  -0.173  -0.015
    1UNL     O5   21   0.117  -0.196   0.069
    1UNL    C17   22   0.093  -0.288   0.178
    1UNL     O6   23   0.205  -0.294   0.274
    1UNL    C18   24   0.334  -0.333   0.209
    1UNL    C19   25   0.416  -0.201   0.181
    1UNL     O7   26   0.416  -0.148   0.048
    1UNL    C20   27   0.390  -0.014   0.040
    1UNL     O8   28   0.386   0.064   0.138
    1UNL    C21   29   0.371   0.032  -0.097
    1UNL    C22   30   0.383   0.166  -0.139
    1UNL    C23   31   0.375   0.202  -0.270
    1UNL    C24   32   0.344   0.106  -0.366
    1UNL     O9   33   0.322   0.142  -0.503
    1UNL    C25   34   0.336  -0.028  -0.326
    1UNL    C26   35   0.360  -0.060  -0.196
    1UNL    C27   36   0.312  -0.417   0.079
    1UNL    O10   37   0.425  -0.488   0.040
    1UNL    C28   38   0.188  -0.508   0.095
    1UNL    O11   39   0.180  -0.600  -0.011
    1UNL    C29   40   0.055  -0.430   0.117
    1UNL    O12   41  -0.031  -0.504   0.213
    1UNL     H1   42  -0.283   0.033  -0.273
    1UNL     H2   43  -0.115  -0.028  -0.337
    1UNL     H3   44  -0.325  -0.027  -0.011
    1UNL     H4   45  -0.392   0.376  -0.166
    1UNL     H5   46  -0.540   0.582  -0.218
    1UNL     H6   47  -0.862   0.612  -0.094
    1UNL     H7   48  -0.853   0.385   0.008
    1UNL     H8   49  -0.701   0.196   0.063
    1UNL     H9   50  -0.194   0.198   0.131
    1UNL    H10   51  -0.216   0.023   0.183
    1UNL    H11   52   0.019   0.011   0.155
    1UNL    H12   53  -0.017   0.251  -0.012
    1UNL    H13   54   0.144   0.171  -0.001
    1UNL    H14   55   0.135   0.353   0.173
    1UNL    H15   56   0.001   0.279   0.251
    1UNL    H16   57   0.235   0.130   0.224
    1UNL    H17   58   0.068   0.004  -0.121
    1UNL    H18   59  -0.086  -0.208   0.044
    1UNL    H19   60   0.022  -0.231  -0.108
    1UNL    H20   61   0.007  -0.256   0.227
    1UNL    H21   62   0.404  -0.394   0.273
    1UNL    H22   63   0.392  -0.123   0.257
    1UNL    H23   64   0.518  -0.228   0.187
    1UNL    H24   65   0.392   0.248  -0.073
    1UNL    H25   66   0.380   0.306  -0.301
    1UNL    H26   67   0.311   0.241  -0.521
    1UNL    H27   68   0.315  -0.104  -0.398
    1UNL    H28   69   0.369  -0.164  -0.158
    1UNL    H29   70   0.300  -0.331  -0.002
    1UNL    H30   71   0.393  -0.553  -0.027
    1UNL    H31   72   0.200  -0.561   0.187
    1UNL    H32   73   0.089  -0.635  -0.023
    1UNL    H33   74  -0.004  -0.415   0.027
    1UNL    H34   75   0.001  -0.484   0.299
   0.00000   0.00000   0.00000   0.00000   0.00000   0.00000   0.00000   0.00000   0.00000
Generated with MDTraj, t= 22.0
 75
    1UNL     C1    1  -0.160  -0.005  -0.242
    1UNL     C2    2  -0.142   0.005  -0.108
    1UNL     C3    3  -0.237   0.056  -0.004
    1UNL     O1    4  -0.323   0.154  -0.057
    1UNL     C4    5  -0.446   0.164   0.006
    1UNL     O2    6  -0.485   0.098   0.100
    1UNL     C5    7  -0.527   0.275  -0.040
    1UNL     C6    8  -0.475   0.374  -0.121
    1UNL     C7    9  -0.549   0.484  -0.151
    1UNL     C8   10  -0.685   0.490  -0.119
    1UNL     O3   11  -0.752   0.601  -0.163
    1UNL     C9   12  -0.740   0.394  -0.033
    1UNL    C10   13  -0.656   0.284   0.006
    1UNL    C11   14  -0.166   0.098   0.128
    1UNL    C12   15  -0.017   0.075   0.099
    1UNL    C13   16   0.071   0.193   0.082
    1UNL    C14   17   0.089   0.278   0.207
    1UNL     O4   18   0.157   0.206   0.295
    1UNL    C15   19  -0.008  -0.012  -0.035
    1UNL    C16   20   0.000  -0.162  -0.001
    1UNL     O5   21   0.116  -0.190   0.074
    1UNL    C17   22   0.097  -0.291   0.170
    1UNL     O6   23   0.196  -0.307   0.266
    1UNL    C18   24   0.324  -0.332   0.197
    1UNL    C19   25   0.420  -0.206   0.181
    1UNL     O7   26   0.397  -0.157   0.047
    1UNL    C20   27   0.373  -0.023   0.029
    1UNL     O8   28   0.357   0.057   0.126
    1UNL    C21   29   0.361   0.022  -0.111
    1UNL    C22   30   0.366   0.159  -0.135
    1UNL    C23   31   0.351   0.197  -0.266
    1UNL    C24   32   0.330   0.109  -0.375
    1UNL     O9   33   0.315   0.160  -0.497
    1UNL    C25   34   0.337  -0.027  -0.345
    1UNL    C26   35   0.348  -0.074  -0.213
    1UNL    C27   36   0.300  -0.409   0.063
    1UNL    O10   37   0.421  -0.463   0.027
    1UNL    C28   38   0.190  -0.509   0.092
    1UNL    O11   39   0.180  -0.594  -0.025
    1UNL    C29   40   0.058  -0.425   0.114
    1UNL    O12   41  -0.021  -0.495   0.217
    1UNL     H1   42  -0.254  -0.005  -0.292
    1UNL     H2   43  -0.081  -0.018  -0.306
    1UNL     H3   44  -0.311  -0.026   0.023
    1UNL     H4   45  -0.378   0.371  -0.161
    1UNL     H5   46  -0.507   0.555  -0.212
    1UNL     H6   47  -0.843   0.597  -0.123
    1UNL     H7   48  -0.840   0.405  -0.001
    1UNL     H8   49  -0.685   0.214   0.078
    1UNL     H9   50  -0.195   0.209   0.132
    1UNL    H10   51  -0.207   0.056   0.220
    1UNL    H11   52   0.022   0.013   0.184
    1UNL    H12   53   0.047   0.253  -0.008
    1UNL    H13   54   0.163   0.145   0.061
    1UNL    H14   55   0.147   0.368   0.181
    1UNL    H15   56  -0.007   0.321   0.241
    1UNL    H16   57   0.235   0.156   0.246
    1UNL    H17   58   0.073   0.017  -0.105
    1UNL    H18   59  -0.094  -0.178   0.062
    1UNL    H19   60   0.002  -0.227  -0.091
    1UNL    H20   61   0.020  -0.246   0.225
    1UNL    H21   62   0.375  -0.407   0.263
    1UNL    H22   63   0.398  -0.125   0.252
    1UNL    H23   64   0.520  -0.239   0.177
    1UNL    H24   65   0.370   0.238  -0.060
    1UNL    H25   66   0.345   0.303  -0.282
    1UNL    H26   67   0.354   0.250  -0.505
    1UNL    H27   68   0.328  -0.100  -0.425
    1UNL    H28   69   0.349  -0.172  -0.181
    1UNL    H29   70   0.256  -0.344  -0.024
    1UNL    H30   71   0.403  -0.531  -0.039
    1UNL    H31   72   0.211  -0.573   0.173
    1UNL    H32   73   0.086  -0.631  -0.031
    1UNL    H33   74   0.018  -0.414   0.015
    1UNL    H34   75   0.012  -0.480   0.301
   0.00000   0.00000   0.00000   0.00000   0.00000   0.00000   0.00000   0.00000   0.00000
Generated with MDTraj, t= 23.0
 75
    1UNL     C1    1  -0.152  -0.003  -0.226
    1UNL     C2    2  -0.133   0.002  -0.096
    1UNL     C3    3  -0.239   0.057   0.000
    1UNL     O1    4  -0.320   0.163  -0.049
    1UNL     C4    5  -0.442   0.167   0.005
    1UNL     O2    6  -0.481   0.092   0.090
    1UNL     C5    7  -0.526   0.278  -0.052
    1UNL     C6    8  -0.466   0.373  -0.130
    1UNL     C7    9  -0.548   0.474  -0.175
    1UNL     C8   10  -0.678   0.489  -0.132
    1UNL     O3   11  -0.742   0.604  -0.170
    1UNL     C9   12  -0.735   0.400  -0.037
    1UNL    C10   13  -0.654   0.296   0.002
    1UNL    C11   14  -0.163   0.085   0.130
    1UNL    C12   15  -0.010   0.074   0.094
    1UNL    C13   16   0.069   0.203   0.071
    1UNL    C14   17   0.102   0.262   0.213
    1UNL     O4   18   0.193   0.197   0.292
    1UNL    C15   19  -0.002  -0.018  -0.025
    1UNL    C16   20   0.003  -0.159   0.015
    1UNL     O5   21   0.115  -0.192   0.095
    1UNL    C17   22   0.097  -0.293   0.193
    1UNL     O6   23   0.211  -0.327   0.278
    1UNL    C18   24   0.337  -0.333   0.205
    1UNL    C19   25   0.397  -0.195   0.177
    1UNL     O7   26   0.386  -0.155   0.038
    1UNL    C20   27   0.358  -0.020   0.023
    1UNL     O8   28   0.335   0.062   0.116
    1UNL    C21   29   0.348   0.024  -0.115
    1UNL    C22   30   0.343   0.162  -0.135
    1UNL    C23   31   0.322   0.207  -0.265
    1UNL    C24   32   0.315   0.115  -0.367
    1UNL     O9   33   0.312   0.175  -0.501
    1UNL    C25   34   0.318  -0.020  -0.342
    1UNL    C26   35   0.326  -0.066  -0.218
    1UNL    C27   36   0.314  -0.412   0.073
    1UNL    O10   37   0.435  -0.484   0.041
    1UNL    C28   38   0.192  -0.509   0.083
    1UNL    O11   39   0.175  -0.573  -0.050
    1UNL    C29   40   0.052  -0.426   0.117
    1UNL    O12   41  -0.014  -0.516   0.213
    1UNL     H1   42  -0.250   0.029  -0.271
    1UNL     H2   43  -0.084  -0.047  -0.298
    1UNL     H3   44  -0.317  -0.026   0.024
    1UNL     H4   45  -0.371   0.348  -0.178
    1UNL     H5   46  -0.506   0.552  -0.244
    1UNL     H6   47  -0.840   0.607  -0.156
    1UNL     H7   48  -0.833   0.413   0.009
    1UNL     H8   49  -0.692   0.227   0.082
    1UNL     H9   50  -0.194   0.183   0.174
    1UNL    H10   51  -0.198   0.012   0.205
    1UNL    H11   52   0.044   0.029   0.181
    1UNL    H12   53   0.008   0.269   0.010
    1UNL    H13   54   0.153   0.195   0.011
    1UNL    H14   55   0.127   0.368   0.207
    1UNL    H15   56   0.008   0.271   0.273
    1UNL    H16   57   0.248   0.149   0.234
    1UNL    H17   58   0.083   0.009  -0.087
    1UNL    H18   59  -0.085  -0.171   0.085
    1UNL    H19   60  -0.006  -0.225  -0.075
    1UNL    H20   61   0.020  -0.264   0.259
    1UNL    H21   62   0.404  -0.392   0.271
    1UNL    H22   63   0.343  -0.113   0.230
    1UNL    H23   64   0.501  -0.197   0.199
    1UNL    H24   65   0.359   0.225  -0.051
    1UNL    H25   66   0.313   0.316  -0.289
    1UNL    H26   67   0.377   0.244  -0.498
    1UNL    H27   68   0.326  -0.082  -0.429
    1UNL    H28   69   0.315  -0.180  -0.206
    1UNL    H29   70   0.298  -0.331  -0.011
    1UNL    H30   71   0.421  -0.566  -0.014
    1UNL    H31   72   0.214  -0.578   0.162
    1UNL    H32   73   0.079  -0.607  -0.057
    1UNL    H33   74  -0.009  -0.419   0.031
    1UNL    H34   75   0.028  -0.518   0.299
   0.00000   0.00000   0.00000   0.00000   0.00000   0.00000   0.00000   0.00000   0.00000
Generated with MDTraj, t= 24.0
 75
    1UNL     C1    1  -0.144  -0.003  -0.221
    1UNL     C2    2  -0.134   0.003  -0.089
    1UNL     C3    3  -0.245   0.056   0.005
    1UNL     O1    4  -0.303   0.173  -0.056
    1UNL     C4    5  -0.427   0.185  -0.008
    1UNL     O2    6  -0.477   0.104   0.066
    1UNL     C5    7  -0.510   0.300  -0.040
    1UNL     C6    8  -0.465   0.376  -0.144
    1UNL     C7    9  -0.548   0.482  -0.195
    1UNL     C8   10  -0.675   0.497  -0.136
    1UNL     O3   11  -0.758   0.596  -0.188
    1UNL     C9   12  -0.718   0.409  -0.034
    1UNL    C10   13  -0.642   0.305   0.012
    1UNL    C11   14  -0.172   0.083   0.146
    1UNL    C12   15  -0.018   0.068   0.118
    1UNL    C13   16   0.056   0.198   0.091
    1UNL    C14   17   0.085   0.273   0.219
    1UNL     O4   18   0.166   0.187   0.300
    1UNL    C15   19  -0.014  -0.026  -0.004
    1UNL    C16   20   0.006  -0.172   0.037
    1UNL     O5   21   0.114  -0.199   0.123
    1UNL    C17   22   0.103  -0.321   0.203
    1UNL     O6   23   0.217  -0.335   0.284
    1UNL    C18   24   0.337  -0.333   0.204
    1UNL    C19   25   0.388  -0.191   0.162
    1UNL     O7   26   0.365  -0.155   0.027
    1UNL    C20   27   0.362  -0.020   0.018
    1UNL     O8   28   0.379   0.059   0.110
    1UNL    C21   29   0.345   0.041  -0.122
    1UNL    C22   30   0.356   0.172  -0.152
    1UNL    C23   31   0.326   0.221  -0.275
    1UNL    C24   32   0.298   0.128  -0.376
    1UNL     O9   33   0.279   0.172  -0.504
    1UNL    C25   34   0.303  -0.012  -0.351
    1UNL    C26   35   0.320  -0.056  -0.219
    1UNL    C27   36   0.323  -0.415   0.075
    1UNL    O10   37   0.436  -0.498   0.047
    1UNL    C28   38   0.204  -0.510   0.081
    1UNL    O11   39   0.191  -0.567  -0.047
    1UNL    C29   40   0.068  -0.447   0.131
    1UNL    O12   41  -0.021  -0.541   0.196
    1UNL     H1   42  -0.231   0.031  -0.264
    1UNL     H2   43  -0.071  -0.044  -0.287
    1UNL     H3   44  -0.334  -0.022   0.013
    1UNL     H4   45  -0.373   0.344  -0.193
    1UNL     H5   46  -0.540   0.521  -0.294
    1UNL     H6   47  -0.849   0.599  -0.149
    1UNL     H7   48  -0.818   0.418   0.007
    1UNL     H8   49  -0.680   0.226   0.067
    1UNL     H9   50  -0.200   0.182   0.180
    1UNL    H10   51  -0.209   0.010   0.221
    1UNL    H11   52   0.040   0.014   0.195
    1UNL    H12   53   0.003   0.257   0.020
    1UNL    H13   54   0.147   0.191   0.035
    1UNL    H14   55   0.118   0.376   0.203
    1UNL    H15   56  -0.010   0.295   0.275
    1UNL    H16   57   0.247   0.150   0.247
    1UNL    H17   58   0.071   0.004  -0.059
    1UNL    H18   59  -0.078  -0.207   0.103
    1UNL    H19   60   0.016  -0.239  -0.050
    1UNL    H20   61   0.017  -0.304   0.265
    1UNL    H21   62   0.409  -0.386   0.269
    1UNL    H22   63   0.331  -0.112   0.220
    1UNL    H23   64   0.493  -0.168   0.181
    1UNL    H24   65   0.382   0.238  -0.068
    1UNL    H25   66   0.336   0.322  -0.294
    1UNL    H26   67   0.331   0.252  -0.521
    1UNL    H27   68   0.290  -0.091  -0.425
    1UNL    H28   69   0.328  -0.154  -0.192
    1UNL    H29   70   0.305  -0.343  -0.016
    1UNL    H30   71   0.417  -0.569  -0.016
    1UNL    H31   72   0.230  -0.587   0.152
    1UNL    H32   73   0.102  -0.604  -0.065
    1UNL    H33   74   0.015  -0.413   0.047
    1UNL    H34   75   0.034  -0.578   0.272
   0.00000   0.00000   0.00000   0.00000   0.00000   0.00000   0.00000   0.00000   0.00000
Generated with MDTraj, t= 25.0
 75
    1UNL     C1    1  -0.142  -0.017  -0.219
    1UNL     C2    2  -0.131   0.000  -0.089
    1UNL     C3    3  -0.247   0.049  -0.005
    1UNL     O1    4  -0.306   0.172  -0.059
    1UNL     C4    5  -0.429   0.193  -0.009
    1UNL     O2    6  -0.469   0.126   0.082
    1UNL     C5    7  -0.517   0.300  -0.052
    1UNL     C6    8  -0.470   0.381  -0.153
    1UNL     C7    9  -0.553   0.474  -0.204
    1UNL     C8   10  -0.678   0.502  -0.151
    1UNL     O3   11  -0.755   0.602  -0.206
    1UNL     C9   12  -0.716   0.427  -0.038
    1UNL    C10   13  -0.636   0.325   0.013
    1UNL    C11   14  -0.182   0.088   0.128
    1UNL    C12   15  -0.028   0.063   0.127
    1UNL    C13   16   0.057   0.189   0.106
    1UNL    C14   17   0.108   0.256   0.228
    1UNL     O4   18   0.195   0.170   0.304
    1UNL    C15   19  -0.015  -0.035   0.005
    1UNL    C16   20  -0.008  -0.182   0.049
    1UNL     O5   21   0.106  -0.202   0.124
    1UNL    C17   22   0.095  -0.324   0.199
    1UNL     O6   23   0.222  -0.334   0.277
    1UNL    C18   24   0.337  -0.329   0.194
    1UNL    C19   25   0.367  -0.182   0.164
    1UNL     O7   26   0.363  -0.144   0.034
    1UNL    C20   27   0.355  -0.009   0.024
    1UNL     O8   28   0.371   0.065   0.118
    1UNL    C21   29   0.341   0.040  -0.113
    1UNL    C22   30   0.358   0.170  -0.145
    1UNL    C23   31   0.343   0.214  -0.274
    1UNL    C24   32   0.296   0.131  -0.373
    1UNL     O9   33   0.245   0.172  -0.496
    1UNL    C25   34   0.275  -0.010  -0.348
    1UNL    C26   35   0.303  -0.051  -0.213
    1UNL    C27   36   0.329  -0.414   0.067
    1UNL    O10   37   0.450  -0.475   0.030
    1UNL    C28   38   0.220  -0.519   0.086
    1UNL    O11   39   0.215  -0.601  -0.019
    1UNL    C29   40   0.074  -0.451   0.112
    1UNL    O12   41   0.001  -0.547   0.177
    1UNL     H1   42  -0.235   0.002  -0.270
    1UNL     H2   43  -0.053  -0.036  -0.286
    1UNL     H3   44  -0.332  -0.034   0.000
    1UNL     H4   45  -0.379   0.372  -0.206
    1UNL     H5   46  -0.517   0.534  -0.286
    1UNL     H6   47  -0.830   0.620  -0.146
    1UNL     H7   48  -0.798   0.462   0.018
    1UNL     H8   49  -0.668   0.263   0.102
    1UNL     H9   50  -0.204   0.192   0.133
    1UNL    H10   51  -0.232   0.038   0.218
    1UNL    H11   52   0.009   0.010   0.216
    1UNL    H12   53   0.014   0.254   0.041
    1UNL    H13   54   0.151   0.169   0.057
    1UNL    H14   55   0.150   0.356   0.218
    1UNL    H15   56   0.012   0.275   0.282
    1UNL    H16   57   0.259   0.127   0.240
    1UNL    H17   58   0.075  -0.013  -0.044
    1UNL    H18   59  -0.094  -0.215   0.108
    1UNL    H19   60   0.002  -0.252  -0.037
    1UNL    H20   61   0.014  -0.309   0.271
    1UNL    H21   62   0.423  -0.372   0.245
    1UNL    H22   63   0.299  -0.109   0.217
    1UNL    H23   64   0.468  -0.147   0.195
    1UNL    H24   65   0.380   0.235  -0.064
    1UNL    H25   66   0.360   0.324  -0.296
    1UNL    H26   67   0.262   0.267  -0.517
    1UNL    H27   68   0.236  -0.078  -0.424
    1UNL    H28   69   0.285  -0.160  -0.191
    1UNL    H29   70   0.290  -0.353  -0.025
    1UNL    H30   71   0.431  -0.545  -0.034
    1UNL    H31   72   0.242  -0.587   0.171
    1UNL    H32   73   0.133  -0.648  -0.031
    1UNL    H33   74   0.015  -0.431   0.026
    1UNL    H34   75   0.055  -0.586   0.257
   0.00000   0.00000   0.00000   0.00000   0.00000   0.00000   0.00000   0.00000   0.00000
Generated with MDTraj, t= 26.0
 75
    1UNL     C1    1  -0.158  -0.020  -0.222
    1UNL     C2    2  -0.148  -0.009  -0.088
    1UNL     C3    3  -0.243   0.059   0.007
    1UNL     O1    4  -0.322   0.154  -0.063
    1UNL     C4    5  -0.434   0.192   0.006
    1UNL     O2    6  -0.461   0.157   0.118
    1UNL     C5    7  -0.516   0.298  -0.058
    1UNL     C6    8  -0.469   0.370  -0.174
    1UNL     C7    9  -0.553   0.468  -0.218
    1UNL     C8   10  -0.677   0.508  -0.157
    1UNL     O3   11  -0.736   0.621  -0.219
    1UNL     C9   12  -0.715   0.440  -0.044
    1UNL    C10   13  -0.635   0.331   0.000
    1UNL    C11   14  -0.165   0.110   0.126
    1UNL    C12   15  -0.019   0.056   0.115
    1UNL    C13   16   0.072   0.175   0.097
    1UNL    C14   17   0.107   0.231   0.238
    1UNL     O4   18   0.182   0.150   0.320
    1UNL    C15   19  -0.020  -0.040  -0.005
    1UNL    C16   20  -0.027  -0.174   0.056
    1UNL     O5   21   0.106  -0.215   0.103
    1UNL    C17   22   0.102  -0.328   0.186
    1UNL     O6   23   0.209  -0.333   0.277
    1UNL    C18   24   0.335  -0.322   0.204
    1UNL    C19   25   0.393  -0.179   0.180
    1UNL     O7   26   0.369  -0.145   0.050
    1UNL    C20   27   0.363  -0.012   0.025
    1UNL     O8   28   0.386   0.069   0.110
    1UNL    C21   29   0.323   0.036  -0.109
    1UNL    C22   30   0.342   0.170  -0.142
    1UNL    C23   31   0.327   0.215  -0.275
    1UNL    C24   32   0.268   0.132  -0.370
    1UNL     O9   33   0.245   0.180  -0.501
    1UNL    C25   34   0.238   0.004  -0.331
    1UNL    C26   35   0.279  -0.048  -0.211
    1UNL    C27   36   0.337  -0.404   0.074
    1UNL    O10   37   0.461  -0.454   0.031
    1UNL    C28   38   0.233  -0.529   0.087
    1UNL    O11   39   0.242  -0.625  -0.016
    1UNL    C29   40   0.091  -0.459   0.105
    1UNL    O12   41   0.006  -0.552   0.162
    1UNL     H1   42  -0.218   0.042  -0.284
    1UNL     H2   43  -0.083  -0.065  -0.277
    1UNL     H3   44  -0.313  -0.026   0.050
    1UNL     H4   45  -0.377   0.338  -0.227
    1UNL     H5   46  -0.518   0.531  -0.301
    1UNL     H6   47  -0.808   0.653  -0.162
    1UNL     H7   48  -0.812   0.466   0.007
    1UNL     H8   49  -0.650   0.282   0.093
    1UNL     H9   50  -0.167   0.216   0.123
    1UNL    H10   51  -0.219   0.087   0.224
    1UNL    H11   52   0.013   0.004   0.205
    1UNL    H12   53   0.030   0.251   0.043
    1UNL    H13   54   0.164   0.152   0.045
    1UNL    H14   55   0.147   0.330   0.220
    1UNL    H15   56   0.016   0.251   0.298
    1UNL    H16   57   0.260   0.121   0.272
    1UNL    H17   58   0.063  -0.043  -0.070
    1UNL    H18   59  -0.101  -0.183   0.133
    1UNL    H19   60  -0.058  -0.247  -0.022
    1UNL    H20   61   0.010  -0.314   0.245
    1UNL    H21   62   0.399  -0.369   0.280
    1UNL    H22   63   0.345  -0.103   0.249
    1UNL    H23   64   0.502  -0.166   0.205
    1UNL    H24   65   0.377   0.230  -0.057
    1UNL    H25   66   0.358   0.314  -0.293
    1UNL    H26   67   0.244   0.282  -0.494
    1UNL    H27   68   0.191  -0.057  -0.406
    1UNL    H28   69   0.251  -0.153  -0.204
    1UNL    H29   70   0.308  -0.323  -0.003
    1UNL    H30   71   0.445  -0.534  -0.028
    1UNL    H31   72   0.270  -0.583   0.180
    1UNL    H32   73   0.158  -0.673  -0.027
    1UNL    H33   74   0.053  -0.438   0.008
    1UNL    H34   75   0.038  -0.582   0.256
   0.00000   0.00000   0.00000   0.00000   0.00000   0.00000   0.00000   0.00000   0.00000
Generated with MDTraj, t= 27.0
 75
    1UNL     C1    1  -0.191  -0.033  -0.215
    1UNL     C2    2  -0.162  -0.014  -0.087
    1UNL     C3    3  -0.260   0.058   0.004
    1UNL     O1    4  -0.331   0.166  -0.060
    1UNL     C4    5  -0.435   0.212   0.019
    1UNL     O2    6  -0.462   0.167   0.128
    1UNL     C5    7  -0.511   0.319  -0.045
    1UNL     C6    8  -0.476   0.367  -0.172
    1UNL     C7    9  -0.547   0.466  -0.236
    1UNL     C8   10  -0.665   0.514  -0.166
    1UNL     O3   11  -0.727   0.611  -0.241
    1UNL     C9   12  -0.704   0.456  -0.043
    1UNL    C10   13  -0.628   0.361   0.012
    1UNL    C11   14  -0.184   0.105   0.132
    1UNL    C12   15  -0.037   0.057   0.113
    1UNL    C13   16   0.065   0.173   0.089
    1UNL    C14   17   0.111   0.234   0.228
    1UNL     O4   18   0.181   0.140   0.294
    1UNL    C15   19  -0.034  -0.043  -0.009
    1UNL    C16   20  -0.018  -0.192   0.022
    1UNL     O5   21   0.102  -0.208   0.096
    1UNL    C17   22   0.117  -0.327   0.174
    1UNL     O6   23   0.221  -0.327   0.272
    1UNL    C18   24   0.357  -0.340   0.216
    1UNL    C19   25   0.391  -0.193   0.175
    1UNL     O7   26   0.347  -0.148   0.052
    1UNL    C20   27   0.361  -0.011   0.037
    1UNL     O8   28   0.386   0.068   0.121
    1UNL    C21   29   0.334   0.044  -0.107
    1UNL    C22   30   0.347   0.181  -0.138
    1UNL    C23   31   0.313   0.226  -0.268
    1UNL    C24   32   0.250   0.138  -0.360
    1UNL     O9   33   0.213   0.174  -0.484
    1UNL    C25   34   0.235   0.007  -0.318
    1UNL    C26   35   0.282  -0.044  -0.199
    1UNL    C27   36   0.360  -0.424   0.083
    1UNL    O10   37   0.488  -0.482   0.080
    1UNL    C28   38   0.245  -0.538   0.078
    1UNL    O11   39   0.256  -0.614  -0.044
    1UNL    C29   40   0.109  -0.460   0.093
    1UNL    O12   41   0.022  -0.547   0.162
    1UNL     H1   42  -0.295  -0.008  -0.249
    1UNL     H2   43  -0.116  -0.054  -0.290
    1UNL     H3   44  -0.340  -0.018   0.043
    1UNL     H4   45  -0.395   0.324  -0.223
    1UNL     H5   46  -0.533   0.502  -0.334
    1UNL     H6   47  -0.798   0.651  -0.188
    1UNL     H7   48  -0.792   0.484   0.005
    1UNL     H8   49  -0.670   0.300   0.094
    1UNL     H9   50  -0.199   0.212   0.135
    1UNL    H10   51  -0.234   0.068   0.226
    1UNL    H11   52   0.001   0.014   0.204
    1UNL    H12   53   0.019   0.244   0.023
    1UNL    H13   54   0.156   0.132   0.046
    1UNL    H14   55   0.180   0.318   0.219
    1UNL    H15   56   0.028   0.277   0.287
    1UNL    H16   57   0.259   0.110   0.231
    1UNL    H17   58   0.050  -0.028  -0.071
    1UNL    H18   59  -0.095  -0.211   0.091
    1UNL    H19   60  -0.031  -0.268  -0.060
    1UNL    H20   61   0.019  -0.322   0.230
    1UNL    H21   62   0.412  -0.398   0.293
    1UNL    H22   63   0.355  -0.126   0.257
    1UNL    H23   64   0.501  -0.190   0.181
    1UNL    H24   65   0.383   0.250  -0.067
    1UNL    H25   66   0.334   0.327  -0.308
    1UNL    H26   67   0.231   0.269  -0.517
    1UNL    H27   68   0.182  -0.058  -0.387
    1UNL    H28   69   0.274  -0.145  -0.175
    1UNL    H29   70   0.343  -0.364  -0.012
    1UNL    H30   71   0.489  -0.566   0.029
    1UNL    H31   72   0.252  -0.611   0.166
    1UNL    H32   73   0.163  -0.657  -0.045
    1UNL    H33   74   0.074  -0.441  -0.006
    1UNL    H34   75   0.054  -0.553   0.257
   0.00000   0.00000   0.00000   0.00000   0.00000   0.00000   0.00000   0.00000   0.00000
Generated with MDTraj, t= 28.0
 75
    1UNL     C1    1  -0.219  -0.063  -0.203
    1UNL     C2    2  -0.178  -0.022  -0.084
    1UNL     C3    3  -0.268   0.049   0.019
    1UNL     O1    4  -0.317   0.169  -0.048
    1UNL     C4    5  -0.430   0.219   0.014
    1UNL     O2    6  -0.475   0.179   0.120
    1UNL     C5    7  -0.505   0.327  -0.045
    1UNL     C6    8  -0.471   0.368  -0.167
    1UNL     C7    9  -0.547   0.458  -0.236
    1UNL     C8   10  -0.659   0.513  -0.182
    1UNL     O3   11  -0.738   0.605  -0.248
    1UNL     C9   12  -0.683   0.485  -0.042
    1UNL    C10   13  -0.608   0.395   0.024
    1UNL    C11   14  -0.190   0.078   0.153
    1UNL    C12   15  -0.047   0.042   0.104
    1UNL    C13   16   0.040   0.169   0.082
    1UNL    C14   17   0.091   0.244   0.210
    1UNL     O4   18   0.176   0.157   0.282
    1UNL    C15   19  -0.045  -0.045  -0.024
    1UNL    C16   20  -0.020  -0.198   0.011
    1UNL     O5   21   0.098  -0.213   0.081
    1UNL    C17   22   0.116  -0.323   0.172
    1UNL     O6   23   0.216  -0.313   0.269
    1UNL    C18   24   0.352  -0.322   0.217
    1UNL    C19   25   0.409  -0.183   0.174
    1UNL     O7   26   0.394  -0.157   0.040
    1UNL    C20   27   0.385  -0.020   0.026
    1UNL     O8   28   0.397   0.052   0.119
    1UNL    C21   29   0.347   0.026  -0.105
    1UNL    C22   30   0.345   0.170  -0.127
    1UNL    C23   31   0.291   0.222  -0.240
    1UNL    C24   32   0.235   0.135  -0.335
    1UNL     O9   33   0.193   0.179  -0.458
    1UNL    C25   34   0.228  -0.001  -0.313
    1UNL    C26   35   0.278  -0.052  -0.197
    1UNL    C27   36   0.372  -0.424   0.099
    1UNL    O10   37   0.493  -0.495   0.100
    1UNL    C28   38   0.259  -0.529   0.082
    1UNL    O11   39   0.270  -0.598  -0.043
    1UNL    C29   40   0.125  -0.451   0.084
    1UNL    O12   41   0.010  -0.538   0.119
    1UNL     H1   42  -0.319  -0.054  -0.229
    1UNL     H2   43  -0.161  -0.127  -0.265
    1UNL     H3   44  -0.365  -0.009   0.046
    1UNL     H4   45  -0.378   0.322  -0.206
    1UNL     H5   46  -0.515   0.485  -0.339
    1UNL     H6   47  -0.817   0.632  -0.196
    1UNL     H7   48  -0.767   0.539   0.004
    1UNL     H8   49  -0.627   0.356   0.120
    1UNL     H9   50  -0.213   0.185   0.171
    1UNL    H10   51  -0.227   0.013   0.234
    1UNL    H11   52   0.011  -0.010   0.178
    1UNL    H12   53  -0.027   0.242   0.026
    1UNL    H13   54   0.125   0.135   0.025
    1UNL    H14   55   0.132   0.343   0.184
    1UNL    H15   56   0.009   0.273   0.278
    1UNL    H16   57   0.249   0.127   0.230
    1UNL    H17   58   0.029  -0.019  -0.095
    1UNL    H18   59  -0.092  -0.240   0.073
    1UNL    H19   60  -0.024  -0.263  -0.078
    1UNL    H20   61   0.017  -0.332   0.228
    1UNL    H21   62   0.415  -0.364   0.301
    1UNL    H22   63   0.358  -0.114   0.242
    1UNL    H23   64   0.514  -0.169   0.198
    1UNL    H24   65   0.387   0.244  -0.057
    1UNL    H25   66   0.301   0.330  -0.248
    1UNL    H26   67   0.242   0.257  -0.489
    1UNL    H27   68   0.172  -0.053  -0.389
    1UNL    H28   69   0.267  -0.163  -0.167
    1UNL    H29   70   0.379  -0.366   0.003
    1UNL    H30   71   0.500  -0.572   0.044
    1UNL    H31   72   0.275  -0.608   0.164
    1UNL    H32   73   0.190  -0.647  -0.077
    1UNL    H33   74   0.110  -0.424  -0.019
    1UNL    H34   75   0.014  -0.570   0.209
   0.00000   0.00000   0.00000   0.00000   0.00000   0.00000   0.00000   0.00000   0.00000
Generated with MDTraj, t= 29.0
 75
    1UNL     C1    1  -0.245  -0.092  -0.179
    1UNL     C2    2  -0.193  -0.037  -0.071
    1UNL     C3    3  -0.271   0.050   0.024
    1UNL     O1    4  -0.326   0.163  -0.047
    1UNL     C4    5  -0.426   0.221   0.026
    1UNL     O2    6  -0.458   0.191   0.142
    1UNL     C5    7  -0.496   0.334  -0.052
    1UNL     C6    8  -0.468   0.358  -0.184
    1UNL     C7    9  -0.544   0.453  -0.245
    1UNL     C8   10  -0.646   0.522  -0.179
    1UNL     O3   11  -0.719   0.613  -0.247
    1UNL     C9   12  -0.671   0.496  -0.039
    1UNL    C10   13  -0.601   0.400   0.021
    1UNL    C11   14  -0.177   0.070   0.143
    1UNL    C12   15  -0.030   0.044   0.090
    1UNL    C13   16   0.034   0.180   0.062
    1UNL    C14   17   0.078   0.252   0.185
    1UNL     O4   18   0.151   0.167   0.278
    1UNL    C15   19  -0.049  -0.050  -0.031
    1UNL    C16   20  -0.020  -0.201   0.010
    1UNL     O5   21   0.102  -0.203   0.073
    1UNL    C17   22   0.119  -0.316   0.160
    1UNL     O6   23   0.223  -0.312   0.254
    1UNL    C18   24   0.358  -0.324   0.209
    1UNL    C19   25   0.408  -0.181   0.182
    1UNL     O7   26   0.380  -0.150   0.053
    1UNL    C20   27   0.365  -0.010   0.044
    1UNL     O8   28   0.389   0.070   0.129
    1UNL    C21   29   0.322   0.027  -0.087
    1UNL    C22   30   0.348   0.162  -0.117
    1UNL    C23   31   0.292   0.216  -0.232
    1UNL    C24   32   0.230   0.125  -0.326
    1UNL     O9   33   0.156   0.175  -0.432
    1UNL    C25   34   0.238  -0.014  -0.303
    1UNL    C26   35   0.280  -0.060  -0.183
    1UNL    C27   36   0.385  -0.429   0.092
    1UNL    O10   37   0.504  -0.506   0.085
    1UNL    C28   38   0.266  -0.529   0.091
    1UNL    O11   39   0.285  -0.627  -0.004
    1UNL    C29   40   0.135  -0.439   0.060
    1UNL    O12   41   0.020  -0.523   0.055
    1UNL     H1   42  -0.346  -0.078  -0.215
    1UNL     H2   43  -0.188  -0.169  -0.240
    1UNL     H3   44  -0.363  -0.008   0.060
    1UNL     H4   45  -0.395   0.300  -0.234
    1UNL     H5   46  -0.517   0.487  -0.341
    1UNL     H6   47  -0.796   0.648  -0.196
    1UNL     H7   48  -0.763   0.534   0.008
    1UNL     H8   49  -0.624   0.369   0.128
    1UNL     H9   50  -0.193   0.179   0.170
    1UNL    H10   51  -0.209  -0.005   0.218
    1UNL    H11   52   0.037  -0.003   0.160
    1UNL    H12   53  -0.049   0.237  -0.000
    1UNL    H13   54   0.126   0.171   0.005
    1UNL    H14   55   0.132   0.347   0.163
    1UNL    H15   56  -0.012   0.287   0.238
    1UNL    H16   57   0.235   0.135   0.230
    1UNL    H17   58   0.012  -0.020  -0.116
    1UNL    H18   59  -0.094  -0.241   0.070
    1UNL    H19   60  -0.013  -0.277  -0.071
    1UNL    H20   61   0.025  -0.310   0.226
    1UNL    H21   62   0.424  -0.354   0.296
    1UNL    H22   63   0.356  -0.114   0.248
    1UNL    H23   64   0.509  -0.158   0.212
    1UNL    H24   65   0.404   0.224  -0.053
    1UNL    H25   66   0.305   0.315  -0.268
    1UNL    H26   67   0.183   0.264  -0.454
    1UNL    H27   68   0.211  -0.080  -0.386
    1UNL    H28   69   0.269  -0.156  -0.154
    1UNL    H29   70   0.373  -0.376  -0.003
    1UNL    H30   71   0.489  -0.586   0.028
    1UNL    H31   72   0.238  -0.574   0.191
    1UNL    H32   73   0.206  -0.664  -0.041
    1UNL    H33   74   0.148  -0.390  -0.035
    1UNL    H34   75   0.010  -0.562   0.138
   0.00000   0.00000   0.00000   0.00000   0.00000   0.00000   0.00000   0.00000   0.00000
Generated with MDTraj, t= 30.0
 75
    1UNL     C1    1  -0.253  -0.117  -0.178
    1UNL     C2    2  -0.203  -0.051  -0.072
    1UNL     C3    3  -0.283   0.044   0.015
    1UNL     O1    4  -0.345   0.144  -0.057
    1UNL     C4    5  -0.424   0.223   0.028
    1UNL     O2    6  -0.432   0.202   0.148
    1UNL     C5    7  -0.490   0.332  -0.036
    1UNL     C6    8  -0.471   0.352  -0.174
    1UNL     C7    9  -0.539   0.449  -0.240
    1UNL     C8   10  -0.630   0.528  -0.173
    1UNL     O3   11  -0.689   0.627  -0.247
    1UNL     C9   12  -0.661   0.499  -0.043
    1UNL    C10   13  -0.588   0.407   0.029
    1UNL    C11   14  -0.187   0.087   0.130
    1UNL    C12   15  -0.040   0.043   0.098
    1UNL    C13   16   0.040   0.173   0.047
    1UNL    C14   17   0.079   0.261   0.159
    1UNL     O4   18   0.145   0.190   0.265
    1UNL    C15   19  -0.066  -0.057  -0.012
    1UNL    C16   20  -0.020  -0.197   0.010
    1UNL     O5   21   0.100  -0.200   0.081
    1UNL    C17   22   0.127  -0.327   0.144
    1UNL     O6   23   0.221  -0.324   0.248
    1UNL    C18   24   0.360  -0.333   0.213
    1UNL    C19   25   0.410  -0.186   0.183
    1UNL     O7   26   0.397  -0.141   0.050
    1UNL    C20   27   0.361  -0.008   0.051
    1UNL     O8   28   0.378   0.063   0.145
    1UNL    C21   29   0.309   0.039  -0.083
    1UNL    C22   30   0.319   0.175  -0.114
    1UNL    C23   31   0.274   0.217  -0.233
    1UNL    C24   32   0.219   0.130  -0.329
    1UNL     O9   33   0.157   0.165  -0.446
    1UNL    C25   34   0.209  -0.008  -0.291
    1UNL    C26   35   0.245  -0.047  -0.169
    1UNL    C27   36   0.395  -0.438   0.099
    1UNL    O10   37   0.513  -0.512   0.131
    1UNL    C28   38   0.271  -0.534   0.085
    1UNL    O11   39   0.303  -0.632  -0.004
    1UNL    C29   40   0.151  -0.443   0.042
    1UNL    O12   41   0.036  -0.511   0.019
    1UNL     H1   42  -0.355  -0.107  -0.198
    1UNL     H2   43  -0.198  -0.169  -0.251
    1UNL     H3   44  -0.365  -0.009   0.070
    1UNL     H4   45  -0.391   0.292  -0.218
    1UNL     H5   46  -0.516   0.484  -0.342
    1UNL     H6   47  -0.752   0.677  -0.190
    1UNL     H7   48  -0.742   0.547   0.000
    1UNL     H8   49  -0.619   0.376   0.122
    1UNL     H9   50  -0.200   0.202   0.125
    1UNL    H10   51  -0.216   0.040   0.225
    1UNL    H11   52   0.012  -0.009   0.179
    1UNL    H12   53  -0.022   0.235  -0.031
    1UNL    H13   54   0.131   0.135  -0.010
    1UNL    H14   55   0.150   0.339   0.122
    1UNL    H15   56  -0.007   0.319   0.198
    1UNL    H16   57   0.225   0.135   0.231
    1UNL    H17   58  -0.002  -0.016  -0.092
    1UNL    H18   59  -0.085  -0.248   0.071
    1UNL    H19   60  -0.015  -0.254  -0.085
    1UNL    H20   61   0.032  -0.361   0.196
    1UNL    H21   62   0.414  -0.365   0.305
    1UNL    H22   63   0.357  -0.119   0.246
    1UNL    H23   64   0.512  -0.166   0.219
    1UNL    H24   65   0.375   0.245  -0.049
    1UNL    H25   66   0.276   0.324  -0.266
    1UNL    H26   67   0.176   0.258  -0.456
    1UNL    H27   68   0.150  -0.080  -0.341
    1UNL    H28   69   0.239  -0.152  -0.123
    1UNL    H29   70   0.410  -0.387   0.005
    1UNL    H30   71   0.525  -0.585   0.065
    1UNL    H31   72   0.254  -0.583   0.184
    1UNL    H32   73   0.230  -0.665  -0.056
    1UNL    H33   74   0.190  -0.418  -0.058
    1UNL    H34   75   0.022  -0.569   0.094
   0.00000   0.00000   0.00000   0.00000   0.00000   0.00000   0.00000   0.00000   0.00000
Generated with MDTraj, t= 31.0
 75
    1UNL     C1    1  -0.263  -0.113  -0.177
    1UNL     C2    2  -0.214  -0.059  -0.067
    1UNL     C3    3  -0.297   0.020   0.034
    1UNL     O1    4  -0.341   0.127  -0.048
    1UNL     C4    5  -0.428   0.212   0.023
    1UNL     O2    6  -0.449   0.209   0.143
    1UNL     C5    7  -0.494   0.330  -0.038
    1UNL     C6    8  -0.474   0.357  -0.179
    1UNL     C7    9  -0.531   0.461  -0.241
    1UNL     C8   10  -0.628   0.547  -0.176
    1UNL     O3   11  -0.684   0.655  -0.244
    1UNL     C9   12  -0.642   0.523  -0.039
    1UNL    C10   13  -0.571   0.422   0.027
    1UNL    C11   14  -0.200   0.071   0.141
    1UNL    C12   15  -0.054   0.041   0.088
    1UNL    C13   16   0.013   0.168   0.043
    1UNL    C14   17   0.051   0.262   0.153
    1UNL     O4   18   0.142   0.211   0.246
    1UNL    C15   19  -0.069  -0.067  -0.014
    1UNL    C16   20  -0.037  -0.200   0.042
    1UNL     O5   21   0.097  -0.204   0.095
    1UNL    C17   22   0.139  -0.332   0.146
    1UNL     O6   23   0.223  -0.332   0.264
    1UNL    C18   24   0.363  -0.329   0.236
    1UNL    C19   25   0.411  -0.196   0.184
    1UNL     O7   26   0.368  -0.166   0.055
    1UNL    C20   27   0.357  -0.026   0.038
    1UNL     O8   28   0.378   0.047   0.130
    1UNL    C21   29   0.309   0.027  -0.089
    1UNL    C22   30   0.329   0.160  -0.125
    1UNL    C23   31   0.282   0.208  -0.242
    1UNL    C24   32   0.211   0.132  -0.331
    1UNL     O9   33   0.149   0.176  -0.453
    1UNL    C25   34   0.192  -0.002  -0.294
    1UNL    C26   35   0.245  -0.056  -0.179
    1UNL    C27   36   0.413  -0.438   0.131
    1UNL    O10   37   0.519  -0.518   0.182
    1UNL    C28   38   0.299  -0.528   0.067
    1UNL    O11   39   0.337  -0.597  -0.045
    1UNL    C29   40   0.177  -0.434   0.031
    1UNL    O12   41   0.062  -0.505  -0.002
    1UNL     H1   42  -0.372  -0.093  -0.195
    1UNL     H2   43  -0.206  -0.159  -0.255
    1UNL     H3   44  -0.372  -0.037   0.090
    1UNL     H4   45  -0.387   0.314  -0.227
    1UNL     H5   46  -0.503   0.485  -0.342
    1UNL     H6   47  -0.742   0.698  -0.177
    1UNL     H7   48  -0.721   0.587   0.011
    1UNL     H8   49  -0.597   0.408   0.135
    1UNL     H9   50  -0.214   0.185   0.151
    1UNL    H10   51  -0.221   0.015   0.234
    1UNL    H11   52   0.007   0.001   0.171
    1UNL    H12   53  -0.047   0.227  -0.036
    1UNL    H13   54   0.114   0.148  -0.010
    1UNL    H14   55   0.098   0.356   0.115
    1UNL    H15   56  -0.037   0.289   0.211
    1UNL    H16   57   0.215   0.169   0.204
    1UNL    H17   58   0.006  -0.035  -0.091
    1UNL    H18   59  -0.102  -0.219   0.119
    1UNL    H19   60  -0.044  -0.279  -0.036
    1UNL    H20   61   0.043  -0.370   0.187
    1UNL    H21   62   0.403  -0.362   0.333
    1UNL    H22   63   0.368  -0.117   0.242
    1UNL    H23   64   0.523  -0.185   0.185
    1UNL    H24   65   0.380   0.222  -0.056
    1UNL    H25   66   0.301   0.302  -0.278
    1UNL    H26   67   0.176   0.273  -0.455
    1UNL    H27   68   0.129  -0.061  -0.363
    1UNL    H28   69   0.225  -0.157  -0.142
    1UNL    H29   70   0.462  -0.385   0.052
    1UNL    H30   71   0.549  -0.575   0.111
    1UNL    H31   72   0.257  -0.587   0.148
    1UNL    H32   73   0.249  -0.613  -0.095
    1UNL    H33   74   0.214  -0.374  -0.055
    1UNL    H34   75   0.045  -0.582   0.063
   0.00000   0.00000   0.00000   0.00000   0.00000   0.00000   0.00000   0.00000   0.00000
Generated with MDTraj, t= 32.0
 75
    1UNL     C1    1  -0.257  -0.130  -0.161
    1UNL     C2    2  -0.210  -0.066  -0.056
    1UNL     C3    3  -0.295   0.026   0.030
    1UNL     O1    4  -0.338   0.144  -0.042
    1UNL     C4    5  -0.428   0.216   0.032
    1UNL     O2    6  -0.463   0.182   0.146
    1UNL     C5    7  -0.488   0.335  -0.043
    1UNL     C6    8  -0.475   0.357  -0.185
    1UNL     C7    9  -0.533   0.468  -0.244
    1UNL     C8   10  -0.603   0.561  -0.162
    1UNL     O3   11  -0.657   0.662  -0.240
    1UNL     C9   12  -0.625   0.538  -0.029
    1UNL    C10   13  -0.566   0.425   0.028
    1UNL    C11   14  -0.208   0.062   0.152
    1UNL    C12   15  -0.055   0.038   0.101
    1UNL    C13   16   0.004   0.158   0.039
    1UNL    C14   17   0.054   0.264   0.139
    1UNL     O4   18   0.136   0.198   0.229
    1UNL    C15   19  -0.070  -0.084  -0.002
    1UNL    C16   20  -0.048  -0.219   0.070
    1UNL     O5   21   0.078  -0.216   0.147
    1UNL    C17   22   0.127  -0.347   0.161
    1UNL     O6   23   0.219  -0.361   0.271
    1UNL    C18   24   0.357  -0.328   0.243
    1UNL    C19   25   0.370  -0.183   0.206
    1UNL     O7   26   0.350  -0.163   0.069
    1UNL    C20   27   0.344  -0.027   0.029
    1UNL     O8   28   0.348   0.061   0.112
    1UNL    C21   29   0.318   0.020  -0.111
    1UNL    C22   30   0.338   0.152  -0.147
    1UNL    C23   31   0.289   0.202  -0.262
    1UNL    C24   32   0.199   0.129  -0.342
    1UNL     O9   33   0.149   0.177  -0.459
    1UNL    C25   34   0.181  -0.008  -0.308
    1UNL    C26   35   0.246  -0.065  -0.200
    1UNL    C27   36   0.426  -0.427   0.136
    1UNL    O10   37   0.513  -0.518   0.201
    1UNL    C28   38   0.313  -0.500   0.060
    1UNL    O11   39   0.352  -0.582  -0.050
    1UNL    C29   40   0.195  -0.399   0.026
    1UNL    O12   41   0.109  -0.480  -0.058
    1UNL     H1   42  -0.343  -0.110  -0.219
    1UNL     H2   43  -0.187  -0.202  -0.191
    1UNL     H3   44  -0.383  -0.025   0.063
    1UNL     H4   45  -0.425   0.279  -0.239
    1UNL     H5   46  -0.498   0.496  -0.343
    1UNL     H6   47  -0.713   0.715  -0.180
    1UNL     H7   48  -0.702   0.590   0.017
    1UNL     H8   49  -0.590   0.388   0.124
    1UNL     H9   50  -0.239   0.171   0.164
    1UNL    H10   51  -0.241   0.003   0.240
    1UNL    H11   52  -0.000  -0.007   0.186
    1UNL    H12   53  -0.065   0.197  -0.045
    1UNL    H13   54   0.094   0.124  -0.022
    1UNL    H14   55   0.106   0.351   0.097
    1UNL    H15   56  -0.025   0.296   0.206
    1UNL    H16   57   0.210   0.149   0.182
    1UNL    H17   58   0.000  -0.078  -0.091
    1UNL    H18   59  -0.119  -0.231   0.142
    1UNL    H19   60  -0.049  -0.302  -0.004
    1UNL    H20   61   0.037  -0.404   0.186
    1UNL    H21   62   0.390  -0.351   0.343
    1UNL    H22   63   0.305  -0.110   0.257
    1UNL    H23   64   0.481  -0.152   0.211
    1UNL    H24   65   0.403   0.215  -0.086
    1UNL    H25   66   0.309   0.306  -0.299
    1UNL    H26   67   0.151   0.278  -0.448
    1UNL    H27   68   0.113  -0.068  -0.360
    1UNL    H28   69   0.223  -0.164  -0.184
    1UNL    H29   70   0.483  -0.373   0.066
    1UNL    H30   71   0.543  -0.591   0.146
    1UNL    H31   72   0.278  -0.569   0.134
    1UNL    H32   73   0.294  -0.567  -0.131
    1UNL    H33   74   0.246  -0.320  -0.034
    1UNL    H34   75   0.093  -0.578  -0.024
   0.00000   0.00000   0.00000   0.00000   0.00000   0.00000   0.00000   0.00000   0.00000
Generated with MDTraj, t= 33.0
 75
    1UNL     C1    1  -0.274  -0.140  -0.153
    1UNL     C2    2  -0.223  -0.081  -0.046
    1UNL     C3    3  -0.291   0.027   0.038
    1UNL     O1    4  -0.340   0.126  -0.052
    1UNL     C4    5  -0.427   0.196   0.022
    1UNL     O2    6  -0.466   0.176   0.139
    1UNL     C5    7  -0.475   0.318  -0.043
    1UNL     C6    8  -0.455   0.343  -0.173
    1UNL     C7    9  -0.503   0.461  -0.231
    1UNL     C8   10  -0.580   0.549  -0.162
    1UNL     O3   11  -0.626   0.664  -0.221
    1UNL     C9   12  -0.595   0.526  -0.023
    1UNL    C10   13  -0.548   0.411   0.029
    1UNL    C11   14  -0.205   0.083   0.158
    1UNL    C12   15  -0.062   0.030   0.113
    1UNL    C13   16   0.029   0.128   0.049
    1UNL    C14   17   0.062   0.250   0.140
    1UNL     O4   18   0.139   0.217   0.249
    1UNL    C15   19  -0.082  -0.086   0.010
    1UNL    C16   20  -0.056  -0.223   0.068
    1UNL     O5   21   0.060  -0.220   0.151
    1UNL    C17   22   0.125  -0.351   0.157
    1UNL     O6   23   0.213  -0.374   0.268
    1UNL    C18   24   0.341  -0.318   0.244
    1UNL    C19   25   0.340  -0.168   0.201
    1UNL     O7   26   0.322  -0.155   0.066
    1UNL    C20   27   0.332  -0.024   0.031
    1UNL     O8   28   0.346   0.070   0.109
    1UNL    C21   29   0.302   0.014  -0.112
    1UNL    C22   30   0.318   0.148  -0.150
    1UNL    C23   31   0.275   0.194  -0.274
    1UNL    C24   32   0.211   0.110  -0.359
    1UNL     O9   33   0.171   0.155  -0.483
    1UNL    C25   34   0.175  -0.020  -0.318
    1UNL    C26   35   0.224  -0.064  -0.197
    1UNL    C27   36   0.415  -0.412   0.142
    1UNL    O10   37   0.496  -0.497   0.215
    1UNL    C28   38   0.316  -0.480   0.053
    1UNL    O11   39   0.377  -0.528  -0.070
    1UNL    C29   40   0.195  -0.385   0.021
    1UNL    O12   41   0.113  -0.432  -0.076
    1UNL     H1   42  -0.378  -0.129  -0.175
    1UNL     H2   43  -0.209  -0.193  -0.227
    1UNL     H3   44  -0.373  -0.029   0.072
    1UNL     H4   45  -0.389   0.282  -0.233
    1UNL     H5   46  -0.471   0.490  -0.329
    1UNL     H6   47  -0.690   0.709  -0.163
    1UNL     H7   48  -0.664   0.590   0.033
    1UNL     H8   49  -0.570   0.392   0.134
    1UNL     H9   50  -0.231   0.192   0.157
    1UNL    H10   51  -0.236   0.041   0.258
    1UNL    H11   52  -0.010  -0.015   0.201
    1UNL    H12   53  -0.021   0.165  -0.048
    1UNL    H13   54   0.115   0.076   0.006
    1UNL    H14   55   0.117   0.334   0.094
    1UNL    H15   56  -0.029   0.286   0.184
    1UNL    H16   57   0.215   0.159   0.221
    1UNL    H17   58  -0.008  -0.068  -0.076
    1UNL    H18   59  -0.142  -0.246   0.119
    1UNL    H19   60  -0.031  -0.290  -0.021
    1UNL    H20   61   0.042  -0.414   0.182
    1UNL    H21   62   0.391  -0.321   0.339
    1UNL    H22   63   0.260  -0.104   0.241
    1UNL    H23   64   0.442  -0.119   0.229
    1UNL    H24   65   0.360   0.204  -0.069
    1UNL    H25   66   0.296   0.291  -0.305
    1UNL    H26   67   0.177   0.254  -0.497
    1UNL    H27   68   0.106  -0.087  -0.372
    1UNL    H28   69   0.190  -0.168  -0.159
    1UNL    H29   70   0.463  -0.346   0.078
    1UNL    H30   71   0.540  -0.573   0.168
    1UNL    H31   72   0.277  -0.566   0.099
    1UNL    H32   73   0.317  -0.570  -0.129
    1UNL    H33   74   0.239  -0.291  -0.020
    1UNL    H34   75   0.095  -0.531  -0.064
   0.00000   0.00000   0.00000   0.00000   0.00000   0.00000   0.00000   0.00000   0.00000
Generated with MDTraj, t= 34.0
 75
    1UNL     C1    1  -0.270  -0.156  -0.152
    1UNL     C2    2  -0.219  -0.084  -0.057
    1UNL     C3    3  -0.306   0.007   0.037
    1UNL     O1    4  -0.354   0.119  -0.035
    1UNL     C4    5  -0.441   0.204   0.035
    1UNL     O2    6  -0.477   0.178   0.151
    1UNL     C5    7  -0.489   0.325  -0.029
    1UNL     C6    8  -0.448   0.351  -0.159
    1UNL     C7    9  -0.482   0.468  -0.231
    1UNL     C8   10  -0.559   0.559  -0.166
    1UNL     O3   11  -0.590   0.679  -0.226
    1UNL     C9   12  -0.605   0.541  -0.030
    1UNL    C10   13  -0.565   0.427   0.041
    1UNL    C11   14  -0.211   0.047   0.151
    1UNL    C12   15  -0.068   0.024   0.102
    1UNL    C13   16  -0.002   0.152   0.048
    1UNL    C14   17   0.039   0.244   0.161
    1UNL     O4   18   0.135   0.185   0.245
    1UNL    C15   19  -0.079  -0.091  -0.000
    1UNL    C16   20  -0.052  -0.226   0.068
    1UNL     O5   21   0.056  -0.231   0.154
    1UNL    C17   22   0.120  -0.359   0.164
    1UNL     O6   23   0.214  -0.366   0.269
    1UNL    C18   24   0.342  -0.308   0.241
    1UNL    C19   25   0.341  -0.162   0.192
    1UNL     O7   26   0.307  -0.142   0.061
    1UNL    C20   27   0.316  -0.010   0.037
    1UNL     O8   28   0.359   0.081   0.111
    1UNL    C21   29   0.280   0.032  -0.102
    1UNL    C22   30   0.315   0.153  -0.157
    1UNL    C23   31   0.281   0.188  -0.286
    1UNL    C24   32   0.222   0.084  -0.368
    1UNL     O9   33   0.189   0.114  -0.496
    1UNL    C25   34   0.203  -0.041  -0.317
    1UNL    C26   35   0.227  -0.065  -0.183
    1UNL    C27   36   0.426  -0.397   0.134
    1UNL    O10   37   0.510  -0.491   0.206
    1UNL    C28   38   0.328  -0.468   0.040
    1UNL    O11   39   0.392  -0.464  -0.087
    1UNL    C29   40   0.186  -0.400   0.025
    1UNL    O12   41   0.093  -0.460  -0.057
    1UNL     H1   42  -0.374  -0.163  -0.165
    1UNL     H2   43  -0.200  -0.203  -0.217
    1UNL     H3   44  -0.385  -0.044   0.078
    1UNL     H4   45  -0.371   0.283  -0.199
    1UNL     H5   46  -0.437   0.490  -0.329
    1UNL     H6   47  -0.636   0.744  -0.169
    1UNL     H7   48  -0.654   0.622   0.027
    1UNL     H8   49  -0.615   0.404   0.136
    1UNL     H9   50  -0.227   0.150   0.185
    1UNL    H10   51  -0.239  -0.025   0.235
    1UNL    H11   52   0.009  -0.002   0.180
    1UNL    H12   53  -0.073   0.199  -0.024
    1UNL    H13   54   0.085   0.128  -0.007
    1UNL    H14   55   0.085   0.333   0.112
    1UNL    H15   56  -0.040   0.272   0.228
    1UNL    H16   57   0.219   0.172   0.197
    1UNL    H17   58  -0.001  -0.068  -0.080
    1UNL    H18   59  -0.126  -0.228   0.142
    1UNL    H19   60  -0.062  -0.308  -0.014
    1UNL    H20   61   0.044  -0.431   0.182
    1UNL    H21   62   0.403  -0.322   0.331
    1UNL    H22   63   0.267  -0.112   0.252
    1UNL    H23   64   0.441  -0.107   0.198
    1UNL    H24   65   0.375   0.222  -0.099
    1UNL    H25   66   0.313   0.290  -0.314
    1UNL    H26   67   0.206   0.208  -0.511
    1UNL    H27   68   0.177  -0.113  -0.393
    1UNL    H28   69   0.213  -0.168  -0.153
    1UNL    H29   70   0.486  -0.340   0.071
    1UNL    H30   71   0.553  -0.562   0.148
    1UNL    H31   72   0.324  -0.568   0.078
    1UNL    H32   73   0.341  -0.511  -0.160
    1UNL    H33   74   0.203  -0.305  -0.022
    1UNL    H34   75   0.108  -0.552  -0.050
   0.00000   0.00000   0.00000   0.00000   0.00000   0.00000   0.00000   0.00000   0.00000
Generated with MDTraj, t= 35.0
 75
    1UNL     C1    1  -0.280  -0.130  -0.159
    1UNL     C2    2  -0.245  -0.091  -0.039
    1UNL     C3    3  -0.328   0.003   0.045
    1UNL     O1    4  -0.353   0.116  -0.028
    1UNL     C4    5  -0.433   0.202   0.035
    1UNL     O2    6  -0.480   0.179   0.147
    1UNL     C5    7  -0.468   0.326  -0.036
    1UNL     C6    8  -0.422   0.356  -0.161
    1UNL     C7    9  -0.458   0.474  -0.220
    1UNL     C8   10  -0.540   0.568  -0.155
    1UNL     O3   11  -0.573   0.686  -0.213
    1UNL     C9   12  -0.593   0.532  -0.030
    1UNL    C10   13  -0.560   0.409   0.026
    1UNL    C11   14  -0.238   0.029   0.166
    1UNL    C12   15  -0.091   0.011   0.120
    1UNL    C13   16  -0.027   0.144   0.071
    1UNL    C14   17   0.013   0.240   0.178
    1UNL     O4   18   0.108   0.173   0.264
    1UNL    C15   19  -0.101  -0.100   0.013
    1UNL    C16   20  -0.062  -0.235   0.080
    1UNL     O5   21   0.058  -0.223   0.149
    1UNL    C17   22   0.121  -0.352   0.171
    1UNL     O6   23   0.220  -0.355   0.273
    1UNL    C18   24   0.341  -0.295   0.242
    1UNL    C19   25   0.334  -0.151   0.197
    1UNL     O7   26   0.326  -0.129   0.061
    1UNL    C20   27   0.316  -0.001   0.024
    1UNL     O8   28   0.339   0.096   0.100
    1UNL    C21   29   0.293   0.018  -0.118
    1UNL    C22   30   0.319   0.146  -0.165
    1UNL    C23   31   0.281   0.176  -0.299
    1UNL    C24   32   0.246   0.073  -0.382
    1UNL     O9   33   0.208   0.113  -0.507
    1UNL    C25   34   0.233  -0.055  -0.341
    1UNL    C26   35   0.245  -0.080  -0.206
    1UNL    C27   36   0.423  -0.376   0.131
    1UNL    O10   37   0.537  -0.454   0.167
    1UNL    C28   38   0.319  -0.459   0.045
    1UNL    O11   39   0.376  -0.483  -0.081
    1UNL    C29   40   0.181  -0.393   0.028
    1UNL    O12   41   0.097  -0.474  -0.055
    1UNL     H1   42  -0.372  -0.084  -0.203
    1UNL     H2   43  -0.236  -0.217  -0.206
    1UNL     H3   44  -0.417  -0.044   0.071
    1UNL     H4   45  -0.362   0.284  -0.211
    1UNL     H5   46  -0.425   0.498  -0.317
    1UNL     H6   47  -0.610   0.752  -0.151
    1UNL     H7   48  -0.674   0.584   0.009
    1UNL     H8   49  -0.611   0.383   0.114
    1UNL     H9   50  -0.259   0.129   0.199
    1UNL    H10   51  -0.269  -0.041   0.253
    1UNL    H11   52  -0.020  -0.031   0.198
    1UNL    H12   53  -0.088   0.193   0.000
    1UNL    H13   54   0.068   0.114   0.029
    1UNL    H14   55   0.063   0.326   0.126
    1UNL    H15   56  -0.077   0.269   0.231
    1UNL    H16   57   0.183   0.130   0.206
    1UNL    H17   58  -0.034  -0.078  -0.077
    1UNL    H18   59  -0.143  -0.272   0.139
    1UNL    H19   60  -0.035  -0.307  -0.009
    1UNL    H20   61   0.050  -0.426   0.192
    1UNL    H21   62   0.407  -0.294   0.334
    1UNL    H22   63   0.243  -0.111   0.234
    1UNL    H23   64   0.423  -0.095   0.230
    1UNL    H24   65   0.359   0.221  -0.098
    1UNL    H25   66   0.286   0.279  -0.330
    1UNL    H26   67   0.237   0.194  -0.548
    1UNL    H27   68   0.224  -0.134  -0.414
    1UNL    H28   69   0.233  -0.174  -0.172
    1UNL    H29   70   0.461  -0.306   0.062
    1UNL    H30   71   0.557  -0.503   0.083
    1UNL    H31   72   0.302  -0.547   0.104
    1UNL    H32   73   0.307  -0.531  -0.137
    1UNL    H33   74   0.183  -0.300  -0.026
    1UNL    H34   75   0.110  -0.565  -0.036
   0.00000   0.00000   0.00000   0.00000   0.00000   0.00000   0.00000   0.00000   0.00000
Generated with MDTraj, t= 36.0
 75
    1UNL     C1    1  -0.274  -0.170  -0.150
    1UNL     C2    2  -0.240  -0.102  -0.040
    1UNL     C3    3  -0.329  -0.001   0.033
    1UNL     O1    4  -0.350   0.124  -0.034
    1UNL     C4    5  -0.440   0.199   0.036
    1UNL     O2    6  -0.488   0.168   0.144
    1UNL     C5    7  -0.474   0.328  -0.026
    1UNL     C6    8  -0.397   0.369  -0.140
    1UNL     C7    9  -0.437   0.481  -0.203
    1UNL     C8   10  -0.529   0.571  -0.149
    1UNL     O3   11  -0.555   0.691  -0.222
    1UNL     C9   12  -0.583   0.539  -0.028
    1UNL    C10   13  -0.559   0.416   0.032
    1UNL    C11   14  -0.252   0.027   0.169
    1UNL    C12   15  -0.103   0.001   0.145
    1UNL    C13   16  -0.036   0.129   0.095
    1UNL    C14   17   0.003   0.227   0.201
    1UNL     O4   18   0.096   0.189   0.303
    1UNL    C15   19  -0.104  -0.104   0.029
    1UNL    C16   20  -0.062  -0.243   0.076
    1UNL     O5   21   0.052  -0.236   0.166
    1UNL    C17   22   0.124  -0.357   0.174
    1UNL     O6   23   0.233  -0.353   0.267
    1UNL    C18   24   0.353  -0.284   0.228
    1UNL    C19   25   0.318  -0.135   0.181
    1UNL     O7   26   0.305  -0.122   0.043
    1UNL    C20   27   0.299   0.006   0.007
    1UNL     O8   28   0.290   0.104   0.084
    1UNL    C21   29   0.298   0.037  -0.136
    1UNL    C22   30   0.298   0.168  -0.182
    1UNL    C23   31   0.272   0.188  -0.318
    1UNL    C24   32   0.265   0.081  -0.411
    1UNL     O9   33   0.239   0.107  -0.542
    1UNL    C25   34   0.274  -0.049  -0.353
    1UNL    C26   35   0.279  -0.072  -0.218
    1UNL    C27   36   0.423  -0.370   0.114
    1UNL    O10   37   0.540  -0.428   0.151
    1UNL    C28   38   0.312  -0.476   0.065
    1UNL    O11   39   0.358  -0.528  -0.055
    1UNL    C29   40   0.185  -0.400   0.036
    1UNL    O12   41   0.100  -0.477  -0.047
    1UNL     H1   42  -0.378  -0.189  -0.167
    1UNL     H2   43  -0.214  -0.226  -0.214
    1UNL     H3   44  -0.425  -0.042   0.037
    1UNL     H4   45  -0.322   0.299  -0.180
    1UNL     H5   46  -0.384   0.507  -0.294
    1UNL     H6   47  -0.629   0.738  -0.177
    1UNL     H7   48  -0.665   0.605   0.014
    1UNL     H8   49  -0.600   0.390   0.135
    1UNL     H9   50  -0.279   0.129   0.188
    1UNL    H10   51  -0.300  -0.032   0.255
    1UNL    H11   52  -0.062  -0.047   0.240
    1UNL    H12   53  -0.099   0.166   0.022
    1UNL    H13   54   0.057   0.100   0.048
    1UNL    H14   55   0.030   0.325   0.154
    1UNL    H15   56  -0.089   0.238   0.257
    1UNL    H16   57   0.175   0.167   0.258
    1UNL    H17   58  -0.036  -0.082  -0.059
    1UNL    H18   59  -0.140  -0.294   0.130
    1UNL    H19   60  -0.031  -0.314  -0.013
    1UNL    H20   61   0.057  -0.426   0.215
    1UNL    H21   62   0.416  -0.264   0.320
    1UNL    H22   63   0.225  -0.109   0.220
    1UNL    H23   64   0.394  -0.061   0.208
    1UNL    H24   65   0.303   0.256  -0.119
    1UNL    H25   66   0.258   0.290  -0.345
    1UNL    H26   67   0.247   0.203  -0.563
    1UNL    H27   68   0.274  -0.134  -0.423
    1UNL    H28   69   0.286  -0.179  -0.183
    1UNL    H29   70   0.438  -0.305   0.031
    1UNL    H30   71   0.566  -0.497   0.088
    1UNL    H31   72   0.301  -0.558   0.139
    1UNL    H32   73   0.286  -0.579  -0.094
    1UNL    H33   74   0.210  -0.309  -0.014
    1UNL    H34   75   0.103  -0.573  -0.015
   0.00000   0.00000   0.00000   0.00000   0.00000   0.00000   0.00000   0.00000   0.00000
Generated with MDTraj, t= 37.0
 75
    1UNL     C1    1  -0.290  -0.182  -0.133
    1UNL     C2    2  -0.245  -0.114  -0.029
    1UNL     C3    3  -0.330  -0.018   0.053
    1UNL     O1    4  -0.335   0.109  -0.017
    1UNL     C4    5  -0.433   0.194   0.029
    1UNL     O2    6  -0.497   0.162   0.127
    1UNL     C5    7  -0.462   0.326  -0.036
    1UNL     C6    8  -0.382   0.367  -0.148
    1UNL     C7    9  -0.410   0.492  -0.204
    1UNL     C8   10  -0.510   0.576  -0.142
    1UNL     O3   11  -0.536   0.698  -0.200
    1UNL     C9   12  -0.580   0.529  -0.031
    1UNL    C10   13  -0.560   0.403   0.019
    1UNL    C11   14  -0.252   0.011   0.191
    1UNL    C12   15  -0.102   0.008   0.147
    1UNL    C13   16  -0.054   0.151   0.110
    1UNL    C14   17  -0.021   0.226   0.240
    1UNL     O4   18   0.091   0.173   0.296
    1UNL    C15   19  -0.103  -0.098   0.030
    1UNL    C16   20  -0.059  -0.227   0.079
    1UNL     O5   21   0.068  -0.221   0.148
    1UNL    C17   22   0.122  -0.347   0.181
    1UNL     O6   23   0.230  -0.341   0.274
    1UNL    C18   24   0.356  -0.283   0.222
    1UNL    C19   25   0.335  -0.135   0.165
    1UNL     O7   26   0.300  -0.120   0.027
    1UNL    C20   27   0.281   0.010  -0.008
    1UNL     O8   28   0.259   0.098   0.078
    1UNL    C21   29   0.270   0.039  -0.150
    1UNL    C22   30   0.245   0.166  -0.197
    1UNL    C23   31   0.246   0.193  -0.332
    1UNL    C24   32   0.271   0.087  -0.422
    1UNL     O9   33   0.306   0.117  -0.557
    1UNL    C25   34   0.295  -0.038  -0.377
    1UNL    C26   35   0.301  -0.063  -0.241
    1UNL    C27   36   0.419  -0.367   0.111
    1UNL    O10   37   0.537  -0.419   0.162
    1UNL    C28   38   0.314  -0.470   0.061
    1UNL    O11   39   0.359  -0.523  -0.064
    1UNL    C29   40   0.173  -0.412   0.045
    1UNL    O12   41   0.074  -0.508  -0.003
    1UNL     H1   42  -0.389  -0.164  -0.171
    1UNL     H2   43  -0.246  -0.279  -0.171
    1UNL     H3   44  -0.431  -0.046   0.072
    1UNL     H4   45  -0.299   0.312  -0.188
    1UNL     H5   46  -0.368   0.528  -0.298
    1UNL     H6   47  -0.616   0.729  -0.152
    1UNL     H7   48  -0.633   0.599   0.024
    1UNL     H8   49  -0.620   0.363   0.093
    1UNL     H9   50  -0.278   0.107   0.238
    1UNL    H10   51  -0.286  -0.072   0.259
    1UNL    H11   52  -0.031  -0.023   0.231
    1UNL    H12   53  -0.133   0.200   0.066
    1UNL    H13   54   0.023   0.144   0.036
    1UNL    H14   55  -0.002   0.334   0.220
    1UNL    H15   56  -0.096   0.229   0.319
    1UNL    H16   57   0.148   0.132   0.218
    1UNL    H17   58  -0.031  -0.060  -0.047
    1UNL    H18   59  -0.125  -0.261   0.158
    1UNL    H19   60  -0.054  -0.317   0.003
    1UNL    H20   61   0.047  -0.400   0.231
    1UNL    H21   62   0.423  -0.292   0.312
    1UNL    H22   63   0.250  -0.094   0.214
    1UNL    H23   64   0.429  -0.079   0.174
    1UNL    H24   65   0.222   0.235  -0.118
    1UNL    H25   66   0.216   0.292  -0.373
    1UNL    H26   67   0.277   0.213  -0.573
    1UNL    H27   68   0.323  -0.111  -0.448
    1UNL    H28   69   0.333  -0.159  -0.201
    1UNL    H29   70   0.451  -0.311   0.023
    1UNL    H30   71   0.580  -0.495   0.121
    1UNL    H31   72   0.319  -0.564   0.124
    1UNL    H32   73   0.304  -0.600  -0.078
    1UNL    H33   74   0.185  -0.335  -0.030
    1UNL    H34   75   0.098  -0.610   0.006
   0.00000   0.00000   0.00000   0.00000   0.00000   0.00000   0.00000   0.00000   0.00000
Generated with MDTraj, t= 38.0
 75
    1UNL     C1    1  -0.285  -0.185  -0.120
    1UNL     C2    2  -0.253  -0.112  -0.017
    1UNL     C3    3  -0.346  -0.013   0.051
    1UNL     O1    4  -0.359   0.112  -0.021
    1UNL     C4    5  -0.453   0.192   0.036
    1UNL     O2    6  -0.521   0.156   0.129
    1UNL     C5    7  -0.467   0.324  -0.022
    1UNL     C6    8  -0.384   0.359  -0.124
    1UNL     C7    9  -0.394   0.487  -0.181
    1UNL     C8   10  -0.490   0.578  -0.141
    1UNL     O3   11  -0.498   0.705  -0.202
    1UNL     C9   12  -0.578   0.536  -0.042
    1UNL    C10   13  -0.572   0.410   0.009
    1UNL    C11   14  -0.279   0.009   0.180
    1UNL    C12   15  -0.125  -0.000   0.146
    1UNL    C13   16  -0.059   0.138   0.113
    1UNL    C14   17  -0.014   0.218   0.243
    1UNL     O4   18   0.098   0.160   0.303
    1UNL    C15   19  -0.107  -0.096   0.029
    1UNL    C16   20  -0.050  -0.224   0.080
    1UNL     O5   21   0.072  -0.212   0.151
    1UNL    C17   22   0.129  -0.336   0.184
    1UNL     O6   23   0.241  -0.327   0.271
    1UNL    C18   24   0.361  -0.269   0.217
    1UNL    C19   25   0.338  -0.126   0.164
    1UNL     O7   26   0.320  -0.123   0.020
    1UNL    C20   27   0.268  -0.007  -0.020
    1UNL     O8   28   0.211   0.070   0.060
    1UNL    C21   29   0.265   0.021  -0.164
    1UNL    C22   30   0.214   0.142  -0.208
    1UNL    C23   31   0.239   0.186  -0.331
    1UNL    C24   32   0.295   0.100  -0.427
    1UNL     O9   33   0.325   0.137  -0.557
    1UNL    C25   34   0.328  -0.035  -0.385
    1UNL    C26   35   0.326  -0.065  -0.252
    1UNL    C27   36   0.424  -0.353   0.106
    1UNL    O10   37   0.544  -0.421   0.148
    1UNL    C28   38   0.316  -0.459   0.059
    1UNL    O11   39   0.359  -0.522  -0.066
    1UNL    C29   40   0.176  -0.406   0.052
    1UNL    O12   41   0.073  -0.508   0.032
    1UNL     H1   42  -0.378  -0.199  -0.165
    1UNL     H2   43  -0.204  -0.241  -0.162
    1UNL     H3   44  -0.446  -0.055   0.069
    1UNL     H4   45  -0.309   0.288  -0.157
    1UNL     H5   46  -0.336   0.504  -0.267
    1UNL     H6   47  -0.562   0.769  -0.161
    1UNL     H7   48  -0.649   0.608   0.002
    1UNL     H8   49  -0.641   0.373   0.089
    1UNL     H9   50  -0.298   0.116   0.212
    1UNL    H10   51  -0.297  -0.063   0.262
    1UNL    H11   52  -0.067  -0.030   0.238
    1UNL    H12   53  -0.125   0.193   0.050
    1UNL    H13   54   0.025   0.127   0.054
    1UNL    H14   55   0.016   0.322   0.224
    1UNL    H15   56  -0.094   0.232   0.317
    1UNL    H16   57   0.159   0.140   0.235
    1UNL    H17   58  -0.044  -0.045  -0.049
    1UNL    H18   59  -0.116  -0.277   0.150
    1UNL    H19   60  -0.029  -0.301  -0.006
    1UNL    H20   61   0.050  -0.391   0.231
    1UNL    H21   62   0.426  -0.270   0.305
    1UNL    H22   63   0.252  -0.079   0.209
    1UNL    H23   64   0.433  -0.065   0.177
    1UNL    H24   65   0.148   0.199  -0.145
    1UNL    H25   66   0.196   0.271  -0.369
    1UNL    H26   67   0.256   0.207  -0.583
    1UNL    H27   68   0.369  -0.110  -0.454
    1UNL    H28   69   0.360  -0.157  -0.217
    1UNL    H29   70   0.450  -0.289   0.020
    1UNL    H30   71   0.555  -0.507   0.099
    1UNL    H31   72   0.323  -0.529   0.150
    1UNL    H32   73   0.313  -0.612  -0.068
    1UNL    H33   74   0.177  -0.328  -0.025
    1UNL    H34   75   0.101  -0.595   0.076
   0.00000   0.00000   0.00000   0.00000   0.00000   0.00000   0.00000   0.00000   0.00000
Generated with MDTraj, t= 39.0
 75
    1UNL     C1    1  -0.284  -0.180  -0.126
    1UNL     C2    2  -0.263  -0.105  -0.018
    1UNL     C3    3  -0.359  -0.018   0.062
    1UNL     O1    4  -0.373   0.103  -0.020
    1UNL     C4    5  -0.468   0.186   0.034
    1UNL     O2    6  -0.537   0.156   0.130
    1UNL     C5    7  -0.472   0.317  -0.032
    1UNL     C6    8  -0.371   0.356  -0.112
    1UNL     C7    9  -0.375   0.480  -0.172
    1UNL     C8   10  -0.473   0.574  -0.141
    1UNL     O3   11  -0.475   0.699  -0.191
    1UNL     C9   12  -0.576   0.533  -0.042
    1UNL    C10   13  -0.571   0.408   0.013
    1UNL    C11   14  -0.302   0.024   0.199
    1UNL    C12   15  -0.148   0.017   0.171
    1UNL    C13   16  -0.088   0.148   0.128
    1UNL    C14   17  -0.032   0.224   0.244
    1UNL     O4   18   0.078   0.149   0.305
    1UNL    C15   19  -0.129  -0.088   0.054
    1UNL    C16   20  -0.061  -0.228   0.095
    1UNL     O5   21   0.064  -0.209   0.161
    1UNL    C17   22   0.135  -0.329   0.185
    1UNL     O6   23   0.255  -0.328   0.268
    1UNL    C18   24   0.368  -0.269   0.215
    1UNL    C19   25   0.338  -0.126   0.161
    1UNL     O7   26   0.340  -0.119   0.016
    1UNL    C20   27   0.273  -0.005  -0.029
    1UNL     O8   28   0.216   0.078   0.044
    1UNL    C21   29   0.278   0.021  -0.171
    1UNL    C22   30   0.209   0.133  -0.221
    1UNL    C23   31   0.235   0.179  -0.347
    1UNL    C24   32   0.305   0.099  -0.439
    1UNL     O9   33   0.315   0.133  -0.576
    1UNL    C25   34   0.364  -0.023  -0.392
    1UNL    C26   35   0.360  -0.057  -0.260
    1UNL    C27   36   0.421  -0.358   0.102
    1UNL    O10   37   0.548  -0.419   0.135
    1UNL    C28   38   0.312  -0.472   0.074
    1UNL    O11   39   0.355  -0.557  -0.032
    1UNL    C29   40   0.186  -0.397   0.049
    1UNL    O12   41   0.090  -0.486  -0.005
    1UNL     H1   42  -0.376  -0.201  -0.188
    1UNL     H2   43  -0.201  -0.225  -0.176
    1UNL     H3   44  -0.458  -0.069   0.064
    1UNL     H4   45  -0.304   0.284  -0.158
    1UNL     H5   46  -0.291   0.516  -0.237
    1UNL     H6   47  -0.540   0.760  -0.150
    1UNL     H7   48  -0.650   0.605  -0.007
    1UNL     H8   49  -0.624   0.381   0.101
    1UNL     H9   50  -0.339   0.128   0.229
    1UNL    H10   51  -0.312  -0.049   0.279
    1UNL    H11   52  -0.094  -0.027   0.258
    1UNL    H12   53  -0.160   0.206   0.073
    1UNL    H13   54  -0.013   0.131   0.059
    1UNL    H14   55   0.001   0.324   0.214
    1UNL    H15   56  -0.106   0.244   0.321
    1UNL    H16   57   0.131   0.108   0.224
    1UNL    H17   58  -0.052  -0.055  -0.022
    1UNL    H18   59  -0.127  -0.288   0.158
    1UNL    H19   60  -0.034  -0.295   0.004
    1UNL    H20   61   0.064  -0.400   0.224
    1UNL    H21   62   0.443  -0.257   0.290
    1UNL    H22   63   0.238  -0.084   0.181
    1UNL    H23   64   0.417  -0.050   0.197
    1UNL    H24   65   0.140   0.185  -0.158
    1UNL    H25   66   0.189   0.269  -0.398
    1UNL    H26   67   0.231   0.170  -0.613
    1UNL    H27   68   0.423  -0.084  -0.455
    1UNL    H28   69   0.425  -0.129  -0.201
    1UNL    H29   70   0.428  -0.296   0.009
    1UNL    H30   71   0.540  -0.516   0.109
    1UNL    H31   72   0.292  -0.524   0.174
    1UNL    H32   73   0.307  -0.532  -0.118
    1UNL    H33   74   0.201  -0.320  -0.028
    1UNL    H34   75   0.118  -0.573   0.021
   0.00000   0.00000   0.00000   0.00000   0.00000   0.00000   0.00000   0.00000   0.00000
Generated with MDTraj, t= 40.0
 75
    1UNL     C1    1  -0.294  -0.198  -0.115
    1UNL     C2    2  -0.264  -0.125  -0.009
    1UNL     C3    3  -0.359  -0.028   0.063
    1UNL     O1    4  -0.364   0.101  -0.008
    1UNL     C4    5  -0.469   0.179   0.039
    1UNL     O2    6  -0.550   0.151   0.124
    1UNL     C5    7  -0.468   0.310  -0.030
    1UNL     C6    8  -0.373   0.354  -0.125
    1UNL     C7    9  -0.364   0.483  -0.168
    1UNL     C8   10  -0.464   0.572  -0.132
    1UNL     O3   11  -0.460   0.701  -0.179
    1UNL     C9   12  -0.566   0.532  -0.045
    1UNL    C10   13  -0.568   0.404   0.006
    1UNL    C11   14  -0.294  -0.004   0.204
    1UNL    C12   15  -0.145  -0.002   0.172
    1UNL    C13   16  -0.099   0.140   0.143
    1UNL    C14   17  -0.035   0.217   0.258
    1UNL     O4   18   0.095   0.165   0.283
    1UNL    C15   19  -0.132  -0.098   0.053
    1UNL    C16   20  -0.072  -0.230   0.102
    1UNL     O5   21   0.059  -0.206   0.155
    1UNL    C17   22   0.125  -0.327   0.185
    1UNL     O6   23   0.241  -0.303   0.275
    1UNL    C18   24   0.363  -0.267   0.208
    1UNL    C19   25   0.344  -0.119   0.153
    1UNL     O7   26   0.346  -0.108   0.011
    1UNL    C20   27   0.282   0.006  -0.031
    1UNL     O8   28   0.226   0.085   0.044
    1UNL    C21   29   0.291   0.041  -0.174
    1UNL    C22   30   0.211   0.144  -0.231
    1UNL    C23   31   0.216   0.164  -0.364
    1UNL    C24   32   0.305   0.085  -0.444
    1UNL     O9   33   0.314   0.101  -0.579
    1UNL    C25   34   0.385  -0.010  -0.382
    1UNL    C26   35   0.381  -0.028  -0.253
    1UNL    C27   36   0.417  -0.369   0.107
    1UNL    O10   37   0.535  -0.430   0.166
    1UNL    C28   38   0.310  -0.467   0.063
    1UNL    O11   39   0.332  -0.537  -0.059
    1UNL    C29   40   0.179  -0.386   0.049
    1UNL    O12   41   0.078  -0.460  -0.018
    1UNL     H1   42  -0.378  -0.166  -0.171
    1UNL     H2   43  -0.222  -0.243  -0.178
    1UNL     H3   44  -0.467  -0.062   0.075
    1UNL     H4   45  -0.306   0.279  -0.162
    1UNL     H5   46  -0.313   0.511  -0.252
    1UNL     H6   47  -0.529   0.761  -0.145
    1UNL     H7   48  -0.643   0.596  -0.011
    1UNL     H8   49  -0.636   0.372   0.086
    1UNL     H9   50  -0.311   0.092   0.265
    1UNL    H10   51  -0.319  -0.090   0.266
    1UNL    H11   52  -0.096  -0.048   0.260
    1UNL    H12   53  -0.183   0.196   0.108
    1UNL    H13   54  -0.026   0.151   0.068
    1UNL    H14   55  -0.033   0.326   0.249
    1UNL    H15   56  -0.097   0.198   0.346
    1UNL    H16   57   0.144   0.142   0.203
    1UNL    H17   58  -0.057  -0.056  -0.019
    1UNL    H18   59  -0.134  -0.264   0.187
    1UNL    H19   60  -0.074  -0.313   0.022
    1UNL    H20   61   0.051  -0.391   0.234
    1UNL    H21   62   0.438  -0.274   0.286
    1UNL    H22   63   0.238  -0.093   0.179
    1UNL    H23   64   0.408  -0.030   0.188
    1UNL    H24   65   0.137   0.197  -0.174
    1UNL    H25   66   0.165   0.241  -0.411
    1UNL    H26   67   0.226   0.133  -0.598
    1UNL    H27   68   0.465  -0.041  -0.452
    1UNL    H28   69   0.447  -0.087  -0.201
    1UNL    H29   70   0.460  -0.323   0.012
    1UNL    H30   71   0.572  -0.507   0.115
    1UNL    H31   72   0.289  -0.541   0.146
    1UNL    H32   73   0.410  -0.595  -0.053
    1UNL    H33   74   0.210  -0.300  -0.016
    1UNL    H34   75   0.127  -0.534  -0.060
   0.00000   0.00000   0.00000   0.00000   0.00000   0.00000   0.00000   0.00000   0.00000
Generated with MDTraj, t= 41.0
 75
    1UNL     C1    1  -0.314  -0.216  -0.087
    1UNL     C2    2  -0.273  -0.129  -0.002
    1UNL     C3    3  -0.358  -0.024   0.062
    1UNL     O1    4  -0.376   0.091  -0.021
    1UNL     C4    5  -0.468   0.171   0.035
    1UNL     O2    6  -0.550   0.146   0.119
    1UNL     C5    7  -0.472   0.316  -0.020
    1UNL     C6    8  -0.374   0.350  -0.115
    1UNL     C7    9  -0.366   0.476  -0.161
    1UNL     C8   10  -0.461   0.577  -0.123
    1UNL     O3   11  -0.459   0.699  -0.182
    1UNL     C9   12  -0.560   0.536  -0.040
    1UNL    C10   13  -0.560   0.412   0.017
    1UNL    C11   14  -0.289   0.015   0.193
    1UNL    C12   15  -0.135  -0.004   0.157
    1UNL    C13   16  -0.075   0.140   0.121
    1UNL    C14   17  -0.030   0.209   0.255
    1UNL     O4   18   0.093   0.161   0.315
    1UNL    C15   19  -0.129  -0.103   0.040
    1UNL    C16   20  -0.067  -0.236   0.091
    1UNL     O5   21   0.051  -0.207   0.170
    1UNL    C17   22   0.126  -0.327   0.179
    1UNL     O6   23   0.226  -0.311   0.282
    1UNL    C18   24   0.353  -0.255   0.225
    1UNL    C19   25   0.319  -0.112   0.156
    1UNL     O7   26   0.343  -0.108   0.016
    1UNL    C20   27   0.288   0.009  -0.026
    1UNL     O8   28   0.232   0.091   0.044
    1UNL    C21   29   0.310   0.036  -0.170
    1UNL    C22   30   0.210   0.120  -0.233
    1UNL    C23   31   0.202   0.131  -0.367
    1UNL    C24   32   0.304   0.076  -0.448
    1UNL     O9   33   0.313   0.095  -0.586
    1UNL    C25   34   0.397  -0.010  -0.386
    1UNL    C26   35   0.390  -0.041  -0.254
    1UNL    C27   36   0.415  -0.358   0.124
    1UNL    O10   37   0.524  -0.438   0.171
    1UNL    C28   38   0.316  -0.447   0.047
    1UNL    O11   39   0.354  -0.482  -0.088
    1UNL    C29   40   0.177  -0.373   0.040
    1UNL    O12   41   0.075  -0.452  -0.020
    1UNL     H1   42  -0.419  -0.216  -0.109
    1UNL     H2   43  -0.245  -0.287  -0.141
    1UNL     H3   44  -0.461  -0.070   0.081
    1UNL     H4   45  -0.310   0.268  -0.150
    1UNL     H5   46  -0.305   0.510  -0.248
    1UNL     H6   47  -0.539   0.750  -0.157
    1UNL     H7   48  -0.623   0.616   0.004
    1UNL     H8   49  -0.638   0.390   0.086
    1UNL     H9   50  -0.314   0.122   0.216
    1UNL    H10   51  -0.325  -0.041   0.281
    1UNL    H11   52  -0.077  -0.037   0.245
    1UNL    H12   53  -0.140   0.210   0.075
    1UNL    H13   54   0.016   0.131   0.059
    1UNL    H14   55  -0.016   0.315   0.235
    1UNL    H15   56  -0.107   0.211   0.334
    1UNL    H16   57   0.153   0.131   0.241
    1UNL    H17   58  -0.071  -0.059  -0.046
    1UNL    H18   59  -0.137  -0.290   0.158
    1UNL    H19   60  -0.044  -0.306   0.006
    1UNL    H20   61   0.053  -0.406   0.209
    1UNL    H21   62   0.414  -0.244   0.317
    1UNL    H22   63   0.215  -0.080   0.168
    1UNL    H23   64   0.386  -0.034   0.199
    1UNL    H24   65   0.137   0.170  -0.168
    1UNL    H25   66   0.121   0.184  -0.420
    1UNL    H26   67   0.272   0.173  -0.626
    1UNL    H27   68   0.478  -0.042  -0.446
    1UNL    H28   69   0.456  -0.117  -0.201
    1UNL    H29   70   0.467  -0.298   0.039
    1UNL    H30   71   0.550  -0.509   0.110
    1UNL    H31   72   0.301  -0.539   0.105
    1UNL    H32   73   0.390  -0.569  -0.099
    1UNL    H33   74   0.194  -0.281  -0.023
    1UNL    H34   75   0.105  -0.524  -0.090
   0.00000   0.00000   0.00000   0.00000   0.00000   0.00000   0.00000   0.00000   0.00000
Generated with MDTraj, t= 42.0
 75
    1UNL     C1    1  -0.335  -0.210  -0.085
    1UNL     C2    2  -0.290  -0.127   0.007
    1UNL     C3    3  -0.367  -0.012   0.072
    1UNL     O1    4  -0.376   0.091  -0.018
    1UNL     C4    5  -0.468   0.184   0.033
    1UNL     O2    6  -0.532   0.158   0.130
    1UNL     C5    7  -0.477   0.319  -0.023
    1UNL     C6    8  -0.381   0.355  -0.125
    1UNL     C7    9  -0.378   0.480  -0.177
    1UNL     C8   10  -0.471   0.577  -0.130
    1UNL     O3   11  -0.456   0.710  -0.171
    1UNL     C9   12  -0.565   0.545  -0.034
    1UNL    C10   13  -0.568   0.417   0.021
    1UNL    C11   14  -0.292   0.028   0.197
    1UNL    C12   15  -0.142   0.005   0.166
    1UNL    C13   16  -0.076   0.136   0.108
    1UNL    C14   17  -0.006   0.219   0.212
    1UNL     O4   18   0.086   0.140   0.272
    1UNL    C15   19  -0.143  -0.109   0.054
    1UNL    C16   20  -0.078  -0.249   0.098
    1UNL     O5   21   0.048  -0.218   0.169
    1UNL    C17   22   0.139  -0.327   0.161
    1UNL     O6   23   0.233  -0.325   0.267
    1UNL    C18   24   0.353  -0.267   0.224
    1UNL    C19   25   0.320  -0.119   0.182
    1UNL     O7   26   0.324  -0.113   0.038
    1UNL    C20   27   0.273   0.004  -0.013
    1UNL     O8   28   0.226   0.092   0.052
    1UNL    C21   29   0.287   0.019  -0.156
    1UNL    C22   30   0.209   0.115  -0.222
    1UNL    C23   31   0.201   0.120  -0.358
    1UNL    C24   32   0.306   0.059  -0.438
    1UNL     O9   33   0.321   0.075  -0.572
    1UNL    C25   34   0.397  -0.021  -0.369
    1UNL    C26   35   0.377  -0.055  -0.233
    1UNL    C27   36   0.423  -0.349   0.113
    1UNL    O10   37   0.533  -0.422   0.171
    1UNL    C28   38   0.328  -0.434   0.033
    1UNL    O11   39   0.392  -0.476  -0.084
    1UNL    C29   40   0.189  -0.358   0.022
    1UNL    O12   41   0.105  -0.441  -0.056
    1UNL     H1   42  -0.437  -0.232  -0.098
    1UNL     H2   43  -0.270  -0.291  -0.111
    1UNL     H3   44  -0.479  -0.037   0.091
    1UNL     H4   45  -0.314   0.280  -0.163
    1UNL     H5   46  -0.299   0.506  -0.248
    1UNL     H6   47  -0.539   0.755  -0.145
    1UNL     H7   48  -0.622   0.623   0.003
    1UNL     H8   49  -0.601   0.396   0.124
    1UNL     H9   50  -0.328   0.127   0.232
    1UNL    H10   51  -0.318  -0.047   0.276
    1UNL    H11   52  -0.078  -0.027   0.248
    1UNL    H12   53  -0.149   0.187   0.052
    1UNL    H13   54   0.010   0.105   0.041
    1UNL    H14   55   0.052   0.308   0.183
    1UNL    H15   56  -0.077   0.259   0.287
    1UNL    H16   57   0.158   0.117   0.208
    1UNL    H17   58  -0.090  -0.071  -0.038
    1UNL    H18   59  -0.144  -0.318   0.153
    1UNL    H19   60  -0.044  -0.305   0.008
    1UNL    H20   61   0.092  -0.426   0.195
    1UNL    H21   62   0.421  -0.256   0.313
    1UNL    H22   63   0.222  -0.086   0.213
    1UNL    H23   64   0.395  -0.048   0.216
    1UNL    H24   65   0.147   0.176  -0.162
    1UNL    H25   66   0.117   0.174  -0.404
    1UNL    H26   67   0.296   0.164  -0.609
    1UNL    H27   68   0.479  -0.062  -0.426
    1UNL    H28   69   0.438  -0.124  -0.187
    1UNL    H29   70   0.476  -0.272   0.044
    1UNL    H30   71   0.547  -0.503   0.124
    1UNL    H31   72   0.306  -0.523   0.090
    1UNL    H32   73   0.372  -0.413  -0.156
    1UNL    H33   74   0.204  -0.263  -0.037
    1UNL    H34   75   0.145  -0.495  -0.121
   0.00000   0.00000   0.00000   0.00000   0.00000   0.00000   0.00000   0.00000   0.00000
Generated with MDTraj, t= 43.0
 75
    1UNL     C1    1  -0.342  -0.208  -0.081
    1UNL     C2    2  -0.291  -0.127   0.007
    1UNL     C3    3  -0.361  -0.015   0.073
    1UNL     O1    4  -0.379   0.101  -0.013
    1UNL     C4    5  -0.464   0.195   0.051
    1UNL     O2    6  -0.531   0.176   0.151
    1UNL     C5    7  -0.474   0.326  -0.019
    1UNL     C6    8  -0.398   0.357  -0.130
    1UNL     C7    9  -0.393   0.485  -0.186
    1UNL     C8   10  -0.473   0.588  -0.132
    1UNL     O3   11  -0.468   0.711  -0.186
    1UNL     C9   12  -0.564   0.549  -0.028
    1UNL    C10   13  -0.558   0.426   0.028
    1UNL    C11   14  -0.272   0.011   0.200
    1UNL    C12   15  -0.131  -0.012   0.157
    1UNL    C13   16  -0.081   0.121   0.103
    1UNL    C14   17  -0.051   0.225   0.218
    1UNL     O4   18   0.060   0.201   0.298
    1UNL    C15   19  -0.143  -0.112   0.040
    1UNL    C16   20  -0.079  -0.243   0.082
    1UNL     O5   21   0.044  -0.217   0.147
    1UNL    C17   22   0.131  -0.340   0.146
    1UNL     O6   23   0.226  -0.335   0.257
    1UNL    C18   24   0.350  -0.265   0.222
    1UNL    C19   25   0.330  -0.122   0.191
    1UNL     O7   26   0.337  -0.116   0.048
    1UNL    C20   27   0.284  -0.003  -0.004
    1UNL     O8   28   0.243   0.080   0.068
    1UNL    C21   29   0.276   0.012  -0.155
    1UNL    C22   30   0.217   0.119  -0.219
    1UNL    C23   31   0.217   0.126  -0.360
    1UNL    C24   32   0.302   0.041  -0.430
    1UNL     O9   33   0.325   0.049  -0.568
    1UNL    C25   34   0.381  -0.051  -0.360
    1UNL    C26   35   0.362  -0.067  -0.228
    1UNL    C27   36   0.434  -0.341   0.113
    1UNL    O10   37   0.539  -0.410   0.185
    1UNL    C28   38   0.345  -0.441   0.023
    1UNL    O11   39   0.394  -0.460  -0.106
    1UNL    C29   40   0.200  -0.367   0.012
    1UNL    O12   41   0.119  -0.440  -0.080
    1UNL     H1   42  -0.452  -0.198  -0.099
    1UNL     H2   43  -0.295  -0.294  -0.121
    1UNL     H3   44  -0.466  -0.060   0.099
    1UNL     H4   45  -0.342   0.285  -0.185
    1UNL     H5   46  -0.331   0.501  -0.268
    1UNL     H6   47  -0.535   0.764  -0.137
    1UNL     H7   48  -0.623   0.634   0.012
    1UNL     H8   49  -0.611   0.401   0.117
    1UNL     H9   50  -0.279   0.115   0.229
    1UNL    H10   51  -0.313  -0.054   0.283
    1UNL    H11   52  -0.057  -0.056   0.223
    1UNL    H12   53  -0.149   0.161   0.029
    1UNL    H13   54   0.015   0.099   0.048
    1UNL    H14   55  -0.033   0.321   0.171
    1UNL    H15   56  -0.125   0.247   0.300
    1UNL    H16   57   0.130   0.145   0.246
    1UNL    H17   58  -0.092  -0.080  -0.056
    1UNL    H18   59  -0.140  -0.290   0.162
    1UNL    H19   60  -0.069  -0.316  -0.001
    1UNL    H20   61   0.078  -0.439   0.172
    1UNL    H21   62   0.412  -0.273   0.318
    1UNL    H22   63   0.236  -0.094   0.232
    1UNL    H23   64   0.411  -0.060   0.226
    1UNL    H24   65   0.164   0.187  -0.153
    1UNL    H25   66   0.156   0.193  -0.409
    1UNL    H26   67   0.271   0.126  -0.607
    1UNL    H27   68   0.449  -0.111  -0.421
    1UNL    H28   69   0.419  -0.155  -0.189
    1UNL    H29   70   0.494  -0.272   0.041
    1UNL    H30   71   0.552  -0.491   0.133
    1UNL    H31   72   0.326  -0.537   0.067
    1UNL    H32   73   0.494  -0.439  -0.104
    1UNL    H33   74   0.222  -0.268  -0.035
    1UNL    H34   75   0.170  -0.473  -0.161
   0.00000   0.00000   0.00000   0.00000   0.00000   0.00000   0.00000   0.00000   0.00000
Generated with MDTraj, t= 44.0
 75
    1UNL     C1    1  -0.336  -0.204  -0.090
    1UNL     C2    2  -0.279  -0.118  -0.011
    1UNL     C3    3  -0.366  -0.020   0.072
    1UNL     O1    4  -0.380   0.097   0.000
    1UNL     C4    5  -0.453   0.193   0.064
    1UNL     O2    6  -0.516   0.173   0.166
    1UNL     C5    7  -0.456   0.325  -0.008
    1UNL     C6    8  -0.392   0.351  -0.125
    1UNL     C7    9  -0.400   0.476  -0.184
    1UNL     C8   10  -0.482   0.570  -0.133
    1UNL     O3   11  -0.501   0.685  -0.206
    1UNL     C9   12  -0.550   0.549  -0.012
    1UNL    C10   13  -0.531   0.432   0.049
    1UNL    C11   14  -0.278   0.006   0.199
    1UNL    C12   15  -0.134   0.005   0.141
    1UNL    C13   16  -0.088   0.145   0.093
    1UNL    C14   17  -0.058   0.239   0.214
    1UNL     O4   18   0.061   0.200   0.278
    1UNL    C15   19  -0.135  -0.092   0.026
    1UNL    C16   20  -0.067  -0.226   0.062
    1UNL     O5   21   0.064  -0.208   0.120
    1UNL    C17   22   0.138  -0.336   0.133
    1UNL     O6   23   0.215  -0.347   0.259
    1UNL    C18   24   0.340  -0.273   0.232
    1UNL    C19   25   0.319  -0.125   0.191
    1UNL     O7   26   0.340  -0.106   0.055
    1UNL    C20   27   0.289   0.014   0.014
    1UNL     O8   28   0.224   0.092   0.077
    1UNL    C21   29   0.296   0.025  -0.140
    1UNL    C22   30   0.242   0.130  -0.206
    1UNL    C23   31   0.248   0.139  -0.348
    1UNL    C24   32   0.295   0.039  -0.426
    1UNL     O9   33   0.303   0.024  -0.565
    1UNL    C25   34   0.352  -0.070  -0.356
    1UNL    C26   35   0.351  -0.082  -0.215
    1UNL    C27   36   0.424  -0.350   0.127
    1UNL    O10   37   0.520  -0.441   0.186
    1UNL    C28   38   0.345  -0.432   0.014
    1UNL    O11   39   0.405  -0.460  -0.108
    1UNL    C29   40   0.203  -0.363  -0.004
    1UNL    O12   41   0.125  -0.442  -0.094
    1UNL     H1   42  -0.443  -0.215  -0.086
    1UNL     H2   43  -0.280  -0.261  -0.159
    1UNL     H3   44  -0.467  -0.072   0.104
    1UNL     H4   45  -0.327   0.267  -0.155
    1UNL     H5   46  -0.369   0.487  -0.293
    1UNL     H6   47  -0.558   0.754  -0.164
    1UNL     H7   48  -0.609   0.625   0.031
    1UNL     H8   49  -0.580   0.414   0.146
    1UNL     H9   50  -0.315   0.092   0.250
    1UNL    H10   51  -0.293  -0.088   0.263
    1UNL    H11   52  -0.059  -0.022   0.215
    1UNL    H12   53  -0.166   0.196   0.029
    1UNL    H13   54   0.006   0.145   0.034
    1UNL    H14   55  -0.043   0.344   0.190
    1UNL    H15   56  -0.141   0.231   0.288
    1UNL    H16   57   0.134   0.183   0.211
    1UNL    H17   58  -0.093  -0.040  -0.066
    1UNL    H18   59  -0.128  -0.277   0.141
    1UNL    H19   60  -0.057  -0.290  -0.028
    1UNL    H20   61   0.059  -0.420   0.147
    1UNL    H21   62   0.390  -0.274   0.333
    1UNL    H22   63   0.213  -0.110   0.203
    1UNL    H23   64   0.373  -0.059   0.257
    1UNL    H24   65   0.199   0.203  -0.140
    1UNL    H25   66   0.203   0.235  -0.389
    1UNL    H26   67   0.231   0.078  -0.613
    1UNL    H27   68   0.376  -0.159  -0.407
    1UNL    H28   69   0.390  -0.169  -0.168
    1UNL    H29   70   0.491  -0.267   0.080
    1UNL    H30   71   0.544  -0.418   0.281
    1UNL    H31   72   0.319  -0.528   0.054
    1UNL    H32   73   0.504  -0.450  -0.091
    1UNL    H33   74   0.212  -0.262  -0.054
    1UNL    H34   75   0.185  -0.488  -0.162
   0.00000   0.00000   0.00000   0.00000   0.00000   0.00000   0.00000   0.00000   0.00000
Generated with MDTraj, t= 45.0
 75
    1UNL     C1    1  -0.334  -0.185  -0.122
    1UNL     C2    2  -0.281  -0.105  -0.034
    1UNL     C3    3  -0.362  -0.017   0.060
    1UNL     O1    4  -0.382   0.102  -0.008
    1UNL     C4    5  -0.441   0.195   0.075
    1UNL     O2    6  -0.475   0.185   0.194
    1UNL     C5    7  -0.466   0.318  -0.002
    1UNL     C6    8  -0.410   0.336  -0.124
    1UNL     C7    9  -0.432   0.451  -0.194
    1UNL     C8   10  -0.497   0.561  -0.136
    1UNL     O3   11  -0.508   0.678  -0.209
    1UNL     C9   12  -0.551   0.544  -0.004
    1UNL    C10   13  -0.531   0.424   0.067
    1UNL    C11   14  -0.275   0.009   0.189
    1UNL    C12   15  -0.130   0.010   0.133
    1UNL    C13   16  -0.066   0.142   0.080
    1UNL    C14   17  -0.040   0.240   0.189
    1UNL     O4   18   0.057   0.180   0.282
    1UNL    C15   19  -0.132  -0.085   0.009
    1UNL    C16   20  -0.064  -0.228   0.038
    1UNL     O5   21   0.053  -0.213   0.123
    1UNL    C17   22   0.124  -0.329   0.132
    1UNL     O6   23   0.204  -0.326   0.254
    1UNL    C18   24   0.338  -0.268   0.233
    1UNL    C19   25   0.319  -0.117   0.204
    1UNL     O7   26   0.338  -0.118   0.068
    1UNL    C20   27   0.297  -0.002   0.009
    1UNL     O8   28   0.246   0.084   0.076
    1UNL    C21   29   0.306   0.018  -0.139
    1UNL    C22   30   0.259   0.130  -0.201
    1UNL    C23   31   0.256   0.146  -0.336
    1UNL    C24   32   0.286   0.038  -0.416
    1UNL     O9   33   0.282   0.042  -0.555
    1UNL    C25   34   0.320  -0.088  -0.360
    1UNL    C26   35   0.344  -0.091  -0.219
    1UNL    C27   36   0.425  -0.353   0.128
    1UNL    O10   37   0.513  -0.450   0.189
    1UNL    C28   38   0.340  -0.435   0.034
    1UNL    O11   39   0.411  -0.460  -0.083
    1UNL    C29   40   0.205  -0.352   0.010
    1UNL    O12   41   0.131  -0.406  -0.099
    1UNL     H1   42  -0.437  -0.185  -0.146
    1UNL     H2   43  -0.263  -0.244  -0.184
    1UNL     H3   44  -0.469  -0.058   0.091
    1UNL     H4   45  -0.365   0.251  -0.170
    1UNL     H5   46  -0.393   0.470  -0.288
    1UNL     H6   47  -0.553   0.749  -0.156
    1UNL     H7   48  -0.605   0.624   0.044
    1UNL     H8   49  -0.550   0.429   0.170
    1UNL     H9   50  -0.322   0.095   0.234
    1UNL    H10   51  -0.299  -0.081   0.252
    1UNL    H11   52  -0.067  -0.035   0.210
    1UNL    H12   53  -0.133   0.197  -0.001
    1UNL    H13   54   0.031   0.127   0.030
    1UNL    H14   55  -0.003   0.333   0.146
    1UNL    H15   56  -0.135   0.259   0.244
    1UNL    H16   57   0.131   0.143   0.230
    1UNL    H17   58  -0.065  -0.037  -0.068
    1UNL    H18   59  -0.136  -0.296   0.091
    1UNL    H19   60  -0.025  -0.272  -0.055
    1UNL    H20   61   0.044  -0.413   0.146
    1UNL    H21   62   0.381  -0.273   0.333
    1UNL    H22   63   0.221  -0.074   0.235
    1UNL    H23   64   0.407  -0.060   0.239
    1UNL    H24   65   0.230   0.220  -0.147
    1UNL    H25   66   0.236   0.239  -0.380
    1UNL    H26   67   0.215   0.103  -0.594
    1UNL    H27   68   0.333  -0.176  -0.427
    1UNL    H28   69   0.373  -0.190  -0.189
    1UNL    H29   70   0.485  -0.273   0.071
    1UNL    H30   71   0.527  -0.434   0.288
    1UNL    H31   72   0.319  -0.534   0.070
    1UNL    H32   73   0.504  -0.475  -0.064
    1UNL    H33   74   0.240  -0.255  -0.034
    1UNL    H34   75   0.190  -0.464  -0.141
   0.00000   0.00000   0.00000   0.00000   0.00000   0.00000   0.00000   0.00000   0.00000
Generated with MDTraj, t= 46.0
 75
    1UNL     C1    1  -0.324  -0.167  -0.137
    1UNL     C2    2  -0.271  -0.099  -0.038
    1UNL     C3    3  -0.347  -0.016   0.067
    1UNL     O1    4  -0.390   0.102  -0.010
    1UNL     C4    5  -0.443   0.205   0.065
    1UNL     O2    6  -0.463   0.193   0.187
    1UNL     C5    7  -0.475   0.327  -0.007
    1UNL     C6    8  -0.454   0.342  -0.145
    1UNL     C7    9  -0.472   0.460  -0.205
    1UNL     C8   10  -0.510   0.572  -0.134
    1UNL     O3   11  -0.532   0.691  -0.200
    1UNL     C9   12  -0.544   0.555  -0.003
    1UNL    C10   13  -0.535   0.427   0.062
    1UNL    C11   14  -0.243   0.006   0.185
    1UNL    C12   15  -0.112  -0.004   0.115
    1UNL    C13   16  -0.070   0.139   0.077
    1UNL    C14   17  -0.020   0.229   0.187
    1UNL     O4   18   0.083   0.165   0.264
    1UNL    C15   19  -0.125  -0.094  -0.006
    1UNL    C16   20  -0.076  -0.238   0.033
    1UNL     O5   21   0.036  -0.233   0.131
    1UNL    C17   22   0.129  -0.339   0.148
    1UNL     O6   23   0.213  -0.323   0.274
    1UNL    C18   24   0.343  -0.271   0.242
    1UNL    C19   25   0.336  -0.128   0.191
    1UNL     O7   26   0.349  -0.118   0.052
    1UNL    C20   27   0.305   0.002   0.006
    1UNL     O8   28   0.271   0.095   0.079
    1UNL    C21   29   0.302   0.020  -0.139
    1UNL    C22   30   0.256   0.142  -0.189
    1UNL    C23   31   0.245   0.152  -0.329
    1UNL    C24   32   0.276   0.043  -0.413
    1UNL     O9   33   0.278   0.059  -0.552
    1UNL    C25   34   0.308  -0.075  -0.359
    1UNL    C26   35   0.331  -0.084  -0.220
    1UNL    C27   36   0.416  -0.363   0.146
    1UNL    O10   37   0.496  -0.450   0.226
    1UNL    C28   38   0.338  -0.446   0.043
    1UNL    O11   39   0.408  -0.474  -0.078
    1UNL    C29   40   0.210  -0.369   0.020
    1UNL    O12   41   0.141  -0.421  -0.099
    1UNL     H1   42  -0.425  -0.166  -0.165
    1UNL     H2   43  -0.256  -0.219  -0.206
    1UNL     H3   44  -0.435  -0.092   0.096
    1UNL     H4   45  -0.415   0.252  -0.193
    1UNL     H5   46  -0.454   0.464  -0.314
    1UNL     H6   47  -0.575   0.755  -0.138
    1UNL     H7   48  -0.585   0.639   0.051
    1UNL     H8   49  -0.553   0.426   0.172
    1UNL     H9   50  -0.265   0.109   0.217
    1UNL    H10   51  -0.271  -0.067   0.264
    1UNL    H11   52  -0.042  -0.049   0.183
    1UNL    H12   53  -0.165   0.186   0.028
    1UNL    H13   54   0.003   0.140  -0.008
    1UNL    H14   55   0.018   0.325   0.153
    1UNL    H15   56  -0.101   0.255   0.259
    1UNL    H16   57   0.158   0.133   0.200
    1UNL    H17   58  -0.063  -0.064  -0.096
    1UNL    H18   59  -0.155  -0.290   0.095
    1UNL    H19   60  -0.048  -0.298  -0.052
    1UNL    H20   61   0.052  -0.423   0.165
    1UNL    H21   62   0.406  -0.282   0.329
    1UNL    H22   63   0.240  -0.078   0.218
    1UNL    H23   64   0.423  -0.068   0.231
    1UNL    H24   65   0.245   0.219  -0.116
    1UNL    H25   66   0.221   0.251  -0.370
    1UNL    H26   67   0.217   0.129  -0.569
    1UNL    H27   68   0.331  -0.160  -0.415
    1UNL    H28   69   0.372  -0.178  -0.174
    1UNL    H29   70   0.492  -0.293   0.097
    1UNL    H30   71   0.564  -0.493   0.171
    1UNL    H31   72   0.329  -0.547   0.084
    1UNL    H32   73   0.502  -0.467  -0.066
    1UNL    H33   74   0.226  -0.263  -0.016
    1UNL    H34   75   0.206  -0.467  -0.165
   0.00000   0.00000   0.00000   0.00000   0.00000   0.00000   0.00000   0.00000   0.00000
Generated with MDTraj, t= 47.0
 75
    1UNL     C1    1  -0.314  -0.170  -0.140
    1UNL     C2    2  -0.257  -0.111  -0.038
    1UNL     C3    3  -0.342  -0.003   0.039
    1UNL     O1    4  -0.372   0.114  -0.029
    1UNL     C4    5  -0.440   0.204   0.049
    1UNL     O2    6  -0.481   0.171   0.161
    1UNL     C5    7  -0.471   0.337  -0.010
    1UNL     C6    8  -0.468   0.345  -0.151
    1UNL     C7    9  -0.506   0.465  -0.209
    1UNL     C8   10  -0.542   0.576  -0.126
    1UNL     O3   11  -0.579   0.695  -0.193
    1UNL     C9   12  -0.543   0.564   0.011
    1UNL    C10   13  -0.509   0.442   0.067
    1UNL    C11   14  -0.251   0.025   0.163
    1UNL    C12   15  -0.107   0.002   0.118
    1UNL    C13   16  -0.043   0.135   0.066
    1UNL    C14   17  -0.014   0.228   0.188
    1UNL     O4   18   0.090   0.175   0.270
    1UNL    C15   19  -0.110  -0.108   0.011
    1UNL    C16   20  -0.057  -0.236   0.061
    1UNL     O5   21   0.069  -0.212   0.115
    1UNL    C17   22   0.123  -0.335   0.147
    1UNL     O6   23   0.207  -0.332   0.270
    1UNL    C18   24   0.338  -0.279   0.244
    1UNL    C19   25   0.322  -0.132   0.194
    1UNL     O7   26   0.316  -0.129   0.051
    1UNL    C20   27   0.312  -0.003   0.008
    1UNL     O8   28   0.318   0.096   0.086
    1UNL    C21   29   0.303   0.018  -0.144
    1UNL    C22   30   0.259   0.144  -0.187
    1UNL    C23   31   0.238   0.165  -0.324
    1UNL    C24   32   0.278   0.064  -0.418
    1UNL     O9   33   0.252   0.076  -0.556
    1UNL    C25   34   0.325  -0.056  -0.362
    1UNL    C26   35   0.329  -0.083  -0.228
    1UNL    C27   36   0.423  -0.376   0.150
    1UNL    O10   37   0.504  -0.463   0.233
    1UNL    C28   38   0.339  -0.462   0.050
    1UNL    O11   39   0.411  -0.483  -0.069
    1UNL    C29   40   0.209  -0.386   0.027
    1UNL    O12   41   0.122  -0.457  -0.064
    1UNL     H1   42  -0.417  -0.148  -0.171
    1UNL     H2   43  -0.256  -0.237  -0.198
    1UNL     H3   44  -0.441  -0.050   0.084
    1UNL     H4   45  -0.416   0.270  -0.208
    1UNL     H5   46  -0.513   0.478  -0.318
    1UNL     H6   47  -0.602   0.757  -0.120
    1UNL     H7   48  -0.552   0.653   0.072
    1UNL     H8   49  -0.517   0.440   0.174
    1UNL     H9   50  -0.279   0.125   0.208
    1UNL    H10   51  -0.266  -0.052   0.240
    1UNL    H11   52  -0.040  -0.026   0.199
    1UNL    H12   53  -0.120   0.185  -0.002
    1UNL    H13   54   0.050   0.122  -0.001
    1UNL    H14   55   0.018   0.328   0.156
    1UNL    H15   56  -0.100   0.245   0.257
    1UNL    H16   57   0.169   0.162   0.220
    1UNL    H17   58  -0.050  -0.076  -0.079
    1UNL    H18   59  -0.120  -0.274   0.148
    1UNL    H19   60  -0.046  -0.315  -0.012
    1UNL    H20   61   0.035  -0.407   0.160
    1UNL    H21   62   0.396  -0.279   0.335
    1UNL    H22   63   0.229  -0.087   0.237
    1UNL    H23   64   0.404  -0.057   0.218
    1UNL    H24   65   0.230   0.230  -0.125
    1UNL    H25   66   0.201   0.259  -0.366
    1UNL    H26   67   0.212   0.161  -0.577
    1UNL    H27   68   0.347  -0.141  -0.430
    1UNL    H28   69   0.362  -0.174  -0.189
    1UNL    H29   70   0.485  -0.308   0.085
    1UNL    H30   71   0.506  -0.546   0.188
    1UNL    H31   72   0.325  -0.569   0.082
    1UNL    H32   73   0.463  -0.566  -0.067
    1UNL    H33   74   0.242  -0.296  -0.033
    1UNL    H34   75   0.173  -0.478  -0.146
   0.00000   0.00000   0.00000   0.00000   0.00000   0.00000   0.00000   0.00000   0.00000
Generated with MDTraj, t= 48.0
 75
    1UNL     C1    1  -0.308  -0.177  -0.137
    1UNL     C2    2  -0.255  -0.097  -0.043
    1UNL     C3    3  -0.321   0.005   0.035
    1UNL     O1    4  -0.351   0.124  -0.038
    1UNL     C4    5  -0.436   0.207   0.030
    1UNL     O2    6  -0.494   0.168   0.132
    1UNL     C5    7  -0.477   0.335  -0.026
    1UNL     C6    8  -0.486   0.348  -0.163
    1UNL     C7    9  -0.537   0.473  -0.214
    1UNL     C8   10  -0.569   0.579  -0.125
    1UNL     O3   11  -0.610   0.705  -0.174
    1UNL     C9   12  -0.551   0.559   0.011
    1UNL    C10   13  -0.510   0.438   0.057
    1UNL    C11   14  -0.240   0.035   0.167
    1UNL    C12   15  -0.097   0.016   0.121
    1UNL    C13   16  -0.028   0.144   0.069
    1UNL    C14   17   0.019   0.241   0.181
    1UNL     O4   18   0.117   0.183   0.260
    1UNL    C15   19  -0.103  -0.089   0.003
    1UNL    C16   20  -0.042  -0.231   0.034
    1UNL     O5   21   0.051  -0.231   0.142
    1UNL    C17   22   0.127  -0.345   0.153
    1UNL     O6   23   0.205  -0.337   0.269
    1UNL    C18   24   0.335  -0.285   0.248
    1UNL    C19   25   0.335  -0.144   0.196
    1UNL     O7   26   0.348  -0.131   0.050
    1UNL    C20   27   0.315  -0.003   0.007
    1UNL     O8   28   0.302   0.084   0.095
    1UNL    C21   29   0.292   0.018  -0.130
    1UNL    C22   30   0.266   0.146  -0.178
    1UNL    C23   31   0.241   0.170  -0.313
    1UNL    C24   32   0.267   0.074  -0.407
    1UNL     O9   33   0.244   0.092  -0.543
    1UNL    C25   34   0.318  -0.046  -0.365
    1UNL    C26   35   0.320  -0.078  -0.231
    1UNL    C27   36   0.417  -0.378   0.149
    1UNL    O10   37   0.529  -0.449   0.208
    1UNL    C28   38   0.326  -0.474   0.062
    1UNL    O11   39   0.395  -0.528  -0.046
    1UNL    C29   40   0.204  -0.393   0.024
    1UNL    O12   41   0.113  -0.490  -0.047
    1UNL     H1   42  -0.417  -0.181  -0.152
    1UNL     H2   43  -0.254  -0.254  -0.183
    1UNL     H3   44  -0.425  -0.046   0.065
    1UNL     H4   45  -0.449   0.270  -0.229
    1UNL     H5   46  -0.534   0.484  -0.316
    1UNL     H6   47  -0.601   0.766  -0.099
    1UNL     H7   48  -0.581   0.638   0.077
    1UNL     H8   49  -0.488   0.420   0.161
    1UNL     H9   50  -0.265   0.143   0.194
    1UNL    H10   51  -0.274  -0.028   0.249
    1UNL    H11   52  -0.029  -0.017   0.201
    1UNL    H12   53  -0.090   0.203  -0.002
    1UNL    H13   54   0.069   0.116   0.009
    1UNL    H14   55   0.071   0.328   0.139
    1UNL    H15   56  -0.066   0.275   0.245
    1UNL    H16   57   0.188   0.141   0.196
    1UNL    H17   58  -0.045  -0.047  -0.084
    1UNL    H18   59  -0.115  -0.314   0.058
    1UNL    H19   60   0.016  -0.266  -0.049
    1UNL    H20   61   0.051  -0.425   0.177
    1UNL    H21   62   0.395  -0.286   0.340
    1UNL    H22   63   0.232  -0.107   0.211
    1UNL    H23   64   0.399  -0.070   0.249
    1UNL    H24   65   0.266   0.235  -0.120
    1UNL    H25   66   0.207   0.267  -0.337
    1UNL    H26   67   0.240   0.189  -0.565
    1UNL    H27   68   0.355  -0.109  -0.439
    1UNL    H28   69   0.350  -0.171  -0.180
    1UNL    H29   70   0.463  -0.297   0.090
    1UNL    H30   71   0.545  -0.519   0.144
    1UNL    H31   72   0.295  -0.561   0.129
    1UNL    H32   73   0.344  -0.506  -0.132
    1UNL    H33   74   0.238  -0.303  -0.033
    1UNL    H34   75   0.168  -0.553  -0.089
   0.00000   0.00000   0.00000   0.00000   0.00000   0.00000   0.00000   0.00000   0.00000
Generated with MDTraj, t= 49.0
 75
    1UNL     C1    1  -0.275  -0.167  -0.147
    1UNL     C2    2  -0.220  -0.088  -0.058
    1UNL     C3    3  -0.310   0.011   0.029
    1UNL     O1    4  -0.359   0.127  -0.042
    1UNL     C4    5  -0.439   0.204   0.033
    1UNL     O2    6  -0.481   0.169   0.143
    1UNL     C5    7  -0.492   0.329  -0.027
    1UNL     C6    8  -0.496   0.356  -0.164
    1UNL     C7    9  -0.539   0.475  -0.218
    1UNL     C8   10  -0.575   0.579  -0.134
    1UNL     O3   11  -0.628   0.701  -0.175
    1UNL     C9   12  -0.575   0.549   0.006
    1UNL    C10   13  -0.537   0.427   0.058
    1UNL    C11   14  -0.218   0.048   0.149
    1UNL    C12   15  -0.078   0.020   0.102
    1UNL    C13   16  -0.014   0.152   0.061
    1UNL    C14   17   0.020   0.247   0.182
    1UNL     O4   18   0.095   0.181   0.281
    1UNL    C15   19  -0.082  -0.086  -0.011
    1UNL    C16   20  -0.055  -0.221   0.059
    1UNL     O5   21   0.069  -0.204   0.122
    1UNL    C17   22   0.128  -0.329   0.157
    1UNL     O6   23   0.219  -0.323   0.265
    1UNL    C18   24   0.357  -0.290   0.239
    1UNL    C19   25   0.363  -0.153   0.189
    1UNL     O7   26   0.328  -0.143   0.048
    1UNL    C20   27   0.316  -0.010   0.014
    1UNL     O8   28   0.309   0.081   0.100
    1UNL    C21   29   0.301   0.024  -0.127
    1UNL    C22   30   0.284   0.157  -0.169
    1UNL    C23   31   0.259   0.182  -0.304
    1UNL    C24   32   0.264   0.076  -0.401
    1UNL     O9   33   0.243   0.103  -0.534
    1UNL    C25   34   0.293  -0.058  -0.351
    1UNL    C26   35   0.303  -0.080  -0.219
    1UNL    C27   36   0.417  -0.384   0.131
    1UNL    O10   37   0.534  -0.444   0.187
    1UNL    C28   38   0.316  -0.488   0.069
    1UNL    O11   39   0.360  -0.574  -0.038
    1UNL    C29   40   0.191  -0.403   0.029
    1UNL    O12   41   0.095  -0.501  -0.028
    1UNL     H1   42  -0.377  -0.168  -0.173
    1UNL     H2   43  -0.216  -0.245  -0.196
    1UNL     H3   44  -0.414  -0.035   0.063
    1UNL     H4   45  -0.465   0.283  -0.239
    1UNL     H5   46  -0.535   0.480  -0.333
    1UNL     H6   47  -0.630   0.762  -0.099
    1UNL     H7   48  -0.633   0.614   0.070
    1UNL     H8   49  -0.533   0.405   0.164
    1UNL     H9   50  -0.228   0.159   0.174
    1UNL    H10   51  -0.255  -0.013   0.231
    1UNL    H11   52  -0.018  -0.021   0.185
    1UNL    H12   53  -0.079   0.199  -0.017
    1UNL    H13   54   0.086   0.129   0.009
    1UNL    H14   55   0.070   0.337   0.146
    1UNL    H15   56  -0.069   0.273   0.244
    1UNL    H16   57   0.167   0.138   0.240
    1UNL    H17   58  -0.013  -0.070  -0.099
    1UNL    H18   59  -0.136  -0.245   0.137
    1UNL    H19   60  -0.049  -0.302  -0.009
    1UNL    H20   61   0.040  -0.391   0.188
    1UNL    H21   62   0.400  -0.314   0.340
    1UNL    H22   63   0.302  -0.089   0.252
    1UNL    H23   64   0.467  -0.126   0.194
    1UNL    H24   65   0.288   0.245  -0.104
    1UNL    H25   66   0.236   0.281  -0.350
    1UNL    H26   67   0.246   0.205  -0.544
    1UNL    H27   68   0.301  -0.136  -0.428
    1UNL    H28   69   0.311  -0.180  -0.182
    1UNL    H29   70   0.441  -0.316   0.051
    1UNL    H30   71   0.549  -0.539   0.156
    1UNL    H31   72   0.275  -0.567   0.142
    1UNL    H32   73   0.450  -0.541  -0.063
    1UNL    H33   74   0.210  -0.322  -0.042
    1UNL    H34   75   0.137  -0.552  -0.102
   0.00000   0.00000   0.00000   0.00000   0.00000   0.00000   0.00000   0.00000   0.00000
Generated with MDTraj, t= 50.0
 75
    1UNL     C1    1  -0.253  -0.108  -0.191
    1UNL     C2    2  -0.224  -0.072  -0.069
    1UNL     C3    3  -0.315   0.008   0.021
    1UNL     O1    4  -0.367   0.120  -0.039
    1UNL     C4    5  -0.446   0.197   0.038
    1UNL     O2    6  -0.468   0.170   0.155
    1UNL     C5    7  -0.505   0.320  -0.028
    1UNL     C6    8  -0.471   0.350  -0.160
    1UNL     C7    9  -0.517   0.469  -0.214
    1UNL     C8   10  -0.586   0.561  -0.137
    1UNL     O3   11  -0.640   0.680  -0.186
    1UNL     C9   12  -0.613   0.534  -0.002
    1UNL    C10   13  -0.563   0.419   0.055
    1UNL    C11   14  -0.229   0.049   0.153
    1UNL    C12   15  -0.083   0.032   0.108
    1UNL    C13   16  -0.023   0.166   0.059
    1UNL    C14   17   0.015   0.251   0.174
    1UNL     O4   18   0.116   0.195   0.254
    1UNL    C15   19  -0.083  -0.074  -0.008
    1UNL    C16   20  -0.029  -0.212   0.051
    1UNL     O5   21   0.092  -0.195   0.126
    1UNL    C17   22   0.134  -0.330   0.169
    1UNL     O6   23   0.230  -0.335   0.266
    1UNL    C18   24   0.370  -0.305   0.228
    1UNL    C19   25   0.374  -0.153   0.192
    1UNL     O7   26   0.357  -0.133   0.051
    1UNL    C20   27   0.337  -0.006   0.023
    1UNL     O8   28   0.323   0.087   0.103
    1UNL    C21   29   0.311   0.029  -0.121
    1UNL    C22   30   0.299   0.164  -0.171
    1UNL    C23   31   0.275   0.190  -0.299
    1UNL    C24   32   0.254   0.083  -0.390
    1UNL     O9   33   0.259   0.104  -0.527
    1UNL    C25   34   0.235  -0.045  -0.338
    1UNL    C26   35   0.266  -0.073  -0.209
    1UNL    C27   36   0.414  -0.412   0.121
    1UNL    O10   37   0.526  -0.488   0.170
    1UNL    C28   38   0.305  -0.500   0.071
    1UNL    O11   39   0.347  -0.590  -0.028
    1UNL    C29   40   0.183  -0.409   0.047
    1UNL    O12   41   0.078  -0.484  -0.009
    1UNL     H1   42  -0.349  -0.078  -0.223
    1UNL     H2   43  -0.198  -0.164  -0.268
    1UNL     H3   44  -0.410  -0.056   0.049
    1UNL     H4   45  -0.384   0.302  -0.200
    1UNL     H5   46  -0.511   0.499  -0.312
    1UNL     H6   47  -0.702   0.730  -0.129
    1UNL     H7   48  -0.660   0.609   0.061
    1UNL     H8   49  -0.575   0.400   0.160
    1UNL     H9   50  -0.261   0.154   0.176
    1UNL    H10   51  -0.251  -0.019   0.235
    1UNL    H11   52  -0.013  -0.005   0.186
    1UNL    H12   53  -0.096   0.223  -0.007
    1UNL    H13   54   0.067   0.145   0.001
    1UNL    H14   55   0.060   0.347   0.148
    1UNL    H15   56  -0.077   0.267   0.235
    1UNL    H16   57   0.196   0.162   0.195
    1UNL    H17   58  -0.006  -0.051  -0.086
    1UNL    H18   59  -0.108  -0.234   0.131
    1UNL    H19   60  -0.027  -0.292  -0.019
    1UNL    H20   61   0.047  -0.379   0.212
    1UNL    H21   62   0.434  -0.332   0.319
    1UNL    H22   63   0.292  -0.106   0.244
    1UNL    H23   64   0.465  -0.111   0.225
    1UNL    H24   65   0.317   0.231  -0.092
    1UNL    H25   66   0.282   0.283  -0.341
    1UNL    H26   67   0.245   0.203  -0.544
    1UNL    H27   68   0.196  -0.130  -0.391
    1UNL    H28   69   0.267  -0.174  -0.165
    1UNL    H29   70   0.452  -0.356   0.039
    1UNL    H30   71   0.556  -0.566   0.113
    1UNL    H31   72   0.281  -0.579   0.150
    1UNL    H32   73   0.282  -0.587  -0.099
    1UNL    H33   74   0.226  -0.336  -0.022
    1UNL    H34   75   0.047  -0.552   0.058
   0.00000   0.00000   0.00000   0.00000   0.00000   0.00000   0.00000   0.00000   0.00000
Generated with MDTraj, t= 51.0
 75
    1UNL     C1    1  -0.232  -0.083  -0.196
    1UNL     C2    2  -0.202  -0.049  -0.072
    1UNL     C3    3  -0.296   0.024   0.020
    1UNL     O1    4  -0.343   0.139  -0.034
    1UNL     C4    5  -0.434   0.195   0.046
    1UNL     O2    6  -0.472   0.148   0.152
    1UNL     C5    7  -0.494   0.313  -0.016
    1UNL     C6    8  -0.453   0.346  -0.147
    1UNL     C7    9  -0.504   0.460  -0.202
    1UNL     C8   10  -0.594   0.547  -0.140
    1UNL     O3   11  -0.648   0.655  -0.201
    1UNL     C9   12  -0.644   0.502  -0.019
    1UNL    C10   13  -0.598   0.387   0.043
    1UNL    C11   14  -0.214   0.054   0.154
    1UNL    C12   15  -0.065   0.044   0.109
    1UNL    C13   16  -0.001   0.181   0.057
    1UNL    C14   17   0.025   0.273   0.171
    1UNL     O4   18   0.121   0.215   0.261
    1UNL    C15   19  -0.066  -0.055  -0.008
    1UNL    C16   20  -0.032  -0.200   0.037
    1UNL     O5   21   0.079  -0.198   0.128
    1UNL    C17   22   0.123  -0.331   0.171
    1UNL     O6   23   0.225  -0.315   0.275
    1UNL    C18   24   0.366  -0.308   0.232
    1UNL    C19   25   0.399  -0.172   0.166
    1UNL     O7   26   0.345  -0.142   0.041
    1UNL    C20   27   0.325  -0.009   0.026
    1UNL     O8   28   0.336   0.079   0.110
    1UNL    C21   29   0.298   0.022  -0.116
    1UNL    C22   30   0.337   0.143  -0.168
    1UNL    C23   31   0.320   0.177  -0.294
    1UNL    C24   32   0.250   0.094  -0.383
    1UNL     O9   33   0.219   0.127  -0.511
    1UNL    C25   34   0.215  -0.038  -0.339
    1UNL    C26   35   0.254  -0.076  -0.210
    1UNL    C27   36   0.399  -0.414   0.121
    1UNL    O10   37   0.512  -0.489   0.161
    1UNL    C28   38   0.288  -0.507   0.081
    1UNL    O11   39   0.325  -0.583  -0.032
    1UNL    C29   40   0.169  -0.417   0.050
    1UNL    O12   41   0.065  -0.493  -0.003
    1UNL     H1   42  -0.331  -0.087  -0.240
    1UNL     H2   43  -0.161  -0.117  -0.266
    1UNL     H3   44  -0.394  -0.035   0.047
    1UNL     H4   45  -0.367   0.295  -0.188
    1UNL     H5   46  -0.477   0.500  -0.298
    1UNL     H6   47  -0.726   0.697  -0.155
    1UNL     H7   48  -0.722   0.548   0.038
    1UNL     H8   49  -0.632   0.368   0.145
    1UNL     H9   50  -0.226   0.158   0.186
    1UNL    H10   51  -0.249  -0.020   0.230
    1UNL    H11   52   0.003   0.011   0.191
    1UNL    H12   53  -0.068   0.230  -0.022
    1UNL    H13   54   0.092   0.170   0.007
    1UNL    H14   55   0.056   0.372   0.136
    1UNL    H15   56  -0.062   0.285   0.238
    1UNL    H16   57   0.196   0.171   0.213
    1UNL    H17   58   0.009  -0.019  -0.083
    1UNL    H18   59  -0.121  -0.259   0.081
    1UNL    H19   60  -0.005  -0.248  -0.053
    1UNL    H20   61   0.040  -0.378   0.221
    1UNL    H21   62   0.439  -0.311   0.318
    1UNL    H22   63   0.376  -0.092   0.238
    1UNL    H23   64   0.504  -0.161   0.147
    1UNL    H24   65   0.397   0.205  -0.099
    1UNL    H25   66   0.359   0.272  -0.344
    1UNL    H26   67   0.179   0.217  -0.510
    1UNL    H27   68   0.160  -0.091  -0.415
    1UNL    H28   69   0.243  -0.180  -0.185
    1UNL    H29   70   0.416  -0.366   0.029
    1UNL    H30   71   0.524  -0.556   0.091
    1UNL    H31   72   0.259  -0.577   0.163
    1UNL    H32   73   0.265  -0.564  -0.107
    1UNL    H33   74   0.202  -0.348  -0.026
    1UNL    H34   75   0.036  -0.570   0.049
   0.00000   0.00000   0.00000   0.00000   0.00000   0.00000   0.00000   0.00000   0.00000
Generated with MDTraj, t= 52.0
 75
    1UNL     C1    1  -0.211  -0.086  -0.182
    1UNL     C2    2  -0.179  -0.050  -0.059
    1UNL     C3    3  -0.273   0.023   0.032
    1UNL     O1    4  -0.328   0.138  -0.029
    1UNL     C4    5  -0.433   0.194   0.039
    1UNL     O2    6  -0.484   0.139   0.134
    1UNL     C5    7  -0.499   0.313  -0.026
    1UNL     C6    8  -0.447   0.377  -0.142
    1UNL     C7    9  -0.502   0.485  -0.201
    1UNL     C8   10  -0.618   0.542  -0.147
    1UNL     O3   11  -0.687   0.645  -0.205
    1UNL     C9   12  -0.676   0.475  -0.035
    1UNL    C10   13  -0.618   0.362   0.024
    1UNL    C11   14  -0.178   0.074   0.149
    1UNL    C12   15  -0.032   0.060   0.102
    1UNL    C13   16   0.036   0.182   0.053
    1UNL    C14   17   0.067   0.276   0.168
    1UNL     O4   18   0.144   0.212   0.266
    1UNL    C15   19  -0.035  -0.047  -0.004
    1UNL    C16   20  -0.018  -0.188   0.057
    1UNL     O5   21   0.105  -0.200   0.134
    1UNL    C17   22   0.120  -0.333   0.175
    1UNL     O6   23   0.217  -0.346   0.273
    1UNL    C18   24   0.347  -0.311   0.223
    1UNL    C19   25   0.357  -0.171   0.178
    1UNL     O7   26   0.364  -0.145   0.045
    1UNL    C20   27   0.339  -0.012   0.016
    1UNL     O8   28   0.333   0.070   0.104
    1UNL    C21   29   0.304   0.022  -0.120
    1UNL    C22   30   0.339   0.149  -0.167
    1UNL    C23   31   0.314   0.186  -0.296
    1UNL    C24   32   0.239   0.102  -0.380
    1UNL     O9   33   0.201   0.148  -0.507
    1UNL    C25   34   0.188  -0.024  -0.331
    1UNL    C26   35   0.227  -0.067  -0.208
    1UNL    C27   36   0.394  -0.412   0.117
    1UNL    O10   37   0.502  -0.498   0.166
    1UNL    C28   38   0.278  -0.511   0.086
    1UNL    O11   39   0.309  -0.602  -0.027
    1UNL    C29   40   0.158  -0.420   0.050
    1UNL    O12   41   0.052  -0.485  -0.012
    1UNL     H1   42  -0.308  -0.080  -0.236
    1UNL     H2   43  -0.137  -0.128  -0.245
    1UNL     H3   44  -0.359  -0.050   0.061
    1UNL     H4   45  -0.355   0.345  -0.189
    1UNL     H5   46  -0.446   0.545  -0.283
    1UNL     H6   47  -0.772   0.667  -0.159
    1UNL     H7   48  -0.772   0.513  -0.002
    1UNL     H8   49  -0.643   0.321   0.120
    1UNL     H9   50  -0.196   0.178   0.168
    1UNL    H10   51  -0.202   0.015   0.241
    1UNL    H11   52   0.033   0.024   0.188
    1UNL    H12   53  -0.027   0.233  -0.023
    1UNL    H13   54   0.123   0.154  -0.002
    1UNL    H14   55   0.121   0.368   0.143
    1UNL    H15   56  -0.028   0.303   0.215
    1UNL    H16   57   0.215   0.165   0.220
    1UNL    H17   58   0.040  -0.024  -0.084
    1UNL    H18   59  -0.109  -0.208   0.125
    1UNL    H19   60  -0.023  -0.269  -0.011
    1UNL    H20   61   0.026  -0.370   0.208
    1UNL    H21   62   0.417  -0.313   0.308
    1UNL    H22   63   0.262  -0.117   0.210
    1UNL    H23   64   0.440  -0.119   0.227
    1UNL    H24   65   0.401   0.205  -0.101
    1UNL    H25   66   0.354   0.276  -0.333
    1UNL    H26   67   0.195   0.242  -0.515
    1UNL    H27   68   0.122  -0.088  -0.394
    1UNL    H28   69   0.192  -0.168  -0.183
    1UNL    H29   70   0.431  -0.372   0.029
    1UNL    H30   71   0.523  -0.560   0.097
    1UNL    H31   72   0.267  -0.564   0.182
    1UNL    H32   73   0.227  -0.639  -0.073
    1UNL    H33   74   0.198  -0.350  -0.022
    1UNL    H34   75   0.014  -0.553   0.044
   0.00000   0.00000   0.00000   0.00000   0.00000   0.00000   0.00000   0.00000   0.00000
Generated with MDTraj, t= 53.0
 75
    1UNL     C1    1  -0.225  -0.075  -0.191
    1UNL     C2    2  -0.184  -0.027  -0.075
    1UNL     C3    3  -0.262   0.057   0.016
    1UNL     O1    4  -0.314   0.171  -0.042
    1UNL     C4    5  -0.429   0.204   0.021
    1UNL     O2    6  -0.472   0.139   0.113
    1UNL     C5    7  -0.514   0.307  -0.044
    1UNL     C6    8  -0.453   0.391  -0.138
    1UNL     C7    9  -0.517   0.505  -0.188
    1UNL     C8   10  -0.652   0.532  -0.150
    1UNL     O3   11  -0.716   0.645  -0.198
    1UNL     C9   12  -0.712   0.445  -0.054
    1UNL    C10   13  -0.639   0.346  -0.001
    1UNL    C11   14  -0.172   0.106   0.145
    1UNL    C12   15  -0.035   0.062   0.106
    1UNL    C13   16   0.057   0.174   0.062
    1UNL    C14   17   0.099   0.277   0.177
    1UNL     O4   18   0.199   0.224   0.259
    1UNL    C15   19  -0.056  -0.053   0.002
    1UNL    C16   20  -0.048  -0.186   0.077
    1UNL     O5   21   0.079  -0.195   0.156
    1UNL    C17   22   0.120  -0.333   0.183
    1UNL     O6   23   0.233  -0.348   0.278
    1UNL    C18   24   0.365  -0.328   0.229
    1UNL    C19   25   0.372  -0.184   0.174
    1UNL     O7   26   0.324  -0.156   0.046
    1UNL    C20   27   0.342  -0.030   0.017
    1UNL     O8   28   0.372   0.054   0.098
    1UNL    C21   29   0.312   0.017  -0.121
    1UNL    C22   30   0.331   0.147  -0.156
    1UNL    C23   31   0.290   0.191  -0.283
    1UNL    C24   32   0.229   0.103  -0.374
    1UNL     O9   33   0.184   0.155  -0.488
    1UNL    C25   34   0.217  -0.029  -0.329
    1UNL    C26   35   0.247  -0.068  -0.202
    1UNL    C27   36   0.405  -0.432   0.116
    1UNL    O10   37   0.510  -0.522   0.169
    1UNL    C28   38   0.283  -0.510   0.074
    1UNL    O11   39   0.315  -0.597  -0.036
    1UNL    C29   40   0.154  -0.420   0.050
    1UNL    O12   41   0.050  -0.494   0.001
    1UNL     H1   42  -0.315  -0.055  -0.241
    1UNL     H2   43  -0.166  -0.153  -0.238
    1UNL     H3   44  -0.345  -0.015   0.040
    1UNL     H4   45  -0.345   0.386  -0.147
    1UNL     H5   46  -0.475   0.559  -0.262
    1UNL     H6   47  -0.804   0.647  -0.153
    1UNL     H7   48  -0.811   0.463  -0.018
    1UNL     H8   49  -0.669   0.285   0.084
    1UNL     H9   50  -0.189   0.211   0.151
    1UNL    H10   51  -0.193   0.064   0.248
    1UNL    H11   52   0.011   0.007   0.193
    1UNL    H12   53   0.003   0.226  -0.012
    1UNL    H13   54   0.142   0.136   0.011
    1UNL    H14   55   0.143   0.366   0.129
    1UNL    H15   56   0.021   0.313   0.246
    1UNL    H16   57   0.267   0.166   0.203
    1UNL    H17   58   0.032  -0.052  -0.066
    1UNL    H18   59  -0.126  -0.212   0.158
    1UNL    H19   60  -0.057  -0.273   0.019
    1UNL    H20   61   0.031  -0.376   0.217
    1UNL    H21   62   0.425  -0.338   0.318
    1UNL    H22   63   0.316  -0.116   0.247
    1UNL    H23   64   0.477  -0.147   0.175
    1UNL    H24   65   0.389   0.202  -0.081
    1UNL    H25   66   0.310   0.292  -0.310
    1UNL    H26   67   0.200   0.249  -0.494
    1UNL    H27   68   0.169  -0.095  -0.394
    1UNL    H28   69   0.230  -0.169  -0.167
    1UNL    H29   70   0.444  -0.389   0.029
    1UNL    H30   71   0.556  -0.570   0.099
    1UNL    H31   72   0.251  -0.569   0.158
    1UNL    H32   73   0.264  -0.569  -0.117
    1UNL    H33   74   0.168  -0.341  -0.022
    1UNL    H34   75   0.042  -0.573   0.060
   0.00000   0.00000   0.00000   0.00000   0.00000   0.00000   0.00000   0.00000   0.00000
Generated with MDTraj, t= 54.0
 75
    1UNL     C1    1  -0.190  -0.054  -0.173
    1UNL     C2    2  -0.165  -0.027  -0.046
    1UNL     C3    3  -0.267   0.061   0.031
    1UNL     O1    4  -0.323   0.169  -0.043
    1UNL     C4    5  -0.441   0.210   0.015
    1UNL     O2    6  -0.492   0.148   0.106
    1UNL     C5    7  -0.521   0.317  -0.056
    1UNL     C6    8  -0.465   0.413  -0.140
    1UNL     C7    9  -0.539   0.526  -0.183
    1UNL     C8   10  -0.677   0.541  -0.144
    1UNL     O3   11  -0.757   0.636  -0.206
    1UNL     C9   12  -0.731   0.437  -0.069
    1UNL    C10   13  -0.654   0.336  -0.028
    1UNL    C11   14  -0.176   0.114   0.151
    1UNL    C12   15  -0.032   0.067   0.123
    1UNL    C13   16   0.061   0.170   0.059
    1UNL    C14   17   0.138   0.266   0.152
    1UNL     O4   18   0.211   0.191   0.257
    1UNL    C15   19  -0.035  -0.048   0.026
    1UNL    C16   20  -0.027  -0.188   0.079
    1UNL     O5   21   0.086  -0.201   0.164
    1UNL    C17   22   0.116  -0.340   0.181
    1UNL     O6   23   0.225  -0.354   0.283
    1UNL    C18   24   0.358  -0.338   0.240
    1UNL    C19   25   0.388  -0.190   0.188
    1UNL     O7   26   0.352  -0.167   0.053
    1UNL    C20   27   0.373  -0.036   0.016
    1UNL     O8   28   0.415   0.045   0.095
    1UNL    C21   29   0.322   0.013  -0.121
    1UNL    C22   30   0.335   0.145  -0.160
    1UNL    C23   31   0.261   0.190  -0.266
    1UNL    C24   32   0.215   0.097  -0.361
    1UNL     O9   33   0.176   0.149  -0.492
    1UNL    C25   34   0.222  -0.038  -0.335
    1UNL    C26   35   0.269  -0.078  -0.212
    1UNL    C27   36   0.392  -0.443   0.124
    1UNL    O10   37   0.510  -0.518   0.158
    1UNL    C28   38   0.270  -0.512   0.070
    1UNL    O11   39   0.296  -0.568  -0.051
    1UNL    C29   40   0.151  -0.414   0.046
    1UNL    O12   41   0.040  -0.464  -0.017
    1UNL     H1   42  -0.275  -0.048  -0.236
    1UNL     H2   43  -0.099  -0.087  -0.229
    1UNL     H3   44  -0.348  -0.002   0.069
    1UNL     H4   45  -0.361   0.405  -0.162
    1UNL     H5   46  -0.498   0.599  -0.256
    1UNL     H6   47  -0.852   0.633  -0.177
    1UNL     H7   48  -0.838   0.446  -0.051
    1UNL     H8   49  -0.695   0.261   0.038
    1UNL     H9   50  -0.169   0.221   0.161
    1UNL    H10   51  -0.222   0.083   0.250
    1UNL    H11   52   0.017   0.031   0.219
    1UNL    H12   53   0.002   0.221  -0.006
    1UNL    H13   54   0.138   0.118   0.003
    1UNL    H14   55   0.215   0.326   0.099
    1UNL    H15   56   0.071   0.341   0.196
    1UNL    H16   57   0.278   0.140   0.215
    1UNL    H17   58   0.048  -0.039  -0.049
    1UNL    H18   59  -0.117  -0.219   0.142
    1UNL    H19   60  -0.018  -0.268   0.013
    1UNL    H20   61   0.034  -0.392   0.219
    1UNL    H21   62   0.418  -0.355   0.328
    1UNL    H22   63   0.319  -0.113   0.236
    1UNL    H23   64   0.489  -0.154   0.212
    1UNL    H24   65   0.393   0.216  -0.104
    1UNL    H25   66   0.276   0.304  -0.280
    1UNL    H26   67   0.206   0.239  -0.519
    1UNL    H27   68   0.192  -0.106  -0.418
    1UNL    H28   69   0.272  -0.180  -0.185
    1UNL    H29   70   0.431  -0.390   0.041
    1UNL    H30   71   0.514  -0.555   0.250
    1UNL    H31   72   0.247  -0.594   0.133
    1UNL    H32   73   0.211  -0.584  -0.095
    1UNL    H33   74   0.189  -0.341  -0.026
    1UNL    H34   75   0.002  -0.545   0.033
   0.00000   0.00000   0.00000   0.00000   0.00000   0.00000   0.00000   0.00000   0.00000
Generated with MDTraj, t= 55.0
 75
    1UNL     C1    1  -0.206  -0.047  -0.175
    1UNL     C2    2  -0.171  -0.009  -0.052
    1UNL     C3    3  -0.249   0.083   0.033
    1UNL     O1    4  -0.317   0.183  -0.037
    1UNL     C4    5  -0.446   0.202   0.021
    1UNL     O2    6  -0.488   0.133   0.111
    1UNL     C5    7  -0.525   0.309  -0.044
    1UNL     C6    8  -0.466   0.408  -0.127
    1UNL     C7    9  -0.540   0.503  -0.184
    1UNL     C8   10  -0.675   0.517  -0.156
    1UNL     O3   11  -0.754   0.614  -0.211
    1UNL     C9   12  -0.734   0.415  -0.080
    1UNL    C10   13  -0.665   0.309  -0.025
    1UNL    C11   14  -0.159   0.144   0.146
    1UNL    C12   15  -0.022   0.087   0.114
    1UNL    C13   16   0.083   0.195   0.069
    1UNL    C14   17   0.131   0.261   0.190
    1UNL     O4   18   0.221   0.172   0.260
    1UNL    C15   19  -0.036  -0.034   0.016
    1UNL    C16   20  -0.037  -0.170   0.085
    1UNL     O5   21   0.080  -0.182   0.173
    1UNL    C17   22   0.120  -0.318   0.174
    1UNL     O6   23   0.223  -0.351   0.271
    1UNL    C18   24   0.356  -0.335   0.231
    1UNL    C19   25   0.389  -0.193   0.185
    1UNL     O7   26   0.351  -0.167   0.050
    1UNL    C20   27   0.374  -0.030   0.018
    1UNL     O8   28   0.410   0.051   0.103
    1UNL    C21   29   0.345  -0.004  -0.126
    1UNL    C22   30   0.348   0.131  -0.157
    1UNL    C23   31   0.283   0.176  -0.273
    1UNL    C24   32   0.229   0.085  -0.367
    1UNL     O9   33   0.153   0.127  -0.476
    1UNL    C25   34   0.232  -0.050  -0.333
    1UNL    C26   35   0.285  -0.094  -0.207
    1UNL    C27   36   0.399  -0.443   0.120
    1UNL    O10   37   0.475  -0.548   0.172
    1UNL    C28   38   0.261  -0.495   0.057
    1UNL    O11   39   0.285  -0.550  -0.072
    1UNL    C29   40   0.151  -0.383   0.034
    1UNL    O12   41   0.036  -0.440  -0.030
    1UNL     H1   42  -0.293  -0.011  -0.229
    1UNL     H2   43  -0.153  -0.118  -0.230
    1UNL     H3   44  -0.321   0.018   0.077
    1UNL     H4   45  -0.357   0.411  -0.138
    1UNL     H5   46  -0.487   0.583  -0.243
    1UNL     H6   47  -0.847   0.587  -0.193
    1UNL     H7   48  -0.839   0.418  -0.067
    1UNL     H8   49  -0.710   0.252   0.056
    1UNL     H9   50  -0.170   0.251   0.136
    1UNL    H10   51  -0.207   0.126   0.246
    1UNL    H11   52   0.014   0.053   0.215
    1UNL    H12   53   0.037   0.269   0.016
    1UNL    H13   54   0.164   0.155   0.012
    1UNL    H14   55   0.175   0.360   0.169
    1UNL    H15   56   0.051   0.284   0.260
    1UNL    H16   57   0.291   0.130   0.199
    1UNL    H17   58   0.049  -0.022  -0.056
    1UNL    H18   59  -0.126  -0.183   0.157
    1UNL    H19   60  -0.046  -0.250   0.020
    1UNL    H20   61   0.045  -0.370   0.225
    1UNL    H21   62   0.401  -0.347   0.330
    1UNL    H22   63   0.338  -0.114   0.246
    1UNL    H23   64   0.492  -0.170   0.184
    1UNL    H24   65   0.405   0.203  -0.098
    1UNL    H25   66   0.274   0.275  -0.288
    1UNL    H26   67   0.167   0.225  -0.501
    1UNL    H27   68   0.177  -0.117  -0.393
    1UNL    H28   69   0.277  -0.202  -0.178
    1UNL    H29   70   0.450  -0.394   0.039
    1UNL    H30   71   0.424  -0.635   0.178
    1UNL    H31   72   0.221  -0.573   0.117
    1UNL    H32   73   0.201  -0.586  -0.109
    1UNL    H33   74   0.194  -0.304  -0.026
    1UNL    H34   75  -0.011  -0.503   0.032
   0.00000   0.00000   0.00000   0.00000   0.00000   0.00000   0.00000   0.00000   0.00000
Generated with MDTraj, t= 56.0
 75
    1UNL     C1    1  -0.193  -0.034  -0.172
    1UNL     C2    2  -0.159   0.015  -0.054
    1UNL     C3    3  -0.248   0.092   0.049
    1UNL     O1    4  -0.319   0.190  -0.017
    1UNL     C4    5  -0.451   0.198   0.032
    1UNL     O2    6  -0.491   0.125   0.119
    1UNL     C5    7  -0.534   0.302  -0.037
    1UNL     C6    8  -0.472   0.392  -0.120
    1UNL     C7    9  -0.545   0.483  -0.189
    1UNL     C8   10  -0.681   0.498  -0.170
    1UNL     O3   11  -0.758   0.595  -0.228
    1UNL     C9   12  -0.744   0.406  -0.084
    1UNL    C10   13  -0.672   0.310  -0.012
    1UNL    C11   14  -0.141   0.156   0.150
    1UNL    C12   15  -0.006   0.092   0.123
    1UNL    C13   16   0.102   0.193   0.090
    1UNL    C14   17   0.145   0.271   0.218
    1UNL     O4   18   0.233   0.188   0.298
    1UNL    C15   19  -0.025  -0.007   0.002
    1UNL    C16   20  -0.019  -0.145   0.066
    1UNL     O5   21   0.094  -0.167   0.151
    1UNL    C17   22   0.112  -0.310   0.172
    1UNL     O6   23   0.214  -0.349   0.267
    1UNL    C18   24   0.346  -0.333   0.220
    1UNL    C19   25   0.378  -0.194   0.180
    1UNL     O7   26   0.365  -0.180   0.042
    1UNL    C20   27   0.370  -0.041   0.018
    1UNL     O8   28   0.403   0.036   0.105
    1UNL    C21   29   0.326  -0.003  -0.119
    1UNL    C22   30   0.336   0.127  -0.159
    1UNL    C23   31   0.287   0.162  -0.283
    1UNL    C24   32   0.232   0.071  -0.369
    1UNL     O9   33   0.176   0.104  -0.493
    1UNL    C25   34   0.219  -0.058  -0.321
    1UNL    C26   35   0.277  -0.097  -0.202
    1UNL    C27   36   0.385  -0.445   0.116
    1UNL    O10   37   0.438  -0.557   0.181
    1UNL    C28   38   0.249  -0.489   0.048
    1UNL    O11   39   0.281  -0.553  -0.076
    1UNL    C29   40   0.151  -0.367   0.029
    1UNL    O12   41   0.047  -0.417  -0.056
    1UNL     H1   42  -0.299  -0.040  -0.210
    1UNL     H2   43  -0.126  -0.089  -0.232
    1UNL     H3   44  -0.314   0.035   0.108
    1UNL     H4   45  -0.367   0.399  -0.105
    1UNL     H5   46  -0.507   0.554  -0.248
    1UNL     H6   47  -0.852   0.573  -0.211
    1UNL     H7   48  -0.849   0.431  -0.060
    1UNL     H8   49  -0.726   0.255   0.062
    1UNL     H9   50  -0.150   0.264   0.123
    1UNL    H10   51  -0.169   0.152   0.257
    1UNL    H11   52   0.028   0.026   0.207
    1UNL    H12   53   0.057   0.265   0.026
    1UNL    H13   54   0.188   0.151   0.044
    1UNL    H14   55   0.195   0.368   0.198
    1UNL    H15   56   0.057   0.300   0.275
    1UNL    H16   57   0.298   0.136   0.239
    1UNL    H17   58   0.057   0.007  -0.073
    1UNL    H18   59  -0.115  -0.158   0.125
    1UNL    H19   60  -0.020  -0.214  -0.011
    1UNL    H20   61   0.032  -0.362   0.213
    1UNL    H21   62   0.400  -0.367   0.312
    1UNL    H22   63   0.302  -0.122   0.217
    1UNL    H23   64   0.475  -0.166   0.207
    1UNL    H24   65   0.392   0.203  -0.110
    1UNL    H25   66   0.312   0.263  -0.329
    1UNL    H26   67   0.160   0.205  -0.493
    1UNL    H27   68   0.173  -0.145  -0.372
    1UNL    H28   69   0.276  -0.198  -0.178
    1UNL    H29   70   0.456  -0.410   0.040
    1UNL    H30   71   0.510  -0.604   0.129
    1UNL    H31   72   0.205  -0.558   0.116
    1UNL    H32   73   0.208  -0.522  -0.137
    1UNL    H33   74   0.197  -0.281  -0.017
    1UNL    H34   75   0.008  -0.493  -0.013
   0.00000   0.00000   0.00000   0.00000   0.00000   0.00000   0.00000   0.00000   0.00000
Generated with MDTraj, t= 57.0
 75
    1UNL     C1    1  -0.178   0.027  -0.167
    1UNL     C2    2  -0.148   0.048  -0.040
    1UNL     C3    3  -0.245   0.108   0.060
    1UNL     O1    4  -0.313   0.216  -0.004
    1UNL     C4    5  -0.444   0.212   0.038
    1UNL     O2    6  -0.493   0.129   0.112
    1UNL     C5    7  -0.529   0.306  -0.039
    1UNL     C6    8  -0.485   0.386  -0.139
    1UNL     C7    9  -0.568   0.480  -0.199
    1UNL     C8   10  -0.702   0.491  -0.167
    1UNL     O3   11  -0.792   0.567  -0.245
    1UNL     C9   12  -0.751   0.400  -0.070
    1UNL    C10   13  -0.666   0.310  -0.013
    1UNL    C11   14  -0.147   0.157   0.175
    1UNL    C12   15  -0.000   0.117   0.149
    1UNL    C13   16   0.105   0.214   0.108
    1UNL    C14   17   0.176   0.285   0.234
    1UNL     O4   18   0.242   0.191   0.316
    1UNL    C15   19  -0.021   0.010   0.026
    1UNL    C16   20  -0.015  -0.140   0.059
    1UNL     O5   21   0.102  -0.171   0.126
    1UNL    C17   22   0.114  -0.318   0.152
    1UNL     O6   23   0.200  -0.348   0.266
    1UNL    C18   24   0.340  -0.346   0.230
    1UNL    C19   25   0.392  -0.203   0.182
    1UNL     O7   26   0.361  -0.189   0.045
    1UNL    C20   27   0.355  -0.050   0.019
    1UNL     O8   28   0.372   0.034   0.104
    1UNL    C21   29   0.304  -0.009  -0.123
    1UNL    C22   30   0.312   0.125  -0.159
    1UNL    C23   31   0.292   0.157  -0.294
    1UNL    C24   32   0.242   0.063  -0.381
    1UNL     O9   33   0.201   0.109  -0.511
    1UNL    C25   34   0.233  -0.074  -0.348
    1UNL    C26   35   0.269  -0.108  -0.216
    1UNL    C27   36   0.378  -0.456   0.123
    1UNL    O10   37   0.456  -0.560   0.176
    1UNL    C28   38   0.250  -0.510   0.051
    1UNL    O11   39   0.286  -0.571  -0.065
    1UNL    C29   40   0.160  -0.392   0.021
    1UNL    O12   41   0.059  -0.427  -0.068
    1UNL     H1   42  -0.276   0.044  -0.201
    1UNL     H2   43  -0.111  -0.007  -0.244
    1UNL     H3   44  -0.310   0.033   0.092
    1UNL     H4   45  -0.375   0.375  -0.148
    1UNL     H5   46  -0.520   0.546  -0.279
    1UNL     H6   47  -0.880   0.575  -0.204
    1UNL     H7   48  -0.854   0.396  -0.045
    1UNL     H8   49  -0.714   0.247   0.061
    1UNL     H9   50  -0.154   0.271   0.180
    1UNL    H10   51  -0.199   0.119   0.264
    1UNL    H11   52   0.044   0.058   0.232
    1UNL    H12   53   0.066   0.281   0.031
    1UNL    H13   54   0.182   0.161   0.062
    1UNL    H14   55   0.255   0.351   0.196
    1UNL    H15   56   0.112   0.348   0.296
    1UNL    H16   57   0.294   0.137   0.256
    1UNL    H17   58   0.060   0.025  -0.050
    1UNL    H18   59  -0.102  -0.157   0.127
    1UNL    H19   60  -0.028  -0.195  -0.027
    1UNL    H20   61   0.026  -0.372   0.172
    1UNL    H21   62   0.385  -0.381   0.327
    1UNL    H22   63   0.337  -0.126   0.238
    1UNL    H23   64   0.495  -0.189   0.188
    1UNL    H24   65   0.358   0.198  -0.091
    1UNL    H25   66   0.321   0.256  -0.333
    1UNL    H26   67   0.169   0.199  -0.486
    1UNL    H27   68   0.183  -0.140  -0.412
    1UNL    H28   69   0.287  -0.209  -0.177
    1UNL    H29   70   0.438  -0.399   0.047
    1UNL    H30   71   0.398  -0.634   0.200
    1UNL    H31   72   0.207  -0.577   0.124
    1UNL    H32   73   0.240  -0.528  -0.139
    1UNL    H33   74   0.213  -0.314  -0.033
    1UNL    H34   75   0.004  -0.496  -0.032
   0.00000   0.00000   0.00000   0.00000   0.00000   0.00000   0.00000   0.00000   0.00000
Generated with MDTraj, t= 58.0
 75
    1UNL     C1    1  -0.169   0.086  -0.179
    1UNL     C2    2  -0.141   0.067  -0.051
    1UNL     C3    3  -0.226   0.128   0.058
    1UNL     O1    4  -0.297   0.243   0.013
    1UNL     C4    5  -0.436   0.231   0.040
    1UNL     O2    6  -0.473   0.134   0.104
    1UNL     C5    7  -0.529   0.316  -0.041
    1UNL     C6    8  -0.495   0.399  -0.143
    1UNL     C7    9  -0.589   0.473  -0.217
    1UNL     C8   10  -0.722   0.469  -0.172
    1UNL     O3   11  -0.814   0.546  -0.246
    1UNL     C9   12  -0.759   0.390  -0.060
    1UNL    C10   13  -0.661   0.316   0.004
    1UNL    C11   14  -0.141   0.146   0.181
    1UNL    C12   15  -0.000   0.104   0.144
    1UNL    C13   16   0.094   0.225   0.127
    1UNL    C14   17   0.153   0.269   0.262
    1UNL     O4   18   0.238   0.182   0.315
    1UNL    C15   19  -0.018   0.010   0.015
    1UNL    C16   20  -0.020  -0.140   0.060
    1UNL     O5   21   0.093  -0.189   0.144
    1UNL    C17   22   0.114  -0.333   0.159
    1UNL     O6   23   0.208  -0.351   0.274
    1UNL    C18   24   0.344  -0.346   0.229
    1UNL    C19   25   0.386  -0.201   0.173
    1UNL     O7   26   0.367  -0.181   0.032
    1UNL    C20   27   0.359  -0.045   0.008
    1UNL     O8   28   0.349   0.038   0.091
    1UNL    C21   29   0.325  -0.013  -0.133
    1UNL    C22   30   0.318   0.115  -0.170
    1UNL    C23   31   0.288   0.156  -0.298
    1UNL    C24   32   0.257   0.064  -0.395
    1UNL     O9   33   0.217   0.110  -0.519
    1UNL    C25   34   0.252  -0.073  -0.354
    1UNL    C26   35   0.292  -0.108  -0.228
    1UNL    C27   36   0.380  -0.463   0.125
    1UNL    O10   37   0.447  -0.572   0.182
    1UNL    C28   38   0.251  -0.516   0.051
    1UNL    O11   39   0.283  -0.589  -0.063
    1UNL    C29   40   0.157  -0.399   0.027
    1UNL    O12   41   0.042  -0.424  -0.050
    1UNL     H1   42  -0.248   0.154  -0.197
    1UNL     H2   43  -0.108   0.051  -0.266
    1UNL     H3   44  -0.294   0.053   0.079
    1UNL     H4   45  -0.392   0.412  -0.165
    1UNL     H5   46  -0.554   0.539  -0.294
    1UNL     H6   47  -0.899   0.544  -0.196
    1UNL     H7   48  -0.866   0.370  -0.044
    1UNL     H8   49  -0.686   0.267   0.097
    1UNL     H9   50  -0.153   0.259   0.203
    1UNL    H10   51  -0.179   0.086   0.264
    1UNL    H11   52   0.042   0.042   0.225
    1UNL    H12   53   0.036   0.310   0.082
    1UNL    H13   54   0.171   0.206   0.055
    1UNL    H14   55   0.206   0.366   0.251
    1UNL    H15   56   0.079   0.289   0.341
    1UNL    H16   57   0.275   0.119   0.240
    1UNL    H17   58   0.061   0.036  -0.061
    1UNL    H18   59  -0.115  -0.163   0.110
    1UNL    H19   60  -0.017  -0.192  -0.029
    1UNL    H20   61   0.025  -0.376   0.196
    1UNL    H21   62   0.407  -0.372   0.319
    1UNL    H22   63   0.326  -0.122   0.226
    1UNL    H23   64   0.491  -0.194   0.190
    1UNL    H24   65   0.342   0.200  -0.110
    1UNL    H25   66   0.290   0.254  -0.328
    1UNL    H26   67   0.216   0.205  -0.516
    1UNL    H27   68   0.212  -0.150  -0.420
    1UNL    H28   69   0.292  -0.212  -0.198
    1UNL    H29   70   0.444  -0.417   0.044
    1UNL    H30   71   0.387  -0.620   0.240
    1UNL    H31   72   0.209  -0.585   0.125
    1UNL    H32   73   0.201  -0.620  -0.112
    1UNL    H33   74   0.208  -0.318  -0.024
    1UNL    H34   75  -0.027  -0.466   0.006
   0.00000   0.00000   0.00000   0.00000   0.00000   0.00000   0.00000   0.00000   0.00000
Generated with MDTraj, t= 59.0
 75
    1UNL     C1    1  -0.119   0.059  -0.196
    1UNL     C2    2  -0.118   0.054  -0.064
    1UNL     C3    3  -0.228   0.106   0.038
    1UNL     O1    4  -0.299   0.215  -0.015
    1UNL     C4    5  -0.426   0.220   0.047
    1UNL     O2    6  -0.472   0.144   0.130
    1UNL     C5    7  -0.526   0.313  -0.017
    1UNL     C6    8  -0.489   0.394  -0.125
    1UNL     C7    9  -0.584   0.461  -0.201
    1UNL     C8   10  -0.719   0.456  -0.166
    1UNL     O3   11  -0.813   0.521  -0.244
    1UNL     C9   12  -0.756   0.386  -0.053
    1UNL    C10   13  -0.658   0.320   0.024
    1UNL    C11   14  -0.152   0.139   0.166
    1UNL    C12   15  -0.002   0.094   0.154
    1UNL    C13   16   0.085   0.223   0.145
    1UNL    C14   17   0.156   0.255   0.274
    1UNL     O4   18   0.233   0.148   0.323
    1UNL    C15   19   0.004   0.007   0.016
    1UNL    C16   20  -0.014  -0.139   0.050
    1UNL     O5   21   0.105  -0.168   0.133
    1UNL    C17   22   0.104  -0.298   0.168
    1UNL     O6   23   0.200  -0.334   0.270
    1UNL    C18   24   0.327  -0.327   0.214
    1UNL    C19   25   0.375  -0.194   0.164
    1UNL     O7   26   0.348  -0.178   0.032
    1UNL    C20   27   0.354  -0.045   0.002
    1UNL     O8   28   0.370   0.039   0.084
    1UNL    C21   29   0.332  -0.015  -0.136
    1UNL    C22   30   0.329   0.123  -0.175
    1UNL    C23   31   0.285   0.154  -0.302
    1UNL    C24   32   0.260   0.056  -0.396
    1UNL     O9   33   0.239   0.100  -0.522
    1UNL    C25   34   0.276  -0.079  -0.360
    1UNL    C26   35   0.314  -0.114  -0.231
    1UNL    C27   36   0.358  -0.442   0.117
    1UNL    O10   37   0.420  -0.539   0.195
    1UNL    C28   38   0.227  -0.496   0.051
    1UNL    O11   39   0.260  -0.561  -0.079
    1UNL    C29   40   0.133  -0.373   0.033
    1UNL    O12   41   0.016  -0.412  -0.040
    1UNL     H1   42  -0.204   0.111  -0.235
    1UNL     H2   43  -0.035   0.023  -0.247
    1UNL     H3   44  -0.293   0.032   0.070
    1UNL     H4   45  -0.383   0.421  -0.140
    1UNL     H5   46  -0.548   0.516  -0.283
    1UNL     H6   47  -0.900   0.501  -0.200
    1UNL     H7   48  -0.860   0.379  -0.029
    1UNL     H8   49  -0.692   0.267   0.112
    1UNL     H9   50  -0.159   0.252   0.178
    1UNL    H10   51  -0.198   0.095   0.255
    1UNL    H11   52   0.037   0.033   0.237
    1UNL    H12   53   0.028   0.308   0.103
    1UNL    H13   54   0.159   0.194   0.067
    1UNL    H14   55   0.219   0.347   0.274
    1UNL    H15   56   0.077   0.285   0.345
    1UNL    H16   57   0.285   0.114   0.251
    1UNL    H17   58   0.098   0.034  -0.040
    1UNL    H18   59  -0.109  -0.154   0.103
    1UNL    H19   60  -0.015  -0.204  -0.031
    1UNL    H20   61   0.005  -0.319   0.206
    1UNL    H21   62   0.391  -0.350   0.302
    1UNL    H22   63   0.324  -0.119   0.234
    1UNL    H23   64   0.486  -0.191   0.160
    1UNL    H24   65   0.379   0.193  -0.109
    1UNL    H25   66   0.268   0.262  -0.335
    1UNL    H26   67   0.272   0.188  -0.533
    1UNL    H27   68   0.261  -0.160  -0.432
    1UNL    H28   69   0.329  -0.215  -0.200
    1UNL    H29   70   0.428  -0.413   0.032
    1UNL    H30   71   0.368  -0.572   0.268
    1UNL    H31   72   0.180  -0.576   0.113
    1UNL    H32   73   0.179  -0.589  -0.127
    1UNL    H33   74   0.177  -0.307  -0.040
    1UNL    H34   75  -0.050  -0.459   0.022
   0.00000   0.00000   0.00000   0.00000   0.00000   0.00000   0.00000   0.00000   0.00000
Generated with MDTraj, t= 60.0
 75
    1UNL     C1    1  -0.126   0.052  -0.205
    1UNL     C2    2  -0.117   0.056  -0.072
    1UNL     C3    3  -0.232   0.103   0.024
    1UNL     O1    4  -0.320   0.187  -0.045
    1UNL     C4    5  -0.419   0.216   0.045
    1UNL     O2    6  -0.437   0.173   0.157
    1UNL     C5    7  -0.524   0.300  -0.017
    1UNL     C6    8  -0.488   0.364  -0.138
    1UNL     C7    9  -0.582   0.444  -0.197
    1UNL     C8   10  -0.709   0.455  -0.143
    1UNL     O3   11  -0.803   0.529  -0.210
    1UNL     C9   12  -0.748   0.372  -0.047
    1UNL    C10   13  -0.655   0.291   0.016
    1UNL    C11   14  -0.162   0.165   0.143
    1UNL    C12   15  -0.016   0.109   0.146
    1UNL    C13   16   0.083   0.237   0.160
    1UNL    C14   17   0.156   0.236   0.291
    1UNL     O4   18   0.228   0.116   0.309
    1UNL    C15   19  -0.002   0.026   0.014
    1UNL    C16   20   0.007  -0.126   0.040
    1UNL     O5   21   0.081  -0.156   0.157
    1UNL    C17   22   0.096  -0.294   0.170
    1UNL     O6   23   0.184  -0.332   0.278
    1UNL    C18   24   0.321  -0.330   0.229
    1UNL    C19   25   0.372  -0.193   0.173
    1UNL     O7   26   0.347  -0.172   0.041
    1UNL    C20   27   0.358  -0.041   0.011
    1UNL     O8   28   0.376   0.047   0.089
    1UNL    C21   29   0.333  -0.002  -0.136
    1UNL    C22   30   0.325   0.133  -0.184
    1UNL    C23   31   0.289   0.157  -0.312
    1UNL    C24   32   0.284   0.049  -0.413
    1UNL     O9   33   0.249   0.079  -0.546
    1UNL    C25   34   0.295  -0.080  -0.364
    1UNL    C26   35   0.314  -0.103  -0.231
    1UNL    C27   36   0.348  -0.447   0.124
    1UNL    O10   37   0.415  -0.560   0.174
    1UNL    C28   38   0.221  -0.488   0.056
    1UNL    O11   39   0.244  -0.539  -0.077
    1UNL    C29   40   0.133  -0.365   0.038
    1UNL    O12   41   0.024  -0.402  -0.037
    1UNL     H1   42  -0.233   0.060  -0.240
    1UNL     H2   43  -0.042   0.044  -0.269
    1UNL     H3   44  -0.281   0.014   0.048
    1UNL     H4   45  -0.386   0.379  -0.162
    1UNL     H5   46  -0.559   0.507  -0.290
    1UNL     H6   47  -0.892   0.517  -0.169
    1UNL     H7   48  -0.855   0.364  -0.027
    1UNL     H8   49  -0.692   0.225   0.093
    1UNL     H9   50  -0.160   0.274   0.122
    1UNL    H10   51  -0.226   0.148   0.232
    1UNL    H11   52  -0.021   0.040   0.230
    1UNL    H12   53   0.017   0.324   0.148
    1UNL    H13   54   0.153   0.242   0.068
    1UNL    H14   55   0.219   0.328   0.286
    1UNL    H15   56   0.096   0.253   0.381
    1UNL    H16   57   0.287   0.096   0.231
    1UNL    H17   58   0.091   0.060  -0.043
    1UNL    H18   59  -0.094  -0.166   0.064
    1UNL    H19   60   0.035  -0.175  -0.051
    1UNL    H20   61  -0.006  -0.324   0.197
    1UNL    H21   62   0.392  -0.353   0.309
    1UNL    H22   63   0.331  -0.102   0.229
    1UNL    H23   64   0.484  -0.200   0.185
    1UNL    H24   65   0.343   0.215  -0.112
    1UNL    H25   66   0.271   0.251  -0.349
    1UNL    H26   67   0.290   0.161  -0.581
    1UNL    H27   68   0.280  -0.152  -0.440
    1UNL    H28   69   0.319  -0.209  -0.206
    1UNL    H29   70   0.419  -0.398   0.047
    1UNL    H30   71   0.362  -0.615   0.235
    1UNL    H31   72   0.158  -0.561   0.118
    1UNL    H32   73   0.170  -0.508  -0.130
    1UNL    H33   74   0.193  -0.302  -0.027
    1UNL    H34   75  -0.025  -0.461   0.027
   0.00000   0.00000   0.00000   0.00000   0.00000   0.00000   0.00000   0.00000   0.00000
Generated with MDTraj, t= 61.0
 75
    1UNL     C1    1  -0.108   0.057  -0.207
    1UNL     C2    2  -0.110   0.056  -0.075
    1UNL     C3    3  -0.226   0.110   0.015
    1UNL     O1    4  -0.317   0.197  -0.052
    1UNL     C4    5  -0.431   0.214   0.025
    1UNL     O2    6  -0.448   0.176   0.140
    1UNL     C5    7  -0.546   0.287  -0.042
    1UNL     C6    8  -0.519   0.370  -0.155
    1UNL     C7    9  -0.615   0.459  -0.205
    1UNL     C8   10  -0.738   0.471  -0.139
    1UNL     O3   11  -0.838   0.550  -0.193
    1UNL     C9   12  -0.764   0.393  -0.025
    1UNL    C10   13  -0.670   0.300   0.025
    1UNL    C11   14  -0.160   0.176   0.134
    1UNL    C12   15  -0.015   0.122   0.143
    1UNL    C13   16   0.097   0.229   0.160
    1UNL    C14   17   0.152   0.230   0.303
    1UNL     O4   18   0.219   0.111   0.332
    1UNL    C15   19  -0.004   0.029   0.022
    1UNL    C16   20  -0.003  -0.117   0.071
    1UNL     O5   21   0.100  -0.153   0.153
    1UNL    C17   22   0.113  -0.296   0.163
    1UNL     O6   23   0.190  -0.336   0.275
    1UNL    C18   24   0.333  -0.339   0.236
    1UNL    C19   25   0.373  -0.194   0.181
    1UNL     O7   26   0.366  -0.182   0.040
    1UNL    C20   27   0.357  -0.048   0.010
    1UNL     O8   28   0.366   0.039   0.090
    1UNL    C21   29   0.328  -0.017  -0.134
    1UNL    C22   30   0.324   0.114  -0.187
    1UNL    C23   31   0.307   0.141  -0.320
    1UNL    C24   32   0.295   0.044  -0.415
    1UNL     O9   33   0.264   0.071  -0.545
    1UNL    C25   34   0.300  -0.086  -0.368
    1UNL    C26   35   0.311  -0.115  -0.236
    1UNL    C27   36   0.367  -0.446   0.126
    1UNL    O10   37   0.416  -0.565   0.175
    1UNL    C28   38   0.240  -0.477   0.047
    1UNL    O11   39   0.249  -0.556  -0.068
    1UNL    C29   40   0.145  -0.361   0.025
    1UNL    O12   41   0.031  -0.399  -0.043
    1UNL     H1   42  -0.191   0.101  -0.253
    1UNL     H2   43  -0.027   0.003  -0.253
    1UNL     H3   44  -0.282   0.024   0.047
    1UNL     H4   45  -0.415   0.393  -0.188
    1UNL     H5   46  -0.587   0.542  -0.257
    1UNL     H6   47  -0.922   0.532  -0.145
    1UNL     H7   48  -0.856   0.401   0.031
    1UNL     H8   49  -0.677   0.260   0.126
    1UNL     H9   50  -0.164   0.283   0.125
    1UNL    H10   51  -0.211   0.141   0.230
    1UNL    H11   52  -0.015   0.051   0.225
    1UNL    H12   53   0.052   0.330   0.141
    1UNL    H13   54   0.175   0.216   0.076
    1UNL    H14   55   0.225   0.311   0.323
    1UNL    H15   56   0.068   0.262   0.366
    1UNL    H16   57   0.277   0.088   0.250
    1UNL    H17   58   0.098   0.051  -0.023
    1UNL    H18   59  -0.099  -0.128   0.125
    1UNL    H19   60  -0.007  -0.182  -0.014
    1UNL    H20   61   0.007  -0.319   0.183
    1UNL    H21   62   0.384  -0.359   0.330
    1UNL    H22   63   0.299  -0.120   0.229
    1UNL    H23   64   0.476  -0.156   0.202
    1UNL    H24   65   0.344   0.185  -0.112
    1UNL    H25   66   0.308   0.251  -0.344
    1UNL    H26   67   0.297   0.160  -0.583
    1UNL    H27   68   0.290  -0.161  -0.451
    1UNL    H28   69   0.334  -0.211  -0.199
    1UNL    H29   70   0.442  -0.399   0.051
    1UNL    H30   71   0.346  -0.615   0.226
    1UNL    H31   72   0.190  -0.552   0.119
    1UNL    H32   73   0.177  -0.531  -0.133
    1UNL    H33   74   0.192  -0.297  -0.048
    1UNL    H34   75  -0.021  -0.461   0.008
   0.00000   0.00000   0.00000   0.00000   0.00000   0.00000   0.00000   0.00000   0.00000
Generated with MDTraj, t= 62.0
 75
    1UNL     C1    1  -0.123   0.060  -0.198
    1UNL     C2    2  -0.125   0.067  -0.068
    1UNL     C3    3  -0.233   0.128   0.018
    1UNL     O1    4  -0.312   0.232  -0.048
    1UNL     C4    5  -0.436   0.230   0.005
    1UNL     O2    6  -0.472   0.145   0.085
    1UNL     C5    7  -0.545   0.319  -0.047
    1UNL     C6    8  -0.542   0.381  -0.170
    1UNL     C7    9  -0.645   0.466  -0.209
    1UNL     C8   10  -0.758   0.481  -0.129
    1UNL     O3   11  -0.871   0.545  -0.176
    1UNL     C9   12  -0.763   0.416  -0.004
    1UNL    C10   13  -0.657   0.336   0.033
    1UNL    C11   14  -0.161   0.178   0.140
    1UNL    C12   15  -0.017   0.117   0.151
    1UNL    C13   16   0.083   0.231   0.161
    1UNL    C14   17   0.153   0.242   0.299
    1UNL     O4   18   0.226   0.125   0.338
    1UNL    C15   19  -0.005   0.031   0.022
    1UNL    C16   20  -0.013  -0.119   0.062
    1UNL     O5   21   0.090  -0.155   0.147
    1UNL    C17   22   0.118  -0.302   0.168
    1UNL     O6   23   0.213  -0.344   0.263
    1UNL    C18   24   0.351  -0.338   0.225
    1UNL    C19   25   0.398  -0.203   0.175
    1UNL     O7   26   0.369  -0.195   0.038
    1UNL    C20   27   0.346  -0.064   0.008
    1UNL     O8   28   0.337   0.022   0.092
    1UNL    C21   29   0.331  -0.029  -0.136
    1UNL    C22   30   0.331   0.104  -0.176
    1UNL    C23   31   0.328   0.138  -0.312
    1UNL    C24   32   0.304   0.033  -0.404
    1UNL     O9   33   0.273   0.061  -0.531
    1UNL    C25   34   0.307  -0.109  -0.358
    1UNL    C26   35   0.331  -0.136  -0.230
    1UNL    C27   36   0.378  -0.452   0.120
    1UNL    O10   37   0.434  -0.556   0.195
    1UNL    C28   38   0.245  -0.493   0.042
    1UNL    O11   39   0.277  -0.558  -0.080
    1UNL    C29   40   0.150  -0.360   0.025
    1UNL    O12   41   0.036  -0.402  -0.044
    1UNL     H1   42  -0.207   0.096  -0.252
    1UNL     H2   43  -0.031   0.004  -0.234
    1UNL     H3   44  -0.294   0.044   0.051
    1UNL     H4   45  -0.453   0.393  -0.224
    1UNL     H5   46  -0.640   0.525  -0.305
    1UNL     H6   47  -0.947   0.558  -0.116
    1UNL     H7   48  -0.855   0.416   0.050
    1UNL     H8   49  -0.653   0.281   0.125
    1UNL     H9   50  -0.157   0.284   0.140
    1UNL    H10   51  -0.215   0.157   0.239
    1UNL    H11   52  -0.009   0.056   0.241
    1UNL    H12   53   0.038   0.329   0.120
    1UNL    H13   54   0.170   0.208   0.090
    1UNL    H14   55   0.209   0.336   0.300
    1UNL    H15   56   0.082   0.255   0.381
    1UNL    H16   57   0.265   0.089   0.261
    1UNL    H17   58   0.090   0.059  -0.034
    1UNL    H18   59  -0.110  -0.149   0.105
    1UNL    H19   60  -0.004  -0.174  -0.030
    1UNL    H20   61   0.019  -0.330   0.213
    1UNL    H21   62   0.409  -0.374   0.310
    1UNL    H22   63   0.341  -0.115   0.219
    1UNL    H23   64   0.502  -0.183   0.194
    1UNL    H24   65   0.359   0.179  -0.101
    1UNL    H25   66   0.341   0.239  -0.344
    1UNL    H26   67   0.267   0.161  -0.552
    1UNL    H27   68   0.312  -0.177  -0.437
    1UNL    H28   69   0.361  -0.242  -0.204
    1UNL    H29   70   0.461  -0.434   0.039
    1UNL    H30   71   0.370  -0.575   0.271
    1UNL    H31   72   0.193  -0.565   0.114
    1UNL    H32   73   0.198  -0.541  -0.137
    1UNL    H33   74   0.202  -0.285  -0.034
    1UNL    H34   75  -0.028  -0.456   0.006
   0.00000   0.00000   0.00000   0.00000   0.00000   0.00000   0.00000   0.00000   0.00000
Generated with MDTraj, t= 63.0
 75
    1UNL     C1    1  -0.140   0.061  -0.201
    1UNL     C2    2  -0.134   0.064  -0.068
    1UNL     C3    3  -0.235   0.120   0.027
    1UNL     O1    4  -0.311   0.231  -0.034
    1UNL     C4    5  -0.440   0.224   0.012
    1UNL     O2    6  -0.487   0.131   0.073
    1UNL     C5    7  -0.537   0.321  -0.033
    1UNL     C6    8  -0.536   0.371  -0.163
    1UNL     C7    9  -0.643   0.449  -0.206
    1UNL     C8   10  -0.752   0.482  -0.123
    1UNL     O3   11  -0.854   0.557  -0.171
    1UNL     C9   12  -0.752   0.425   0.005
    1UNL    C10   13  -0.645   0.354   0.045
    1UNL    C11   14  -0.170   0.171   0.160
    1UNL    C12   15  -0.022   0.120   0.154
    1UNL    C13   16   0.078   0.235   0.152
    1UNL    C14   17   0.145   0.250   0.287
    1UNL     O4   18   0.208   0.134   0.324
    1UNL    C15   19  -0.017   0.022   0.019
    1UNL    C16   20  -0.003  -0.131   0.040
    1UNL     O5   21   0.099  -0.163   0.132
    1UNL    C17   22   0.110  -0.306   0.162
    1UNL     O6   23   0.200  -0.341   0.261
    1UNL    C18   24   0.334  -0.341   0.229
    1UNL    C19   25   0.389  -0.203   0.193
    1UNL     O7   26   0.390  -0.181   0.047
    1UNL    C20   27   0.368  -0.049   0.010
    1UNL     O8   28   0.345   0.040   0.089
    1UNL    C21   29   0.350  -0.023  -0.134
    1UNL    C22   30   0.314   0.101  -0.178
    1UNL    C23   31   0.303   0.125  -0.313
    1UNL    C24   32   0.305   0.023  -0.411
    1UNL     O9   33   0.302   0.046  -0.553
    1UNL    C25   34   0.304  -0.101  -0.360
    1UNL    C26   35   0.341  -0.129  -0.230
    1UNL    C27   36   0.366  -0.457   0.138
    1UNL    O10   37   0.431  -0.563   0.202
    1UNL    C28   38   0.238  -0.502   0.049
    1UNL    O11   39   0.288  -0.542  -0.079
    1UNL    C29   40   0.151  -0.369   0.025
    1UNL    O12   41   0.045  -0.386  -0.064
    1UNL     H1   42  -0.234   0.083  -0.249
    1UNL     H2   43  -0.050   0.042  -0.251
    1UNL     H3   44  -0.303   0.031   0.031
    1UNL     H4   45  -0.443   0.371  -0.224
    1UNL     H5   46  -0.651   0.482  -0.309
    1UNL     H6   47  -0.927   0.565  -0.106
    1UNL     H7   48  -0.836   0.424   0.075
    1UNL     H8   49  -0.647   0.295   0.138
    1UNL     H9   50  -0.173   0.277   0.159
    1UNL    H10   51  -0.227   0.147   0.256
    1UNL    H11   52   0.012   0.056   0.236
    1UNL    H12   53   0.038   0.337   0.113
    1UNL    H13   54   0.154   0.207   0.072
    1UNL    H14   55   0.226   0.324   0.284
    1UNL    H15   56   0.077   0.288   0.365
    1UNL    H16   57   0.253   0.092   0.240
    1UNL    H17   58   0.073   0.057  -0.040
    1UNL    H18   59  -0.101  -0.176   0.064
    1UNL    H19   60   0.025  -0.174  -0.055
    1UNL    H20   61   0.006  -0.344   0.190
    1UNL    H21   62   0.377  -0.361   0.330
    1UNL    H22   63   0.318  -0.132   0.242
    1UNL    H23   64   0.485  -0.169   0.224
    1UNL    H24   65   0.306   0.171  -0.098
    1UNL    H25   66   0.283   0.226  -0.342
    1UNL    H26   67   0.290   0.144  -0.574
    1UNL    H27   68   0.292  -0.188  -0.424
    1UNL    H28   69   0.361  -0.226  -0.202
    1UNL    H29   70   0.439  -0.417   0.056
    1UNL    H30   71   0.360  -0.600   0.263
    1UNL    H31   72   0.179  -0.581   0.106
    1UNL    H32   73   0.218  -0.528  -0.143
    1UNL    H33   74   0.229  -0.308  -0.022
    1UNL    H34   75  -0.023  -0.449  -0.022
   0.00000   0.00000   0.00000   0.00000   0.00000   0.00000   0.00000   0.00000   0.00000
Generated with MDTraj, t= 64.0
 75
    1UNL     C1    1  -0.141   0.058  -0.209
    1UNL     C2    2  -0.131   0.060  -0.077
    1UNL     C3    3  -0.245   0.093   0.023
    1UNL     O1    4  -0.329   0.199  -0.026
    1UNL     C4    5  -0.451   0.203   0.038
    1UNL     O2    6  -0.481   0.127   0.128
    1UNL     C5    7  -0.551   0.299  -0.019
    1UNL     C6    8  -0.530   0.355  -0.148
    1UNL     C7    9  -0.618   0.439  -0.204
    1UNL     C8   10  -0.724   0.487  -0.121
    1UNL     O3   11  -0.807   0.587  -0.174
    1UNL     C9   12  -0.746   0.431   0.009
    1UNL    C10   13  -0.658   0.338   0.061
    1UNL    C11   14  -0.168   0.139   0.152
    1UNL    C12   15  -0.019   0.102   0.131
    1UNL    C13   16   0.074   0.229   0.139
    1UNL    C14   17   0.143   0.256   0.277
    1UNL     O4   18   0.217   0.150   0.323
    1UNL    C15   19  -0.011   0.015  -0.002
    1UNL    C16   20  -0.013  -0.124   0.029
    1UNL     O5   21   0.087  -0.158   0.116
    1UNL    C17   22   0.097  -0.300   0.141
    1UNL     O6   23   0.180  -0.319   0.257
    1UNL    C18   24   0.322  -0.327   0.247
    1UNL    C19   25   0.370  -0.187   0.200
    1UNL     O7   26   0.335  -0.162   0.057
    1UNL    C20   27   0.356  -0.037   0.011
    1UNL     O8   28   0.360   0.063   0.089
    1UNL    C21   29   0.350  -0.026  -0.139
    1UNL    C22   30   0.323   0.101  -0.184
    1UNL    C23   31   0.306   0.120  -0.314
    1UNL    C24   32   0.311   0.019  -0.408
    1UNL     O9   33   0.289   0.031  -0.542
    1UNL    C25   34   0.347  -0.111  -0.362
    1UNL    C26   35   0.375  -0.129  -0.222
    1UNL    C27   36   0.365  -0.438   0.144
    1UNL    O10   37   0.415  -0.560   0.202
    1UNL    C28   38   0.241  -0.484   0.044
    1UNL    O11   39   0.296  -0.534  -0.074
    1UNL    C29   40   0.148  -0.366   0.009
    1UNL    O12   41   0.051  -0.389  -0.090
    1UNL     H1   42  -0.229   0.109  -0.256
    1UNL     H2   43  -0.054   0.026  -0.262
    1UNL     H3   44  -0.314   0.002   0.031
    1UNL     H4   45  -0.440   0.338  -0.197
    1UNL     H5   46  -0.606   0.487  -0.295
    1UNL     H6   47  -0.892   0.598  -0.127
    1UNL     H7   48  -0.838   0.453   0.057
    1UNL     H8   49  -0.648   0.306   0.161
    1UNL     H9   50  -0.184   0.242   0.176
    1UNL    H10   51  -0.205   0.088   0.245
    1UNL    H11   52   0.011   0.028   0.207
    1UNL    H12   53   0.003   0.316   0.106
    1UNL    H13   54   0.151   0.232   0.057
    1UNL    H14   55   0.199   0.350   0.287
    1UNL    H15   56   0.063   0.260   0.353
    1UNL    H16   57   0.268   0.115   0.245
    1UNL    H17   58   0.087   0.029  -0.057
    1UNL    H18   59  -0.108  -0.147   0.082
    1UNL    H19   60  -0.015  -0.184  -0.063
    1UNL    H20   61  -0.008  -0.343   0.159
    1UNL    H21   62   0.369  -0.352   0.346
    1UNL    H22   63   0.327  -0.098   0.246
    1UNL    H23   64   0.473  -0.184   0.221
    1UNL    H24   65   0.306   0.181  -0.110
    1UNL    H25   66   0.274   0.219  -0.352
    1UNL    H26   67   0.275   0.126  -0.566
    1UNL    H27   68   0.346  -0.190  -0.435
    1UNL    H28   69   0.418  -0.225  -0.191
    1UNL    H29   70   0.447  -0.405   0.071
    1UNL    H30   71   0.350  -0.607   0.260
    1UNL    H31   72   0.182  -0.559   0.102
    1UNL    H32   73   0.237  -0.509  -0.153
    1UNL    H33   74   0.216  -0.295  -0.040
    1UNL    H34   75  -0.005  -0.468  -0.062
   0.00000   0.00000   0.00000   0.00000   0.00000   0.00000   0.00000   0.00000   0.00000
Generated with MDTraj, t= 65.0
 75
    1UNL     C1    1  -0.172   0.071  -0.219
    1UNL     C2    2  -0.152   0.050  -0.089
    1UNL     C3    3  -0.252   0.081   0.019
    1UNL     O1    4  -0.344   0.175  -0.030
    1UNL     C4    5  -0.447   0.202   0.052
    1UNL     O2    6  -0.462   0.152   0.163
    1UNL     C5    7  -0.548   0.292  -0.005
    1UNL     C6    8  -0.518   0.342  -0.130
    1UNL     C7    9  -0.591   0.444  -0.174
    1UNL     C8   10  -0.701   0.503  -0.109
    1UNL     O3   11  -0.777   0.599  -0.169
    1UNL     C9   12  -0.737   0.431   0.008
    1UNL    C10   13  -0.665   0.328   0.059
    1UNL    C11   14  -0.173   0.130   0.147
    1UNL    C12   15  -0.021   0.096   0.113
    1UNL    C13   16   0.066   0.225   0.119
    1UNL    C14   17   0.109   0.261   0.257
    1UNL     O4   18   0.201   0.165   0.313
    1UNL    C15   19  -0.021   0.009  -0.021
    1UNL    C16   20  -0.019  -0.138   0.003
    1UNL     O5   21   0.053  -0.171   0.123
    1UNL    C17   22   0.089  -0.312   0.136
    1UNL     O6   23   0.175  -0.337   0.252
    1UNL    C18   24   0.310  -0.317   0.238
    1UNL    C19   25   0.327  -0.170   0.188
    1UNL     O7   26   0.379  -0.166   0.057
    1UNL    C20   27   0.373  -0.035   0.013
    1UNL     O8   28   0.362   0.064   0.091
    1UNL    C21   29   0.357  -0.015  -0.133
    1UNL    C22   30   0.323   0.110  -0.186
    1UNL    C23   31   0.299   0.127  -0.321
    1UNL    C24   32   0.319   0.011  -0.399
    1UNL     O9   33   0.301   0.019  -0.542
    1UNL    C25   34   0.358  -0.111  -0.347
    1UNL    C26   35   0.378  -0.130  -0.211
    1UNL    C27   36   0.365  -0.423   0.144
    1UNL    O10   37   0.407  -0.533   0.216
    1UNL    C28   38   0.258  -0.469   0.039
    1UNL    O11   39   0.314  -0.526  -0.076
    1UNL    C29   40   0.148  -0.368   0.006
    1UNL    O12   41   0.058  -0.423  -0.083
    1UNL     H1   42  -0.256   0.124  -0.252
    1UNL     H2   43  -0.091   0.050  -0.285
    1UNL     H3   44  -0.312  -0.014   0.047
    1UNL     H4   45  -0.419   0.310  -0.173
    1UNL     H5   46  -0.556   0.499  -0.270
    1UNL     H6   47  -0.860   0.613  -0.116
    1UNL     H7   48  -0.826   0.458   0.067
    1UNL     H8   49  -0.683   0.292   0.162
    1UNL     H9   50  -0.186   0.237   0.163
    1UNL    H10   51  -0.210   0.084   0.241
    1UNL    H11   52   0.016   0.029   0.194
    1UNL    H12   53   0.015   0.318   0.071
    1UNL    H13   54   0.162   0.207   0.060
    1UNL    H14   55   0.162   0.357   0.250
    1UNL    H15   56   0.022   0.278   0.323
    1UNL    H16   57   0.260   0.131   0.247
    1UNL    H17   58   0.069   0.037  -0.081
    1UNL    H18   59  -0.125  -0.170   0.015
    1UNL    H19   60   0.014  -0.196  -0.083
    1UNL    H20   61  -0.016  -0.354   0.161
    1UNL    H21   62   0.362  -0.321   0.336
    1UNL    H22   63   0.225  -0.129   0.183
    1UNL    H23   64   0.386  -0.095   0.236
    1UNL    H24   65   0.315   0.196  -0.126
    1UNL    H25   66   0.259   0.214  -0.360
    1UNL    H26   67   0.316   0.108  -0.575
    1UNL    H27   68   0.379  -0.202  -0.403
    1UNL    H28   69   0.413  -0.220  -0.160
    1UNL    H29   70   0.447  -0.385   0.074
    1UNL    H30   71   0.339  -0.571   0.271
    1UNL    H31   72   0.199  -0.546   0.093
    1UNL    H32   73   0.262  -0.512  -0.159
    1UNL    H33   74   0.193  -0.285  -0.049
    1UNL    H34   75   0.021  -0.507  -0.049
   0.00000   0.00000   0.00000   0.00000   0.00000   0.00000   0.00000   0.00000   0.00000
Generated with MDTraj, t= 66.0
 75
    1UNL     C1    1  -0.180   0.034  -0.227
    1UNL     C2    2  -0.168   0.025  -0.095
    1UNL     C3    3  -0.265   0.072   0.007
    1UNL     O1    4  -0.337   0.189  -0.032
    1UNL     C4    5  -0.443   0.221   0.050
    1UNL     O2    6  -0.458   0.152   0.150
    1UNL     C5    7  -0.536   0.318   0.001
    1UNL     C6    8  -0.507   0.381  -0.120
    1UNL     C7    9  -0.589   0.481  -0.159
    1UNL     C8   10  -0.708   0.511  -0.092
    1UNL     O3   11  -0.797   0.601  -0.153
    1UNL     C9   12  -0.736   0.446   0.026
    1UNL    C10   13  -0.647   0.356   0.077
    1UNL    C11   14  -0.185   0.105   0.141
    1UNL    C12   15  -0.035   0.074   0.105
    1UNL    C13   16   0.052   0.199   0.084
    1UNL    C14   17   0.091   0.264   0.212
    1UNL     O4   18   0.171   0.172   0.293
    1UNL    C15   19  -0.038  -0.013  -0.021
    1UNL    C16   20  -0.029  -0.159   0.013
    1UNL     O5   21   0.078  -0.178   0.108
    1UNL    C17   22   0.093  -0.311   0.131
    1UNL     O6   23   0.169  -0.346   0.251
    1UNL    C18   24   0.308  -0.317   0.251
    1UNL    C19   25   0.330  -0.172   0.197
    1UNL     O7   26   0.340  -0.172   0.060
    1UNL    C20   27   0.337  -0.043   0.018
    1UNL     O8   28   0.337   0.052   0.101
    1UNL    C21   29   0.338  -0.013  -0.125
    1UNL    C22   30   0.330   0.112  -0.181
    1UNL    C23   31   0.332   0.127  -0.326
    1UNL    C24   32   0.346   0.012  -0.407
    1UNL     O9   33   0.305   0.005  -0.540
    1UNL    C25   34   0.374  -0.109  -0.343
    1UNL    C26   35   0.360  -0.115  -0.209
    1UNL    C27   36   0.374  -0.421   0.157
    1UNL    O10   37   0.440  -0.519   0.219
    1UNL    C28   38   0.272  -0.475   0.050
    1UNL    O11   39   0.345  -0.517  -0.068
    1UNL    C29   40   0.170  -0.364   0.009
    1UNL    O12   41   0.080  -0.413  -0.088
    1UNL     H1   42  -0.275   0.048  -0.273
    1UNL     H2   43  -0.091   0.036  -0.296
    1UNL     H3   44  -0.352  -0.003   0.030
    1UNL     H4   45  -0.410   0.365  -0.156
    1UNL     H5   46  -0.574   0.538  -0.244
    1UNL     H6   47  -0.879   0.619  -0.099
    1UNL     H7   48  -0.816   0.490   0.079
    1UNL     H8   49  -0.660   0.317   0.174
    1UNL     H9   50  -0.195   0.215   0.160
    1UNL    H10   51  -0.224   0.053   0.228
    1UNL    H11   52  -0.002   0.020   0.199
    1UNL    H12   53   0.007   0.276   0.015
    1UNL    H13   54   0.153   0.164   0.041
    1UNL    H14   55   0.153   0.356   0.197
    1UNL    H15   56  -0.003   0.292   0.264
    1UNL    H16   57   0.242   0.126   0.231
    1UNL    H17   58   0.050   0.017  -0.081
    1UNL    H18   59  -0.123  -0.206   0.049
    1UNL    H19   60  -0.005  -0.213  -0.080
    1UNL    H20   61  -0.011  -0.360   0.137
    1UNL    H21   62   0.354  -0.328   0.350
    1UNL    H22   63   0.245  -0.100   0.212
    1UNL    H23   64   0.425  -0.132   0.236
    1UNL    H24   65   0.328   0.205  -0.121
    1UNL    H25   66   0.318   0.226  -0.376
    1UNL    H26   67   0.345   0.081  -0.580
    1UNL    H27   68   0.409  -0.190  -0.401
    1UNL    H28   69   0.386  -0.207  -0.163
    1UNL    H29   70   0.453  -0.371   0.093
    1UNL    H30   71   0.381  -0.582   0.260
    1UNL    H31   72   0.218  -0.555   0.099
    1UNL    H32   73   0.293  -0.505  -0.147
    1UNL    H33   74   0.230  -0.292  -0.048
    1UNL    H34   75   0.042  -0.494  -0.056
   0.00000   0.00000   0.00000   0.00000   0.00000   0.00000   0.00000   0.00000   0.00000
Generated with MDTraj, t= 67.0
 75
    1UNL     C1    1  -0.205  -0.033  -0.220
    1UNL     C2    2  -0.176  -0.001  -0.094
    1UNL     C3    3  -0.275   0.071   0.001
    1UNL     O1    4  -0.330   0.193  -0.047
    1UNL     C4    5  -0.431   0.237   0.033
    1UNL     O2    6  -0.467   0.170   0.131
    1UNL     C5    7  -0.521   0.350  -0.005
    1UNL     C6    8  -0.506   0.429  -0.122
    1UNL     C7    9  -0.601   0.521  -0.153
    1UNL     C8   10  -0.720   0.536  -0.075
    1UNL     O3   11  -0.823   0.620  -0.117
    1UNL     C9   12  -0.729   0.455   0.045
    1UNL    C10   13  -0.632   0.369   0.081
    1UNL    C11   14  -0.190   0.097   0.132
    1UNL    C12   15  -0.045   0.068   0.096
    1UNL    C13   16   0.027   0.200   0.063
    1UNL    C14   17   0.058   0.275   0.195
    1UNL     O4   18   0.142   0.199   0.275
    1UNL    C15   19  -0.047  -0.027  -0.023
    1UNL    C16   20  -0.041  -0.181   0.012
    1UNL     O5   21   0.048  -0.208   0.118
    1UNL    C17   22   0.093  -0.340   0.130
    1UNL     O6   23   0.172  -0.360   0.252
    1UNL    C18   24   0.313  -0.321   0.249
    1UNL    C19   25   0.350  -0.173   0.213
    1UNL     O7   26   0.367  -0.156   0.075
    1UNL    C20   27   0.345  -0.031   0.026
    1UNL     O8   28   0.330   0.075   0.092
    1UNL    C21   29   0.338  -0.021  -0.126
    1UNL    C22   30   0.318   0.107  -0.180
    1UNL    C23   31   0.325   0.121  -0.318
    1UNL    C24   32   0.348   0.014  -0.399
    1UNL     O9   33   0.361   0.024  -0.539
    1UNL    C25   34   0.363  -0.116  -0.352
    1UNL    C26   35   0.355  -0.131  -0.216
    1UNL    C27   36   0.395  -0.416   0.159
    1UNL    O10   37   0.456  -0.514   0.231
    1UNL    C28   38   0.297  -0.479   0.048
    1UNL    O11   39   0.370  -0.527  -0.070
    1UNL    C29   40   0.177  -0.386   0.010
    1UNL    O12   41   0.101  -0.447  -0.096
    1UNL     H1   42  -0.289   0.006  -0.274
    1UNL     H2   43  -0.152  -0.104  -0.275
    1UNL     H3   44  -0.374   0.009   0.026
    1UNL     H4   45  -0.418   0.410  -0.185
    1UNL     H5   46  -0.591   0.570  -0.250
    1UNL     H6   47  -0.885   0.623  -0.041
    1UNL     H7   48  -0.822   0.457   0.101
    1UNL     H8   49  -0.631   0.324   0.183
    1UNL     H9   50  -0.198   0.201   0.177
    1UNL    H10   51  -0.221   0.025   0.205
    1UNL    H11   52   0.008   0.012   0.179
    1UNL    H12   53  -0.046   0.256   0.002
    1UNL    H13   54   0.118   0.176  -0.002
    1UNL    H14   55   0.096   0.378   0.180
    1UNL    H15   56  -0.031   0.275   0.262
    1UNL    H16   57   0.211   0.162   0.221
    1UNL    H17   58   0.039  -0.006  -0.087
    1UNL    H18   59  -0.143  -0.211   0.045
    1UNL    H19   60  -0.018  -0.251  -0.072
    1UNL    H20   61  -0.005  -0.397   0.144
    1UNL    H21   62   0.336  -0.343   0.354
    1UNL    H22   63   0.261  -0.110   0.242
    1UNL    H23   64   0.444  -0.136   0.261
    1UNL    H24   65   0.308   0.197  -0.125
    1UNL    H25   66   0.318   0.220  -0.358
    1UNL    H26   67   0.430   0.089  -0.566
    1UNL    H27   68   0.401  -0.196  -0.416
    1UNL    H28   69   0.379  -0.224  -0.159
    1UNL    H29   70   0.475  -0.357   0.109
    1UNL    H30   71   0.388  -0.568   0.274
    1UNL    H31   72   0.247  -0.555   0.105
    1UNL    H32   73   0.309  -0.509  -0.147
    1UNL    H33   74   0.226  -0.299  -0.035
    1UNL    H34   75   0.074  -0.532  -0.058
   0.00000   0.00000   0.00000   0.00000   0.00000   0.00000   0.00000   0.00000   0.00000
Generated with MDTraj, t= 68.0
 75
    1UNL     C1    1  -0.241  -0.061  -0.222
    1UNL     C2    2  -0.207  -0.022  -0.099
    1UNL     C3    3  -0.293   0.054  -0.005
    1UNL     O1    4  -0.354   0.174  -0.058
    1UNL     C4    5  -0.436   0.230   0.030
    1UNL     O2    6  -0.458   0.179   0.141
    1UNL     C5    7  -0.525   0.341  -0.008
    1UNL     C6    8  -0.509   0.417  -0.118
    1UNL     C7    9  -0.599   0.518  -0.148
    1UNL     C8   10  -0.700   0.549  -0.059
    1UNL     O3   11  -0.781   0.660  -0.084
    1UNL     C9   12  -0.721   0.461   0.047
    1UNL    C10   13  -0.633   0.364   0.073
    1UNL    C11   14  -0.205   0.085   0.125
    1UNL    C12   15  -0.057   0.055   0.085
    1UNL    C13   16   0.020   0.183   0.048
    1UNL    C14   17   0.047   0.274   0.173
    1UNL     O4   18   0.138   0.215   0.261
    1UNL    C15   19  -0.068  -0.042  -0.037
    1UNL    C16   20  -0.044  -0.190   0.023
    1UNL     O5   21   0.058  -0.200   0.112
    1UNL    C17   22   0.109  -0.335   0.131
    1UNL     O6   23   0.184  -0.350   0.257
    1UNL    C18   24   0.322  -0.316   0.252
    1UNL    C19   25   0.341  -0.176   0.206
    1UNL     O7   26   0.328  -0.164   0.068
    1UNL    C20   27   0.323  -0.033   0.021
    1UNL     O8   28   0.296   0.074   0.083
    1UNL    C21   29   0.358  -0.016  -0.121
    1UNL    C22   30   0.342   0.109  -0.183
    1UNL    C23   31   0.347   0.134  -0.318
    1UNL    C24   32   0.367   0.022  -0.398
    1UNL     O9   33   0.364   0.036  -0.535
    1UNL    C25   34   0.390  -0.103  -0.340
    1UNL    C26   35   0.394  -0.128  -0.200
    1UNL    C27   36   0.398  -0.414   0.161
    1UNL    O10   37   0.466  -0.508   0.239
    1UNL    C28   38   0.301  -0.482   0.049
    1UNL    O11   39   0.378  -0.518  -0.067
    1UNL    C29   40   0.188  -0.388   0.011
    1UNL    O12   41   0.091  -0.439  -0.075
    1UNL     H1   42  -0.346  -0.058  -0.264
    1UNL     H2   43  -0.174  -0.113  -0.288
    1UNL     H3   44  -0.386  -0.020   0.011
    1UNL     H4   45  -0.431   0.380  -0.182
    1UNL     H5   46  -0.594   0.560  -0.251
    1UNL     H6   47  -0.840   0.672  -0.007
    1UNL     H7   48  -0.813   0.482   0.098
    1UNL     H8   49  -0.634   0.310   0.164
    1UNL     H9   50  -0.212   0.197   0.137
    1UNL    H10   51  -0.232   0.037   0.217
    1UNL    H11   52   0.006   0.005   0.165
    1UNL    H12   53  -0.040   0.227  -0.033
    1UNL    H13   54   0.114   0.151  -0.006
    1UNL    H14   55   0.113   0.356   0.139
    1UNL    H15   56  -0.043   0.306   0.228
    1UNL    H16   57   0.202   0.159   0.208
    1UNL    H17   58   0.009  -0.018  -0.112
    1UNL    H18   59  -0.128  -0.226   0.087
    1UNL    H19   60  -0.036  -0.268  -0.057
    1UNL    H20   61   0.017  -0.398   0.149
    1UNL    H21   62   0.351  -0.343   0.354
    1UNL    H22   63   0.267  -0.106   0.255
    1UNL    H23   64   0.447  -0.146   0.232
    1UNL    H24   65   0.312   0.198  -0.127
    1UNL    H25   66   0.327   0.223  -0.371
    1UNL    H26   67   0.433   0.102  -0.571
    1UNL    H27   68   0.414  -0.182  -0.408
    1UNL    H28   69   0.421  -0.220  -0.159
    1UNL    H29   70   0.471  -0.355   0.105
    1UNL    H30   71   0.396  -0.560   0.287
    1UNL    H31   72   0.257  -0.568   0.093
    1UNL    H32   73   0.320  -0.519  -0.148
    1UNL    H33   74   0.233  -0.313  -0.056
    1UNL    H34   75   0.054  -0.526  -0.040
   0.00000   0.00000   0.00000   0.00000   0.00000   0.00000   0.00000   0.00000   0.00000
Generated with MDTraj, t= 69.0
 75
    1UNL     C1    1  -0.253  -0.070  -0.217
    1UNL     C2    2  -0.212  -0.033  -0.097
    1UNL     C3    3  -0.307   0.030   0.007
    1UNL     O1    4  -0.388   0.130  -0.043
    1UNL     C4    5  -0.471   0.193   0.046
    1UNL     O2    6  -0.480   0.153   0.163
    1UNL     C5    7  -0.546   0.309   0.005
    1UNL     C6    8  -0.504   0.379  -0.108
    1UNL     C7    9  -0.563   0.500  -0.143
    1UNL     C8   10  -0.662   0.557  -0.057
    1UNL     O3   11  -0.709   0.682  -0.094
    1UNL     C9   12  -0.704   0.488   0.061
    1UNL    C10   13  -0.643   0.368   0.086
    1UNL    C11   14  -0.216   0.080   0.119
    1UNL    C12   15  -0.071   0.055   0.076
    1UNL    C13   16   0.012   0.179   0.025
    1UNL    C14   17   0.052   0.280   0.140
    1UNL     O4   18   0.103   0.209   0.249
    1UNL    C15   19  -0.075  -0.053  -0.036
    1UNL    C16   20  -0.053  -0.196   0.027
    1UNL     O5   21   0.059  -0.190   0.113
    1UNL    C17   22   0.095  -0.327   0.139
    1UNL     O6   23   0.171  -0.350   0.257
    1UNL    C18   24   0.306  -0.304   0.248
    1UNL    C19   25   0.316  -0.161   0.191
    1UNL     O7   26   0.366  -0.154   0.059
    1UNL    C20   27   0.354  -0.024   0.015
    1UNL     O8   28   0.326   0.071   0.091
    1UNL    C21   29   0.366  -0.001  -0.128
    1UNL    C22   30   0.344   0.129  -0.189
    1UNL    C23   31   0.359   0.143  -0.325
    1UNL    C24   32   0.386   0.031  -0.406
    1UNL     O9   33   0.410   0.040  -0.541
    1UNL    C25   34   0.393  -0.095  -0.348
    1UNL    C26   35   0.395  -0.104  -0.213
    1UNL    C27   36   0.383  -0.409   0.161
    1UNL    O10   37   0.461  -0.490   0.245
    1UNL    C28   38   0.289  -0.477   0.050
    1UNL    O11   39   0.360  -0.514  -0.065
    1UNL    C29   40   0.173  -0.384   0.020
    1UNL    O12   41   0.089  -0.434  -0.074
    1UNL     H1   42  -0.352  -0.067  -0.249
    1UNL     H2   43  -0.187  -0.119  -0.286
    1UNL     H3   44  -0.387  -0.050   0.047
    1UNL     H4   45  -0.419   0.343  -0.162
    1UNL     H5   46  -0.549   0.537  -0.237
    1UNL     H6   47  -0.781   0.698  -0.030
    1UNL     H7   48  -0.761   0.537   0.137
    1UNL     H8   49  -0.665   0.331   0.187
    1UNL     H9   50  -0.226   0.188   0.142
    1UNL    H10   51  -0.237   0.026   0.211
    1UNL    H11   52  -0.002   0.019   0.158
    1UNL    H12   53  -0.039   0.229  -0.058
    1UNL    H13   54   0.103   0.142  -0.024
    1UNL    H14   55   0.125   0.353   0.102
    1UNL    H15   56  -0.040   0.319   0.187
    1UNL    H16   57   0.184   0.161   0.215
    1UNL    H17   58   0.004  -0.024  -0.104
    1UNL    H18   59  -0.146  -0.237   0.074
    1UNL    H19   60  -0.024  -0.272  -0.048
    1UNL    H20   61  -0.002  -0.373   0.173
    1UNL    H21   62   0.346  -0.319   0.350
    1UNL    H22   63   0.214  -0.116   0.192
    1UNL    H23   64   0.375  -0.094   0.257
    1UNL    H24   65   0.316   0.204  -0.117
    1UNL    H25   66   0.337   0.240  -0.374
    1UNL    H26   67   0.365   0.127  -0.572
    1UNL    H27   68   0.410  -0.179  -0.414
    1UNL    H28   69   0.413  -0.210  -0.182
    1UNL    H29   70   0.459  -0.346   0.118
    1UNL    H30   71   0.401  -0.548   0.302
    1UNL    H31   72   0.251  -0.564   0.098
    1UNL    H32   73   0.312  -0.506  -0.147
    1UNL    H33   74   0.221  -0.304  -0.039
    1UNL    H34   75   0.050  -0.519  -0.035
   0.00000   0.00000   0.00000   0.00000   0.00000   0.00000   0.00000   0.00000   0.00000
Generated with MDTraj, t= 70.0
 75
    1UNL     C1    1  -0.295  -0.072  -0.205
    1UNL     C2    2  -0.243  -0.047  -0.086
    1UNL     C3    3  -0.318   0.023   0.021
    1UNL     O1    4  -0.396   0.121  -0.034
    1UNL     C4    5  -0.491   0.167   0.052
    1UNL     O2    6  -0.525   0.106   0.156
    1UNL     C5    7  -0.549   0.297   0.015
    1UNL     C6    8  -0.500   0.354  -0.105
    1UNL     C7    9  -0.533   0.479  -0.138
    1UNL     C8   10  -0.615   0.554  -0.052
    1UNL     O3   11  -0.661   0.675  -0.106
    1UNL     C9   12  -0.659   0.504   0.069
    1UNL    C10   13  -0.631   0.366   0.104
    1UNL    C11   14  -0.218   0.075   0.130
    1UNL    C12   15  -0.081   0.048   0.072
    1UNL    C13   16  -0.013   0.175   0.023
    1UNL    C14   17   0.038   0.267   0.131
    1UNL     O4   18   0.137   0.217   0.216
    1UNL    C15   19  -0.099  -0.059  -0.040
    1UNL    C16   20  -0.079  -0.199   0.021
    1UNL     O5   21   0.028  -0.197   0.126
    1UNL    C17   22   0.087  -0.321   0.141
    1UNL     O6   23   0.171  -0.318   0.258
    1UNL    C18   24   0.317  -0.287   0.251
    1UNL    C19   25   0.331  -0.145   0.191
    1UNL     O7   26   0.331  -0.145   0.049
    1UNL    C20   27   0.340  -0.015   0.010
    1UNL     O8   28   0.335   0.088   0.073
    1UNL    C21   29   0.354   0.007  -0.133
    1UNL    C22   30   0.348   0.131  -0.186
    1UNL    C23   31   0.395   0.154  -0.311
    1UNL    C24   32   0.420   0.041  -0.403
    1UNL     O9   33   0.427   0.059  -0.543
    1UNL    C25   34   0.425  -0.084  -0.347
    1UNL    C26   35   0.397  -0.101  -0.215
    1UNL    C27   36   0.388  -0.397   0.161
    1UNL    O10   37   0.452  -0.491   0.231
    1UNL    C28   38   0.290  -0.463   0.055
    1UNL    O11   39   0.352  -0.525  -0.055
    1UNL    C29   40   0.173  -0.365   0.014
    1UNL    O12   41   0.095  -0.442  -0.078
    1UNL     H1   42  -0.387  -0.023  -0.226
    1UNL     H2   43  -0.244  -0.118  -0.295
    1UNL     H3   44  -0.395  -0.054   0.070
    1UNL     H4   45  -0.445   0.285  -0.169
    1UNL     H5   46  -0.500   0.521  -0.239
    1UNL     H6   47  -0.708   0.728  -0.038
    1UNL     H7   48  -0.700   0.578   0.139
    1UNL     H8   49  -0.649   0.331   0.202
    1UNL     H9   50  -0.226   0.180   0.155
    1UNL    H10   51  -0.233   0.024   0.227
    1UNL    H11   52  -0.015   0.003   0.152
    1UNL    H12   53  -0.076   0.232  -0.047
    1UNL    H13   54   0.071   0.149  -0.040
    1UNL    H14   55   0.088   0.352   0.083
    1UNL    H15   56  -0.051   0.288   0.191
    1UNL    H16   57   0.207   0.173   0.166
    1UNL    H17   58  -0.034  -0.040  -0.123
    1UNL    H18   59  -0.167  -0.240   0.077
    1UNL    H19   60  -0.073  -0.274  -0.060
    1UNL    H20   61   0.007  -0.392   0.168
    1UNL    H21   62   0.347  -0.294   0.360
    1UNL    H22   63   0.256  -0.082   0.241
    1UNL    H23   64   0.425  -0.100   0.222
    1UNL    H24   65   0.307   0.207  -0.121
    1UNL    H25   66   0.390   0.251  -0.346
    1UNL    H26   67   0.358   0.008  -0.587
    1UNL    H27   68   0.451  -0.164  -0.416
    1UNL    H28   69   0.407  -0.189  -0.165
    1UNL    H29   70   0.460  -0.341   0.108
    1UNL    H30   71   0.381  -0.553   0.268
    1UNL    H31   72   0.233  -0.540   0.102
    1UNL    H32   73   0.300  -0.510  -0.138
    1UNL    H33   74   0.210  -0.284  -0.052
    1UNL    H34   75   0.070  -0.523  -0.028
   0.00000   0.00000   0.00000   0.00000   0.00000   0.00000   0.00000   0.00000   0.00000
Generated with MDTraj, t= 71.0
 75
    1UNL     C1    1  -0.285  -0.116  -0.178
    1UNL     C2    2  -0.242  -0.071  -0.063
    1UNL     C3    3  -0.326   0.006   0.035
    1UNL     O1    4  -0.397   0.116  -0.026
    1UNL     C4    5  -0.496   0.168   0.048
    1UNL     O2    6  -0.551   0.114   0.143
    1UNL     C5    7  -0.547   0.305   0.013
    1UNL     C6    8  -0.515   0.359  -0.110
    1UNL     C7    9  -0.547   0.487  -0.139
    1UNL     C8   10  -0.608   0.572  -0.051
    1UNL     O3   11  -0.624   0.702  -0.088
    1UNL     C9   12  -0.645   0.515   0.069
    1UNL    C10   13  -0.623   0.382   0.100
    1UNL    C11   14  -0.223   0.059   0.142
    1UNL    C12   15  -0.084   0.034   0.083
    1UNL    C13   16  -0.030   0.162   0.011
    1UNL    C14   17  -0.003   0.266   0.116
    1UNL     O4   18   0.091   0.208   0.213
    1UNL    C15   19  -0.098  -0.075  -0.023
    1UNL    C16   20  -0.066  -0.210   0.033
    1UNL     O5   21   0.045  -0.198   0.122
    1UNL    C17   22   0.094  -0.334   0.147
    1UNL     O6   23   0.173  -0.326   0.265
    1UNL    C18   24   0.309  -0.282   0.243
    1UNL    C19   25   0.307  -0.138   0.187
    1UNL     O7   26   0.336  -0.131   0.046
    1UNL    C20   27   0.350  -0.001  -0.001
    1UNL     O8   28   0.335   0.095   0.071
    1UNL    C21   29   0.372   0.010  -0.147
    1UNL    C22   30   0.371   0.140  -0.204
    1UNL    C23   31   0.406   0.168  -0.333
    1UNL    C24   32   0.424   0.053  -0.409
    1UNL     O9   33   0.472   0.071  -0.537
    1UNL    C25   34   0.410  -0.083  -0.359
    1UNL    C26   35   0.394  -0.101  -0.228
    1UNL    C27   36   0.379  -0.385   0.156
    1UNL    O10   37   0.452  -0.480   0.226
    1UNL    C28   38   0.292  -0.469   0.061
    1UNL    O11   39   0.360  -0.513  -0.057
    1UNL    C29   40   0.170  -0.383   0.020
    1UNL    O12   41   0.082  -0.452  -0.070
    1UNL     H1   42  -0.387  -0.107  -0.200
    1UNL     H2   43  -0.222  -0.150  -0.254
    1UNL     H3   44  -0.419  -0.054   0.081
    1UNL     H4   45  -0.471   0.296  -0.184
    1UNL     H5   46  -0.528   0.530  -0.232
    1UNL     H6   47  -0.636   0.756  -0.006
    1UNL     H7   48  -0.686   0.575   0.147
    1UNL     H8   49  -0.636   0.361   0.209
    1UNL     H9   50  -0.246   0.161   0.158
    1UNL    H10   51  -0.240   0.009   0.241
    1UNL    H11   52  -0.016   0.001   0.165
    1UNL    H12   53  -0.095   0.191  -0.072
    1UNL    H13   54   0.060   0.137  -0.040
    1UNL    H14   55   0.048   0.346   0.060
    1UNL    H15   56  -0.091   0.299   0.172
    1UNL    H16   57   0.174   0.167   0.165
    1UNL    H17   58  -0.039  -0.059  -0.109
    1UNL    H18   59  -0.158  -0.256   0.080
    1UNL    H19   60  -0.041  -0.289  -0.042
    1UNL    H20   61   0.011  -0.399   0.173
    1UNL    H21   62   0.358  -0.300   0.343
    1UNL    H22   63   0.207  -0.105   0.203
    1UNL    H23   64   0.367  -0.074   0.248
    1UNL    H24   65   0.347   0.224  -0.141
    1UNL    H25   66   0.426   0.273  -0.367
    1UNL    H26   67   0.432   0.005  -0.592
    1UNL    H27   68   0.443  -0.152  -0.431
    1UNL    H28   69   0.406  -0.205  -0.181
    1UNL    H29   70   0.456  -0.345   0.098
    1UNL    H30   71   0.399  -0.541   0.284
    1UNL    H31   72   0.254  -0.555   0.115
    1UNL    H32   73   0.299  -0.528  -0.137
    1UNL    H33   74   0.209  -0.296  -0.036
    1UNL    H34   75   0.065  -0.534  -0.026
   0.00000   0.00000   0.00000   0.00000   0.00000   0.00000   0.00000   0.00000   0.00000
Generated with MDTraj, t= 72.0
 75
    1UNL     C1    1  -0.327  -0.155  -0.164
    1UNL     C2    2  -0.272  -0.084  -0.069
    1UNL     C3    3  -0.350   0.006   0.022
    1UNL     O1    4  -0.397   0.118  -0.053
    1UNL     C4    5  -0.483   0.180   0.031
    1UNL     O2    6  -0.519   0.133   0.139
    1UNL     C5    7  -0.532   0.317  -0.000
    1UNL     C6    8  -0.500   0.374  -0.122
    1UNL     C7    9  -0.545   0.505  -0.144
    1UNL     C8   10  -0.604   0.578  -0.041
    1UNL     O3   11  -0.623   0.714  -0.071
    1UNL     C9   12  -0.639   0.521   0.082
    1UNL    C10   13  -0.598   0.391   0.102
    1UNL    C11   14  -0.255   0.052   0.139
    1UNL    C12   15  -0.115   0.030   0.088
    1UNL    C13   16  -0.048   0.157   0.027
    1UNL    C14   17  -0.009   0.264   0.124
    1UNL     O4   18   0.091   0.219   0.211
    1UNL    C15   19  -0.129  -0.092  -0.013
    1UNL    C16   20  -0.086  -0.226   0.050
    1UNL     O5   21   0.038  -0.211   0.115
    1UNL    C17   22   0.098  -0.342   0.153
    1UNL     O6   23   0.186  -0.327   0.269
    1UNL    C18   24   0.319  -0.281   0.241
    1UNL    C19   25   0.310  -0.143   0.176
    1UNL     O7   26   0.349  -0.140   0.037
    1UNL    C20   27   0.325  -0.006  -0.007
    1UNL     O8   28   0.259   0.075   0.052
    1UNL    C21   29   0.387   0.018  -0.136
    1UNL    C22   30   0.392   0.152  -0.191
    1UNL    C23   31   0.428   0.167  -0.327
    1UNL    C24   32   0.444   0.054  -0.409
    1UNL     O9   33   0.490   0.064  -0.542
    1UNL    C25   34   0.412  -0.069  -0.355
    1UNL    C26   35   0.394  -0.091  -0.222
    1UNL    C27   36   0.395  -0.382   0.145
    1UNL    O10   37   0.498  -0.454   0.222
    1UNL    C28   38   0.303  -0.471   0.057
    1UNL    O11   39   0.374  -0.491  -0.068
    1UNL    C29   40   0.169  -0.401   0.034
    1UNL    O12   41   0.085  -0.481  -0.050
    1UNL     H1   42  -0.439  -0.162  -0.184
    1UNL     H2   43  -0.267  -0.230  -0.208
    1UNL     H3   44  -0.453  -0.037   0.064
    1UNL     H4   45  -0.441   0.318  -0.195
    1UNL     H5   46  -0.553   0.551  -0.241
    1UNL     H6   47  -0.664   0.766   0.002
    1UNL     H7   48  -0.667   0.589   0.162
    1UNL     H8   49  -0.607   0.343   0.194
    1UNL     H9   50  -0.271   0.152   0.169
    1UNL    H10   51  -0.281  -0.017   0.225
    1UNL    H11   52  -0.055   0.010   0.180
    1UNL    H12   53  -0.120   0.196  -0.043
    1UNL    H13   54   0.033   0.121  -0.032
    1UNL    H14   55   0.029   0.359   0.079
    1UNL    H15   56  -0.098   0.280   0.184
    1UNL    H16   57   0.159   0.178   0.162
    1UNL    H17   58  -0.061  -0.077  -0.092
    1UNL    H18   59  -0.160  -0.272   0.120
    1UNL    H19   60  -0.073  -0.304  -0.027
    1UNL    H20   61   0.027  -0.416   0.182
    1UNL    H21   62   0.374  -0.273   0.336
    1UNL    H22   63   0.211  -0.108   0.197
    1UNL    H23   64   0.374  -0.068   0.223
    1UNL    H24   65   0.377   0.237  -0.127
    1UNL    H25   66   0.434   0.260  -0.375
    1UNL    H26   67   0.438   0.001  -0.596
    1UNL    H27   68   0.426  -0.158  -0.422
    1UNL    H28   69   0.386  -0.190  -0.184
    1UNL    H29   70   0.442  -0.321   0.074
    1UNL    H30   71   0.444  -0.506   0.282
    1UNL    H31   72   0.275  -0.563   0.112
    1UNL    H32   73   0.314  -0.524  -0.137
    1UNL    H33   74   0.191  -0.315  -0.034
    1UNL    H34   75   0.061  -0.563  -0.004
   0.00000   0.00000   0.00000   0.00000   0.00000   0.00000   0.00000   0.00000   0.00000
Generated with MDTraj, t= 73.0
 75
    1UNL     C1    1  -0.328  -0.178  -0.149
    1UNL     C2    2  -0.277  -0.104  -0.055
    1UNL     C3    3  -0.357  -0.009   0.023
    1UNL     O1    4  -0.401   0.113  -0.043
    1UNL     C4    5  -0.477   0.188   0.042
    1UNL     O2    6  -0.520   0.154   0.152
    1UNL     C5    7  -0.513   0.330   0.004
    1UNL     C6    8  -0.484   0.395  -0.116
    1UNL     C7    9  -0.526   0.523  -0.146
    1UNL     C8   10  -0.595   0.599  -0.049
    1UNL     O3   11  -0.641   0.717  -0.086
    1UNL     C9   12  -0.622   0.536   0.078
    1UNL    C10   13  -0.581   0.408   0.098
    1UNL    C11   14  -0.267   0.018   0.149
    1UNL    C12   15  -0.122   0.011   0.097
    1UNL    C13   16  -0.074   0.144   0.029
    1UNL    C14   17  -0.037   0.255   0.132
    1UNL     O4   18   0.059   0.214   0.226
    1UNL    C15   19  -0.129  -0.100  -0.016
    1UNL    C16   20  -0.085  -0.231   0.044
    1UNL     O5   21   0.031  -0.226   0.132
    1UNL    C17   22   0.103  -0.350   0.154
    1UNL     O6   23   0.200  -0.334   0.264
    1UNL    C18   24   0.324  -0.267   0.235
    1UNL    C19   25   0.307  -0.123   0.183
    1UNL     O7   26   0.327  -0.136   0.043
    1UNL    C20   27   0.305  -0.017  -0.019
    1UNL     O8   28   0.251   0.076   0.031
    1UNL    C21   29   0.363   0.003  -0.155
    1UNL    C22   30   0.381   0.135  -0.192
    1UNL    C23   31   0.428   0.153  -0.316
    1UNL    C24   32   0.468   0.048  -0.407
    1UNL     O9   33   0.515   0.085  -0.531
    1UNL    C25   34   0.440  -0.079  -0.369
    1UNL    C26   35   0.396  -0.102  -0.237
    1UNL    C27   36   0.405  -0.361   0.134
    1UNL    O10   37   0.511  -0.428   0.209
    1UNL    C28   38   0.311  -0.458   0.051
    1UNL    O11   39   0.372  -0.503  -0.071
    1UNL    C29   40   0.174  -0.393   0.028
    1UNL    O12   41   0.094  -0.476  -0.053
    1UNL     H1   42  -0.431  -0.174  -0.173
    1UNL     H2   43  -0.274  -0.256  -0.194
    1UNL     H3   44  -0.453  -0.068   0.057
    1UNL     H4   45  -0.440   0.346  -0.200
    1UNL     H5   46  -0.523   0.551  -0.256
    1UNL     H6   47  -0.711   0.749  -0.024
    1UNL     H7   48  -0.669   0.587   0.159
    1UNL     H8   49  -0.589   0.355   0.198
    1UNL     H9   50  -0.289   0.118   0.184
    1UNL    H10   51  -0.275  -0.059   0.231
    1UNL    H11   52  -0.053  -0.008   0.181
    1UNL    H12   53  -0.156   0.183  -0.026
    1UNL    H13   54   0.007   0.124  -0.038
    1UNL    H14   55   0.007   0.336   0.069
    1UNL    H15   56  -0.120   0.294   0.191
    1UNL    H16   57   0.129   0.157   0.173
    1UNL    H17   58  -0.064  -0.078  -0.095
    1UNL    H18   59  -0.169  -0.257   0.110
    1UNL    H19   60  -0.080  -0.313  -0.029
    1UNL    H20   61   0.036  -0.424   0.186
    1UNL    H21   62   0.374  -0.265   0.331
    1UNL    H22   63   0.205  -0.089   0.189
    1UNL    H23   64   0.370  -0.054   0.244
    1UNL    H24   65   0.357   0.224  -0.135
    1UNL    H25   66   0.445   0.254  -0.355
    1UNL    H26   67   0.466   0.044  -0.611
    1UNL    H27   68   0.467  -0.155  -0.434
    1UNL    H28   69   0.392  -0.202  -0.200
    1UNL    H29   70   0.465  -0.309   0.066
    1UNL    H30   71   0.475  -0.478   0.281
    1UNL    H31   72   0.307  -0.548   0.119
    1UNL    H32   73   0.314  -0.547  -0.134
    1UNL    H33   74   0.198  -0.299  -0.026
    1UNL    H34   75   0.076  -0.562  -0.004
   0.00000   0.00000   0.00000   0.00000   0.00000   0.00000   0.00000   0.00000   0.00000
Generated with MDTraj, t= 74.0
 75
    1UNL     C1    1  -0.338  -0.161  -0.152
    1UNL     C2    2  -0.277  -0.101  -0.052
    1UNL     C3    3  -0.359  -0.014   0.050
    1UNL     O1    4  -0.387   0.107  -0.011
    1UNL     C4    5  -0.468   0.189   0.068
    1UNL     O2    6  -0.515   0.160   0.175
    1UNL     C5    7  -0.504   0.322   0.019
    1UNL     C6    8  -0.469   0.372  -0.107
    1UNL     C7    9  -0.501   0.499  -0.152
    1UNL     C8   10  -0.581   0.577  -0.069
    1UNL     O3   11  -0.617   0.701  -0.117
    1UNL     C9   12  -0.620   0.533   0.055
    1UNL    C10   13  -0.578   0.408   0.096
    1UNL    C11   14  -0.265   0.004   0.170
    1UNL    C12   15  -0.123   0.003   0.108
    1UNL    C13   16  -0.076   0.136   0.045
    1UNL    C14   17  -0.040   0.246   0.149
    1UNL     O4   18   0.061   0.191   0.232
    1UNL    C15   19  -0.133  -0.104  -0.007
    1UNL    C16   20  -0.091  -0.239   0.048
    1UNL     O5   21   0.034  -0.221   0.120
    1UNL    C17   22   0.099  -0.340   0.144
    1UNL     O6   23   0.193  -0.334   0.262
    1UNL    C18   24   0.312  -0.270   0.230
    1UNL    C19   25   0.287  -0.128   0.167
    1UNL     O7   26   0.311  -0.115   0.029
    1UNL    C20   27   0.291   0.012  -0.027
    1UNL     O8   28   0.256   0.105   0.039
    1UNL    C21   29   0.335   0.016  -0.171
    1UNL    C22   30   0.358   0.147  -0.223
    1UNL    C23   31   0.422   0.167  -0.344
    1UNL    C24   32   0.477   0.061  -0.407
    1UNL     O9   33   0.551   0.073  -0.522
    1UNL    C25   34   0.450  -0.076  -0.361
    1UNL    C26   35   0.381  -0.090  -0.241
    1UNL    C27   36   0.397  -0.360   0.136
    1UNL    O10   37   0.486  -0.434   0.210
    1UNL    C28   38   0.312  -0.458   0.055
    1UNL    O11   39   0.370  -0.516  -0.054
    1UNL    C29   40   0.177  -0.378   0.011
    1UNL    O12   41   0.087  -0.454  -0.078
    1UNL     H1   42  -0.443  -0.180  -0.158
    1UNL     H2   43  -0.274  -0.224  -0.221
    1UNL     H3   44  -0.456  -0.074   0.075
    1UNL     H4   45  -0.429   0.305  -0.182
    1UNL     H5   46  -0.480   0.537  -0.243
    1UNL     H6   47  -0.672   0.755  -0.055
    1UNL     H7   48  -0.676   0.601   0.119
    1UNL     H8   49  -0.583   0.369   0.192
    1UNL     H9   50  -0.278   0.099   0.227
    1UNL    H10   51  -0.263  -0.082   0.238
    1UNL    H11   52  -0.048  -0.028   0.181
    1UNL    H12   53  -0.159   0.165  -0.013
    1UNL    H13   54   0.006   0.119  -0.022
    1UNL    H14   55   0.003   0.340   0.108
    1UNL    H15   56  -0.129   0.275   0.206
    1UNL    H16   57   0.138   0.163   0.176
    1UNL    H17   58  -0.069  -0.087  -0.091
    1UNL    H18   59  -0.167  -0.287   0.109
    1UNL    H19   60  -0.070  -0.309  -0.037
    1UNL    H20   61   0.025  -0.413   0.157
    1UNL    H21   62   0.349  -0.256   0.331
    1UNL    H22   63   0.184  -0.101   0.193
    1UNL    H23   64   0.354  -0.047   0.213
    1UNL    H24   65   0.325   0.228  -0.159
    1UNL    H25   66   0.428   0.268  -0.384
    1UNL    H26   67   0.544  -0.011  -0.581
    1UNL    H27   68   0.480  -0.174  -0.406
    1UNL    H28   69   0.371  -0.192  -0.187
    1UNL    H29   70   0.459  -0.308   0.070
    1UNL    H30   71   0.437  -0.486   0.275
    1UNL    H31   72   0.275  -0.542   0.122
    1UNL    H32   73   0.434  -0.448  -0.089
    1UNL    H33   74   0.188  -0.283  -0.045
    1UNL    H34   75   0.088  -0.555  -0.067
   0.00000   0.00000   0.00000   0.00000   0.00000   0.00000   0.00000   0.00000   0.00000
Generated with MDTraj, t= 75.0
 75
    1UNL     C1    1  -0.365  -0.148  -0.148
    1UNL     C2    2  -0.301  -0.090  -0.050
    1UNL     C3    3  -0.367  -0.008   0.057
    1UNL     O1    4  -0.422   0.102  -0.007
    1UNL     C4    5  -0.477   0.183   0.091
    1UNL     O2    6  -0.498   0.163   0.207
    1UNL     C5    7  -0.512   0.313   0.032
    1UNL     C6    8  -0.461   0.335  -0.101
    1UNL     C7    9  -0.476   0.459  -0.152
    1UNL     C8   10  -0.563   0.556  -0.090
    1UNL     O3   11  -0.576   0.674  -0.152
    1UNL     C9   12  -0.622   0.524   0.034
    1UNL    C10   13  -0.588   0.410   0.097
    1UNL    C11   14  -0.266   0.022   0.168
    1UNL    C12   15  -0.132   0.008   0.108
    1UNL    C13   16  -0.070   0.143   0.073
    1UNL    C14   17  -0.024   0.226   0.189
    1UNL     O4   18   0.099   0.189   0.252
    1UNL    C15   19  -0.150  -0.087  -0.016
    1UNL    C16   20  -0.089  -0.228   0.022
    1UNL     O5   21   0.027  -0.214   0.110
    1UNL    C17   22   0.089  -0.335   0.133
    1UNL     O6   23   0.178  -0.326   0.248
    1UNL    C18   24   0.300  -0.266   0.223
    1UNL    C19   25   0.287  -0.126   0.156
    1UNL     O7   26   0.293  -0.126   0.017
    1UNL    C20   27   0.295   0.008  -0.028
    1UNL     O8   28   0.252   0.097   0.038
    1UNL    C21   29   0.346   0.032  -0.165
    1UNL    C22   30   0.354   0.151  -0.224
    1UNL    C23   31   0.416   0.178  -0.346
    1UNL    C24   32   0.475   0.061  -0.410
    1UNL     O9   33   0.541   0.065  -0.536
    1UNL    C25   34   0.466  -0.064  -0.342
    1UNL    C26   35   0.399  -0.080  -0.225
    1UNL    C27   36   0.399  -0.359   0.138
    1UNL    O10   37   0.489  -0.439   0.215
    1UNL    C28   38   0.307  -0.453   0.053
    1UNL    O11   39   0.364  -0.491  -0.062
    1UNL    C29   40   0.171  -0.380   0.013
    1UNL    O12   41   0.101  -0.454  -0.082
    1UNL     H1   42  -0.468  -0.140  -0.156
    1UNL     H2   43  -0.304  -0.211  -0.209
    1UNL     H3   44  -0.456  -0.075   0.090
    1UNL     H4   45  -0.403   0.263  -0.156
    1UNL     H5   46  -0.439   0.497  -0.253
    1UNL     H6   47  -0.617   0.741  -0.093
    1UNL     H7   48  -0.668   0.596   0.098
    1UNL     H8   49  -0.622   0.392   0.202
    1UNL     H9   50  -0.283   0.129   0.204
    1UNL    H10   51  -0.276  -0.041   0.257
    1UNL    H11   52  -0.067  -0.044   0.178
    1UNL    H12   53  -0.140   0.198   0.017
    1UNL    H13   54   0.015   0.125   0.009
    1UNL    H14   55  -0.014   0.329   0.153
    1UNL    H15   56  -0.097   0.236   0.270
    1UNL    H16   57   0.168   0.165   0.182
    1UNL    H17   58  -0.095  -0.045  -0.097
    1UNL    H18   59  -0.159  -0.291   0.070
    1UNL    H19   60  -0.049  -0.286  -0.067
    1UNL    H20   61   0.015  -0.403   0.164
    1UNL    H21   62   0.345  -0.245   0.320
    1UNL    H22   63   0.189  -0.076   0.166
    1UNL    H23   64   0.364  -0.053   0.201
    1UNL    H24   65   0.320   0.238  -0.173
    1UNL    H25   66   0.420   0.267  -0.405
    1UNL    H26   67   0.531  -0.013  -0.596
    1UNL    H27   68   0.511  -0.153  -0.377
    1UNL    H28   69   0.394  -0.169  -0.179
    1UNL    H29   70   0.460  -0.303   0.073
    1UNL    H30   71   0.426  -0.486   0.276
    1UNL    H31   72   0.292  -0.550   0.111
    1UNL    H32   73   0.401  -0.408  -0.106
    1UNL    H33   74   0.210  -0.294  -0.045
    1UNL    H34   75   0.164  -0.504  -0.133
   0.00000   0.00000   0.00000   0.00000   0.00000   0.00000   0.00000   0.00000   0.00000
Generated with MDTraj, t= 76.0
 75
    1UNL     C1    1  -0.341  -0.160  -0.123
    1UNL     C2    2  -0.291  -0.100  -0.021
    1UNL     C3    3  -0.372  -0.017   0.081
    1UNL     O1    4  -0.431   0.098   0.015
    1UNL     C4    5  -0.493   0.190   0.096
    1UNL     O2    6  -0.522   0.182   0.210
    1UNL     C5    7  -0.518   0.320   0.024
    1UNL     C6    8  -0.467   0.341  -0.106
    1UNL     C7    9  -0.479   0.459  -0.165
    1UNL     C8   10  -0.554   0.560  -0.109
    1UNL     O3   11  -0.568   0.679  -0.172
    1UNL     C9   12  -0.610   0.539   0.015
    1UNL    C10   13  -0.592   0.422   0.086
    1UNL    C11   14  -0.274   0.011   0.195
    1UNL    C12   15  -0.136   0.006   0.126
    1UNL    C13   16  -0.099   0.147   0.084
    1UNL    C14   17  -0.036   0.220   0.202
    1UNL     O4   18   0.074   0.141   0.251
    1UNL    C15   19  -0.143  -0.078   0.001
    1UNL    C16   20  -0.079  -0.216   0.016
    1UNL     O5   21   0.034  -0.207   0.099
    1UNL    C17   22   0.089  -0.337   0.123
    1UNL     O6   23   0.177  -0.335   0.247
    1UNL    C18   24   0.297  -0.266   0.228
    1UNL    C19   25   0.289  -0.123   0.167
    1UNL     O7   26   0.342  -0.121   0.039
    1UNL    C20   27   0.331   0.002  -0.021
    1UNL     O8   28   0.260   0.089   0.026
    1UNL    C21   29   0.382   0.016  -0.159
    1UNL    C22   30   0.355   0.141  -0.213
    1UNL    C23   31   0.395   0.151  -0.344
    1UNL    C24   32   0.460   0.058  -0.421
    1UNL     O9   33   0.514   0.091  -0.539
    1UNL    C25   34   0.478  -0.068  -0.366
    1UNL    C26   35   0.437  -0.087  -0.234
    1UNL    C27   36   0.383  -0.349   0.133
    1UNL    O10   37   0.470  -0.433   0.216
    1UNL    C28   38   0.301  -0.435   0.030
    1UNL    O11   39   0.372  -0.471  -0.080
    1UNL    C29   40   0.165  -0.374  -0.011
    1UNL    O12   41   0.105  -0.470  -0.086
    1UNL     H1   42  -0.454  -0.151  -0.133
    1UNL     H2   43  -0.276  -0.214  -0.187
    1UNL     H3   44  -0.470  -0.070   0.116
    1UNL     H4   45  -0.418   0.258  -0.157
    1UNL     H5   46  -0.442   0.483  -0.263
    1UNL     H6   47  -0.626   0.746  -0.132
    1UNL     H7   48  -0.662   0.625   0.058
    1UNL     H8   49  -0.621   0.403   0.185
    1UNL     H9   50  -0.290   0.112   0.247
    1UNL    H10   51  -0.291  -0.060   0.276
    1UNL    H11   52  -0.069  -0.041   0.197
    1UNL    H12   53  -0.183   0.198   0.045
    1UNL    H13   54  -0.028   0.145   0.004
    1UNL    H14   55   0.002   0.320   0.181
    1UNL    H15   56  -0.106   0.242   0.281
    1UNL    H16   57   0.132   0.114   0.171
    1UNL    H17   58  -0.104  -0.020  -0.079
    1UNL    H18   59  -0.144  -0.279   0.068
    1UNL    H19   60  -0.051  -0.259  -0.083
    1UNL    H20   61   0.005  -0.401   0.143
    1UNL    H21   62   0.338  -0.251   0.331
    1UNL    H22   63   0.186  -0.088   0.152
    1UNL    H23   64   0.344  -0.043   0.227
    1UNL    H24   65   0.303   0.215  -0.150
    1UNL    H25   66   0.384   0.256  -0.375
    1UNL    H26   67   0.541   0.018  -0.592
    1UNL    H27   68   0.531  -0.150  -0.414
    1UNL    H28   69   0.453  -0.184  -0.180
    1UNL    H29   70   0.448  -0.288   0.076
    1UNL    H30   71   0.420  -0.488   0.284
    1UNL    H31   72   0.278  -0.530   0.087
    1UNL    H32   73   0.410  -0.388  -0.123
    1UNL    H33   74   0.176  -0.287  -0.077
    1UNL    H34   75   0.159  -0.492  -0.163
   0.00000   0.00000   0.00000   0.00000   0.00000   0.00000   0.00000   0.00000   0.00000
Generated with MDTraj, t= 77.0
 75
    1UNL     C1    1  -0.388  -0.188  -0.096
    1UNL     C2    2  -0.320  -0.114  -0.014
    1UNL     C3    3  -0.388  -0.008   0.070
    1UNL     O1    4  -0.407   0.113   0.000
    1UNL     C4    5  -0.486   0.198   0.073
    1UNL     O2    6  -0.529   0.174   0.180
    1UNL     C5    7  -0.508   0.333   0.011
    1UNL     C6    8  -0.463   0.355  -0.118
    1UNL     C7    9  -0.494   0.468  -0.185
    1UNL     C8   10  -0.557   0.573  -0.119
    1UNL     O3   11  -0.583   0.690  -0.182
    1UNL     C9   12  -0.602   0.553   0.018
    1UNL    C10   13  -0.576   0.435   0.082
    1UNL    C11   14  -0.297   0.011   0.201
    1UNL    C12   15  -0.151  -0.004   0.143
    1UNL    C13   16  -0.090   0.129   0.101
    1UNL    C14   17  -0.033   0.206   0.222
    1UNL     O4   18   0.086   0.147   0.263
    1UNL    C15   19  -0.169  -0.104   0.020
    1UNL    C16   20  -0.097  -0.244   0.046
    1UNL     O5   21   0.028  -0.208   0.098
    1UNL    C17   22   0.110  -0.325   0.119
    1UNL     O6   23   0.190  -0.326   0.240
    1UNL    C18   24   0.321  -0.272   0.225
    1UNL    C19   25   0.330  -0.127   0.169
    1UNL     O7   26   0.365  -0.121   0.035
    1UNL    C20   27   0.326   0.002  -0.021
    1UNL     O8   28   0.248   0.081   0.033
    1UNL    C21   29   0.382   0.037  -0.157
    1UNL    C22   30   0.341   0.152  -0.226
    1UNL    C23   31   0.383   0.167  -0.354
    1UNL    C24   32   0.454   0.068  -0.417
    1UNL     O9   33   0.487   0.079  -0.554
    1UNL    C25   34   0.492  -0.044  -0.346
    1UNL    C26   35   0.459  -0.061  -0.212
    1UNL    C27   36   0.403  -0.369   0.137
    1UNL    O10   37   0.461  -0.485   0.215
    1UNL    C28   38   0.312  -0.444   0.034
    1UNL    O11   39   0.385  -0.488  -0.081
    1UNL    C29   40   0.189  -0.360  -0.010
    1UNL    O12   41   0.097  -0.433  -0.092
    1UNL     H1   42  -0.493  -0.164  -0.095
    1UNL     H2   43  -0.342  -0.258  -0.158
    1UNL     H3   44  -0.495  -0.043   0.093
    1UNL     H4   45  -0.424   0.271  -0.171
    1UNL     H5   46  -0.468   0.488  -0.283
    1UNL     H6   47  -0.650   0.737  -0.128
    1UNL     H7   48  -0.663   0.623   0.071
    1UNL     H8   49  -0.605   0.415   0.187
    1UNL     H9   50  -0.314   0.109   0.254
    1UNL    H10   51  -0.316  -0.066   0.279
    1UNL    H11   52  -0.089  -0.058   0.212
    1UNL    H12   53  -0.162   0.190   0.053
    1UNL    H13   54  -0.013   0.117   0.030
    1UNL    H14   55  -0.019   0.313   0.206
    1UNL    H15   56  -0.099   0.208   0.309
    1UNL    H16   57   0.141   0.122   0.191
    1UNL    H17   58  -0.128  -0.054  -0.064
    1UNL    H18   59  -0.146  -0.291   0.123
    1UNL    H19   60  -0.083  -0.303  -0.047
    1UNL    H20   61   0.037  -0.406   0.128
    1UNL    H21   62   0.365  -0.277   0.329
    1UNL    H22   63   0.232  -0.080   0.175
    1UNL    H23   64   0.409  -0.064   0.214
    1UNL    H24   65   0.292   0.237  -0.184
    1UNL    H25   66   0.359   0.246  -0.418
    1UNL    H26   67   0.497  -0.009  -0.590
    1UNL    H27   68   0.547  -0.116  -0.406
    1UNL    H28   69   0.503  -0.146  -0.155
    1UNL    H29   70   0.481  -0.326   0.079
    1UNL    H30   71   0.390  -0.528   0.272
    1UNL    H31   72   0.275  -0.536   0.088
    1UNL    H32   73   0.456  -0.429  -0.117
    1UNL    H33   74   0.214  -0.273  -0.072
    1UNL    H34   75   0.135  -0.445  -0.186
   0.00000   0.00000   0.00000   0.00000   0.00000   0.00000   0.00000   0.00000   0.00000
Generated with MDTraj, t= 78.0
 75
    1UNL     C1    1  -0.392  -0.220  -0.055
    1UNL     C2    2  -0.323  -0.125   0.005
    1UNL     C3    3  -0.389  -0.006   0.073
    1UNL     O1    4  -0.411   0.103  -0.013
    1UNL     C4    5  -0.486   0.203   0.052
    1UNL     O2    6  -0.524   0.185   0.163
    1UNL     C5    7  -0.502   0.332  -0.011
    1UNL     C6    8  -0.470   0.359  -0.140
    1UNL     C7    9  -0.503   0.482  -0.198
    1UNL     C8   10  -0.568   0.585  -0.121
    1UNL     O3   11  -0.596   0.711  -0.182
    1UNL     C9   12  -0.598   0.557   0.014
    1UNL    C10   13  -0.565   0.435   0.064
    1UNL    C11   14  -0.301   0.025   0.193
    1UNL    C12   15  -0.154  -0.007   0.152
    1UNL    C13   16  -0.079   0.120   0.107
    1UNL    C14   17  -0.012   0.205   0.214
    1UNL     O4   18   0.087   0.143   0.290
    1UNL    C15   19  -0.171  -0.107   0.029
    1UNL    C16   20  -0.096  -0.246   0.060
    1UNL     O5   21   0.034  -0.217   0.115
    1UNL    C17   22   0.117  -0.335   0.126
    1UNL     O6   23   0.190  -0.344   0.242
    1UNL    C18   24   0.323  -0.289   0.226
    1UNL    C19   25   0.324  -0.142   0.167
    1UNL     O7   26   0.376  -0.127   0.037
    1UNL    C20   27   0.332  -0.005  -0.013
    1UNL     O8   28   0.275   0.082   0.056
    1UNL    C21   29   0.363   0.021  -0.157
    1UNL    C22   30   0.303   0.124  -0.233
    1UNL    C23   31   0.342   0.161  -0.361
    1UNL    C24   32   0.447   0.080  -0.417
    1UNL     O9   33   0.487   0.104  -0.549
    1UNL    C25   34   0.490  -0.033  -0.349
    1UNL    C26   35   0.464  -0.055  -0.216
    1UNL    C27   36   0.407  -0.386   0.132
    1UNL    O10   37   0.472  -0.487   0.210
    1UNL    C28   38   0.310  -0.442   0.029
    1UNL    O11   39   0.380  -0.486  -0.089
    1UNL    C29   40   0.196  -0.342  -0.005
    1UNL    O12   41   0.113  -0.386  -0.110
    1UNL     H1   42  -0.497  -0.212  -0.069
    1UNL     H2   43  -0.333  -0.300  -0.108
    1UNL     H3   44  -0.493  -0.045   0.098
    1UNL     H4   45  -0.412   0.282  -0.190
    1UNL     H5   46  -0.487   0.500  -0.311
    1UNL     H6   47  -0.634   0.784  -0.127
    1UNL     H7   48  -0.651   0.634   0.070
    1UNL     H8   49  -0.599   0.409   0.162
    1UNL     H9   50  -0.299   0.133   0.211
    1UNL    H10   51  -0.331  -0.029   0.288
    1UNL    H11   52  -0.098  -0.065   0.222
    1UNL    H12   53  -0.146   0.181   0.052
    1UNL    H13   54  -0.001   0.093   0.042
    1UNL    H14   55   0.024   0.304   0.181
    1UNL    H15   56  -0.081   0.240   0.292
    1UNL    H16   57   0.165   0.126   0.225
    1UNL    H17   58  -0.133  -0.060  -0.058
    1UNL    H18   59  -0.151  -0.299   0.128
    1UNL    H19   60  -0.081  -0.292  -0.038
    1UNL    H20   61   0.047  -0.420   0.140
    1UNL    H21   62   0.374  -0.287   0.327
    1UNL    H22   63   0.225  -0.102   0.165
    1UNL    H23   64   0.388  -0.078   0.225
    1UNL    H24   65   0.230   0.182  -0.176
    1UNL    H25   66   0.295   0.249  -0.412
    1UNL    H26   67   0.514   0.011  -0.574
    1UNL    H27   68   0.558  -0.101  -0.395
    1UNL    H28   69   0.511  -0.129  -0.162
    1UNL    H29   70   0.483  -0.335   0.077
    1UNL    H30   71   0.396  -0.523   0.257
    1UNL    H31   72   0.271  -0.526   0.090
    1UNL    H32   73   0.404  -0.579  -0.092
    1UNL    H33   74   0.235  -0.243  -0.032
    1UNL    H34   75   0.149  -0.347  -0.190
   0.00000   0.00000   0.00000   0.00000   0.00000   0.00000   0.00000   0.00000   0.00000
Generated with MDTraj, t= 79.0
 75
    1UNL     C1    1  -0.366  -0.221  -0.043
    1UNL     C2    2  -0.305  -0.115   0.008
    1UNL     C3    3  -0.377   0.001   0.082
    1UNL     O1    4  -0.409   0.108  -0.001
    1UNL     C4    5  -0.488   0.205   0.057
    1UNL     O2    6  -0.527   0.185   0.168
    1UNL     C5    7  -0.517   0.328  -0.018
    1UNL     C6    8  -0.482   0.353  -0.149
    1UNL     C7    9  -0.508   0.475  -0.212
    1UNL     C8   10  -0.565   0.581  -0.139
    1UNL     O3   11  -0.578   0.702  -0.194
    1UNL     C9   12  -0.598   0.552  -0.002
    1UNL    C10   13  -0.578   0.430   0.053
    1UNL    C11   14  -0.277   0.039   0.188
    1UNL    C12   15  -0.132   0.007   0.141
    1UNL    C13   16  -0.063   0.138   0.089
    1UNL    C14   17   0.006   0.211   0.207
    1UNL     O4   18   0.096   0.127   0.275
    1UNL    C15   19  -0.152  -0.098   0.025
    1UNL    C16   20  -0.089  -0.230   0.060
    1UNL     O5   21   0.038  -0.206   0.113
    1UNL    C17   22   0.110  -0.335   0.128
    1UNL     O6   23   0.193  -0.353   0.240
    1UNL    C18   24   0.328  -0.297   0.226
    1UNL    C19   25   0.325  -0.144   0.186
    1UNL     O7   26   0.358  -0.135   0.050
    1UNL    C20   27   0.326  -0.018  -0.001
    1UNL     O8   28   0.271   0.075   0.061
    1UNL    C21   29   0.358   0.007  -0.141
    1UNL    C22   30   0.283   0.101  -0.203
    1UNL    C23   31   0.325   0.150  -0.324
    1UNL    C24   32   0.430   0.082  -0.392
    1UNL     O9   33   0.455   0.119  -0.519
    1UNL    C25   34   0.494  -0.035  -0.338
    1UNL    C26   35   0.459  -0.052  -0.210
    1UNL    C27   36   0.405  -0.380   0.118
    1UNL    O10   37   0.482  -0.473   0.183
    1UNL    C28   38   0.310  -0.434   0.008
    1UNL    O11   39   0.360  -0.467  -0.114
    1UNL    C29   40   0.186  -0.344  -0.014
    1UNL    O12   41   0.101  -0.413  -0.104
    1UNL     H1   42  -0.468  -0.222  -0.062
    1UNL     H2   43  -0.309  -0.301  -0.090
    1UNL     H3   44  -0.473  -0.040   0.120
    1UNL     H4   45  -0.430   0.276  -0.203
    1UNL     H5   46  -0.470   0.488  -0.306
    1UNL     H6   47  -0.593   0.762  -0.118
    1UNL     H7   48  -0.642   0.628   0.056
    1UNL     H8   49  -0.617   0.411   0.153
    1UNL     H9   50  -0.276   0.146   0.204
    1UNL    H10   51  -0.300  -0.011   0.289
    1UNL    H11   52  -0.065  -0.041   0.208
    1UNL    H12   53  -0.138   0.198   0.041
    1UNL    H13   54   0.014   0.115   0.023
    1UNL    H14   55   0.069   0.296   0.175
    1UNL    H15   56  -0.057   0.269   0.279
    1UNL    H16   57   0.159   0.092   0.211
    1UNL    H17   58  -0.104  -0.055  -0.060
    1UNL    H18   59  -0.146  -0.273   0.133
    1UNL    H19   60  -0.076  -0.284  -0.034
    1UNL    H20   61   0.031  -0.416   0.133
    1UNL    H21   62   0.359  -0.300   0.334
    1UNL    H22   63   0.228  -0.106   0.204
    1UNL    H23   64   0.403  -0.088   0.237
    1UNL    H24   65   0.208   0.147  -0.141
    1UNL    H25   66   0.268   0.230  -0.358
    1UNL    H26   67   0.502   0.044  -0.572
    1UNL    H27   68   0.560  -0.084  -0.410
    1UNL    H28   69   0.524  -0.124  -0.148
    1UNL    H29   70   0.478  -0.316   0.069
    1UNL    H30   71   0.433  -0.550   0.213
    1UNL    H31   72   0.268  -0.521   0.056
    1UNL    H32   73   0.420  -0.403  -0.157
    1UNL    H33   74   0.202  -0.246  -0.060
    1UNL    H34   75   0.159  -0.475  -0.151
   0.00000   0.00000   0.00000   0.00000   0.00000   0.00000   0.00000   0.00000   0.00000
Generated with MDTraj, t= 80.0
 75
    1UNL     C1    1  -0.360  -0.168  -0.082
    1UNL     C2    2  -0.293  -0.088  -0.004
    1UNL     C3    3  -0.360   0.014   0.081
    1UNL     O1    4  -0.401   0.122   0.002
    1UNL     C4    5  -0.488   0.204   0.070
    1UNL     O2    6  -0.536   0.183   0.180
    1UNL     C5    7  -0.522   0.326  -0.008
    1UNL     C6    8  -0.469   0.333  -0.137
    1UNL     C7    9  -0.491   0.445  -0.207
    1UNL     C8   10  -0.558   0.553  -0.150
    1UNL     O3   11  -0.577   0.678  -0.226
    1UNL     C9   12  -0.592   0.551  -0.016
    1UNL    C10   13  -0.586   0.431   0.056
    1UNL    C11   14  -0.257   0.061   0.187
    1UNL    C12   15  -0.117   0.019   0.141
    1UNL    C13   16  -0.040   0.145   0.090
    1UNL    C14   17  -0.010   0.231   0.208
    1UNL     O4   18   0.085   0.175   0.293
    1UNL    C15   19  -0.143  -0.090   0.027
    1UNL    C16   20  -0.088  -0.231   0.048
    1UNL     O5   21   0.034  -0.225   0.125
    1UNL    C17   22   0.109  -0.348   0.129
    1UNL     O6   23   0.201  -0.370   0.234
    1UNL    C18   24   0.329  -0.313   0.219
    1UNL    C19   25   0.335  -0.160   0.186
    1UNL     O7   26   0.364  -0.130   0.049
    1UNL    C20   27   0.325  -0.005   0.014
    1UNL     O8   28   0.249   0.069   0.076
    1UNL    C21   29   0.353   0.039  -0.119
    1UNL    C22   30   0.277   0.128  -0.195
    1UNL    C23   31   0.311   0.164  -0.323
    1UNL    C24   32   0.402   0.082  -0.395
    1UNL     O9   33   0.440   0.110  -0.530
    1UNL    C25   34   0.466  -0.019  -0.323
    1UNL    C26   35   0.458  -0.032  -0.189
    1UNL    C27   36   0.415  -0.399   0.108
    1UNL    O10   37   0.489  -0.506   0.155
    1UNL    C28   38   0.313  -0.457   0.003
    1UNL    O11   39   0.363  -0.459  -0.124
    1UNL    C29   40   0.183  -0.377  -0.007
    1UNL    O12   41   0.085  -0.446  -0.088
    1UNL     H1   42  -0.469  -0.153  -0.088
    1UNL     H2   43  -0.319  -0.244  -0.142
    1UNL     H3   44  -0.451  -0.028   0.126
    1UNL     H4   45  -0.419   0.246  -0.175
    1UNL     H5   46  -0.442   0.459  -0.306
    1UNL     H6   47  -0.618   0.740  -0.162
    1UNL     H7   48  -0.650   0.639   0.013
    1UNL     H8   49  -0.628   0.420   0.154
    1UNL     H9   50  -0.264   0.168   0.197
    1UNL    H10   51  -0.277   0.023   0.294
    1UNL    H11   52  -0.063  -0.031   0.218
    1UNL    H12   53  -0.101   0.203   0.026
    1UNL    H13   54   0.050   0.113   0.046
    1UNL    H14   55   0.021   0.335   0.181
    1UNL    H15   56  -0.094   0.258   0.277
    1UNL    H16   57   0.156   0.136   0.229
    1UNL    H17   58  -0.097  -0.047  -0.059
    1UNL    H18   59  -0.150  -0.288   0.104
    1UNL    H19   60  -0.069  -0.277  -0.049
    1UNL    H20   61   0.028  -0.426   0.149
    1UNL    H21   62   0.372  -0.329   0.318
    1UNL    H22   63   0.236  -0.119   0.187
    1UNL    H23   64   0.410  -0.107   0.249
    1UNL    H24   65   0.200   0.187  -0.143
    1UNL    H25   66   0.274   0.252  -0.377
    1UNL    H26   67   0.509   0.036  -0.544
    1UNL    H27   68   0.533  -0.084  -0.375
    1UNL    H28   69   0.521  -0.087  -0.129
    1UNL    H29   70   0.492  -0.339   0.058
    1UNL    H30   71   0.431  -0.581   0.175
    1UNL    H31   72   0.273  -0.554   0.024
    1UNL    H32   73   0.440  -0.397  -0.142
    1UNL    H33   74   0.203  -0.287  -0.064
    1UNL    H34   75   0.131  -0.525  -0.129
   0.00000   0.00000   0.00000   0.00000   0.00000   0.00000   0.00000   0.00000   0.00000
Generated with MDTraj, t= 81.0
 75
    1UNL     C1    1  -0.292  -0.137  -0.121
    1UNL     C2    2  -0.262  -0.086  -0.004
    1UNL     C3    3  -0.348   0.003   0.085
    1UNL     O1    4  -0.373   0.128   0.010
    1UNL     C4    5  -0.464   0.209   0.071
    1UNL     O2    6  -0.512   0.190   0.183
    1UNL     C5    7  -0.500   0.328  -0.011
    1UNL     C6    8  -0.453   0.332  -0.141
    1UNL     C7    9  -0.491   0.441  -0.216
    1UNL     C8   10  -0.565   0.550  -0.164
    1UNL     O3   11  -0.589   0.661  -0.236
    1UNL     C9   12  -0.608   0.538  -0.034
    1UNL    C10   13  -0.580   0.427   0.043
    1UNL    C11   14  -0.262   0.031   0.215
    1UNL    C12   15  -0.112   0.015   0.165
    1UNL    C13   16  -0.071   0.143   0.099
    1UNL    C14   17  -0.022   0.246   0.197
    1UNL     O4   18   0.094   0.199   0.271
    1UNL    C15   19  -0.120  -0.091   0.046
    1UNL    C16   20  -0.084  -0.226   0.095
    1UNL     O5   21   0.054  -0.228   0.122
    1UNL    C17   22   0.105  -0.360   0.125
    1UNL     O6   23   0.196  -0.383   0.241
    1UNL    C18   24   0.320  -0.326   0.212
    1UNL    C19   25   0.311  -0.179   0.180
    1UNL     O7   26   0.344  -0.139   0.043
    1UNL    C20   27   0.328  -0.008   0.015
    1UNL     O8   28   0.265   0.070   0.090
    1UNL    C21   29   0.357   0.035  -0.121
    1UNL    C22   30   0.279   0.146  -0.181
    1UNL    C23   31   0.304   0.177  -0.309
    1UNL    C24   32   0.383   0.095  -0.386
    1UNL     O9   33   0.409   0.120  -0.514
    1UNL    C25   34   0.449  -0.014  -0.327
    1UNL    C26   35   0.452  -0.037  -0.192
    1UNL    C27   36   0.398  -0.403   0.101
    1UNL    O10   37   0.493  -0.498   0.162
    1UNL    C28   38   0.289  -0.457  -0.005
    1UNL    O11   39   0.355  -0.476  -0.129
    1UNL    C29   40   0.170  -0.374  -0.014
    1UNL    O12   41   0.067  -0.420  -0.103
    1UNL     H1   42  -0.395  -0.139  -0.159
    1UNL     H2   43  -0.222  -0.184  -0.182
    1UNL     H3   44  -0.446  -0.035   0.111
    1UNL     H4   45  -0.386   0.252  -0.171
    1UNL     H5   46  -0.457   0.446  -0.320
    1UNL     H6   47  -0.651   0.714  -0.182
    1UNL     H7   48  -0.680   0.608   0.006
    1UNL     H8   49  -0.650   0.417   0.127
    1UNL     H9   50  -0.280   0.131   0.260
    1UNL    H10   51  -0.294  -0.038   0.298
    1UNL    H11   52  -0.055  -0.016   0.249
    1UNL    H12   53  -0.154   0.175   0.042
    1UNL    H13   54   0.013   0.121   0.039
    1UNL    H14   55  -0.008   0.350   0.162
    1UNL    H15   56  -0.103   0.260   0.271
    1UNL    H16   57   0.165   0.156   0.216
    1UNL    H17   58  -0.060  -0.058  -0.036
    1UNL    H18   59  -0.141  -0.251   0.175
    1UNL    H19   60  -0.095  -0.302   0.013
    1UNL    H20   61   0.020  -0.434   0.141
    1UNL    H21   62   0.367  -0.335   0.308
    1UNL    H22   63   0.210  -0.144   0.206
    1UNL    H23   64   0.394  -0.117   0.230
    1UNL    H24   65   0.216   0.197  -0.112
    1UNL    H25   66   0.269   0.266  -0.362
    1UNL    H26   67   0.479   0.062  -0.557
    1UNL    H27   68   0.512  -0.069  -0.397
    1UNL    H28   69   0.521  -0.115  -0.151
    1UNL    H29   70   0.464  -0.336   0.044
    1UNL    H30   71   0.441  -0.582   0.174
    1UNL    H31   72   0.257  -0.553   0.029
    1UNL    H32   73   0.418  -0.398  -0.142
    1UNL    H33   74   0.208  -0.278  -0.050
    1UNL    H34   75   0.083  -0.512  -0.138
   0.00000   0.00000   0.00000   0.00000   0.00000   0.00000   0.00000   0.00000   0.00000
Generated with MDTraj, t= 82.0
 75
    1UNL     C1    1  -0.289  -0.131  -0.137
    1UNL     C2    2  -0.248  -0.082  -0.022
    1UNL     C3    3  -0.334   0.006   0.064
    1UNL     O1    4  -0.373   0.123  -0.012
    1UNL     C4    5  -0.450   0.211   0.057
    1UNL     O2    6  -0.477   0.193   0.178
    1UNL     C5    7  -0.480   0.334  -0.015
    1UNL     C6    8  -0.435   0.356  -0.143
    1UNL     C7    9  -0.482   0.458  -0.223
    1UNL     C8   10  -0.576   0.542  -0.169
    1UNL     O3   11  -0.624   0.646  -0.248
    1UNL     C9   12  -0.622   0.527  -0.039
    1UNL    C10   13  -0.571   0.423   0.040
    1UNL    C11   14  -0.256   0.035   0.192
    1UNL    C12   15  -0.106   0.021   0.155
    1UNL    C13   16  -0.048   0.159   0.100
    1UNL    C14   17  -0.019   0.256   0.214
    1UNL     O4   18   0.087   0.207   0.295
    1UNL    C15   19  -0.111  -0.098   0.041
    1UNL    C16   20  -0.085  -0.238   0.096
    1UNL     O5   21   0.031  -0.249   0.175
    1UNL    C17   22   0.110  -0.363   0.148
    1UNL     O6   23   0.219  -0.393   0.243
    1UNL    C18   24   0.345  -0.323   0.212
    1UNL    C19   25   0.324  -0.173   0.184
    1UNL     O7   26   0.346  -0.151   0.048
    1UNL    C20   27   0.316  -0.027   0.016
    1UNL     O8   28   0.268   0.059   0.092
    1UNL    C21   29   0.322   0.018  -0.124
    1UNL    C22   30   0.277   0.144  -0.156
    1UNL    C23   31   0.308   0.185  -0.282
    1UNL    C24   32   0.383   0.109  -0.379
    1UNL     O9   33   0.397   0.149  -0.508
    1UNL    C25   34   0.423  -0.017  -0.340
    1UNL    C26   35   0.399  -0.060  -0.213
    1UNL    C27   36   0.411  -0.397   0.098
    1UNL    O10   37   0.498  -0.506   0.143
    1UNL    C28   38   0.293  -0.452   0.003
    1UNL    O11   39   0.317  -0.488  -0.141
    1UNL    C29   40   0.171  -0.363   0.008
    1UNL    O12   41   0.070  -0.400  -0.094
    1UNL     H1   42  -0.380  -0.105  -0.181
    1UNL     H2   43  -0.238  -0.208  -0.198
    1UNL     H3   44  -0.424  -0.044   0.088
    1UNL     H4   45  -0.355   0.290  -0.173
    1UNL     H5   46  -0.438   0.479  -0.313
    1UNL     H6   47  -0.694   0.701  -0.207
    1UNL     H7   48  -0.704   0.592  -0.009
    1UNL     H8   49  -0.621   0.402   0.133
    1UNL     H9   50  -0.289   0.135   0.235
    1UNL    H10   51  -0.280  -0.038   0.271
    1UNL    H11   52  -0.058  -0.020   0.241
    1UNL    H12   53  -0.122   0.207   0.043
    1UNL    H13   54   0.036   0.134   0.040
    1UNL    H14   55   0.019   0.348   0.172
    1UNL    H15   56  -0.100   0.290   0.280
    1UNL    H16   57   0.146   0.160   0.236
    1UNL    H17   58  -0.032  -0.080  -0.027
    1UNL    H18   59  -0.159  -0.261   0.164
    1UNL    H19   60  -0.083  -0.314   0.010
    1UNL    H20   61   0.039  -0.450   0.154
    1UNL    H21   62   0.401  -0.334   0.303
    1UNL    H22   63   0.223  -0.129   0.198
    1UNL    H23   64   0.404  -0.120   0.248
    1UNL    H24   65   0.228   0.209  -0.080
    1UNL    H25   66   0.268   0.274  -0.323
    1UNL    H26   67   0.430   0.082  -0.571
    1UNL    H27   68   0.464  -0.087  -0.410
    1UNL    H28   69   0.441  -0.152  -0.183
    1UNL    H29   70   0.470  -0.328   0.034
    1UNL    H30   71   0.435  -0.577   0.178
    1UNL    H31   72   0.263  -0.542   0.054
    1UNL    H32   73   0.368  -0.415  -0.184
    1UNL    H33   74   0.202  -0.261  -0.015
    1UNL    H34   75   0.093  -0.478  -0.145
   0.00000   0.00000   0.00000   0.00000   0.00000   0.00000   0.00000   0.00000   0.00000
Generated with MDTraj, t= 83.0
 75
    1UNL     C1    1  -0.278  -0.147  -0.138
    1UNL     C2    2  -0.232  -0.087  -0.029
    1UNL     C3    3  -0.323   0.013   0.047
    1UNL     O1    4  -0.345   0.128  -0.033
    1UNL     C4    5  -0.429   0.210   0.037
    1UNL     O2    6  -0.455   0.198   0.160
    1UNL     C5    7  -0.480   0.332  -0.028
    1UNL     C6    8  -0.439   0.360  -0.157
    1UNL     C7    9  -0.488   0.470  -0.228
    1UNL     C8   10  -0.590   0.547  -0.175
    1UNL     O3   11  -0.645   0.656  -0.248
    1UNL     C9   12  -0.640   0.516  -0.040
    1UNL    C10   13  -0.583   0.410   0.029
    1UNL    C11   14  -0.248   0.042   0.174
    1UNL    C12   15  -0.102   0.021   0.144
    1UNL    C13   16  -0.029   0.151   0.095
    1UNL    C14   17   0.032   0.239   0.209
    1UNL     O4   18   0.101   0.165   0.304
    1UNL    C15   19  -0.102  -0.099   0.039
    1UNL    C16   20  -0.083  -0.226   0.121
    1UNL     O5   21   0.048  -0.237   0.178
    1UNL    C17   22   0.118  -0.351   0.154
    1UNL     O6   23   0.219  -0.384   0.254
    1UNL    C18   24   0.353  -0.336   0.218
    1UNL    C19   25   0.351  -0.179   0.193
    1UNL     O7   26   0.356  -0.145   0.052
    1UNL    C20   27   0.300  -0.019   0.025
    1UNL     O8   28   0.250   0.054   0.111
    1UNL    C21   29   0.298   0.025  -0.114
    1UNL    C22   30   0.288   0.159  -0.142
    1UNL    C23   31   0.310   0.213  -0.271
    1UNL    C24   32   0.361   0.128  -0.368
    1UNL     O9   33   0.388   0.158  -0.506
    1UNL    C25   34   0.379  -0.012  -0.340
    1UNL    C26   35   0.341  -0.062  -0.216
    1UNL    C27   36   0.401  -0.407   0.091
    1UNL    O10   37   0.484  -0.518   0.124
    1UNL    C28   38   0.283  -0.459   0.008
    1UNL    O11   39   0.315  -0.478  -0.134
    1UNL    C29   40   0.163  -0.362   0.012
    1UNL    O12   41   0.056  -0.428  -0.069
    1UNL     H1   42  -0.371  -0.135  -0.185
    1UNL     H2   43  -0.216  -0.216  -0.200
    1UNL     H3   44  -0.413  -0.034   0.074
    1UNL     H4   45  -0.358   0.304  -0.203
    1UNL     H5   46  -0.423   0.514  -0.314
    1UNL     H6   47  -0.703   0.703  -0.185
    1UNL     H7   48  -0.730   0.554   0.003
    1UNL     H8   49  -0.622   0.382   0.126
    1UNL     H9   50  -0.258   0.152   0.208
    1UNL    H10   51  -0.277  -0.022   0.258
    1UNL    H11   52  -0.053  -0.007   0.236
    1UNL    H12   53  -0.096   0.205   0.038
    1UNL    H13   54   0.052   0.127   0.028
    1UNL    H14   55   0.105   0.316   0.185
    1UNL    H15   56  -0.050   0.290   0.259
    1UNL    H16   57   0.176   0.107   0.262
    1UNL    H17   58  -0.018  -0.082  -0.024
    1UNL    H18   59  -0.154  -0.225   0.197
    1UNL    H19   60  -0.092  -0.311   0.047
    1UNL    H20   61   0.050  -0.438   0.169
    1UNL    H21   62   0.425  -0.366   0.295
    1UNL    H22   63   0.258  -0.140   0.231
    1UNL    H23   64   0.434  -0.110   0.227
    1UNL    H24   65   0.273   0.226  -0.062
    1UNL    H25   66   0.281   0.315  -0.294
    1UNL    H26   67   0.398   0.077  -0.554
    1UNL    H27   68   0.411  -0.086  -0.411
    1UNL    H28   69   0.363  -0.160  -0.173
    1UNL    H29   70   0.467  -0.340   0.030
    1UNL    H30   71   0.433  -0.603   0.142
    1UNL    H31   72   0.248  -0.550   0.057
    1UNL    H32   73   0.347  -0.397  -0.174
    1UNL    H33   74   0.189  -0.265  -0.032
    1UNL    H34   75   0.080  -0.520  -0.087
   0.00000   0.00000   0.00000   0.00000   0.00000   0.00000   0.00000   0.00000   0.00000
Generated with MDTraj, t= 84.0
 75
    1UNL     C1    1  -0.260  -0.151  -0.127
    1UNL     C2    2  -0.218  -0.077  -0.024
    1UNL     C3    3  -0.303   0.020   0.053
    1UNL     O1    4  -0.334   0.139  -0.029
    1UNL     C4    5  -0.436   0.212   0.022
    1UNL     O2    6  -0.485   0.186   0.134
    1UNL     C5    7  -0.493   0.326  -0.053
    1UNL     C6    8  -0.452   0.364  -0.179
    1UNL     C7    9  -0.500   0.483  -0.238
    1UNL     C8   10  -0.604   0.556  -0.181
    1UNL     O3   11  -0.653   0.668  -0.242
    1UNL     C9   12  -0.646   0.517  -0.058
    1UNL    C10   13  -0.592   0.406   0.002
    1UNL    C11   14  -0.228   0.056   0.184
    1UNL    C12   15  -0.077   0.023   0.159
    1UNL    C13   16  -0.007   0.147   0.112
    1UNL    C14   17   0.017   0.246   0.228
    1UNL     O4   18   0.106   0.180   0.327
    1UNL    C15   19  -0.086  -0.089   0.041
    1UNL    C16   20  -0.062  -0.226   0.113
    1UNL     O5   21   0.068  -0.232   0.170
    1UNL    C17   22   0.108  -0.368   0.168
    1UNL     O6   23   0.213  -0.397   0.255
    1UNL    C18   24   0.346  -0.347   0.215
    1UNL    C19   25   0.331  -0.189   0.189
    1UNL     O7   26   0.318  -0.159   0.046
    1UNL    C20   27   0.320  -0.025   0.022
    1UNL     O8   28   0.314   0.049   0.120
    1UNL    C21   29   0.328   0.028  -0.120
    1UNL    C22   30   0.327   0.164  -0.137
    1UNL    C23   31   0.316   0.229  -0.259
    1UNL    C24   32   0.336   0.141  -0.368
    1UNL     O9   33   0.338   0.179  -0.496
    1UNL    C25   34   0.336  -0.000  -0.345
    1UNL    C26   35   0.322  -0.056  -0.221
    1UNL    C27   36   0.400  -0.421   0.092
    1UNL    O10   37   0.495  -0.518   0.120
    1UNL    C28   38   0.283  -0.481   0.009
    1UNL    O11   39   0.316  -0.497  -0.123
    1UNL    C29   40   0.155  -0.392   0.023
    1UNL    O12   41   0.052  -0.433  -0.071
    1UNL     H1   42  -0.361  -0.150  -0.168
    1UNL     H2   43  -0.201  -0.219  -0.181
    1UNL     H3   44  -0.387  -0.034   0.081
    1UNL     H4   45  -0.372   0.310  -0.227
    1UNL     H5   46  -0.449   0.521  -0.320
    1UNL     H6   47  -0.724   0.714  -0.192
    1UNL     H7   48  -0.733   0.567  -0.018
    1UNL     H8   49  -0.642   0.353   0.083
    1UNL     H9   50  -0.246   0.166   0.207
    1UNL    H10   51  -0.261   0.003   0.274
    1UNL    H11   52  -0.023  -0.015   0.247
    1UNL    H12   53  -0.059   0.197   0.038
    1UNL    H13   54   0.088   0.120   0.069
    1UNL    H14   55   0.067   0.335   0.189
    1UNL    H15   56  -0.070   0.274   0.288
    1UNL    H16   57   0.173   0.133   0.275
    1UNL    H17   58  -0.006  -0.075  -0.029
    1UNL    H18   59  -0.132  -0.254   0.190
    1UNL    H19   60  -0.052  -0.298   0.028
    1UNL    H20   61   0.030  -0.433   0.209
    1UNL    H21   62   0.421  -0.371   0.296
    1UNL    H22   63   0.252  -0.139   0.237
    1UNL    H23   64   0.421  -0.135   0.222
    1UNL    H24   65   0.337   0.237  -0.054
    1UNL    H25   66   0.320   0.337  -0.264
    1UNL    H26   67   0.346   0.106  -0.556
    1UNL    H27   68   0.369  -0.066  -0.425
    1UNL    H28   69   0.333  -0.164  -0.213
    1UNL    H29   70   0.451  -0.342   0.030
    1UNL    H30   71   0.450  -0.602   0.143
    1UNL    H31   72   0.254  -0.580   0.048
    1UNL    H32   73   0.347  -0.419  -0.169
    1UNL    H33   74   0.179  -0.293  -0.016
    1UNL    H34   75   0.063  -0.532  -0.083
   0.00000   0.00000   0.00000   0.00000   0.00000   0.00000   0.00000   0.00000   0.00000
Generated with MDTraj, t= 85.0
 75
    1UNL     C1    1  -0.243  -0.115  -0.142
    1UNL     C2    2  -0.213  -0.054  -0.028
    1UNL     C3    3  -0.305   0.039   0.048
    1UNL     O1    4  -0.342   0.152  -0.034
    1UNL     C4    5  -0.458   0.203   0.018
    1UNL     O2    6  -0.524   0.156   0.114
    1UNL     C5    7  -0.504   0.325  -0.047
    1UNL     C6    8  -0.439   0.362  -0.172
    1UNL     C7    9  -0.487   0.471  -0.240
    1UNL     C8   10  -0.598   0.542  -0.190
    1UNL     O3   11  -0.643   0.651  -0.255
    1UNL     C9   12  -0.647   0.512  -0.063
    1UNL    C10   13  -0.602   0.404   0.006
    1UNL    C11   14  -0.228   0.089   0.173
    1UNL    C12   15  -0.082   0.031   0.166
    1UNL    C13   16   0.009   0.145   0.124
    1UNL    C14   17   0.052   0.237   0.237
    1UNL     O4   18   0.168   0.191   0.304
    1UNL    C15   19  -0.089  -0.077   0.048
    1UNL    C16   20  -0.076  -0.225   0.093
    1UNL     O5   21   0.047  -0.246   0.162
    1UNL    C17   22   0.108  -0.375   0.159
    1UNL     O6   23   0.219  -0.383   0.250
    1UNL    C18   24   0.351  -0.337   0.205
    1UNL    C19   25   0.342  -0.183   0.177
    1UNL     O7   26   0.330  -0.156   0.041
    1UNL    C20   27   0.338  -0.017   0.035
    1UNL     O8   28   0.331   0.063   0.127
    1UNL    C21   29   0.343   0.036  -0.098
    1UNL    C22   30   0.359   0.174  -0.109
    1UNL    C23   31   0.330   0.220  -0.235
    1UNL    C24   32   0.303   0.136  -0.348
    1UNL     O9   33   0.289   0.187  -0.481
    1UNL    C25   34   0.289   0.009  -0.327
    1UNL    C26   35   0.290  -0.045  -0.198
    1UNL    C27   36   0.394  -0.419   0.086
    1UNL    O10   37   0.491  -0.514   0.123
    1UNL    C28   38   0.277  -0.498   0.006
    1UNL    O11   39   0.320  -0.549  -0.109
    1UNL    C29   40   0.155  -0.406   0.008
    1UNL    O12   41   0.051  -0.460  -0.071
    1UNL     H1   42  -0.336  -0.092  -0.200
    1UNL     H2   43  -0.182  -0.187  -0.189
    1UNL     H3   44  -0.391  -0.010   0.076
    1UNL     H4   45  -0.353   0.314  -0.217
    1UNL     H5   46  -0.442   0.510  -0.330
    1UNL     H6   47  -0.733   0.675  -0.223
    1UNL     H7   48  -0.739   0.554  -0.029
    1UNL     H8   49  -0.663   0.362   0.084
    1UNL     H9   50  -0.239   0.199   0.180
    1UNL    H10   51  -0.281   0.052   0.265
    1UNL    H11   52  -0.064  -0.013   0.265
    1UNL    H12   53  -0.042   0.199   0.049
    1UNL    H13   54   0.099   0.108   0.078
    1UNL    H14   55   0.085   0.338   0.206
    1UNL    H15   56  -0.028   0.238   0.313
    1UNL    H16   57   0.239   0.150   0.239
    1UNL    H17   58  -0.007  -0.064  -0.020
    1UNL    H18   59  -0.151  -0.241   0.173
    1UNL    H19   60  -0.076  -0.302   0.010
    1UNL    H20   61   0.041  -0.445   0.205
    1UNL    H21   62   0.413  -0.364   0.298
    1UNL    H22   63   0.259  -0.142   0.227
    1UNL    H23   64   0.431  -0.130   0.209
    1UNL    H24   65   0.397   0.225  -0.026
    1UNL    H25   66   0.336   0.326  -0.254
    1UNL    H26   67   0.305   0.121  -0.549
    1UNL    H27   68   0.280  -0.064  -0.405
    1UNL    H28   69   0.288  -0.149  -0.171
    1UNL    H29   70   0.453  -0.344   0.023
    1UNL    H30   71   0.528  -0.553   0.043
    1UNL    H31   72   0.246  -0.585   0.070
    1UNL    H32   73   0.356  -0.475  -0.161
    1UNL    H33   74   0.176  -0.308  -0.036
    1UNL    H34   75   0.094  -0.521  -0.138
   0.00000   0.00000   0.00000   0.00000   0.00000   0.00000   0.00000   0.00000   0.00000
Generated with MDTraj, t= 86.0
 75
    1UNL     C1    1  -0.234  -0.066  -0.165
    1UNL     C2    2  -0.197  -0.038  -0.040
    1UNL     C3    3  -0.294   0.040   0.054
    1UNL     O1    4  -0.340   0.158  -0.016
    1UNL     C4    5  -0.464   0.198   0.025
    1UNL     O2    6  -0.537   0.157   0.116
    1UNL     C5    7  -0.512   0.320  -0.050
    1UNL     C6    8  -0.442   0.357  -0.169
    1UNL     C7    9  -0.484   0.459  -0.244
    1UNL     C8   10  -0.593   0.538  -0.199
    1UNL     O3   11  -0.630   0.659  -0.260
    1UNL     C9   12  -0.665   0.498  -0.087
    1UNL    C10   13  -0.626   0.388  -0.010
    1UNL    C11   14  -0.205   0.078   0.173
    1UNL    C12   15  -0.061   0.034   0.138
    1UNL    C13   16   0.034   0.159   0.093
    1UNL    C14   17   0.074   0.233   0.219
    1UNL     O4   18   0.140   0.151   0.310
    1UNL    C15   19  -0.068  -0.070   0.031
    1UNL    C16   20  -0.054  -0.212   0.074
    1UNL     O5   21   0.066  -0.234   0.150
    1UNL    C17   22   0.111  -0.367   0.159
    1UNL     O6   23   0.218  -0.388   0.255
    1UNL    C18   24   0.351  -0.344   0.217
    1UNL    C19   25   0.359  -0.192   0.201
    1UNL     O7   26   0.328  -0.158   0.069
    1UNL    C20   27   0.350  -0.021   0.044
    1UNL     O8   28   0.382   0.056   0.131
    1UNL    C21   29   0.316   0.032  -0.091
    1UNL    C22   30   0.369   0.162  -0.116
    1UNL    C23   31   0.334   0.219  -0.233
    1UNL    C24   32   0.277   0.149  -0.336
    1UNL     O9   33   0.253   0.209  -0.453
    1UNL    C25   34   0.232   0.013  -0.315
    1UNL    C26   35   0.253  -0.040  -0.191
    1UNL    C27   36   0.392  -0.417   0.087
    1UNL    O10   37   0.500  -0.507   0.104
    1UNL    C28   38   0.272  -0.512   0.019
    1UNL    O11   39   0.309  -0.562  -0.104
    1UNL    C29   40   0.155  -0.409   0.011
    1UNL    O12   41   0.042  -0.452  -0.062
    1UNL     H1   42  -0.330  -0.038  -0.198
    1UNL     H2   43  -0.179  -0.130  -0.231
    1UNL     H3   44  -0.379  -0.007   0.089
    1UNL     H4   45  -0.357   0.298  -0.200
    1UNL     H5   46  -0.431   0.510  -0.329
    1UNL     H6   47  -0.716   0.695  -0.229
    1UNL     H7   48  -0.764   0.537  -0.071
    1UNL     H8   49  -0.684   0.334   0.067
    1UNL     H9   50  -0.207   0.184   0.190
    1UNL    H10   51  -0.251   0.033   0.267
    1UNL    H11   52  -0.027  -0.017   0.231
    1UNL    H12   53  -0.012   0.229   0.028
    1UNL    H13   54   0.117   0.119   0.040
    1UNL    H14   55   0.146   0.316   0.201
    1UNL    H15   56  -0.013   0.267   0.277
    1UNL    H16   57   0.211   0.111   0.265
    1UNL    H17   58   0.010  -0.050  -0.041
    1UNL    H18   59  -0.141  -0.241   0.141
    1UNL    H19   60  -0.040  -0.277  -0.019
    1UNL    H20   61   0.035  -0.431   0.197
    1UNL    H21   62   0.413  -0.386   0.303
    1UNL    H22   63   0.282  -0.149   0.260
    1UNL    H23   64   0.457  -0.150   0.232
    1UNL    H24   65   0.430   0.228  -0.048
    1UNL    H25   66   0.355   0.321  -0.260
    1UNL    H26   67   0.228   0.134  -0.517
    1UNL    H27   68   0.198  -0.042  -0.402
    1UNL    H28   69   0.229  -0.148  -0.188
    1UNL    H29   70   0.436  -0.342   0.011
    1UNL    H30   71   0.466  -0.581   0.153
    1UNL    H31   72   0.244  -0.602   0.081
    1UNL    H32   73   0.325  -0.489  -0.172
    1UNL    H33   74   0.189  -0.322  -0.047
    1UNL    H34   75   0.019  -0.541  -0.034
   0.00000   0.00000   0.00000   0.00000   0.00000   0.00000   0.00000   0.00000   0.00000
Generated with MDTraj, t= 87.0
 75
    1UNL     C1    1  -0.243  -0.069  -0.181
    1UNL     C2    2  -0.198  -0.027  -0.063
    1UNL     C3    3  -0.277   0.045   0.037
    1UNL     O1    4  -0.322   0.165  -0.022
    1UNL     C4    5  -0.446   0.198   0.014
    1UNL     O2    6  -0.504   0.148   0.107
    1UNL     C5    7  -0.500   0.318  -0.054
    1UNL     C6    8  -0.432   0.366  -0.164
    1UNL     C7    9  -0.478   0.472  -0.232
    1UNL     C8   10  -0.599   0.534  -0.203
    1UNL     O3   11  -0.644   0.641  -0.262
    1UNL     C9   12  -0.673   0.475  -0.096
    1UNL    C10   13  -0.624   0.370  -0.026
    1UNL    C11   14  -0.191   0.073   0.164
    1UNL    C12   15  -0.042   0.037   0.130
    1UNL    C13   16   0.037   0.170   0.101
    1UNL    C14   17   0.102   0.237   0.222
    1UNL     O4   18   0.178   0.149   0.304
    1UNL    C15   19  -0.061  -0.060   0.004
    1UNL    C16   20  -0.050  -0.200   0.067
    1UNL     O5   21   0.076  -0.216   0.136
    1UNL    C17   22   0.108  -0.351   0.150
    1UNL     O6   23   0.211  -0.380   0.254
    1UNL    C18   24   0.341  -0.356   0.217
    1UNL    C19   25   0.364  -0.203   0.195
    1UNL     O7   26   0.335  -0.163   0.064
    1UNL    C20   27   0.343  -0.025   0.061
    1UNL     O8   28   0.375   0.046   0.147
    1UNL    C21   29   0.299   0.041  -0.066
    1UNL    C22   30   0.353   0.161  -0.116
    1UNL    C23   31   0.339   0.225  -0.239
    1UNL    C24   32   0.252   0.157  -0.325
    1UNL     O9   33   0.199   0.218  -0.438
    1UNL    C25   34   0.204   0.036  -0.288
    1UNL    C26   35   0.225  -0.028  -0.167
    1UNL    C27   36   0.388  -0.433   0.090
    1UNL    O10   37   0.495  -0.526   0.122
    1UNL    C28   38   0.270  -0.510   0.025
    1UNL    O11   39   0.296  -0.572  -0.097
    1UNL    C29   40   0.151  -0.408   0.013
    1UNL    O12   41   0.044  -0.469  -0.057
    1UNL     H1   42  -0.345  -0.060  -0.201
    1UNL     H2   43  -0.178  -0.132  -0.248
    1UNL     H3   44  -0.359  -0.013   0.061
    1UNL     H4   45  -0.332   0.328  -0.177
    1UNL     H5   46  -0.419   0.520  -0.301
    1UNL     H6   47  -0.728   0.680  -0.227
    1UNL     H7   48  -0.773   0.503  -0.066
    1UNL     H8   49  -0.681   0.317   0.043
    1UNL     H9   50  -0.212   0.171   0.202
    1UNL    H10   51  -0.227   0.002   0.246
    1UNL    H11   52   0.018  -0.016   0.210
    1UNL    H12   53  -0.028   0.237   0.048
    1UNL    H13   54   0.119   0.150   0.037
    1UNL    H14   55   0.177   0.308   0.180
    1UNL    H15   56   0.033   0.290   0.290
    1UNL    H16   57   0.266   0.118   0.259
    1UNL    H17   58   0.019  -0.044  -0.069
    1UNL    H18   59  -0.125  -0.216   0.154
    1UNL    H19   60  -0.051  -0.282  -0.011
    1UNL    H20   61   0.022  -0.398   0.193
    1UNL    H21   62   0.403  -0.386   0.306
    1UNL    H22   63   0.301  -0.153   0.269
    1UNL    H23   64   0.470  -0.174   0.224
    1UNL    H24   65   0.418   0.201  -0.045
    1UNL    H25   66   0.365   0.329  -0.254
    1UNL    H26   67   0.148   0.154  -0.502
    1UNL    H27   68   0.128  -0.001  -0.356
    1UNL    H28   69   0.206  -0.127  -0.148
    1UNL    H29   70   0.433  -0.351   0.020
    1UNL    H30   71   0.454  -0.610   0.152
    1UNL    H31   72   0.232  -0.585   0.101
    1UNL    H32   73   0.324  -0.499  -0.161
    1UNL    H33   74   0.179  -0.317  -0.043
    1UNL    H34   75   0.071  -0.499  -0.144
   0.00000   0.00000   0.00000   0.00000   0.00000   0.00000   0.00000   0.00000   0.00000
Generated with MDTraj, t= 88.0
 75
    1UNL     C1    1  -0.228  -0.083  -0.167
    1UNL     C2    2  -0.176  -0.031  -0.057
    1UNL     C3    3  -0.265   0.054   0.026
    1UNL     O1    4  -0.304   0.177  -0.041
    1UNL     C4    5  -0.436   0.211   0.005
    1UNL     O2    6  -0.494   0.153   0.096
    1UNL     C5    7  -0.491   0.326  -0.061
    1UNL     C6    8  -0.423   0.401  -0.156
    1UNL     C7    9  -0.479   0.508  -0.223
    1UNL     C8   10  -0.617   0.536  -0.201
    1UNL     O3   11  -0.684   0.629  -0.280
    1UNL     C9   12  -0.684   0.472  -0.092
    1UNL    C10   13  -0.621   0.371  -0.027
    1UNL    C11   14  -0.191   0.086   0.159
    1UNL    C12   15  -0.046   0.041   0.138
    1UNL    C13   16   0.037   0.162   0.107
    1UNL    C14   17   0.083   0.246   0.224
    1UNL     O4   18   0.173   0.184   0.315
    1UNL    C15   19  -0.046  -0.056   0.014
    1UNL    C16   20  -0.035  -0.202   0.058
    1UNL     O5   21   0.078  -0.221   0.137
    1UNL    C17   22   0.107  -0.359   0.141
    1UNL     O6   23   0.208  -0.388   0.246
    1UNL    C18   24   0.340  -0.358   0.215
    1UNL    C19   25   0.362  -0.204   0.179
    1UNL     O7   26   0.353  -0.176   0.048
    1UNL    C20   27   0.370  -0.043   0.050
    1UNL     O8   28   0.394   0.029   0.141
    1UNL    C21   29   0.321   0.033  -0.079
    1UNL    C22   30   0.347   0.172  -0.099
    1UNL    C23   31   0.300   0.236  -0.213
    1UNL    C24   32   0.218   0.168  -0.313
    1UNL     O9   33   0.152   0.223  -0.418
    1UNL    C25   34   0.189   0.027  -0.287
    1UNL    C26   35   0.251  -0.030  -0.179
    1UNL    C27   36   0.387  -0.448   0.097
    1UNL    O10   37   0.479  -0.549   0.151
    1UNL    C28   38   0.274  -0.514   0.027
    1UNL    O11   39   0.304  -0.585  -0.094
    1UNL    C29   40   0.155  -0.412   0.010
    1UNL    O12   41   0.053  -0.469  -0.067
    1UNL     H1   42  -0.321  -0.052  -0.207
    1UNL     H2   43  -0.170  -0.151  -0.223
    1UNL     H3   44  -0.358   0.004   0.035
    1UNL     H4   45  -0.320   0.381  -0.175
    1UNL     H5   46  -0.423   0.589  -0.279
    1UNL     H6   47  -0.777   0.652  -0.256
    1UNL     H7   48  -0.783   0.504  -0.063
    1UNL     H8   49  -0.672   0.302   0.042
    1UNL     H9   50  -0.196   0.191   0.183
    1UNL    H10   51  -0.235   0.023   0.240
    1UNL    H11   52   0.013  -0.015   0.218
    1UNL    H12   53  -0.016   0.223   0.034
    1UNL    H13   54   0.125   0.121   0.062
    1UNL    H14   55   0.131   0.339   0.191
    1UNL    H15   56  -0.005   0.264   0.285
    1UNL    H16   57   0.236   0.124   0.273
    1UNL    H17   58   0.038  -0.028  -0.058
    1UNL    H18   59  -0.128  -0.243   0.117
    1UNL    H19   60  -0.013  -0.264  -0.036
    1UNL    H20   61   0.021  -0.419   0.170
    1UNL    H21   62   0.392  -0.386   0.307
    1UNL    H22   63   0.300  -0.133   0.241
    1UNL    H23   64   0.470  -0.185   0.213
    1UNL    H24   65   0.410   0.220  -0.019
    1UNL    H25   66   0.315   0.342  -0.225
    1UNL    H26   67   0.137   0.154  -0.491
    1UNL    H27   68   0.128  -0.032  -0.355
    1UNL    H28   69   0.238  -0.142  -0.178
    1UNL    H29   70   0.445  -0.395   0.010
    1UNL    H30   71   0.438  -0.615   0.215
    1UNL    H31   72   0.237  -0.597   0.093
    1UNL    H32   73   0.376  -0.653  -0.079
    1UNL    H33   74   0.197  -0.332  -0.054
    1UNL    H34   75   0.059  -0.568  -0.061
   0.00000   0.00000   0.00000   0.00000   0.00000   0.00000   0.00000   0.00000   0.00000
Generated with MDTraj, t= 89.0
 75
    1UNL     C1    1  -0.203  -0.063  -0.178
    1UNL     C2    2  -0.173  -0.023  -0.055
    1UNL     C3    3  -0.262   0.061   0.028
    1UNL     O1    4  -0.310   0.178  -0.047
    1UNL     C4    5  -0.429   0.227   0.006
    1UNL     O2    6  -0.480   0.181   0.105
    1UNL     C5    7  -0.494   0.345  -0.067
    1UNL     C6    8  -0.427   0.423  -0.162
    1UNL     C7    9  -0.492   0.524  -0.227
    1UNL     C8   10  -0.631   0.546  -0.203
    1UNL     O3   11  -0.700   0.640  -0.269
    1UNL     C9   12  -0.695   0.465  -0.104
    1UNL    C10   13  -0.632   0.365  -0.045
    1UNL    C11   14  -0.187   0.097   0.161
    1UNL    C12   15  -0.045   0.046   0.133
    1UNL    C13   16   0.046   0.166   0.089
    1UNL    C14   17   0.091   0.241   0.209
    1UNL     O4   18   0.165   0.155   0.289
    1UNL    C15   19  -0.047  -0.056   0.024
    1UNL    C16   20  -0.028  -0.202   0.055
    1UNL     O5   21   0.091  -0.223   0.133
    1UNL    C17   22   0.129  -0.360   0.142
    1UNL     O6   23   0.222  -0.382   0.257
    1UNL    C18   24   0.358  -0.367   0.224
    1UNL    C19   25   0.389  -0.221   0.186
    1UNL     O7   26   0.345  -0.184   0.063
    1UNL    C20   27   0.346  -0.046   0.048
    1UNL     O8   28   0.358   0.025   0.140
    1UNL    C21   29   0.317   0.017  -0.081
    1UNL    C22   30   0.323   0.161  -0.089
    1UNL    C23   31   0.259   0.228  -0.189
    1UNL    C24   32   0.200   0.155  -0.291
    1UNL     O9   33   0.127   0.225  -0.391
    1UNL    C25   34   0.207   0.020  -0.304
    1UNL    C26   35   0.267  -0.045  -0.197
    1UNL    C27   36   0.394  -0.463   0.109
    1UNL    O10   37   0.476  -0.567   0.157
    1UNL    C28   38   0.276  -0.523   0.031
    1UNL    O11   39   0.310  -0.590  -0.089
    1UNL    C29   40   0.175  -0.409   0.005
    1UNL    O12   41   0.071  -0.457  -0.077
    1UNL     H1   42  -0.295  -0.026  -0.231
    1UNL     H2   43  -0.138  -0.122  -0.237
    1UNL     H3   44  -0.350  -0.001   0.043
    1UNL     H4   45  -0.323   0.397  -0.189
    1UNL     H5   46  -0.442   0.587  -0.293
    1UNL     H6   47  -0.791   0.636  -0.233
    1UNL     H7   48  -0.803   0.467  -0.100
    1UNL     H8   49  -0.679   0.291   0.015
    1UNL     H9   50  -0.185   0.207   0.178
    1UNL    H10   51  -0.227   0.042   0.248
    1UNL    H11   52   0.002  -0.004   0.225
    1UNL    H12   53  -0.007   0.226   0.016
    1UNL    H13   54   0.138   0.126   0.046
    1UNL    H14   55   0.154   0.326   0.184
    1UNL    H15   56   0.012   0.269   0.280
    1UNL    H16   57   0.237   0.121   0.234
    1UNL    H17   58   0.039  -0.031  -0.050
    1UNL    H18   59  -0.119  -0.237   0.120
    1UNL    H19   60  -0.019  -0.260  -0.042
    1UNL    H20   61   0.037  -0.410   0.173
    1UNL    H21   62   0.403  -0.385   0.321
    1UNL    H22   63   0.346  -0.152   0.262
    1UNL    H23   64   0.500  -0.196   0.186
    1UNL    H24   65   0.381   0.207  -0.013
    1UNL    H25   66   0.257   0.335  -0.209
    1UNL    H26   67   0.108   0.159  -0.460
    1UNL    H27   68   0.169  -0.025  -0.392
    1UNL    H28   69   0.287  -0.147  -0.215
    1UNL    H29   70   0.460  -0.403   0.034
    1UNL    H30   71   0.416  -0.624   0.215
    1UNL    H31   72   0.235  -0.593   0.105
    1UNL    H32   73   0.401  -0.623  -0.078
    1UNL    H33   74   0.224  -0.321  -0.040
    1UNL    H34   75   0.078  -0.556  -0.096
   0.00000   0.00000   0.00000   0.00000   0.00000   0.00000   0.00000   0.00000   0.00000
Generated with MDTraj, t= 90.0
 75
    1UNL     C1    1  -0.202  -0.049  -0.200
    1UNL     C2    2  -0.172  -0.009  -0.078
    1UNL     C3    3  -0.270   0.065   0.008
    1UNL     O1    4  -0.324   0.174  -0.059
    1UNL     C4    5  -0.426   0.224   0.012
    1UNL     O2    6  -0.458   0.192   0.122
    1UNL     C5    7  -0.495   0.337  -0.061
    1UNL     C6    8  -0.427   0.414  -0.155
    1UNL     C7    9  -0.495   0.504  -0.227
    1UNL     C8   10  -0.628   0.535  -0.203
    1UNL     O3   11  -0.689   0.651  -0.249
    1UNL     C9   12  -0.692   0.452  -0.115
    1UNL    C10   13  -0.627   0.359  -0.043
    1UNL    C11   14  -0.201   0.105   0.143
    1UNL    C12   15  -0.046   0.051   0.127
    1UNL    C13   16   0.045   0.175   0.100
    1UNL    C14   17   0.080   0.241   0.234
    1UNL     O4   18   0.172   0.154   0.302
    1UNL    C15   19  -0.046  -0.049   0.010
    1UNL    C16   20  -0.043  -0.196   0.057
    1UNL     O5   21   0.081  -0.216   0.133
    1UNL    C17   22   0.126  -0.353   0.147
    1UNL     O6   23   0.214  -0.372   0.256
    1UNL    C18   24   0.361  -0.363   0.227
    1UNL    C19   25   0.408  -0.223   0.192
    1UNL     O7   26   0.373  -0.186   0.065
    1UNL    C20   27   0.365  -0.048   0.050
    1UNL     O8   28   0.367   0.029   0.139
    1UNL    C21   29   0.318   0.009  -0.081
    1UNL    C22   30   0.308   0.150  -0.094
    1UNL    C23   31   0.237   0.219  -0.194
    1UNL    C24   32   0.190   0.141  -0.301
    1UNL     O9   33   0.141   0.207  -0.404
    1UNL    C25   34   0.193   0.005  -0.278
    1UNL    C26   35   0.246  -0.068  -0.173
    1UNL    C27   36   0.402  -0.464   0.108
    1UNL    O10   37   0.472  -0.578   0.158
    1UNL    C28   38   0.277  -0.522   0.027
    1UNL    O11   39   0.316  -0.578  -0.096
    1UNL    C29   40   0.177  -0.403   0.007
    1UNL    O12   41   0.075  -0.424  -0.087
    1UNL     H1   42  -0.295  -0.034  -0.249
    1UNL     H2   43  -0.128  -0.103  -0.249
    1UNL     H3   44  -0.363   0.010   0.035
    1UNL     H4   45  -0.324   0.388  -0.167
    1UNL     H5   46  -0.439   0.558  -0.303
    1UNL     H6   47  -0.783   0.654  -0.219
    1UNL     H7   48  -0.795   0.478  -0.113
    1UNL     H8   49  -0.679   0.284   0.017
    1UNL     H9   50  -0.208   0.215   0.165
    1UNL    H10   51  -0.248   0.051   0.225
    1UNL    H11   52  -0.010  -0.006   0.219
    1UNL    H12   53  -0.008   0.242   0.031
    1UNL    H13   54   0.140   0.147   0.046
    1UNL    H14   55   0.144   0.327   0.217
    1UNL    H15   56  -0.013   0.268   0.289
    1UNL    H16   57   0.251   0.110   0.249
    1UNL    H17   58   0.051  -0.040  -0.052
    1UNL    H18   59  -0.126  -0.209   0.137
    1UNL    H19   60  -0.054  -0.272  -0.025
    1UNL    H20   61   0.035  -0.415   0.169
    1UNL    H21   62   0.405  -0.398   0.319
    1UNL    H22   63   0.356  -0.144   0.248
    1UNL    H23   64   0.515  -0.210   0.207
    1UNL    H24   65   0.357   0.216  -0.023
    1UNL    H25   66   0.245   0.326  -0.196
    1UNL    H26   67   0.107   0.139  -0.461
    1UNL    H27   68   0.149  -0.052  -0.362
    1UNL    H28   69   0.240  -0.175  -0.178
    1UNL    H29   70   0.482  -0.415   0.042
    1UNL    H30   71   0.399  -0.625   0.205
    1UNL    H31   72   0.220  -0.596   0.083
    1UNL    H32   73   0.409  -0.601  -0.094
    1UNL    H33   74   0.237  -0.324  -0.042
    1UNL    H34   75   0.063  -0.518  -0.113
   0.00000   0.00000   0.00000   0.00000   0.00000   0.00000   0.00000   0.00000   0.00000
Generated with MDTraj, t= 91.0
 75
    1UNL     C1    1  -0.192  -0.057  -0.195
    1UNL     C2    2  -0.162  -0.015  -0.076
    1UNL     C3    3  -0.268   0.041   0.009
    1UNL     O1    4  -0.327   0.157  -0.063
    1UNL     C4    5  -0.438   0.212   0.004
    1UNL     O2    6  -0.477   0.170   0.110
    1UNL     C5    7  -0.494   0.335  -0.058
    1UNL     C6    8  -0.424   0.410  -0.156
    1UNL     C7    9  -0.485   0.513  -0.221
    1UNL     C8   10  -0.625   0.546  -0.192
    1UNL     O3   11  -0.697   0.639  -0.266
    1UNL     C9   12  -0.686   0.478  -0.088
    1UNL    C10   13  -0.625   0.374  -0.021
    1UNL    C11   14  -0.205   0.071   0.147
    1UNL    C12   15  -0.052   0.046   0.130
    1UNL    C13   16   0.039   0.179   0.127
    1UNL    C14   17   0.096   0.239   0.252
    1UNL     O4   18   0.158   0.151   0.342
    1UNL    C15   19  -0.035  -0.034   0.006
    1UNL    C16   20  -0.022  -0.183   0.045
    1UNL     O5   21   0.094  -0.204   0.125
    1UNL    C17   22   0.122  -0.349   0.148
    1UNL     O6   23   0.211  -0.378   0.253
    1UNL    C18   24   0.347  -0.356   0.215
    1UNL    C19   25   0.378  -0.213   0.191
    1UNL     O7   26   0.347  -0.171   0.065
    1UNL    C20   27   0.356  -0.032   0.056
    1UNL     O8   28   0.381   0.038   0.148
    1UNL    C21   29   0.317   0.024  -0.085
    1UNL    C22   30   0.340   0.157  -0.112
    1UNL    C23   31   0.277   0.203  -0.231
    1UNL    C24   32   0.212   0.116  -0.313
    1UNL     O9   33   0.139   0.169  -0.424
    1UNL    C25   34   0.193  -0.021  -0.286
    1UNL    C26   35   0.245  -0.059  -0.167
    1UNL    C27   36   0.394  -0.460   0.105
    1UNL    O10   37   0.457  -0.570   0.169
    1UNL    C28   38   0.272  -0.512   0.017
    1UNL    O11   39   0.313  -0.564  -0.107
    1UNL    C29   40   0.175  -0.390   0.005
    1UNL    O12   41   0.077  -0.400  -0.091
    1UNL     H1   42  -0.289  -0.043  -0.237
    1UNL     H2   43  -0.113  -0.110  -0.256
    1UNL     H3   44  -0.357  -0.029   0.018
    1UNL     H4   45  -0.321   0.377  -0.178
    1UNL     H5   46  -0.440   0.564  -0.309
    1UNL     H6   47  -0.783   0.637  -0.219
    1UNL     H7   48  -0.789   0.500  -0.062
    1UNL     H8   49  -0.687   0.322   0.049
    1UNL     H9   50  -0.215   0.181   0.172
    1UNL    H10   51  -0.257   0.016   0.225
    1UNL    H11   52  -0.024  -0.010   0.224
    1UNL    H12   53  -0.010   0.257   0.066
    1UNL    H13   54   0.126   0.155   0.062
    1UNL    H14   55   0.152   0.333   0.235
    1UNL    H15   56   0.010   0.265   0.317
    1UNL    H16   57   0.233   0.113   0.296
    1UNL    H17   58   0.059   0.000  -0.045
    1UNL    H18   59  -0.116  -0.217   0.102
    1UNL    H19   60  -0.011  -0.247  -0.044
    1UNL    H20   61   0.025  -0.404   0.175
    1UNL    H21   62   0.396  -0.392   0.308
    1UNL    H22   63   0.326  -0.152   0.263
    1UNL    H23   64   0.479  -0.182   0.198
    1UNL    H24   65   0.416   0.220  -0.069
    1UNL    H25   66   0.282   0.309  -0.256
    1UNL    H26   67   0.074   0.109  -0.454
    1UNL    H27   68   0.133  -0.077  -0.353
    1UNL    H28   69   0.232  -0.164  -0.129
    1UNL    H29   70   0.476  -0.416   0.040
    1UNL    H30   71   0.390  -0.620   0.216
    1UNL    H31   72   0.213  -0.588   0.064
    1UNL    H32   73   0.407  -0.592  -0.109
    1UNL    H33   74   0.239  -0.308  -0.034
    1UNL    H34   75   0.056  -0.494  -0.101
   0.00000   0.00000   0.00000   0.00000   0.00000   0.00000   0.00000   0.00000   0.00000
Generated with MDTraj, t= 92.0
 75
    1UNL     C1    1  -0.197  -0.030  -0.201
    1UNL     C2    2  -0.164   0.003  -0.076
    1UNL     C3    3  -0.263   0.069   0.019
    1UNL     O1    4  -0.310   0.193  -0.036
    1UNL     C4    5  -0.440   0.209   0.008
    1UNL     O2    6  -0.490   0.140   0.092
    1UNL     C5    7  -0.502   0.325  -0.058
    1UNL     C6    8  -0.445   0.382  -0.169
    1UNL     C7    9  -0.498   0.491  -0.234
    1UNL     C8   10  -0.616   0.544  -0.182
    1UNL     O3   11  -0.679   0.646  -0.250
    1UNL     C9   12  -0.675   0.491  -0.065
    1UNL    C10   13  -0.620   0.377  -0.007
    1UNL    C11   14  -0.201   0.085   0.162
    1UNL    C12   15  -0.049   0.055   0.144
    1UNL    C13   16   0.031   0.181   0.133
    1UNL    C14   17   0.088   0.225   0.265
    1UNL     O4   18   0.155   0.119   0.330
    1UNL    C15   19  -0.046  -0.032   0.016
    1UNL    C16   20  -0.045  -0.184   0.051
    1UNL     O5   21   0.070  -0.212   0.129
    1UNL    C17   22   0.114  -0.354   0.140
    1UNL     O6   23   0.203  -0.378   0.251
    1UNL    C18   24   0.338  -0.349   0.225
    1UNL    C19   25   0.361  -0.200   0.192
    1UNL     O7   26   0.370  -0.174   0.055
    1UNL    C20   27   0.340  -0.037   0.046
    1UNL     O8   28   0.344   0.040   0.136
    1UNL    C21   29   0.299   0.009  -0.089
    1UNL    C22   30   0.324   0.139  -0.113
    1UNL    C23   31   0.284   0.195  -0.234
    1UNL    C24   32   0.230   0.119  -0.341
    1UNL     O9   33   0.182   0.177  -0.459
    1UNL    C25   34   0.212  -0.016  -0.316
    1UNL    C26   35   0.256  -0.066  -0.192
    1UNL    C27   36   0.393  -0.446   0.117
    1UNL    O10   37   0.470  -0.547   0.173
    1UNL    C28   38   0.283  -0.508   0.029
    1UNL    O11   39   0.335  -0.555  -0.093
    1UNL    C29   40   0.177  -0.393   0.005
    1UNL    O12   41   0.079  -0.436  -0.086
    1UNL     H1   42  -0.279   0.011  -0.247
    1UNL     H2   43  -0.138  -0.097  -0.260
    1UNL     H3   44  -0.348  -0.011   0.013
    1UNL     H4   45  -0.368   0.320  -0.206
    1UNL     H5   46  -0.450   0.535  -0.313
    1UNL     H6   47  -0.753   0.688  -0.200
    1UNL     H7   48  -0.762   0.545  -0.031
    1UNL     H8   49  -0.671   0.337   0.081
    1UNL     H9   50  -0.223   0.185   0.212
    1UNL    H10   51  -0.235   0.013   0.236
    1UNL    H11   52  -0.008  -0.002   0.233
    1UNL    H12   53  -0.022   0.266   0.079
    1UNL    H13   54   0.113   0.158   0.064
    1UNL    H14   55   0.160   0.306   0.250
    1UNL    H15   56   0.006   0.265   0.328
    1UNL    H16   57   0.221   0.080   0.266
    1UNL    H17   58   0.049  -0.015  -0.036
    1UNL    H18   59  -0.129  -0.211   0.122
    1UNL    H19   60  -0.057  -0.250  -0.033
    1UNL    H20   61   0.022  -0.414   0.174
    1UNL    H21   62   0.392  -0.370   0.320
    1UNL    H22   63   0.289  -0.130   0.232
    1UNL    H23   64   0.455  -0.169   0.231
    1UNL    H24   65   0.393   0.193  -0.045
    1UNL    H25   66   0.307   0.299  -0.244
    1UNL    H26   67   0.141   0.105  -0.508
    1UNL    H27   68   0.163  -0.097  -0.372
    1UNL    H28   69   0.248  -0.171  -0.172
    1UNL    H29   70   0.453  -0.377   0.050
    1UNL    H30   71   0.418  -0.611   0.221
    1UNL    H31   72   0.242  -0.589   0.086
    1UNL    H32   73   0.436  -0.564  -0.082
    1UNL    H33   74   0.223  -0.305  -0.040
    1UNL    H34   75   0.117  -0.514  -0.136
   0.00000   0.00000   0.00000   0.00000   0.00000   0.00000   0.00000   0.00000   0.00000
Generated with MDTraj, t= 93.0
 75
    1UNL     C1    1  -0.176   0.003  -0.187
    1UNL     C2    2  -0.159  -0.005  -0.059
    1UNL     C3    3  -0.268   0.060   0.033
    1UNL     O1    4  -0.324   0.179  -0.021
    1UNL     C4    5  -0.454   0.209   0.010
    1UNL     O2    6  -0.520   0.149   0.090
    1UNL     C5    7  -0.506   0.327  -0.063
    1UNL     C6    8  -0.464   0.376  -0.180
    1UNL     C7    9  -0.525   0.485  -0.239
    1UNL     C8   10  -0.630   0.553  -0.183
    1UNL     O3   11  -0.675   0.675  -0.232
    1UNL     C9   12  -0.673   0.506  -0.053
    1UNL    C10   13  -0.612   0.396   0.001
    1UNL    C11   14  -0.197   0.081   0.163
    1UNL    C12   15  -0.045   0.034   0.149
    1UNL    C13   16   0.038   0.158   0.132
    1UNL    C14   17   0.071   0.213   0.277
    1UNL     O4   18   0.172   0.132   0.339
    1UNL    C15   19  -0.038  -0.047   0.017
    1UNL    C16   20  -0.020  -0.198   0.034
    1UNL     O5   21   0.069  -0.224   0.142
    1UNL    C17   22   0.110  -0.360   0.150
    1UNL     O6   23   0.200  -0.384   0.258
    1UNL    C18   24   0.334  -0.347   0.235
    1UNL    C19   25   0.340  -0.190   0.197
    1UNL     O7   26   0.320  -0.173   0.057
    1UNL    C20   27   0.320  -0.031   0.033
    1UNL     O8   28   0.330   0.044   0.126
    1UNL    C21   29   0.286   0.013  -0.109
    1UNL    C22   30   0.292   0.149  -0.133
    1UNL    C23   31   0.285   0.209  -0.256
    1UNL    C24   32   0.261   0.121  -0.364
    1UNL     O9   33   0.234   0.177  -0.487
    1UNL    C25   34   0.261  -0.017  -0.342
    1UNL    C26   35   0.279  -0.075  -0.211
    1UNL    C27   36   0.404  -0.434   0.119
    1UNL    O10   37   0.483  -0.542   0.171
    1UNL    C28   38   0.295  -0.506   0.042
    1UNL    O11   39   0.340  -0.555  -0.083
    1UNL    C29   40   0.175  -0.409   0.017
    1UNL    O12   41   0.077  -0.463  -0.077
    1UNL     H1   42  -0.277   0.029  -0.230
    1UNL     H2   43  -0.096  -0.017  -0.254
    1UNL     H3   44  -0.356  -0.018   0.042
    1UNL     H4   45  -0.383   0.324  -0.233
    1UNL     H5   46  -0.483   0.516  -0.337
    1UNL     H6   47  -0.740   0.708  -0.167
    1UNL     H7   48  -0.732   0.568   0.014
    1UNL     H8   49  -0.646   0.366   0.097
    1UNL     H9   50  -0.206   0.187   0.201
    1UNL    H10   51  -0.228   0.022   0.251
    1UNL    H11   52  -0.006  -0.031   0.230
    1UNL    H12   53  -0.016   0.228   0.058
    1UNL    H13   54   0.134   0.139   0.085
    1UNL    H14   55   0.110   0.315   0.262
    1UNL    H15   56  -0.022   0.213   0.339
    1UNL    H16   57   0.242   0.107   0.268
    1UNL    H17   58   0.050  -0.015  -0.036
    1UNL    H18   59  -0.115  -0.252   0.051
    1UNL    H19   60   0.019  -0.246  -0.050
    1UNL    H20   61   0.019  -0.427   0.169
    1UNL    H21   62   0.384  -0.374   0.331
    1UNL    H22   63   0.256  -0.135   0.244
    1UNL    H23   64   0.431  -0.138   0.223
    1UNL    H24   65   0.317   0.208  -0.051
    1UNL    H25   66   0.310   0.312  -0.270
    1UNL    H26   67   0.235   0.125  -0.573
    1UNL    H27   68   0.216  -0.078  -0.420
    1UNL    H28   69   0.282  -0.180  -0.210
    1UNL    H29   70   0.449  -0.364   0.046
    1UNL    H30   71   0.440  -0.614   0.223
    1UNL    H31   72   0.265  -0.593   0.098
    1UNL    H32   73   0.440  -0.545  -0.086
    1UNL    H33   74   0.212  -0.325  -0.042
    1UNL    H34   75   0.118  -0.545  -0.113
   0.00000   0.00000   0.00000   0.00000   0.00000   0.00000   0.00000   0.00000   0.00000
Generated with MDTraj, t= 94.0
 75
    1UNL     C1    1  -0.154  -0.027  -0.200
    1UNL     C2    2  -0.164  -0.006  -0.070
    1UNL     C3    3  -0.272   0.052   0.021
    1UNL     O1    4  -0.320   0.168  -0.044
    1UNL     C4    5  -0.441   0.204   0.013
    1UNL     O2    6  -0.502   0.136   0.095
    1UNL     C5    7  -0.489   0.334  -0.037
    1UNL     C6    8  -0.451   0.370  -0.163
    1UNL     C7    9  -0.519   0.478  -0.228
    1UNL     C8   10  -0.620   0.546  -0.158
    1UNL     O3   11  -0.674   0.663  -0.217
    1UNL     C9   12  -0.662   0.504  -0.031
    1UNL    C10   13  -0.598   0.395   0.030
    1UNL    C11   14  -0.223   0.074   0.160
    1UNL    C12   15  -0.074   0.038   0.152
    1UNL    C13   16   0.016   0.162   0.148
    1UNL    C14   17   0.057   0.212   0.282
    1UNL     O4   18   0.159   0.139   0.337
    1UNL    C15   19  -0.054  -0.047   0.024
    1UNL    C16   20  -0.059  -0.195   0.060
    1UNL     O5   21   0.060  -0.223   0.131
    1UNL    C17   22   0.098  -0.358   0.140
    1UNL     O6   23   0.192  -0.368   0.256
    1UNL    C18   24   0.321  -0.333   0.231
    1UNL    C19   25   0.340  -0.182   0.183
    1UNL     O7   26   0.334  -0.158   0.046
    1UNL    C20   27   0.332  -0.015   0.031
    1UNL     O8   28   0.323   0.057   0.124
    1UNL    C21   29   0.311   0.033  -0.112
    1UNL    C22   30   0.279   0.168  -0.142
    1UNL    C23   31   0.281   0.195  -0.275
    1UNL    C24   32   0.287   0.107  -0.374
    1UNL     O9   33   0.280   0.153  -0.507
    1UNL    C25   34   0.301  -0.030  -0.341
    1UNL    C26   35   0.319  -0.068  -0.211
    1UNL    C27   36   0.386  -0.419   0.113
    1UNL    O10   37   0.486  -0.503   0.176
    1UNL    C28   38   0.276  -0.498   0.034
    1UNL    O11   39   0.329  -0.556  -0.082
    1UNL    C29   40   0.155  -0.408  -0.002
    1UNL    O12   41   0.061  -0.488  -0.078
    1UNL     H1   42  -0.238  -0.001  -0.263
    1UNL     H2   43  -0.079  -0.085  -0.237
    1UNL     H3   44  -0.361  -0.027   0.019
    1UNL     H4   45  -0.386   0.306  -0.221
    1UNL     H5   46  -0.507   0.499  -0.332
    1UNL     H6   47  -0.740   0.707  -0.159
    1UNL     H7   48  -0.733   0.566   0.019
    1UNL     H8   49  -0.632   0.354   0.126
    1UNL     H9   50  -0.221   0.182   0.179
    1UNL    H10   51  -0.297   0.033   0.234
    1UNL    H11   52  -0.050  -0.022   0.241
    1UNL    H12   53  -0.039   0.247   0.093
    1UNL    H13   54   0.102   0.138   0.085
    1UNL    H14   55   0.088   0.317   0.274
    1UNL    H15   56  -0.029   0.201   0.350
    1UNL    H16   57   0.212   0.110   0.264
    1UNL    H17   58   0.042  -0.026  -0.014
    1UNL    H18   59  -0.147  -0.222   0.117
    1UNL    H19   60  -0.070  -0.257  -0.022
    1UNL    H20   61   0.006  -0.417   0.169
    1UNL    H21   62   0.386  -0.355   0.318
    1UNL    H22   63   0.254  -0.127   0.230
    1UNL    H23   64   0.438  -0.143   0.218
    1UNL    H24   65   0.286   0.243  -0.060
    1UNL    H25   66   0.292   0.299  -0.311
    1UNL    H26   67   0.303   0.068  -0.560
    1UNL    H27   68   0.302  -0.111  -0.411
    1UNL    H28   69   0.339  -0.176  -0.178
    1UNL    H29   70   0.434  -0.350   0.045
    1UNL    H30   71   0.439  -0.559   0.248
    1UNL    H31   72   0.240  -0.581   0.096
    1UNL    H32   73   0.383  -0.634  -0.063
    1UNL    H33   74   0.177  -0.317  -0.058
    1UNL    H34   75   0.110  -0.557  -0.122
   0.00000   0.00000   0.00000   0.00000   0.00000   0.00000   0.00000   0.00000   0.00000
Generated with MDTraj, t= 95.0
 75
    1UNL     C1    1  -0.187  -0.043  -0.217
    1UNL     C2    2  -0.167  -0.024  -0.088
    1UNL     C3    3  -0.284   0.026  -0.001
    1UNL     O1    4  -0.336   0.147  -0.058
    1UNL     C4    5  -0.436   0.203   0.015
    1UNL     O2    6  -0.470   0.166   0.125
    1UNL     C5    7  -0.501   0.330  -0.037
    1UNL     C6    8  -0.454   0.389  -0.158
    1UNL     C7    9  -0.518   0.501  -0.210
    1UNL     C8   10  -0.621   0.560  -0.139
    1UNL     O3   11  -0.680   0.671  -0.189
    1UNL     C9   12  -0.662   0.501  -0.024
    1UNL    C10   13  -0.605   0.388   0.028
    1UNL    C11   14  -0.229   0.044   0.146
    1UNL    C12   15  -0.071   0.043   0.138
    1UNL    C13   16  -0.009   0.184   0.135
    1UNL    C14   17   0.031   0.225   0.276
    1UNL     O4   18   0.112   0.124   0.331
    1UNL    C15   19  -0.042  -0.047   0.007
    1UNL    C16   20  -0.029  -0.194   0.044
    1UNL     O5   21   0.054  -0.218   0.160
    1UNL    C17   22   0.098  -0.353   0.168
    1UNL     O6   23   0.208  -0.380   0.258
    1UNL    C18   24   0.332  -0.329   0.224
    1UNL    C19   25   0.328  -0.178   0.193
    1UNL     O7   26   0.310  -0.156   0.061
    1UNL    C20   27   0.315  -0.020   0.033
    1UNL     O8   28   0.300   0.060   0.116
    1UNL    C21   29   0.329   0.027  -0.109
    1UNL    C22   30   0.302   0.153  -0.149
    1UNL    C23   31   0.297   0.176  -0.282
    1UNL    C24   32   0.315   0.084  -0.386
    1UNL     O9   33   0.308   0.129  -0.518
    1UNL    C25   34   0.345  -0.045  -0.337
    1UNL    C26   35   0.357  -0.069  -0.205
    1UNL    C27   36   0.393  -0.416   0.107
    1UNL    O10   37   0.505  -0.499   0.139
    1UNL    C28   38   0.274  -0.495   0.036
    1UNL    O11   39   0.310  -0.540  -0.090
    1UNL    C29   40   0.159  -0.395   0.025
    1UNL    O12   41   0.049  -0.439  -0.053
    1UNL     H1   42  -0.284  -0.016  -0.256
    1UNL     H2   43  -0.114  -0.100  -0.279
    1UNL     H3   44  -0.383  -0.041  -0.002
    1UNL     H4   45  -0.388   0.333  -0.225
    1UNL     H5   46  -0.487   0.532  -0.309
    1UNL     H6   47  -0.757   0.696  -0.133
    1UNL     H7   48  -0.741   0.545   0.036
    1UNL     H8   49  -0.638   0.361   0.123
    1UNL     H9   50  -0.278   0.131   0.186
    1UNL    H10   51  -0.265  -0.040   0.214
    1UNL    H11   52  -0.031  -0.000   0.231
    1UNL    H12   53  -0.083   0.252   0.081
    1UNL    H13   54   0.075   0.179   0.064
    1UNL    H14   55   0.078   0.325   0.277
    1UNL    H15   56  -0.062   0.228   0.334
    1UNL    H16   57   0.191   0.094   0.268
    1UNL    H17   58   0.040  -0.007  -0.048
    1UNL    H18   59  -0.125  -0.231   0.067
    1UNL    H19   60  -0.006  -0.248  -0.039
    1UNL    H20   61   0.006  -0.414   0.189
    1UNL    H21   62   0.389  -0.351   0.316
    1UNL    H22   63   0.231  -0.134   0.240
    1UNL    H23   64   0.425  -0.135   0.230
    1UNL    H24   65   0.311   0.235  -0.083
    1UNL    H25   66   0.290   0.275  -0.317
    1UNL    H26   67   0.288   0.054  -0.585
    1UNL    H27   68   0.362  -0.107  -0.424
    1UNL    H28   69   0.379  -0.164  -0.178
    1UNL    H29   70   0.430  -0.340   0.040
    1UNL    H30   71   0.477  -0.551   0.219
    1UNL    H31   72   0.259  -0.588   0.096
    1UNL    H32   73   0.368  -0.616  -0.082
    1UNL    H33   74   0.202  -0.303  -0.016
    1UNL    H34   75   0.062  -0.538  -0.067
   0.00000   0.00000   0.00000   0.00000   0.00000   0.00000   0.00000   0.00000   0.00000
Generated with MDTraj, t= 96.0
 75
    1UNL     C1    1  -0.192  -0.050  -0.213
    1UNL     C2    2  -0.190  -0.032  -0.084
    1UNL     C3    3  -0.298   0.030  -0.008
    1UNL     O1    4  -0.337   0.156  -0.059
    1UNL     C4    5  -0.438   0.209   0.016
    1UNL     O2    6  -0.467   0.171   0.129
    1UNL     C5    7  -0.512   0.327  -0.036
    1UNL     C6    8  -0.452   0.394  -0.142
    1UNL     C7    9  -0.506   0.512  -0.182
    1UNL     C8   10  -0.621   0.563  -0.122
    1UNL     O3   11  -0.681   0.680  -0.171
    1UNL     C9   12  -0.672   0.502  -0.014
    1UNL    C10   13  -0.611   0.383   0.035
    1UNL    C11   14  -0.246   0.040   0.141
    1UNL    C12   15  -0.090   0.030   0.134
    1UNL    C13   16  -0.016   0.161   0.115
    1UNL    C14   17   0.017   0.237   0.247
    1UNL     O4   18   0.096   0.160   0.338
    1UNL    C15   19  -0.075  -0.062   0.007
    1UNL    C16   20  -0.067  -0.203   0.062
    1UNL     O5   21   0.057  -0.211   0.135
    1UNL    C17   22   0.104  -0.344   0.153
    1UNL     O6   23   0.204  -0.361   0.258
    1UNL    C18   24   0.339  -0.328   0.228
    1UNL    C19   25   0.364  -0.176   0.203
    1UNL     O7   26   0.376  -0.130   0.073
    1UNL    C20   27   0.316  -0.009   0.041
    1UNL     O8   28   0.271   0.065   0.121
    1UNL    C21   29   0.320   0.001  -0.110
    1UNL    C22   30   0.292   0.134  -0.163
    1UNL    C23   31   0.295   0.169  -0.297
    1UNL    C24   32   0.346   0.068  -0.388
    1UNL     O9   33   0.366   0.111  -0.515
    1UNL    C25   34   0.359  -0.069  -0.343
    1UNL    C26   35   0.348  -0.097  -0.209
    1UNL    C27   36   0.396  -0.408   0.104
    1UNL    O10   37   0.491  -0.508   0.145
    1UNL    C28   38   0.277  -0.482   0.027
    1UNL    O11   39   0.328  -0.527  -0.094
    1UNL    C29   40   0.159  -0.387   0.010
    1UNL    O12   41   0.057  -0.448  -0.063
    1UNL     H1   42  -0.288  -0.037  -0.248
    1UNL     H2   43  -0.108  -0.083  -0.274
    1UNL     H3   44  -0.394  -0.038  -0.007
    1UNL     H4   45  -0.371   0.351  -0.199
    1UNL     H5   46  -0.479   0.561  -0.275
    1UNL     H6   47  -0.756   0.700  -0.110
    1UNL     H7   48  -0.748   0.552   0.042
    1UNL     H8   49  -0.634   0.327   0.132
    1UNL     H9   50  -0.271   0.135   0.182
    1UNL    H10   51  -0.291  -0.040   0.210
    1UNL    H11   52  -0.040  -0.020   0.216
    1UNL    H12   53  -0.083   0.220   0.047
    1UNL    H13   54   0.071   0.138   0.049
    1UNL    H14   55   0.077   0.326   0.225
    1UNL    H15   56  -0.072   0.270   0.300
    1UNL    H16   57   0.159   0.122   0.278
    1UNL    H17   58   0.010  -0.039  -0.051
    1UNL    H18   59  -0.151  -0.230   0.119
    1UNL    H19   60  -0.066  -0.269  -0.017
    1UNL    H20   61   0.014  -0.405   0.175
    1UNL    H21   62   0.384  -0.363   0.322
    1UNL    H22   63   0.271  -0.123   0.245
    1UNL    H23   64   0.462  -0.140   0.244
    1UNL    H24   65   0.270   0.197  -0.075
    1UNL    H25   66   0.272   0.276  -0.317
    1UNL    H26   67   0.364   0.031  -0.574
    1UNL    H27   68   0.359  -0.153  -0.412
    1UNL    H28   69   0.368  -0.205  -0.172
    1UNL    H29   70   0.443  -0.336   0.042
    1UNL    H30   71   0.455  -0.567   0.212
    1UNL    H31   72   0.243  -0.579   0.075
    1UNL    H32   73   0.417  -0.569  -0.087
    1UNL    H33   74   0.195  -0.291  -0.032
    1UNL    H34   75   0.093  -0.533  -0.102
   0.00000   0.00000   0.00000   0.00000   0.00000   0.00000   0.00000   0.00000   0.00000
Generated with MDTraj, t= 97.0
 75
    1UNL     C1    1  -0.235  -0.077  -0.195
    1UNL     C2    2  -0.212  -0.031  -0.072
    1UNL     C3    3  -0.306   0.042   0.026
    1UNL     O1    4  -0.352   0.159  -0.034
    1UNL     C4    5  -0.465   0.208   0.025
    1UNL     O2    6  -0.530   0.147   0.110
    1UNL     C5    7  -0.517   0.340  -0.021
    1UNL     C6    8  -0.454   0.406  -0.130
    1UNL     C7    9  -0.501   0.529  -0.171
    1UNL     C8   10  -0.621   0.582  -0.111
    1UNL     O3   11  -0.681   0.695  -0.168
    1UNL     C9   12  -0.684   0.515  -0.002
    1UNL    C10   13  -0.628   0.396   0.041
    1UNL    C11   14  -0.230   0.051   0.156
    1UNL    C12   15  -0.085   0.047   0.127
    1UNL    C13   16  -0.024   0.181   0.099
    1UNL    C14   17   0.010   0.257   0.225
    1UNL     O4   18   0.101   0.190   0.302
    1UNL    C15   19  -0.073  -0.050   0.002
    1UNL    C16   20  -0.039  -0.197   0.040
    1UNL     O5   21   0.065  -0.216   0.129
    1UNL    C17   22   0.109  -0.351   0.141
    1UNL     O6   23   0.200  -0.379   0.250
    1UNL    C18   24   0.334  -0.335   0.234
    1UNL    C19   25   0.332  -0.183   0.193
    1UNL     O7   26   0.341  -0.157   0.058
    1UNL    C20   27   0.300  -0.035   0.031
    1UNL     O8   28   0.248   0.043   0.104
    1UNL    C21   29   0.323   0.001  -0.111
    1UNL    C22   30   0.302   0.127  -0.166
    1UNL    C23   31   0.317   0.157  -0.296
    1UNL    C24   32   0.366   0.050  -0.382
    1UNL     O9   33   0.371   0.090  -0.521
    1UNL    C25   34   0.397  -0.075  -0.327
    1UNL    C26   35   0.379  -0.089  -0.190
    1UNL    C27   36   0.411  -0.414   0.118
    1UNL    O10   37   0.497  -0.515   0.173
    1UNL    C28   38   0.307  -0.490   0.034
    1UNL    O11   39   0.358  -0.511  -0.098
    1UNL    C29   40   0.182  -0.392   0.012
    1UNL    O12   41   0.098  -0.443  -0.091
    1UNL     H1   42  -0.329  -0.050  -0.247
    1UNL     H2   43  -0.168  -0.148  -0.242
    1UNL     H3   44  -0.405  -0.020   0.041
    1UNL     H4   45  -0.384   0.361  -0.199
    1UNL     H5   46  -0.465   0.568  -0.263
    1UNL     H6   47  -0.751   0.733  -0.112
    1UNL     H7   48  -0.770   0.548   0.059
    1UNL     H8   49  -0.670   0.345   0.121
    1UNL     H9   50  -0.239   0.149   0.201
    1UNL    H10   51  -0.266  -0.034   0.224
    1UNL    H11   52  -0.032   0.001   0.210
    1UNL    H12   53  -0.097   0.235   0.035
    1UNL    H13   54   0.070   0.173   0.034
    1UNL    H14   55   0.055   0.352   0.189
    1UNL    H15   56  -0.080   0.268   0.287
    1UNL    H16   57   0.169   0.139   0.245
    1UNL    H17   58  -0.001  -0.011  -0.065
    1UNL    H18   59  -0.123  -0.245   0.079
    1UNL    H19   60  -0.020  -0.243  -0.053
    1UNL    H20   61   0.025  -0.420   0.150
    1UNL    H21   62   0.393  -0.348   0.326
    1UNL    H22   63   0.229  -0.144   0.212
    1UNL    H23   64   0.406  -0.119   0.241
    1UNL    H24   65   0.276   0.207  -0.100
    1UNL    H25   66   0.301   0.246  -0.350
    1UNL    H26   67   0.369   0.007  -0.569
    1UNL    H27   68   0.425  -0.152  -0.397
    1UNL    H28   69   0.402  -0.180  -0.147
    1UNL    H29   70   0.459  -0.335   0.066
    1UNL    H30   71   0.454  -0.568   0.239
    1UNL    H31   72   0.276  -0.590   0.078
    1UNL    H32   73   0.453  -0.544  -0.091
    1UNL    H33   74   0.223  -0.295  -0.022
    1UNL    H34   75   0.135  -0.524  -0.123
   0.00000   0.00000   0.00000   0.00000   0.00000   0.00000   0.00000   0.00000   0.00000
Generated with MDTraj, t= 98.0
 75
    1UNL     C1    1  -0.271  -0.085  -0.164
    1UNL     C2    2  -0.229  -0.041  -0.048
    1UNL     C3    3  -0.317   0.040   0.047
    1UNL     O1    4  -0.357   0.160  -0.010
    1UNL     C4    5  -0.476   0.202   0.029
    1UNL     O2    6  -0.549   0.135   0.101
    1UNL     C5    7  -0.521   0.330  -0.015
    1UNL     C6    8  -0.456   0.400  -0.113
    1UNL     C7    9  -0.503   0.525  -0.162
    1UNL     C8   10  -0.617   0.575  -0.107
    1UNL     O3   11  -0.651   0.701  -0.135
    1UNL     C9   12  -0.683   0.502  -0.007
    1UNL    C10   13  -0.636   0.382   0.035
    1UNL    C11   14  -0.231   0.065   0.172
    1UNL    C12   15  -0.084   0.046   0.126
    1UNL    C13   16  -0.022   0.178   0.083
    1UNL    C14   17   0.010   0.262   0.207
    1UNL     O4   18   0.126   0.203   0.274
    1UNL    C15   19  -0.090  -0.055   0.005
    1UNL    C16   20  -0.065  -0.200   0.043
    1UNL     O5   21   0.056  -0.214   0.102
    1UNL    C17   22   0.103  -0.353   0.110
    1UNL     O6   23   0.171  -0.378   0.232
    1UNL    C18   24   0.301  -0.322   0.239
    1UNL    C19   25   0.305  -0.171   0.192
    1UNL     O7   26   0.362  -0.154   0.063
    1UNL    C20   27   0.330  -0.033   0.024
    1UNL     O8   28   0.281   0.052   0.095
    1UNL    C21   29   0.336  -0.003  -0.118
    1UNL    C22   30   0.292   0.123  -0.171
    1UNL    C23   31   0.326   0.135  -0.305
    1UNL    C24   32   0.378   0.039  -0.388
    1UNL     O9   33   0.393   0.087  -0.514
    1UNL    C25   34   0.408  -0.084  -0.337
    1UNL    C26   35   0.389  -0.103  -0.203
    1UNL    C27   36   0.388  -0.408   0.145
    1UNL    O10   37   0.468  -0.506   0.214
    1UNL    C28   38   0.310  -0.473   0.028
    1UNL    O11   39   0.395  -0.499  -0.083
    1UNL    C29   40   0.190  -0.377  -0.018
    1UNL    O12   41   0.127  -0.437  -0.128
    1UNL     H1   42  -0.377  -0.069  -0.187
    1UNL     H2   43  -0.207  -0.130  -0.231
    1UNL     H3   44  -0.421  -0.010   0.061
    1UNL     H4   45  -0.373   0.350  -0.159
    1UNL     H5   46  -0.452   0.581  -0.243
    1UNL     H6   47  -0.724   0.747  -0.088
    1UNL     H7   48  -0.764   0.547   0.044
    1UNL     H8   49  -0.674   0.327   0.125
    1UNL     H9   50  -0.254   0.171   0.191
    1UNL    H10   51  -0.261  -0.002   0.256
    1UNL    H11   52  -0.023   0.008   0.206
    1UNL    H12   53  -0.091   0.228   0.011
    1UNL    H13   54   0.073   0.155   0.022
    1UNL    H14   55   0.037   0.365   0.175
    1UNL    H15   56  -0.078   0.263   0.273
    1UNL    H16   57   0.179   0.153   0.204
    1UNL    H17   58  -0.021  -0.022  -0.069
    1UNL    H18   59  -0.144  -0.225   0.106
    1UNL    H19   60  -0.066  -0.260  -0.044
    1UNL    H20   61   0.025  -0.426   0.106
    1UNL    H21   62   0.337  -0.338   0.341
    1UNL    H22   63   0.203  -0.133   0.188
    1UNL    H23   64   0.361  -0.103   0.249
    1UNL    H24   65   0.265   0.209  -0.109
    1UNL    H25   66   0.305   0.235  -0.342
    1UNL    H26   67   0.438   0.019  -0.561
    1UNL    H27   68   0.452  -0.161  -0.399
    1UNL    H28   69   0.421  -0.195  -0.153
    1UNL    H29   70   0.442  -0.334   0.094
    1UNL    H30   71   0.421  -0.562   0.277
    1UNL    H31   72   0.270  -0.574   0.058
    1UNL    H32   73   0.472  -0.547  -0.040
    1UNL    H33   74   0.232  -0.278  -0.044
    1UNL    H34   75   0.189  -0.501  -0.170
   0.00000   0.00000   0.00000   0.00000   0.00000   0.00000   0.00000   0.00000   0.00000
Generated with MDTraj, t= 99.0
 75
    1UNL     C1    1  -0.317  -0.089  -0.166
    1UNL     C2    2  -0.258  -0.049  -0.056
    1UNL     C3    3  -0.329   0.038   0.047
    1UNL     O1    4  -0.368   0.163  -0.001
    1UNL     C4    5  -0.489   0.196   0.044
    1UNL     O2    6  -0.567   0.132   0.119
    1UNL     C5    7  -0.537   0.332  -0.002
    1UNL     C6    8  -0.458   0.401  -0.086
    1UNL     C7    9  -0.499   0.520  -0.138
    1UNL     C8   10  -0.612   0.585  -0.092
    1UNL     O3   11  -0.631   0.719  -0.127
    1UNL     C9   12  -0.704   0.508  -0.013
    1UNL    C10   13  -0.667   0.386   0.033
    1UNL    C11   14  -0.230   0.058   0.172
    1UNL    C12   15  -0.089   0.026   0.107
    1UNL    C13   16  -0.009   0.144   0.064
    1UNL    C14   17   0.022   0.243   0.174
    1UNL     O4   18   0.114   0.188   0.268
    1UNL    C15   19  -0.118  -0.068  -0.017
    1UNL    C16   20  -0.071  -0.212   0.017
    1UNL     O5   21   0.054  -0.206   0.089
    1UNL    C17   22   0.107  -0.340   0.107
    1UNL     O6   23   0.169  -0.354   0.231
    1UNL    C18   24   0.307  -0.314   0.244
    1UNL    C19   25   0.327  -0.169   0.197
    1UNL     O7   26   0.344  -0.147   0.060
    1UNL    C20   27   0.332  -0.014   0.026
    1UNL     O8   28   0.299   0.081   0.101
    1UNL    C21   29   0.351   0.001  -0.119
    1UNL    C22   30   0.319   0.120  -0.183
    1UNL    C23   31   0.353   0.143  -0.322
    1UNL    C24   32   0.398   0.036  -0.397
    1UNL     O9   33   0.401   0.060  -0.533
    1UNL    C25   34   0.431  -0.082  -0.328
    1UNL    C26   35   0.408  -0.108  -0.194
    1UNL    C27   36   0.395  -0.412   0.162
    1UNL    O10   37   0.437  -0.533   0.234
    1UNL    C28   38   0.320  -0.462   0.030
    1UNL    O11   39   0.419  -0.487  -0.065
    1UNL    C29   40   0.199  -0.366  -0.019
    1UNL    O12   41   0.131  -0.416  -0.128
    1UNL     H1   42  -0.423  -0.069  -0.172
    1UNL     H2   43  -0.260  -0.135  -0.247
    1UNL     H3   44  -0.421  -0.017   0.081
    1UNL     H4   45  -0.365   0.361  -0.131
    1UNL     H5   46  -0.444   0.573  -0.210
    1UNL     H6   47  -0.717   0.750  -0.092
    1UNL     H7   48  -0.792   0.553   0.038
    1UNL     H8   49  -0.726   0.328   0.099
    1UNL     H9   50  -0.235   0.165   0.206
    1UNL    H10   51  -0.254  -0.001   0.260
    1UNL    H11   52  -0.026  -0.021   0.181
    1UNL    H12   53  -0.072   0.191  -0.015
    1UNL    H13   54   0.081   0.103   0.007
    1UNL    H14   55   0.057   0.338   0.128
    1UNL    H15   56  -0.070   0.261   0.231
    1UNL    H16   57   0.189   0.148   0.223
    1UNL    H17   58  -0.051  -0.044  -0.097
    1UNL    H18   59  -0.137  -0.258   0.083
    1UNL    H19   60  -0.063  -0.268  -0.076
    1UNL    H20   61   0.025  -0.406   0.112
    1UNL    H21   62   0.335  -0.334   0.348
    1UNL    H22   63   0.255  -0.097   0.227
    1UNL    H23   64   0.422  -0.137   0.226
    1UNL    H24   65   0.273   0.205  -0.138
    1UNL    H25   66   0.346   0.238  -0.372
    1UNL    H26   67   0.452   0.001  -0.587
    1UNL    H27   68   0.468  -0.154  -0.399
    1UNL    H28   69   0.442  -0.209  -0.155
    1UNL    H29   70   0.477  -0.359   0.127
    1UNL    H30   71   0.365  -0.577   0.288
    1UNL    H31   72   0.275  -0.562   0.045
    1UNL    H32   73   0.472  -0.557  -0.023
    1UNL    H33   74   0.241  -0.267  -0.044
    1UNL    H34   75   0.184  -0.492  -0.171
   0.00000   0.00000   0.00000   0.00000   0.00000   0.00000   0.00000   0.00000   0.00000
