[ moleculetype ]
; name        nrexcl
res           1

[ atoms ]
;    nr  type resnr resid  atom  cgnr     charge       mass
      1 SN4a      1 res   C1        1      0.000     54.000
      2 SN6       1 res   C2        2      0.000     54.000
      3 TN6       1 res   C3        3      0.000     36.000
      4 SC3       1 res   C4        4      0.000     54.000
      5 SC3       1 res   C5        5      0.000     54.000
      6 TC3       1 res   C6        6      0.000     36.000
      7 TC4       1 res   C7        7      0.000     36.000
      8 SN6       1 res   C8        8      0.000     54.000
      9 TC4       1 res   C9        9      0.000     36.000
     10 TC3       1 res   C10      10      0.000     36.000
     11 TN4a      1 res   C11      11      0.000     36.000
     12 P1        1 res   C12      12      0.000     72.000
     13 SC4       1 res   C13      13      0.000     54.000
     14 TC3       1 res   C14      14      0.000     36.000
     15 TN6       1 res   C15      15      0.000     36.000
     16 SN4a      1 res   C16      16      0.000     54.000
     17 TP1       1 res   C17      17      0.000     36.000
     18 TN6       1 res   C18      18      0.000     36.000
     19 TN6       1 res   C19      19      0.000     36.000
     20 TN6       1 res   C20      20      0.000     36.000
     21 TC5       1 res   C21      21      0.000     36.000
     22 SC4       1 res   C22      22      0.000     54.000
     23 TN4a      1 res   C23      23      0.000     36.000
     24 TN6       1 res   C24      24      0.000     36.000

[ bonds ]
;  ai    aj   funct      b0(nm)        k
    1     2     1      0.39256    20000
    2     3     1      0.28162    20000
    2    24     1      0.29221    20000
    3     4     1      0.31694    20000
    3    23     1      0.26174    20000
    4     5     1      0.31103    20000
    4    22     1      0.34231    20000
    5     6     1      0.32342    20000
    5    14     1      0.30527    20000
    5    21     1      0.28423    20000
    6     7     1      0.28422    20000
    7     8     1      0.33893    20000
    7    13     1      0.34538    20000
    8     9     1      0.31502    20000
    8    13     1      0.26352    20000
    9    10     1      0.31223    20000
    9    11     1      0.26755    20000
   10    11     1      0.22936    20000
   11    12     1      0.25942    20000
   13    14     1      0.27814    20000
   14    15     1      0.21576    20000
   15    16     1      0.27057    20000
   15    21     1      0.21069    20000
   16    17     1      0.30173    20000
   16    18     1      0.26837    20000
   16    20     1      0.30763    20000
   18    19     1      0.23310    20000
   19    20     1      0.22459    20000
   21    22     1      0.26057    20000
   23    24     1      0.23119    20000
