[ moleculetype ]
; name        nrexcl
res           1

[ atoms ]
;    nr  type resnr resid  atom  cgnr     charge       mass
      1 SN4a      1 res   C1        1      0.000     54.000
      2 SN6       1 res   C2        2      0.000     54.000
      3 TC4       1 res   C3        3      0.000     36.000
      4 TN4a      1 res   C4        4      0.000     36.000
      5 SN4a      1 res   C5        5      0.000     54.000
      6 SC5       1 res   C6        6      0.000     54.000
      7 TC3       1 res   C7        7      0.000     36.000
      8 SC4       1 res   C8        8      0.000     54.000
      9 SC4       1 res   C9        9      0.000     54.000
     10 TC3       1 res   C10      10      0.000     36.000
     11 SC4       1 res   C11      11      0.000     54.000
     12 SC4       1 res   C12      12      0.000     54.000
     13 TC3       1 res   C13      13      0.000     36.000
     14 TN6       1 res   C14      14      0.000     36.000
     15 SN4a      1 res   C15      15      0.000     54.000
     16 SP2       1 res   C16      16      0.000     54.000
     17 TN6       1 res   C17      17      0.000     36.000
     18 TN6       1 res   C18      18      0.000     36.000
     19 SN4a      1 res   C19      19      0.000     54.000
     20 TN6       1 res   C20      20      0.000     36.000
     21 TN6       1 res   C21      21      0.000     36.000
     22 TN6       1 res   C22      22      0.000     36.000
     23 TN6       1 res   C23      23      0.000     36.000
     24 SN4a      1 res   C24      24      0.000     54.000
     25 TP1       1 res   C25      25      0.000     36.000
     26 TN6       1 res   C26      26      0.000     36.000
     27 TN6       1 res   C27      27      0.000     36.000
     28 TN6       1 res   C28      28      0.000     36.000
     29 TC4       1 res   C29      29      0.000     36.000
     30 TN4a      1 res   C30      30      0.000     36.000
     31 TC3       1 res   C31      31      0.000     36.000
     32 TC3       1 res   C32      32      0.000     36.000
     33 TN6       1 res   C33      33      0.000     36.000
     34 TN4a      1 res   C34      34      0.000     36.000
     35 TC4       1 res   C35      35      0.000     36.000
     36 TN6       1 res   C36      36      0.000     36.000
     37 SN4a      1 res   C37      37      0.000     54.000
     38 TN6       1 res   C38      38      0.000     36.000
     39 TN6       1 res   C39      39      0.000     36.000
     40 TN6       1 res   C40      40      0.000     36.000
     41 TN6       1 res   C41      41      0.000     36.000
     42 TN6       1 res   C42      42      0.000     36.000
     43 SN4a      1 res   C43      43      0.000     54.000
     44 TP1       1 res   C44      44      0.000     36.000
     45 TN6       1 res   C45      45      0.000     36.000
     46 TN6       1 res   C46      46      0.000     36.000

[ bonds ]
;  ai    aj   funct      b0(nm)        k
    1     2     1      0.35606    20000
    2     3     1      0.30866    20000
    2    33     1      0.22517    20000
    2    43     1      0.39123    20000
    3     4     1      0.29632    20000
    4     5     1      0.21132    20000
    4    33     1      0.22307    20000
    5     6     1      0.30289    20000
    6     7     1      0.28053    20000
    6     8     1      0.27822    20000
    6     9     1      0.36975    20000
    6    32     1      0.36452    20000
    7     8     1      0.29544    20000
    9    10     1      0.32454    20000
    9    11     1      0.31036    20000
    9    32     1      0.31002    20000
   10    11     1      0.30013    20000
   11    12     1      0.25610    20000
   11    31     1      0.25122    20000
   12    13     1      0.27005    20000
   12    29     1      0.31736    20000
   12    31     1      0.32260    20000
   13    14     1      0.26066    20000
   14    15     1      0.26516    20000
   14    29     1      0.26374    20000
   15    16     1      0.33007    20000
   15    17     1      0.29078    20000
   15    23     1      0.26285    20000
   17    18     1      0.20703    20000
   18    19     1      0.29398    20000
   18    23     1      0.20982    20000
   19    20     1      0.25922    20000
   19    22     1      0.28647    20000
   20    21     1      0.25786    20000
   21    22     1      0.24434    20000
   23    24     1      0.29164    20000
   24    25     1      0.29137    20000
   24    26     1      0.30050    20000
   24    28     1      0.29457    20000
   26    27     1      0.23122    20000
   27    28     1      0.23293    20000
   29    30     1      0.27265    20000
   33    34     1      0.21464    20000
   34    35     1      0.32286    20000
   34    42     1      0.25343    20000
   35    36     1      0.25406    20000
   36    37     1      0.29245    20000
   36    41     1      0.24624    20000
   37    38     1      0.26577    20000
   37    40     1      0.30441    20000
   38    39     1      0.23664    20000
   39    40     1      0.23849    20000
   41    42     1      0.23706    20000
   43    44     1      0.31992    20000
   43    45     1      0.27303    20000
   43    46     1      0.27089    20000
   45    46     1      0.21870    20000
