[ moleculetype ]
; name        nrexcl
res           1

[ atoms ]
;    nr  type  resnr resid  atom  cgnr     charge       mass
      1 TN3r      1 res   C1        1      0.000     36.000
      2 TN1       1 res   C2        2      0.000     36.000
      3 SN6       1 res   C3        3      0.000     54.000
      4 TC4       1 res   C4        4      0.000     36.000
      5 SN6       1 res   C5        5      0.000     54.000
      6 TN4a      1 res   C6        6      0.000     36.000
      7 TC3       1 res   C7        7      0.000     36.000
      8 TC5       1 res   C8        8      0.000     36.000
      9 SN4a      1 res   C9        9      0.000     54.000
     10 TN1       1 res   C10      10      0.000     36.000
     11 TC5       1 res   C11      11      0.000     36.000
     12 TC5       1 res   C12      12      0.000     36.000
     13 TC5       1 res   C13      13      0.000     36.000

[ constraints ]
;  ai    aj   funct      b0(nm)
    1     2     1      0.22650
    2     3     1      0.17784
   11    12     1      0.24734
    4     5     1      0.36595
    3    11     1      0.24000
    5     7     1      0.28041
    3     4     1      0.28388
    8    10     1      0.27778
    5     6     1      0.26033
   12    13     1      0.28948
    3     7     1      0.25069
    4    10     1      0.27800
    2    11     1      0.17563
    6     7     1      0.30089
   11    13     1      0.24870
    5     8     1      0.28868
    8     9     1      0.24983

[ bonds ]
;  ai    aj   funct      b0(nm)          k(kJ/mol/nm^2)

[ angles ]
;  ai    aj    ak  funct     th0(deg)        k(kJ/mol/rad^2)
    1     2     3     1    106.83111           192.30
    1     2    11     1    151.31999            59.90
    2     3     4     1    120.89637           140.04
    2     3     7     1    125.08351            90.78
    2     3    11     1     46.84410          4065.88
    2    11     3     1     47.61364          4499.84
    2    11    12     1    171.34515           615.14
    2    11    13     1    102.94059          1371.06
    3     2    11     1     85.54222          2194.06
    3     4     5     1     78.29160           920.85
    3     4    10     1     83.54514           122.96
    3     7     5     1    102.78506           340.45
    3     7     6     1    100.45410          1157.74
    3    11    12     1    137.21232           925.94
    3    11    13     1    149.92755          1003.84
    4     3     7     1     88.15035          3575.91
    4     3    11     1     86.12056           778.09
    4     5     6     1     54.79424          2831.58
    4     5     7     1     68.95963          3471.11
    4     5     8     1     68.60561          1805.65
    4    10     8     1     84.71785          1067.25
    5     4    10     1     89.66207           935.69
    5     6     7     1     59.39415          3115.34
    5     7     6     1     53.05135          1753.52
    5     8     9     1     95.20258           710.15
    5     8    10     1    107.95267           888.93
    6     5     7     1     67.55444          1029.50
    6     5     8     1    122.65974          1346.04
    7     3    11     1     98.33886           499.08
    7     5     8     1     86.16046           776.70
    9     8    10     1    154.49152           396.81
   11    12    13     1     54.51382         15799.36
   11    13    12     1     54.07673         12334.85
   12    11    13     1     71.40945          8279.31

[ dihedrals ]
;  ai    aj    ak    al  funct   phi0(deg)        k(kJ/mol)   mult
    1     2     3     4     1     42.07221       27.964      1
    1     2     3     7     1    -67.61563       29.878      1
    1     2     3    11     1     -3.82467       28.190      1
    1     2    11     3     1      9.54515       17.509      1
    1     2    11    12     1   -168.99395       22.825      1
    1     2    11    13     1    177.80309       19.735      1
    2     3     4     5     1     22.31388       16.893      1
    2     3     4    10     1    -69.02107       20.152      1
    2     3     7     5     1    -13.05340       14.289      1
    2     3     7     6     1    -66.98562       12.915      1
    2     3    11    12     1      3.45082       17.083      1
    2     3    11    13     1    179.08979       20.997      1
    2    11     3     4     1     38.65338       16.301      1
    2    11     3     7     1    -49.21137       17.639      1
    2    11    12    13     1   -169.62303       29.747      1
    2    11    13    12     1      3.41741       11.495      1
    3     2    11    12     1    -10.45708       26.035      1
    3     2    11    13     1      0.95004       12.919      1
    3     4     5     6     1    -73.97396        7.736      1
    3     4     5     7     1   -152.23390        9.256      1
    3     4     5     8     1    115.31956        8.506      1
    3     4    10     8     1   -122.05171       16.421      1
    3     7     5     4     1    148.03884        9.309      1
    3     7     5     6     1     87.91315       10.773      1
    3     7     5     8     1   -143.85879       12.236      1
    3     7     6     5     1    -79.35469       12.886      1
    3    11    12    13     1     -1.87921       17.781      1
    3    11    13    12     1      3.19916       22.224      1
    4     3     2    11     1   -136.72083       14.175      1
    4     3     7     5     1   -140.93544       11.476      1
    4     3     7     6     1    167.85526        9.304      1
    4     3    11    12     1   -138.56147       21.869      1
    4     3    11    13     1     38.81366       21.102      1
    4     5     6     7     1    101.90298        6.276      1
    4     5     7     6     1   -120.95893        5.495      1
    4     5     8     9     1    -21.13309       18.414      1
    4     5     8    10     1    157.09646       15.759      1
    4    10     8     5     1   -153.64456       17.763      1
    4    10     8     9     1     25.21545       28.897      1
    5     4     3     7     1    151.03540       10.024      1
    5     4     3    11     1     53.07642       11.423      1
    5     4    10     8     1    160.78430       14.370      1
    5     7     3    11     1    -53.21372       11.501      1
    6     5     4    10     1     12.81443       14.980      1
    6     5     8     9     1    -29.06592       20.960      1
    6     5     8    10     1    153.21859       17.054      1
    6     7     3    11     1   -107.90746       10.754      1
    6     7     5     8     1    -52.94249        6.959      1
    7     3     2    11     1    115.65293       15.014      1
    7     3     4    10     1     58.40311       10.754      1
    7     3    11    12     1    132.52773       21.870      1
    7     3    11    13     1    -49.96335       20.497      1
    7     5     4    10     1    -63.98081       17.733      1
    7     5     8     9     1    -88.26147       20.389      1
    7     5     8    10     1     90.91535       15.784      1
    7     6     5     8     1    110.97724        8.506      1
    8     5     4    10     1   -159.69724       15.058      1
   10     4     3    11     1    -40.18677       14.967      1
