1TPCN01717
14
    1res  C1    1    0.633   0.240   0.192
    1res  C2    2    0.385  -0.039   0.253
    1res  C3    3    0.222  -0.047   0.069
    1res  C4    4    0.238  -0.152  -0.216
    1res  C5    5    0.247   0.101  -0.272
    1res  C6    6    0.384   0.124  -0.118
    1res  C7    7   -0.009  -0.158  -0.330
    1res  C8    8   -0.091  -0.082  -0.063
    1res  C9    9   -0.035  -0.333   0.055
    1res  C10   10   -0.214  -0.191   0.130
    1res  C11   11   -0.030   0.202   0.067
    1res  C12   12   -0.201   0.491  -0.096
    1res  C13   13   -0.429   0.013  -0.090
    1res  C14   14   -0.409  -0.186   0.166
  10.00000  10.00000  10.00000
