Generated with MDTraj, t= 0.0
 63
    1UNL     C1    1  -0.191   0.365  -0.073
    1UNL     C2    2  -0.062   0.293  -0.038
    1UNL     C3    3   0.061   0.389  -0.030
    1UNL     C4    4   0.184   0.306   0.016
    1UNL     O1    5   0.298   0.386   0.041
    1UNL     O2    6   0.203   0.205  -0.086
    1UNL     C5    7   0.086   0.121  -0.079
    1UNL     O3    8  -0.027   0.191  -0.135
    1UNL     C6    9   0.054   0.109   0.076
    1UNL     C7   10   0.058  -0.028   0.143
    1UNL     O4   11   0.185  -0.087   0.133
    1UNL     C8   12   0.199  -0.153   0.014
    1UNL     O5   13   0.109  -0.170  -0.066
    1UNL     C9   14   0.334  -0.206  -0.015
    1UNL    C10   15   0.357  -0.275  -0.134
    1UNL    C11   16   0.482  -0.324  -0.162
    1UNL    C12   17   0.588  -0.305  -0.073
    1UNL     O6   18   0.713  -0.355  -0.103
    1UNL    C13   19   0.564  -0.236   0.046
    1UNL    C14   20   0.438  -0.187   0.074
    1UNL    C15   21   0.141   0.221   0.144
    1UNL    C16   22   0.012   0.268   0.216
    1UNL    C17   23  -0.069   0.207   0.098
    1UNL     O7   24  -0.194   0.147   0.131
    1UNL    C18   25  -0.236   0.048   0.036
    1UNL     O8   26  -0.208  -0.088   0.076
    1UNL    C19   27  -0.240  -0.184  -0.026
    1UNL    C20   28  -0.207  -0.326   0.020
    1UNL     O9   29  -0.075  -0.343   0.064
    1UNL    C21   30  -0.390  -0.176  -0.066
    1UNL    O10   31  -0.423  -0.266  -0.170
    1UNL    C22   32  -0.431  -0.032  -0.105
    1UNL    O11   33  -0.570  -0.025  -0.121
    1UNL    C23   34  -0.387   0.063   0.008
    1UNL    O12   35  -0.462   0.034   0.124
    1UNL     H1   36  -0.178   0.424  -0.164
    1UNL     H2   37  -0.271   0.294  -0.091
    1UNL     H3   38  -0.221   0.432   0.008
    1UNL     H4   39   0.042   0.474   0.036
    1UNL     H5   40   0.081   0.429  -0.130
    1UNL     H6   41   0.341   0.405  -0.044
    1UNL     H7   42   0.101   0.025  -0.129
    1UNL     H8   43   0.034  -0.020   0.249
    1UNL     H9   44  -0.015  -0.095   0.098
    1UNL    H10   45   0.276  -0.289  -0.202
    1UNL    H11   46   0.502  -0.378  -0.253
    1UNL    H12   47   0.776  -0.334  -0.032
    1UNL    H13   48   0.644  -0.220   0.116
    1UNL    H14   49   0.419  -0.133   0.165
    1UNL    H15   50   0.224   0.183   0.205
    1UNL    H16   51   0.003   0.377   0.225
    1UNL    H17   52  -0.008   0.218   0.311
    1UNL    H18   53  -0.178   0.064  -0.056
    1UNL    H19   54  -0.178  -0.159  -0.114
    1UNL    H20   55  -0.227  -0.398  -0.060
    1UNL    H21   56  -0.272  -0.353   0.104
    1UNL    H22   57  -0.013  -0.286   0.013
    1UNL    H23   58  -0.450  -0.205   0.022
    1UNL    H24   59  -0.511  -0.243  -0.206
    1UNL    H25   60  -0.385  -0.006  -0.201
    1UNL    H26   61  -0.610  -0.021  -0.032
    1UNL    H27   62  -0.411   0.167  -0.019
    1UNL    H28   63  -0.410   0.062   0.202
   0.00000   0.00000   0.00000   0.00000   0.00000   0.00000   0.00000   0.00000   0.00000
Generated with MDTraj, t= 1.0
 63
    1UNL     C1    1  -0.203   0.375  -0.054
    1UNL     C2    2  -0.070   0.300  -0.034
    1UNL     C3    3   0.054   0.399  -0.027
    1UNL     C4    4   0.178   0.320   0.003
    1UNL     O1    5   0.290   0.393   0.030
    1UNL     O2    6   0.192   0.215  -0.098
    1UNL     C5    7   0.080   0.134  -0.084
    1UNL     O3    8  -0.037   0.204  -0.133
    1UNL     C6    9   0.061   0.116   0.072
    1UNL     C7   10   0.069  -0.017   0.141
    1UNL     O4   11   0.197  -0.071   0.141
    1UNL     C8   12   0.207  -0.159   0.031
    1UNL     O5   13   0.114  -0.178  -0.044
    1UNL     C9   14   0.337  -0.222   0.008
    1UNL    C10   15   0.346  -0.285  -0.118
    1UNL    C11   16   0.473  -0.325  -0.162
    1UNL    C12   17   0.584  -0.322  -0.077
    1UNL     O6   18   0.716  -0.366  -0.121
    1UNL    C13   19   0.569  -0.264   0.049
    1UNL    C14   20   0.447  -0.220   0.098
    1UNL    C15   21   0.140   0.241   0.140
    1UNL    C16   22   0.006   0.268   0.223
    1UNL    C17   23  -0.072   0.212   0.101
    1UNL     O7   24  -0.190   0.130   0.138
    1UNL    C18   25  -0.232   0.048   0.031
    1UNL     O8   26  -0.197  -0.089   0.054
    1UNL    C19   27  -0.236  -0.179  -0.046
    1UNL    C20   28  -0.190  -0.326  -0.006
    1UNL     O9   29  -0.077  -0.319   0.068
    1UNL    C21   30  -0.383  -0.186  -0.083
    1UNL    O10   31  -0.410  -0.272  -0.198
    1UNL    C22   32  -0.447  -0.045  -0.099
    1UNL    O11   33  -0.585  -0.059  -0.080
    1UNL    C23   34  -0.384   0.065  -0.000
    1UNL    O12   35  -0.455   0.078   0.117
    1UNL     H1   36  -0.209   0.431  -0.140
    1UNL     H2   37  -0.300   0.316  -0.056
    1UNL     H3   38  -0.231   0.448   0.023
    1UNL     H4   39   0.039   0.485   0.046
    1UNL     H5   40   0.066   0.430  -0.129
    1UNL     H6   41   0.364   0.331   0.061
    1UNL     H7   42   0.112   0.043  -0.134
    1UNL     H8   43   0.039  -0.007   0.245
    1UNL     H9   44   0.001  -0.079   0.089
    1UNL    H10   45   0.259  -0.290  -0.183
    1UNL    H11   46   0.500  -0.364  -0.258
    1UNL    H12   47   0.769  -0.387  -0.040
    1UNL    H13   48   0.655  -0.256   0.110
    1UNL    H14   49   0.439  -0.175   0.192
    1UNL    H15   50   0.228   0.201   0.195
    1UNL    H16   51  -0.001   0.380   0.235
    1UNL    H17   52  -0.006   0.205   0.308
    1UNL    H18   53  -0.175   0.065  -0.061
    1UNL    H19   54  -0.187  -0.154  -0.140
    1UNL    H20   55  -0.177  -0.386  -0.098
    1UNL    H21   56  -0.269  -0.373   0.051
    1UNL    H22   57  -0.001  -0.270   0.028
    1UNL    H23   58  -0.430  -0.243   0.002
    1UNL    H24   59  -0.503  -0.270  -0.199
    1UNL    H25   60  -0.427  -0.021  -0.207
    1UNL    H26   61  -0.603  -0.020   0.008
    1UNL    H27   62  -0.416   0.147  -0.064
    1UNL    H28   63  -0.448  -0.008   0.174
   0.00000   0.00000   0.00000   0.00000   0.00000   0.00000   0.00000   0.00000   0.00000
Generated with MDTraj, t= 2.0
 63
    1UNL     C1    1  -0.196   0.368  -0.078
    1UNL     C2    2  -0.065   0.304  -0.043
    1UNL     C3    3   0.052   0.402  -0.032
    1UNL     C4    4   0.179   0.323   0.024
    1UNL     O1    5   0.287   0.409   0.037
    1UNL     O2    6   0.202   0.224  -0.080
    1UNL     C5    7   0.087   0.134  -0.082
    1UNL     O3    8  -0.024   0.199  -0.144
    1UNL     C6    9   0.048   0.119   0.075
    1UNL     C7   10   0.053  -0.023   0.140
    1UNL     O4   11   0.188  -0.074   0.129
    1UNL     C8   12   0.213  -0.137   0.009
    1UNL     O5   13   0.123  -0.146  -0.070
    1UNL     C9   14   0.345  -0.206  -0.018
    1UNL    C10   15   0.365  -0.271  -0.139
    1UNL    C11   16   0.485  -0.335  -0.161
    1UNL    C12   17   0.588  -0.339  -0.065
    1UNL     O6   18   0.703  -0.397  -0.091
    1UNL    C13   19   0.560  -0.273   0.054
    1UNL    C14   20   0.445  -0.200   0.073
    1UNL    C15   21   0.137   0.234   0.140
    1UNL    C16   22   0.004   0.269   0.214
    1UNL    C17   23  -0.073   0.211   0.092
    1UNL     O7   24  -0.198   0.144   0.133
    1UNL    C18   25  -0.240   0.046   0.036
    1UNL     O8   26  -0.200  -0.091   0.068
    1UNL    C19   27  -0.240  -0.180  -0.031
    1UNL    C20   28  -0.207  -0.320   0.019
    1UNL     O9   29  -0.075  -0.350   0.045
    1UNL    C21   30  -0.389  -0.183  -0.066
    1UNL    O10   31  -0.411  -0.262  -0.179
    1UNL    C22   32  -0.434  -0.039  -0.092
    1UNL    O11   33  -0.570  -0.032  -0.120
    1UNL    C23   34  -0.391   0.053   0.026
    1UNL    O12   35  -0.453   0.009   0.150
    1UNL     H1   36  -0.188   0.435  -0.157
    1UNL     H2   37  -0.281   0.307  -0.111
    1UNL     H3   38  -0.245   0.432  -0.002
    1UNL     H4   39   0.020   0.480   0.045
    1UNL     H5   40   0.080   0.439  -0.131
    1UNL     H6   41   0.292   0.466  -0.049
    1UNL     H7   42   0.102   0.043  -0.132
    1UNL     H8   43   0.033  -0.005   0.243
    1UNL     H9   44  -0.017  -0.084   0.095
    1UNL    H10   45   0.289  -0.281  -0.214
    1UNL    H11   46   0.492  -0.370  -0.265
    1UNL    H12   47   0.763  -0.415  -0.014
    1UNL    H13   48   0.648  -0.263   0.123
    1UNL    H14   49   0.434  -0.156   0.179
    1UNL    H15   50   0.202   0.195   0.222
    1UNL    H16   51  -0.011   0.382   0.211
    1UNL    H17   52  -0.014   0.225   0.309
    1UNL    H18   53  -0.176   0.056  -0.054
    1UNL    H19   54  -0.185  -0.159  -0.123
    1UNL    H20   55  -0.255  -0.403  -0.038
    1UNL    H21   56  -0.250  -0.329   0.119
    1UNL    H22   57  -0.028  -0.275   0.002
    1UNL    H23   58  -0.432  -0.216   0.034
    1UNL    H24   59  -0.500  -0.245  -0.210
    1UNL    H25   60  -0.386   0.001  -0.186
    1UNL    H26   61  -0.623  -0.035  -0.032
    1UNL    H27   62  -0.414   0.158   0.017
    1UNL    H28   63  -0.375  -0.012   0.207
   0.00000   0.00000   0.00000   0.00000   0.00000   0.00000   0.00000   0.00000   0.00000
Generated with MDTraj, t= 3.0
 63
    1UNL     C1    1  -0.206   0.347  -0.077
    1UNL     C2    2  -0.066   0.288  -0.039
    1UNL     C3    3   0.047   0.400  -0.029
    1UNL     C4    4   0.178   0.325   0.019
    1UNL     O1    5   0.276   0.425   0.043
    1UNL     O2    6   0.211   0.224  -0.083
    1UNL     C5    7   0.094   0.138  -0.081
    1UNL     O3    8  -0.024   0.200  -0.138
    1UNL     C6    9   0.058   0.121   0.069
    1UNL     C7   10   0.065  -0.021   0.132
    1UNL     O4   11   0.191  -0.070   0.107
    1UNL     C8   12   0.199  -0.139  -0.010
    1UNL     O5   13   0.110  -0.156  -0.085
    1UNL     C9   14   0.336  -0.190  -0.044
    1UNL    C10   15   0.366  -0.270  -0.153
    1UNL    C11   16   0.492  -0.333  -0.167
    1UNL    C12   17   0.574  -0.338  -0.053
    1UNL     O6   18   0.694  -0.418  -0.054
    1UNL    C13   19   0.542  -0.264   0.060
    1UNL    C14   20   0.425  -0.185   0.061
    1UNL    C15   21   0.138   0.241   0.148
    1UNL    C16   22   0.004   0.276   0.212
    1UNL    C17   23  -0.066   0.209   0.095
    1UNL     O7   24  -0.198   0.150   0.132
    1UNL    C18   25  -0.232   0.039   0.051
    1UNL     O8   26  -0.203  -0.092   0.086
    1UNL    C19   27  -0.230  -0.184  -0.017
    1UNL    C20   28  -0.194  -0.335   0.012
    1UNL     O9   29  -0.057  -0.350   0.023
    1UNL    C21   30  -0.379  -0.175  -0.063
    1UNL    O10   31  -0.424  -0.265  -0.159
    1UNL    C22   32  -0.423  -0.025  -0.089
    1UNL    O11   33  -0.556  -0.021  -0.129
    1UNL    C23   34  -0.385   0.056   0.035
    1UNL    O12   35  -0.455  -0.009   0.145
    1UNL     H1   36  -0.199   0.385  -0.178
    1UNL     H2   37  -0.279   0.272  -0.082
    1UNL     H3   38  -0.257   0.425  -0.018
    1UNL     H4   39   0.013   0.475   0.050
    1UNL     H5   40   0.076   0.447  -0.128
    1UNL     H6   41   0.365   0.385   0.076
    1UNL     H7   42   0.114   0.044  -0.126
    1UNL     H8   43   0.050  -0.007   0.236
    1UNL     H9   44  -0.005  -0.081   0.084
    1UNL    H10   45   0.290  -0.272  -0.232
    1UNL    H11   46   0.511  -0.405  -0.241
    1UNL    H12   47   0.744  -0.398   0.030
    1UNL    H13   48   0.580  -0.288   0.151
    1UNL    H14   49   0.390  -0.128   0.137
    1UNL    H15   50   0.220   0.194   0.208
    1UNL    H16   51  -0.022   0.386   0.217
    1UNL    H17   52  -0.011   0.240   0.311
    1UNL    H18   53  -0.204   0.062  -0.054
    1UNL    H19   54  -0.170  -0.155  -0.105
    1UNL    H20   55  -0.235  -0.397  -0.071
    1UNL    H21   56  -0.252  -0.365   0.100
    1UNL    H22   57  -0.006  -0.277  -0.020
    1UNL    H23   58  -0.431  -0.208   0.033
    1UNL    H24   59  -0.514  -0.240  -0.202
    1UNL    H25   60  -0.372   0.005  -0.188
    1UNL    H26   61  -0.620  -0.005  -0.053
    1UNL    H27   62  -0.422   0.158   0.036
    1UNL    H28   63  -0.396   0.017   0.215
   0.00000   0.00000   0.00000   0.00000   0.00000   0.00000   0.00000   0.00000   0.00000
Generated with MDTraj, t= 4.0
 63
    1UNL     C1    1  -0.220   0.361  -0.042
    1UNL     C2    2  -0.079   0.312  -0.023
    1UNL     C3    3   0.042   0.417  -0.012
    1UNL     C4    4   0.170   0.339   0.010
    1UNL     O1    5   0.278   0.422   0.029
    1UNL     O2    6   0.188   0.232  -0.097
    1UNL     C5    7   0.075   0.147  -0.085
    1UNL     O3    8  -0.043   0.218  -0.128
    1UNL     C6    9   0.055   0.125   0.073
    1UNL     C7   10   0.065  -0.019   0.134
    1UNL     O4   11   0.194  -0.074   0.119
    1UNL     C8   12   0.207  -0.146   0.005
    1UNL     O5   13   0.121  -0.144  -0.076
    1UNL     C9   14   0.335  -0.223  -0.007
    1UNL    C10   15   0.354  -0.288  -0.127
    1UNL    C11   16   0.472  -0.353  -0.153
    1UNL    C12   17   0.578  -0.346  -0.059
    1UNL     O6   18   0.699  -0.413  -0.079
    1UNL    C13   19   0.554  -0.278   0.065
    1UNL    C14   20   0.440  -0.203   0.077
    1UNL    C15   21   0.140   0.238   0.134
    1UNL    C16   22   0.019   0.271   0.227
    1UNL    C17   23  -0.067   0.211   0.109
    1UNL     O7   24  -0.188   0.131   0.128
    1UNL    C18   25  -0.221   0.036   0.022
    1UNL     O8   26  -0.200  -0.103   0.062
    1UNL    C19   27  -0.226  -0.192  -0.041
    1UNL    C20   28  -0.179  -0.334  -0.003
    1UNL     O9   29  -0.043  -0.333   0.040
    1UNL    C21   30  -0.385  -0.190  -0.074
    1UNL    O10   31  -0.425  -0.272  -0.182
    1UNL    C22   32  -0.438  -0.049  -0.096
    1UNL    O11   33  -0.574  -0.043  -0.085
    1UNL    C23   34  -0.368   0.057  -0.006
    1UNL    O12   35  -0.443   0.057   0.119
    1UNL     H1   36  -0.213   0.456  -0.101
    1UNL     H2   37  -0.272   0.283  -0.092
    1UNL     H3   38  -0.249   0.379   0.058
    1UNL     H4   39   0.016   0.479   0.076
    1UNL     H5   40   0.058   0.475  -0.113
    1UNL     H6   41   0.301   0.466  -0.056
    1UNL     H7   42   0.101   0.058  -0.136
    1UNL     H8   43   0.035  -0.026   0.235
    1UNL     H9   44   0.004  -0.078   0.073
    1UNL    H10   45   0.274  -0.309  -0.194
    1UNL    H11   46   0.497  -0.395  -0.255
    1UNL    H12   47   0.763  -0.387  -0.009
    1UNL    H13   48   0.630  -0.275   0.151
    1UNL    H14   49   0.432  -0.150   0.178
    1UNL    H15   50   0.230   0.201   0.189
    1UNL    H16   51   0.016   0.378   0.256
    1UNL    H17   52   0.001   0.215   0.320
    1UNL    H18   53  -0.147   0.056  -0.059
    1UNL    H19   54  -0.167  -0.164  -0.133
    1UNL    H20   55  -0.205  -0.403  -0.089
    1UNL    H21   56  -0.243  -0.372   0.077
    1UNL    H22   57   0.012  -0.265  -0.010
    1UNL    H23   58  -0.433  -0.217   0.022
    1UNL    H24   59  -0.519  -0.248  -0.197
    1UNL    H25   60  -0.406  -0.009  -0.200
    1UNL    H26   61  -0.593  -0.024   0.005
    1UNL    H27   62  -0.393   0.158  -0.039
    1UNL    H28   63  -0.381   0.090   0.196
   0.00000   0.00000   0.00000   0.00000   0.00000   0.00000   0.00000   0.00000   0.00000
Generated with MDTraj, t= 5.0
 63
    1UNL     C1    1  -0.223   0.385  -0.040
    1UNL     C2    2  -0.078   0.316  -0.023
    1UNL     C3    3   0.041   0.419  -0.013
    1UNL     C4    4   0.163   0.329   0.017
    1UNL     O1    5   0.275   0.416   0.042
    1UNL     O2    6   0.182   0.245  -0.095
    1UNL     C5    7   0.069   0.162  -0.093
    1UNL     O3    8  -0.052   0.232  -0.132
    1UNL     C6    9   0.050   0.124   0.066
    1UNL     C7   10   0.067  -0.017   0.124
    1UNL     O4   11   0.202  -0.057   0.121
    1UNL     C8   12   0.221  -0.142   0.012
    1UNL     O5   13   0.142  -0.151  -0.076
    1UNL     C9   14   0.344  -0.222  -0.002
    1UNL    C10   15   0.353  -0.310  -0.113
    1UNL    C11   16   0.477  -0.367  -0.146
    1UNL    C12   17   0.584  -0.361  -0.058
    1UNL     O6   18   0.702  -0.418  -0.097
    1UNL    C13   19   0.574  -0.279   0.052
    1UNL    C14   20   0.452  -0.214   0.086
    1UNL    C15   21   0.142   0.234   0.139
    1UNL    C16   22   0.022   0.269   0.220
    1UNL    C17   23  -0.071   0.215   0.106
    1UNL     O7   24  -0.193   0.146   0.134
    1UNL    C18   25  -0.234   0.047   0.034
    1UNL     O8   26  -0.192  -0.088   0.058
    1UNL    C19   27  -0.226  -0.182  -0.043
    1UNL    C20   28  -0.186  -0.328  -0.013
    1UNL     O9   29  -0.051  -0.350   0.039
    1UNL    C21   30  -0.383  -0.187  -0.064
    1UNL    O10   31  -0.422  -0.283  -0.167
    1UNL    C22   32  -0.434  -0.046  -0.108
    1UNL    O11   33  -0.579  -0.058  -0.102
    1UNL    C23   34  -0.382   0.055  -0.001
    1UNL    O12   35  -0.460   0.055   0.119
    1UNL     H1   36  -0.226   0.417  -0.146
    1UNL     H2   37  -0.284   0.295  -0.023
    1UNL     H3   38  -0.233   0.459   0.031
    1UNL     H4   39   0.014   0.502   0.056
    1UNL     H5   40   0.040   0.452  -0.126
    1UNL     H6   41   0.350   0.361   0.056
    1UNL     H7   42   0.077   0.072  -0.146
    1UNL     H8   43   0.045  -0.022   0.228
    1UNL     H9   44   0.007  -0.097   0.083
    1UNL    H10   45   0.266  -0.306  -0.179
    1UNL    H11   46   0.478  -0.422  -0.233
    1UNL    H12   47   0.771  -0.422  -0.028
    1UNL    H13   48   0.658  -0.270   0.114
    1UNL    H14   49   0.441  -0.148   0.168
    1UNL    H15   50   0.235   0.205   0.196
    1UNL    H16   51   0.003   0.373   0.224
    1UNL    H17   52  -0.007   0.208   0.311
    1UNL    H18   53  -0.171   0.073  -0.054
    1UNL    H19   54  -0.169  -0.159  -0.136
    1UNL    H20   55  -0.202  -0.403  -0.094
    1UNL    H21   56  -0.253  -0.367   0.063
    1UNL    H22   57   0.005  -0.286  -0.006
    1UNL    H23   58  -0.429  -0.228   0.027
    1UNL    H24   59  -0.514  -0.274  -0.180
    1UNL    H25   60  -0.410  -0.028  -0.221
    1UNL    H26   61  -0.604  -0.055  -0.002
    1UNL    H27   62  -0.411   0.155  -0.040
    1UNL    H28   63  -0.401   0.087   0.184
   0.00000   0.00000   0.00000   0.00000   0.00000   0.00000   0.00000   0.00000   0.00000
Generated with MDTraj, t= 6.0
 63
    1UNL     C1    1  -0.216   0.377  -0.065
    1UNL     C2    2  -0.075   0.310  -0.030
    1UNL     C3    3   0.049   0.409  -0.020
    1UNL     C4    4   0.169   0.328   0.024
    1UNL     O1    5   0.279   0.420   0.059
    1UNL     O2    6   0.203   0.229  -0.075
    1UNL     C5    7   0.082   0.143  -0.077
    1UNL     O3    8  -0.031   0.212  -0.135
    1UNL     C6    9   0.047   0.127   0.069
    1UNL     C7   10   0.073  -0.013   0.128
    1UNL     O4   11   0.201  -0.078   0.103
    1UNL     C8   12   0.215  -0.138  -0.022
    1UNL     O5   13   0.126  -0.150  -0.100
    1UNL     C9   14   0.348  -0.203  -0.046
    1UNL    C10   15   0.361  -0.301  -0.143
    1UNL    C11   16   0.474  -0.373  -0.144
    1UNL    C12   17   0.579  -0.347  -0.056
    1UNL     O6   18   0.690  -0.431  -0.056
    1UNL    C13   19   0.562  -0.248   0.041
    1UNL    C14   20   0.444  -0.181   0.051
    1UNL    C15   21   0.137   0.238   0.150
    1UNL    C16   22   0.004   0.270   0.221
    1UNL    C17   23  -0.078   0.216   0.102
    1UNL     O7   24  -0.199   0.150   0.140
    1UNL    C18   25  -0.236   0.050   0.043
    1UNL     O8   26  -0.197  -0.082   0.075
    1UNL    C19   27  -0.234  -0.182  -0.024
    1UNL    C20   28  -0.194  -0.322   0.025
    1UNL     O9   29  -0.053  -0.344   0.037
    1UNL    C21   30  -0.387  -0.184  -0.056
    1UNL    O10   31  -0.420  -0.285  -0.149
    1UNL    C22   32  -0.425  -0.040  -0.109
    1UNL    O11   33  -0.563  -0.022  -0.142
    1UNL    C23   34  -0.396   0.049   0.015
    1UNL    O12   35  -0.452  -0.001   0.132
    1UNL     H1   36  -0.188   0.446  -0.142
    1UNL     H2   37  -0.289   0.297  -0.093
    1UNL     H3   38  -0.237   0.423   0.028
    1UNL     H4   39   0.010   0.475   0.062
    1UNL     H5   40   0.061   0.464  -0.119
    1UNL     H6   41   0.311   0.433  -0.029
    1UNL     H7   42   0.107   0.062  -0.137
    1UNL     H8   43   0.058  -0.030   0.235
    1UNL     H9   44   0.002  -0.087   0.091
    1UNL    H10   45   0.283  -0.343  -0.203
    1UNL    H11   46   0.500  -0.456  -0.216
    1UNL    H12   47   0.732  -0.422   0.031
    1UNL    H13   48   0.646  -0.225   0.105
    1UNL    H14   49   0.424  -0.132   0.143
    1UNL    H15   50   0.222   0.192   0.209
    1UNL    H16   51  -0.014   0.369   0.248
    1UNL    H17   52  -0.008   0.207   0.316
    1UNL    H18   53  -0.179   0.080  -0.048
    1UNL    H19   54  -0.180  -0.155  -0.119
    1UNL    H20   55  -0.239  -0.390  -0.049
    1UNL    H21   56  -0.246  -0.345   0.116
    1UNL    H22   57   0.009  -0.285  -0.018
    1UNL    H23   58  -0.445  -0.204   0.032
    1UNL    H24   59  -0.513  -0.266  -0.174
    1UNL    H25   60  -0.371   0.002  -0.202
    1UNL    H26   61  -0.610  -0.041  -0.061
    1UNL    H27   62  -0.428   0.153  -0.014
    1UNL    H28   63  -0.379   0.013   0.193
   0.00000   0.00000   0.00000   0.00000   0.00000   0.00000   0.00000   0.00000   0.00000
Generated with MDTraj, t= 7.0
 63
    1UNL     C1    1  -0.203   0.355  -0.065
    1UNL     C2    2  -0.070   0.298  -0.031
    1UNL     C3    3   0.047   0.408  -0.012
    1UNL     C4    4   0.177   0.328   0.029
    1UNL     O1    5   0.279   0.421   0.060
    1UNL     O2    6   0.210   0.244  -0.083
    1UNL     C5    7   0.102   0.147  -0.086
    1UNL     O3    8  -0.018   0.223  -0.135
    1UNL     C6    9   0.062   0.119   0.070
    1UNL     C7   10   0.070  -0.027   0.126
    1UNL     O4   11   0.190  -0.082   0.104
    1UNL     C8   12   0.194  -0.147  -0.018
    1UNL     O5   13   0.103  -0.166  -0.096
    1UNL     C9   14   0.331  -0.192  -0.044
    1UNL    C10   15   0.347  -0.289  -0.149
    1UNL    C11   16   0.462  -0.367  -0.141
    1UNL    C12   17   0.562  -0.340  -0.047
    1UNL     O6   18   0.679  -0.417  -0.051
    1UNL    C13   19   0.553  -0.223   0.034
    1UNL    C14   20   0.438  -0.154   0.039
    1UNL    C15   21   0.137   0.233   0.145
    1UNL    C16   22   0.005   0.262   0.219
    1UNL    C17   23  -0.067   0.198   0.095
    1UNL     O7   24  -0.185   0.129   0.134
    1UNL    C18   25  -0.229   0.038   0.037
    1UNL     O8   26  -0.204  -0.094   0.078
    1UNL    C19   27  -0.232  -0.193  -0.025
    1UNL    C20   28  -0.187  -0.332   0.026
    1UNL     O9   29  -0.054  -0.341   0.067
    1UNL    C21   30  -0.384  -0.187  -0.067
    1UNL    O10   31  -0.408  -0.271  -0.177
    1UNL    C22   32  -0.424  -0.037  -0.100
    1UNL    O11   33  -0.563  -0.032  -0.122
    1UNL    C23   34  -0.383   0.058   0.011
    1UNL    O12   35  -0.453   0.030   0.130
    1UNL     H1   36  -0.186   0.415  -0.148
    1UNL     H2   37  -0.263   0.266  -0.092
    1UNL     H3   38  -0.245   0.404   0.024
    1UNL     H4   39   0.008   0.503   0.045
    1UNL     H5   40   0.049   0.437  -0.118
    1UNL     H6   41   0.360   0.374   0.031
    1UNL     H7   42   0.123   0.056  -0.134
    1UNL     H8   43   0.052  -0.037   0.234
    1UNL     H9   44  -0.003  -0.104   0.091
    1UNL    H10   45   0.256  -0.304  -0.208
    1UNL    H11   46   0.480  -0.440  -0.214
    1UNL    H12   47   0.743  -0.386   0.015
    1UNL    H13   48   0.639  -0.195   0.098
    1UNL    H14   49   0.415  -0.065   0.106
    1UNL    H15   50   0.222   0.180   0.197
    1UNL    H16   51  -0.006   0.365   0.245
    1UNL    H17   52  -0.026   0.206   0.312
    1UNL    H18   53  -0.158   0.058  -0.045
    1UNL    H19   54  -0.170  -0.153  -0.107
    1UNL    H20   55  -0.207  -0.409  -0.049
    1UNL    H21   56  -0.248  -0.355   0.111
    1UNL    H22   57   0.002  -0.296   0.003
    1UNL    H23   58  -0.430  -0.236   0.018
    1UNL    H24   59  -0.498  -0.242  -0.215
    1UNL    H25   60  -0.371  -0.002  -0.192
    1UNL    H26   61  -0.600  -0.029  -0.036
    1UNL    H27   62  -0.426   0.160  -0.019
    1UNL    H28   63  -0.408   0.050   0.222
   0.00000   0.00000   0.00000   0.00000   0.00000   0.00000   0.00000   0.00000   0.00000
Generated with MDTraj, t= 8.0
 63
    1UNL     C1    1  -0.197   0.389  -0.053
    1UNL     C2    2  -0.073   0.315  -0.026
    1UNL     C3    3   0.054   0.412  -0.016
    1UNL     C4    4   0.177   0.331   0.023
    1UNL     O1    5   0.298   0.406   0.053
    1UNL     O2    6   0.195   0.227  -0.074
    1UNL     C5    7   0.077   0.142  -0.077
    1UNL     O3    8  -0.027   0.226  -0.134
    1UNL     C6    9   0.046   0.120   0.080
    1UNL     C7   10   0.072  -0.015   0.143
    1UNL     O4   11   0.197  -0.075   0.119
    1UNL     C8   12   0.200  -0.155   0.008
    1UNL     O5   13   0.109  -0.169  -0.073
    1UNL     C9   14   0.331  -0.216  -0.023
    1UNL    C10   15   0.347  -0.317  -0.110
    1UNL    C11   16   0.462  -0.376  -0.138
    1UNL    C12   17   0.582  -0.336  -0.071
    1UNL     O6   18   0.699  -0.390  -0.101
    1UNL    C13   19   0.564  -0.235   0.024
    1UNL    C14   20   0.445  -0.182   0.050
    1UNL    C15   21   0.133   0.242   0.152
    1UNL    C16   22  -0.005   0.278   0.220
    1UNL    C17   23  -0.076   0.215   0.099
    1UNL     O7   24  -0.192   0.141   0.125
    1UNL    C18   25  -0.229   0.043   0.024
    1UNL     O8   26  -0.202  -0.093   0.061
    1UNL    C19   27  -0.222  -0.196  -0.037
    1UNL    C20   28  -0.199  -0.336   0.020
    1UNL     O9   29  -0.074  -0.353   0.070
    1UNL    C21   30  -0.373  -0.188  -0.077
    1UNL    O10   31  -0.404  -0.276  -0.180
    1UNL    C22   32  -0.426  -0.041  -0.107
    1UNL    O11   33  -0.572  -0.062  -0.108
    1UNL    C23   34  -0.380   0.061  -0.009
    1UNL    O12   35  -0.451   0.046   0.113
    1UNL     H1   36  -0.190   0.450  -0.138
    1UNL     H2   37  -0.278   0.327  -0.063
    1UNL     H3   38  -0.225   0.452   0.034
    1UNL     H4   39   0.012   0.482   0.067
    1UNL     H5   40   0.060   0.464  -0.113
    1UNL     H6   41   0.389   0.392   0.005
    1UNL     H7   42   0.092   0.052  -0.127
    1UNL     H8   43   0.055  -0.021   0.253
    1UNL     H9   44  -0.003  -0.087   0.097
    1UNL    H10   45   0.260  -0.356  -0.158
    1UNL    H11   46   0.462  -0.468  -0.198
    1UNL    H12   47   0.773  -0.327  -0.082
    1UNL    H13   48   0.649  -0.218   0.082
    1UNL    H14   49   0.438  -0.118   0.129
    1UNL    H15   50   0.217   0.201   0.215
    1UNL    H16   51  -0.011   0.385   0.239
    1UNL    H17   52  -0.027   0.227   0.316
    1UNL    H18   53  -0.170   0.082  -0.060
    1UNL    H19   54  -0.156  -0.160  -0.115
    1UNL    H20   55  -0.220  -0.409  -0.059
    1UNL    H21   56  -0.267  -0.353   0.101
    1UNL    H22   57  -0.014  -0.284   0.025
    1UNL    H23   58  -0.428  -0.232   0.007
    1UNL    H24   59  -0.486  -0.239  -0.220
    1UNL    H25   60  -0.403  -0.023  -0.212
    1UNL    H26   61  -0.610  -0.048  -0.012
    1UNL    H27   62  -0.404   0.168  -0.034
    1UNL    H28   63  -0.400   0.084   0.185
   0.00000   0.00000   0.00000   0.00000   0.00000   0.00000   0.00000   0.00000   0.00000
Generated with MDTraj, t= 9.0
 63
    1UNL     C1    1  -0.199   0.376  -0.066
    1UNL     C2    2  -0.068   0.306  -0.033
    1UNL     C3    3   0.050   0.404  -0.014
    1UNL     C4    4   0.179   0.308   0.029
    1UNL     O1    5   0.279   0.404   0.069
    1UNL     O2    6   0.204   0.225  -0.086
    1UNL     C5    7   0.085   0.136  -0.081
    1UNL     O3    8  -0.026   0.209  -0.133
    1UNL     C6    9   0.043   0.114   0.072
    1UNL     C7   10   0.064  -0.019   0.141
    1UNL     O4   11   0.190  -0.077   0.145
    1UNL     C8   12   0.210  -0.158   0.032
    1UNL     O5   13   0.131  -0.170  -0.064
    1UNL     C9   14   0.341  -0.227   0.014
    1UNL    C10   15   0.345  -0.320  -0.094
    1UNL    C11   16   0.459  -0.375  -0.139
    1UNL    C12   17   0.580  -0.321  -0.091
    1UNL     O6   18   0.694  -0.376  -0.146
    1UNL    C13   19   0.586  -0.233   0.018
    1UNL    C14   20   0.465  -0.179   0.064
    1UNL    C15   21   0.140   0.222   0.144
    1UNL    C16   22   0.004   0.265   0.218
    1UNL    C17   23  -0.074   0.212   0.097
    1UNL     O7   24  -0.197   0.154   0.121
    1UNL    C18   25  -0.233   0.052   0.029
    1UNL     O8   26  -0.205  -0.079   0.074
    1UNL    C19   27  -0.234  -0.173  -0.025
    1UNL    C20   28  -0.205  -0.316   0.035
    1UNL     O9   29  -0.069  -0.343   0.055
    1UNL    C21   30  -0.384  -0.173  -0.072
    1UNL    O10   31  -0.416  -0.283  -0.153
    1UNL    C22   32  -0.422  -0.039  -0.121
    1UNL    O11   33  -0.563  -0.038  -0.154
    1UNL    C23   34  -0.391   0.062  -0.006
    1UNL    O12   35  -0.465   0.023   0.110
    1UNL     H1   36  -0.201   0.436  -0.155
    1UNL     H2   37  -0.286   0.315  -0.076
    1UNL     H3   38  -0.232   0.444   0.011
    1UNL     H4   39   0.034   0.483   0.064
    1UNL     H5   40   0.063   0.446  -0.118
    1UNL     H6   41   0.328   0.445  -0.011
    1UNL     H7   42   0.104   0.052  -0.140
    1UNL     H8   43   0.042  -0.001   0.250
    1UNL     H9   44  -0.011  -0.098   0.102
    1UNL    H10   45   0.244  -0.353  -0.118
    1UNL    H11   46   0.464  -0.451  -0.217
    1UNL    H12   47   0.770  -0.318  -0.120
    1UNL    H13   48   0.683  -0.188   0.049
    1UNL    H14   49   0.455  -0.121   0.164
    1UNL    H15   50   0.213   0.169   0.212
    1UNL    H16   51  -0.010   0.374   0.216
    1UNL    H17   52  -0.027   0.223   0.314
    1UNL    H18   53  -0.181   0.078  -0.065
    1UNL    H19   54  -0.164  -0.152  -0.104
    1UNL    H20   55  -0.248  -0.393  -0.030
    1UNL    H21   56  -0.252  -0.326   0.132
    1UNL    H22   57  -0.005  -0.286   0.010
    1UNL    H23   58  -0.448  -0.187   0.019
    1UNL    H24   59  -0.487  -0.256  -0.211
    1UNL    H25   60  -0.375  -0.003  -0.209
    1UNL    H26   61  -0.607  -0.051  -0.073
    1UNL    H27   62  -0.410   0.169  -0.034
    1UNL    H28   63  -0.408   0.034   0.185
   0.00000   0.00000   0.00000   0.00000   0.00000   0.00000   0.00000   0.00000   0.00000
Generated with MDTraj, t= 10.0
 63
    1UNL     C1    1  -0.182   0.346  -0.093
    1UNL     C2    2  -0.054   0.287  -0.034
    1UNL     C3    3   0.060   0.395  -0.031
    1UNL     C4    4   0.184   0.316   0.032
    1UNL     O1    5   0.296   0.401   0.054
    1UNL     O2    6   0.207   0.202  -0.058
    1UNL     C5    7   0.099   0.117  -0.056
    1UNL     O3    8  -0.010   0.187  -0.127
    1UNL     C6    9   0.057   0.118   0.097
    1UNL     C7   10   0.071  -0.019   0.160
    1UNL     O4   11   0.196  -0.074   0.124
    1UNL     C8   12   0.192  -0.157   0.014
    1UNL     O5   13   0.099  -0.177  -0.067
    1UNL     C9   14   0.326  -0.205  -0.022
    1UNL    C10   15   0.340  -0.306  -0.116
    1UNL    C11   16   0.461  -0.354  -0.148
    1UNL    C12   17   0.576  -0.314  -0.079
    1UNL     O6   18   0.700  -0.364  -0.119
    1UNL    C13   19   0.563  -0.197   0.000
    1UNL    C14   20   0.438  -0.155   0.041
    1UNL    C15   21   0.142   0.240   0.157
    1UNL    C16   22   0.004   0.286   0.224
    1UNL    C17   23  -0.070   0.210   0.100
    1UNL     O7   24  -0.198   0.140   0.138
    1UNL    C18   25  -0.237   0.040   0.046
    1UNL     O8   26  -0.213  -0.101   0.083
    1UNL    C19   27  -0.245  -0.189  -0.018
    1UNL    C20   28  -0.208  -0.334   0.030
    1UNL     O9   29  -0.070  -0.340   0.074
    1UNL    C21   30  -0.396  -0.178  -0.069
    1UNL    O10   31  -0.429  -0.278  -0.165
    1UNL    C22   32  -0.417  -0.041  -0.125
    1UNL    O11   33  -0.552  -0.014  -0.166
    1UNL    C23   34  -0.379   0.058  -0.002
    1UNL    O12   35  -0.466   0.041   0.111
    1UNL     H1   36  -0.162   0.420  -0.169
    1UNL     H2   37  -0.252   0.270  -0.136
    1UNL     H3   38  -0.235   0.396  -0.021
    1UNL     H4   39   0.036   0.475   0.035
    1UNL     H5   40   0.074   0.423  -0.141
    1UNL     H6   41   0.330   0.427  -0.035
    1UNL     H7   42   0.130   0.029  -0.106
    1UNL     H8   43   0.048  -0.016   0.273
    1UNL     H9   44  -0.008  -0.073   0.096
    1UNL    H10   45   0.257  -0.341  -0.172
    1UNL    H11   46   0.473  -0.439  -0.208
    1UNL    H12   47   0.769  -0.330  -0.056
    1UNL    H13   48   0.648  -0.150   0.039
    1UNL    H14   49   0.437  -0.069   0.097
    1UNL    H15   50   0.222   0.208   0.228
    1UNL    H16   51   0.010   0.399   0.237
    1UNL    H17   52  -0.026   0.251   0.320
    1UNL    H18   53  -0.160   0.044  -0.032
    1UNL    H19   54  -0.177  -0.175  -0.102
    1UNL    H20   55  -0.228  -0.418  -0.040
    1UNL    H21   56  -0.263  -0.354   0.120
    1UNL    H22   57  -0.016  -0.297   0.001
    1UNL    H23   58  -0.463  -0.206   0.017
    1UNL    H24   59  -0.499  -0.242  -0.227
    1UNL    H25   60  -0.355  -0.030  -0.210
    1UNL    H26   61  -0.602  -0.030  -0.088
    1UNL    H27   62  -0.399   0.160  -0.040
    1UNL    H28   63  -0.423   0.074   0.197
   0.00000   0.00000   0.00000   0.00000   0.00000   0.00000   0.00000   0.00000   0.00000
Generated with MDTraj, t= 11.0
 63
    1UNL     C1    1  -0.187   0.347  -0.093
    1UNL     C2    2  -0.052   0.288  -0.039
    1UNL     C3    3   0.065   0.390  -0.026
    1UNL     C4    4   0.189   0.308   0.031
    1UNL     O1    5   0.291   0.404   0.060
    1UNL     O2    6   0.222   0.213  -0.076
    1UNL     C5    7   0.108   0.121  -0.070
    1UNL     O3    8  -0.006   0.185  -0.132
    1UNL     C6    9   0.062   0.106   0.083
    1UNL     C7   10   0.061  -0.034   0.157
    1UNL     O4   11   0.178  -0.100   0.146
    1UNL     C8   12   0.182  -0.152   0.019
    1UNL     O5   13   0.082  -0.183  -0.049
    1UNL     C9   14   0.314  -0.189  -0.038
    1UNL    C10   15   0.336  -0.289  -0.133
    1UNL    C11   16   0.467  -0.343  -0.152
    1UNL    C12   17   0.573  -0.284  -0.088
    1UNL     O6   18   0.690  -0.355  -0.096
    1UNL    C13   19   0.561  -0.178  -0.004
    1UNL    C14   20   0.434  -0.136   0.026
    1UNL    C15   21   0.146   0.223   0.158
    1UNL    C16   22   0.009   0.267   0.220
    1UNL    C17   23  -0.061   0.204   0.097
    1UNL     O7   24  -0.185   0.140   0.126
    1UNL    C18   25  -0.222   0.041   0.033
    1UNL     O8   26  -0.207  -0.098   0.075
    1UNL    C19   27  -0.242  -0.200  -0.013
    1UNL    C20   28  -0.231  -0.343   0.047
    1UNL     O9   29  -0.105  -0.375   0.105
    1UNL    C21   30  -0.382  -0.180  -0.080
    1UNL    O10   31  -0.406  -0.272  -0.183
    1UNL    C22   32  -0.414  -0.034  -0.118
    1UNL    O11   33  -0.554  -0.017  -0.137
    1UNL    C23   34  -0.369   0.064  -0.007
    1UNL    O12   35  -0.453   0.057   0.105
    1UNL     H1   36  -0.166   0.425  -0.166
    1UNL     H2   37  -0.237   0.262  -0.141
    1UNL     H3   38  -0.238   0.383  -0.010
    1UNL     H4   39   0.038   0.470   0.036
    1UNL     H5   40   0.103   0.427  -0.127
    1UNL     H6   41   0.347   0.425  -0.015
    1UNL     H7   42   0.121   0.020  -0.097
    1UNL     H8   43   0.047   0.002   0.265
    1UNL     H9   44  -0.029  -0.093   0.118
    1UNL    H10   45   0.251  -0.357  -0.145
    1UNL    H11   46   0.487  -0.416  -0.234
    1UNL    H12   47   0.759  -0.316  -0.037
    1UNL    H13   48   0.652  -0.120   0.021
    1UNL    H14   49   0.414  -0.070   0.115
    1UNL    H15   50   0.232   0.191   0.221
    1UNL    H16   51  -0.000   0.377   0.246
    1UNL    H17   52  -0.018   0.218   0.310
    1UNL    H18   53  -0.161   0.054  -0.057
    1UNL    H19   54  -0.164  -0.193  -0.091
    1UNL    H20   55  -0.255  -0.412  -0.038
    1UNL    H21   56  -0.304  -0.350   0.128
    1UNL    H22   57  -0.035  -0.313   0.077
    1UNL    H23   58  -0.463  -0.196  -0.003
    1UNL    H24   59  -0.499  -0.237  -0.213
    1UNL    H25   60  -0.371  -0.020  -0.213
    1UNL    H26   61  -0.598   0.004  -0.046
    1UNL    H27   62  -0.385   0.166  -0.041
    1UNL    H28   63  -0.382   0.083   0.178
   0.00000   0.00000   0.00000   0.00000   0.00000   0.00000   0.00000   0.00000   0.00000
Generated with MDTraj, t= 12.0
 63
    1UNL     C1    1  -0.179   0.379  -0.078
    1UNL     C2    2  -0.053   0.296  -0.039
    1UNL     C3    3   0.077   0.393  -0.033
    1UNL     C4    4   0.193   0.307   0.033
    1UNL     O1    5   0.313   0.383   0.065
    1UNL     O2    6   0.220   0.203  -0.068
    1UNL     C5    7   0.095   0.126  -0.079
    1UNL     O3    8  -0.010   0.200  -0.137
    1UNL     C6    9   0.052   0.113   0.080
    1UNL     C7   10   0.058  -0.025   0.153
    1UNL     O4   11   0.188  -0.090   0.135
    1UNL     C8   12   0.188  -0.178   0.032
    1UNL     O5   13   0.084  -0.198  -0.038
    1UNL     C9   14   0.322  -0.223  -0.009
    1UNL    C10   15   0.344  -0.318  -0.105
    1UNL    C11   16   0.475  -0.350  -0.148
    1UNL    C12   17   0.588  -0.293  -0.092
    1UNL     O6   18   0.709  -0.299  -0.152
    1UNL    C13   19   0.561  -0.196   0.011
    1UNL    C14   20   0.436  -0.167   0.053
    1UNL    C15   21   0.140   0.223   0.149
    1UNL    C16   22   0.010   0.272   0.218
    1UNL    C17   23  -0.066   0.209   0.094
    1UNL     O7   24  -0.197   0.156   0.112
    1UNL    C18   25  -0.234   0.051   0.026
    1UNL     O8   26  -0.226  -0.082   0.080
    1UNL    C19   27  -0.242  -0.193  -0.012
    1UNL    C20   28  -0.220  -0.333   0.046
    1UNL     O9   29  -0.100  -0.362   0.107
    1UNL    C21   30  -0.388  -0.185  -0.070
    1UNL    O10   31  -0.417  -0.270  -0.174
    1UNL    C22   32  -0.422  -0.042  -0.122
    1UNL    O11   33  -0.555  -0.023  -0.154
    1UNL    C23   34  -0.386   0.065  -0.009
    1UNL    O12   35  -0.466   0.031   0.107
    1UNL     H1   36  -0.155   0.412  -0.178
    1UNL     H2   37  -0.252   0.307  -0.080
    1UNL     H3   38  -0.193   0.461  -0.006
    1UNL     H4   39   0.060   0.471   0.037
    1UNL     H5   40   0.108   0.434  -0.129
    1UNL     H6   41   0.381   0.358   0.007
    1UNL     H7   42   0.113   0.039  -0.137
    1UNL     H8   43   0.019  -0.016   0.258
    1UNL     H9   44  -0.021  -0.077   0.093
    1UNL    H10   45   0.267  -0.370  -0.160
    1UNL    H11   46   0.486  -0.429  -0.215
    1UNL    H12   47   0.769  -0.231  -0.113
    1UNL    H13   48   0.648  -0.148   0.048
    1UNL    H14   49   0.428  -0.085   0.124
    1UNL    H15   50   0.215   0.184   0.221
    1UNL    H16   51  -0.017   0.380   0.212
    1UNL    H17   52  -0.013   0.222   0.312
    1UNL    H18   53  -0.174   0.052  -0.066
    1UNL    H19   54  -0.171  -0.169  -0.093
    1UNL    H20   55  -0.237  -0.410  -0.035
    1UNL    H21   56  -0.293  -0.339   0.128
    1UNL    H22   57  -0.032  -0.306   0.059
    1UNL    H23   58  -0.444  -0.211   0.022
    1UNL    H24   59  -0.506  -0.261  -0.215
    1UNL    H25   60  -0.362  -0.025  -0.207
    1UNL    H26   61  -0.598   0.001  -0.071
    1UNL    H27   62  -0.424   0.162  -0.037
    1UNL    H28   63  -0.413  -0.023   0.159
   0.00000   0.00000   0.00000   0.00000   0.00000   0.00000   0.00000   0.00000   0.00000
Generated with MDTraj, t= 13.0
 63
    1UNL     C1    1  -0.177   0.369  -0.079
    1UNL     C2    2  -0.054   0.294  -0.037
    1UNL     C3    3   0.077   0.383  -0.023
    1UNL     C4    4   0.187   0.294   0.026
    1UNL     O1    5   0.308   0.366   0.060
    1UNL     O2    6   0.210   0.183  -0.073
    1UNL     C5    7   0.088   0.113  -0.070
    1UNL     O3    8  -0.024   0.187  -0.135
    1UNL     C6    9   0.043   0.103   0.079
    1UNL     C7   10   0.047  -0.041   0.137
    1UNL     O4   11   0.175  -0.087   0.140
    1UNL     C8   12   0.197  -0.178   0.043
    1UNL     O5   13   0.110  -0.220  -0.037
    1UNL     C9   14   0.333  -0.224   0.007
    1UNL    C10   15   0.353  -0.307  -0.109
    1UNL    C11   16   0.477  -0.335  -0.161
    1UNL    C12   17   0.590  -0.278  -0.099
    1UNL     O6   18   0.713  -0.298  -0.174
    1UNL    C13   19   0.577  -0.205   0.021
    1UNL    C14   20   0.449  -0.166   0.068
    1UNL    C15   21   0.135   0.208   0.152
    1UNL    C16   22   0.006   0.265   0.222
    1UNL    C17   23  -0.071   0.212   0.097
    1UNL     O7   24  -0.205   0.163   0.122
    1UNL    C18   25  -0.238   0.062   0.030
    1UNL     O8   26  -0.223  -0.069   0.074
    1UNL    C19   27  -0.245  -0.179  -0.017
    1UNL    C20   28  -0.210  -0.316   0.058
    1UNL     O9   29  -0.081  -0.323   0.111
    1UNL    C21   30  -0.392  -0.171  -0.070
    1UNL    O10   31  -0.421  -0.275  -0.167
    1UNL    C22   32  -0.425  -0.029  -0.126
    1UNL    O11   33  -0.557  -0.032  -0.165
    1UNL    C23   34  -0.387   0.073  -0.015
    1UNL    O12   35  -0.470   0.045   0.095
    1UNL     H1   36  -0.152   0.436  -0.156
    1UNL     H2   37  -0.243   0.296  -0.118
    1UNL     H3   38  -0.214   0.424   0.011
    1UNL     H4   39   0.059   0.476   0.032
    1UNL     H5   40   0.102   0.411  -0.119
    1UNL     H6   41   0.372   0.299   0.079
    1UNL     H7   42   0.102   0.024  -0.130
    1UNL     H8   43   0.019  -0.035   0.245
    1UNL     H9   44  -0.029  -0.105   0.092
    1UNL    H10   45   0.263  -0.355  -0.144
    1UNL    H11   46   0.490  -0.410  -0.242
    1UNL    H12   47   0.785  -0.244  -0.138
    1UNL    H13   48   0.664  -0.164   0.066
    1UNL    H14   49   0.430  -0.109   0.155
    1UNL    H15   50   0.214   0.169   0.218
    1UNL    H16   51   0.004   0.373   0.232
    1UNL    H17   52  -0.023   0.203   0.312
    1UNL    H18   53  -0.162   0.064  -0.051
    1UNL    H19   54  -0.182  -0.164  -0.108
    1UNL    H20   55  -0.214  -0.400  -0.015
    1UNL    H21   56  -0.281  -0.328   0.141
    1UNL    H22   57  -0.010  -0.294   0.052
    1UNL    H23   58  -0.458  -0.179   0.018
    1UNL    H24   59  -0.509  -0.266  -0.198
    1UNL    H25   60  -0.367  -0.007  -0.215
    1UNL    H26   61  -0.625  -0.024  -0.097
    1UNL    H27   62  -0.418   0.169  -0.047
    1UNL    H28   63  -0.441   0.104   0.165
   0.00000   0.00000   0.00000   0.00000   0.00000   0.00000   0.00000   0.00000   0.00000
Generated with MDTraj, t= 14.0
 63
    1UNL     C1    1  -0.166   0.362  -0.088
    1UNL     C2    2  -0.045   0.282  -0.043
    1UNL     C3    3   0.083   0.367  -0.024
    1UNL     C4    4   0.191   0.285   0.022
    1UNL     O1    5   0.312   0.361   0.048
    1UNL     O2    6   0.214   0.181  -0.074
    1UNL     C5    7   0.094   0.103  -0.067
    1UNL     O3    8  -0.014   0.177  -0.129
    1UNL     C6    9   0.054   0.097   0.092
    1UNL     C7   10   0.051  -0.037   0.157
    1UNL     O4   11   0.182  -0.096   0.134
    1UNL     C8   12   0.199  -0.160   0.019
    1UNL     O5   13   0.095  -0.182  -0.045
    1UNL     C9   14   0.336  -0.193  -0.030
    1UNL    C10   15   0.358  -0.272  -0.139
    1UNL    C11   16   0.483  -0.300  -0.174
    1UNL    C12   17   0.596  -0.263  -0.095
    1UNL     O6   18   0.713  -0.320  -0.120
    1UNL    C13   19   0.570  -0.181   0.013
    1UNL    C14   20   0.439  -0.151   0.041
    1UNL    C15   21   0.144   0.201   0.157
    1UNL    C16   22   0.018   0.262   0.220
    1UNL    C17   23  -0.067   0.200   0.105
    1UNL     O7   24  -0.202   0.144   0.129
    1UNL    C18   25  -0.233   0.043   0.037
    1UNL     O8   26  -0.234  -0.087   0.095
    1UNL    C19   27  -0.255  -0.189  -0.002
    1UNL    C20   28  -0.245  -0.320   0.061
    1UNL     O9   29  -0.116  -0.338   0.121
    1UNL    C21   30  -0.394  -0.178  -0.067
    1UNL    O10   31  -0.416  -0.280  -0.175
    1UNL    C22   32  -0.426  -0.038  -0.131
    1UNL    O11   33  -0.562  -0.020  -0.154
    1UNL    C23   34  -0.382   0.066  -0.021
    1UNL    O12   35  -0.474   0.074   0.085
    1UNL     H1   36  -0.147   0.415  -0.176
    1UNL     H2   37  -0.255   0.300  -0.123
    1UNL     H3   38  -0.195   0.437  -0.014
    1UNL     H4   39   0.058   0.451   0.041
    1UNL     H5   40   0.101   0.413  -0.113
    1UNL     H6   41   0.383   0.297   0.049
    1UNL     H7   42   0.108   0.009  -0.123
    1UNL     H8   43   0.027  -0.030   0.264
    1UNL     H9   44  -0.023  -0.099   0.113
    1UNL    H10   45   0.273  -0.331  -0.174
    1UNL    H11   46   0.506  -0.368  -0.250
    1UNL    H12   47   0.774  -0.292  -0.051
    1UNL    H13   48   0.651  -0.150   0.080
    1UNL    H14   49   0.426  -0.093   0.138
    1UNL    H15   50   0.225   0.176   0.228
    1UNL    H16   51   0.023   0.368   0.233
    1UNL    H17   52  -0.006   0.210   0.320
    1UNL    H18   53  -0.159   0.043  -0.045
    1UNL    H19   54  -0.172  -0.196  -0.078
    1UNL    H20   55  -0.260  -0.401  -0.012
    1UNL    H21   56  -0.309  -0.330   0.149
    1UNL    H22   57  -0.045  -0.305   0.062
    1UNL    H23   58  -0.465  -0.193   0.013
    1UNL    H24   59  -0.514  -0.280  -0.189
    1UNL    H25   60  -0.365  -0.034  -0.224
    1UNL    H26   61  -0.616  -0.007  -0.066
    1UNL    H27   62  -0.387   0.153  -0.084
    1UNL    H28   63  -0.411   0.115   0.158
   0.00000   0.00000   0.00000   0.00000   0.00000   0.00000   0.00000   0.00000   0.00000
Generated with MDTraj, t= 15.0
 63
    1UNL     C1    1  -0.164   0.374  -0.086
    1UNL     C2    2  -0.043   0.287  -0.050
    1UNL     C3    3   0.091   0.376  -0.027
    1UNL     C4    4   0.200   0.289   0.026
    1UNL     O1    5   0.317   0.361   0.054
    1UNL     O2    6   0.222   0.183  -0.073
    1UNL     C5    7   0.091   0.108  -0.070
    1UNL     O3    8  -0.005   0.179  -0.145
    1UNL     C6    9   0.058   0.100   0.084
    1UNL     C7   10   0.043  -0.040   0.147
    1UNL     O4   11   0.170  -0.101   0.142
    1UNL     C8   12   0.177  -0.172   0.021
    1UNL     O5   13   0.078  -0.200  -0.051
    1UNL     C9   14   0.313  -0.197  -0.022
    1UNL    C10   15   0.345  -0.264  -0.143
    1UNL    C11   16   0.478  -0.289  -0.176
    1UNL    C12   17   0.580  -0.265  -0.083
    1UNL     O6   18   0.719  -0.303  -0.108
    1UNL    C13   19   0.549  -0.179   0.023
    1UNL    C14   20   0.417  -0.148   0.058
    1UNL    C15   21   0.143   0.208   0.153
    1UNL    C16   22   0.012   0.266   0.207
    1UNL    C17   23  -0.059   0.201   0.087
    1UNL     O7   24  -0.194   0.150   0.121
    1UNL    C18   25  -0.235   0.046   0.038
    1UNL     O8   26  -0.212  -0.087   0.089
    1UNL    C19   27  -0.246  -0.194  -0.007
    1UNL    C20   28  -0.235  -0.332   0.050
    1UNL     O9   29  -0.101  -0.374   0.081
    1UNL    C21   30  -0.391  -0.175  -0.050
    1UNL    O10   31  -0.433  -0.280  -0.141
    1UNL    C22   32  -0.415  -0.036  -0.121
    1UNL    O11   33  -0.546  -0.018  -0.166
    1UNL    C23   34  -0.378   0.064  -0.004
    1UNL    O12   35  -0.459   0.064   0.107
    1UNL     H1   36  -0.153   0.421  -0.183
    1UNL     H2   37  -0.259   0.320  -0.111
    1UNL     H3   38  -0.188   0.455  -0.020
    1UNL     H4   39   0.068   0.463   0.030
    1UNL     H5   40   0.109   0.424  -0.119
    1UNL     H6   41   0.392   0.301   0.027
    1UNL     H7   42   0.111   0.011  -0.117
    1UNL     H8   43   0.034  -0.032   0.254
    1UNL     H9   44  -0.035  -0.100   0.110
    1UNL    H10   45   0.257  -0.295  -0.197
    1UNL    H11   46   0.495  -0.342  -0.270
    1UNL    H12   47   0.775  -0.306  -0.029
    1UNL    H13   48   0.627  -0.134   0.080
    1UNL    H14   49   0.390  -0.087   0.135
    1UNL    H15   50   0.217   0.172   0.223
    1UNL    H16   51  -0.024   0.368   0.202
    1UNL    H17   52  -0.022   0.212   0.302
    1UNL    H18   53  -0.157   0.047  -0.042
    1UNL    H19   54  -0.184  -0.190  -0.100
    1UNL    H20   55  -0.274  -0.414  -0.010
    1UNL    H21   56  -0.284  -0.325   0.148
    1UNL    H22   57  -0.031  -0.307   0.052
    1UNL    H23   58  -0.454  -0.167   0.039
    1UNL    H24   59  -0.531  -0.266  -0.168
    1UNL    H25   60  -0.341  -0.012  -0.205
    1UNL    H26   61  -0.608   0.004  -0.099
    1UNL    H27   62  -0.390   0.163  -0.043
    1UNL    H28   63  -0.398   0.044   0.189
   0.00000   0.00000   0.00000   0.00000   0.00000   0.00000   0.00000   0.00000   0.00000
Generated with MDTraj, t= 16.0
 63
    1UNL     C1    1  -0.163   0.368  -0.071
    1UNL     C2    2  -0.042   0.290  -0.048
    1UNL     C3    3   0.089   0.377  -0.033
    1UNL     C4    4   0.199   0.290   0.020
    1UNL     O1    5   0.320   0.359   0.051
    1UNL     O2    6   0.220   0.187  -0.075
    1UNL     C5    7   0.103   0.116  -0.079
    1UNL     O3    8  -0.010   0.186  -0.141
    1UNL     C6    9   0.060   0.104   0.073
    1UNL     C7   10   0.044  -0.024   0.150
    1UNL     O4   11   0.167  -0.104   0.144
    1UNL     C8   12   0.190  -0.169   0.027
    1UNL     O5   13   0.097  -0.173  -0.054
    1UNL     C9   14   0.325  -0.220   0.001
    1UNL    C10   15   0.345  -0.287  -0.112
    1UNL    C11   16   0.473  -0.319  -0.155
    1UNL    C12   17   0.582  -0.267  -0.084
    1UNL     O6   18   0.704  -0.256  -0.145
    1UNL    C13   19   0.559  -0.216   0.048
    1UNL    C14   20   0.434  -0.183   0.087
    1UNL    C15   21   0.143   0.210   0.150
    1UNL    C16   22   0.007   0.267   0.206
    1UNL    C17   23  -0.062   0.204   0.088
    1UNL     O7   24  -0.197   0.146   0.112
    1UNL    C18   25  -0.232   0.047   0.021
    1UNL     O8   26  -0.213  -0.087   0.069
    1UNL    C19   27  -0.251  -0.193  -0.021
    1UNL    C20   28  -0.220  -0.320   0.055
    1UNL     O9   29  -0.083  -0.357   0.053
    1UNL    C21   30  -0.404  -0.171  -0.052
    1UNL    O10   31  -0.456  -0.283  -0.130
    1UNL    C22   32  -0.431  -0.031  -0.116
    1UNL    O11   33  -0.561  -0.025  -0.152
    1UNL    C23   34  -0.386   0.072  -0.011
    1UNL    O12   35  -0.463   0.052   0.109
    1UNL     H1   36  -0.159   0.434  -0.163
    1UNL     H2   37  -0.237   0.299  -0.097
    1UNL     H3   38  -0.188   0.426   0.016
    1UNL     H4   39   0.070   0.462   0.022
    1UNL     H5   40   0.121   0.424  -0.127
    1UNL     H6   41   0.395   0.292   0.043
    1UNL     H7   42   0.114   0.019  -0.134
    1UNL     H8   43   0.011  -0.006   0.249
    1UNL     H9   44  -0.013  -0.100   0.101
    1UNL    H10   45   0.269  -0.335  -0.171
    1UNL    H11   46   0.494  -0.366  -0.248
    1UNL    H12   47   0.771  -0.249  -0.075
    1UNL    H13   48   0.645  -0.173   0.098
    1UNL    H14   49   0.418  -0.152   0.197
    1UNL    H15   50   0.206   0.171   0.229
    1UNL    H16   51   0.003   0.377   0.214
    1UNL    H17   52  -0.008   0.206   0.298
    1UNL    H18   53  -0.165   0.063  -0.068
    1UNL    H19   54  -0.194  -0.180  -0.114
    1UNL    H20   55  -0.264  -0.400  -0.004
    1UNL    H21   56  -0.251  -0.324   0.161
    1UNL    H22   57  -0.021  -0.295   0.014
    1UNL    H23   58  -0.451  -0.167   0.048
    1UNL    H24   59  -0.437  -0.288  -0.229
    1UNL    H25   60  -0.371  -0.027  -0.214
    1UNL    H26   61  -0.617  -0.019  -0.077
    1UNL    H27   62  -0.422   0.168  -0.048
    1UNL    H28   63  -0.400   0.061   0.182
   0.00000   0.00000   0.00000   0.00000   0.00000   0.00000   0.00000   0.00000   0.00000
Generated with MDTraj, t= 17.0
 63
    1UNL     C1    1  -0.167   0.363  -0.102
    1UNL     C2    2  -0.050   0.286  -0.043
    1UNL     C3    3   0.074   0.382  -0.035
    1UNL     C4    4   0.194   0.295   0.022
    1UNL     O1    5   0.315   0.364   0.053
    1UNL     O2    6   0.216   0.189  -0.074
    1UNL     C5    7   0.095   0.112  -0.063
    1UNL     O3    8  -0.012   0.178  -0.135
    1UNL     C6    9   0.057   0.101   0.084
    1UNL     C7   10   0.049  -0.038   0.159
    1UNL     O4   11   0.182  -0.089   0.149
    1UNL     C8   12   0.198  -0.170   0.039
    1UNL     O5   13   0.108  -0.203  -0.039
    1UNL     C9   14   0.337  -0.203  -0.005
    1UNL    C10   15   0.358  -0.278  -0.121
    1UNL    C11   16   0.488  -0.300  -0.162
    1UNL    C12   17   0.597  -0.269  -0.084
    1UNL     O6   18   0.723  -0.300  -0.138
    1UNL    C13   19   0.574  -0.214   0.042
    1UNL    C14   20   0.447  -0.185   0.081
    1UNL    C15   21   0.138   0.217   0.148
    1UNL    C16   22   0.008   0.267   0.213
    1UNL    C17   23  -0.069   0.204   0.089
    1UNL     O7   24  -0.200   0.143   0.115
    1UNL    C18   25  -0.236   0.051   0.021
    1UNL     O8   26  -0.222  -0.080   0.072
    1UNL    C19   27  -0.248  -0.185  -0.029
    1UNL    C20   28  -0.228  -0.324   0.023
    1UNL     O9   29  -0.098  -0.361   0.048
    1UNL    C21   30  -0.398  -0.173  -0.062
    1UNL    O10   31  -0.451  -0.277  -0.145
    1UNL    C22   32  -0.445  -0.033  -0.105
    1UNL    O11   33  -0.581  -0.030  -0.109
    1UNL    C23   34  -0.386   0.080  -0.016
    1UNL    O12   35  -0.467   0.073   0.095
    1UNL     H1   36  -0.144   0.398  -0.206
    1UNL     H2   37  -0.249   0.298  -0.110
    1UNL     H3   38  -0.178   0.445  -0.033
    1UNL     H4   39   0.060   0.471   0.018
    1UNL     H5   40   0.091   0.425  -0.136
    1UNL     H6   41   0.372   0.378  -0.031
    1UNL     H7   42   0.106   0.004  -0.093
    1UNL     H8   43   0.044  -0.023   0.263
    1UNL     H9   44  -0.020  -0.106   0.111
    1UNL    H10   45   0.267  -0.305  -0.173
    1UNL    H11   46   0.495  -0.370  -0.248
    1UNL    H12   47   0.795  -0.317  -0.072
    1UNL    H13   48   0.655  -0.217   0.112
    1UNL    H14   49   0.415  -0.146   0.173
    1UNL    H15   50   0.217   0.188   0.216
    1UNL    H16   51  -0.003   0.378   0.229
    1UNL    H17   52  -0.026   0.207   0.297
    1UNL    H18   53  -0.176   0.075  -0.069
    1UNL    H19   54  -0.184  -0.154  -0.111
    1UNL    H20   55  -0.264  -0.399  -0.046
    1UNL    H21   56  -0.278  -0.336   0.121
    1UNL    H22   57  -0.027  -0.297   0.014
    1UNL    H23   58  -0.447  -0.180   0.039
    1UNL    H24   59  -0.478  -0.244  -0.232
    1UNL    H25   60  -0.410  -0.022  -0.214
    1UNL    H26   61  -0.613  -0.019  -0.016
    1UNL    H27   62  -0.395   0.182  -0.056
    1UNL    H28   63  -0.423   0.121   0.162
   0.00000   0.00000   0.00000   0.00000   0.00000   0.00000   0.00000   0.00000   0.00000
Generated with MDTraj, t= 18.0
 63
    1UNL     C1    1  -0.178   0.344  -0.106
    1UNL     C2    2  -0.049   0.273  -0.054
    1UNL     C3    3   0.068   0.367  -0.041
    1UNL     C4    4   0.192   0.290   0.025
    1UNL     O1    5   0.300   0.376   0.058
    1UNL     O2    6   0.217   0.198  -0.077
    1UNL     C5    7   0.097   0.112  -0.074
    1UNL     O3    8  -0.008   0.167  -0.143
    1UNL     C6    9   0.062   0.101   0.080
    1UNL     C7   10   0.062  -0.033   0.162
    1UNL     O4   11   0.192  -0.097   0.141
    1UNL     C8   12   0.204  -0.162   0.022
    1UNL     O5   13   0.110  -0.184  -0.055
    1UNL     C9   14   0.346  -0.189  -0.014
    1UNL    C10   15   0.372  -0.239  -0.142
    1UNL    C11   16   0.494  -0.287  -0.169
    1UNL    C12   17   0.601  -0.282  -0.071
    1UNL     O6   18   0.715  -0.351  -0.101
    1UNL    C13   19   0.572  -0.207   0.046
    1UNL    C14   20   0.448  -0.151   0.067
    1UNL    C15   21   0.142   0.213   0.149
    1UNL    C16   22   0.001   0.259   0.213
    1UNL    C17   23  -0.065   0.195   0.089
    1UNL     O7   24  -0.191   0.142   0.118
    1UNL    C18   25  -0.233   0.044   0.025
    1UNL     O8   26  -0.221  -0.096   0.069
    1UNL    C19   27  -0.267  -0.192  -0.026
    1UNL    C20   28  -0.235  -0.332   0.020
    1UNL     O9   29  -0.105  -0.345   0.073
    1UNL    C21   30  -0.416  -0.175  -0.061
    1UNL    O10   31  -0.460  -0.267  -0.159
    1UNL    C22   32  -0.447  -0.026  -0.103
    1UNL    O11   33  -0.583  -0.001  -0.120
    1UNL    C23   34  -0.381   0.072   0.003
    1UNL    O12   35  -0.450   0.056   0.124
    1UNL     H1   36  -0.147   0.428  -0.165
    1UNL     H2   37  -0.236   0.270  -0.173
    1UNL     H3   38  -0.226   0.380  -0.018
    1UNL     H4   39   0.057   0.447   0.034
    1UNL     H5   40   0.087   0.420  -0.134
    1UNL     H6   41   0.350   0.397  -0.029
    1UNL     H7   42   0.125   0.006  -0.105
    1UNL     H8   43   0.042  -0.010   0.264
    1UNL     H9   44  -0.006  -0.096   0.105
    1UNL    H10   45   0.289  -0.265  -0.205
    1UNL    H11   46   0.521  -0.317  -0.265
    1UNL    H12   47   0.761  -0.368  -0.013
    1UNL    H13   48   0.646  -0.191   0.122
    1UNL    H14   49   0.431  -0.097   0.161
    1UNL    H15   50   0.219   0.182   0.219
    1UNL    H16   51  -0.032   0.369   0.227
    1UNL    H17   52  -0.029   0.218   0.307
    1UNL    H18   53  -0.172   0.054  -0.066
    1UNL    H19   54  -0.210  -0.177  -0.117
    1UNL    H20   55  -0.260  -0.407  -0.054
    1UNL    H21   56  -0.294  -0.350   0.113
    1UNL    H22   57  -0.037  -0.294   0.025
    1UNL    H23   58  -0.484  -0.198   0.026
    1UNL    H24   59  -0.461  -0.228  -0.245
    1UNL    H25   60  -0.410  -0.007  -0.208
    1UNL    H26   61  -0.623  -0.028  -0.029
    1UNL    H27   62  -0.401   0.180  -0.022
    1UNL    H28   63  -0.405   0.092   0.211
   0.00000   0.00000   0.00000   0.00000   0.00000   0.00000   0.00000   0.00000   0.00000
Generated with MDTraj, t= 19.0
 63
    1UNL     C1    1  -0.179   0.358  -0.078
    1UNL     C2    2  -0.054   0.283  -0.044
    1UNL     C3    3   0.060   0.384  -0.041
    1UNL     C4    4   0.193   0.306   0.013
    1UNL     O1    5   0.300   0.393   0.041
    1UNL     O2    6   0.214   0.203  -0.083
    1UNL     C5    7   0.100   0.119  -0.070
    1UNL     O3    8  -0.018   0.172  -0.137
    1UNL     C6    9   0.063   0.106   0.076
    1UNL     C7   10   0.063  -0.034   0.146
    1UNL     O4   11   0.183  -0.097   0.123
    1UNL     C8   12   0.200  -0.165   0.003
    1UNL     O5   13   0.109  -0.174  -0.077
    1UNL     C9   14   0.335  -0.209  -0.013
    1UNL    C10   15   0.370  -0.277  -0.133
    1UNL    C11   16   0.500  -0.305  -0.162
    1UNL    C12   17   0.596  -0.294  -0.058
    1UNL     O6   18   0.727  -0.329  -0.096
    1UNL    C13   19   0.565  -0.235   0.064
    1UNL    C14   20   0.433  -0.191   0.085
    1UNL    C15   21   0.154   0.223   0.139
    1UNL    C16   22   0.017   0.270   0.206
    1UNL    C17   23  -0.066   0.204   0.090
    1UNL     O7   24  -0.197   0.149   0.126
    1UNL    C18   25  -0.247   0.050   0.039
    1UNL     O8   26  -0.213  -0.087   0.071
    1UNL    C19   27  -0.262  -0.178  -0.026
    1UNL    C20   28  -0.228  -0.328   0.011
    1UNL     O9   29  -0.093  -0.344   0.071
    1UNL    C21   30  -0.410  -0.172  -0.064
    1UNL    O10   31  -0.446  -0.266  -0.163
    1UNL    C22   32  -0.441  -0.032  -0.101
    1UNL    O11   33  -0.575   0.003  -0.135
    1UNL    C23   34  -0.397   0.057   0.020
    1UNL    O12   35  -0.460   0.020   0.141
    1UNL     H1   36  -0.175   0.395  -0.177
    1UNL     H2   37  -0.269   0.290  -0.072
    1UNL     H3   38  -0.187   0.443  -0.007
    1UNL     H4   39   0.044   0.479   0.021
    1UNL     H5   40   0.074   0.420  -0.141
    1UNL     H6   41   0.349   0.416  -0.045
    1UNL     H7   42   0.114   0.017  -0.114
    1UNL     H8   43   0.052  -0.012   0.252
    1UNL     H9   44  -0.009  -0.096   0.091
    1UNL    H10   45   0.288  -0.289  -0.204
    1UNL    H11   46   0.539  -0.340  -0.261
    1UNL    H12   47   0.791  -0.298  -0.025
    1UNL    H13   48   0.642  -0.232   0.144
    1UNL    H14   49   0.402  -0.151   0.179
    1UNL    H15   50   0.237   0.195   0.204
    1UNL    H16   51   0.011   0.384   0.210
    1UNL    H17   52   0.013   0.235   0.306
    1UNL    H18   53  -0.197   0.066  -0.058
    1UNL    H19   54  -0.199  -0.166  -0.114
    1UNL    H20   55  -0.229  -0.397  -0.074
    1UNL    H21   56  -0.297  -0.373   0.086
    1UNL    H22   57  -0.025  -0.286   0.030
    1UNL    H23   58  -0.473  -0.202   0.023
    1UNL    H24   59  -0.511  -0.219  -0.220
    1UNL    H25   60  -0.387  -0.006  -0.195
    1UNL    H26   61  -0.627  -0.037  -0.063
    1UNL    H27   62  -0.425   0.166   0.002
    1UNL    H28   63  -0.406  -0.039   0.188
   0.00000   0.00000   0.00000   0.00000   0.00000   0.00000   0.00000   0.00000   0.00000
Generated with MDTraj, t= 20.0
 63
    1UNL     C1    1  -0.196   0.373  -0.061
    1UNL     C2    2  -0.071   0.303  -0.034
    1UNL     C3    3   0.053   0.398  -0.027
    1UNL     C4    4   0.178   0.304   0.003
    1UNL     O1    5   0.293   0.377   0.029
    1UNL     O2    6   0.186   0.217  -0.107
    1UNL     C5    7   0.074   0.131  -0.096
    1UNL     O3    8  -0.047   0.202  -0.132
    1UNL     C6    9   0.056   0.111   0.061
    1UNL     C7   10   0.054  -0.035   0.123
    1UNL     O4   11   0.180  -0.085   0.121
    1UNL     C8   12   0.199  -0.167   0.013
    1UNL     O5   13   0.116  -0.196  -0.068
    1UNL     C9   14   0.334  -0.226   0.002
    1UNL    C10   15   0.360  -0.296  -0.114
    1UNL    C11   16   0.491  -0.323  -0.143
    1UNL    C12   17   0.597  -0.305  -0.057
    1UNL     O6   18   0.724  -0.324  -0.101
    1UNL    C13   19   0.559  -0.257   0.074
    1UNL    C14   20   0.431  -0.220   0.100
    1UNL    C15   21   0.146   0.214   0.128
    1UNL    C16   22   0.019   0.263   0.211
    1UNL    C17   23  -0.070   0.212   0.091
    1UNL     O7   24  -0.198   0.157   0.136
    1UNL    C18   25  -0.232   0.057   0.038
    1UNL     O8   26  -0.196  -0.081   0.066
    1UNL    C19   27  -0.227  -0.175  -0.035
    1UNL    C20   28  -0.208  -0.326   0.021
    1UNL     O9   29  -0.074  -0.369   0.051
    1UNL    C21   30  -0.380  -0.169  -0.073
    1UNL    O10   31  -0.404  -0.250  -0.185
    1UNL    C22   32  -0.430  -0.026  -0.098
    1UNL    O11   33  -0.573  -0.014  -0.093
    1UNL    C23   34  -0.388   0.066   0.016
    1UNL    O12   35  -0.466   0.030   0.133
    1UNL     H1   36  -0.189   0.444  -0.142
    1UNL     H2   37  -0.275   0.311  -0.094
    1UNL     H3   38  -0.231   0.433   0.030
    1UNL     H4   39   0.040   0.477   0.055
    1UNL     H5   40   0.074   0.453  -0.119
    1UNL     H6   41   0.360   0.364  -0.043
    1UNL     H7   42   0.091   0.032  -0.152
    1UNL     H8   43   0.031  -0.026   0.231
    1UNL     H9   44  -0.013  -0.094   0.057
    1UNL    H10   45   0.285  -0.317  -0.185
    1UNL    H11   46   0.508  -0.361  -0.241
    1UNL    H12   47   0.786  -0.282  -0.037
    1UNL    H13   48   0.627  -0.250   0.151
    1UNL    H14   49   0.398  -0.196   0.201
    1UNL    H15   50   0.227   0.176   0.187
    1UNL    H16   51   0.023   0.374   0.219
    1UNL    H17   52   0.002   0.204   0.303
    1UNL    H18   53  -0.183   0.084  -0.055
    1UNL    H19   54  -0.165  -0.147  -0.123
    1UNL    H20   55  -0.252  -0.393  -0.053
    1UNL    H21   56  -0.266  -0.342   0.116
    1UNL    H22   57  -0.011  -0.315  -0.001
    1UNL    H23   58  -0.451  -0.204   0.005
    1UNL    H24   59  -0.378  -0.199  -0.271
    1UNL    H25   60  -0.407   0.003  -0.201
    1UNL    H26   61  -0.598  -0.022  -0.004
    1UNL    H27   62  -0.413   0.173  -0.016
    1UNL    H28   63  -0.408   0.048   0.207
   0.00000   0.00000   0.00000   0.00000   0.00000   0.00000   0.00000   0.00000   0.00000
Generated with MDTraj, t= 21.0
 63
    1UNL     C1    1  -0.200   0.382  -0.025
    1UNL     C2    2  -0.073   0.304  -0.030
    1UNL     C3    3   0.053   0.397  -0.029
    1UNL     C4    4   0.179   0.309  -0.007
    1UNL     O1    5   0.302   0.385   0.007
    1UNL     O2    6   0.179   0.217  -0.115
    1UNL     C5    7   0.054   0.129  -0.089
    1UNL     O3    8  -0.060   0.202  -0.131
    1UNL     C6    9   0.053   0.118   0.072
    1UNL     C7   10   0.063  -0.023   0.139
    1UNL     O4   11   0.187  -0.086   0.127
    1UNL     C8   12   0.200  -0.155   0.005
    1UNL     O5   13   0.112  -0.164  -0.073
    1UNL     C9   14   0.341  -0.215  -0.020
    1UNL    C10   15   0.374  -0.274  -0.137
    1UNL    C11   16   0.496  -0.338  -0.147
    1UNL    C12   17   0.592  -0.324  -0.046
    1UNL     O6   18   0.720  -0.381  -0.064
    1UNL    C13   19   0.563  -0.240   0.062
    1UNL    C14   20   0.441  -0.185   0.078
    1UNL    C15   21   0.151   0.228   0.122
    1UNL    C16   22   0.033   0.264   0.219
    1UNL    C17   23  -0.061   0.211   0.109
    1UNL     O7   24  -0.182   0.138   0.141
    1UNL    C18   25  -0.237   0.043   0.041
    1UNL     O8   26  -0.216  -0.095   0.078
    1UNL    C19   27  -0.241  -0.193  -0.026
    1UNL    C20   28  -0.207  -0.339   0.016
    1UNL     O9   29  -0.079  -0.344   0.062
    1UNL    C21   30  -0.388  -0.177  -0.086
    1UNL    O10   31  -0.393  -0.251  -0.212
    1UNL    C22   32  -0.434  -0.026  -0.104
    1UNL    O11   33  -0.577  -0.026  -0.102
    1UNL    C23   34  -0.385   0.056   0.013
    1UNL    O12   35  -0.470   0.038   0.128
    1UNL     H1   36  -0.222   0.429  -0.123
    1UNL     H2   37  -0.288   0.326  -0.015
    1UNL     H3   38  -0.202   0.467   0.046
    1UNL     H4   39   0.056   0.472   0.053
    1UNL     H5   40   0.063   0.453  -0.128
    1UNL     H6   41   0.376   0.329  -0.016
    1UNL     H7   42   0.060   0.024  -0.139
    1UNL     H8   43   0.036  -0.003   0.247
    1UNL     H9   44  -0.013  -0.091   0.093
    1UNL    H10   45   0.299  -0.287  -0.217
    1UNL    H11   46   0.535  -0.385  -0.236
    1UNL    H12   47   0.778  -0.384   0.015
    1UNL    H13   48   0.648  -0.223   0.133
    1UNL    H14   49   0.406  -0.126   0.165
    1UNL    H15   50   0.241   0.183   0.158
    1UNL    H16   51   0.027   0.372   0.221
    1UNL    H17   52   0.041   0.207   0.318
    1UNL    H18   53  -0.180   0.060  -0.050
    1UNL    H19   54  -0.164  -0.157  -0.098
    1UNL    H20   55  -0.220  -0.409  -0.066
    1UNL    H21   56  -0.274  -0.368   0.102
    1UNL    H22   57  -0.022  -0.279   0.017
    1UNL    H23   58  -0.452  -0.225  -0.012
    1UNL    H24   59  -0.429  -0.184  -0.280
    1UNL    H25   60  -0.383   0.003  -0.194
    1UNL    H26   61  -0.600  -0.018  -0.006
    1UNL    H27   62  -0.408   0.165  -0.018
    1UNL    H28   63  -0.420   0.057   0.218
   0.00000   0.00000   0.00000   0.00000   0.00000   0.00000   0.00000   0.00000   0.00000
Generated with MDTraj, t= 22.0
 63
    1UNL     C1    1  -0.217   0.366  -0.053
    1UNL     C2    2  -0.085   0.295  -0.023
    1UNL     C3    3   0.043   0.384  -0.033
    1UNL     C4    4   0.169   0.306  -0.001
    1UNL     O1    5   0.286   0.380   0.017
    1UNL     O2    6   0.176   0.206  -0.103
    1UNL     C5    7   0.064   0.123  -0.087
    1UNL     O3    8  -0.058   0.195  -0.130
    1UNL     C6    9   0.041   0.106   0.072
    1UNL     C7   10   0.060  -0.036   0.139
    1UNL     O4   11   0.194  -0.070   0.114
    1UNL     C8   12   0.207  -0.140  -0.006
    1UNL     O5   13   0.119  -0.164  -0.080
    1UNL     C9   14   0.349  -0.182  -0.033
    1UNL    C10   15   0.373  -0.272  -0.142
    1UNL    C11   16   0.490  -0.348  -0.143
    1UNL    C12   17   0.587  -0.336  -0.045
    1UNL     O6   18   0.693  -0.421  -0.044
    1UNL    C13   19   0.566  -0.234   0.050
    1UNL    C14   20   0.447  -0.167   0.064
    1UNL    C15   21   0.144   0.215   0.135
    1UNL    C16   22   0.019   0.261   0.220
    1UNL    C17   23  -0.074   0.210   0.106
    1UNL     O7   24  -0.194   0.150   0.147
    1UNL    C18   25  -0.238   0.051   0.049
    1UNL     O8   26  -0.205  -0.084   0.079
    1UNL    C19   27  -0.226  -0.169  -0.034
    1UNL    C20   28  -0.185  -0.311   0.001
    1UNL     O9   29  -0.057  -0.323   0.046
    1UNL    C21   30  -0.379  -0.165  -0.065
    1UNL    O10   31  -0.415  -0.253  -0.167
    1UNL    C22   32  -0.415  -0.020  -0.093
    1UNL    O11   33  -0.547  -0.006  -0.152
    1UNL    C23   34  -0.385   0.057   0.032
    1UNL    O12   35  -0.454  -0.001   0.144
    1UNL     H1   36  -0.202   0.438  -0.137
    1UNL     H2   37  -0.299   0.295  -0.095
    1UNL     H3   38  -0.248   0.422   0.032
    1UNL     H4   39   0.024   0.477   0.022
    1UNL     H5   40   0.046   0.419  -0.145
    1UNL     H6   41   0.357   0.344  -0.031
    1UNL     H7   42   0.061   0.036  -0.165
    1UNL     H8   43   0.046  -0.028   0.251
    1UNL     H9   44  -0.014  -0.113   0.098
    1UNL    H10   45   0.293  -0.285  -0.212
    1UNL    H11   46   0.489  -0.433  -0.214
    1UNL    H12   47   0.746  -0.412   0.036
    1UNL    H13   48   0.629  -0.224   0.134
    1UNL    H14   49   0.428  -0.114   0.153
    1UNL    H15   50   0.240   0.180   0.171
    1UNL    H16   51   0.019   0.365   0.231
    1UNL    H17   52   0.011   0.210   0.323
    1UNL    H18   53  -0.185   0.069  -0.045
    1UNL    H19   54  -0.167  -0.126  -0.119
    1UNL    H20   55  -0.199  -0.371  -0.089
    1UNL    H21   56  -0.255  -0.348   0.079
    1UNL    H22   57   0.003  -0.271  -0.016
    1UNL    H23   58  -0.439  -0.197   0.021
    1UNL    H24   59  -0.383  -0.217  -0.250
    1UNL    H25   60  -0.353   0.020  -0.171
    1UNL    H26   61  -0.619  -0.016  -0.079
    1UNL    H27   62  -0.422   0.168   0.025
    1UNL    H28   63  -0.406   0.024   0.233
   0.00000   0.00000   0.00000   0.00000   0.00000   0.00000   0.00000   0.00000   0.00000
Generated with MDTraj, t= 23.0
 63
    1UNL     C1    1  -0.209   0.374  -0.053
    1UNL     C2    2  -0.079   0.303  -0.032
    1UNL     C3    3   0.043   0.404  -0.033
    1UNL     C4    4   0.170   0.326   0.005
    1UNL     O1    5   0.283   0.416   0.020
    1UNL     O2    6   0.190   0.219  -0.095
    1UNL     C5    7   0.074   0.132  -0.085
    1UNL     O3    8  -0.048   0.206  -0.128
    1UNL     C6    9   0.052   0.123   0.068
    1UNL     C7   10   0.061  -0.020   0.120
    1UNL     O4   11   0.194  -0.071   0.118
    1UNL     C8   12   0.215  -0.134  -0.003
    1UNL     O5   13   0.134  -0.133  -0.090
    1UNL     C9   14   0.344  -0.205  -0.012
    1UNL    C10   15   0.361  -0.297  -0.113
    1UNL    C11   16   0.472  -0.375  -0.128
    1UNL    C12   17   0.587  -0.349  -0.050
    1UNL     O6   18   0.706  -0.414  -0.071
    1UNL    C13   19   0.574  -0.261   0.056
    1UNL    C14   20   0.449  -0.192   0.071
    1UNL    C15   21   0.139   0.234   0.134
    1UNL    C16   22   0.016   0.269   0.218
    1UNL    C17   23  -0.077   0.209   0.104
    1UNL     O7   24  -0.195   0.145   0.148
    1UNL    C18   25  -0.234   0.049   0.053
    1UNL     O8   26  -0.200  -0.085   0.085
    1UNL    C19   27  -0.235  -0.179  -0.025
    1UNL    C20   28  -0.197  -0.323   0.008
    1UNL     O9   29  -0.054  -0.339   0.019
    1UNL    C21   30  -0.381  -0.173  -0.068
    1UNL    O10   31  -0.410  -0.253  -0.180
    1UNL    C22   32  -0.426  -0.031  -0.102
    1UNL    O11   33  -0.570  -0.037  -0.129
    1UNL    C23   34  -0.391   0.056   0.022
    1UNL    O12   35  -0.467  -0.002   0.138
    1UNL     H1   36  -0.214   0.408  -0.161
    1UNL     H2   37  -0.285   0.291  -0.043
    1UNL     H3   38  -0.210   0.452   0.020
    1UNL     H4   39   0.029   0.501   0.022
    1UNL     H5   40   0.051   0.441  -0.142
    1UNL     H6   41   0.351   0.375  -0.032
    1UNL     H7   42   0.100   0.036  -0.145
    1UNL     H8   43   0.041  -0.023   0.234
    1UNL     H9   44  -0.015  -0.097   0.081
    1UNL    H10   45   0.274  -0.326  -0.174
    1UNL    H11   46   0.487  -0.451  -0.198
    1UNL    H12   47   0.774  -0.374  -0.016
    1UNL    H13   48   0.665  -0.243   0.115
    1UNL    H14   49   0.434  -0.148   0.171
    1UNL    H15   50   0.223   0.206   0.193
    1UNL    H16   51   0.012   0.373   0.235
    1UNL    H17   52   0.013   0.216   0.319
    1UNL    H18   53  -0.180   0.070  -0.040
    1UNL    H19   54  -0.167  -0.156  -0.110
    1UNL    H20   55  -0.238  -0.389  -0.068
    1UNL    H21   56  -0.246  -0.352   0.103
    1UNL    H22   57  -0.004  -0.272  -0.027
    1UNL    H23   58  -0.443  -0.223   0.005
    1UNL    H24   59  -0.498  -0.238  -0.219
    1UNL    H25   60  -0.378   0.012  -0.188
    1UNL    H26   61  -0.621  -0.009  -0.048
    1UNL    H27   62  -0.425   0.165  -0.002
    1UNL    H28   63  -0.398   0.002   0.212
   0.00000   0.00000   0.00000   0.00000   0.00000   0.00000   0.00000   0.00000   0.00000
Generated with MDTraj, t= 24.0
 63
    1UNL     C1    1  -0.223   0.378  -0.045
    1UNL     C2    2  -0.079   0.310  -0.029
    1UNL     C3    3   0.041   0.415  -0.022
    1UNL     C4    4   0.162   0.342   0.017
    1UNL     O1    5   0.270   0.439   0.038
    1UNL     O2    6   0.193   0.255  -0.097
    1UNL     C5    7   0.080   0.155  -0.096
    1UNL     O3    8  -0.039   0.225  -0.145
    1UNL     C6    9   0.059   0.131   0.060
    1UNL     C7   10   0.071  -0.001   0.119
    1UNL     O4   11   0.204  -0.060   0.119
    1UNL     C8   12   0.201  -0.158   0.023
    1UNL     O5   13   0.114  -0.174  -0.056
    1UNL     C9   14   0.331  -0.235   0.003
    1UNL    C10   15   0.348  -0.322  -0.108
    1UNL    C11   16   0.471  -0.379  -0.137
    1UNL    C12   17   0.580  -0.355  -0.049
    1UNL     O6   18   0.707  -0.412  -0.081
    1UNL    C13   19   0.571  -0.257   0.048
    1UNL    C14   20   0.445  -0.206   0.081
    1UNL    C15   21   0.139   0.243   0.140
    1UNL    C16   22   0.005   0.274   0.217
    1UNL    C17   23  -0.073   0.214   0.099
    1UNL     O7   24  -0.186   0.134   0.130
    1UNL    C18   25  -0.226   0.041   0.029
    1UNL     O8   26  -0.180  -0.092   0.046
    1UNL    C19   27  -0.228  -0.188  -0.054
    1UNL    C20   28  -0.195  -0.335  -0.018
    1UNL     O9   29  -0.065  -0.361   0.041
    1UNL    C21   30  -0.380  -0.182  -0.078
    1UNL    O10   31  -0.414  -0.262  -0.188
    1UNL    C22   32  -0.437  -0.043  -0.094
    1UNL    O11   33  -0.581  -0.057  -0.064
    1UNL    C23   34  -0.374   0.051   0.007
    1UNL    O12   35  -0.438   0.044   0.131
    1UNL     H1   36  -0.208   0.468  -0.111
    1UNL     H2   37  -0.284   0.308  -0.098
    1UNL     H3   38  -0.253   0.406   0.057
    1UNL     H4   39   0.022   0.497   0.057
    1UNL     H5   40   0.061   0.471  -0.117
    1UNL     H6   41   0.350   0.411  -0.009
    1UNL     H7   42   0.110   0.065  -0.163
    1UNL     H8   43   0.027  -0.010   0.226
    1UNL     H9   44   0.004  -0.078   0.067
    1UNL    H10   45   0.267  -0.337  -0.174
    1UNL    H11   46   0.473  -0.448  -0.228
    1UNL    H12   47   0.769  -0.368  -0.020
    1UNL    H13   48   0.652  -0.219   0.113
    1UNL    H14   49   0.429  -0.130   0.154
    1UNL    H15   50   0.225   0.190   0.179
    1UNL    H16   51  -0.026   0.378   0.228
    1UNL    H17   52  -0.016   0.212   0.305
    1UNL    H18   53  -0.168   0.078  -0.058
    1UNL    H19   54  -0.167  -0.166  -0.143
    1UNL    H20   55  -0.209  -0.400  -0.104
    1UNL    H21   56  -0.270  -0.373   0.054
    1UNL    H22   57   0.002  -0.294   0.007
    1UNL    H23   58  -0.438  -0.228   0.003
    1UNL    H24   59  -0.343  -0.246  -0.259
    1UNL    H25   60  -0.429   0.006  -0.190
    1UNL    H26   61  -0.598  -0.024   0.022
    1UNL    H27   62  -0.401   0.152  -0.038
    1UNL    H28   63  -0.378   0.074   0.195
   0.00000   0.00000   0.00000   0.00000   0.00000   0.00000   0.00000   0.00000   0.00000
Generated with MDTraj, t= 25.0
 63
    1UNL     C1    1  -0.219   0.359  -0.076
    1UNL     C2    2  -0.077   0.301  -0.042
    1UNL     C3    3   0.026   0.419  -0.016
    1UNL     C4    4   0.162   0.357   0.029
    1UNL     O1    5   0.266   0.453   0.062
    1UNL     O2    6   0.205   0.266  -0.081
    1UNL     C5    7   0.111   0.163  -0.087
    1UNL     O3    8  -0.009   0.222  -0.147
    1UNL     C6    9   0.066   0.131   0.069
    1UNL     C7   10   0.077  -0.006   0.119
    1UNL     O4   11   0.211  -0.052   0.104
    1UNL     C8   12   0.209  -0.142   0.002
    1UNL     O5   13   0.113  -0.170  -0.066
    1UNL     C9   14   0.340  -0.222  -0.022
    1UNL    C10   15   0.351  -0.320  -0.119
    1UNL    C11   16   0.478  -0.387  -0.138
    1UNL    C12   17   0.582  -0.352  -0.054
    1UNL     O6   18   0.697  -0.425  -0.064
    1UNL    C13   19   0.565  -0.251   0.044
    1UNL    C14   20   0.442  -0.194   0.060
    1UNL    C15   21   0.137   0.247   0.146
    1UNL    C16   22   0.005   0.272   0.215
    1UNL    C17   23  -0.067   0.206   0.091
    1UNL     O7   24  -0.176   0.124   0.127
    1UNL    C18   25  -0.220   0.029   0.022
    1UNL     O8   26  -0.195  -0.105   0.052
    1UNL    C19   27  -0.238  -0.200  -0.045
    1UNL    C20   28  -0.205  -0.336   0.008
    1UNL     O9   29  -0.076  -0.343   0.061
    1UNL    C21   30  -0.394  -0.190  -0.070
    1UNL    O10   31  -0.434  -0.258  -0.191
    1UNL    C22   32  -0.441  -0.045  -0.094
    1UNL    O11   33  -0.579  -0.033  -0.087
    1UNL    C23   34  -0.376   0.046   0.011
    1UNL    O12   35  -0.440   0.015   0.139
    1UNL     H1   36  -0.214   0.426  -0.163
    1UNL     H2   37  -0.283   0.279  -0.102
    1UNL     H3   38  -0.255   0.418   0.016
    1UNL     H4   39  -0.017   0.498   0.060
    1UNL     H5   40   0.038   0.467  -0.114
    1UNL     H6   41   0.315   0.459  -0.027
    1UNL     H7   42   0.129   0.067  -0.145
    1UNL     H8   43   0.044  -0.026   0.227
    1UNL     H9   44   0.002  -0.072   0.065
    1UNL    H10   45   0.262  -0.367  -0.162
    1UNL    H11   46   0.500  -0.452  -0.215
    1UNL    H12   47   0.775  -0.386  -0.017
    1UNL    H13   48   0.654  -0.231   0.093
    1UNL    H14   49   0.431  -0.130   0.148
    1UNL    H15   50   0.216   0.228   0.220
    1UNL    H16   51  -0.031   0.378   0.230
    1UNL    H17   52  -0.007   0.215   0.304
    1UNL    H18   53  -0.159   0.059  -0.065
    1UNL    H19   54  -0.189  -0.170  -0.138
    1UNL    H20   55  -0.214  -0.410  -0.071
    1UNL    H21   56  -0.272  -0.370   0.088
    1UNL    H22   57  -0.015  -0.284   0.016
    1UNL    H23   58  -0.451  -0.239   0.011
    1UNL    H24   59  -0.525  -0.302  -0.172
    1UNL    H25   60  -0.403  -0.027  -0.197
    1UNL    H26   61  -0.598   0.019   0.001
    1UNL    H27   62  -0.407   0.152  -0.015
    1UNL    H28   63  -0.381   0.049   0.216
   0.00000   0.00000   0.00000   0.00000   0.00000   0.00000   0.00000   0.00000   0.00000
Generated with MDTraj, t= 26.0
 63
    1UNL     C1    1  -0.200   0.338  -0.093
    1UNL     C2    2  -0.069   0.293  -0.042
    1UNL     C3    3   0.032   0.410  -0.027
    1UNL     C4    4   0.163   0.349   0.029
    1UNL     O1    5   0.256   0.452   0.069
    1UNL     O2    6   0.211   0.248  -0.067
    1UNL     C5    7   0.110   0.153  -0.074
    1UNL     O3    8  -0.007   0.203  -0.133
    1UNL     C6    9   0.063   0.131   0.076
    1UNL     C7   10   0.079  -0.013   0.115
    1UNL     O4   11   0.208  -0.064   0.098
    1UNL     C8   12   0.215  -0.145  -0.011
    1UNL     O5   13   0.121  -0.166  -0.082
    1UNL     C9   14   0.345  -0.201  -0.042
    1UNL    C10   15   0.360  -0.308  -0.132
    1UNL    C11   16   0.477  -0.384  -0.138
    1UNL    C12   17   0.582  -0.363  -0.055
    1UNL     O6   18   0.697  -0.440  -0.062
    1UNL    C13   19   0.577  -0.257   0.030
    1UNL    C14   20   0.465  -0.178   0.038
    1UNL    C15   21   0.126   0.252   0.157
    1UNL    C16   22  -0.010   0.289   0.219
    1UNL    C17   23  -0.073   0.217   0.095
    1UNL     O7   24  -0.198   0.151   0.131
    1UNL    C18   25  -0.239   0.045   0.039
    1UNL     O8   26  -0.203  -0.078   0.076
    1UNL    C19   27  -0.246  -0.184  -0.019
    1UNL    C20   28  -0.202  -0.331   0.017
    1UNL     O9   29  -0.068  -0.343   0.035
    1UNL    C21   30  -0.394  -0.177  -0.057
    1UNL    O10   31  -0.436  -0.285  -0.146
    1UNL    C22   32  -0.433  -0.033  -0.099
    1UNL    O11   33  -0.564  -0.026  -0.147
    1UNL    C23   34  -0.396   0.053   0.026
    1UNL    O12   35  -0.458  -0.008   0.138
    1UNL     H1   36  -0.201   0.392  -0.185
    1UNL     H2   37  -0.262   0.249  -0.118
    1UNL     H3   38  -0.261   0.401  -0.022
    1UNL     H4   39  -0.010   0.493   0.038
    1UNL     H5   40   0.058   0.441  -0.130
    1UNL     H6   41   0.339   0.442   0.009
    1UNL     H7   42   0.161   0.063  -0.118
    1UNL     H8   43   0.049  -0.024   0.224
    1UNL     H9   44  -0.000  -0.075   0.067
    1UNL    H10   45   0.277  -0.346  -0.190
    1UNL    H11   46   0.472  -0.475  -0.203
    1UNL    H12   47   0.763  -0.387  -0.009
    1UNL    H13   48   0.658  -0.227   0.102
    1UNL    H14   49   0.457  -0.105   0.116
    1UNL    H15   50   0.209   0.223   0.225
    1UNL    H16   51  -0.032   0.397   0.245
    1UNL    H17   52  -0.035   0.235   0.305
    1UNL    H18   53  -0.194   0.070  -0.059
    1UNL    H19   54  -0.193  -0.147  -0.106
    1UNL    H20   55  -0.236  -0.412  -0.048
    1UNL    H21   56  -0.240  -0.360   0.117
    1UNL    H22   57  -0.011  -0.278  -0.018
    1UNL    H23   58  -0.453  -0.197   0.035
    1UNL    H24   59  -0.357  -0.307  -0.198
    1UNL    H25   60  -0.369   0.001  -0.186
    1UNL    H26   61  -0.632  -0.039  -0.073
    1UNL    H27   62  -0.428   0.159   0.021
    1UNL    H28   63  -0.387   0.000   0.215
   0.00000   0.00000   0.00000   0.00000   0.00000   0.00000   0.00000   0.00000   0.00000
Generated with MDTraj, t= 27.0
 63
    1UNL     C1    1  -0.206   0.372  -0.070
    1UNL     C2    2  -0.075   0.308  -0.030
    1UNL     C3    3   0.046   0.411  -0.025
    1UNL     C4    4   0.172   0.331   0.022
    1UNL     O1    5   0.278   0.420   0.060
    1UNL     O2    6   0.192   0.232  -0.085
    1UNL     C5    7   0.074   0.142  -0.073
    1UNL     O3    8  -0.039   0.207  -0.130
    1UNL     C6    9   0.048   0.118   0.073
    1UNL     C7   10   0.072  -0.012   0.142
    1UNL     O4   11   0.203  -0.067   0.130
    1UNL     C8   12   0.207  -0.134   0.012
    1UNL     O5   13   0.115  -0.133  -0.070
    1UNL     C9   14   0.335  -0.202  -0.023
    1UNL    C10   15   0.339  -0.299  -0.121
    1UNL    C11   16   0.450  -0.379  -0.138
    1UNL    C12   17   0.570  -0.360  -0.060
    1UNL     O6   18   0.690  -0.418  -0.092
    1UNL    C13   19   0.566  -0.253   0.033
    1UNL    C14   20   0.448  -0.174   0.049
    1UNL    C15   21   0.130   0.236   0.141
    1UNL    C16   22   0.001   0.279   0.217
    1UNL    C17   23  -0.073   0.213   0.102
    1UNL     O7   24  -0.197   0.148   0.126
    1UNL    C18   25  -0.226   0.040   0.026
    1UNL     O8   26  -0.194  -0.097   0.066
    1UNL    C19   27  -0.222  -0.193  -0.027
    1UNL    C20   28  -0.181  -0.328   0.029
    1UNL     O9   29  -0.043  -0.352   0.042
    1UNL    C21   30  -0.370  -0.192  -0.055
    1UNL    O10   31  -0.409  -0.286  -0.158
    1UNL    C22   32  -0.420  -0.056  -0.106
    1UNL    O11   33  -0.561  -0.055  -0.121
    1UNL    C23   34  -0.378   0.060  -0.013
    1UNL    O12   35  -0.459   0.060   0.102
    1UNL     H1   36  -0.198   0.450  -0.142
    1UNL     H2   37  -0.288   0.304  -0.115
    1UNL     H3   38  -0.257   0.426   0.012
    1UNL     H4   39   0.034   0.491   0.045
    1UNL     H5   40   0.078   0.435  -0.131
    1UNL     H6   41   0.367   0.374   0.073
    1UNL     H7   42   0.095   0.052  -0.132
    1UNL     H8   43   0.038  -0.001   0.248
    1UNL     H9   44   0.001  -0.085   0.103
    1UNL    H10   45   0.251  -0.317  -0.183
    1UNL    H11   46   0.456  -0.459  -0.205
    1UNL    H12   47   0.769  -0.383  -0.041
    1UNL    H13   48   0.658  -0.240   0.080
    1UNL    H14   49   0.454  -0.094   0.120
    1UNL    H15   50   0.204   0.186   0.207
    1UNL    H16   51  -0.017   0.389   0.221
    1UNL    H17   52  -0.028   0.230   0.307
    1UNL    H18   53  -0.152   0.053  -0.056
    1UNL    H19   54  -0.168  -0.171  -0.118
    1UNL    H20   55  -0.224  -0.407  -0.034
    1UNL    H21   56  -0.220  -0.345   0.130
    1UNL    H22   57   0.012  -0.295  -0.014
    1UNL    H23   58  -0.421  -0.228   0.038
    1UNL    H24   59  -0.490  -0.250  -0.192
    1UNL    H25   60  -0.382  -0.033  -0.212
    1UNL    H26   61  -0.602  -0.044  -0.037
    1UNL    H27   62  -0.395   0.161  -0.055
    1UNL    H28   63  -0.409   0.090   0.182
   0.00000   0.00000   0.00000   0.00000   0.00000   0.00000   0.00000   0.00000   0.00000
Generated with MDTraj, t= 28.0
 63
    1UNL     C1    1  -0.203   0.396  -0.040
    1UNL     C2    2  -0.067   0.319  -0.022
    1UNL     C3    3   0.055   0.410  -0.019
    1UNL     C4    4   0.188   0.323   0.018
    1UNL     O1    5   0.308   0.396   0.036
    1UNL     O2    6   0.186   0.228  -0.095
    1UNL     C5    7   0.073   0.149  -0.083
    1UNL     O3    8  -0.042   0.226  -0.128
    1UNL     C6    9   0.053   0.129   0.075
    1UNL     C7   10   0.052  -0.010   0.152
    1UNL     O4   11   0.178  -0.072   0.150
    1UNL     C8   12   0.193  -0.139   0.029
    1UNL     O5   13   0.108  -0.143  -0.062
    1UNL     C9   14   0.321  -0.211  -0.005
    1UNL    C10   15   0.327  -0.303  -0.116
    1UNL    C11   16   0.444  -0.357  -0.151
    1UNL    C12   17   0.555  -0.321  -0.080
    1UNL     O6   18   0.672  -0.389  -0.114
    1UNL    C13   19   0.548  -0.244   0.035
    1UNL    C14   20   0.432  -0.192   0.075
    1UNL    C15   21   0.146   0.238   0.140
    1UNL    C16   22   0.021   0.281   0.224
    1UNL    C17   23  -0.069   0.220   0.103
    1UNL     O7   24  -0.192   0.140   0.117
    1UNL    C18   25  -0.224   0.033   0.021
    1UNL     O8   26  -0.190  -0.097   0.073
    1UNL    C19   27  -0.219  -0.199  -0.022
    1UNL    C20   28  -0.173  -0.343   0.020
    1UNL     O9   29  -0.036  -0.347   0.066
    1UNL    C21   30  -0.368  -0.202  -0.063
    1UNL    O10   31  -0.397  -0.308  -0.161
    1UNL    C22   32  -0.418  -0.070  -0.119
    1UNL    O11   33  -0.559  -0.065  -0.115
    1UNL    C23   34  -0.372   0.050  -0.034
    1UNL    O12   35  -0.454   0.072   0.079
    1UNL     H1   36  -0.221   0.431  -0.146
    1UNL     H2   37  -0.287   0.332  -0.014
    1UNL     H3   38  -0.212   0.486   0.022
    1UNL     H4   39   0.037   0.481   0.054
    1UNL     H5   40   0.064   0.438  -0.129
    1UNL     H6   41   0.373   0.369  -0.033
    1UNL     H7   42   0.068   0.052  -0.132
    1UNL     H8   43   0.017   0.005   0.255
    1UNL     H9   44  -0.018  -0.075   0.105
    1UNL    H10   45   0.228  -0.331  -0.147
    1UNL    H11   46   0.447  -0.417  -0.241
    1UNL    H12   47   0.733  -0.391  -0.036
    1UNL    H13   48   0.631  -0.211   0.101
    1UNL    H14   49   0.416  -0.141   0.170
    1UNL    H15   50   0.222   0.188   0.204
    1UNL    H16   51  -0.001   0.384   0.246
    1UNL    H17   52  -0.004   0.213   0.307
    1UNL    H18   53  -0.153   0.036  -0.063
    1UNL    H19   54  -0.162  -0.172  -0.112
    1UNL    H20   55  -0.194  -0.423  -0.053
    1UNL    H21   56  -0.234  -0.366   0.108
    1UNL    H22   57   0.022  -0.289   0.007
    1UNL    H23   58  -0.420  -0.242   0.027
    1UNL    H24   59  -0.372  -0.283  -0.253
    1UNL    H25   60  -0.392  -0.055  -0.230
    1UNL    H26   61  -0.584  -0.047  -0.017
    1UNL    H27   62  -0.381   0.139  -0.093
    1UNL    H28   63  -0.410   0.103   0.165
   0.00000   0.00000   0.00000   0.00000   0.00000   0.00000   0.00000   0.00000   0.00000
Generated with MDTraj, t= 29.0
 63
    1UNL     C1    1  -0.201   0.362  -0.076
    1UNL     C2    2  -0.065   0.298  -0.036
    1UNL     C3    3   0.048   0.402  -0.030
    1UNL     C4    4   0.174   0.318   0.019
    1UNL     O1    5   0.280   0.405   0.047
    1UNL     O2    6   0.204   0.215  -0.080
    1UNL     C5    7   0.089   0.129  -0.072
    1UNL     O3    8  -0.025   0.193  -0.129
    1UNL     C6    9   0.053   0.119   0.080
    1UNL     C7   10   0.069  -0.022   0.143
    1UNL     O4   11   0.193  -0.070   0.118
    1UNL     C8   12   0.190  -0.155   0.005
    1UNL     O5   13   0.094  -0.175  -0.074
    1UNL     C9   14   0.324  -0.209  -0.025
    1UNL    C10   15   0.340  -0.279  -0.136
    1UNL    C11   16   0.458  -0.330  -0.172
    1UNL    C12   17   0.565  -0.323  -0.080
    1UNL     O6   18   0.686  -0.368  -0.113
    1UNL    C13   19   0.550  -0.252   0.040
    1UNL    C14   20   0.429  -0.199   0.067
    1UNL    C15   21   0.134   0.235   0.157
    1UNL    C16   22   0.004   0.279   0.219
    1UNL    C17   23  -0.071   0.220   0.097
    1UNL     O7   24  -0.196   0.159   0.132
    1UNL    C18   25  -0.230   0.049   0.044
    1UNL     O8   26  -0.202  -0.085   0.093
    1UNL    C19   27  -0.228  -0.191   0.001
    1UNL    C20   28  -0.199  -0.329   0.066
    1UNL     O9   29  -0.058  -0.351   0.093
    1UNL    C21   30  -0.375  -0.180  -0.053
    1UNL    O10   31  -0.388  -0.293  -0.143
    1UNL    C22   32  -0.400  -0.042  -0.126
    1UNL    O11   33  -0.532  -0.028  -0.173
    1UNL    C23   34  -0.380   0.064  -0.015
    1UNL    O12   35  -0.462   0.026   0.092
    1UNL     H1   36  -0.175   0.441  -0.156
    1UNL     H2   37  -0.265   0.291  -0.117
    1UNL     H3   38  -0.240   0.410   0.014
    1UNL     H4   39   0.019   0.475   0.040
    1UNL     H5   40   0.079   0.431  -0.132
    1UNL     H6   41   0.326   0.427  -0.033
    1UNL     H7   42   0.129   0.033  -0.095
    1UNL     H8   43   0.048  -0.025   0.249
    1UNL     H9   44   0.009  -0.088   0.082
    1UNL    H10   45   0.261  -0.279  -0.210
    1UNL    H11   46   0.484  -0.387  -0.261
    1UNL    H12   47   0.740  -0.387  -0.034
    1UNL    H13   48   0.640  -0.246   0.097
    1UNL    H14   49   0.416  -0.135   0.152
    1UNL    H15   50   0.220   0.205   0.223
    1UNL    H16   51  -0.000   0.381   0.251
    1UNL    H17   52  -0.018   0.218   0.310
    1UNL    H18   53  -0.167   0.059  -0.046
    1UNL    H19   54  -0.160  -0.170  -0.084
    1UNL    H20   55  -0.240  -0.402  -0.006
    1UNL    H21   56  -0.260  -0.340   0.156
    1UNL    H22   57  -0.009  -0.291   0.036
    1UNL    H23   58  -0.448  -0.180   0.030
    1UNL    H24   59  -0.430  -0.252  -0.228
    1UNL    H25   60  -0.331  -0.026  -0.216
    1UNL    H26   61  -0.587  -0.016  -0.091
    1UNL    H27   62  -0.386   0.165  -0.044
    1UNL    H28   63  -0.418   0.046   0.180
   0.00000   0.00000   0.00000   0.00000   0.00000   0.00000   0.00000   0.00000   0.00000
Generated with MDTraj, t= 30.0
 63
    1UNL     C1    1  -0.192   0.344  -0.099
    1UNL     C2    2  -0.063   0.285  -0.047
    1UNL     C3    3   0.043   0.397  -0.040
    1UNL     C4    4   0.176   0.330   0.026
    1UNL     O1    5   0.276   0.421   0.050
    1UNL     O2    6   0.210   0.223  -0.066
    1UNL     C5    7   0.101   0.129  -0.068
    1UNL     O3    8  -0.014   0.184  -0.136
    1UNL     C6    9   0.057   0.118   0.080
    1UNL     C7   10   0.077  -0.026   0.147
    1UNL     O4   11   0.196  -0.080   0.121
    1UNL     C8   12   0.199  -0.168   0.008
    1UNL     O5   13   0.103  -0.206  -0.060
    1UNL     C9   14   0.332  -0.209  -0.027
    1UNL    C10   15   0.358  -0.259  -0.157
    1UNL    C11   16   0.480  -0.311  -0.189
    1UNL    C12   17   0.583  -0.315  -0.097
    1UNL     O6   18   0.705  -0.370  -0.125
    1UNL    C13   19   0.559  -0.266   0.034
    1UNL    C14   20   0.447  -0.199   0.060
    1UNL    C15   21   0.129   0.242   0.146
    1UNL    C16   22  -0.004   0.284   0.211
    1UNL    C17   23  -0.066   0.205   0.097
    1UNL     O7   24  -0.194   0.145   0.133
    1UNL    C18   25  -0.244   0.042   0.047
    1UNL     O8   26  -0.224  -0.083   0.110
    1UNL    C19   27  -0.248  -0.187   0.014
    1UNL    C20   28  -0.222  -0.324   0.077
    1UNL     O9   29  -0.102  -0.340   0.143
    1UNL    C21   30  -0.389  -0.179  -0.056
    1UNL    O10   31  -0.393  -0.270  -0.167
    1UNL    C22   32  -0.409  -0.034  -0.113
    1UNL    O11   33  -0.518  -0.014  -0.193
    1UNL    C23   34  -0.391   0.061   0.001
    1UNL    O12   35  -0.475   0.030   0.106
    1UNL     H1   36  -0.165   0.390  -0.197
    1UNL     H2   37  -0.265   0.264  -0.106
    1UNL     H3   38  -0.218   0.417  -0.022
    1UNL     H4   39   0.008   0.475   0.025
    1UNL     H5   40   0.065   0.423  -0.138
    1UNL     H6   41   0.348   0.368   0.080
    1UNL     H7   42   0.123   0.037  -0.115
    1UNL     H8   43   0.069  -0.022   0.252
    1UNL     H9   44   0.018  -0.106   0.103
    1UNL    H10   45   0.270  -0.267  -0.219
    1UNL    H11   46   0.487  -0.338  -0.290
    1UNL    H12   47   0.754  -0.364  -0.042
    1UNL    H13   48   0.637  -0.263   0.108
    1UNL    H14   49   0.421  -0.164   0.160
    1UNL    H15   50   0.213   0.207   0.211
    1UNL    H16   51  -0.034   0.384   0.196
    1UNL    H17   52  -0.042   0.258   0.314
    1UNL    H18   53  -0.185   0.048  -0.046
    1UNL    H19   54  -0.166  -0.168  -0.060
    1UNL    H20   55  -0.233  -0.399  -0.004
    1UNL    H21   56  -0.307  -0.337   0.145
    1UNL    H22   57  -0.029  -0.317   0.079
    1UNL    H23   58  -0.465  -0.213   0.014
    1UNL    H24   59  -0.386  -0.218  -0.254
    1UNL    H25   60  -0.323  -0.031  -0.188
    1UNL    H26   61  -0.592  -0.068  -0.169
    1UNL    H27   62  -0.415   0.158  -0.034
    1UNL    H28   63  -0.439   0.059   0.191
   0.00000   0.00000   0.00000   0.00000   0.00000   0.00000   0.00000   0.00000   0.00000
Generated with MDTraj, t= 31.0
 63
    1UNL     C1    1  -0.197   0.363  -0.088
    1UNL     C2    2  -0.064   0.295  -0.043
    1UNL     C3    3   0.056   0.398  -0.029
    1UNL     C4    4   0.186   0.316   0.013
    1UNL     O1    5   0.303   0.397   0.040
    1UNL     O2    6   0.208   0.215  -0.083
    1UNL     C5    7   0.094   0.131  -0.076
    1UNL     O3    8  -0.025   0.192  -0.137
    1UNL     C6    9   0.058   0.121   0.080
    1UNL     C7   10   0.076  -0.012   0.173
    1UNL     O4   11   0.198  -0.080   0.157
    1UNL     C8   12   0.203  -0.168   0.050
    1UNL     O5   13   0.104  -0.209  -0.013
    1UNL     C9   14   0.338  -0.215  -0.006
    1UNL    C10   15   0.345  -0.267  -0.132
    1UNL    C11   16   0.462  -0.296  -0.189
    1UNL    C12   17   0.576  -0.302  -0.102
    1UNL     O6   18   0.695  -0.337  -0.156
    1UNL    C13   19   0.562  -0.262   0.030
    1UNL    C14   20   0.445  -0.217   0.075
    1UNL    C15   21   0.132   0.244   0.153
    1UNL    C16   22  -0.006   0.282   0.213
    1UNL    C17   23  -0.068   0.212   0.091
    1UNL     O7   24  -0.190   0.145   0.120
    1UNL    C18   25  -0.230   0.047   0.020
    1UNL     O8   26  -0.208  -0.088   0.079
    1UNL    C19   27  -0.239  -0.195  -0.012
    1UNL    C20   28  -0.225  -0.331   0.063
    1UNL     O9   29  -0.109  -0.345   0.134
    1UNL    C21   30  -0.384  -0.182  -0.071
    1UNL    O10   31  -0.395  -0.280  -0.172
    1UNL    C22   32  -0.418  -0.042  -0.130
    1UNL    O11   33  -0.559  -0.037  -0.146
    1UNL    C23   34  -0.374   0.066  -0.025
    1UNL    O12   35  -0.461   0.045   0.087
    1UNL     H1   36  -0.172   0.450  -0.146
    1UNL     H2   37  -0.251   0.290  -0.159
    1UNL     H3   38  -0.266   0.386  -0.004
    1UNL     H4   39   0.019   0.468   0.046
    1UNL     H5   40   0.080   0.446  -0.115
    1UNL     H6   41   0.377   0.339   0.036
    1UNL     H7   42   0.103   0.033  -0.113
    1UNL     H8   43   0.064  -0.005   0.277
    1UNL     H9   44   0.016  -0.092   0.137
    1UNL    H10   45   0.250  -0.275  -0.184
    1UNL    H11   46   0.479  -0.337  -0.291
    1UNL    H12   47   0.766  -0.316  -0.093
    1UNL    H13   48   0.650  -0.299   0.087
    1UNL    H14   49   0.434  -0.182   0.174
    1UNL    H15   50   0.210   0.219   0.231
    1UNL    H16   51  -0.021   0.386   0.208
    1UNL    H17   52  -0.046   0.237   0.310
    1UNL    H18   53  -0.154   0.057  -0.058
    1UNL    H19   54  -0.160  -0.199  -0.092
    1UNL    H20   55  -0.242  -0.413  -0.010
    1UNL    H21   56  -0.303  -0.335   0.138
    1UNL    H22   57  -0.034  -0.291   0.093
    1UNL    H23   58  -0.457  -0.202   0.008
    1UNL    H24   59  -0.434  -0.240  -0.252
    1UNL    H25   60  -0.377  -0.017  -0.230
    1UNL    H26   61  -0.612  -0.068  -0.071
    1UNL    H27   62  -0.390   0.168  -0.051
    1UNL    H28   63  -0.413   0.045   0.166
   0.00000   0.00000   0.00000   0.00000   0.00000   0.00000   0.00000   0.00000   0.00000
Generated with MDTraj, t= 32.0
 63
    1UNL     C1    1  -0.176   0.365  -0.096
    1UNL     C2    2  -0.051   0.295  -0.052
    1UNL     C3    3   0.069   0.390  -0.045
    1UNL     C4    4   0.190   0.309   0.015
    1UNL     O1    5   0.306   0.384   0.046
    1UNL     O2    6   0.216   0.196  -0.081
    1UNL     C5    7   0.095   0.116  -0.074
    1UNL     O3    8  -0.012   0.185  -0.138
    1UNL     C6    9   0.056   0.112   0.080
    1UNL     C7   10   0.052  -0.024   0.170
    1UNL     O4   11   0.181  -0.077   0.165
    1UNL     C8   12   0.191  -0.157   0.054
    1UNL     O5   13   0.096  -0.188  -0.020
    1UNL     C9   14   0.319  -0.212   0.010
    1UNL    C10   15   0.327  -0.264  -0.123
    1UNL    C11   16   0.444  -0.299  -0.174
    1UNL    C12   17   0.561  -0.284  -0.097
    1UNL     O6   18   0.680  -0.309  -0.161
    1UNL    C13   19   0.553  -0.237   0.034
    1UNL    C14   20   0.435  -0.189   0.084
    1UNL    C15   21   0.141   0.236   0.146
    1UNL    C16   22   0.011   0.284   0.211
    1UNL    C17   23  -0.069   0.211   0.091
    1UNL     O7   24  -0.189   0.138   0.121
    1UNL    C18   25  -0.222   0.038   0.028
    1UNL     O8   26  -0.205  -0.100   0.076
    1UNL    C19   27  -0.234  -0.198  -0.019
    1UNL    C20   28  -0.212  -0.341   0.037
    1UNL     O9   29  -0.087  -0.355   0.103
    1UNL    C21   30  -0.377  -0.175  -0.067
    1UNL    O10   31  -0.411  -0.279  -0.153
    1UNL    C22   32  -0.414  -0.042  -0.125
    1UNL    O11   33  -0.552  -0.035  -0.140
    1UNL    C23   34  -0.372   0.062  -0.022
    1UNL    O12   35  -0.457   0.049   0.093
    1UNL     H1   36  -0.156   0.460  -0.142
    1UNL     H2   37  -0.236   0.314  -0.173
    1UNL     H3   38  -0.246   0.387  -0.009
    1UNL     H4   39   0.042   0.475   0.013
    1UNL     H5   40   0.087   0.418  -0.145
    1UNL     H6   41   0.382   0.334   0.017
    1UNL     H7   42   0.129   0.021  -0.105
    1UNL     H8   43   0.022  -0.015   0.268
    1UNL     H9   44  -0.006  -0.107   0.138
    1UNL    H10   45   0.230  -0.274  -0.169
    1UNL    H11   46   0.444  -0.322  -0.276
    1UNL    H12   47   0.750  -0.304  -0.094
    1UNL    H13   48   0.635  -0.219   0.094
    1UNL    H14   49   0.418  -0.157   0.188
    1UNL    H15   50   0.222   0.188   0.209
    1UNL    H16   51   0.007   0.394   0.208
    1UNL    H17   52  -0.020   0.235   0.304
    1UNL    H18   53  -0.163   0.052  -0.063
    1UNL    H19   54  -0.165  -0.193  -0.107
    1UNL    H20   55  -0.203  -0.415  -0.044
    1UNL    H21   56  -0.291  -0.372   0.103
    1UNL    H22   57  -0.021  -0.310   0.043
    1UNL    H23   58  -0.439  -0.194   0.021
    1UNL    H24   59  -0.504  -0.278  -0.174
    1UNL    H25   60  -0.365  -0.015  -0.217
    1UNL    H26   61  -0.595  -0.037  -0.045
    1UNL    H27   62  -0.381   0.159  -0.069
    1UNL    H28   63  -0.392   0.059   0.173
   0.00000   0.00000   0.00000   0.00000   0.00000   0.00000   0.00000   0.00000   0.00000
Generated with MDTraj, t= 33.0
 63
    1UNL     C1    1  -0.169   0.338  -0.107
    1UNL     C2    2  -0.041   0.275  -0.050
    1UNL     C3    3   0.084   0.367  -0.058
    1UNL     C4    4   0.196   0.301   0.026
    1UNL     O1    5   0.295   0.393   0.044
    1UNL     O2    6   0.228   0.185  -0.060
    1UNL     C5    7   0.112   0.102  -0.057
    1UNL     O3    8  -0.007   0.158  -0.127
    1UNL     C6    9   0.066   0.110   0.092
    1UNL     C7   10   0.052  -0.028   0.156
    1UNL     O4   11   0.175  -0.098   0.143
    1UNL     C8   12   0.185  -0.163   0.022
    1UNL     O5   13   0.083  -0.175  -0.051
    1UNL     C9   14   0.316  -0.196  -0.020
    1UNL    C10   15   0.330  -0.271  -0.131
    1UNL    C11   16   0.456  -0.304  -0.170
    1UNL    C12   17   0.568  -0.268  -0.093
    1UNL     O6   18   0.698  -0.307  -0.125
    1UNL    C13   19   0.549  -0.184   0.021
    1UNL    C14   20   0.421  -0.156   0.061
    1UNL    C15   21   0.146   0.232   0.157
    1UNL    C16   22   0.014   0.285   0.210
    1UNL    C17   23  -0.057   0.202   0.096
    1UNL     O7   24  -0.183   0.144   0.121
    1UNL    C18   25  -0.230   0.042   0.037
    1UNL     O8   26  -0.215  -0.091   0.090
    1UNL    C19   27  -0.252  -0.193  -0.004
    1UNL    C20   28  -0.221  -0.328   0.060
    1UNL     O9   29  -0.085  -0.358   0.069
    1UNL    C21   30  -0.400  -0.181  -0.050
    1UNL    O10   31  -0.430  -0.278  -0.151
    1UNL    C22   32  -0.415  -0.042  -0.113
    1UNL    O11   33  -0.543  -0.025  -0.181
    1UNL    C23   34  -0.380   0.061  -0.002
    1UNL    O12   35  -0.459   0.053   0.120
    1UNL     H1   36  -0.157   0.368  -0.213
    1UNL     H2   37  -0.256   0.283  -0.105
    1UNL     H3   38  -0.198   0.435  -0.055
    1UNL     H4   39   0.061   0.457  -0.010
    1UNL     H5   40   0.112   0.378  -0.164
    1UNL     H6   41   0.386   0.355   0.050
    1UNL     H7   42   0.133   0.006  -0.089
    1UNL     H8   43   0.033  -0.029   0.257
    1UNL     H9   44  -0.024  -0.092   0.118
    1UNL    H10   45   0.243  -0.292  -0.191
    1UNL    H11   46   0.484  -0.369  -0.255
    1UNL    H12   47   0.760  -0.308  -0.047
    1UNL    H13   48   0.645  -0.162   0.076
    1UNL    H14   49   0.410  -0.102   0.152
    1UNL    H15   50   0.227   0.203   0.231
    1UNL    H16   51  -0.000   0.396   0.194
    1UNL    H17   52  -0.020   0.261   0.309
    1UNL    H18   53  -0.167   0.040  -0.052
    1UNL    H19   54  -0.198  -0.179  -0.100
    1UNL    H20   55  -0.276  -0.408   0.005
    1UNL    H21   56  -0.259  -0.313   0.159
    1UNL    H22   57  -0.028  -0.289   0.026
    1UNL    H23   58  -0.469  -0.195   0.033
    1UNL    H24   59  -0.521  -0.274  -0.176
    1UNL    H25   60  -0.344  -0.042  -0.192
    1UNL    H26   61  -0.613  -0.006  -0.118
    1UNL    H27   62  -0.401   0.160  -0.040
    1UNL    H28   63  -0.399   0.078   0.195
   0.00000   0.00000   0.00000   0.00000   0.00000   0.00000   0.00000   0.00000   0.00000
Generated with MDTraj, t= 34.0
 63
    1UNL     C1    1  -0.175   0.357  -0.114
    1UNL     C2    2  -0.046   0.289  -0.054
    1UNL     C3    3   0.082   0.386  -0.029
    1UNL     C4    4   0.198   0.299   0.033
    1UNL     O1    5   0.311   0.378   0.073
    1UNL     O2    6   0.220   0.198  -0.069
    1UNL     C5    7   0.103   0.110  -0.076
    1UNL     O3    8  -0.003   0.183  -0.146
    1UNL     C6    9   0.056   0.105   0.074
    1UNL     C7   10   0.053  -0.035   0.133
    1UNL     O4   11   0.183  -0.091   0.128
    1UNL     C8   12   0.194  -0.178   0.028
    1UNL     O5   13   0.092  -0.209  -0.034
    1UNL     C9   14   0.325  -0.209  -0.020
    1UNL    C10   15   0.349  -0.295  -0.126
    1UNL    C11   16   0.483  -0.327  -0.159
    1UNL    C12   17   0.593  -0.263  -0.097
    1UNL     O6   18   0.726  -0.302  -0.120
    1UNL    C13   19   0.560  -0.168   0.004
    1UNL    C14   20   0.435  -0.144   0.048
    1UNL    C15   21   0.143   0.214   0.156
    1UNL    C16   22   0.007   0.262   0.208
    1UNL    C17   23  -0.062   0.210   0.086
    1UNL     O7   24  -0.195   0.162   0.111
    1UNL    C18   25  -0.236   0.051   0.032
    1UNL     O8   26  -0.214  -0.082   0.092
    1UNL    C19   27  -0.253  -0.194   0.001
    1UNL    C20   28  -0.246  -0.331   0.067
    1UNL     O9   29  -0.115  -0.380   0.087
    1UNL    C21   30  -0.397  -0.177  -0.055
    1UNL    O10   31  -0.432  -0.280  -0.147
    1UNL    C22   32  -0.427  -0.036  -0.115
    1UNL    O11   33  -0.567  -0.021  -0.143
    1UNL    C23   34  -0.382   0.065  -0.009
    1UNL    O12   35  -0.467   0.048   0.103
    1UNL     H1   36  -0.151   0.432  -0.194
    1UNL     H2   37  -0.241   0.277  -0.152
    1UNL     H3   38  -0.229   0.401  -0.034
    1UNL     H4   39   0.057   0.469   0.028
    1UNL     H5   40   0.135   0.425  -0.120
    1UNL     H6   41   0.395   0.341   0.029
    1UNL     H7   42   0.116   0.011  -0.112
    1UNL     H8   43   0.026  -0.030   0.232
    1UNL     H9   44  -0.023  -0.098   0.091
    1UNL    H10   45   0.265  -0.345  -0.171
    1UNL    H11   46   0.497  -0.393  -0.240
    1UNL    H12   47   0.785  -0.268  -0.047
    1UNL    H13   48   0.632  -0.116   0.059
    1UNL    H14   49   0.409  -0.081   0.134
    1UNL    H15   50   0.231   0.185   0.223
    1UNL    H16   51  -0.007   0.375   0.220
    1UNL    H17   52  -0.025   0.216   0.299
    1UNL    H18   53  -0.171   0.044  -0.056
    1UNL    H19   54  -0.172  -0.182  -0.069
    1UNL    H20   55  -0.305  -0.400   0.003
    1UNL    H21   56  -0.290  -0.324   0.165
    1UNL    H22   57  -0.055  -0.328   0.030
    1UNL    H23   58  -0.454  -0.174   0.040
    1UNL    H24   59  -0.532  -0.267  -0.159
    1UNL    H25   60  -0.371  -0.026  -0.203
    1UNL    H26   61  -0.611   0.024  -0.070
    1UNL    H27   62  -0.404   0.166  -0.046
    1UNL    H28   63  -0.428   0.086   0.182
   0.00000   0.00000   0.00000   0.00000   0.00000   0.00000   0.00000   0.00000   0.00000
Generated with MDTraj, t= 35.0
 63
    1UNL     C1    1  -0.171   0.385  -0.066
    1UNL     C2    2  -0.051   0.297  -0.033
    1UNL     C3    3   0.076   0.387  -0.016
    1UNL     C4    4   0.195   0.299   0.027
    1UNL     O1    5   0.317   0.364   0.066
    1UNL     O2    6   0.211   0.206  -0.086
    1UNL     C5    7   0.092   0.122  -0.087
    1UNL     O3    8  -0.009   0.208  -0.136
    1UNL     C6    9   0.045   0.102   0.072
    1UNL     C7   10   0.044  -0.042   0.127
    1UNL     O4   11   0.176  -0.100   0.129
    1UNL     C8   12   0.209  -0.185   0.033
    1UNL     O5   13   0.118  -0.220  -0.040
    1UNL     C9   14   0.346  -0.230  -0.001
    1UNL    C10   15   0.374  -0.329  -0.094
    1UNL    C11   16   0.505  -0.358  -0.130
    1UNL    C12   17   0.609  -0.273  -0.088
    1UNL     O6   18   0.732  -0.287  -0.149
    1UNL    C13   19   0.578  -0.169   0.001
    1UNL    C14   20   0.447  -0.146   0.042
    1UNL    C15   21   0.139   0.205   0.145
    1UNL    C16   22   0.014   0.258   0.222
    1UNL    C17   23  -0.071   0.209   0.094
    1UNL     O7   24  -0.208   0.153   0.100
    1UNL    C18   25  -0.233   0.045   0.010
    1UNL     O8   26  -0.223  -0.087   0.066
    1UNL    C19   27  -0.259  -0.196  -0.018
    1UNL    C20   28  -0.233  -0.330   0.057
    1UNL     O9   29  -0.112  -0.334   0.131
    1UNL    C21   30  -0.410  -0.180  -0.056
    1UNL    O10   31  -0.460  -0.279  -0.151
    1UNL    C22   32  -0.444  -0.044  -0.117
    1UNL    O11   33  -0.584  -0.033  -0.125
    1UNL    C23   34  -0.386   0.069  -0.029
    1UNL    O12   35  -0.465   0.078   0.084
    1UNL     H1   36  -0.160   0.420  -0.171
    1UNL     H2   37  -0.259   0.313  -0.052
    1UNL     H3   38  -0.175   0.460   0.006
    1UNL     H4   39   0.072   0.474   0.050
    1UNL     H5   40   0.109   0.430  -0.113
    1UNL     H6   41   0.345   0.393  -0.028
    1UNL     H7   42   0.116   0.041  -0.151
    1UNL     H8   43   0.000  -0.039   0.222
    1UNL     H9   44  -0.026  -0.102   0.071
    1UNL    H10   45   0.298  -0.391  -0.141
    1UNL    H11   46   0.530  -0.432  -0.206
    1UNL    H12   47   0.795  -0.212  -0.130
    1UNL    H13   48   0.664  -0.102   0.028
    1UNL    H14   49   0.421  -0.070   0.112
    1UNL    H15   50   0.214   0.159   0.216
    1UNL    H16   51   0.023   0.372   0.225
    1UNL    H17   52  -0.008   0.199   0.310
    1UNL    H18   53  -0.176   0.047  -0.083
    1UNL    H19   54  -0.195  -0.189  -0.103
    1UNL    H20   55  -0.224  -0.406  -0.024
    1UNL    H21   56  -0.318  -0.352   0.120
    1UNL    H22   57  -0.035  -0.301   0.073
    1UNL    H23   58  -0.472  -0.203   0.034
    1UNL    H24   59  -0.559  -0.267  -0.170
    1UNL    H25   60  -0.408  -0.044  -0.215
    1UNL    H26   61  -0.611   0.015  -0.040
    1UNL    H27   62  -0.391   0.162  -0.091
    1UNL    H28   63  -0.407   0.114   0.157
   0.00000   0.00000   0.00000   0.00000   0.00000   0.00000   0.00000   0.00000   0.00000
Generated with MDTraj, t= 36.0
 63
    1UNL     C1    1  -0.183   0.383  -0.054
    1UNL     C2    2  -0.055   0.300  -0.027
    1UNL     C3    3   0.071   0.387  -0.008
    1UNL     C4    4   0.189   0.294   0.023
    1UNL     O1    5   0.309   0.365   0.065
    1UNL     O2    6   0.206   0.197  -0.088
    1UNL     C5    7   0.088   0.120  -0.088
    1UNL     O3    8  -0.024   0.202  -0.138
    1UNL     C6    9   0.046   0.101   0.065
    1UNL     C7   10   0.052  -0.037   0.110
    1UNL     O4   11   0.182  -0.092   0.112
    1UNL     C8   12   0.204  -0.188   0.021
    1UNL     O5   13   0.117  -0.258  -0.029
    1UNL     C9   14   0.340  -0.212  -0.020
    1UNL    C10   15   0.371  -0.337  -0.082
    1UNL    C11   16   0.503  -0.364  -0.112
    1UNL    C12   17   0.607  -0.277  -0.076
    1UNL     O6   18   0.738  -0.301  -0.127
    1UNL    C13   19   0.573  -0.157  -0.013
    1UNL    C14   20   0.440  -0.130   0.021
    1UNL    C15   21   0.135   0.201   0.143
    1UNL    C16   22   0.006   0.244   0.221
    1UNL    C17   23  -0.070   0.201   0.092
    1UNL     O7   24  -0.203   0.158   0.114
    1UNL    C18   25  -0.237   0.062   0.017
    1UNL     O8   26  -0.214  -0.075   0.060
    1UNL    C19   27  -0.252  -0.185  -0.023
    1UNL    C20   28  -0.211  -0.324   0.040
    1UNL     O9   29  -0.086  -0.333   0.103
    1UNL    C21   30  -0.410  -0.174  -0.041
    1UNL    O10   31  -0.462  -0.286  -0.120
    1UNL    C22   32  -0.440  -0.042  -0.109
    1UNL    O11   33  -0.568  -0.031  -0.159
    1UNL    C23   34  -0.392   0.081  -0.020
    1UNL    O12   35  -0.468   0.091   0.095
    1UNL     H1   36  -0.159   0.464  -0.123
    1UNL     H2   37  -0.255   0.317  -0.102
    1UNL     H3   38  -0.229   0.422   0.037
    1UNL     H4   39   0.070   0.463   0.079
    1UNL     H5   40   0.093   0.452  -0.093
    1UNL     H6   41   0.383   0.304   0.081
    1UNL     H7   42   0.089   0.034  -0.154
    1UNL     H8   43   0.022  -0.049   0.212
    1UNL     H9   44  -0.024  -0.091   0.055
    1UNL    H10   45   0.293  -0.405  -0.112
    1UNL    H11   46   0.534  -0.460  -0.150
    1UNL    H12   47   0.772  -0.210  -0.140
    1UNL    H13   48   0.642  -0.087   0.033
    1UNL    H14   49   0.411  -0.048   0.087
    1UNL    H15   50   0.220   0.145   0.192
    1UNL    H16   51   0.002   0.356   0.232
    1UNL    H17   52  -0.014   0.176   0.306
    1UNL    H18   53  -0.175   0.078  -0.073
    1UNL    H19   54  -0.208  -0.179  -0.122
    1UNL    H20   55  -0.222  -0.410  -0.030
    1UNL    H21   56  -0.278  -0.338   0.124
    1UNL    H22   57  -0.009  -0.325   0.044
    1UNL    H23   58  -0.464  -0.187   0.055
    1UNL    H24   59  -0.554  -0.271  -0.145
    1UNL    H25   60  -0.388  -0.037  -0.201
    1UNL    H26   61  -0.623   0.021  -0.088
    1UNL    H27   62  -0.393   0.182  -0.071
    1UNL    H28   63  -0.403   0.108   0.171
   0.00000   0.00000   0.00000   0.00000   0.00000   0.00000   0.00000   0.00000   0.00000
Generated with MDTraj, t= 37.0
 63
    1UNL     C1    1  -0.170   0.393  -0.076
    1UNL     C2    2  -0.052   0.305  -0.038
    1UNL     C3    3   0.071   0.393  -0.015
    1UNL     C4    4   0.188   0.303   0.036
    1UNL     O1    5   0.313   0.371   0.064
    1UNL     O2    6   0.206   0.213  -0.076
    1UNL     C5    7   0.085   0.129  -0.090
    1UNL     O3    8  -0.019   0.211  -0.143
    1UNL     C6    9   0.050   0.104   0.068
    1UNL     C7   10   0.057  -0.038   0.112
    1UNL     O4   11   0.190  -0.090   0.100
    1UNL     C8   12   0.206  -0.171  -0.009
    1UNL     O5   13   0.109  -0.212  -0.071
    1UNL     C9   14   0.347  -0.212  -0.034
    1UNL    C10   15   0.377  -0.338  -0.090
    1UNL    C11   16   0.511  -0.375  -0.105
    1UNL    C12   17   0.616  -0.281  -0.073
    1UNL     O6   18   0.751  -0.311  -0.085
    1UNL    C13   19   0.583  -0.153  -0.032
    1UNL    C14   20   0.447  -0.119  -0.008
    1UNL    C15   21   0.140   0.200   0.150
    1UNL    C16   22   0.006   0.256   0.216
    1UNL    C17   23  -0.070   0.200   0.092
    1UNL     O7   24  -0.194   0.147   0.124
    1UNL    C18   25  -0.240   0.046   0.030
    1UNL     O8   26  -0.230  -0.085   0.092
    1UNL    C19   27  -0.273  -0.195   0.008
    1UNL    C20   28  -0.266  -0.328   0.078
    1UNL     O9   29  -0.137  -0.375   0.103
    1UNL    C21   30  -0.414  -0.181  -0.049
    1UNL    O10   31  -0.450  -0.289  -0.138
    1UNL    C22   32  -0.427  -0.042  -0.116
    1UNL    O11   33  -0.556  -0.008  -0.151
    1UNL    C23   34  -0.385   0.066  -0.014
    1UNL    O12   35  -0.466   0.055   0.100
    1UNL     H1   36  -0.160   0.436  -0.174
    1UNL     H2   37  -0.263   0.349  -0.070
    1UNL     H3   38  -0.181   0.485  -0.009
    1UNL     H4   39   0.057   0.491   0.047
    1UNL     H5   40   0.107   0.434  -0.111
    1UNL     H6   41   0.377   0.350  -0.003
    1UNL     H7   42   0.098   0.041  -0.157
    1UNL     H8   43   0.025  -0.035   0.217
    1UNL     H9   44  -0.018  -0.096   0.055
    1UNL    H10   45   0.303  -0.416  -0.098
    1UNL    H11   46   0.537  -0.468  -0.154
    1UNL    H12   47   0.817  -0.240  -0.093
    1UNL    H13   48   0.664  -0.088  -0.013
    1UNL    H14   49   0.430  -0.029   0.050
    1UNL    H15   50   0.223   0.146   0.203
    1UNL    H16   51  -0.003   0.363   0.238
    1UNL    H17   52  -0.014   0.208   0.316
    1UNL    H18   53  -0.174   0.038  -0.058
    1UNL    H19   54  -0.191  -0.196  -0.064
    1UNL    H20   55  -0.308  -0.406   0.012
    1UNL    H21   56  -0.311  -0.328   0.177
    1UNL    H22   57  -0.061  -0.319   0.076
    1UNL    H23   58  -0.484  -0.185   0.036
    1UNL    H24   59  -0.525  -0.249  -0.185
    1UNL    H25   60  -0.377  -0.033  -0.210
    1UNL    H26   61  -0.619  -0.027  -0.081
    1UNL    H27   62  -0.417   0.171  -0.043
    1UNL    H28   63  -0.426   0.010   0.173
   0.00000   0.00000   0.00000   0.00000   0.00000   0.00000   0.00000   0.00000   0.00000
Generated with MDTraj, t= 38.0
 63
    1UNL     C1    1  -0.186   0.362  -0.060
    1UNL     C2    2  -0.054   0.290  -0.039
    1UNL     C3    3   0.064   0.391  -0.022
    1UNL     C4    4   0.196   0.303   0.022
    1UNL     O1    5   0.301   0.390   0.058
    1UNL     O2    6   0.219   0.219  -0.090
    1UNL     C5    7   0.105   0.121  -0.087
    1UNL     O3    8  -0.008   0.197  -0.140
    1UNL     C6    9   0.065   0.099   0.065
    1UNL     C7   10   0.056  -0.043   0.122
    1UNL     O4   11   0.190  -0.097   0.114
    1UNL     C8   12   0.200  -0.159  -0.008
    1UNL     O5   13   0.108  -0.177  -0.085
    1UNL     C9   14   0.337  -0.200  -0.042
    1UNL    C10   15   0.362  -0.328  -0.089
    1UNL    C11   16   0.495  -0.367  -0.100
    1UNL    C12   17   0.598  -0.286  -0.068
    1UNL     O6   18   0.728  -0.326  -0.064
    1UNL    C13   19   0.570  -0.151  -0.041
    1UNL    C14   20   0.442  -0.109  -0.015
    1UNL    C15   21   0.152   0.204   0.144
    1UNL    C16   22   0.021   0.249   0.218
    1UNL    C17   23  -0.062   0.199   0.089
    1UNL     O7   24  -0.183   0.137   0.130
    1UNL    C18   25  -0.237   0.035   0.042
    1UNL     O8   26  -0.233  -0.095   0.091
    1UNL    C19   27  -0.269  -0.200  -0.002
    1UNL    C20   28  -0.261  -0.330   0.072
    1UNL     O9   29  -0.126  -0.361   0.120
    1UNL    C21   30  -0.406  -0.172  -0.058
    1UNL    O10   31  -0.437  -0.274  -0.156
    1UNL    C22   32  -0.424  -0.034  -0.118
    1UNL    O11   33  -0.558  -0.021  -0.151
    1UNL    C23   34  -0.388   0.067  -0.004
    1UNL    O12   35  -0.471   0.056   0.107
    1UNL     H1   36  -0.182   0.451  -0.116
    1UNL     H2   37  -0.260   0.303  -0.114
    1UNL     H3   38  -0.246   0.391   0.032
    1UNL     H4   39   0.049   0.481   0.044
    1UNL     H5   40   0.087   0.439  -0.123
    1UNL     H6   41   0.357   0.387  -0.017
    1UNL     H7   42   0.141   0.038  -0.155
    1UNL     H8   43   0.034  -0.027   0.231
    1UNL     H9   44  -0.028  -0.098   0.067
    1UNL    H10   45   0.283  -0.395  -0.119
    1UNL    H11   46   0.517  -0.469  -0.134
    1UNL    H12   47   0.787  -0.252  -0.048
    1UNL    H13   48   0.648  -0.075  -0.018
    1UNL    H14   49   0.418  -0.011   0.017
    1UNL    H15   50   0.233   0.170   0.212
    1UNL    H16   51   0.023   0.346   0.262
    1UNL    H17   52  -0.004   0.174   0.300
    1UNL    H18   53  -0.171   0.040  -0.047
    1UNL    H19   54  -0.201  -0.184  -0.089
    1UNL    H20   55  -0.297  -0.407   0.002
    1UNL    H21   56  -0.322  -0.320   0.162
    1UNL    H22   57  -0.065  -0.340   0.045
    1UNL    H23   58  -0.477  -0.192   0.024
    1UNL    H24   59  -0.504  -0.228  -0.220
    1UNL    H25   60  -0.360  -0.021  -0.204
    1UNL    H26   61  -0.597  -0.028  -0.067
    1UNL    H27   62  -0.393   0.174  -0.036
    1UNL    H28   63  -0.414   0.014   0.185
   0.00000   0.00000   0.00000   0.00000   0.00000   0.00000   0.00000   0.00000   0.00000
Generated with MDTraj, t= 39.0
 63
    1UNL     C1    1  -0.184   0.368  -0.074
    1UNL     C2    2  -0.064   0.289  -0.034
    1UNL     C3    3   0.057   0.381  -0.034
    1UNL     C4    4   0.184   0.296   0.014
    1UNL     O1    5   0.301   0.376   0.045
    1UNL     O2    6   0.202   0.193  -0.074
    1UNL     C5    7   0.084   0.113  -0.070
    1UNL     O3    8  -0.032   0.185  -0.134
    1UNL     C6    9   0.051   0.109   0.087
    1UNL     C7   10   0.054  -0.027   0.141
    1UNL     O4   11   0.186  -0.083   0.117
    1UNL     C8   12   0.190  -0.163   0.002
    1UNL     O5   13   0.101  -0.196  -0.072
    1UNL     C9   14   0.328  -0.207  -0.033
    1UNL    C10   15   0.352  -0.330  -0.082
    1UNL    C11   16   0.481  -0.379  -0.092
    1UNL    C12   17   0.586  -0.293  -0.073
    1UNL     O6   18   0.719  -0.335  -0.094
    1UNL    C13   19   0.561  -0.164  -0.022
    1UNL    C14   20   0.433  -0.123  -0.002
    1UNL    C15   21   0.135   0.227   0.145
    1UNL    C16   22   0.002   0.275   0.220
    1UNL    C17   23  -0.073   0.204   0.103
    1UNL     O7   24  -0.195   0.145   0.131
    1UNL    C18   25  -0.228   0.040   0.038
    1UNL     O8   26  -0.206  -0.094   0.080
    1UNL    C19   27  -0.235  -0.192  -0.024
    1UNL    C20   28  -0.210  -0.336   0.031
    1UNL     O9   29  -0.079  -0.336   0.091
    1UNL    C21   30  -0.384  -0.168  -0.065
    1UNL    O10   31  -0.432  -0.267  -0.160
    1UNL    C22   32  -0.416  -0.031  -0.116
    1UNL    O11   33  -0.556  -0.014  -0.142
    1UNL    C23   34  -0.382   0.068   0.001
    1UNL    O12   35  -0.449   0.049   0.121
    1UNL     H1   36  -0.174   0.423  -0.165
    1UNL     H2   37  -0.277   0.302  -0.079
    1UNL     H3   38  -0.206   0.440   0.002
    1UNL     H4   39   0.048   0.475   0.022
    1UNL     H5   40   0.085   0.409  -0.144
    1UNL     H6   41   0.380   0.343   0.002
    1UNL     H7   42   0.097   0.021  -0.138
    1UNL     H8   43   0.040  -0.014   0.255
    1UNL     H9   44  -0.024  -0.090   0.091
    1UNL    H10   45   0.268  -0.392  -0.116
    1UNL    H11   46   0.511  -0.478  -0.114
    1UNL    H12   47   0.787  -0.270  -0.067
    1UNL    H13   48   0.641  -0.098  -0.012
    1UNL    H14   49   0.411  -0.025   0.044
    1UNL    H15   50   0.221   0.192   0.204
    1UNL    H16   51  -0.017   0.378   0.234
    1UNL    H17   52  -0.007   0.217   0.319
    1UNL    H18   53  -0.164   0.056  -0.051
    1UNL    H19   54  -0.173  -0.157  -0.111
    1UNL    H20   55  -0.214  -0.410  -0.049
    1UNL    H21   56  -0.283  -0.349   0.111
    1UNL    H22   57  -0.017  -0.276   0.041
    1UNL    H23   58  -0.443  -0.186   0.025
    1UNL    H24   59  -0.505  -0.227  -0.216
    1UNL    H25   60  -0.366  -0.006  -0.212
    1UNL    H26   61  -0.604  -0.047  -0.059
    1UNL    H27   62  -0.406   0.170  -0.042
    1UNL    H28   63  -0.392   0.089   0.193
   0.00000   0.00000   0.00000   0.00000   0.00000   0.00000   0.00000   0.00000   0.00000
Generated with MDTraj, t= 40.0
 63
    1UNL     C1    1  -0.184   0.376  -0.070
    1UNL     C2    2  -0.056   0.298  -0.038
    1UNL     C3    3   0.066   0.395  -0.033
    1UNL     C4    4   0.191   0.305   0.011
    1UNL     O1    5   0.310   0.383   0.029
    1UNL     O2    6   0.202   0.210  -0.091
    1UNL     C5    7   0.077   0.127  -0.083
    1UNL     O3    8  -0.034   0.192  -0.132
    1UNL     C6    9   0.047   0.106   0.077
    1UNL     C7   10   0.050  -0.021   0.158
    1UNL     O4   11   0.180  -0.089   0.161
    1UNL     C8   12   0.203  -0.148   0.039
    1UNL     O5   13   0.123  -0.149  -0.049
    1UNL     C9   14   0.340  -0.210   0.013
    1UNL    C10   15   0.346  -0.327  -0.067
    1UNL    C11   16   0.466  -0.380  -0.108
    1UNL    C12   17   0.588  -0.304  -0.087
    1UNL     O6   18   0.704  -0.353  -0.135
    1UNL    C13   19   0.583  -0.185  -0.011
    1UNL    C14   20   0.460  -0.140   0.039
    1UNL    C15   21   0.143   0.212   0.137
    1UNL    C16   22   0.013   0.272   0.212
    1UNL    C17   23  -0.066   0.212   0.097
    1UNL     O7   24  -0.196   0.165   0.116
    1UNL    C18   25  -0.250   0.053   0.036
    1UNL     O8   26  -0.215  -0.083   0.082
    1UNL    C19   27  -0.233  -0.179  -0.021
    1UNL    C20   28  -0.214  -0.324   0.027
    1UNL     O9   29  -0.086  -0.376   0.046
    1UNL    C21   30  -0.381  -0.174  -0.071
    1UNL    O10   31  -0.399  -0.276  -0.173
    1UNL    C22   32  -0.433  -0.034  -0.113
    1UNL    O11   33  -0.578  -0.036  -0.126
    1UNL    C23   34  -0.400   0.061   0.007
    1UNL    O12   35  -0.476   0.015   0.114
    1UNL     H1   36  -0.164   0.430  -0.166
    1UNL     H2   37  -0.267   0.309  -0.077
    1UNL     H3   38  -0.198   0.448   0.007
    1UNL     H4   39   0.068   0.482   0.035
    1UNL     H5   40   0.083   0.436  -0.140
    1UNL     H6   41   0.372   0.360  -0.044
    1UNL     H7   42   0.087   0.031  -0.146
    1UNL     H8   43   0.037   0.007   0.270
    1UNL     H9   44  -0.022  -0.100   0.124
    1UNL    H10   45   0.253  -0.366  -0.095
    1UNL    H11   46   0.459  -0.478  -0.160
    1UNL    H12   47   0.777  -0.289  -0.119
    1UNL    H13   48   0.673  -0.121   0.014
    1UNL    H14   49   0.453  -0.043   0.079
    1UNL    H15   50   0.228   0.171   0.195
    1UNL    H16   51   0.015   0.380   0.226
    1UNL    H17   52   0.005   0.222   0.311
    1UNL    H18   53  -0.184   0.063  -0.053
    1UNL    H19   54  -0.146  -0.164  -0.092
    1UNL    H20   55  -0.260  -0.385  -0.051
    1UNL    H21   56  -0.258  -0.335   0.127
    1UNL    H22   57  -0.012  -0.313   0.028
    1UNL    H23   58  -0.441  -0.208   0.014
    1UNL    H24   59  -0.483  -0.260  -0.212
    1UNL    H25   60  -0.387   0.005  -0.207
    1UNL    H26   61  -0.625  -0.044  -0.033
    1UNL    H27   62  -0.430   0.168  -0.001
    1UNL    H28   63  -0.424  -0.001   0.190
   0.00000   0.00000   0.00000   0.00000   0.00000   0.00000   0.00000   0.00000   0.00000
Generated with MDTraj, t= 41.0
 63
    1UNL     C1    1  -0.196   0.360  -0.091
    1UNL     C2    2  -0.069   0.291  -0.045
    1UNL     C3    3   0.048   0.391  -0.044
    1UNL     C4    4   0.180   0.309   0.007
    1UNL     O1    5   0.294   0.390   0.039
    1UNL     O2    6   0.196   0.201  -0.091
    1UNL     C5    7   0.076   0.120  -0.077
    1UNL     O3    8  -0.035   0.181  -0.136
    1UNL     C6    9   0.056   0.117   0.084
    1UNL     C7   10   0.067  -0.016   0.155
    1UNL     O4   11   0.202  -0.061   0.143
    1UNL     C8   12   0.207  -0.139   0.031
    1UNL     O5   13   0.113  -0.162  -0.040
    1UNL     C9   14   0.334  -0.208   0.011
    1UNL    C10   15   0.341  -0.316  -0.079
    1UNL    C11   16   0.457  -0.365  -0.126
    1UNL    C12   17   0.577  -0.308  -0.081
    1UNL     O6   18   0.697  -0.362  -0.131
    1UNL    C13   19   0.574  -0.209   0.015
    1UNL    C14   20   0.451  -0.161   0.059
    1UNL    C15   21   0.138   0.228   0.145
    1UNL    C16   22   0.007   0.285   0.215
    1UNL    C17   23  -0.074   0.219   0.092
    1UNL     O7   24  -0.198   0.150   0.124
    1UNL    C18   25  -0.233   0.046   0.032
    1UNL     O8   26  -0.199  -0.086   0.067
    1UNL    C19   27  -0.230  -0.191  -0.029
    1UNL    C20   28  -0.195  -0.331   0.025
    1UNL     O9   29  -0.061  -0.374   0.039
    1UNL    C21   30  -0.386  -0.177  -0.072
    1UNL    O10   31  -0.413  -0.264  -0.186
    1UNL    C22   32  -0.433  -0.029  -0.098
    1UNL    O11   33  -0.569  -0.017  -0.130
    1UNL    C23   34  -0.393   0.062   0.019
    1UNL    O12   35  -0.450   0.029   0.143
    1UNL     H1   36  -0.173   0.417  -0.186
    1UNL     H2   37  -0.258   0.280  -0.109
    1UNL     H3   38  -0.236   0.423  -0.015
    1UNL     H4   39   0.026   0.475   0.028
    1UNL     H5   40   0.056   0.437  -0.144
    1UNL     H6   41   0.367   0.325   0.066
    1UNL     H7   42   0.095   0.016  -0.126
    1UNL     H8   43   0.050  -0.022   0.271
    1UNL     H9   44   0.006  -0.097   0.110
    1UNL    H10   45   0.243  -0.352  -0.115
    1UNL    H11   46   0.467  -0.449  -0.189
    1UNL    H12   47   0.771  -0.299  -0.108
    1UNL    H13   48   0.666  -0.191   0.059
    1UNL    H14   49   0.449  -0.066   0.120
    1UNL    H15   50   0.224   0.202   0.208
    1UNL    H16   51   0.013   0.396   0.233
    1UNL    H17   52  -0.009   0.228   0.306
    1UNL    H18   53  -0.188   0.072  -0.066
    1UNL    H19   54  -0.164  -0.171  -0.117
    1UNL    H20   55  -0.238  -0.408  -0.041
    1UNL    H21   56  -0.240  -0.334   0.127
    1UNL    H22   57  -0.008  -0.296   0.005
    1UNL    H23   58  -0.457  -0.220   0.000
    1UNL    H24   59  -0.491  -0.227  -0.229
    1UNL    H25   60  -0.377   0.004  -0.193
    1UNL    H26   61  -0.623  -0.003  -0.053
    1UNL    H27   62  -0.429   0.163  -0.005
    1UNL    H28   63  -0.384  -0.034   0.188
   0.00000   0.00000   0.00000   0.00000   0.00000   0.00000   0.00000   0.00000   0.00000
Generated with MDTraj, t= 42.0
 63
    1UNL     C1    1  -0.198   0.328  -0.089
    1UNL     C2    2  -0.067   0.279  -0.046
    1UNL     C3    3   0.044   0.392  -0.053
    1UNL     C4    4   0.177   0.329   0.006
    1UNL     O1    5   0.278   0.430   0.017
    1UNL     O2    6   0.212   0.223  -0.088
    1UNL     C5    7   0.110   0.129  -0.059
    1UNL     O3    8  -0.017   0.170  -0.126
    1UNL     C6    9   0.080   0.129   0.093
    1UNL     C7   10   0.067  -0.010   0.147
    1UNL     O4   11   0.190  -0.079   0.135
    1UNL     C8   12   0.193  -0.149   0.016
    1UNL     O5   13   0.103  -0.176  -0.057
    1UNL     C9   14   0.327  -0.215  -0.004
    1UNL    C10   15   0.341  -0.298  -0.119
    1UNL    C11   16   0.467  -0.342  -0.149
    1UNL    C12   17   0.578  -0.313  -0.069
    1UNL     O6   18   0.694  -0.381  -0.093
    1UNL    C13   19   0.562  -0.222   0.035
    1UNL    C14   20   0.442  -0.168   0.063
    1UNL    C15   21   0.148   0.256   0.147
    1UNL    C16   22   0.016   0.301   0.212
    1UNL    C17   23  -0.059   0.213   0.106
    1UNL     O7   24  -0.180   0.135   0.144
    1UNL    C18   25  -0.236   0.043   0.053
    1UNL     O8   26  -0.203  -0.097   0.074
    1UNL    C19   27  -0.232  -0.189  -0.040
    1UNL    C20   28  -0.197  -0.336  -0.008
    1UNL     O9   29  -0.072  -0.360   0.055
    1UNL    C21   30  -0.389  -0.176  -0.074
    1UNL    O10   31  -0.435  -0.264  -0.174
    1UNL    C22   32  -0.433  -0.031  -0.101
    1UNL    O11   33  -0.567  -0.022  -0.123
    1UNL    C23   34  -0.391   0.059   0.022
    1UNL    O12   35  -0.455   0.009   0.135
    1UNL     H1   36  -0.193   0.378  -0.184
    1UNL     H2   37  -0.271   0.247  -0.099
    1UNL     H3   38  -0.234   0.400  -0.017
    1UNL     H4   39   0.017   0.486   0.006
    1UNL     H5   40   0.068   0.420  -0.153
    1UNL     H6   41   0.310   0.454  -0.078
    1UNL     H7   42   0.123   0.020  -0.097
    1UNL     H8   43   0.031  -0.025   0.257
    1UNL     H9   44  -0.001  -0.076   0.090
    1UNL    H10   45   0.257  -0.326  -0.179
    1UNL    H11   46   0.484  -0.408  -0.236
    1UNL    H12   47   0.757  -0.351  -0.021
    1UNL    H13   48   0.658  -0.191   0.085
    1UNL    H14   49   0.439  -0.094   0.134
    1UNL    H15   50   0.238   0.243   0.205
    1UNL    H16   51  -0.014   0.412   0.203
    1UNL    H17   52   0.011   0.269   0.313
    1UNL    H18   53  -0.179   0.068  -0.039
    1UNL    H19   54  -0.172  -0.153  -0.125
    1UNL    H20   55  -0.192  -0.388  -0.104
    1UNL    H21   56  -0.272  -0.381   0.063
    1UNL    H22   57  -0.001  -0.298   0.031
    1UNL    H23   58  -0.450  -0.207   0.015
    1UNL    H24   59  -0.513  -0.220  -0.225
    1UNL    H25   60  -0.371   0.014  -0.186
    1UNL    H26   61  -0.608  -0.012  -0.035
    1UNL    H27   62  -0.423   0.162   0.004
    1UNL    H28   63  -0.397   0.029   0.220
   0.00000   0.00000   0.00000   0.00000   0.00000   0.00000   0.00000   0.00000   0.00000
Generated with MDTraj, t= 43.0
 63
    1UNL     C1    1  -0.216   0.333  -0.092
    1UNL     C2    2  -0.079   0.285  -0.056
    1UNL     C3    3   0.035   0.397  -0.044
    1UNL     C4    4   0.163   0.336   0.009
    1UNL     O1    5   0.269   0.423   0.050
    1UNL     O2    6   0.202   0.242  -0.094
    1UNL     C5    7   0.098   0.136  -0.090
    1UNL     O3    8  -0.023   0.184  -0.147
    1UNL     C6    9   0.066   0.122   0.062
    1UNL     C7   10   0.078  -0.011   0.145
    1UNL     O4   11   0.206  -0.066   0.136
    1UNL     C8   12   0.213  -0.133   0.014
    1UNL     O5   13   0.121  -0.147  -0.059
    1UNL     C9   14   0.345  -0.200  -0.020
    1UNL    C10   15   0.361  -0.276  -0.135
    1UNL    C11   16   0.487  -0.334  -0.157
    1UNL    C12   17   0.586  -0.329  -0.061
    1UNL     O6   18   0.701  -0.394  -0.084
    1UNL    C13   19   0.561  -0.264   0.057
    1UNL    C14   20   0.446  -0.201   0.081
    1UNL    C15   21   0.136   0.237   0.127
    1UNL    C16   22   0.005   0.276   0.199
    1UNL    C17   23  -0.072   0.202   0.087
    1UNL     O7   24  -0.179   0.118   0.141
    1UNL    C18   25  -0.228   0.037   0.041
    1UNL     O8   26  -0.211  -0.102   0.080
    1UNL    C19   27  -0.250  -0.194  -0.022
    1UNL    C20   28  -0.218  -0.332   0.025
    1UNL     O9   29  -0.080  -0.361   0.064
    1UNL    C21   30  -0.400  -0.177  -0.068
    1UNL    O10   31  -0.429  -0.256  -0.181
    1UNL    C22   32  -0.430  -0.026  -0.100
    1UNL    O11   33  -0.569  -0.008  -0.099
    1UNL    C23   34  -0.373   0.064   0.016
    1UNL    O12   35  -0.429   0.011   0.134
    1UNL     H1   36  -0.203   0.409  -0.160
    1UNL     H2   37  -0.283   0.263  -0.152
    1UNL     H3   38  -0.276   0.381  -0.015
    1UNL     H4   39   0.008   0.471   0.033
    1UNL     H5   40   0.052   0.446  -0.139
    1UNL     H6   41   0.337   0.418  -0.027
    1UNL     H7   42   0.144   0.041  -0.138
    1UNL     H8   43   0.058   0.004   0.257
    1UNL     H9   44   0.003  -0.087   0.120
    1UNL    H10   45   0.284  -0.264  -0.212
    1UNL    H11   46   0.496  -0.389  -0.246
    1UNL    H12   47   0.760  -0.402  -0.005
    1UNL    H13   48   0.646  -0.265   0.119
    1UNL    H14   49   0.431  -0.129   0.168
    1UNL    H15   50   0.229   0.219   0.180
    1UNL    H16   51  -0.040   0.382   0.201
    1UNL    H17   52  -0.016   0.231   0.294
    1UNL    H18   53  -0.164   0.046  -0.049
    1UNL    H19   54  -0.186  -0.170  -0.106
    1UNL    H20   55  -0.237  -0.411  -0.050
    1UNL    H21   56  -0.275  -0.351   0.121
    1UNL    H22   57  -0.021  -0.292   0.022
    1UNL    H23   58  -0.467  -0.215   0.013
    1UNL    H24   59  -0.505  -0.215  -0.232
    1UNL    H25   60  -0.389   0.006  -0.205
    1UNL    H26   61  -0.615  -0.008  -0.005
    1UNL    H27   62  -0.408   0.168   0.012
    1UNL    H28   63  -0.368   0.021   0.210
   0.00000   0.00000   0.00000   0.00000   0.00000   0.00000   0.00000   0.00000   0.00000
Generated with MDTraj, t= 44.0
 63
    1UNL     C1    1  -0.205   0.377  -0.068
    1UNL     C2    2  -0.076   0.301  -0.039
    1UNL     C3    3   0.040   0.402  -0.032
    1UNL     C4    4   0.166   0.340   0.007
    1UNL     O1    5   0.281   0.426   0.012
    1UNL     O2    6   0.195   0.236  -0.095
    1UNL     C5    7   0.082   0.147  -0.084
    1UNL     O3    8  -0.038   0.205  -0.140
    1UNL     C6    9   0.059   0.135   0.070
    1UNL     C7   10   0.078  -0.010   0.136
    1UNL     O4   11   0.207  -0.070   0.123
    1UNL     C8   12   0.215  -0.158   0.015
    1UNL     O5   13   0.123  -0.199  -0.048
    1UNL     C9   14   0.351  -0.211  -0.020
    1UNL    C10   15   0.386  -0.264  -0.141
    1UNL    C11   16   0.506  -0.329  -0.167
    1UNL    C12   17   0.599  -0.342  -0.066
    1UNL     O6   18   0.723  -0.407  -0.081
    1UNL    C13   19   0.555  -0.302   0.067
    1UNL    C14   20   0.436  -0.237   0.084
    1UNL    C15   21   0.129   0.258   0.142
    1UNL    C16   22  -0.002   0.288   0.211
    1UNL    C17   23  -0.076   0.214   0.097
    1UNL     O7   24  -0.195   0.138   0.139
    1UNL    C18   25  -0.246   0.054   0.037
    1UNL     O8   26  -0.205  -0.081   0.069
    1UNL    C19   27  -0.235  -0.177  -0.031
    1UNL    C20   28  -0.197  -0.324   0.010
    1UNL     O9   29  -0.062  -0.359   0.041
    1UNL    C21   30  -0.387  -0.179  -0.059
    1UNL    O10   31  -0.424  -0.276  -0.160
    1UNL    C22   32  -0.444  -0.041  -0.092
    1UNL    O11   33  -0.584  -0.059  -0.117
    1UNL    C23   34  -0.403   0.066   0.018
    1UNL    O12   35  -0.459   0.035   0.140
    1UNL     H1   36  -0.202   0.418  -0.165
    1UNL     H2   37  -0.289   0.310  -0.076
    1UNL     H3   38  -0.224   0.462   0.000
    1UNL     H4   39   0.014   0.487   0.022
    1UNL     H5   40   0.053   0.430  -0.137
    1UNL     H6   41   0.325   0.425  -0.076
    1UNL     H7   42   0.112   0.045  -0.129
    1UNL     H8   43   0.048  -0.005   0.244
    1UNL     H9   44   0.004  -0.078   0.100
    1UNL    H10   45   0.320  -0.254  -0.223
    1UNL    H11   46   0.543  -0.353  -0.270
    1UNL    H12   47   0.747  -0.439   0.007
    1UNL    H13   48   0.622  -0.312   0.152
    1UNL    H14   49   0.419  -0.197   0.177
    1UNL    H15   50   0.218   0.267   0.204
    1UNL    H16   51  -0.024   0.396   0.207
    1UNL    H17   52  -0.012   0.244   0.312
    1UNL    H18   53  -0.200   0.088  -0.058
    1UNL    H19   54  -0.184  -0.144  -0.120
    1UNL    H20   55  -0.226  -0.390  -0.071
    1UNL    H21   56  -0.245  -0.353   0.107
    1UNL    H22   57   0.006  -0.305  -0.005
    1UNL    H23   58  -0.438  -0.208   0.037
    1UNL    H24   59  -0.503  -0.246  -0.203
    1UNL    H25   60  -0.393  -0.014  -0.193
    1UNL    H26   61  -0.634  -0.084  -0.040
    1UNL    H27   62  -0.431   0.167  -0.009
    1UNL    H28   63  -0.391   0.039   0.204
   0.00000   0.00000   0.00000   0.00000   0.00000   0.00000   0.00000   0.00000   0.00000
Generated with MDTraj, t= 45.0
 63
    1UNL     C1    1  -0.215   0.380  -0.056
    1UNL     C2    2  -0.076   0.308  -0.041
    1UNL     C3    3   0.043   0.407  -0.026
    1UNL     C4    4   0.170   0.327   0.001
    1UNL     O1    5   0.289   0.405   0.026
    1UNL     O2    6   0.184   0.231  -0.106
    1UNL     C5    7   0.078   0.148  -0.104
    1UNL     O3    8  -0.039   0.213  -0.144
    1UNL     C6    9   0.049   0.121   0.052
    1UNL     C7   10   0.053  -0.029   0.111
    1UNL     O4   11   0.186  -0.069   0.119
    1UNL     C8   12   0.222  -0.132  -0.002
    1UNL     O5   13   0.145  -0.132  -0.094
    1UNL     C9   14   0.347  -0.206  -0.009
    1UNL    C10   15   0.382  -0.246  -0.137
    1UNL    C11   16   0.497  -0.315  -0.162
    1UNL    C12   17   0.578  -0.340  -0.048
    1UNL     O6   18   0.704  -0.396  -0.076
    1UNL    C13   19   0.543  -0.316   0.086
    1UNL    C14   20   0.424  -0.239   0.101
    1UNL    C15   21   0.132   0.229   0.125
    1UNL    C16   22   0.003   0.256   0.210
    1UNL    C17   23  -0.076   0.209   0.092
    1UNL     O7   24  -0.187   0.126   0.133
    1UNL    C18   25  -0.229   0.038   0.031
    1UNL     O8   26  -0.198  -0.097   0.068
    1UNL    C19   27  -0.230  -0.186  -0.030
    1UNL    C20   28  -0.183  -0.325   0.034
    1UNL     O9   29  -0.046  -0.327   0.061
    1UNL    C21   30  -0.383  -0.181  -0.051
    1UNL    O10   31  -0.429  -0.287  -0.139
    1UNL    C22   32  -0.437  -0.038  -0.093
    1UNL    O11   33  -0.577  -0.031  -0.115
    1UNL    C23   34  -0.388   0.057   0.017
    1UNL    O12   35  -0.449   0.028   0.137
    1UNL     H1   36  -0.197   0.460  -0.128
    1UNL     H2   37  -0.289   0.319  -0.093
    1UNL     H3   38  -0.232   0.427   0.040
    1UNL     H4   39   0.018   0.474   0.048
    1UNL     H5   40   0.068   0.460  -0.117
    1UNL     H6   41   0.340   0.408  -0.055
    1UNL     H7   42   0.086   0.058  -0.174
    1UNL     H8   43   0.002  -0.036   0.207
    1UNL     H9   44  -0.009  -0.094   0.050
    1UNL    H10   45   0.320  -0.196  -0.213
    1UNL    H11   46   0.528  -0.343  -0.258
    1UNL    H12   47   0.745  -0.440   0.001
    1UNL    H13   48   0.595  -0.336   0.177
    1UNL    H14   49   0.393  -0.191   0.197
    1UNL    H15   50   0.213   0.178   0.174
    1UNL    H16   51  -0.006   0.362   0.236
    1UNL    H17   52  -0.009   0.185   0.297
    1UNL    H18   53  -0.179   0.069  -0.061
    1UNL    H19   54  -0.176  -0.160  -0.121
    1UNL    H20   55  -0.204  -0.411  -0.027
    1UNL    H21   56  -0.230  -0.329   0.135
    1UNL    H22   57   0.017  -0.278   0.002
    1UNL    H23   58  -0.428  -0.197   0.050
    1UNL    H24   59  -0.517  -0.266  -0.177
    1UNL    H25   60  -0.377  -0.013  -0.191
    1UNL    H26   61  -0.619  -0.067  -0.037
    1UNL    H27   62  -0.409   0.159  -0.013
    1UNL    H28   63  -0.385   0.013   0.210
   0.00000   0.00000   0.00000   0.00000   0.00000   0.00000   0.00000   0.00000   0.00000
Generated with MDTraj, t= 46.0
 63
    1UNL     C1    1  -0.204   0.385  -0.042
    1UNL     C2    2  -0.070   0.301  -0.029
    1UNL     C3    3   0.051   0.402  -0.033
    1UNL     C4    4   0.182   0.320   0.005
    1UNL     O1    5   0.291   0.400   0.027
    1UNL     O2    6   0.193   0.222  -0.105
    1UNL     C5    7   0.070   0.141  -0.093
    1UNL     O3    8  -0.044   0.212  -0.143
    1UNL     C6    9   0.063   0.116   0.060
    1UNL     C7   10   0.068  -0.021   0.121
    1UNL     O4   11   0.191  -0.079   0.098
    1UNL     C8   12   0.201  -0.137  -0.026
    1UNL     O5   13   0.113  -0.152  -0.110
    1UNL     C9   14   0.333  -0.202  -0.037
    1UNL    C10   15   0.388  -0.237  -0.158
    1UNL    C11   16   0.512  -0.292  -0.157
    1UNL    C12   17   0.584  -0.327  -0.036
    1UNL     O6   18   0.685  -0.417  -0.033
    1UNL    C13   19   0.523  -0.281   0.082
    1UNL    C14   20   0.400  -0.212   0.078
    1UNL    C15   21   0.142   0.230   0.133
    1UNL    C16   22   0.020   0.269   0.216
    1UNL    C17   23  -0.063   0.205   0.097
    1UNL     O7   24  -0.192   0.144   0.132
    1UNL    C18   25  -0.236   0.041   0.041
    1UNL     O8   26  -0.199  -0.092   0.081
    1UNL    C19   27  -0.224  -0.178  -0.024
    1UNL    C20   28  -0.181  -0.325   0.009
    1UNL     O9   29  -0.042  -0.327   0.039
    1UNL    C21   30  -0.375  -0.181  -0.052
    1UNL    O10   31  -0.410  -0.298  -0.125
    1UNL    C22   32  -0.436  -0.043  -0.103
    1UNL    O11   33  -0.580  -0.055  -0.104
    1UNL    C23   34  -0.390   0.051   0.015
    1UNL    O12   35  -0.465   0.034   0.134
    1UNL     H1   36  -0.201   0.417  -0.147
    1UNL     H2   37  -0.285   0.311  -0.037
    1UNL     H3   38  -0.217   0.464   0.024
    1UNL     H4   39   0.035   0.492   0.022
    1UNL     H5   40   0.064   0.432  -0.132
    1UNL     H6   41   0.363   0.341   0.039
    1UNL     H7   42   0.088   0.045  -0.151
    1UNL     H8   43   0.056  -0.014   0.226
    1UNL     H9   44  -0.012  -0.089   0.075
    1UNL    H10   45   0.344  -0.215  -0.253
    1UNL    H11   46   0.549  -0.333  -0.253
    1UNL    H12   47   0.707  -0.458   0.053
    1UNL    H13   48   0.560  -0.312   0.180
    1UNL    H14   49   0.363  -0.182   0.175
    1UNL    H15   50   0.218   0.175   0.188
    1UNL    H16   51   0.008   0.375   0.207
    1UNL    H17   52   0.017   0.219   0.319
    1UNL    H18   53  -0.178   0.059  -0.049
    1UNL    H19   54  -0.176  -0.144  -0.116
    1UNL    H20   55  -0.197  -0.394  -0.071
    1UNL    H21   56  -0.225  -0.365   0.102
    1UNL    H22   57   0.009  -0.267  -0.023
    1UNL    H23   58  -0.419  -0.196   0.048
    1UNL    H24   59  -0.506  -0.300  -0.160
    1UNL    H25   60  -0.403  -0.013  -0.210
    1UNL    H26   61  -0.611  -0.065  -0.006
    1UNL    H27   62  -0.421   0.151  -0.018
    1UNL    H28   63  -0.407   0.056   0.218
   0.00000   0.00000   0.00000   0.00000   0.00000   0.00000   0.00000   0.00000   0.00000
Generated with MDTraj, t= 47.0
 63
    1UNL     C1    1  -0.212   0.391  -0.064
    1UNL     C2    2  -0.073   0.324  -0.035
    1UNL     C3    3   0.047   0.415  -0.026
    1UNL     C4    4   0.172   0.322   0.009
    1UNL     O1    5   0.296   0.392   0.032
    1UNL     O2    6   0.180   0.225  -0.100
    1UNL     C5    7   0.062   0.141  -0.099
    1UNL     O3    8  -0.051   0.218  -0.132
    1UNL     C6    9   0.044   0.119   0.056
    1UNL     C7   10   0.060  -0.022   0.116
    1UNL     O4   11   0.191  -0.078   0.108
    1UNL     C8   12   0.220  -0.139  -0.012
    1UNL     O5   13   0.138  -0.138  -0.103
    1UNL     C9   14   0.343  -0.220  -0.020
    1UNL    C10   15   0.389  -0.265  -0.145
    1UNL    C11   16   0.515  -0.325  -0.153
    1UNL    C12   17   0.592  -0.340  -0.047
    1UNL     O6   18   0.716  -0.404  -0.059
    1UNL    C13   19   0.549  -0.296   0.073
    1UNL    C14   20   0.429  -0.228   0.092
    1UNL    C15   21   0.133   0.226   0.134
    1UNL    C16   22   0.002   0.271   0.213
    1UNL    C17   23  -0.078   0.224   0.094
    1UNL     O7   24  -0.203   0.155   0.119
    1UNL    C18   25  -0.238   0.045   0.028
    1UNL     O8   26  -0.203  -0.087   0.075
    1UNL    C19   27  -0.237  -0.186  -0.019
    1UNL    C20   28  -0.191  -0.324   0.029
    1UNL     O9   29  -0.045  -0.343   0.025
    1UNL    C21   30  -0.386  -0.189  -0.045
    1UNL    O10   31  -0.418  -0.276  -0.147
    1UNL    C22   32  -0.440  -0.048  -0.087
    1UNL    O11   33  -0.579  -0.058  -0.110
    1UNL    C23   34  -0.390   0.049   0.019
    1UNL    O12   35  -0.445   0.045   0.149
    1UNL     H1   36  -0.209   0.465  -0.142
    1UNL     H2   37  -0.289   0.315  -0.100
    1UNL     H3   38  -0.252   0.437   0.020
    1UNL     H4   39   0.033   0.486   0.055
    1UNL     H5   40   0.070   0.470  -0.108
    1UNL     H6   41   0.364   0.343  -0.012
    1UNL     H7   42   0.073   0.038  -0.145
    1UNL     H8   43   0.041  -0.013   0.218
    1UNL     H9   44  -0.007  -0.096   0.064
    1UNL    H10   45   0.332  -0.250  -0.239
    1UNL    H11   46   0.552  -0.358  -0.246
    1UNL    H12   47   0.759  -0.401   0.029
    1UNL    H13   48   0.603  -0.325   0.162
    1UNL    H14   49   0.392  -0.176   0.181
    1UNL    H15   50   0.208   0.185   0.202
    1UNL    H16   51  -0.011   0.373   0.243
    1UNL    H17   52  -0.021   0.211   0.306
    1UNL    H18   53  -0.187   0.061  -0.065
    1UNL    H19   54  -0.182  -0.162  -0.111
    1UNL    H20   55  -0.228  -0.404  -0.031
    1UNL    H21   56  -0.222  -0.341   0.133
    1UNL    H22   57   0.003  -0.271  -0.021
    1UNL    H23   58  -0.433  -0.214   0.050
    1UNL    H24   59  -0.508  -0.267  -0.182
    1UNL    H25   60  -0.393  -0.018  -0.187
    1UNL    H26   61  -0.633  -0.050  -0.025
    1UNL    H27   62  -0.410   0.156  -0.006
    1UNL    H28   63  -0.363   0.016   0.202
   0.00000   0.00000   0.00000   0.00000   0.00000   0.00000   0.00000   0.00000   0.00000
Generated with MDTraj, t= 48.0
 63
    1UNL     C1    1  -0.207   0.352  -0.064
    1UNL     C2    2  -0.071   0.299  -0.030
    1UNL     C3    3   0.042   0.406  -0.026
    1UNL     C4    4   0.172   0.330   0.010
    1UNL     O1    5   0.278   0.423   0.038
    1UNL     O2    6   0.190   0.237  -0.108
    1UNL     C5    7   0.087   0.141  -0.100
    1UNL     O3    8  -0.035   0.211  -0.148
    1UNL     C6    9   0.059   0.115   0.054
    1UNL     C7   10   0.061  -0.020   0.121
    1UNL     O4   11   0.188  -0.075   0.126
    1UNL     C8   12   0.218  -0.140   0.010
    1UNL     O5   13   0.135  -0.162  -0.078
    1UNL     C9   14   0.352  -0.207  -0.008
    1UNL    C10   15   0.365  -0.279  -0.124
    1UNL    C11   16   0.488  -0.344  -0.148
    1UNL    C12   17   0.590  -0.342  -0.050
    1UNL     O6   18   0.713  -0.389  -0.088
    1UNL    C13   19   0.562  -0.279   0.075
    1UNL    C14   20   0.447  -0.212   0.095
    1UNL    C15   21   0.145   0.229   0.126
    1UNL    C16   22   0.028   0.265   0.215
    1UNL    C17   23  -0.064   0.209   0.098
    1UNL     O7   24  -0.191   0.150   0.123
    1UNL    C18   25  -0.240   0.051   0.027
    1UNL     O8   26  -0.201  -0.080   0.064
    1UNL    C19   27  -0.235  -0.180  -0.038
    1UNL    C20   28  -0.188  -0.325   0.002
    1UNL     O9   29  -0.051  -0.335   0.043
    1UNL    C21   30  -0.389  -0.184  -0.057
    1UNL    O10   31  -0.444  -0.267  -0.151
    1UNL    C22   32  -0.447  -0.039  -0.094
    1UNL    O11   33  -0.584  -0.049  -0.102
    1UNL    C23   34  -0.400   0.058   0.022
    1UNL    O12   35  -0.471   0.015   0.143
    1UNL     H1   36  -0.213   0.402  -0.158
    1UNL     H2   37  -0.296   0.288  -0.062
    1UNL     H3   38  -0.221   0.441  -0.004
    1UNL     H4   39   0.036   0.494   0.035
    1UNL     H5   40   0.055   0.439  -0.127
    1UNL     H6   41   0.365   0.386   0.025
    1UNL     H7   42   0.105   0.047  -0.155
    1UNL     H8   43   0.023  -0.014   0.218
    1UNL     H9   44   0.002  -0.092   0.061
    1UNL    H10   45   0.306  -0.273  -0.216
    1UNL    H11   46   0.511  -0.390  -0.245
    1UNL    H12   47   0.782  -0.360  -0.022
    1UNL    H13   48   0.636  -0.293   0.150
    1UNL    H14   49   0.431  -0.160   0.188
    1UNL    H15   50   0.233   0.204   0.187
    1UNL    H16   51   0.004   0.368   0.243
    1UNL    H17   52   0.014   0.214   0.314
    1UNL    H18   53  -0.205   0.068  -0.075
    1UNL    H19   54  -0.184  -0.154  -0.133
    1UNL    H20   55  -0.209  -0.386  -0.085
    1UNL    H21   56  -0.255  -0.358   0.084
    1UNL    H22   57   0.002  -0.269  -0.010
    1UNL    H23   58  -0.432  -0.208   0.039
    1UNL    H24   59  -0.536  -0.247  -0.161
    1UNL    H25   60  -0.410  -0.014  -0.198
    1UNL    H26   61  -0.619  -0.057  -0.015
    1UNL    H27   62  -0.444   0.160   0.003
    1UNL    H28   63  -0.410   0.013   0.211
   0.00000   0.00000   0.00000   0.00000   0.00000   0.00000   0.00000   0.00000   0.00000
Generated with MDTraj, t= 49.0
 63
    1UNL     C1    1  -0.211   0.355  -0.085
    1UNL     C2    2  -0.077   0.288  -0.046
    1UNL     C3    3   0.043   0.390  -0.047
    1UNL     C4    4   0.172   0.323   0.009
    1UNL     O1    5   0.281   0.421   0.034
    1UNL     O2    6   0.197   0.213  -0.079
    1UNL     C5    7   0.088   0.122  -0.066
    1UNL     O3    8  -0.024   0.179  -0.132
    1UNL     C6    9   0.053   0.124   0.085
    1UNL     C7   10   0.075  -0.011   0.153
    1UNL     O4   11   0.202  -0.066   0.122
    1UNL     C8   12   0.210  -0.141   0.007
    1UNL     O5   13   0.109  -0.170  -0.057
    1UNL     C9   14   0.339  -0.196  -0.026
    1UNL    C10   15   0.361  -0.288  -0.131
    1UNL    C11   16   0.482  -0.358  -0.144
    1UNL    C12   17   0.592  -0.324  -0.059
    1UNL     O6   18   0.712  -0.396  -0.068
    1UNL    C13   19   0.569  -0.236   0.045
    1UNL    C14   20   0.445  -0.178   0.056
    1UNL    C15   21   0.133   0.251   0.138
    1UNL    C16   22   0.001   0.302   0.212
    1UNL    C17   23  -0.073   0.219   0.099
    1UNL     O7   24  -0.188   0.145   0.134
    1UNL    C18   25  -0.223   0.044   0.032
    1UNL     O8   26  -0.193  -0.098   0.053
    1UNL    C19   27  -0.240  -0.192  -0.053
    1UNL    C20   28  -0.191  -0.342  -0.028
    1UNL     O9   29  -0.083  -0.356   0.055
    1UNL    C21   30  -0.399  -0.186  -0.070
    1UNL    O10   31  -0.442  -0.263  -0.177
    1UNL    C22   32  -0.441  -0.033  -0.087
    1UNL    O11   33  -0.576  -0.010  -0.079
    1UNL    C23   34  -0.374   0.050   0.022
    1UNL    O12   35  -0.438   0.014   0.138
    1UNL     H1   36  -0.221   0.428  -0.162
    1UNL     H2   37  -0.270   0.279  -0.120
    1UNL     H3   38  -0.265   0.398   0.004
    1UNL     H4   39   0.033   0.480   0.006
    1UNL     H5   40   0.071   0.422  -0.149
    1UNL     H6   41   0.369   0.380   0.014
    1UNL     H7   42   0.122   0.027  -0.106
    1UNL     H8   43   0.062  -0.011   0.257
    1UNL     H9   44   0.003  -0.082   0.109
    1UNL    H10   45   0.277  -0.291  -0.198
    1UNL    H11   46   0.491  -0.407  -0.241
    1UNL    H12   47   0.778  -0.377   0.004
    1UNL    H13   48   0.652  -0.204   0.111
    1UNL    H14   49   0.418  -0.112   0.138
    1UNL    H15   50   0.213   0.217   0.205
    1UNL    H16   51  -0.029   0.409   0.206
    1UNL    H17   52  -0.019   0.260   0.310
    1UNL    H18   53  -0.169   0.068  -0.059
    1UNL    H19   54  -0.201  -0.159  -0.153
    1UNL    H20   55  -0.169  -0.392  -0.124
    1UNL    H21   56  -0.278  -0.394   0.016
    1UNL    H22   57  -0.007  -0.302   0.025
    1UNL    H23   58  -0.448  -0.218   0.021
    1UNL    H24   59  -0.542  -0.262  -0.183
    1UNL    H25   60  -0.395   0.002  -0.180
    1UNL    H26   61  -0.596  -0.030   0.018
    1UNL    H27   62  -0.396   0.160   0.012
    1UNL    H28   63  -0.388   0.054   0.215
   0.00000   0.00000   0.00000   0.00000   0.00000   0.00000   0.00000   0.00000   0.00000
Generated with MDTraj, t= 50.0
 63
    1UNL     C1    1  -0.202   0.334  -0.097
    1UNL     C2    2  -0.069   0.276  -0.046
    1UNL     C3    3   0.040   0.389  -0.038
    1UNL     C4    4   0.177   0.323   0.010
    1UNL     O1    5   0.271   0.425   0.034
    1UNL     O2    6   0.209   0.230  -0.098
    1UNL     C5    7   0.107   0.129  -0.089
    1UNL     O3    8  -0.008   0.181  -0.141
    1UNL     C6    9   0.067   0.112   0.070
    1UNL     C7   10   0.075  -0.011   0.149
    1UNL     O4   11   0.197  -0.076   0.154
    1UNL     C8   12   0.209  -0.144   0.038
    1UNL     O5   13   0.115  -0.149  -0.042
    1UNL     C9   14   0.340  -0.202   0.004
    1UNL    C10   15   0.350  -0.302  -0.090
    1UNL    C11   16   0.463  -0.360  -0.130
    1UNL    C12   17   0.586  -0.313  -0.071
    1UNL     O6   18   0.703  -0.382  -0.094
    1UNL    C13   19   0.580  -0.202   0.020
    1UNL    C14   20   0.455  -0.158   0.063
    1UNL    C15   21   0.151   0.228   0.137
    1UNL    C16   22   0.022   0.272   0.204
    1UNL    C17   23  -0.064   0.201   0.090
    1UNL     O7   24  -0.186   0.138   0.135
    1UNL    C18   25  -0.236   0.045   0.037
    1UNL     O8   26  -0.200  -0.094   0.060
    1UNL    C19   27  -0.253  -0.191  -0.033
    1UNL    C20   28  -0.219  -0.331   0.010
    1UNL     O9   29  -0.081  -0.361   0.008
    1UNL    C21   30  -0.407  -0.185  -0.073
    1UNL    O10   31  -0.425  -0.253  -0.197
    1UNL    C22   32  -0.441  -0.035  -0.085
    1UNL    O11   33  -0.584  -0.004  -0.106
    1UNL    C23   34  -0.393   0.051   0.033
    1UNL    O12   35  -0.447   0.008   0.159
    1UNL     H1   36  -0.187   0.392  -0.184
    1UNL     H2   37  -0.268   0.256  -0.130
    1UNL     H3   38  -0.248   0.392  -0.013
    1UNL     H4   39   0.013   0.479   0.013
    1UNL     H5   40   0.062   0.427  -0.142
    1UNL     H6   41   0.354   0.399  -0.018
    1UNL     H7   42   0.125   0.031  -0.132
    1UNL     H8   43   0.047   0.018   0.249
    1UNL     H9   44  -0.003  -0.083   0.119
    1UNL    H10   45   0.263  -0.317  -0.155
    1UNL    H11   46   0.477  -0.438  -0.200
    1UNL    H12   47   0.766  -0.339  -0.031
    1UNL    H13   48   0.662  -0.166   0.073
    1UNL    H14   49   0.449  -0.071   0.127
    1UNL    H15   50   0.229   0.192   0.209
    1UNL    H16   51   0.027   0.386   0.209
    1UNL    H17   52   0.008   0.221   0.295
    1UNL    H18   53  -0.201   0.068  -0.064
    1UNL    H19   54  -0.193  -0.184  -0.127
    1UNL    H20   55  -0.259  -0.410  -0.058
    1UNL    H21   56  -0.253  -0.359   0.110
    1UNL    H22   57  -0.035  -0.274  -0.001
    1UNL    H23   58  -0.476  -0.232  -0.000
    1UNL    H24   59  -0.514  -0.226  -0.236
    1UNL    H25   60  -0.407   0.000  -0.181
    1UNL    H26   61  -0.640  -0.045  -0.030
    1UNL    H27   62  -0.439   0.151   0.015
    1UNL    H28   63  -0.373   0.029   0.229
   0.00000   0.00000   0.00000   0.00000   0.00000   0.00000   0.00000   0.00000   0.00000
Generated with MDTraj, t= 51.0
 63
    1UNL     C1    1  -0.193   0.355  -0.101
    1UNL     C2    2  -0.064   0.291  -0.043
    1UNL     C3    3   0.049   0.391  -0.049
    1UNL     C4    4   0.178   0.319   0.007
    1UNL     O1    5   0.291   0.406   0.027
    1UNL     O2    6   0.195   0.199  -0.079
    1UNL     C5    7   0.084   0.114  -0.062
    1UNL     O3    8  -0.026   0.178  -0.129
    1UNL     C6    9   0.052   0.126   0.091
    1UNL     C7   10   0.065  -0.011   0.148
    1UNL     O4   11   0.197  -0.062   0.131
    1UNL     C8   12   0.208  -0.154   0.028
    1UNL     O5   13   0.112  -0.188  -0.043
    1UNL     C9   14   0.339  -0.222   0.011
    1UNL    C10   15   0.351  -0.333  -0.074
    1UNL    C11   16   0.475  -0.377  -0.102
    1UNL    C12   17   0.589  -0.307  -0.075
    1UNL     O6   18   0.711  -0.349  -0.126
    1UNL    C13   19   0.575  -0.206   0.021
    1UNL    C14   20   0.454  -0.159   0.064
    1UNL    C15   21   0.138   0.248   0.144
    1UNL    C16   22  -0.001   0.295   0.207
    1UNL    C17   23  -0.072   0.217   0.098
    1UNL     O7   24  -0.195   0.149   0.145
    1UNL    C18   25  -0.235   0.050   0.053
    1UNL     O8   26  -0.201  -0.090   0.073
    1UNL    C19   27  -0.240  -0.177  -0.036
    1UNL    C20   28  -0.211  -0.325   0.003
    1UNL     O9   29  -0.083  -0.371  -0.038
    1UNL    C21   30  -0.389  -0.169  -0.066
    1UNL    O10   31  -0.430  -0.262  -0.165
    1UNL    C22   32  -0.422  -0.028  -0.095
    1UNL    O11   33  -0.564  -0.031  -0.113
    1UNL    C23   34  -0.385   0.061   0.022
    1UNL    O12   35  -0.456   0.018   0.137
    1UNL     H1   36  -0.185   0.370  -0.207
    1UNL     H2   37  -0.267   0.271  -0.088
    1UNL     H3   38  -0.222   0.438  -0.039
    1UNL     H4   39   0.020   0.486  -0.000
    1UNL     H5   40   0.057   0.421  -0.156
    1UNL     H6   41   0.338   0.405  -0.064
    1UNL     H7   42   0.094   0.016  -0.104
    1UNL     H8   43   0.036  -0.014   0.254
    1UNL     H9   44  -0.012  -0.071   0.100
    1UNL    H10   45   0.257  -0.366  -0.114
    1UNL    H11   46   0.485  -0.461  -0.177
    1UNL    H12   47   0.787  -0.289  -0.115
    1UNL    H13   48   0.671  -0.160   0.053
    1UNL    H14   49   0.442  -0.079   0.133
    1UNL    H15   50   0.229   0.205   0.194
    1UNL    H16   51  -0.011   0.406   0.206
    1UNL    H17   52  -0.022   0.254   0.302
    1UNL    H18   53  -0.177   0.074  -0.039
    1UNL    H19   54  -0.180  -0.154  -0.125
    1UNL    H20   55  -0.286  -0.392  -0.049
    1UNL    H21   56  -0.222  -0.334   0.112
    1UNL    H22   57  -0.009  -0.305  -0.034
    1UNL    H23   58  -0.442  -0.199   0.027
    1UNL    H24   59  -0.509  -0.228  -0.205
    1UNL    H25   60  -0.369  -0.005  -0.183
    1UNL    H26   61  -0.603  -0.023  -0.028
    1UNL    H27   62  -0.406   0.169   0.010
    1UNL    H28   63  -0.402  -0.060   0.169
   0.00000   0.00000   0.00000   0.00000   0.00000   0.00000   0.00000   0.00000   0.00000
Generated with MDTraj, t= 52.0
 63
    1UNL     C1    1  -0.201   0.357  -0.052
    1UNL     C2    2  -0.062   0.289  -0.044
    1UNL     C3    3   0.062   0.385  -0.043
    1UNL     C4    4   0.185   0.302   0.005
    1UNL     O1    5   0.295   0.391   0.021
    1UNL     O2    6   0.202   0.207  -0.100
    1UNL     C5    7   0.087   0.118  -0.078
    1UNL     O3    8  -0.028   0.192  -0.142
    1UNL     C6    9   0.055   0.114   0.075
    1UNL     C7   10   0.061  -0.020   0.154
    1UNL     O4   11   0.187  -0.081   0.167
    1UNL     C8   12   0.206  -0.155   0.051
    1UNL     O5   13   0.109  -0.192  -0.016
    1UNL     C9   14   0.338  -0.207   0.010
    1UNL    C10   15   0.345  -0.319  -0.073
    1UNL    C11   16   0.470  -0.360  -0.109
    1UNL    C12   17   0.591  -0.299  -0.070
    1UNL     O6   18   0.710  -0.355  -0.108
    1UNL    C13   19   0.577  -0.178   0.002
    1UNL    C14   20   0.460  -0.132   0.047
    1UNL    C15   21   0.141   0.223   0.138
    1UNL    C16   22   0.005   0.271   0.208
    1UNL    C17   23  -0.064   0.202   0.093
    1UNL     O7   24  -0.187   0.145   0.121
    1UNL    C18   25  -0.232   0.045   0.032
    1UNL     O8   26  -0.198  -0.086   0.073
    1UNL    C19   27  -0.236  -0.182  -0.026
    1UNL    C20   28  -0.198  -0.323   0.025
    1UNL     O9   29  -0.100  -0.361  -0.067
    1UNL    C21   30  -0.388  -0.178  -0.060
    1UNL    O10   31  -0.441  -0.264  -0.158
    1UNL    C22   32  -0.425  -0.038  -0.100
    1UNL    O11   33  -0.567  -0.036  -0.114
    1UNL    C23   34  -0.384   0.065   0.009
    1UNL    O12   35  -0.466   0.039   0.128
    1UNL     H1   36  -0.191   0.438  -0.126
    1UNL     H2   37  -0.282   0.290  -0.088
    1UNL     H3   38  -0.220   0.391   0.045
    1UNL     H4   39   0.044   0.481   0.019
    1UNL     H5   40   0.078   0.422  -0.146
    1UNL     H6   41   0.326   0.420  -0.072
    1UNL     H7   42   0.117   0.024  -0.118
    1UNL     H8   43   0.022   0.006   0.258
    1UNL     H9   44  -0.013  -0.094   0.124
    1UNL    H10   45   0.256  -0.354  -0.124
    1UNL    H11   46   0.483  -0.444  -0.166
    1UNL    H12   47   0.779  -0.288  -0.108
    1UNL    H13   48   0.668  -0.131   0.028
    1UNL    H14   49   0.455  -0.032   0.092
    1UNL    H15   50   0.228   0.185   0.199
    1UNL    H16   51  -0.001   0.380   0.210
    1UNL    H17   52  -0.029   0.231   0.302
    1UNL    H18   53  -0.184   0.052  -0.068
    1UNL    H19   54  -0.186  -0.142  -0.114
    1UNL    H20   55  -0.286  -0.393   0.011
    1UNL    H21   56  -0.158  -0.316   0.126
    1UNL    H22   57  -0.020  -0.305  -0.048
    1UNL    H23   58  -0.444  -0.199   0.034
    1UNL    H24   59  -0.522  -0.222  -0.190
    1UNL    H25   60  -0.384  -0.014  -0.193
    1UNL    H26   61  -0.603  -0.008  -0.030
    1UNL    H27   62  -0.419   0.163  -0.024
    1UNL    H28   63  -0.437   0.075   0.209
   0.00000   0.00000   0.00000   0.00000   0.00000   0.00000   0.00000   0.00000   0.00000
Generated with MDTraj, t= 53.0
 63
    1UNL     C1    1  -0.184   0.372  -0.080
    1UNL     C2    2  -0.063   0.291  -0.051
    1UNL     C3    3   0.066   0.383  -0.035
    1UNL     C4    4   0.190   0.299   0.015
    1UNL     O1    5   0.317   0.362   0.023
    1UNL     O2    6   0.204   0.190  -0.082
    1UNL     C5    7   0.083   0.114  -0.078
    1UNL     O3    8  -0.024   0.192  -0.142
    1UNL     C6    9   0.048   0.111   0.076
    1UNL     C7   10   0.062  -0.026   0.155
    1UNL     O4   11   0.193  -0.088   0.142
    1UNL     C8   12   0.206  -0.147   0.021
    1UNL     O5   13   0.110  -0.163  -0.053
    1UNL     C9   14   0.336  -0.201  -0.009
    1UNL    C10   15   0.361  -0.318  -0.079
    1UNL    C11   16   0.487  -0.368  -0.100
    1UNL    C12   17   0.597  -0.292  -0.061
    1UNL     O6   18   0.731  -0.328  -0.095
    1UNL    C13   19   0.570  -0.176   0.018
    1UNL    C14   20   0.445  -0.135   0.044
    1UNL    C15   21   0.140   0.224   0.143
    1UNL    C16   22   0.003   0.270   0.206
    1UNL    C17   23  -0.078   0.210   0.088
    1UNL     O7   24  -0.195   0.146   0.120
    1UNL    C18   25  -0.234   0.034   0.037
    1UNL     O8   26  -0.200  -0.101   0.070
    1UNL    C19   27  -0.253  -0.189  -0.032
    1UNL    C20   28  -0.217  -0.334   0.005
    1UNL     O9   29  -0.085  -0.358  -0.034
    1UNL    C21   30  -0.404  -0.178  -0.052
    1UNL    O10   31  -0.453  -0.272  -0.144
    1UNL    C22   32  -0.438  -0.033  -0.091
    1UNL    O11   33  -0.575  -0.019  -0.106
    1UNL    C23   34  -0.388   0.056   0.019
    1UNL    O12   35  -0.463   0.050   0.136
    1UNL     H1   36  -0.177   0.415  -0.186
    1UNL     H2   37  -0.275   0.320  -0.080
    1UNL     H3   38  -0.189   0.449  -0.006
    1UNL     H4   39   0.022   0.466   0.032
    1UNL     H5   40   0.085   0.433  -0.133
    1UNL     H6   41   0.361   0.375  -0.067
    1UNL     H7   42   0.102   0.026  -0.133
    1UNL     H8   43   0.035  -0.019   0.267
    1UNL     H9   44  -0.010  -0.097   0.114
    1UNL    H10   45   0.274  -0.364  -0.125
    1UNL    H11   46   0.513  -0.455  -0.168
    1UNL    H12   47   0.785  -0.247  -0.090
    1UNL    H13   48   0.659  -0.119   0.046
    1UNL    H14   49   0.426  -0.037   0.089
    1UNL    H15   50   0.228   0.199   0.208
    1UNL    H16   51  -0.019   0.374   0.210
    1UNL    H17   52  -0.028   0.210   0.295
    1UNL    H18   53  -0.190   0.049  -0.065
    1UNL    H19   54  -0.207  -0.155  -0.124
    1UNL    H20   55  -0.281  -0.400  -0.060
    1UNL    H21   56  -0.211  -0.346   0.112
    1UNL    H22   57  -0.032  -0.275  -0.031
    1UNL    H23   58  -0.445  -0.214   0.046
    1UNL    H24   59  -0.534  -0.230  -0.188
    1UNL    H25   60  -0.384  -0.009  -0.177
    1UNL    H26   61  -0.611   0.022  -0.017
    1UNL    H27   62  -0.387   0.161  -0.008
    1UNL    H28   63  -0.402   0.079   0.211
   0.00000   0.00000   0.00000   0.00000   0.00000   0.00000   0.00000   0.00000   0.00000
Generated with MDTraj, t= 54.0
 63
    1UNL     C1    1  -0.176   0.351  -0.083
    1UNL     C2    2  -0.051   0.288  -0.046
    1UNL     C3    3   0.069   0.382  -0.028
    1UNL     C4    4   0.188   0.296   0.010
    1UNL     O1    5   0.297   0.379   0.033
    1UNL     O2    6   0.213   0.199  -0.091
    1UNL     C5    7   0.095   0.113  -0.084
    1UNL     O3    8  -0.019   0.184  -0.141
    1UNL     C6    9   0.054   0.097   0.065
    1UNL     C7   10   0.046  -0.043   0.125
    1UNL     O4   11   0.172  -0.109   0.128
    1UNL     C8   12   0.203  -0.163   0.012
    1UNL     O5   13   0.123  -0.196  -0.075
    1UNL     C9   14   0.343  -0.194  -0.011
    1UNL    C10   15   0.373  -0.300  -0.100
    1UNL    C11   16   0.499  -0.348  -0.119
    1UNL    C12   17   0.607  -0.273  -0.055
    1UNL     O6   18   0.733  -0.326  -0.072
    1UNL    C13   19   0.583  -0.167   0.035
    1UNL    C14   20   0.449  -0.133   0.053
    1UNL    C15   21   0.145   0.206   0.137
    1UNL    C16   22   0.018   0.252   0.209
    1UNL    C17   23  -0.064   0.196   0.087
    1UNL     O7   24  -0.191   0.156   0.120
    1UNL    C18   25  -0.240   0.060   0.022
    1UNL     O8   26  -0.198  -0.073   0.047
    1UNL    C19   27  -0.257  -0.171  -0.042
    1UNL    C20   28  -0.231  -0.314   0.015
    1UNL     O9   29  -0.097  -0.353   0.011
    1UNL    C21   30  -0.409  -0.173  -0.049
    1UNL    O10   31  -0.461  -0.276  -0.134
    1UNL    C22   32  -0.454  -0.029  -0.088
    1UNL    O11   33  -0.597  -0.023  -0.088
    1UNL    C23   34  -0.397   0.068   0.019
    1UNL    O12   35  -0.453   0.039   0.146
    1UNL     H1   36  -0.160   0.399  -0.182
    1UNL     H2   37  -0.244   0.277  -0.115
    1UNL     H3   38  -0.230   0.418  -0.015
    1UNL     H4   39   0.035   0.463   0.042
    1UNL     H5   40   0.093   0.429  -0.132
    1UNL     H6   41   0.362   0.328   0.082
    1UNL     H7   42   0.105   0.021  -0.134
    1UNL     H8   43   0.011  -0.050   0.236
    1UNL     H9   44  -0.018  -0.102   0.064
    1UNL    H10   45   0.285  -0.334  -0.152
    1UNL    H11   46   0.511  -0.427  -0.187
    1UNL    H12   47   0.801  -0.277  -0.020
    1UNL    H13   48   0.657  -0.107   0.080
    1UNL    H14   49   0.424  -0.049   0.111
    1UNL    H15   50   0.230   0.168   0.202
    1UNL    H16   51   0.020   0.356   0.227
    1UNL    H17   52  -0.009   0.189   0.298
    1UNL    H18   53  -0.197   0.079  -0.079
    1UNL    H19   54  -0.212  -0.159  -0.142
    1UNL    H20   55  -0.277  -0.381  -0.059
    1UNL    H21   56  -0.268  -0.307   0.116
    1UNL    H22   57  -0.025  -0.290  -0.015
    1UNL    H23   58  -0.457  -0.197   0.048
    1UNL    H24   59  -0.547  -0.244  -0.166
    1UNL    H25   60  -0.435   0.002  -0.186
    1UNL    H26   61  -0.645   0.007  -0.005
    1UNL    H27   62  -0.424   0.171   0.002
    1UNL    H28   63  -0.408  -0.046   0.177
   0.00000   0.00000   0.00000   0.00000   0.00000   0.00000   0.00000   0.00000   0.00000
Generated with MDTraj, t= 55.0
 63
    1UNL     C1    1  -0.169   0.379  -0.088
    1UNL     C2    2  -0.045   0.293  -0.056
    1UNL     C3    3   0.086   0.380  -0.042
    1UNL     C4    4   0.190   0.292   0.013
    1UNL     O1    5   0.306   0.365   0.060
    1UNL     O2    6   0.214   0.188  -0.090
    1UNL     C5    7   0.085   0.117  -0.092
    1UNL     O3    8  -0.019   0.193  -0.153
    1UNL     C6    9   0.053   0.103   0.065
    1UNL     C7   10   0.057  -0.037   0.117
    1UNL     O4   11   0.191  -0.085   0.104
    1UNL     C8   12   0.210  -0.163  -0.001
    1UNL     O5   13   0.124  -0.198  -0.081
    1UNL     C9   14   0.347  -0.211  -0.017
    1UNL    C10   15   0.386  -0.289  -0.123
    1UNL    C11   16   0.520  -0.318  -0.141
    1UNL    C12   17   0.620  -0.268  -0.048
    1UNL     O6   18   0.749  -0.307  -0.061
    1UNL    C13   19   0.578  -0.191   0.058
    1UNL    C14   20   0.441  -0.164   0.073
    1UNL    C15   21   0.144   0.205   0.131
    1UNL    C16   22   0.021   0.261   0.201
    1UNL    C17   23  -0.063   0.203   0.080
    1UNL     O7   24  -0.197   0.151   0.119
    1UNL    C18   25  -0.252   0.045   0.028
    1UNL     O8   26  -0.220  -0.096   0.065
    1UNL    C19   27  -0.271  -0.194  -0.030
    1UNL    C20   28  -0.235  -0.339   0.008
    1UNL     O9   29  -0.097  -0.347   0.056
    1UNL    C21   30  -0.428  -0.186  -0.048
    1UNL    O10   31  -0.481  -0.252  -0.167
    1UNL    C22   32  -0.466  -0.039  -0.077
    1UNL    O11   33  -0.602  -0.021  -0.070
    1UNL    C23   34  -0.404   0.063   0.020
    1UNL    O12   35  -0.465   0.056   0.150
    1UNL     H1   36  -0.153   0.426  -0.181
    1UNL     H2   37  -0.265   0.325  -0.102
    1UNL     H3   38  -0.189   0.457  -0.012
    1UNL     H4   39   0.071   0.458   0.035
    1UNL     H5   40   0.122   0.428  -0.143
    1UNL     H6   41   0.371   0.365  -0.008
    1UNL     H7   42   0.093   0.028  -0.148
    1UNL     H8   43   0.033  -0.040   0.231
    1UNL     H9   44  -0.004  -0.104   0.061
    1UNL    H10   45   0.318  -0.307  -0.207
    1UNL    H11   46   0.555  -0.390  -0.214
    1UNL    H12   47   0.801  -0.282   0.020
    1UNL    H13   48   0.652  -0.158   0.133
    1UNL    H14   49   0.412  -0.084   0.141
    1UNL    H15   50   0.224   0.139   0.178
    1UNL    H16   51   0.023   0.366   0.214
    1UNL    H17   52  -0.014   0.210   0.295
    1UNL    H18   53  -0.201   0.061  -0.069
    1UNL    H19   54  -0.219  -0.183  -0.126
    1UNL    H20   55  -0.244  -0.399  -0.083
    1UNL    H21   56  -0.288  -0.373   0.097
    1UNL    H22   57  -0.035  -0.301  -0.008
    1UNL    H23   58  -0.478  -0.237   0.035
    1UNL    H24   59  -0.566  -0.215  -0.187
    1UNL    H25   60  -0.430  -0.014  -0.173
    1UNL    H26   61  -0.621  -0.013   0.023
    1UNL    H27   62  -0.429   0.161  -0.019
    1UNL    H28   63  -0.407   0.020   0.217
   0.00000   0.00000   0.00000   0.00000   0.00000   0.00000   0.00000   0.00000   0.00000
Generated with MDTraj, t= 56.0
 63
    1UNL     C1    1  -0.196   0.360  -0.073
    1UNL     C2    2  -0.063   0.285  -0.048
    1UNL     C3    3   0.064   0.376  -0.040
    1UNL     C4    4   0.189   0.287   0.006
    1UNL     O1    5   0.305   0.366   0.039
    1UNL     O2    6   0.207   0.190  -0.109
    1UNL     C5    7   0.085   0.117  -0.095
    1UNL     O3    8  -0.031   0.184  -0.146
    1UNL     C6    9   0.051   0.089   0.063
    1UNL     C7   10   0.047  -0.048   0.127
    1UNL     O4   11   0.178  -0.114   0.128
    1UNL     C8   12   0.206  -0.173   0.006
    1UNL     O5   13   0.123  -0.191  -0.083
    1UNL     C9   14   0.344  -0.229  -0.006
    1UNL    C10   15   0.392  -0.264  -0.138
    1UNL    C11   16   0.531  -0.280  -0.154
    1UNL    C12   17   0.615  -0.261  -0.057
    1UNL     O6   18   0.751  -0.306  -0.066
    1UNL    C13   19   0.568  -0.221   0.069
    1UNL    C14   20   0.435  -0.194   0.097
    1UNL    C15   21   0.153   0.189   0.128
    1UNL    C16   22   0.039   0.246   0.204
    1UNL    C17   23  -0.062   0.202   0.088
    1UNL     O7   24  -0.203   0.169   0.114
    1UNL    C18   25  -0.247   0.062   0.021
    1UNL     O8   26  -0.214  -0.071   0.056
    1UNL    C19   27  -0.264  -0.179  -0.031
    1UNL    C20   28  -0.220  -0.320   0.013
    1UNL     O9   29  -0.081  -0.333   0.065
    1UNL    C21   30  -0.423  -0.170  -0.043
    1UNL    O10   31  -0.463  -0.264  -0.146
    1UNL    C22   32  -0.455  -0.026  -0.090
    1UNL    O11   33  -0.595  -0.015  -0.085
    1UNL    C23   34  -0.399   0.073   0.014
    1UNL    O12   35  -0.457   0.041   0.135
    1UNL     H1   36  -0.198   0.400  -0.168
    1UNL     H2   37  -0.274   0.277  -0.072
    1UNL     H3   38  -0.219   0.429   0.011
    1UNL     H4   39   0.049   0.467   0.025
    1UNL     H5   40   0.097   0.414  -0.142
    1UNL     H6   41   0.378   0.323  -0.001
    1UNL     H7   42   0.096   0.023  -0.143
    1UNL     H8   43   0.026  -0.043   0.240
    1UNL     H9   44  -0.027  -0.109   0.077
    1UNL    H10   45   0.330  -0.280  -0.225
    1UNL    H11   46   0.572  -0.314  -0.250
    1UNL    H12   47   0.797  -0.294   0.022
    1UNL    H13   48   0.636  -0.202   0.148
    1UNL    H14   49   0.402  -0.148   0.189
    1UNL    H15   50   0.237   0.150   0.194
    1UNL    H16   51   0.041   0.354   0.222
    1UNL    H17   52   0.027   0.202   0.305
    1UNL    H18   53  -0.207   0.089  -0.077
    1UNL    H19   54  -0.227  -0.158  -0.133
    1UNL    H20   55  -0.221  -0.392  -0.069
    1UNL    H21   56  -0.284  -0.342   0.098
    1UNL    H22   57  -0.022  -0.289   0.001
    1UNL    H23   58  -0.480  -0.185   0.048
    1UNL    H24   59  -0.558  -0.248  -0.164
    1UNL    H25   60  -0.419   0.002  -0.188
    1UNL    H26   61  -0.623  -0.027   0.016
    1UNL    H27   62  -0.429   0.172  -0.022
    1UNL    H28   63  -0.444   0.114   0.195
   0.00000   0.00000   0.00000   0.00000   0.00000   0.00000   0.00000   0.00000   0.00000
Generated with MDTraj, t= 57.0
 63
    1UNL     C1    1  -0.191   0.358  -0.081
    1UNL     C2    2  -0.057   0.290  -0.043
    1UNL     C3    3   0.078   0.378  -0.051
    1UNL     C4    4   0.192   0.279  -0.007
    1UNL     O1    5   0.319   0.340   0.002
    1UNL     O2    6   0.189   0.167  -0.104
    1UNL     C5    7   0.068   0.102  -0.086
    1UNL     O3    8  -0.043   0.182  -0.136
    1UNL     C6    9   0.049   0.098   0.076
    1UNL     C7   10   0.040  -0.035   0.139
    1UNL     O4   11   0.171  -0.097   0.136
    1UNL     C8   12   0.205  -0.147   0.012
    1UNL     O5   13   0.122  -0.162  -0.075
    1UNL     C9   14   0.345  -0.200  -0.011
    1UNL    C10   15   0.382  -0.226  -0.138
    1UNL    C11   16   0.518  -0.255  -0.161
    1UNL    C12   17   0.607  -0.273  -0.052
    1UNL     O6   18   0.734  -0.300  -0.077
    1UNL    C13   19   0.558  -0.258   0.075
    1UNL    C14   20   0.427  -0.220   0.102
    1UNL    C15   21   0.155   0.206   0.128
    1UNL    C16   22   0.034   0.266   0.211
    1UNL    C17   23  -0.063   0.217   0.100
    1UNL     O7   24  -0.196   0.163   0.131
    1UNL    C18   25  -0.240   0.052   0.041
    1UNL     O8   26  -0.220  -0.082   0.085
    1UNL    C19   27  -0.254  -0.186  -0.020
    1UNL    C20   28  -0.212  -0.333   0.003
    1UNL     O9   29  -0.081  -0.355   0.042
    1UNL    C21   30  -0.408  -0.179  -0.045
    1UNL    O10   31  -0.452  -0.271  -0.148
    1UNL    C22   32  -0.439  -0.031  -0.091
    1UNL    O11   33  -0.576  -0.004  -0.113
    1UNL    C23   34  -0.390   0.069   0.014
    1UNL    O12   35  -0.464   0.047   0.129
    1UNL     H1   36  -0.180   0.431  -0.164
    1UNL     H2   37  -0.249   0.273  -0.118
    1UNL     H3   38  -0.237   0.395   0.012
    1UNL     H4   39   0.075   0.465   0.025
    1UNL     H5   40   0.105   0.421  -0.150
    1UNL     H6   41   0.352   0.355  -0.086
    1UNL     H7   42   0.073   0.008  -0.135
    1UNL     H8   43   0.003  -0.018   0.242
    1UNL     H9   44  -0.031  -0.108   0.090
    1UNL    H10   45   0.322  -0.215  -0.229
    1UNL    H11   46   0.554  -0.286  -0.256
    1UNL    H12   47   0.794  -0.294   0.003
    1UNL    H13   48   0.626  -0.286   0.155
    1UNL    H14   49   0.405  -0.189   0.204
    1UNL    H15   50   0.241   0.173   0.193
    1UNL    H16   51   0.025   0.375   0.234
    1UNL    H17   52   0.005   0.218   0.303
    1UNL    H18   53  -0.183   0.067  -0.050
    1UNL    H19   54  -0.197  -0.153  -0.108
    1UNL    H20   55  -0.222  -0.372  -0.101
    1UNL    H21   56  -0.276  -0.385   0.078
    1UNL    H22   57  -0.014  -0.297  -0.004
    1UNL    H23   58  -0.452  -0.214   0.048
    1UNL    H24   59  -0.546  -0.244  -0.178
    1UNL    H25   60  -0.385  -0.023  -0.186
    1UNL    H26   61  -0.635   0.002  -0.030
    1UNL    H27   62  -0.420   0.172  -0.020
    1UNL    H28   63  -0.407  -0.007   0.191
   0.00000   0.00000   0.00000   0.00000   0.00000   0.00000   0.00000   0.00000   0.00000
Generated with MDTraj, t= 58.0
 63
    1UNL     C1    1  -0.188   0.362  -0.063
    1UNL     C2    2  -0.059   0.283  -0.039
    1UNL     C3    3   0.073   0.373  -0.057
    1UNL     C4    4   0.186   0.280  -0.014
    1UNL     O1    5   0.301   0.365  -0.009
    1UNL     O2    6   0.193   0.171  -0.114
    1UNL     C5    7   0.065   0.099  -0.090
    1UNL     O3    8  -0.051   0.178  -0.139
    1UNL     C6    9   0.053   0.094   0.068
    1UNL     C7   10   0.054  -0.033   0.142
    1UNL     O4   11   0.181  -0.084   0.146
    1UNL     C8   12   0.199  -0.153   0.028
    1UNL     O5   13   0.111  -0.187  -0.046
    1UNL     C9   14   0.335  -0.192  -0.002
    1UNL    C10   15   0.380  -0.187  -0.132
    1UNL    C11   16   0.507  -0.231  -0.160
    1UNL    C12   17   0.593  -0.273  -0.056
    1UNL     O6   18   0.724  -0.323  -0.088
    1UNL    C13   19   0.549  -0.274   0.075
    1UNL    C14   20   0.421  -0.222   0.097
    1UNL    C15   21   0.148   0.211   0.114
    1UNL    C16   22   0.034   0.266   0.207
    1UNL    C17   23  -0.060   0.199   0.101
    1UNL     O7   24  -0.190   0.146   0.134
    1UNL    C18   25  -0.235   0.048   0.038
    1UNL     O8   26  -0.201  -0.086   0.077
    1UNL    C19   27  -0.247  -0.190  -0.023
    1UNL    C20   28  -0.216  -0.331   0.035
    1UNL     O9   29  -0.083  -0.369   0.047
    1UNL    C21   30  -0.395  -0.172  -0.065
    1UNL    O10   31  -0.432  -0.252  -0.178
    1UNL    C22   32  -0.429  -0.028  -0.091
    1UNL    O11   33  -0.566  -0.011  -0.129
    1UNL    C23   34  -0.389   0.071   0.026
    1UNL    O12   35  -0.470   0.049   0.139
    1UNL     H1   36  -0.212   0.388  -0.175
    1UNL     H2   37  -0.271   0.320  -0.018
    1UNL     H3   38  -0.172   0.456  -0.011
    1UNL     H4   39   0.084   0.465   0.010
    1UNL     H5   40   0.095   0.403  -0.160
    1UNL     H6   41   0.379   0.306  -0.029
    1UNL     H7   42   0.069   0.002  -0.130
    1UNL     H8   43   0.022  -0.015   0.243
    1UNL     H9   44  -0.025  -0.102   0.097
    1UNL    H10   45   0.309  -0.155  -0.204
    1UNL    H11   46   0.532  -0.217  -0.266
    1UNL    H12   47   0.762  -0.364  -0.007
    1UNL    H13   48   0.610  -0.282   0.166
    1UNL    H14   49   0.382  -0.204   0.197
    1UNL    H15   50   0.235   0.174   0.174
    1UNL    H16   51   0.036   0.380   0.219
    1UNL    H17   52   0.033   0.222   0.305
    1UNL    H18   53  -0.174   0.065  -0.051
    1UNL    H19   54  -0.188  -0.178  -0.115
    1UNL    H20   55  -0.269  -0.413  -0.021
    1UNL    H21   56  -0.256  -0.318   0.140
    1UNL    H22   57  -0.015  -0.300   0.024
    1UNL    H23   58  -0.459  -0.205   0.018
    1UNL    H24   59  -0.514  -0.208  -0.212
    1UNL    H25   60  -0.365   0.013  -0.173
    1UNL    H26   61  -0.628  -0.022  -0.062
    1UNL    H27   62  -0.411   0.178   0.001
    1UNL    H28   63  -0.411   0.039   0.221
   0.00000   0.00000   0.00000   0.00000   0.00000   0.00000   0.00000   0.00000   0.00000
Generated with MDTraj, t= 59.0
 63
    1UNL     C1    1  -0.197   0.378  -0.084
    1UNL     C2    2  -0.071   0.286  -0.051
    1UNL     C3    3   0.061   0.375  -0.061
    1UNL     C4    4   0.182   0.290  -0.009
    1UNL     O1    5   0.301   0.373  -0.008
    1UNL     O2    6   0.197   0.183  -0.100
    1UNL     C5    7   0.074   0.106  -0.089
    1UNL     O3    8  -0.040   0.170  -0.145
    1UNL     C6    9   0.047   0.104   0.072
    1UNL     C7   10   0.058  -0.031   0.155
    1UNL     O4   11   0.185  -0.089   0.148
    1UNL     C8   12   0.202  -0.162   0.033
    1UNL     O5   13   0.110  -0.178  -0.042
    1UNL     C9   14   0.343  -0.208   0.007
    1UNL    C10   15   0.380  -0.208  -0.124
    1UNL    C11   16   0.506  -0.235  -0.170
    1UNL    C12   17   0.598  -0.279  -0.071
    1UNL     O6   18   0.727  -0.320  -0.105
    1UNL    C13   19   0.556  -0.290   0.069
    1UNL    C14   20   0.424  -0.255   0.099
    1UNL    C15   21   0.146   0.221   0.125
    1UNL    C16   22   0.020   0.283   0.193
    1UNL    C17   23  -0.074   0.214   0.090
    1UNL     O7   24  -0.194   0.147   0.139
    1UNL    C18   25  -0.232   0.037   0.054
    1UNL     O8   26  -0.214  -0.096   0.094
    1UNL    C19   27  -0.247  -0.181  -0.017
    1UNL    C20   28  -0.227  -0.319   0.031
    1UNL     O9   29  -0.095  -0.348   0.068
    1UNL    C21   30  -0.388  -0.159  -0.073
    1UNL    O10   31  -0.407  -0.253  -0.178
    1UNL    C22   32  -0.421  -0.017  -0.104
    1UNL    O11   33  -0.564  -0.008  -0.121
    1UNL    C23   34  -0.383   0.063   0.029
    1UNL    O12   35  -0.466   0.008   0.128
    1UNL     H1   36  -0.178   0.478  -0.134
    1UNL     H2   37  -0.262   0.324  -0.155
    1UNL     H3   38  -0.264   0.406  -0.003
    1UNL     H4   39   0.047   0.462   0.001
    1UNL     H5   40   0.078   0.407  -0.167
    1UNL     H6   41   0.369   0.322  -0.064
    1UNL     H7   42   0.084   0.008  -0.129
    1UNL     H8   43   0.040  -0.013   0.257
    1UNL     H9   44  -0.025  -0.100   0.122
    1UNL    H10   45   0.306  -0.171  -0.197
    1UNL    H11   46   0.534  -0.242  -0.270
    1UNL    H12   47   0.762  -0.364  -0.026
    1UNL    H13   48   0.622  -0.319   0.145
    1UNL    H14   49   0.396  -0.246   0.204
    1UNL    H15   50   0.228   0.179   0.189
    1UNL    H16   51   0.019   0.397   0.205
    1UNL    H17   52   0.015   0.239   0.292
    1UNL    H18   53  -0.185   0.047  -0.044
    1UNL    H19   54  -0.181  -0.172  -0.106
    1UNL    H20   55  -0.248  -0.392  -0.048
    1UNL    H21   56  -0.290  -0.344   0.120
    1UNL    H22   57  -0.040  -0.286   0.017
    1UNL    H23   58  -0.461  -0.199   0.001
    1UNL    H24   59  -0.478  -0.216  -0.228
    1UNL    H25   60  -0.361   0.016  -0.195
    1UNL    H26   61  -0.600  -0.005  -0.028
    1UNL    H27   62  -0.408   0.172   0.015
    1UNL    H28   63  -0.417  -0.005   0.215
   0.00000   0.00000   0.00000   0.00000   0.00000   0.00000   0.00000   0.00000   0.00000
Generated with MDTraj, t= 60.0
 63
    1UNL     C1    1  -0.199   0.337  -0.092
    1UNL     C2    2  -0.071   0.270  -0.052
    1UNL     C3    3   0.049   0.380  -0.054
    1UNL     C4    4   0.178   0.303  -0.001
    1UNL     O1    5   0.290   0.382   0.007
    1UNL     O2    6   0.196   0.193  -0.100
    1UNL     C5    7   0.088   0.105  -0.080
    1UNL     O3    8  -0.024   0.164  -0.141
    1UNL     C6    9   0.065   0.109   0.080
    1UNL     C7   10   0.069  -0.023   0.160
    1UNL     O4   11   0.191  -0.085   0.147
    1UNL     C8   12   0.200  -0.158   0.026
    1UNL     O5   13   0.107  -0.179  -0.043
    1UNL     C9   14   0.331  -0.214  -0.013
    1UNL    C10   15   0.371  -0.222  -0.147
    1UNL    C11   16   0.499  -0.260  -0.175
    1UNL    C12   17   0.590  -0.288  -0.070
    1UNL     O6   18   0.717  -0.328  -0.099
    1UNL    C13   19   0.543  -0.286   0.060
    1UNL    C14   20   0.419  -0.249   0.096
    1UNL    C15   21   0.142   0.235   0.138
    1UNL    C16   22   0.009   0.275   0.202
    1UNL    C17   23  -0.067   0.196   0.093
    1UNL     O7   24  -0.183   0.139   0.148
    1UNL    C18   25  -0.237   0.054   0.052
    1UNL     O8   26  -0.210  -0.083   0.090
    1UNL    C19   27  -0.237  -0.174  -0.025
    1UNL    C20   28  -0.216  -0.318   0.022
    1UNL     O9   29  -0.096  -0.316   0.082
    1UNL    C21   30  -0.378  -0.160  -0.077
    1UNL    O10   31  -0.405  -0.251  -0.177
    1UNL    C22   32  -0.425  -0.025  -0.102
    1UNL    O11   33  -0.564  -0.029  -0.139
    1UNL    C23   34  -0.390   0.066   0.021
    1UNL    O12   35  -0.458   0.025   0.138
    1UNL     H1   36  -0.214   0.345  -0.199
    1UNL     H2   37  -0.286   0.276  -0.048
    1UNL     H3   38  -0.206   0.440  -0.054
    1UNL     H4   39   0.025   0.468  -0.002
    1UNL     H5   40   0.059   0.413  -0.159
    1UNL     H6   41   0.343   0.373  -0.080
    1UNL     H7   42   0.099   0.009  -0.124
    1UNL     H8   43   0.049   0.007   0.259
    1UNL     H9   44  -0.012  -0.095   0.132
    1UNL    H10   45   0.299  -0.198  -0.221
    1UNL    H11   46   0.531  -0.260  -0.282
    1UNL    H12   47   0.773  -0.342  -0.022
    1UNL    H13   48   0.623  -0.299   0.138
    1UNL    H14   49   0.384  -0.224   0.191
    1UNL    H15   50   0.222   0.222   0.214
    1UNL    H16   51  -0.013   0.384   0.204
    1UNL    H17   52   0.001   0.229   0.305
    1UNL    H18   53  -0.189   0.064  -0.044
    1UNL    H19   54  -0.166  -0.148  -0.105
    1UNL    H20   55  -0.209  -0.387  -0.061
    1UNL    H21   56  -0.296  -0.354   0.091
    1UNL    H22   57  -0.018  -0.269   0.040
    1UNL    H23   58  -0.443  -0.193   0.010
    1UNL    H24   59  -0.474  -0.202  -0.230
    1UNL    H25   60  -0.372   0.016  -0.196
    1UNL    H26   61  -0.626  -0.036  -0.055
    1UNL    H27   62  -0.412   0.176   0.008
    1UNL    H28   63  -0.394   0.024   0.210
   0.00000   0.00000   0.00000   0.00000   0.00000   0.00000   0.00000   0.00000   0.00000
Generated with MDTraj, t= 61.0
 63
    1UNL     C1    1  -0.195   0.355  -0.085
    1UNL     C2    2  -0.061   0.294  -0.054
    1UNL     C3    3   0.063   0.393  -0.046
    1UNL     C4    4   0.184   0.310   0.005
    1UNL     O1    5   0.304   0.388   0.029
    1UNL     O2    6   0.201   0.206  -0.088
    1UNL     C5    7   0.090   0.119  -0.079
    1UNL     O3    8  -0.020   0.187  -0.147
    1UNL     C6    9   0.057   0.118   0.072
    1UNL     C7   10   0.054  -0.018   0.144
    1UNL     O4   11   0.178  -0.083   0.147
    1UNL     C8   12   0.200  -0.151   0.027
    1UNL     O5   13   0.113  -0.184  -0.048
    1UNL     C9   14   0.338  -0.198  -0.009
    1UNL    C10   15   0.358  -0.238  -0.145
    1UNL    C11   16   0.481  -0.292  -0.163
    1UNL    C12   17   0.585  -0.304  -0.076
    1UNL     O6   18   0.710  -0.353  -0.104
    1UNL    C13   19   0.549  -0.267   0.056
    1UNL    C14   20   0.435  -0.213   0.089
    1UNL    C15   21   0.132   0.234   0.135
    1UNL    C16   22  -0.006   0.283   0.202
    1UNL    C17   23  -0.068   0.205   0.087
    1UNL     O7   24  -0.190   0.138   0.129
    1UNL    C18   25  -0.234   0.045   0.034
    1UNL     O8   26  -0.207  -0.093   0.079
    1UNL    C19   27  -0.244  -0.190  -0.024
    1UNL    C20   28  -0.207  -0.320   0.038
    1UNL     O9   29  -0.075  -0.350   0.077
    1UNL    C21   30  -0.394  -0.177  -0.065
    1UNL    O10   31  -0.411  -0.256  -0.179
    1UNL    C22   32  -0.428  -0.036  -0.099
    1UNL    O11   33  -0.564  -0.035  -0.131
    1UNL    C23   34  -0.385   0.059   0.018
    1UNL    O12   35  -0.455   0.027   0.142
    1UNL     H1   36  -0.185   0.439  -0.153
    1UNL     H2   37  -0.258   0.277  -0.120
    1UNL     H3   38  -0.230   0.398   0.017
    1UNL     H4   39   0.047   0.480   0.014
    1UNL     H5   40   0.081   0.438  -0.142
    1UNL     H6   41   0.367   0.384  -0.050
    1UNL     H7   42   0.121   0.026  -0.119
    1UNL     H8   43   0.027  -0.003   0.243
    1UNL     H9   44  -0.022  -0.079   0.093
    1UNL    H10   45   0.279  -0.229  -0.221
    1UNL    H11   46   0.503  -0.336  -0.254
    1UNL    H12   47   0.773  -0.336  -0.032
    1UNL    H13   48   0.627  -0.282   0.125
    1UNL    H14   49   0.421  -0.177   0.193
    1UNL    H15   50   0.218   0.194   0.191
    1UNL    H16   51  -0.025   0.390   0.193
    1UNL    H17   52  -0.045   0.237   0.301
    1UNL    H18   53  -0.193   0.051  -0.066
    1UNL    H19   54  -0.183  -0.160  -0.109
    1UNL    H20   55  -0.244  -0.403  -0.020
    1UNL    H21   56  -0.260  -0.323   0.136
    1UNL    H22   57  -0.018  -0.284   0.034
    1UNL    H23   58  -0.451  -0.217   0.024
    1UNL    H24   59  -0.488  -0.215  -0.230
    1UNL    H25   60  -0.382  -0.015  -0.204
    1UNL    H26   61  -0.611  -0.045  -0.046
    1UNL    H27   62  -0.415   0.165   0.001
    1UNL    H28   63  -0.398   0.022   0.217
   0.00000   0.00000   0.00000   0.00000   0.00000   0.00000   0.00000   0.00000   0.00000
Generated with MDTraj, t= 62.0
 63
    1UNL     C1    1  -0.190   0.385  -0.077
    1UNL     C2    2  -0.065   0.300  -0.040
    1UNL     C3    3   0.060   0.392  -0.035
    1UNL     C4    4   0.183   0.315   0.019
    1UNL     O1    5   0.301   0.408   0.048
    1UNL     O2    6   0.212   0.219  -0.082
    1UNL     C5    7   0.092   0.131  -0.080
    1UNL     O3    8  -0.024   0.201  -0.139
    1UNL     C6    9   0.052   0.119   0.070
    1UNL     C7   10   0.060  -0.019   0.139
    1UNL     O4   11   0.187  -0.080   0.135
    1UNL     C8   12   0.203  -0.146   0.014
    1UNL     O5   13   0.111  -0.166  -0.058
    1UNL     C9   14   0.336  -0.197  -0.014
    1UNL    C10   15   0.354  -0.276  -0.130
    1UNL    C11   16   0.467  -0.338  -0.160
    1UNL    C12   17   0.580  -0.317  -0.074
    1UNL     O6   18   0.708  -0.369  -0.097
    1UNL    C13   19   0.562  -0.242   0.042
    1UNL    C14   20   0.443  -0.184   0.077
    1UNL    C15   21   0.138   0.225   0.143
    1UNL    C16   22   0.007   0.282   0.207
    1UNL    C17   23  -0.071   0.215   0.090
    1UNL     O7   24  -0.198   0.147   0.120
    1UNL    C18   25  -0.238   0.045   0.024
    1UNL     O8   26  -0.206  -0.089   0.075
    1UNL    C19   27  -0.237  -0.194  -0.022
    1UNL    C20   28  -0.203  -0.339   0.035
    1UNL     O9   29  -0.067  -0.362   0.059
    1UNL    C21   30  -0.386  -0.180  -0.059
    1UNL    O10   31  -0.426  -0.291  -0.141
    1UNL    C22   32  -0.430  -0.046  -0.111
    1UNL    O11   33  -0.571  -0.032  -0.116
    1UNL    C23   34  -0.387   0.053  -0.004
    1UNL    O12   35  -0.469   0.025   0.108
    1UNL     H1   36  -0.180   0.409  -0.185
    1UNL     H2   37  -0.280   0.335  -0.058
    1UNL     H3   38  -0.180   0.485  -0.023
    1UNL     H4   39   0.040   0.490   0.006
    1UNL     H5   40   0.072   0.420  -0.134
    1UNL     H6   41   0.385   0.360   0.034
    1UNL     H7   42   0.106   0.031  -0.118
    1UNL     H8   43   0.038   0.001   0.239
    1UNL     H9   44  -0.004  -0.093   0.091
    1UNL    H10   45   0.267  -0.280  -0.192
    1UNL    H11   46   0.483  -0.420  -0.234
    1UNL    H12   47   0.763  -0.348  -0.018
    1UNL    H13   48   0.649  -0.234   0.111
    1UNL    H14   49   0.428  -0.120   0.159
    1UNL    H15   50   0.226   0.202   0.205
    1UNL    H16   51   0.012   0.390   0.204
    1UNL    H17   52  -0.014   0.241   0.312
    1UNL    H18   53  -0.192   0.055  -0.075
    1UNL    H19   54  -0.185  -0.165  -0.114
    1UNL    H20   55  -0.230  -0.405  -0.045
    1UNL    H21   56  -0.270  -0.364   0.120
    1UNL    H22   57  -0.013  -0.292   0.012
    1UNL    H23   58  -0.442  -0.197   0.037
    1UNL    H24   59  -0.519  -0.279  -0.170
    1UNL    H25   60  -0.388  -0.030  -0.220
    1UNL    H26   61  -0.595  -0.025  -0.028
    1UNL    H27   62  -0.404   0.161  -0.026
    1UNL    H28   63  -0.424   0.058   0.185
   0.00000   0.00000   0.00000   0.00000   0.00000   0.00000   0.00000   0.00000   0.00000
Generated with MDTraj, t= 63.0
 63
    1UNL     C1    1  -0.194   0.363  -0.078
    1UNL     C2    2  -0.068   0.301  -0.035
    1UNL     C3    3   0.050   0.397  -0.020
    1UNL     C4    4   0.176   0.324   0.031
    1UNL     O1    5   0.283   0.408   0.065
    1UNL     O2    6   0.198   0.224  -0.082
    1UNL     C5    7   0.089   0.130  -0.078
    1UNL     O3    8  -0.022   0.198  -0.128
    1UNL     C6    9   0.057   0.120   0.077
    1UNL     C7   10   0.065  -0.024   0.137
    1UNL     O4   11   0.200  -0.077   0.116
    1UNL     C8   12   0.206  -0.142  -0.003
    1UNL     O5   13   0.118  -0.151  -0.083
    1UNL     C9   14   0.331  -0.212  -0.023
    1UNL    C10   15   0.348  -0.314  -0.117
    1UNL    C11   16   0.462  -0.381  -0.139
    1UNL    C12   17   0.581  -0.326  -0.070
    1UNL     O6   18   0.705  -0.378  -0.085
    1UNL    C13   19   0.565  -0.220   0.027
    1UNL    C14   20   0.439  -0.169   0.043
    1UNL    C15   21   0.142   0.228   0.151
    1UNL    C16   22   0.007   0.264   0.226
    1UNL    C17   23  -0.072   0.216   0.099
    1UNL     O7   24  -0.197   0.155   0.120
    1UNL    C18   25  -0.231   0.053   0.016
    1UNL     O8   26  -0.199  -0.083   0.065
    1UNL    C19   27  -0.237  -0.196  -0.026
    1UNL    C20   28  -0.190  -0.337   0.034
    1UNL     O9   29  -0.050  -0.339   0.065
    1UNL    C21   30  -0.388  -0.193  -0.039
    1UNL    O10   31  -0.435  -0.302  -0.121
    1UNL    C22   32  -0.432  -0.058  -0.109
    1UNL    O11   33  -0.571  -0.036  -0.143
    1UNL    C23   34  -0.382   0.062  -0.018
    1UNL    O12   35  -0.460   0.067   0.102
    1UNL     H1   36  -0.172   0.427  -0.168
    1UNL     H2   37  -0.270   0.287  -0.111
    1UNL     H3   38  -0.229   0.429  -0.003
    1UNL     H4   39   0.017   0.479   0.041
    1UNL     H5   40   0.062   0.445  -0.110
    1UNL     H6   41   0.303   0.452  -0.016
    1UNL     H7   42   0.099   0.043  -0.141
    1UNL     H8   43   0.048  -0.021   0.241
    1UNL     H9   44   0.002  -0.090   0.084
    1UNL    H10   45   0.254  -0.335  -0.168
    1UNL    H11   46   0.462  -0.455  -0.220
    1UNL    H12   47   0.764  -0.343  -0.012
    1UNL    H13   48   0.645  -0.165   0.067
    1UNL    H14   49   0.428  -0.079   0.105
    1UNL    H15   50   0.225   0.193   0.212
    1UNL    H16   51  -0.016   0.370   0.244
    1UNL    H17   52  -0.008   0.197   0.316
    1UNL    H18   53  -0.182   0.067  -0.082
    1UNL    H19   54  -0.183  -0.181  -0.120
    1UNL    H20   55  -0.219  -0.411  -0.038
    1UNL    H21   56  -0.252  -0.355   0.123
    1UNL    H22   57   0.007  -0.287   0.003
    1UNL    H23   58  -0.427  -0.199   0.064
    1UNL    H24   59  -0.525  -0.282  -0.147
    1UNL    H25   60  -0.382  -0.045  -0.213
    1UNL    H26   61  -0.618  -0.039  -0.057
    1UNL    H27   62  -0.403   0.157  -0.070
    1UNL    H28   63  -0.404   0.126   0.163
   0.00000   0.00000   0.00000   0.00000   0.00000   0.00000   0.00000   0.00000   0.00000
Generated with MDTraj, t= 64.0
 63
    1UNL     C1    1  -0.192   0.368  -0.071
    1UNL     C2    2  -0.062   0.313  -0.032
    1UNL     C3    3   0.057   0.422  -0.010
    1UNL     C4    4   0.176   0.334   0.029
    1UNL     O1    5   0.294   0.410   0.080
    1UNL     O2    6   0.200   0.245  -0.078
    1UNL     C5    7   0.092   0.151  -0.076
    1UNL     O3    8  -0.017   0.222  -0.137
    1UNL     C6    9   0.053   0.130   0.070
    1UNL     C7   10   0.053  -0.017   0.111
    1UNL     O4   11   0.187  -0.070   0.109
    1UNL     C8   12   0.209  -0.148  -0.002
    1UNL     O5   13   0.126  -0.177  -0.086
    1UNL     C9   14   0.339  -0.208  -0.031
    1UNL    C10   15   0.344  -0.328  -0.100
    1UNL    C11   16   0.466  -0.387  -0.129
    1UNL    C12   17   0.583  -0.332  -0.070
    1UNL     O6   18   0.699  -0.408  -0.079
    1UNL    C13   19   0.578  -0.210   0.001
    1UNL    C14   20   0.453  -0.158   0.022
    1UNL    C15   21   0.129   0.239   0.148
    1UNL    C16   22  -0.000   0.269   0.226
    1UNL    C17   23  -0.072   0.220   0.096
    1UNL     O7   24  -0.197   0.161   0.106
    1UNL    C18   25  -0.233   0.044   0.021
    1UNL     O8   26  -0.207  -0.088   0.083
    1UNL    C19   27  -0.249  -0.193  -0.009
    1UNL    C20   28  -0.193  -0.332   0.040
    1UNL     O9   29  -0.055  -0.359   0.082
    1UNL    C21   30  -0.401  -0.202  -0.046
    1UNL    O10   31  -0.436  -0.304  -0.144
    1UNL    C22   32  -0.432  -0.063  -0.106
    1UNL    O11   33  -0.565  -0.058  -0.146
    1UNL    C23   34  -0.382   0.050  -0.009
    1UNL    O12   35  -0.456   0.059   0.113
    1UNL     H1   36  -0.184   0.434  -0.162
    1UNL     H2   37  -0.251   0.279  -0.114
    1UNL     H3   38  -0.254   0.418  -0.002
    1UNL     H4   39   0.039   0.504   0.052
    1UNL     H5   40   0.082   0.470  -0.100
    1UNL     H6   41   0.347   0.439   0.009
    1UNL     H7   42   0.119   0.054  -0.118
    1UNL     H8   43   0.016  -0.025   0.211
    1UNL     H9   44  -0.011  -0.070   0.045
    1UNL    H10   45   0.253  -0.361  -0.146
    1UNL    H11   46   0.474  -0.480  -0.178
    1UNL    H12   47   0.775  -0.359  -0.036
    1UNL    H13   48   0.677  -0.169   0.036
    1UNL    H14   49   0.441  -0.060   0.061
    1UNL    H15   50   0.210   0.183   0.193
    1UNL    H16   51  -0.007   0.380   0.236
    1UNL    H17   52  -0.015   0.212   0.319
    1UNL    H18   53  -0.169   0.051  -0.071
    1UNL    H19   54  -0.198  -0.179  -0.106
    1UNL    H20   55  -0.218  -0.403  -0.038
    1UNL    H21   56  -0.259  -0.364   0.124
    1UNL    H22   57  -0.004  -0.294   0.029
    1UNL    H23   58  -0.463  -0.226   0.039
    1UNL    H24   59  -0.521  -0.277  -0.192
    1UNL    H25   60  -0.368  -0.049  -0.201
    1UNL    H26   61  -0.623  -0.053  -0.060
    1UNL    H27   62  -0.411   0.146  -0.057
    1UNL    H28   63  -0.398   0.104   0.176
   0.00000   0.00000   0.00000   0.00000   0.00000   0.00000   0.00000   0.00000   0.00000
Generated with MDTraj, t= 65.0
 63
    1UNL     C1    1  -0.203   0.381  -0.067
    1UNL     C2    2  -0.069   0.314  -0.032
    1UNL     C3    3   0.048   0.408  -0.012
    1UNL     C4    4   0.173   0.342   0.039
    1UNL     O1    5   0.284   0.420   0.090
    1UNL     O2    6   0.205   0.251  -0.075
    1UNL     C5    7   0.094   0.160  -0.086
    1UNL     O3    8  -0.024   0.220  -0.133
    1UNL     C6    9   0.061   0.132   0.068
    1UNL     C7   10   0.079  -0.013   0.118
    1UNL     O4   11   0.208  -0.065   0.094
    1UNL     C8   12   0.200  -0.157  -0.009
    1UNL     O5   13   0.101  -0.195  -0.069
    1UNL     C9   14   0.332  -0.221  -0.035
    1UNL    C10   15   0.338  -0.347  -0.096
    1UNL    C11   16   0.464  -0.406  -0.108
    1UNL    C12   17   0.577  -0.342  -0.066
    1UNL     O6   18   0.702  -0.396  -0.086
    1UNL    C13   19   0.564  -0.223   0.001
    1UNL    C14   20   0.451  -0.150   0.007
    1UNL    C15   21   0.138   0.233   0.151
    1UNL    C16   22   0.000   0.279   0.217
    1UNL    C17   23  -0.077   0.221   0.096
    1UNL     O7   24  -0.207   0.166   0.108
    1UNL    C18   25  -0.235   0.047   0.014
    1UNL     O8   26  -0.194  -0.083   0.066
    1UNL    C19   27  -0.224  -0.196  -0.020
    1UNL    C20   28  -0.201  -0.328   0.060
    1UNL     O9   29  -0.071  -0.348   0.098
    1UNL    C21   30  -0.376  -0.191  -0.063
    1UNL    O10   31  -0.423  -0.292  -0.147
    1UNL    C22   32  -0.425  -0.053  -0.123
    1UNL    O11   33  -0.567  -0.050  -0.126
    1UNL    C23   34  -0.383   0.049  -0.015
    1UNL    O12   35  -0.450   0.013   0.105
    1UNL     H1   36  -0.203   0.453  -0.152
    1UNL     H2   37  -0.282   0.310  -0.088
    1UNL     H3   38  -0.233   0.437   0.024
    1UNL     H4   39   0.020   0.486   0.048
    1UNL     H5   40   0.070   0.452  -0.108
    1UNL     H6   41   0.320   0.467   0.017
    1UNL     H7   42   0.118   0.072  -0.150
    1UNL     H8   43   0.057  -0.009   0.226
    1UNL     H9   44   0.003  -0.075   0.080
    1UNL    H10   45   0.255  -0.407  -0.134
    1UNL    H11   46   0.479  -0.494  -0.174
    1UNL    H12   47   0.769  -0.322  -0.077
    1UNL    H13   48   0.650  -0.167   0.018
    1UNL    H14   49   0.448  -0.049   0.051
    1UNL    H15   50   0.216   0.184   0.209
    1UNL    H16   51   0.009   0.390   0.237
    1UNL    H17   52  -0.026   0.234   0.309
    1UNL    H18   53  -0.175   0.068  -0.078
    1UNL    H19   54  -0.158  -0.198  -0.108
    1UNL    H20   55  -0.236  -0.413  -0.000
    1UNL    H21   56  -0.269  -0.323   0.149
    1UNL    H22   57  -0.010  -0.300   0.033
    1UNL    H23   58  -0.445  -0.202   0.022
    1UNL    H24   59  -0.508  -0.259  -0.187
    1UNL    H25   60  -0.382  -0.026  -0.225
    1UNL    H26   61  -0.597  -0.023  -0.038
    1UNL    H27   62  -0.423   0.146  -0.050
    1UNL    H28   63  -0.389   0.040   0.175
   0.00000   0.00000   0.00000   0.00000   0.00000   0.00000   0.00000   0.00000   0.00000
Generated with MDTraj, t= 66.0
 63
    1UNL     C1    1  -0.205   0.384  -0.076
    1UNL     C2    2  -0.069   0.311  -0.035
    1UNL     C3    3   0.036   0.424  -0.010
    1UNL     C4    4   0.169   0.350   0.032
    1UNL     O1    5   0.274   0.445   0.069
    1UNL     O2    6   0.202   0.260  -0.083
    1UNL     C5    7   0.097   0.158  -0.083
    1UNL     O3    8  -0.022   0.222  -0.136
    1UNL     C6    9   0.062   0.127   0.067
    1UNL     C7   10   0.067  -0.021   0.116
    1UNL     O4   11   0.199  -0.076   0.112
    1UNL     C8   12   0.204  -0.164   0.003
    1UNL     O5   13   0.106  -0.202  -0.064
    1UNL     C9   14   0.336  -0.226  -0.029
    1UNL    C10   15   0.337  -0.353  -0.086
    1UNL    C11   16   0.462  -0.408  -0.112
    1UNL    C12   17   0.576  -0.343  -0.073
    1UNL     O6   18   0.694  -0.398  -0.100
    1UNL    C13   19   0.570  -0.220  -0.011
    1UNL    C14   20   0.448  -0.155   0.014
    1UNL    C15   21   0.133   0.244   0.149
    1UNL    C16   22   0.000   0.267   0.214
    1UNL    C17   23  -0.075   0.215   0.091
    1UNL     O7   24  -0.190   0.144   0.129
    1UNL    C18   25  -0.234   0.034   0.036
    1UNL     O8   26  -0.206  -0.093   0.082
    1UNL    C19   27  -0.227  -0.200  -0.019
    1UNL    C20   28  -0.194  -0.341   0.044
    1UNL     O9   29  -0.074  -0.336   0.112
    1UNL    C21   30  -0.378  -0.195  -0.070
    1UNL    O10   31  -0.408  -0.285  -0.169
    1UNL    C22   32  -0.410  -0.047  -0.114
    1UNL    O11   33  -0.550  -0.040  -0.144
    1UNL    C23   34  -0.383   0.054  -0.002
    1UNL    O12   35  -0.462   0.039   0.113
    1UNL     H1   36  -0.183   0.449  -0.161
    1UNL     H2   37  -0.273   0.314  -0.109
    1UNL     H3   38  -0.250   0.447   0.011
    1UNL     H4   39   0.013   0.502   0.059
    1UNL     H5   40   0.046   0.469  -0.108
    1UNL     H6   41   0.341   0.450  -0.002
    1UNL     H7   42   0.112   0.061  -0.141
    1UNL     H8   43   0.036  -0.026   0.225
    1UNL     H9   44  -0.007  -0.084   0.070
    1UNL    H10   45   0.248  -0.402  -0.125
    1UNL    H11   46   0.475  -0.504  -0.150
    1UNL    H12   47   0.774  -0.344  -0.076
    1UNL    H13   48   0.670  -0.190   0.028
    1UNL    H14   49   0.450  -0.054   0.047
    1UNL    H15   50   0.208   0.217   0.222
    1UNL    H16   51  -0.024   0.374   0.238
    1UNL    H17   52  -0.024   0.209   0.299
    1UNL    H18   53  -0.174   0.051  -0.057
    1UNL    H19   54  -0.149  -0.188  -0.096
    1UNL    H20   55  -0.193  -0.423  -0.031
    1UNL    H21   56  -0.273  -0.365   0.122
    1UNL    H22   57  -0.007  -0.289   0.058
    1UNL    H23   58  -0.437  -0.224   0.019
    1UNL    H24   59  -0.489  -0.264  -0.216
    1UNL    H25   60  -0.347  -0.030  -0.206
    1UNL    H26   61  -0.597  -0.017  -0.068
    1UNL    H27   62  -0.399   0.153  -0.045
    1UNL    H28   63  -0.408   0.072   0.193
   0.00000   0.00000   0.00000   0.00000   0.00000   0.00000   0.00000   0.00000   0.00000
Generated with MDTraj, t= 67.0
 63
    1UNL     C1    1  -0.205   0.369  -0.047
    1UNL     C2    2  -0.074   0.306  -0.021
    1UNL     C3    3   0.037   0.411  -0.019
    1UNL     C4    4   0.166   0.338   0.022
    1UNL     O1    5   0.275   0.426   0.035
    1UNL     O2    6   0.188   0.243  -0.082
    1UNL     C5    7   0.083   0.147  -0.077
    1UNL     O3    8  -0.034   0.212  -0.132
    1UNL     C6    9   0.060   0.129   0.080
    1UNL     C7   10   0.083  -0.008   0.134
    1UNL     O4   11   0.217  -0.057   0.108
    1UNL     C8   12   0.213  -0.153   0.011
    1UNL     O5   13   0.113  -0.198  -0.046
    1UNL     C9   14   0.337  -0.220  -0.019
    1UNL    C10   15   0.336  -0.331  -0.097
    1UNL    C11   16   0.451  -0.397  -0.118
    1UNL    C12   17   0.572  -0.339  -0.083
    1UNL     O6   18   0.693  -0.404  -0.115
    1UNL    C13   19   0.580  -0.226  -0.003
    1UNL    C14   20   0.458  -0.165   0.020
    1UNL    C15   21   0.128   0.255   0.153
    1UNL    C16   22  -0.010   0.281   0.232
    1UNL    C17   23  -0.073   0.212   0.110
    1UNL     O7   24  -0.196   0.142   0.132
    1UNL    C18   25  -0.227   0.040   0.026
    1UNL     O8   26  -0.205  -0.086   0.078
    1UNL    C19   27  -0.233  -0.188  -0.015
    1UNL    C20   28  -0.215  -0.318   0.057
    1UNL     O9   29  -0.084  -0.362   0.092
    1UNL    C21   30  -0.384  -0.194  -0.072
    1UNL    O10   31  -0.389  -0.293  -0.167
    1UNL    C22   32  -0.401  -0.051  -0.117
    1UNL    O11   33  -0.534  -0.040  -0.172
    1UNL    C23   34  -0.379   0.057  -0.013
    1UNL    O12   35  -0.459   0.049   0.108
    1UNL     H1   36  -0.220   0.368  -0.153
    1UNL     H2   37  -0.287   0.316   0.012
    1UNL     H3   38  -0.199   0.474  -0.007
    1UNL     H4   39   0.014   0.480   0.064
    1UNL     H5   40   0.064   0.459  -0.111
    1UNL     H6   41   0.339   0.416  -0.042
    1UNL     H7   42   0.122   0.057  -0.139
    1UNL     H8   43   0.062  -0.022   0.245
    1UNL     H9   44   0.013  -0.076   0.087
    1UNL    H10   45   0.240  -0.368  -0.130
    1UNL    H11   46   0.447  -0.492  -0.176
    1UNL    H12   47   0.762  -0.369  -0.056
    1UNL    H13   48   0.656  -0.169   0.045
    1UNL    H14   49   0.455  -0.075   0.084
    1UNL    H15   50   0.206   0.205   0.207
    1UNL    H16   51  -0.056   0.381   0.240
    1UNL    H17   52  -0.013   0.231   0.327
    1UNL    H18   53  -0.146   0.052  -0.050
    1UNL    H19   54  -0.172  -0.173  -0.107
    1UNL    H20   55  -0.251  -0.395  -0.011
    1UNL    H21   56  -0.281  -0.317   0.147
    1UNL    H22   57  -0.020  -0.305   0.038
    1UNL    H23   58  -0.460  -0.207   0.007
    1UNL    H24   59  -0.473  -0.295  -0.213
    1UNL    H25   60  -0.330  -0.039  -0.201
    1UNL    H26   61  -0.605  -0.023  -0.098
    1UNL    H27   62  -0.394   0.160  -0.051
    1UNL    H28   63  -0.398   0.057   0.183
   0.00000   0.00000   0.00000   0.00000   0.00000   0.00000   0.00000   0.00000   0.00000
Generated with MDTraj, t= 68.0
 63
    1UNL     C1    1  -0.215   0.396  -0.040
    1UNL     C2    2  -0.086   0.304  -0.037
    1UNL     C3    3   0.037   0.410  -0.029
    1UNL     C4    4   0.171   0.331   0.013
    1UNL     O1    5   0.286   0.409   0.033
    1UNL     O2    6   0.191   0.230  -0.090
    1UNL     C5    7   0.077   0.142  -0.084
    1UNL     O3    8  -0.053   0.202  -0.130
    1UNL     C6    9   0.052   0.118   0.072
    1UNL     C7   10   0.074  -0.012   0.144
    1UNL     O4   11   0.202  -0.060   0.131
    1UNL     C8   12   0.204  -0.148   0.029
    1UNL     O5   13   0.104  -0.177  -0.038
    1UNL     C9   14   0.331  -0.210  -0.008
    1UNL    C10   15   0.329  -0.306  -0.104
    1UNL    C11   16   0.441  -0.377  -0.155
    1UNL    C12   17   0.564  -0.333  -0.092
    1UNL     O6   18   0.685  -0.399  -0.113
    1UNL    C13   19   0.571  -0.223   0.006
    1UNL    C14   20   0.448  -0.168   0.044
    1UNL    C15   21   0.130   0.238   0.138
    1UNL    C16   22   0.004   0.280   0.217
    1UNL    C17   23  -0.075   0.215   0.099
    1UNL     O7   24  -0.189   0.143   0.146
    1UNL    C18   25  -0.221   0.034   0.052
    1UNL     O8   26  -0.205  -0.097   0.097
    1UNL    C19   27  -0.221  -0.198  -0.004
    1UNL    C20   28  -0.208  -0.346   0.042
    1UNL     O9   29  -0.075  -0.355   0.090
    1UNL    C21   30  -0.359  -0.183  -0.076
    1UNL    O10   31  -0.402  -0.290  -0.152
    1UNL    C22   32  -0.375  -0.040  -0.130
    1UNL    O11   33  -0.518  -0.031  -0.173
    1UNL    C23   34  -0.358   0.062  -0.015
    1UNL    O12   35  -0.460   0.038   0.080
    1UNL     H1   36  -0.225   0.451  -0.135
    1UNL     H2   37  -0.312   0.340  -0.025
    1UNL     H3   38  -0.213   0.467   0.039
    1UNL     H4   39   0.025   0.497   0.040
    1UNL     H5   40   0.050   0.442  -0.130
    1UNL     H6   41   0.367   0.350   0.017
    1UNL     H7   42   0.103   0.040  -0.133
    1UNL     H8   43   0.054   0.006   0.256
    1UNL     H9   44   0.011  -0.099   0.116
    1UNL    H10   45   0.233  -0.312  -0.156
    1UNL    H11   46   0.444  -0.455  -0.225
    1UNL    H12   47   0.756  -0.373  -0.053
    1UNL    H13   48   0.665  -0.195   0.052
    1UNL    H14   49   0.443  -0.082   0.109
    1UNL    H15   50   0.211   0.214   0.204
    1UNL    H16   51  -0.003   0.386   0.228
    1UNL    H17   52  -0.005   0.236   0.317
    1UNL    H18   53  -0.142   0.038  -0.028
    1UNL    H19   54  -0.144  -0.192  -0.083
    1UNL    H20   55  -0.231  -0.424  -0.030
    1UNL    H21   56  -0.268  -0.361   0.133
    1UNL    H22   57  -0.007  -0.302   0.046
    1UNL    H23   58  -0.423  -0.192   0.017
    1UNL    H24   59  -0.495  -0.274  -0.185
    1UNL    H25   60  -0.298  -0.031  -0.205
    1UNL    H26   61  -0.569  -0.030  -0.083
    1UNL    H27   62  -0.375   0.160  -0.064
    1UNL    H28   63  -0.429   0.038   0.170
   0.00000   0.00000   0.00000   0.00000   0.00000   0.00000   0.00000   0.00000   0.00000
Generated with MDTraj, t= 69.0
 63
    1UNL     C1    1  -0.202   0.373  -0.060
    1UNL     C2    2  -0.071   0.302  -0.023
    1UNL     C3    3   0.046   0.401  -0.033
    1UNL     C4    4   0.177   0.322   0.010
    1UNL     O1    5   0.295   0.399   0.019
    1UNL     O2    6   0.196   0.223  -0.090
    1UNL     C5    7   0.082   0.138  -0.083
    1UNL     O3    8  -0.037   0.193  -0.129
    1UNL     C6    9   0.057   0.121   0.084
    1UNL     C7   10   0.058  -0.015   0.156
    1UNL     O4   11   0.181  -0.082   0.138
    1UNL     C8   12   0.190  -0.146   0.018
    1UNL     O5   13   0.095  -0.154  -0.057
    1UNL     C9   14   0.314  -0.212  -0.019
    1UNL    C10   15   0.327  -0.298  -0.128
    1UNL    C11   16   0.447  -0.349  -0.165
    1UNL    C12   17   0.558  -0.317  -0.092
    1UNL     O6   18   0.681  -0.368  -0.113
    1UNL    C13   19   0.542  -0.240   0.022
    1UNL    C14   20   0.426  -0.189   0.061
    1UNL    C15   21   0.148   0.239   0.144
    1UNL    C16   22   0.020   0.287   0.222
    1UNL    C17   23  -0.066   0.217   0.112
    1UNL     O7   24  -0.194   0.145   0.143
    1UNL    C18   25  -0.226   0.033   0.050
    1UNL     O8   26  -0.205  -0.096   0.094
    1UNL    C19   27  -0.216  -0.195  -0.005
    1UNL    C20   28  -0.197  -0.326   0.070
    1UNL     O9   29  -0.061  -0.339   0.100
    1UNL    C21   30  -0.359  -0.194  -0.072
    1UNL    O10   31  -0.386  -0.282  -0.174
    1UNL    C22   32  -0.385  -0.051  -0.122
    1UNL    O11   33  -0.519  -0.052  -0.175
    1UNL    C23   34  -0.369   0.054  -0.011
    1UNL    O12   35  -0.466   0.043   0.093
    1UNL     H1   36  -0.192   0.457  -0.136
    1UNL     H2   37  -0.270   0.308  -0.104
    1UNL     H3   38  -0.250   0.417   0.023
    1UNL     H4   39   0.025   0.488   0.034
    1UNL     H5   40   0.059   0.425  -0.139
    1UNL     H6   41   0.367   0.333  -0.011
    1UNL     H7   42   0.094   0.038  -0.141
    1UNL     H8   43   0.042  -0.016   0.270
    1UNL     H9   44  -0.023  -0.077   0.108
    1UNL    H10   45   0.244  -0.316  -0.192
    1UNL    H11   46   0.441  -0.403  -0.262
    1UNL    H12   47   0.744  -0.319  -0.058
    1UNL    H13   48   0.627  -0.219   0.085
    1UNL    H14   49   0.409  -0.128   0.146
    1UNL    H15   50   0.237   0.230   0.203
    1UNL    H16   51   0.011   0.390   0.230
    1UNL    H17   52  -0.005   0.242   0.321
    1UNL    H18   53  -0.149   0.044  -0.030
    1UNL    H19   54  -0.145  -0.184  -0.088
    1UNL    H20   55  -0.221  -0.418   0.020
    1UNL    H21   56  -0.248  -0.329   0.167
    1UNL    H22   57  -0.007  -0.281   0.038
    1UNL    H23   58  -0.438  -0.201   0.007
    1UNL    H24   59  -0.470  -0.245  -0.213
    1UNL    H25   60  -0.322  -0.023  -0.201
    1UNL    H26   61  -0.580  -0.075  -0.106
    1UNL    H27   62  -0.373   0.151  -0.058
    1UNL    H28   63  -0.424   0.087   0.174
   0.00000   0.00000   0.00000   0.00000   0.00000   0.00000   0.00000   0.00000   0.00000
Generated with MDTraj, t= 70.0
 63
    1UNL     C1    1  -0.183   0.367  -0.098
    1UNL     C2    2  -0.053   0.302  -0.049
    1UNL     C3    3   0.070   0.404  -0.037
    1UNL     C4    4   0.184   0.309   0.018
    1UNL     O1    5   0.297   0.395   0.056
    1UNL     O2    6   0.203   0.204  -0.084
    1UNL     C5    7   0.085   0.125  -0.072
    1UNL     O3    8  -0.023   0.191  -0.137
    1UNL     C6    9   0.047   0.120   0.078
    1UNL     C7   10   0.050  -0.021   0.141
    1UNL     O4   11   0.176  -0.069   0.135
    1UNL     C8   12   0.185  -0.149   0.019
    1UNL     O5   13   0.091  -0.187  -0.049
    1UNL     C9   14   0.316  -0.209  -0.022
    1UNL    C10   15   0.329  -0.262  -0.155
    1UNL    C11   16   0.452  -0.318  -0.180
    1UNL    C12   17   0.563  -0.319  -0.088
    1UNL     O6   18   0.693  -0.357  -0.126
    1UNL    C13   19   0.542  -0.262   0.033
    1UNL    C14   20   0.426  -0.203   0.069
    1UNL    C15   21   0.128   0.238   0.146
    1UNL    C16   22  -0.002   0.280   0.217
    1UNL    C17   23  -0.074   0.218   0.095
    1UNL     O7   24  -0.201   0.165   0.120
    1UNL    C18   25  -0.237   0.052   0.041
    1UNL     O8   26  -0.207  -0.075   0.096
    1UNL    C19   27  -0.226  -0.176   0.002
    1UNL    C20   28  -0.193  -0.312   0.062
    1UNL     O9   29  -0.066  -0.334   0.118
    1UNL    C21   30  -0.371  -0.190  -0.071
    1UNL    O10   31  -0.361  -0.288  -0.174
    1UNL    C22   32  -0.406  -0.046  -0.111
    1UNL    O11   33  -0.538  -0.050  -0.154
    1UNL    C23   34  -0.383   0.051   0.002
    1UNL    O12   35  -0.458   0.021   0.123
    1UNL     H1   36  -0.177   0.393  -0.204
    1UNL     H2   37  -0.262   0.294  -0.089
    1UNL     H3   38  -0.211   0.454  -0.045
    1UNL     H4   39   0.060   0.478   0.044
    1UNL     H5   40   0.103   0.445  -0.137
    1UNL     H6   41   0.381   0.343   0.043
    1UNL     H7   42   0.106   0.020  -0.116
    1UNL     H8   43   0.014  -0.011   0.249
    1UNL     H9   44  -0.014  -0.098   0.086
    1UNL    H10   45   0.253  -0.256  -0.235
    1UNL    H11   46   0.486  -0.354  -0.272
    1UNL    H12   47   0.754  -0.327  -0.055
    1UNL    H13   48   0.635  -0.267   0.085
    1UNL    H14   49   0.409  -0.151   0.166
    1UNL    H15   50   0.206   0.205   0.212
    1UNL    H16   51  -0.024   0.382   0.235
    1UNL    H17   52  -0.018   0.219   0.308
    1UNL    H18   53  -0.171   0.064  -0.047
    1UNL    H19   54  -0.156  -0.165  -0.081
    1UNL    H20   55  -0.201  -0.393  -0.011
    1UNL    H21   56  -0.259  -0.341   0.144
    1UNL    H22   57   0.002  -0.287   0.068
    1UNL    H23   58  -0.434  -0.240   0.004
    1UNL    H24   59  -0.434  -0.295  -0.235
    1UNL    H25   60  -0.356  -0.026  -0.201
    1UNL    H26   61  -0.593  -0.075  -0.081
    1UNL    H27   62  -0.417   0.148  -0.029
    1UNL    H28   63  -0.382  -0.008   0.186
   0.00000   0.00000   0.00000   0.00000   0.00000   0.00000   0.00000   0.00000   0.00000
Generated with MDTraj, t= 71.0
 63
    1UNL     C1    1  -0.179   0.364  -0.098
    1UNL     C2    2  -0.053   0.288  -0.056
    1UNL     C3    3   0.074   0.387  -0.041
    1UNL     C4    4   0.192   0.312   0.031
    1UNL     O1    5   0.297   0.402   0.058
    1UNL     O2    6   0.222   0.207  -0.067
    1UNL     C5    7   0.105   0.121  -0.075
    1UNL     O3    8  -0.006   0.188  -0.147
    1UNL     C6    9   0.058   0.118   0.073
    1UNL     C7   10   0.060  -0.018   0.152
    1UNL     O4   11   0.187  -0.079   0.144
    1UNL     C8   12   0.201  -0.148   0.026
    1UNL     O5   13   0.101  -0.171  -0.040
    1UNL     C9   14   0.335  -0.198  -0.014
    1UNL    C10   15   0.355  -0.235  -0.153
    1UNL    C11   16   0.477  -0.281  -0.191
    1UNL    C12   17   0.581  -0.303  -0.101
    1UNL     O6   18   0.696  -0.364  -0.135
    1UNL    C13   19   0.552  -0.269   0.031
    1UNL    C14   20   0.436  -0.227   0.076
    1UNL    C15   21   0.134   0.229   0.151
    1UNL    C16   22   0.002   0.288   0.208
    1UNL    C17   23  -0.071   0.212   0.080
    1UNL     O7   24  -0.209   0.166   0.096
    1UNL    C18   25  -0.252   0.052   0.023
    1UNL     O8   26  -0.221  -0.079   0.085
    1UNL    C19   27  -0.235  -0.193  -0.000
    1UNL    C20   28  -0.214  -0.326   0.070
    1UNL     O9   29  -0.088  -0.320   0.133
    1UNL    C21   30  -0.380  -0.197  -0.068
    1UNL    O10   31  -0.391  -0.290  -0.169
    1UNL    C22   32  -0.434  -0.050  -0.113
    1UNL    O11   33  -0.573  -0.039  -0.126
    1UNL    C23   34  -0.398   0.055  -0.006
    1UNL    O12   35  -0.469   0.008   0.115
    1UNL     H1   36  -0.153   0.428  -0.173
    1UNL     H2   37  -0.253   0.288  -0.135
    1UNL     H3   38  -0.222   0.418  -0.015
    1UNL     H4   39   0.041   0.474   0.016
    1UNL     H5   40   0.125   0.412  -0.143
    1UNL     H6   41   0.374   0.352   0.087
    1UNL     H7   42   0.139   0.021  -0.121
    1UNL     H8   43   0.028  -0.010   0.262
    1UNL     H9   44  -0.014  -0.083   0.098
    1UNL    H10   45   0.275  -0.214  -0.217
    1UNL    H11   46   0.486  -0.323  -0.293
    1UNL    H12   47   0.749  -0.375  -0.052
    1UNL    H13   48   0.624  -0.305   0.106
    1UNL    H14   49   0.424  -0.212   0.179
    1UNL    H15   50   0.204   0.179   0.218
    1UNL    H16   51  -0.008   0.396   0.217
    1UNL    H17   52  -0.023   0.244   0.303
    1UNL    H18   53  -0.194   0.064  -0.069
    1UNL    H19   54  -0.159  -0.180  -0.078
    1UNL    H20   55  -0.230  -0.417   0.009
    1UNL    H21   56  -0.286  -0.329   0.153
    1UNL    H22   57  -0.016  -0.285   0.072
    1UNL    H23   58  -0.445  -0.221   0.015
    1UNL    H24   59  -0.463  -0.268  -0.233
    1UNL    H25   60  -0.405  -0.020  -0.211
    1UNL    H26   61  -0.612  -0.031  -0.031
    1UNL    H27   62  -0.438   0.151  -0.035
    1UNL    H28   63  -0.399  -0.027   0.168
   0.00000   0.00000   0.00000   0.00000   0.00000   0.00000   0.00000   0.00000   0.00000
Generated with MDTraj, t= 72.0
 63
    1UNL     C1    1  -0.184   0.348  -0.118
    1UNL     C2    2  -0.055   0.288  -0.055
    1UNL     C3    3   0.058   0.390  -0.042
    1UNL     C4    4   0.184   0.317   0.024
    1UNL     O1    5   0.294   0.401   0.049
    1UNL     O2    6   0.225   0.206  -0.065
    1UNL     C5    7   0.110   0.116  -0.062
    1UNL     O3    8  -0.002   0.174  -0.133
    1UNL     C6    9   0.053   0.112   0.083
    1UNL     C7   10   0.057  -0.027   0.153
    1UNL     O4   11   0.188  -0.078   0.145
    1UNL     C8   12   0.197  -0.155   0.030
    1UNL     O5   13   0.103  -0.175  -0.043
    1UNL     C9   14   0.324  -0.220  -0.009
    1UNL    C10   15   0.366  -0.221  -0.139
    1UNL    C11   16   0.483  -0.256  -0.195
    1UNL    C12   17   0.586  -0.283  -0.096
    1UNL     O6   18   0.703  -0.350  -0.135
    1UNL    C13   19   0.557  -0.273   0.044
    1UNL    C14   20   0.427  -0.242   0.081
    1UNL    C15   21   0.136   0.230   0.153
    1UNL    C16   22  -0.001   0.282   0.204
    1UNL    C17   23  -0.070   0.210   0.085
    1UNL     O7   24  -0.198   0.153   0.109
    1UNL    C18   25  -0.236   0.044   0.019
    1UNL     O8   26  -0.203  -0.091   0.064
    1UNL    C19   27  -0.240  -0.200  -0.020
    1UNL    C20   28  -0.204  -0.334   0.053
    1UNL     O9   29  -0.067  -0.347   0.105
    1UNL    C21   30  -0.392  -0.191  -0.055
    1UNL    O10   31  -0.449  -0.287  -0.144
    1UNL    C22   32  -0.433  -0.046  -0.101
    1UNL    O11   33  -0.568  -0.041  -0.121
    1UNL    C23   34  -0.382   0.066  -0.012
    1UNL    O12   35  -0.471   0.069   0.107
    1UNL     H1   36  -0.155   0.382  -0.212
    1UNL     H2   37  -0.261   0.273  -0.128
    1UNL     H3   38  -0.222   0.433  -0.064
    1UNL     H4   39   0.014   0.480   0.008
    1UNL     H5   40   0.086   0.414  -0.151
    1UNL     H6   41   0.372   0.349   0.035
    1UNL     H7   42   0.120   0.006  -0.096
    1UNL     H8   43   0.035  -0.011   0.263
    1UNL     H9   44  -0.015  -0.099   0.111
    1UNL    H10   45   0.283  -0.182  -0.206
    1UNL    H11   46   0.510  -0.244  -0.297
    1UNL    H12   47   0.748  -0.387  -0.054
    1UNL    H13   48   0.638  -0.282   0.111
    1UNL    H14   49   0.401  -0.233   0.190
    1UNL    H15   50   0.213   0.221   0.232
    1UNL    H16   51  -0.012   0.393   0.200
    1UNL    H17   52  -0.038   0.241   0.294
    1UNL    H18   53  -0.180   0.070  -0.068
    1UNL    H19   54  -0.184  -0.186  -0.112
    1UNL    H20   55  -0.227  -0.411  -0.024
    1UNL    H21   56  -0.275  -0.347   0.135
    1UNL    H22   57  -0.013  -0.284   0.054
    1UNL    H23   58  -0.443  -0.202   0.040
    1UNL    H24   59  -0.524  -0.243  -0.196
    1UNL    H25   60  -0.384  -0.036  -0.195
    1UNL    H26   61  -0.605  -0.001  -0.032
    1UNL    H27   62  -0.401   0.159  -0.065
    1UNL    H28   63  -0.405   0.082   0.184
   0.00000   0.00000   0.00000   0.00000   0.00000   0.00000   0.00000   0.00000   0.00000
Generated with MDTraj, t= 73.0
 63
    1UNL     C1    1  -0.175   0.337  -0.102
    1UNL     C2    2  -0.043   0.284  -0.055
    1UNL     C3    3   0.067   0.383  -0.043
    1UNL     C4    4   0.187   0.309   0.014
    1UNL     O1    5   0.295   0.397   0.049
    1UNL     O2    6   0.213   0.200  -0.086
    1UNL     C5    7   0.101   0.120  -0.081
    1UNL     O3    8  -0.003   0.181  -0.146
    1UNL     C6    9   0.058   0.115   0.076
    1UNL     C7   10   0.060  -0.017   0.145
    1UNL     O4   11   0.187  -0.086   0.144
    1UNL     C8   12   0.196  -0.152   0.027
    1UNL     O5   13   0.103  -0.157  -0.050
    1UNL     C9   14   0.326  -0.204  -0.013
    1UNL    C10   15   0.354  -0.225  -0.145
    1UNL    C11   16   0.481  -0.258  -0.178
    1UNL    C12   17   0.584  -0.282  -0.083
    1UNL     O6   18   0.713  -0.316  -0.115
    1UNL    C13   19   0.550  -0.269   0.059
    1UNL    C14   20   0.417  -0.240   0.086
    1UNL    C15   21   0.141   0.232   0.147
    1UNL    C16   22   0.009   0.275   0.218
    1UNL    C17   23  -0.061   0.213   0.094
    1UNL     O7   24  -0.187   0.148   0.122
    1UNL    C18   25  -0.226   0.042   0.030
    1UNL     O8   26  -0.214  -0.088   0.083
    1UNL    C19   27  -0.257  -0.193  -0.008
    1UNL    C20   28  -0.216  -0.340   0.034
    1UNL     O9   29  -0.078  -0.372   0.042
    1UNL    C21   30  -0.408  -0.187  -0.031
    1UNL    O10   31  -0.468  -0.303  -0.104
    1UNL    C22   32  -0.428  -0.050  -0.107
    1UNL    O11   33  -0.566  -0.036  -0.131
    1UNL    C23   34  -0.368   0.063  -0.018
    1UNL    O12   35  -0.447   0.071   0.100
    1UNL     H1   36  -0.153   0.419  -0.171
    1UNL     H2   37  -0.234   0.268  -0.150
    1UNL     H3   38  -0.230   0.381  -0.023
    1UNL     H4   39   0.035   0.467   0.028
    1UNL     H5   40   0.079   0.431  -0.145
    1UNL     H6   41   0.378   0.361   0.022
    1UNL     H7   42   0.133   0.020  -0.132
    1UNL     H8   43   0.004  -0.009   0.243
    1UNL     H9   44  -0.005  -0.078   0.085
    1UNL    H10   45   0.288  -0.177  -0.207
    1UNL    H11   46   0.501  -0.265  -0.285
    1UNL    H12   47   0.763  -0.328  -0.029
    1UNL    H13   48   0.612  -0.297   0.147
    1UNL    H14   49   0.388  -0.210   0.182
    1UNL    H15   50   0.232   0.204   0.204
    1UNL    H16   51  -0.001   0.387   0.212
    1UNL    H17   52  -0.024   0.224   0.305
    1UNL    H18   53  -0.162   0.051  -0.055
    1UNL    H19   54  -0.206  -0.178  -0.104
    1UNL    H20   55  -0.268  -0.410  -0.035
    1UNL    H21   56  -0.262  -0.355   0.133
    1UNL    H22   57  -0.022  -0.303  -0.000
    1UNL    H23   58  -0.459  -0.178   0.064
    1UNL    H24   59  -0.548  -0.269  -0.151
    1UNL    H25   60  -0.381  -0.059  -0.206
    1UNL    H26   61  -0.595   0.004  -0.054
    1UNL    H27   62  -0.385   0.154  -0.075
    1UNL    H28   63  -0.409   0.011   0.165
   0.00000   0.00000   0.00000   0.00000   0.00000   0.00000   0.00000   0.00000   0.00000
Generated with MDTraj, t= 74.0
 63
    1UNL     C1    1  -0.183   0.378  -0.081
    1UNL     C2    2  -0.056   0.296  -0.049
    1UNL     C3    3   0.073   0.387  -0.041
    1UNL     C4    4   0.195   0.307   0.010
    1UNL     O1    5   0.307   0.394   0.041
    1UNL     O2    6   0.213   0.200  -0.087
    1UNL     C5    7   0.097   0.121  -0.076
    1UNL     O3    8  -0.017   0.186  -0.140
    1UNL     C6    9   0.059   0.111   0.072
    1UNL     C7   10   0.047  -0.036   0.136
    1UNL     O4   11   0.171  -0.098   0.139
    1UNL     C8   12   0.192  -0.159   0.018
    1UNL     O5   13   0.102  -0.189  -0.058
    1UNL     C9   14   0.332  -0.204  -0.018
    1UNL    C10   15   0.369  -0.238  -0.148
    1UNL    C11   16   0.498  -0.282  -0.173
    1UNL    C12   17   0.591  -0.274  -0.070
    1UNL     O6   18   0.726  -0.311  -0.090
    1UNL    C13   19   0.547  -0.252   0.059
    1UNL    C14   20   0.423  -0.208   0.087
    1UNL    C15   21   0.148   0.219   0.138
    1UNL    C16   22   0.018   0.277   0.202
    1UNL    C17   23  -0.059   0.207   0.083
    1UNL     O7   24  -0.187   0.153   0.121
    1UNL    C18   25  -0.231   0.055   0.019
    1UNL     O8   26  -0.206  -0.083   0.072
    1UNL    C19   27  -0.254  -0.188  -0.012
    1UNL    C20   28  -0.221  -0.327   0.050
    1UNL     O9   29  -0.102  -0.385   0.014
    1UNL    C21   30  -0.402  -0.186  -0.032
    1UNL    O10   31  -0.452  -0.296  -0.114
    1UNL    C22   32  -0.437  -0.057  -0.097
    1UNL    O11   33  -0.576  -0.036  -0.122
    1UNL    C23   34  -0.385   0.060  -0.012
    1UNL    O12   35  -0.445   0.055   0.121
    1UNL     H1   36  -0.173   0.434  -0.175
    1UNL     H2   37  -0.271   0.316  -0.089
    1UNL     H3   38  -0.206   0.447  -0.010
    1UNL     H4   39   0.047   0.495  -0.005
    1UNL     H5   40   0.114   0.407  -0.144
    1UNL     H6   41   0.388   0.346   0.051
    1UNL     H7   42   0.126   0.019  -0.121
    1UNL     H8   43   0.023  -0.032   0.245
    1UNL     H9   44  -0.029  -0.098   0.096
    1UNL    H10   45   0.290  -0.227  -0.230
    1UNL    H11   46   0.542  -0.286  -0.272
    1UNL    H12   47   0.793  -0.297  -0.019
    1UNL    H13   48   0.625  -0.252   0.129
    1UNL    H14   49   0.395  -0.190   0.194
    1UNL    H15   50   0.220   0.159   0.200
    1UNL    H16   51   0.017   0.387   0.189
    1UNL    H17   52  -0.020   0.245   0.299
    1UNL    H18   53  -0.161   0.064  -0.061
    1UNL    H19   54  -0.196  -0.188  -0.106
    1UNL    H20   55  -0.298  -0.402   0.019
    1UNL    H21   56  -0.223  -0.319   0.158
    1UNL    H22   57  -0.031  -0.315  -0.004
    1UNL    H23   58  -0.445  -0.184   0.069
    1UNL    H24   59  -0.539  -0.273  -0.149
    1UNL    H25   60  -0.395  -0.048  -0.199
    1UNL    H26   61  -0.620  -0.036  -0.026
    1UNL    H27   62  -0.411   0.158  -0.056
    1UNL    H28   63  -0.398   0.122   0.168
   0.00000   0.00000   0.00000   0.00000   0.00000   0.00000   0.00000   0.00000   0.00000
Generated with MDTraj, t= 75.0
 63
    1UNL     C1    1  -0.175   0.385  -0.090
    1UNL     C2    2  -0.057   0.294  -0.053
    1UNL     C3    3   0.071   0.378  -0.039
    1UNL     C4    4   0.193   0.290   0.015
    1UNL     O1    5   0.318   0.347   0.040
    1UNL     O2    6   0.208   0.192  -0.094
    1UNL     C5    7   0.085   0.115  -0.097
    1UNL     O3    8  -0.019   0.200  -0.150
    1UNL     C6    9   0.045   0.103   0.054
    1UNL     C7   10   0.056  -0.030   0.130
    1UNL     O4   11   0.184  -0.091   0.133
    1UNL     C8   12   0.210  -0.158   0.016
    1UNL     O5   13   0.121  -0.183  -0.060
    1UNL     C9   14   0.345  -0.203  -0.011
    1UNL    C10   15   0.371  -0.271  -0.132
    1UNL    C11   16   0.505  -0.302  -0.155
    1UNL    C12   17   0.601  -0.283  -0.061
    1UNL     O6   18   0.731  -0.310  -0.086
    1UNL    C13   19   0.565  -0.225   0.056
    1UNL    C14   20   0.440  -0.183   0.092
    1UNL    C15   21   0.135   0.208   0.134
    1UNL    C16   22   0.012   0.264   0.198
    1UNL    C17   23  -0.074   0.208   0.080
    1UNL     O7   24  -0.205   0.159   0.117
    1UNL    C18   25  -0.251   0.050   0.039
    1UNL     O8   26  -0.213  -0.083   0.071
    1UNL    C19   27  -0.254  -0.189  -0.014
    1UNL    C20   28  -0.198  -0.318   0.054
    1UNL     O9   29  -0.083  -0.366  -0.009
    1UNL    C21   30  -0.400  -0.175  -0.048
    1UNL    O10   31  -0.443  -0.272  -0.140
    1UNL    C22   32  -0.449  -0.033  -0.089
    1UNL    O11   33  -0.594  -0.034  -0.092
    1UNL    C23   34  -0.405   0.062   0.017
    1UNL    O12   35  -0.476   0.049   0.140
    1UNL     H1   36  -0.142   0.436  -0.176
    1UNL     H2   37  -0.259   0.319  -0.124
    1UNL     H3   38  -0.213   0.456  -0.022
    1UNL     H4   39   0.047   0.469   0.025
    1UNL     H5   40   0.098   0.428  -0.138
    1UNL     H6   41   0.388   0.291   0.000
    1UNL     H7   42   0.072   0.021  -0.161
    1UNL     H8   43   0.013  -0.017   0.228
    1UNL     H9   44  -0.008  -0.099   0.083
    1UNL    H10   45   0.309  -0.271  -0.213
    1UNL    H11   46   0.534  -0.354  -0.245
    1UNL    H12   47   0.776  -0.272  -0.009
    1UNL    H13   48   0.637  -0.226   0.139
    1UNL    H14   49   0.422  -0.127   0.179
    1UNL    H15   50   0.203   0.151   0.203
    1UNL    H16   51   0.024   0.372   0.219
    1UNL    H17   52  -0.018   0.217   0.295
    1UNL    H18   53  -0.212   0.059  -0.060
    1UNL    H19   54  -0.201  -0.182  -0.111
    1UNL    H20   55  -0.273  -0.399   0.047
    1UNL    H21   56  -0.176  -0.302   0.159
    1UNL    H22   57  -0.015  -0.297  -0.017
    1UNL    H23   58  -0.450  -0.202   0.048
    1UNL    H24   59  -0.537  -0.259  -0.169
    1UNL    H25   60  -0.428  -0.011  -0.199
    1UNL    H26   61  -0.620  -0.027   0.003
    1UNL    H27   62  -0.433   0.165  -0.015
    1UNL    H28   63  -0.410   0.020   0.209
   0.00000   0.00000   0.00000   0.00000   0.00000   0.00000   0.00000   0.00000   0.00000
Generated with MDTraj, t= 76.0
 63
    1UNL     C1    1  -0.181   0.364  -0.081
    1UNL     C2    2  -0.051   0.292  -0.044
    1UNL     C3    3   0.070   0.383  -0.044
    1UNL     C4    4   0.189   0.285   0.000
    1UNL     O1    5   0.310   0.352   0.017
    1UNL     O2    6   0.197   0.175  -0.103
    1UNL     C5    7   0.072   0.096  -0.088
    1UNL     O3    8  -0.027   0.179  -0.144
    1UNL     C6    9   0.047   0.094   0.067
    1UNL     C7   10   0.054  -0.045   0.134
    1UNL     O4   11   0.175  -0.109   0.140
    1UNL     C8   12   0.215  -0.149   0.015
    1UNL     O5   13   0.138  -0.169  -0.078
    1UNL     C9   14   0.351  -0.200  -0.001
    1UNL    C10   15   0.370  -0.281  -0.114
    1UNL    C11   16   0.499  -0.324  -0.132
    1UNL    C12   17   0.607  -0.278  -0.049
    1UNL     O6   18   0.738  -0.325  -0.070
    1UNL    C13   19   0.584  -0.193   0.060
    1UNL    C14   20   0.450  -0.150   0.077
    1UNL    C15   21   0.141   0.212   0.131
    1UNL    C16   22   0.004   0.259   0.202
    1UNL    C17   23  -0.070   0.204   0.086
    1UNL     O7   24  -0.193   0.149   0.121
    1UNL    C18   25  -0.247   0.059   0.029
    1UNL     O8   26  -0.208  -0.068   0.064
    1UNL    C19   27  -0.249  -0.167  -0.034
    1UNL    C20   28  -0.205  -0.305   0.009
    1UNL     O9   29  -0.081  -0.352  -0.036
    1UNL    C21   30  -0.405  -0.165  -0.053
    1UNL    O10   31  -0.450  -0.265  -0.141
    1UNL    C22   32  -0.465  -0.025  -0.081
    1UNL    O11   33  -0.601  -0.035  -0.071
    1UNL    C23   34  -0.409   0.070   0.027
    1UNL    O12   35  -0.466   0.040   0.156
    1UNL     H1   36  -0.176   0.390  -0.180
    1UNL     H2   37  -0.266   0.301  -0.059
    1UNL     H3   38  -0.187   0.458  -0.021
    1UNL     H4   39   0.054   0.470   0.025
    1UNL     H5   40   0.093   0.425  -0.148
    1UNL     H6   41   0.380   0.280   0.002
    1UNL     H7   42   0.076  -0.011  -0.126
    1UNL     H8   43   0.022  -0.038   0.236
    1UNL     H9   44  -0.013  -0.108   0.080
    1UNL    H10   45   0.288  -0.317  -0.185
    1UNL    H11   46   0.516  -0.379  -0.223
    1UNL    H12   47   0.796  -0.299   0.001
    1UNL    H13   48   0.669  -0.173   0.122
    1UNL    H14   49   0.424  -0.078   0.158
    1UNL    H15   50   0.224   0.176   0.198
    1UNL    H16   51  -0.025   0.361   0.224
    1UNL    H17   52  -0.016   0.193   0.293
    1UNL    H18   53  -0.204   0.078  -0.069
    1UNL    H19   54  -0.206  -0.128  -0.128
    1UNL    H20   55  -0.284  -0.372  -0.024
    1UNL    H21   56  -0.212  -0.301   0.116
    1UNL    H22   57  -0.011  -0.281  -0.054
    1UNL    H23   58  -0.445  -0.185   0.050
    1UNL    H24   59  -0.548  -0.246  -0.151
    1UNL    H25   60  -0.434   0.001  -0.189
    1UNL    H26   61  -0.612  -0.031   0.021
    1UNL    H27   62  -0.429   0.180   0.017
    1UNL    H28   63  -0.400  -0.018   0.207
   0.00000   0.00000   0.00000   0.00000   0.00000   0.00000   0.00000   0.00000   0.00000
Generated with MDTraj, t= 77.0
 63
    1UNL     C1    1  -0.192   0.367  -0.068
    1UNL     C2    2  -0.062   0.280  -0.049
    1UNL     C3    3   0.065   0.371  -0.054
    1UNL     C4    4   0.186   0.285  -0.007
    1UNL     O1    5   0.307   0.369  -0.005
    1UNL     O2    6   0.190   0.185  -0.105
    1UNL     C5    7   0.078   0.103  -0.090
    1UNL     O3    8  -0.041   0.184  -0.149
    1UNL     C6    9   0.054   0.096   0.072
    1UNL     C7   10   0.065  -0.032   0.147
    1UNL     O4   11   0.194  -0.089   0.139
    1UNL     C8   12   0.218  -0.149   0.020
    1UNL     O5   13   0.131  -0.183  -0.058
    1UNL     C9   14   0.355  -0.187   0.002
    1UNL    C10   15   0.373  -0.292  -0.083
    1UNL    C11   16   0.500  -0.340  -0.108
    1UNL    C12   17   0.607  -0.279  -0.033
    1UNL     O6   18   0.739  -0.324  -0.049
    1UNL    C13   19   0.580  -0.179   0.059
    1UNL    C14   20   0.454  -0.135   0.073
    1UNL    C15   21   0.143   0.211   0.124
    1UNL    C16   22   0.017   0.271   0.202
    1UNL    C17   23  -0.064   0.198   0.089
    1UNL     O7   24  -0.182   0.135   0.127
    1UNL    C18   25  -0.235   0.041   0.033
    1UNL     O8   26  -0.206  -0.096   0.051
    1UNL    C19   27  -0.257  -0.172  -0.057
    1UNL    C20   28  -0.228  -0.319  -0.042
    1UNL     O9   29  -0.111  -0.360  -0.103
    1UNL    C21   30  -0.416  -0.164  -0.045
    1UNL    O10   31  -0.473  -0.249  -0.139
    1UNL    C22   32  -0.464  -0.025  -0.060
    1UNL    O11   33  -0.603  -0.017  -0.069
    1UNL    C23   34  -0.393   0.060   0.044
    1UNL    O12   35  -0.424   0.028   0.173
    1UNL     H1   36  -0.193   0.449  -0.138
    1UNL     H2   37  -0.274   0.306  -0.079
    1UNL     H3   38  -0.203   0.417   0.032
    1UNL     H4   39   0.069   0.467   0.003
    1UNL     H5   40   0.086   0.401  -0.163
    1UNL     H6   41   0.385   0.304   0.002
    1UNL     H7   42   0.109   0.002  -0.128
    1UNL     H8   43   0.046  -0.021   0.249
    1UNL     H9   44  -0.003  -0.101   0.100
    1UNL    H10   45   0.291  -0.314  -0.143
    1UNL    H11   46   0.513  -0.422  -0.178
    1UNL    H12   47   0.787  -0.279   0.022
    1UNL    H13   48   0.648  -0.129   0.129
    1UNL    H14   49   0.427  -0.053   0.134
    1UNL    H15   50   0.228   0.182   0.192
    1UNL    H16   51   0.018   0.379   0.199
    1UNL    H17   52  -0.008   0.230   0.307
    1UNL    H18   53  -0.204   0.061  -0.070
    1UNL    H19   54  -0.212  -0.145  -0.155
    1UNL    H20   55  -0.310  -0.376  -0.087
    1UNL    H21   56  -0.222  -0.351   0.061
    1UNL    H22   57  -0.039  -0.301  -0.076
    1UNL    H23   58  -0.440  -0.199   0.059
    1UNL    H24   59  -0.562  -0.216  -0.160
    1UNL    H25   60  -0.438   0.002  -0.171
    1UNL    H26   61  -0.635  -0.033   0.024
    1UNL    H27   62  -0.432   0.163   0.033
    1UNL    H28   63  -0.377   0.076   0.242
   0.00000   0.00000   0.00000   0.00000   0.00000   0.00000   0.00000   0.00000   0.00000
Generated with MDTraj, t= 78.0
 63
    1UNL     C1    1  -0.207   0.354  -0.080
    1UNL     C2    2  -0.078   0.279  -0.049
    1UNL     C3    3   0.045   0.381  -0.053
    1UNL     C4    4   0.184   0.306  -0.020
    1UNL     O1    5   0.296   0.390  -0.006
    1UNL     O2    6   0.200   0.200  -0.119
    1UNL     C5    7   0.088   0.110  -0.100
    1UNL     O3    8  -0.038   0.177  -0.150
    1UNL     C6    9   0.066   0.100   0.056
    1UNL     C7   10   0.067  -0.032   0.133
    1UNL     O4   11   0.194  -0.092   0.142
    1UNL     C8   12   0.221  -0.172   0.036
    1UNL     O5   13   0.136  -0.210  -0.042
    1UNL     C9   14   0.359  -0.213   0.018
    1UNL    C10   15   0.387  -0.320  -0.062
    1UNL    C11   16   0.516  -0.361  -0.093
    1UNL    C12   17   0.614  -0.283  -0.030
    1UNL     O6   18   0.750  -0.315  -0.037
    1UNL    C13   19   0.584  -0.181   0.066
    1UNL    C14   20   0.453  -0.143   0.083
    1UNL    C15   21   0.160   0.220   0.111
    1UNL    C16   22   0.032   0.262   0.192
    1UNL    C17   23  -0.058   0.195   0.085
    1UNL     O7   24  -0.178   0.129   0.136
    1UNL    C18   25  -0.240   0.042   0.043
    1UNL     O8   26  -0.201  -0.096   0.037
    1UNL    C19   27  -0.267  -0.177  -0.060
    1UNL    C20   28  -0.213  -0.319  -0.067
    1UNL     O9   29  -0.098  -0.322  -0.144
    1UNL    C21   30  -0.428  -0.159  -0.052
    1UNL    O10   31  -0.506  -0.240  -0.141
    1UNL    C22   32  -0.471  -0.011  -0.057
    1UNL    O11   33  -0.616  -0.005  -0.034
    1UNL    C23   34  -0.397   0.063   0.063
    1UNL    O12   35  -0.434   0.014   0.186
    1UNL     H1   36  -0.219   0.401  -0.180
    1UNL     H2   37  -0.295   0.294  -0.065
    1UNL     H3   38  -0.212   0.434  -0.008
    1UNL     H4   39   0.033   0.467   0.018
    1UNL     H5   40   0.065   0.435  -0.150
    1UNL     H6   41   0.305   0.445  -0.090
    1UNL     H7   42   0.098   0.019  -0.158
    1UNL     H8   43   0.053   0.001   0.232
    1UNL     H9   44  -0.007  -0.108   0.111
    1UNL    H10   45   0.303  -0.357  -0.127
    1UNL    H11   46   0.544  -0.436  -0.165
    1UNL    H12   47   0.807  -0.259   0.019
    1UNL    H13   48   0.662  -0.131   0.119
    1UNL    H14   49   0.424  -0.056   0.145
    1UNL    H15   50   0.250   0.188   0.172
    1UNL    H16   51   0.023   0.371   0.213
    1UNL    H17   52   0.008   0.212   0.291
    1UNL    H18   53  -0.205   0.078  -0.056
    1UNL    H19   54  -0.241  -0.144  -0.161
    1UNL    H20   55  -0.279  -0.395  -0.114
    1UNL    H21   56  -0.196  -0.357   0.033
    1UNL    H22   57  -0.017  -0.275  -0.107
    1UNL    H23   58  -0.464  -0.193   0.049
    1UNL    H24   59  -0.599  -0.211  -0.143
    1UNL    H25   60  -0.460   0.044  -0.159
    1UNL    H26   61  -0.631  -0.001   0.069
    1UNL    H27   62  -0.398   0.173   0.073
    1UNL    H28   63  -0.381  -0.063   0.205
   0.00000   0.00000   0.00000   0.00000   0.00000   0.00000   0.00000   0.00000   0.00000
Generated with MDTraj, t= 79.0
 63
    1UNL     C1    1  -0.205   0.339  -0.089
    1UNL     C2    2  -0.072   0.281  -0.055
    1UNL     C3    3   0.044   0.388  -0.067
    1UNL     C4    4   0.171   0.302  -0.026
    1UNL     O1    5   0.282   0.379  -0.008
    1UNL     O2    6   0.185   0.194  -0.128
    1UNL     C5    7   0.068   0.107  -0.103
    1UNL     O3    8  -0.041   0.172  -0.146
    1UNL     C6    9   0.050   0.108   0.060
    1UNL     C7   10   0.063  -0.028   0.126
    1UNL     O4   11   0.205  -0.079   0.129
    1UNL     C8   12   0.232  -0.183   0.039
    1UNL     O5   13   0.149  -0.235  -0.033
    1UNL     C9   14   0.370  -0.232   0.029
    1UNL    C10   15   0.396  -0.336  -0.059
    1UNL    C11   16   0.529  -0.365  -0.069
    1UNL    C12   17   0.637  -0.298  -0.014
    1UNL     O6   18   0.769  -0.322  -0.037
    1UNL    C13   19   0.602  -0.197   0.078
    1UNL    C14   20   0.471  -0.153   0.094
    1UNL    C15   21   0.142   0.227   0.115
    1UNL    C16   22   0.027   0.277   0.192
    1UNL    C17   23  -0.071   0.204   0.086
    1UNL     O7   24  -0.189   0.143   0.140
    1UNL    C18   25  -0.249   0.056   0.044
    1UNL     O8   26  -0.200  -0.074   0.022
    1UNL    C19   27  -0.270  -0.148  -0.083
    1UNL    C20   28  -0.213  -0.283  -0.100
    1UNL     O9   29  -0.101  -0.306  -0.190
    1UNL    C21   30  -0.425  -0.156  -0.048
    1UNL    O10   31  -0.498  -0.224  -0.153
    1UNL    C22   32  -0.482  -0.018  -0.032
    1UNL    O11   33  -0.617  -0.023   0.016
    1UNL    C23   34  -0.404   0.060   0.078
    1UNL    O12   35  -0.434   0.003   0.201
    1UNL     H1   36  -0.202   0.404  -0.181
    1UNL     H2   37  -0.261   0.252  -0.136
    1UNL     H3   38  -0.267   0.386  -0.019
    1UNL     H4   39   0.038   0.478   0.001
    1UNL     H5   40   0.051   0.432  -0.167
    1UNL     H6   41   0.352   0.367  -0.078
    1UNL     H7   42   0.075   0.012  -0.150
    1UNL     H8   43   0.019  -0.026   0.222
    1UNL     H9   44   0.000  -0.099   0.070
    1UNL    H10   45   0.323  -0.377  -0.124
    1UNL    H11   46   0.548  -0.437  -0.148
    1UNL    H12   47   0.835  -0.260   0.004
    1UNL    H13   48   0.675  -0.142   0.138
    1UNL    H14   49   0.447  -0.064   0.146
    1UNL    H15   50   0.232   0.182   0.167
    1UNL    H16   51   0.011   0.391   0.193
    1UNL    H17   52   0.027   0.236   0.295
    1UNL    H18   53  -0.242   0.105  -0.055
    1UNL    H19   54  -0.253  -0.101  -0.180
    1UNL    H20   55  -0.293  -0.356  -0.131
    1UNL    H21   56  -0.183  -0.322  -0.003
    1UNL    H22   57  -0.021  -0.272  -0.145
    1UNL    H23   58  -0.434  -0.218   0.043
    1UNL    H24   59  -0.596  -0.219  -0.134
    1UNL    H25   60  -0.484   0.036  -0.135
    1UNL    H26   61  -0.624  -0.035   0.114
    1UNL    H27   62  -0.451   0.159   0.080
    1UNL    H28   63  -0.352  -0.033   0.247
   0.00000   0.00000   0.00000   0.00000   0.00000   0.00000   0.00000   0.00000   0.00000
Generated with MDTraj, t= 80.0
 63
    1UNL     C1    1  -0.207   0.360  -0.066
    1UNL     C2    2  -0.069   0.290  -0.061
    1UNL     C3    3   0.061   0.373  -0.072
    1UNL     C4    4   0.184   0.288  -0.037
    1UNL     O1    5   0.300   0.374  -0.016
    1UNL     O2    6   0.180   0.181  -0.138
    1UNL     C5    7   0.060   0.105  -0.113
    1UNL     O3    8  -0.057   0.181  -0.157
    1UNL     C6    9   0.052   0.100   0.047
    1UNL     C7   10   0.059  -0.038   0.120
    1UNL     O4   11   0.195  -0.068   0.135
    1UNL     C8   12   0.230  -0.159   0.038
    1UNL     O5   13   0.146  -0.223  -0.024
    1UNL     C9   14   0.371  -0.209   0.023
    1UNL    C10   15   0.394  -0.321  -0.059
    1UNL    C11   16   0.526  -0.364  -0.071
    1UNL    C12   17   0.629  -0.304   0.001
    1UNL     O6   18   0.761  -0.349  -0.005
    1UNL    C13   19   0.599  -0.194   0.079
    1UNL    C14   20   0.471  -0.147   0.098
    1UNL    C15   21   0.156   0.209   0.097
    1UNL    C16   22   0.037   0.268   0.183
    1UNL    C17   23  -0.062   0.200   0.076
    1UNL     O7   24  -0.188   0.150   0.125
    1UNL    C18   25  -0.265   0.063   0.039
    1UNL     O8   26  -0.209  -0.071   0.020
    1UNL    C19   27  -0.281  -0.145  -0.086
    1UNL    C20   28  -0.210  -0.267  -0.129
    1UNL     O9   29  -0.083  -0.233  -0.176
    1UNL    C21   30  -0.430  -0.171  -0.049
    1UNL    O10   31  -0.498  -0.227  -0.166
    1UNL    C22   32  -0.496  -0.041  -0.007
    1UNL    O11   33  -0.624  -0.050   0.033
    1UNL    C23   34  -0.413   0.042   0.091
    1UNL    O12   35  -0.404  -0.028   0.211
    1UNL     H1   36  -0.244   0.384  -0.168
    1UNL     H2   37  -0.286   0.292  -0.027
    1UNL     H3   38  -0.204   0.449  -0.006
    1UNL     H4   39   0.061   0.460  -0.001
    1UNL     H5   40   0.077   0.409  -0.173
    1UNL     H6   41   0.330   0.416  -0.099
    1UNL     H7   42   0.067   0.008  -0.154
    1UNL     H8   43   0.033  -0.025   0.224
    1UNL     H9   44  -0.008  -0.123   0.086
    1UNL    H10   45   0.316  -0.360  -0.125
    1UNL    H11   46   0.566  -0.447  -0.122
    1UNL    H12   47   0.825  -0.281   0.033
    1UNL    H13   48   0.677  -0.163   0.147
    1UNL    H14   49   0.451  -0.060   0.163
    1UNL    H15   50   0.244   0.148   0.136
    1UNL    H16   51   0.045   0.383   0.186
    1UNL    H17   52   0.028   0.225   0.283
    1UNL    H18   53  -0.250   0.120  -0.056
    1UNL    H19   54  -0.283  -0.072  -0.167
    1UNL    H20   55  -0.266  -0.312  -0.215
    1UNL    H21   56  -0.215  -0.347  -0.054
    1UNL    H22   57  -0.012  -0.231  -0.108
    1UNL    H23   58  -0.432  -0.239   0.037
    1UNL    H24   59  -0.594  -0.234  -0.140
    1UNL    H25   60  -0.482   0.020  -0.103
    1UNL    H26   61  -0.637  -0.077   0.122
    1UNL    H27   62  -0.469   0.135   0.110
    1UNL    H28   63  -0.365   0.027   0.282
   0.00000   0.00000   0.00000   0.00000   0.00000   0.00000   0.00000   0.00000   0.00000
Generated with MDTraj, t= 81.0
 63
    1UNL     C1    1  -0.214   0.374  -0.078
    1UNL     C2    2  -0.085   0.285  -0.052
    1UNL     C3    3   0.049   0.364  -0.072
    1UNL     C4    4   0.174   0.275  -0.046
    1UNL     O1    5   0.295   0.354  -0.060
    1UNL     O2    6   0.169   0.166  -0.136
    1UNL     C5    7   0.048   0.099  -0.109
    1UNL     O3    8  -0.073   0.181  -0.150
    1UNL     C6    9   0.040   0.101   0.050
    1UNL     C7   10   0.046  -0.037   0.122
    1UNL     O4   11   0.178  -0.089   0.135
    1UNL     C8   12   0.218  -0.161   0.029
    1UNL     O5   13   0.136  -0.200  -0.052
    1UNL     C9   14   0.354  -0.211   0.035
    1UNL    C10   15   0.398  -0.313  -0.059
    1UNL    C11   16   0.523  -0.365  -0.062
    1UNL    C12   17   0.620  -0.303   0.017
    1UNL     O6   18   0.748  -0.349   0.025
    1UNL    C13   19   0.582  -0.196   0.098
    1UNL    C14   20   0.454  -0.153   0.107
    1UNL    C15   21   0.151   0.202   0.096
    1UNL    C16   22   0.046   0.266   0.187
    1UNL    C17   23  -0.069   0.213   0.088
    1UNL     O7   24  -0.188   0.160   0.139
    1UNL    C18   25  -0.250   0.067   0.050
    1UNL     O8   26  -0.186  -0.052   0.003
    1UNL    C19   27  -0.262  -0.125  -0.106
    1UNL    C20   28  -0.195  -0.244  -0.168
    1UNL     O9   29  -0.081  -0.217  -0.233
    1UNL    C21   30  -0.397  -0.164  -0.039
    1UNL    O10   31  -0.477  -0.236  -0.138
    1UNL    C22   32  -0.479  -0.031  -0.001
    1UNL    O11   33  -0.602  -0.078   0.049
    1UNL    C23   34  -0.389   0.044   0.110
    1UNL    O12   35  -0.381  -0.036   0.225
    1UNL     H1   36  -0.208   0.436  -0.167
    1UNL     H2   37  -0.310   0.325  -0.087
    1UNL     H3   38  -0.214   0.446   0.013
    1UNL     H4   39   0.054   0.450  -0.007
    1UNL     H5   40   0.054   0.396  -0.177
    1UNL     H6   41   0.358   0.286  -0.082
    1UNL     H7   42   0.044   0.008  -0.163
    1UNL     H8   43  -0.006  -0.043   0.221
    1UNL     H9   44  -0.015  -0.111   0.058
    1UNL    H10   45   0.325  -0.348  -0.131
    1UNL    H11   46   0.545  -0.440  -0.141
    1UNL    H12   47   0.797  -0.293   0.092
    1UNL    H13   48   0.658  -0.142   0.152
    1UNL    H14   49   0.431  -0.081   0.182
    1UNL    H15   50   0.251   0.175   0.142
    1UNL    H16   51   0.076   0.375   0.193
    1UNL    H17   52   0.035   0.233   0.291
    1UNL    H18   53  -0.260   0.135  -0.040
    1UNL    H19   54  -0.291  -0.048  -0.178
    1UNL    H20   55  -0.265  -0.293  -0.240
    1UNL    H21   56  -0.182  -0.321  -0.090
    1UNL    H22   57  -0.004  -0.214  -0.167
    1UNL    H23   58  -0.385  -0.230   0.045
    1UNL    H24   59  -0.569  -0.237  -0.111
    1UNL    H25   60  -0.508   0.033  -0.089
    1UNL    H26   61  -0.603  -0.092   0.153
    1UNL    H27   62  -0.446   0.134   0.135
    1UNL    H28   63  -0.309  -0.098   0.213
   0.00000   0.00000   0.00000   0.00000   0.00000   0.00000   0.00000   0.00000   0.00000
Generated with MDTraj, t= 82.0
 63
    1UNL     C1    1  -0.196   0.367  -0.064
    1UNL     C2    2  -0.068   0.292  -0.056
    1UNL     C3    3   0.058   0.380  -0.080
    1UNL     C4    4   0.176   0.277  -0.057
    1UNL     O1    5   0.294   0.343  -0.073
    1UNL     O2    6   0.171   0.171  -0.154
    1UNL     C5    7   0.046   0.098  -0.124
    1UNL     O3    8  -0.062   0.185  -0.156
    1UNL     C6    9   0.043   0.098   0.034
    1UNL     C7   10   0.039  -0.039   0.108
    1UNL     O4   11   0.170  -0.080   0.135
    1UNL     C8   12   0.207  -0.152   0.028
    1UNL     O5   13   0.148  -0.164  -0.077
    1UNL     C9   14   0.339  -0.215   0.031
    1UNL    C10   15   0.382  -0.309  -0.061
    1UNL    C11   16   0.512  -0.362  -0.057
    1UNL    C12   17   0.608  -0.301   0.042
    1UNL     O6   18   0.742  -0.337   0.041
    1UNL    C13   19   0.561  -0.205   0.136
    1UNL    C14   20   0.426  -0.178   0.132
    1UNL    C15   21   0.155   0.199   0.079
    1UNL    C16   22   0.050   0.253   0.180
    1UNL    C17   23  -0.059   0.209   0.084
    1UNL     O7   24  -0.177   0.145   0.139
    1UNL    C18   25  -0.255   0.064   0.047
    1UNL     O8   26  -0.180  -0.044  -0.009
    1UNL    C19   27  -0.264  -0.118  -0.104
    1UNL    C20   28  -0.182  -0.226  -0.160
    1UNL     O9   29  -0.089  -0.179  -0.254
    1UNL    C21   30  -0.398  -0.162  -0.042
    1UNL    O10   31  -0.484  -0.232  -0.136
    1UNL    C22   32  -0.477  -0.050   0.021
    1UNL    O11   33  -0.585  -0.102   0.092
    1UNL    C23   34  -0.386   0.019   0.120
    1UNL    O12   35  -0.375  -0.063   0.227
    1UNL     H1   36  -0.215   0.408  -0.163
    1UNL     H2   37  -0.283   0.304  -0.055
    1UNL     H3   38  -0.200   0.457   0.009
    1UNL     H4   39   0.064   0.469  -0.024
    1UNL     H5   40   0.061   0.400  -0.187
    1UNL     H6   41   0.340   0.286  -0.134
    1UNL     H7   42   0.045   0.005  -0.173
    1UNL     H8   43  -0.020  -0.036   0.204
    1UNL     H9   44  -0.014  -0.114   0.038
    1UNL    H10   45   0.322  -0.314  -0.151
    1UNL    H11   46   0.542  -0.438  -0.125
    1UNL    H12   47   0.782  -0.298   0.122
    1UNL    H13   48   0.632  -0.175   0.212
    1UNL    H14   49   0.381  -0.097   0.188
    1UNL    H15   50   0.256   0.172   0.120
    1UNL    H16   51   0.027   0.360   0.186
    1UNL    H17   52   0.048   0.212   0.284
    1UNL    H18   53  -0.284   0.137  -0.033
    1UNL    H19   54  -0.280  -0.046  -0.187
    1UNL    H20   55  -0.248  -0.294  -0.215
    1UNL    H21   56  -0.133  -0.288  -0.085
    1UNL    H22   57  -0.000  -0.184  -0.214
    1UNL    H23   58  -0.374  -0.235   0.033
    1UNL    H24   59  -0.576  -0.241  -0.103
    1UNL    H25   60  -0.514   0.026  -0.048
    1UNL    H26   61  -0.557  -0.122   0.185
    1UNL    H27   62  -0.442   0.110   0.152
    1UNL    H28   63  -0.279  -0.059   0.243
   0.00000   0.00000   0.00000   0.00000   0.00000   0.00000   0.00000   0.00000   0.00000
Generated with MDTraj, t= 83.0
 63
    1UNL     C1    1  -0.199   0.385  -0.058
    1UNL     C2    2  -0.073   0.306  -0.072
    1UNL     C3    3   0.064   0.381  -0.088
    1UNL     C4    4   0.183   0.282  -0.056
    1UNL     O1    5   0.304   0.362  -0.041
    1UNL     O2    6   0.172   0.178  -0.158
    1UNL     C5    7   0.044   0.115  -0.140
    1UNL     O3    8  -0.068   0.202  -0.175
    1UNL     C6    9   0.043   0.099   0.019
    1UNL     C7   10   0.038  -0.038   0.086
    1UNL     O4   11   0.164  -0.087   0.127
    1UNL     C8   12   0.214  -0.159   0.026
    1UNL     O5   13   0.148  -0.186  -0.072
    1UNL     C9   14   0.354  -0.207   0.028
    1UNL    C10   15   0.416  -0.276  -0.078
    1UNL    C11   16   0.540  -0.334  -0.064
    1UNL    C12   17   0.617  -0.305   0.047
    1UNL     O6   18   0.737  -0.374   0.075
    1UNL    C13   19   0.555  -0.237   0.155
    1UNL    C14   20   0.434  -0.192   0.142
    1UNL    C15   21   0.146   0.201   0.076
    1UNL    C16   22   0.036   0.259   0.167
    1UNL    C17   23  -0.064   0.205   0.058
    1UNL     O7   24  -0.183   0.153   0.122
    1UNL    C18   25  -0.259   0.064   0.044
    1UNL     O8   26  -0.195  -0.048  -0.018
    1UNL    C19   27  -0.287  -0.113  -0.112
    1UNL    C20   28  -0.213  -0.228  -0.176
    1UNL     O9   29  -0.093  -0.184  -0.234
    1UNL    C21   30  -0.405  -0.172  -0.036
    1UNL    O10   31  -0.497  -0.228  -0.134
    1UNL    C22   32  -0.484  -0.063   0.042
    1UNL    O11   33  -0.589  -0.114   0.122
    1UNL    C23   34  -0.376   0.019   0.127
    1UNL    O12   35  -0.330  -0.074   0.232
    1UNL     H1   36  -0.215   0.434  -0.156
    1UNL     H2   37  -0.294   0.329  -0.043
    1UNL     H3   38  -0.183   0.469   0.015
    1UNL     H4   39   0.067   0.452  -0.010
    1UNL     H5   40   0.083   0.422  -0.185
    1UNL     H6   41   0.341   0.376  -0.129
    1UNL     H7   42   0.037   0.022  -0.188
    1UNL     H8   43  -0.032  -0.027   0.176
    1UNL     H9   44  -0.006  -0.115   0.013
    1UNL    H10   45   0.361  -0.282  -0.173
    1UNL    H11   46   0.591  -0.377  -0.150
    1UNL    H12   47   0.773  -0.334   0.155
    1UNL    H13   48   0.611  -0.211   0.243
    1UNL    H14   49   0.389  -0.140   0.226
    1UNL    H15   50   0.230   0.146   0.123
    1UNL    H16   51   0.047   0.364   0.181
    1UNL    H17   52   0.040   0.203   0.263
    1UNL    H18   53  -0.285   0.132  -0.043
    1UNL    H19   54  -0.315  -0.038  -0.189
    1UNL    H20   55  -0.268  -0.273  -0.258
    1UNL    H21   56  -0.190  -0.313  -0.112
    1UNL    H22   57  -0.016  -0.172  -0.172
    1UNL    H23   58  -0.384  -0.254   0.032
    1UNL    H24   59  -0.584  -0.224  -0.083
    1UNL    H25   60  -0.532  -0.001  -0.031
    1UNL    H26   61  -0.550  -0.150   0.197
    1UNL    H27   62  -0.423   0.099   0.190
    1UNL    H28   63  -0.236  -0.100   0.210
   0.00000   0.00000   0.00000   0.00000   0.00000   0.00000   0.00000   0.00000   0.00000
Generated with MDTraj, t= 84.0
 63
    1UNL     C1    1  -0.218   0.376  -0.095
    1UNL     C2    2  -0.084   0.294  -0.068
    1UNL     C3    3   0.044   0.381  -0.079
    1UNL     C4    4   0.177   0.295  -0.048
    1UNL     O1    5   0.299   0.371  -0.047
    1UNL     O2    6   0.176   0.194  -0.153
    1UNL     C5    7   0.056   0.126  -0.130
    1UNL     O3    8  -0.062   0.202  -0.174
    1UNL     C6    9   0.048   0.108   0.027
    1UNL     C7   10   0.048  -0.037   0.082
    1UNL     O4   11   0.184  -0.078   0.101
    1UNL     C8   12   0.225  -0.165  -0.000
    1UNL     O5   13   0.154  -0.195  -0.094
    1UNL     C9   14   0.363  -0.224   0.017
    1UNL    C10   15   0.441  -0.274  -0.089
    1UNL    C11   16   0.567  -0.320  -0.066
    1UNL    C12   17   0.618  -0.328   0.059
    1UNL     O6   18   0.740  -0.371   0.095
    1UNL    C13   19   0.539  -0.272   0.162
    1UNL    C14   20   0.412  -0.224   0.150
    1UNL    C15   21   0.147   0.211   0.086
    1UNL    C16   22   0.033   0.278   0.173
    1UNL    C17   23  -0.070   0.212   0.065
    1UNL     O7   24  -0.190   0.151   0.130
    1UNL    C18   25  -0.270   0.076   0.039
    1UNL     O8   26  -0.203  -0.031  -0.030
    1UNL    C19   27  -0.292  -0.111  -0.105
    1UNL    C20   28  -0.226  -0.235  -0.169
    1UNL     O9   29  -0.100  -0.191  -0.237
    1UNL    C21   30  -0.414  -0.160  -0.031
    1UNL    O10   31  -0.498  -0.231  -0.124
    1UNL    C22   32  -0.483  -0.059   0.053
    1UNL    O11   33  -0.588  -0.122   0.122
    1UNL    C23   34  -0.375   0.016   0.136
    1UNL    O12   35  -0.309  -0.072   0.227
    1UNL     H1   36  -0.202   0.459  -0.171
    1UNL     H2   37  -0.289   0.303  -0.148
    1UNL     H3   38  -0.259   0.426  -0.009
    1UNL     H4   39   0.047   0.469  -0.019
    1UNL     H5   40   0.051   0.396  -0.181
    1UNL     H6   41   0.364   0.343  -0.118
    1UNL     H7   42   0.045   0.031  -0.174
    1UNL     H8   43   0.011  -0.035   0.189
    1UNL     H9   44  -0.009  -0.114   0.021
    1UNL    H10   45   0.404  -0.252  -0.185
    1UNL    H11   46   0.629  -0.358  -0.143
    1UNL    H12   47   0.765  -0.351   0.186
    1UNL    H13   48   0.593  -0.285   0.260
    1UNL    H14   49   0.362  -0.172   0.229
    1UNL    H15   50   0.234   0.159   0.130
    1UNL    H16   51   0.046   0.382   0.180
    1UNL    H17   52   0.026   0.225   0.270
    1UNL    H18   53  -0.327   0.148  -0.028
    1UNL    H19   54  -0.326  -0.043  -0.185
    1UNL    H20   55  -0.293  -0.280  -0.242
    1UNL    H21   56  -0.195  -0.311  -0.098
    1UNL    H22   57  -0.020  -0.201  -0.181
    1UNL    H23   58  -0.388  -0.244   0.037
    1UNL    H24   59  -0.590  -0.239  -0.090
    1UNL    H25   60  -0.528   0.010  -0.013
    1UNL    H26   61  -0.542  -0.159   0.204
    1UNL    H27   62  -0.421   0.097   0.200
    1UNL    H28   63  -0.234  -0.022   0.267
   0.00000   0.00000   0.00000   0.00000   0.00000   0.00000   0.00000   0.00000   0.00000
Generated with MDTraj, t= 85.0
 63
    1UNL     C1    1  -0.215   0.360  -0.094
    1UNL     C2    2  -0.078   0.297  -0.072
    1UNL     C3    3   0.038   0.400  -0.087
    1UNL     C4    4   0.170   0.311  -0.062
    1UNL     O1    5   0.283   0.394  -0.049
    1UNL     O2    6   0.176   0.205  -0.163
    1UNL     C5    7   0.059   0.119  -0.134
    1UNL     O3    8  -0.050   0.187  -0.175
    1UNL     C6    9   0.050   0.108   0.019
    1UNL     C7   10   0.048  -0.027   0.085
    1UNL     O4   11   0.174  -0.089   0.114
    1UNL     C8   12   0.228  -0.152  -0.002
    1UNL     O5   13   0.170  -0.160  -0.110
    1UNL     C9   14   0.346  -0.233   0.024
    1UNL    C10   15   0.421  -0.259  -0.089
    1UNL    C11   16   0.542  -0.305  -0.067
    1UNL    C12   17   0.604  -0.328   0.060
    1UNL     O6   18   0.732  -0.375   0.079
    1UNL    C13   19   0.522  -0.303   0.170
    1UNL    C14   20   0.395  -0.250   0.158
    1UNL    C15   21   0.151   0.215   0.068
    1UNL    C16   22   0.042   0.261   0.170
    1UNL    C17   23  -0.063   0.210   0.067
    1UNL     O7   24  -0.175   0.149   0.128
    1UNL    C18   25  -0.253   0.062   0.048
    1UNL     O8   26  -0.193  -0.060   0.004
    1UNL    C19   27  -0.268  -0.127  -0.092
    1UNL    C20   28  -0.185  -0.233  -0.166
    1UNL     O9   29  -0.093  -0.171  -0.256
    1UNL    C21   30  -0.398  -0.180  -0.025
    1UNL    O10   31  -0.489  -0.242  -0.109
    1UNL    C22   32  -0.479  -0.062   0.041
    1UNL    O11   33  -0.586  -0.111   0.126
    1UNL    C23   34  -0.386   0.026   0.124
    1UNL    O12   35  -0.355  -0.054   0.241
    1UNL     H1   36  -0.236   0.385  -0.205
    1UNL     H2   37  -0.288   0.282  -0.063
    1UNL     H3   38  -0.220   0.452  -0.040
    1UNL     H4   39   0.045   0.478  -0.013
    1UNL     H5   40   0.049   0.437  -0.182
    1UNL     H6   41   0.363   0.330  -0.051
    1UNL     H7   42   0.076   0.034  -0.192
    1UNL     H8   43  -0.014  -0.024   0.178
    1UNL     H9   44   0.003  -0.096   0.010
    1UNL    H10   45   0.372  -0.247  -0.188
    1UNL    H11   46   0.603  -0.323  -0.155
    1UNL    H12   47   0.746  -0.385   0.174
    1UNL    H13   48   0.555  -0.316   0.267
    1UNL    H14   49   0.336  -0.238   0.250
    1UNL    H15   50   0.242   0.186   0.124
    1UNL    H16   51   0.034   0.366   0.185
    1UNL    H17   52   0.040   0.211   0.266
    1UNL    H18   53  -0.291   0.116  -0.045
    1UNL    H19   54  -0.288  -0.044  -0.162
    1UNL    H20   55  -0.252  -0.291  -0.230
    1UNL    H21   56  -0.128  -0.301  -0.099
    1UNL    H22   57  -0.007  -0.147  -0.218
    1UNL    H23   58  -0.371  -0.247   0.060
    1UNL    H24   59  -0.575  -0.255  -0.068
    1UNL    H25   60  -0.535  -0.007  -0.028
    1UNL    H26   61  -0.533  -0.150   0.206
    1UNL    H27   62  -0.429   0.122   0.158
    1UNL    H28   63  -0.274  -0.025   0.285
   0.00000   0.00000   0.00000   0.00000   0.00000   0.00000   0.00000   0.00000   0.00000
Generated with MDTraj, t= 86.0
 63
    1UNL     C1    1  -0.204   0.378  -0.058
    1UNL     C2    2  -0.077   0.296  -0.059
    1UNL     C3    3   0.046   0.388  -0.082
    1UNL     C4    4   0.171   0.298  -0.059
    1UNL     O1    5   0.286   0.382  -0.063
    1UNL     O2    6   0.163   0.193  -0.158
    1UNL     C5    7   0.048   0.117  -0.130
    1UNL     O3    8  -0.071   0.196  -0.161
    1UNL     C6    9   0.054   0.113   0.034
    1UNL     C7   10   0.060  -0.013   0.112
    1UNL     O4   11   0.180  -0.076   0.128
    1UNL     C8   12   0.225  -0.137   0.012
    1UNL     O5   13   0.162  -0.147  -0.091
    1UNL     C9   14   0.354  -0.206   0.019
    1UNL    C10   15   0.425  -0.238  -0.094
    1UNL    C11   16   0.548  -0.295  -0.083
    1UNL    C12   17   0.589  -0.341   0.044
    1UNL     O6   18   0.711  -0.412   0.064
    1UNL    C13   19   0.515  -0.310   0.160
    1UNL    C14   20   0.398  -0.244   0.138
    1UNL    C15   21   0.155   0.222   0.077
    1UNL    C16   22   0.039   0.279   0.170
    1UNL    C17   23  -0.064   0.218   0.074
    1UNL     O7   24  -0.184   0.159   0.120
    1UNL    C18   25  -0.255   0.065   0.039
    1UNL     O8   26  -0.183  -0.053  -0.002
    1UNL    C19   27  -0.261  -0.134  -0.094
    1UNL    C20   28  -0.173  -0.253  -0.166
    1UNL     O9   29  -0.067  -0.215  -0.249
    1UNL    C21   30  -0.390  -0.188  -0.020
    1UNL    O10   31  -0.469  -0.277  -0.092
    1UNL    C22   32  -0.478  -0.064   0.020
    1UNL    O11   33  -0.586  -0.113   0.101
    1UNL    C23   34  -0.392   0.029   0.099
    1UNL    O12   35  -0.380  -0.024   0.231
    1UNL     H1   36  -0.213   0.459  -0.138
    1UNL     H2   37  -0.289   0.314  -0.077
    1UNL     H3   38  -0.214   0.437   0.037
    1UNL     H4   39   0.058   0.477  -0.026
    1UNL     H5   40   0.051   0.417  -0.183
    1UNL     H6   41   0.306   0.404  -0.160
    1UNL     H7   42   0.043   0.022  -0.176
    1UNL     H8   43   0.032   0.029   0.209
    1UNL     H9   44  -0.011  -0.087   0.074
    1UNL    H10   45   0.380  -0.203  -0.182
    1UNL    H11   46   0.607  -0.331  -0.169
    1UNL    H12   47   0.712  -0.457   0.151
    1UNL    H13   48   0.542  -0.350   0.261
    1UNL    H14   49   0.339  -0.212   0.220
    1UNL    H15   50   0.250   0.191   0.119
    1UNL    H16   51   0.013   0.384   0.183
    1UNL    H17   52   0.031   0.237   0.267
    1UNL    H18   53  -0.259   0.115  -0.062
    1UNL    H19   54  -0.291  -0.061  -0.168
    1UNL    H20   55  -0.245  -0.313  -0.225
    1UNL    H21   56  -0.121  -0.316  -0.088
    1UNL    H22   57   0.016  -0.205  -0.193
    1UNL    H23   58  -0.358  -0.241   0.073
    1UNL    H24   59  -0.555  -0.292  -0.048
    1UNL    H25   60  -0.520  -0.033  -0.070
    1UNL    H26   61  -0.548  -0.120   0.185
    1UNL    H27   62  -0.435   0.127   0.120
    1UNL    H28   63  -0.299   0.001   0.284
   0.00000   0.00000   0.00000   0.00000   0.00000   0.00000   0.00000   0.00000   0.00000
Generated with MDTraj, t= 87.0
 63
    1UNL     C1    1  -0.223   0.388  -0.073
    1UNL     C2    2  -0.092   0.307  -0.061
    1UNL     C3    3   0.037   0.390  -0.070
    1UNL     C4    4   0.166   0.306  -0.049
    1UNL     O1    5   0.299   0.373  -0.055
    1UNL     O2    6   0.155   0.202  -0.152
    1UNL     C5    7   0.045   0.119  -0.120
    1UNL     O3    8  -0.078   0.201  -0.162
    1UNL     C6    9   0.040   0.110   0.036
    1UNL     C7   10   0.052  -0.022   0.114
    1UNL     O4   11   0.184  -0.069   0.129
    1UNL     C8   12   0.232  -0.131   0.021
    1UNL     O5   13   0.174  -0.147  -0.083
    1UNL     C9   14   0.370  -0.191   0.026
    1UNL    C10   15   0.428  -0.231  -0.090
    1UNL    C11   16   0.542  -0.308  -0.103
    1UNL    C12   17   0.592  -0.352   0.023
    1UNL     O6   18   0.696  -0.438   0.028
    1UNL    C13   19   0.521  -0.321   0.144
    1UNL    C14   20   0.420  -0.234   0.144
    1UNL    C15   21   0.139   0.217   0.081
    1UNL    C16   22   0.028   0.280   0.171
    1UNL    C17   23  -0.078   0.219   0.069
    1UNL     O7   24  -0.199   0.168   0.118
    1UNL    C18   25  -0.256   0.079   0.025
    1UNL     O8   26  -0.183  -0.047  -0.003
    1UNL    C19   27  -0.250  -0.144  -0.078
    1UNL    C20   28  -0.156  -0.268  -0.116
    1UNL     O9   29  -0.055  -0.244  -0.203
    1UNL    C21   30  -0.381  -0.189  -0.015
    1UNL    O10   31  -0.441  -0.289  -0.086
    1UNL    C22   32  -0.472  -0.063   0.003
    1UNL    O11   33  -0.603  -0.092   0.055
    1UNL    C23   34  -0.397   0.034   0.089
    1UNL    O12   35  -0.368  -0.011   0.220
    1UNL     H1   36  -0.258   0.406  -0.174
    1UNL     H2   37  -0.310   0.349  -0.022
    1UNL     H3   38  -0.199   0.496  -0.034
    1UNL     H4   39   0.042   0.468  -0.003
    1UNL     H5   40   0.053   0.433  -0.167
    1UNL     H6   41   0.369   0.303  -0.053
    1UNL     H7   42   0.057   0.026  -0.165
    1UNL     H8   43   0.021  -0.009   0.215
    1UNL     H9   44  -0.012  -0.088   0.059
    1UNL    H10   45   0.375  -0.198  -0.182
    1UNL    H11   46   0.582  -0.322  -0.200
    1UNL    H12   47   0.704  -0.471   0.122
    1UNL    H13   48   0.562  -0.351   0.236
    1UNL    H14   49   0.370  -0.194   0.234
    1UNL    H15   50   0.222   0.171   0.134
    1UNL    H16   51   0.042   0.388   0.187
    1UNL    H17   52   0.035   0.223   0.259
    1UNL    H18   53  -0.272   0.134  -0.074
    1UNL    H19   54  -0.272  -0.085  -0.167
    1UNL    H20   55  -0.222  -0.334  -0.173
    1UNL    H21   56  -0.121  -0.316  -0.021
    1UNL    H22   57   0.020  -0.201  -0.160
    1UNL    H23   58  -0.372  -0.223   0.091
    1UNL    H24   59  -0.537  -0.296  -0.058
    1UNL    H25   60  -0.485  -0.026  -0.096
    1UNL    H26   61  -0.590  -0.097   0.154
    1UNL    H27   62  -0.459   0.122   0.100
    1UNL    H28   63  -0.291   0.030   0.263
   0.00000   0.00000   0.00000   0.00000   0.00000   0.00000   0.00000   0.00000   0.00000
Generated with MDTraj, t= 88.0
 63
    1UNL     C1    1  -0.206   0.365  -0.103
    1UNL     C2    2  -0.072   0.296  -0.066
    1UNL     C3    3   0.040   0.397  -0.077
    1UNL     C4    4   0.169   0.318  -0.044
    1UNL     O1    5   0.287   0.397  -0.036
    1UNL     O2    6   0.180   0.216  -0.153
    1UNL     C5    7   0.070   0.127  -0.118
    1UNL     O3    8  -0.043   0.195  -0.167
    1UNL     C6    9   0.058   0.123   0.041
    1UNL     C7   10   0.063  -0.017   0.118
    1UNL     O4   11   0.194  -0.070   0.132
    1UNL     C8   12   0.239  -0.123   0.012
    1UNL     O5   13   0.185  -0.106  -0.096
    1UNL     C9   14   0.361  -0.193   0.016
    1UNL    C10   15   0.404  -0.244  -0.107
    1UNL    C11   16   0.521  -0.320  -0.106
    1UNL    C12   17   0.586  -0.353   0.013
    1UNL     O6   18   0.702  -0.432   0.008
    1UNL    C13   19   0.531  -0.321   0.137
    1UNL    C14   20   0.424  -0.230   0.142
    1UNL    C15   21   0.143   0.237   0.092
    1UNL    C16   22   0.018   0.289   0.176
    1UNL    C17   23  -0.071   0.218   0.070
    1UNL     O7   24  -0.190   0.152   0.127
    1UNL    C18   25  -0.254   0.065   0.038
    1UNL     O8   26  -0.197  -0.065   0.036
    1UNL    C19   27  -0.255  -0.160  -0.059
    1UNL    C20   28  -0.175  -0.290  -0.081
    1UNL     O9   29  -0.068  -0.266  -0.176
    1UNL    C21   30  -0.392  -0.195  -0.015
    1UNL    O10   31  -0.450  -0.286  -0.104
    1UNL    C22   32  -0.478  -0.066  -0.011
    1UNL    O11   33  -0.614  -0.092   0.038
    1UNL    C23   34  -0.408   0.039   0.087
    1UNL    O12   35  -0.412  -0.008   0.219
    1UNL     H1   36  -0.195   0.444  -0.174
    1UNL     H2   37  -0.265   0.292  -0.161
    1UNL     H3   38  -0.263   0.417  -0.017
    1UNL     H4   39   0.038   0.485  -0.020
    1UNL     H5   40   0.049   0.431  -0.179
    1UNL     H6   41   0.362   0.344  -0.063
    1UNL     H7   42   0.080   0.035  -0.167
    1UNL     H8   43   0.013  -0.004   0.209
    1UNL     H9   44   0.005  -0.088   0.065
    1UNL    H10   45   0.361  -0.215  -0.200
    1UNL    H11   46   0.566  -0.350  -0.205
    1UNL    H12   47   0.742  -0.452   0.099
    1UNL    H13   48   0.592  -0.341   0.225
    1UNL    H14   49   0.401  -0.176   0.230
    1UNL    H15   50   0.225   0.200   0.151
    1UNL    H16   51  -0.002   0.398   0.176
    1UNL    H17   52   0.011   0.238   0.268
    1UNL    H18   53  -0.258   0.110  -0.066
    1UNL    H19   54  -0.253  -0.110  -0.157
    1UNL    H20   55  -0.246  -0.364  -0.118
    1UNL    H21   56  -0.127  -0.327   0.012
    1UNL    H22   57   0.011  -0.212  -0.142
    1UNL    H23   58  -0.385  -0.247   0.082
    1UNL    H24   59  -0.546  -0.291  -0.094
    1UNL    H25   60  -0.475  -0.018  -0.109
    1UNL    H26   61  -0.611  -0.077   0.138
    1UNL    H27   62  -0.461   0.133   0.078
    1UNL    H28   63  -0.336   0.022   0.269
   0.00000   0.00000   0.00000   0.00000   0.00000   0.00000   0.00000   0.00000   0.00000
Generated with MDTraj, t= 89.0
 63
    1UNL     C1    1  -0.214   0.355  -0.100
    1UNL     C2    2  -0.083   0.286  -0.072
    1UNL     C3    3   0.025   0.398  -0.084
    1UNL     C4    4   0.163   0.341  -0.033
    1UNL     O1    5   0.262   0.432   0.006
    1UNL     O2    6   0.190   0.225  -0.121
    1UNL     C5    7   0.080   0.134  -0.107
    1UNL     O3    8  -0.038   0.179  -0.162
    1UNL     C6    9   0.060   0.130   0.045
    1UNL     C7   10   0.081  -0.005   0.115
    1UNL     O4   11   0.217  -0.059   0.115
    1UNL     C8   12   0.228  -0.143   0.008
    1UNL     O5   13   0.143  -0.163  -0.079
    1UNL     C9   14   0.355  -0.216   0.005
    1UNL    C10   15   0.400  -0.268  -0.119
    1UNL    C11   16   0.524  -0.329  -0.111
    1UNL    C12   17   0.596  -0.349   0.004
    1UNL     O6   18   0.704  -0.428   0.007
    1UNL    C13   19   0.548  -0.289   0.121
    1UNL    C14   20   0.428  -0.220   0.121
    1UNL    C15   21   0.132   0.256   0.104
    1UNL    C16   22  -0.001   0.291   0.176
    1UNL    C17   23  -0.071   0.212   0.072
    1UNL     O7   24  -0.178   0.138   0.124
    1UNL    C18   25  -0.236   0.053   0.025
    1UNL     O8   26  -0.182  -0.075   0.031
    1UNL    C19   27  -0.250  -0.164  -0.061
    1UNL    C20   28  -0.183  -0.306  -0.056
    1UNL     O9   29  -0.075  -0.319  -0.155
    1UNL    C21   30  -0.398  -0.185  -0.020
    1UNL    O10   31  -0.475  -0.268  -0.110
    1UNL    C22   32  -0.467  -0.050  -0.025
    1UNL    O11   33  -0.594  -0.071   0.039
    1UNL    C23   34  -0.386   0.048   0.064
    1UNL    O12   35  -0.406   0.023   0.196
    1UNL     H1   36  -0.227   0.379  -0.205
    1UNL     H2   37  -0.300   0.284  -0.074
    1UNL     H3   38  -0.210   0.453  -0.049
    1UNL     H4   39   0.000   0.485  -0.023
    1UNL     H5   40   0.034   0.441  -0.182
    1UNL     H6   41   0.336   0.426  -0.054
    1UNL     H7   42   0.089   0.037  -0.148
    1UNL     H8   43   0.048   0.008   0.213
    1UNL     H9   44   0.010  -0.071   0.074
    1UNL    H10   45   0.347  -0.264  -0.216
    1UNL    H11   46   0.573  -0.385  -0.184
    1UNL    H12   47   0.739  -0.433   0.101
    1UNL    H13   48   0.603  -0.296   0.213
    1UNL    H14   49   0.413  -0.161   0.212
    1UNL    H15   50   0.215   0.243   0.171
    1UNL    H16   51  -0.038   0.395   0.164
    1UNL    H17   52  -0.012   0.253   0.277
    1UNL    H18   53  -0.205   0.100  -0.075
    1UNL    H19   54  -0.243  -0.117  -0.160
    1UNL    H20   55  -0.247  -0.385  -0.090
    1UNL    H21   56  -0.149  -0.331   0.045
    1UNL    H22   57  -0.005  -0.256  -0.132
    1UNL    H23   58  -0.414  -0.230   0.078
    1UNL    H24   59  -0.571  -0.262  -0.097
    1UNL    H25   60  -0.491  -0.009  -0.125
    1UNL    H26   61  -0.597  -0.092   0.132
    1UNL    H27   62  -0.426   0.151   0.058
    1UNL    H28   63  -0.320   0.041   0.244
   0.00000   0.00000   0.00000   0.00000   0.00000   0.00000   0.00000   0.00000   0.00000
Generated with MDTraj, t= 90.0
 63
    1UNL     C1    1  -0.220   0.358  -0.085
    1UNL     C2    2  -0.082   0.300  -0.065
    1UNL     C3    3   0.033   0.409  -0.063
    1UNL     C4    4   0.170   0.351  -0.021
    1UNL     O1    5   0.273   0.450  -0.010
    1UNL     O2    6   0.196   0.257  -0.122
    1UNL     C5    7   0.097   0.160  -0.111
    1UNL     O3    8  -0.035   0.203  -0.162
    1UNL     C6    9   0.077   0.134   0.044
    1UNL     C7   10   0.079  -0.005   0.107
    1UNL     O4   11   0.206  -0.067   0.123
    1UNL     C8   12   0.226  -0.145   0.019
    1UNL     O5   13   0.139  -0.177  -0.060
    1UNL     C9   14   0.353  -0.222   0.016
    1UNL    C10   15   0.390  -0.296  -0.099
    1UNL    C11   16   0.509  -0.361  -0.111
    1UNL    C12   17   0.599  -0.342  -0.007
    1UNL     O6   18   0.718  -0.409  -0.020
    1UNL    C13   19   0.571  -0.268   0.102
    1UNL    C14   20   0.445  -0.206   0.119
    1UNL    C15   21   0.143   0.254   0.110
    1UNL    C16   22   0.011   0.288   0.179
    1UNL    C17   23  -0.064   0.212   0.070
    1UNL     O7   24  -0.175   0.134   0.122
    1UNL    C18   25  -0.227   0.039   0.027
    1UNL     O8   26  -0.191  -0.101   0.037
    1UNL    C19   27  -0.258  -0.186  -0.058
    1UNL    C20   28  -0.203  -0.330  -0.049
    1UNL     O9   29  -0.080  -0.340  -0.118
    1UNL    C21   30  -0.413  -0.183  -0.024
    1UNL    O10   31  -0.493  -0.281  -0.091
    1UNL    C22   32  -0.473  -0.041  -0.050
    1UNL    O11   33  -0.602  -0.046  -0.008
    1UNL    C23   34  -0.386   0.045   0.051
    1UNL    O12   35  -0.420   0.006   0.182
    1UNL     H1   36  -0.226   0.450  -0.151
    1UNL     H2   37  -0.286   0.282  -0.136
    1UNL     H3   38  -0.256   0.396   0.006
    1UNL     H4   39   0.005   0.501  -0.006
    1UNL     H5   40   0.057   0.443  -0.162
    1UNL     H6   41   0.303   0.470  -0.096
    1UNL     H7   42   0.134   0.072  -0.156
    1UNL     H8   43   0.035   0.006   0.204
    1UNL     H9   44   0.014  -0.074   0.061
    1UNL    H10   45   0.312  -0.317  -0.166
    1UNL    H11   46   0.521  -0.441  -0.189
    1UNL    H12   47   0.783  -0.401   0.055
    1UNL    H13   48   0.640  -0.253   0.181
    1UNL    H14   49   0.412  -0.150   0.204
    1UNL    H15   50   0.233   0.228   0.161
    1UNL    H16   51  -0.003   0.397   0.177
    1UNL    H17   52  -0.011   0.244   0.279
    1UNL    H18   53  -0.207   0.082  -0.078
    1UNL    H19   54  -0.234  -0.149  -0.160
    1UNL    H20   55  -0.267  -0.395  -0.106
    1UNL    H21   56  -0.184  -0.380   0.046
    1UNL    H22   57  -0.001  -0.286  -0.087
    1UNL    H23   58  -0.422  -0.212   0.080
    1UNL    H24   59  -0.588  -0.250  -0.086
    1UNL    H25   60  -0.453   0.000  -0.153
    1UNL    H26   61  -0.595  -0.078   0.092
    1UNL    H27   62  -0.426   0.149   0.044
    1UNL    H28   63  -0.338   0.018   0.232
   0.00000   0.00000   0.00000   0.00000   0.00000   0.00000   0.00000   0.00000   0.00000
Generated with MDTraj, t= 91.0
 63
    1UNL     C1    1  -0.219   0.348  -0.083
    1UNL     C2    2  -0.077   0.298  -0.056
    1UNL     C3    3   0.030   0.407  -0.053
    1UNL     C4    4   0.164   0.338  -0.012
    1UNL     O1    5   0.278   0.428  -0.004
    1UNL     O2    6   0.185   0.240  -0.123
    1UNL     C5    7   0.080   0.138  -0.105
    1UNL     O3    8  -0.040   0.202  -0.157
    1UNL     C6    9   0.067   0.130   0.058
    1UNL     C7   10   0.076  -0.012   0.122
    1UNL     O4   11   0.213  -0.057   0.118
    1UNL     C8   12   0.230  -0.140   0.010
    1UNL     O5   13   0.136  -0.171  -0.064
    1UNL     C9   14   0.359  -0.213   0.003
    1UNL    C10   15   0.371  -0.316  -0.086
    1UNL    C11   16   0.490  -0.391  -0.092
    1UNL    C12   17   0.602  -0.346  -0.013
    1UNL     O6   18   0.729  -0.388  -0.044
    1UNL    C13   19   0.585  -0.234   0.083
    1UNL    C14   20   0.459  -0.182   0.090
    1UNL    C15   21   0.142   0.248   0.113
    1UNL    C16   22   0.015   0.276   0.198
    1UNL    C17   23  -0.069   0.213   0.081
    1UNL     O7   24  -0.192   0.142   0.120
    1UNL    C18   25  -0.239   0.047   0.022
    1UNL     O8   26  -0.192  -0.091   0.042
    1UNL    C19   27  -0.249  -0.191  -0.047
    1UNL    C20   28  -0.206  -0.334  -0.016
    1UNL     O9   29  -0.090  -0.361  -0.088
    1UNL    C21   30  -0.402  -0.183  -0.032
    1UNL    O10   31  -0.469  -0.285  -0.105
    1UNL    C22   32  -0.461  -0.037  -0.063
    1UNL    O11   33  -0.596  -0.026  -0.048
    1UNL    C23   34  -0.388   0.053   0.042
    1UNL    O12   35  -0.417   0.031   0.175
    1UNL     H1   36  -0.227   0.376  -0.195
    1UNL     H2   37  -0.291   0.271  -0.077
    1UNL     H3   38  -0.245   0.443  -0.040
    1UNL     H4   39   0.005   0.491   0.017
    1UNL     H5   40   0.046   0.442  -0.154
    1UNL     H6   41   0.353   0.371  -0.015
    1UNL     H7   42   0.108   0.046  -0.152
    1UNL     H8   43   0.039  -0.035   0.223
    1UNL     H9   44   0.022  -0.086   0.066
    1UNL    H10   45   0.290  -0.344  -0.157
    1UNL    H11   46   0.490  -0.483  -0.143
    1UNL    H12   47   0.790  -0.333   0.007
    1UNL    H13   48   0.668  -0.195   0.143
    1UNL    H14   49   0.440  -0.092   0.148
    1UNL    H15   50   0.236   0.220   0.157
    1UNL    H16   51   0.002   0.383   0.218
    1UNL    H17   52   0.017   0.206   0.290
    1UNL    H18   53  -0.210   0.089  -0.081
    1UNL    H19   54  -0.228  -0.157  -0.151
    1UNL    H20   55  -0.273  -0.415  -0.039
    1UNL    H21   56  -0.189  -0.337   0.094
    1UNL    H22   57  -0.023  -0.290  -0.082
    1UNL    H23   58  -0.432  -0.205   0.070
    1UNL    H24   59  -0.557  -0.246  -0.128
    1UNL    H25   60  -0.427  -0.006  -0.168
    1UNL    H26   61  -0.615  -0.038   0.047
    1UNL    H27   62  -0.433   0.156   0.030
    1UNL    H28   63  -0.364   0.091   0.228
   0.00000   0.00000   0.00000   0.00000   0.00000   0.00000   0.00000   0.00000   0.00000
Generated with MDTraj, t= 92.0
 63
    1UNL     C1    1  -0.208   0.360  -0.080
    1UNL     C2    2  -0.071   0.297  -0.055
    1UNL     C3    3   0.052   0.393  -0.060
    1UNL     C4    4   0.178   0.313  -0.015
    1UNL     O1    5   0.284   0.398   0.005
    1UNL     O2    6   0.195   0.204  -0.113
    1UNL     C5    7   0.076   0.118  -0.090
    1UNL     O3    8  -0.040   0.184  -0.143
    1UNL     C6    9   0.051   0.116   0.063
    1UNL     C7   10   0.062  -0.017   0.131
    1UNL     O4   11   0.196  -0.067   0.130
    1UNL     C8   12   0.216  -0.149   0.016
    1UNL     O5   13   0.125  -0.173  -0.061
    1UNL     C9   14   0.348  -0.206  -0.014
    1UNL    C10   15   0.366  -0.321  -0.089
    1UNL    C11   16   0.489  -0.387  -0.091
    1UNL    C12   17   0.602  -0.323  -0.038
    1UNL     O6   18   0.726  -0.391  -0.025
    1UNL    C13   19   0.588  -0.202   0.026
    1UNL    C14   20   0.466  -0.149   0.036
    1UNL    C15   21   0.141   0.236   0.123
    1UNL    C16   22   0.011   0.278   0.198
    1UNL    C17   23  -0.071   0.217   0.084
    1UNL     O7   24  -0.196   0.165   0.117
    1UNL    C18   25  -0.246   0.058   0.037
    1UNL     O8   26  -0.205  -0.077   0.079
    1UNL    C19   27  -0.243  -0.174  -0.027
    1UNL    C20   28  -0.188  -0.311   0.009
    1UNL     O9   29  -0.068  -0.358  -0.059
    1UNL    C21   30  -0.398  -0.186  -0.042
    1UNL    O10   31  -0.434  -0.285  -0.139
    1UNL    C22   32  -0.454  -0.040  -0.069
    1UNL    O11   33  -0.591  -0.038  -0.067
    1UNL    C23   34  -0.398   0.063   0.036
    1UNL    O12   35  -0.461   0.041   0.162
    1UNL     H1   36  -0.195   0.434  -0.163
    1UNL     H2   37  -0.273   0.287  -0.121
    1UNL     H3   38  -0.247   0.426  -0.003
    1UNL     H4   39   0.033   0.469   0.017
    1UNL     H5   40   0.069   0.438  -0.162
    1UNL     H6   41   0.350   0.383  -0.066
    1UNL     H7   42   0.075   0.023  -0.145
    1UNL     H8   43   0.035  -0.018   0.240
    1UNL     H9   44  -0.002  -0.096   0.093
    1UNL    H10   45   0.283  -0.368  -0.133
    1UNL    H11   46   0.497  -0.479  -0.152
    1UNL    H12   47   0.794  -0.327  -0.004
    1UNL    H13   48   0.675  -0.142   0.043
    1UNL    H14   49   0.446  -0.054   0.078
    1UNL    H15   50   0.231   0.222   0.179
    1UNL    H16   51  -0.004   0.386   0.206
    1UNL    H17   52   0.022   0.227   0.300
    1UNL    H18   53  -0.204   0.078  -0.068
    1UNL    H19   54  -0.198  -0.135  -0.121
    1UNL    H20   55  -0.268  -0.382  -0.013
    1UNL    H21   56  -0.170  -0.325   0.119
    1UNL    H22   57   0.011  -0.298  -0.053
    1UNL    H23   58  -0.435  -0.222   0.055
    1UNL    H24   59  -0.515  -0.261  -0.183
    1UNL    H25   60  -0.427  -0.010  -0.178
    1UNL    H26   61  -0.623  -0.018   0.023
    1UNL    H27   62  -0.437   0.167   0.015
    1UNL    H28   63  -0.401   0.068   0.240
   0.00000   0.00000   0.00000   0.00000   0.00000   0.00000   0.00000   0.00000   0.00000
Generated with MDTraj, t= 93.0
 63
    1UNL     C1    1  -0.184   0.370  -0.082
    1UNL     C2    2  -0.063   0.288  -0.057
    1UNL     C3    3   0.067   0.376  -0.060
    1UNL     C4    4   0.187   0.292  -0.007
    1UNL     O1    5   0.301   0.376   0.009
    1UNL     O2    6   0.199   0.187  -0.095
    1UNL     C5    7   0.073   0.113  -0.095
    1UNL     O3    8  -0.043   0.178  -0.152
    1UNL     C6    9   0.044   0.112   0.062
    1UNL     C7   10   0.049  -0.021   0.134
    1UNL     O4   11   0.181  -0.069   0.130
    1UNL     C8   12   0.203  -0.137   0.014
    1UNL     O5   13   0.124  -0.152  -0.077
    1UNL     C9   14   0.346  -0.184  -0.011
    1UNL    C10   15   0.355  -0.316  -0.061
    1UNL    C11   16   0.473  -0.378  -0.075
    1UNL    C12   17   0.593  -0.309  -0.047
    1UNL     O6   18   0.714  -0.362  -0.058
    1UNL    C13   19   0.574  -0.182   0.003
    1UNL    C14   20   0.458  -0.116   0.030
    1UNL    C15   21   0.147   0.212   0.123
    1UNL    C16   22   0.031   0.282   0.201
    1UNL    C17   23  -0.073   0.218   0.089
    1UNL     O7   24  -0.197   0.162   0.127
    1UNL    C18   25  -0.243   0.057   0.046
    1UNL     O8   26  -0.209  -0.078   0.085
    1UNL    C19   27  -0.239  -0.180  -0.017
    1UNL    C20   28  -0.190  -0.317   0.046
    1UNL     O9   29  -0.075  -0.369  -0.028
    1UNL    C21   30  -0.393  -0.186  -0.048
    1UNL    O10   31  -0.441  -0.276  -0.149
    1UNL    C22   32  -0.439  -0.042  -0.078
    1UNL    O11   33  -0.580  -0.037  -0.089
    1UNL    C23   34  -0.395   0.063   0.027
    1UNL    O12   35  -0.464   0.028   0.143
    1UNL     H1   36  -0.184   0.408  -0.180
    1UNL     H2   37  -0.271   0.303  -0.077
    1UNL     H3   38  -0.191   0.457  -0.015
    1UNL     H4   39   0.059   0.474  -0.012
    1UNL     H5   40   0.094   0.391  -0.171
    1UNL     H6   41   0.387   0.325   0.012
    1UNL     H7   42   0.089   0.016  -0.144
    1UNL     H8   43   0.015  -0.001   0.243
    1UNL     H9   44  -0.018  -0.103   0.104
    1UNL    H10   45   0.263  -0.359  -0.103
    1UNL    H11   46   0.483  -0.478  -0.105
    1UNL    H12   47   0.782  -0.293  -0.068
    1UNL    H13   48   0.671  -0.131   0.022
    1UNL    H14   49   0.458  -0.007   0.047
    1UNL    H15   50   0.236   0.166   0.163
    1UNL    H16   51   0.040   0.391   0.194
    1UNL    H17   52   0.001   0.258   0.308
    1UNL    H18   53  -0.208   0.076  -0.062
    1UNL    H19   54  -0.178  -0.155  -0.106
    1UNL    H20   55  -0.262  -0.399   0.033
    1UNL    H21   56  -0.171  -0.316   0.157
    1UNL    H22   57  -0.015  -0.291  -0.045
    1UNL    H23   58  -0.436  -0.218   0.050
    1UNL    H24   59  -0.526  -0.251  -0.194
    1UNL    H25   60  -0.408  -0.013  -0.185
    1UNL    H26   61  -0.616  -0.021   0.007
    1UNL    H27   62  -0.421   0.168  -0.004
    1UNL    H28   63  -0.394  -0.005   0.204
   0.00000   0.00000   0.00000   0.00000   0.00000   0.00000   0.00000   0.00000   0.00000
Generated with MDTraj, t= 94.0
 63
    1UNL     C1    1  -0.192   0.377  -0.087
    1UNL     C2    2  -0.064   0.304  -0.051
    1UNL     C3    3   0.065   0.395  -0.047
    1UNL     C4    4   0.188   0.294  -0.010
    1UNL     O1    5   0.313   0.366   0.011
    1UNL     O2    6   0.199   0.191  -0.113
    1UNL     C5    7   0.078   0.116  -0.092
    1UNL     O3    8  -0.034   0.192  -0.144
    1UNL     C6    9   0.049   0.110   0.064
    1UNL     C7   10   0.054  -0.021   0.151
    1UNL     O4   11   0.187  -0.070   0.143
    1UNL     C8   12   0.196  -0.159   0.034
    1UNL     O5   13   0.106  -0.186  -0.044
    1UNL     C9   14   0.334  -0.218   0.010
    1UNL    C10   15   0.355  -0.347  -0.057
    1UNL    C11   16   0.483  -0.379  -0.080
    1UNL    C12   17   0.591  -0.292  -0.066
    1UNL     O6   18   0.730  -0.316  -0.090
    1UNL    C13   19   0.567  -0.167  -0.006
    1UNL    C14   20   0.440  -0.127   0.031
    1UNL    C15   21   0.145   0.217   0.120
    1UNL    C16   22   0.023   0.272   0.201
    1UNL    C17   23  -0.068   0.214   0.086
    1UNL     O7   24  -0.198   0.165   0.128
    1UNL    C18   25  -0.237   0.066   0.036
    1UNL     O8   26  -0.195  -0.080   0.067
    1UNL    C19   27  -0.242  -0.182  -0.022
    1UNL    C20   28  -0.215  -0.326   0.037
    1UNL     O9   29  -0.090  -0.378   0.011
    1UNL    C21   30  -0.394  -0.180  -0.048
    1UNL    O10   31  -0.443  -0.280  -0.140
    1UNL    C22   32  -0.432  -0.037  -0.088
    1UNL    O11   33  -0.572  -0.043  -0.115
    1UNL    C23   34  -0.389   0.070   0.015
    1UNL    O12   35  -0.448   0.033   0.140
    1UNL     H1   36  -0.190   0.426  -0.176
    1UNL     H2   37  -0.279   0.307  -0.094
    1UNL     H3   38  -0.206   0.445  -0.002
    1UNL     H4   39   0.073   0.478   0.027
    1UNL     H5   40   0.083   0.438  -0.151
    1UNL     H6   41   0.385   0.319  -0.044
    1UNL     H7   42   0.096   0.019  -0.143
    1UNL     H8   43   0.013  -0.026   0.261
    1UNL     H9   44  -0.014  -0.086   0.094
    1UNL    H10   45   0.266  -0.401  -0.078
    1UNL    H11   46   0.510  -0.475  -0.124
    1UNL    H12   47   0.785  -0.237  -0.071
    1UNL    H13   48   0.645  -0.099   0.005
    1UNL    H14   49   0.424  -0.029   0.067
    1UNL    H15   50   0.233   0.184   0.173
    1UNL    H16   51   0.039   0.383   0.215
    1UNL    H17   52   0.003   0.228   0.300
    1UNL    H18   53  -0.187   0.090  -0.064
    1UNL    H19   54  -0.207  -0.173  -0.126
    1UNL    H20   55  -0.289  -0.404   0.007
    1UNL    H21   56  -0.229  -0.317   0.148
    1UNL    H22   57  -0.016  -0.316  -0.008
    1UNL    H23   58  -0.452  -0.192   0.048
    1UNL    H24   59  -0.532  -0.251  -0.177
    1UNL    H25   60  -0.383  -0.021  -0.191
    1UNL    H26   61  -0.611  -0.055  -0.025
    1UNL    H27   62  -0.423   0.174  -0.005
    1UNL    H28   63  -0.398   0.070   0.213
   0.00000   0.00000   0.00000   0.00000   0.00000   0.00000   0.00000   0.00000   0.00000
Generated with MDTraj, t= 95.0
 63
    1UNL     C1    1  -0.183   0.353  -0.090
    1UNL     C2    2  -0.053   0.285  -0.052
    1UNL     C3    3   0.063   0.382  -0.057
    1UNL     C4    4   0.189   0.298  -0.004
    1UNL     O1    5   0.297   0.389   0.013
    1UNL     O2    6   0.210   0.194  -0.100
    1UNL     C5    7   0.093   0.114  -0.087
    1UNL     O3    8  -0.013   0.182  -0.150
    1UNL     C6    9   0.062   0.110   0.074
    1UNL     C7   10   0.059  -0.029   0.143
    1UNL     O4   11   0.178  -0.092   0.156
    1UNL     C8   12   0.207  -0.163   0.040
    1UNL     O5   13   0.118  -0.207  -0.027
    1UNL     C9   14   0.341  -0.212   0.009
    1UNL    C10   15   0.367  -0.322  -0.061
    1UNL    C11   16   0.491  -0.362  -0.101
    1UNL    C12   17   0.600  -0.279  -0.076
    1UNL     O6   18   0.723  -0.304  -0.118
    1UNL    C13   19   0.584  -0.156  -0.008
    1UNL    C14   20   0.455  -0.128   0.032
    1UNL    C15   21   0.151   0.232   0.137
    1UNL    C16   22   0.013   0.280   0.201
    1UNL    C17   23  -0.061   0.205   0.085
    1UNL     O7   24  -0.193   0.142   0.120
    1UNL    C18   25  -0.237   0.047   0.027
    1UNL     O8   26  -0.220  -0.089   0.082
    1UNL    C19   27  -0.269  -0.192  -0.008
    1UNL    C20   28  -0.243  -0.328   0.049
    1UNL     O9   29  -0.114  -0.381   0.039
    1UNL    C21   30  -0.414  -0.183  -0.049
    1UNL    O10   31  -0.452  -0.278  -0.143
    1UNL    C22   32  -0.435  -0.035  -0.096
    1UNL    O11   33  -0.573  -0.007  -0.113
    1UNL    C23   34  -0.382   0.069  -0.005
    1UNL    O12   35  -0.447   0.062   0.117
    1UNL     H1   36  -0.180   0.387  -0.189
    1UNL     H2   37  -0.264   0.281  -0.095
    1UNL     H3   38  -0.207   0.426  -0.013
    1UNL     H4   39   0.046   0.466   0.019
    1UNL     H5   40   0.075   0.426  -0.160
    1UNL     H6   41   0.350   0.375  -0.074
    1UNL     H7   42   0.092   0.005  -0.120
    1UNL     H8   43   0.013  -0.007   0.248
    1UNL     H9   44  -0.012  -0.100   0.095
    1UNL    H10   45   0.282  -0.385  -0.086
    1UNL    H11   46   0.516  -0.462  -0.139
    1UNL    H12   47   0.786  -0.235  -0.081
    1UNL    H13   48   0.669  -0.093   0.027
    1UNL    H14   49   0.442  -0.034   0.088
    1UNL    H15   50   0.235   0.206   0.201
    1UNL    H16   51  -0.011   0.391   0.205
    1UNL    H17   52   0.004   0.231   0.297
    1UNL    H18   53  -0.181   0.057  -0.070
    1UNL    H19   54  -0.204  -0.187  -0.096
    1UNL    H20   55  -0.307  -0.405   0.002
    1UNL    H21   56  -0.264  -0.338   0.158
    1UNL    H22   57  -0.049  -0.308   0.017
    1UNL    H23   58  -0.471  -0.188   0.048
    1UNL    H24   59  -0.541  -0.256  -0.170
    1UNL    H25   60  -0.385  -0.040  -0.198
    1UNL    H26   61  -0.601   0.006  -0.025
    1UNL    H27   62  -0.411   0.167  -0.046
    1UNL    H28   63  -0.413  -0.012   0.174
   0.00000   0.00000   0.00000   0.00000   0.00000   0.00000   0.00000   0.00000   0.00000
Generated with MDTraj, t= 96.0
 63
    1UNL     C1    1  -0.187   0.328  -0.118
    1UNL     C2    2  -0.053   0.268  -0.071
    1UNL     C3    3   0.073   0.369  -0.066
    1UNL     C4    4   0.196   0.297   0.014
    1UNL     O1    5   0.300   0.389   0.028
    1UNL     O2    6   0.222   0.184  -0.069
    1UNL     C5    7   0.104   0.096  -0.071
    1UNL     O3    8  -0.006   0.153  -0.148
    1UNL     C6    9   0.058   0.100   0.080
    1UNL     C7   10   0.078  -0.030   0.159
    1UNL     O4   11   0.207  -0.075   0.139
    1UNL     C8   12   0.208  -0.156   0.028
    1UNL     O5   13   0.112  -0.217  -0.017
    1UNL     C9   14   0.342  -0.192  -0.011
    1UNL    C10   15   0.364  -0.302  -0.086
    1UNL    C11   16   0.490  -0.346  -0.125
    1UNL    C12   17   0.598  -0.273  -0.076
    1UNL     O6   18   0.724  -0.293  -0.127
    1UNL    C13   19   0.572  -0.160   0.009
    1UNL    C14   20   0.447  -0.117   0.031
    1UNL    C15   21   0.137   0.225   0.140
    1UNL    C16   22   0.002   0.283   0.187
    1UNL    C17   23  -0.063   0.199   0.073
    1UNL     O7   24  -0.183   0.136   0.122
    1UNL    C18   25  -0.237   0.039   0.039
    1UNL     O8   26  -0.213  -0.100   0.077
    1UNL    C19   27  -0.265  -0.199  -0.016
    1UNL    C20   28  -0.245  -0.333   0.050
    1UNL     O9   29  -0.113  -0.373   0.073
    1UNL    C21   30  -0.414  -0.174  -0.047
    1UNL    O10   31  -0.474  -0.264  -0.132
    1UNL    C22   32  -0.431  -0.026  -0.098
    1UNL    O11   33  -0.567  -0.002  -0.129
    1UNL    C23   34  -0.388   0.078   0.006
    1UNL    O12   35  -0.481   0.075   0.116
    1UNL     H1   36  -0.177   0.395  -0.204
    1UNL     H2   37  -0.250   0.256  -0.161
    1UNL     H3   38  -0.236   0.368  -0.029
    1UNL     H4   39   0.046   0.470  -0.015
    1UNL     H5   40   0.108   0.396  -0.169
    1UNL     H6   41   0.377   0.333   0.059
    1UNL     H7   42   0.125  -0.012  -0.101
    1UNL     H8   43   0.054  -0.019   0.271
    1UNL     H9   44   0.005  -0.095   0.106
    1UNL    H10   45   0.271  -0.351  -0.110
    1UNL    H11   46   0.493  -0.432  -0.186
    1UNL    H12   47   0.791  -0.221  -0.107
    1UNL    H13   48   0.650  -0.110   0.058
    1UNL    H14   49   0.428  -0.032   0.094
    1UNL    H15   50   0.200   0.193   0.222
    1UNL    H16   51  -0.016   0.395   0.178
    1UNL    H17   52  -0.021   0.245   0.283
    1UNL    H18   53  -0.176   0.050  -0.054
    1UNL    H19   54  -0.211  -0.190  -0.112
    1UNL    H20   55  -0.278  -0.411  -0.020
    1UNL    H21   56  -0.309  -0.341   0.138
    1UNL    H22   57  -0.049  -0.309   0.037
    1UNL    H23   58  -0.469  -0.170   0.050
    1UNL    H24   59  -0.558  -0.232  -0.173
    1UNL    H25   60  -0.381  -0.020  -0.198
    1UNL    H26   61  -0.610   0.020  -0.036
    1UNL    H27   62  -0.396   0.177  -0.038
    1UNL    H28   63  -0.445   0.125   0.195
   0.00000   0.00000   0.00000   0.00000   0.00000   0.00000   0.00000   0.00000   0.00000
Generated with MDTraj, t= 97.0
 63
    1UNL     C1    1  -0.166   0.331  -0.133
    1UNL     C2    2  -0.045   0.268  -0.063
    1UNL     C3    3   0.072   0.367  -0.055
    1UNL     C4    4   0.194   0.291   0.007
    1UNL     O1    5   0.302   0.382   0.021
    1UNL     O2    6   0.227   0.177  -0.072
    1UNL     C5    7   0.108   0.095  -0.071
    1UNL     O3    8  -0.002   0.160  -0.145
    1UNL     C6    9   0.066   0.102   0.082
    1UNL     C7   10   0.068  -0.033   0.168
    1UNL     O4   11   0.185  -0.111   0.171
    1UNL     C8   12   0.201  -0.175   0.048
    1UNL     O5   13   0.109  -0.197  -0.030
    1UNL     C9   14   0.341  -0.204  -0.002
    1UNL    C10   15   0.352  -0.300  -0.107
    1UNL    C11   16   0.477  -0.316  -0.159
    1UNL    C12   17   0.587  -0.253  -0.091
    1UNL     O6   18   0.716  -0.295  -0.130
    1UNL    C13   19   0.572  -0.161   0.014
    1UNL    C14   20   0.445  -0.131   0.053
    1UNL    C15   21   0.146   0.225   0.142
    1UNL    C16   22   0.011   0.281   0.198
    1UNL    C17   23  -0.060   0.204   0.083
    1UNL     O7   24  -0.191   0.150   0.107
    1UNL    C18   25  -0.236   0.043   0.025
    1UNL     O8   26  -0.219  -0.089   0.081
    1UNL    C19   27  -0.264  -0.188  -0.018
    1UNL    C20   28  -0.238  -0.327   0.047
    1UNL     O9   29  -0.116  -0.322   0.110
    1UNL    C21   30  -0.414  -0.173  -0.051
    1UNL    O10   31  -0.458  -0.275  -0.130
    1UNL    C22   32  -0.438  -0.033  -0.108
    1UNL    O11   33  -0.575  -0.019  -0.132
    1UNL    C23   34  -0.387   0.065  -0.004
    1UNL    O12   35  -0.462   0.051   0.117
    1UNL     H1   36  -0.141   0.365  -0.238
    1UNL     H2   37  -0.243   0.262  -0.157
    1UNL     H3   38  -0.205   0.399  -0.065
    1UNL     H4   39   0.048   0.468  -0.007
    1UNL     H5   40   0.114   0.391  -0.158
    1UNL     H6   41   0.336   0.405  -0.066
    1UNL     H7   42   0.146  -0.004  -0.114
    1UNL     H8   43   0.042   0.003   0.272
    1UNL     H9   44  -0.012  -0.098   0.129
    1UNL    H10   45   0.264  -0.347  -0.150
    1UNL    H11   46   0.498  -0.374  -0.255
    1UNL    H12   47   0.780  -0.238  -0.079
    1UNL    H13   48   0.658  -0.110   0.060
    1UNL    H14   49   0.420  -0.055   0.127
    1UNL    H15   50   0.215   0.200   0.223
    1UNL    H16   51  -0.003   0.391   0.202
    1UNL    H17   52  -0.030   0.235   0.287
    1UNL    H18   53  -0.176   0.049  -0.068
    1UNL    H19   54  -0.205  -0.177  -0.110
    1UNL    H20   55  -0.254  -0.407  -0.026
    1UNL    H21   56  -0.311  -0.340   0.125
    1UNL    H22   57  -0.037  -0.294   0.056
    1UNL    H23   58  -0.474  -0.180   0.041
    1UNL    H24   59  -0.538  -0.264  -0.191
    1UNL    H25   60  -0.392  -0.029  -0.208
    1UNL    H26   61  -0.616  -0.006  -0.040
    1UNL    H27   62  -0.407   0.166  -0.038
    1UNL    H28   63  -0.398   0.044   0.187
   0.00000   0.00000   0.00000   0.00000   0.00000   0.00000   0.00000   0.00000   0.00000
Generated with MDTraj, t= 98.0
 63
    1UNL     C1    1  -0.165   0.359  -0.129
    1UNL     C2    2  -0.035   0.294  -0.061
    1UNL     C3    3   0.090   0.379  -0.058
    1UNL     C4    4   0.199   0.286  -0.005
    1UNL     O1    5   0.324   0.350   0.034
    1UNL     O2    6   0.216   0.167  -0.089
    1UNL     C5    7   0.090   0.099  -0.076
    1UNL     O3    8  -0.007   0.185  -0.151
    1UNL     C6    9   0.046   0.101   0.073
    1UNL     C7   10   0.049  -0.029   0.158
    1UNL     O4   11   0.177  -0.090   0.155
    1UNL     C8   12   0.192  -0.177   0.048
    1UNL     O5   13   0.103  -0.198  -0.032
    1UNL     C9   14   0.325  -0.216   0.007
    1UNL    C10   15   0.340  -0.289  -0.113
    1UNL    C11   16   0.465  -0.298  -0.158
    1UNL    C12   17   0.576  -0.249  -0.092
    1UNL     O6   18   0.700  -0.267  -0.140
    1UNL    C13   19   0.559  -0.193   0.026
    1UNL    C14   20   0.430  -0.171   0.076
    1UNL    C15   21   0.139   0.216   0.131
    1UNL    C16   22   0.010   0.279   0.192
    1UNL    C17   23  -0.066   0.212   0.078
    1UNL     O7   24  -0.198   0.171   0.099
    1UNL    C18   25  -0.236   0.052   0.026
    1UNL     O8   26  -0.212  -0.075   0.090
    1UNL    C19   27  -0.245  -0.188   0.005
    1UNL    C20   28  -0.233  -0.322   0.071
    1UNL     O9   29  -0.101  -0.339   0.118
    1UNL    C21   30  -0.391  -0.188  -0.049
    1UNL    O10   31  -0.413  -0.282  -0.153
    1UNL    C22   32  -0.433  -0.049  -0.109
    1UNL    O11   33  -0.576  -0.050  -0.118
    1UNL    C23   34  -0.383   0.062  -0.006
    1UNL    O12   35  -0.450   0.052   0.117
    1UNL     H1   36  -0.141   0.390  -0.234
    1UNL     H2   37  -0.246   0.289  -0.145
    1UNL     H3   38  -0.207   0.429  -0.067
    1UNL     H4   39   0.080   0.470   0.003
    1UNL     H5   40   0.106   0.414  -0.166
    1UNL     H6   41   0.377   0.285   0.078
    1UNL     H7   42   0.095   0.000  -0.134
    1UNL     H8   43   0.032  -0.004   0.263
    1UNL     H9   44  -0.025  -0.102   0.113
    1UNL    H10   45   0.261  -0.313  -0.181
    1UNL    H11   46   0.482  -0.334  -0.252
    1UNL    H12   47   0.760  -0.236  -0.068
    1UNL    H13   48   0.648  -0.150   0.070
    1UNL    H14   49   0.414  -0.108   0.163
    1UNL    H15   50   0.206   0.196   0.216
    1UNL    H16   51   0.000   0.386   0.192
    1UNL    H17   52  -0.023   0.235   0.288
    1UNL    H18   53  -0.176   0.048  -0.065
    1UNL    H19   54  -0.162  -0.197  -0.066
    1UNL    H20   55  -0.247  -0.407   0.003
    1UNL    H21   56  -0.307  -0.336   0.148
    1UNL    H22   57  -0.039  -0.300   0.051
    1UNL    H23   58  -0.464  -0.195   0.031
    1UNL    H24   59  -0.483  -0.242  -0.205
    1UNL    H25   60  -0.387  -0.036  -0.206
    1UNL    H26   61  -0.605  -0.041  -0.030
    1UNL    H27   62  -0.411   0.160  -0.042
    1UNL    H28   63  -0.388   0.070   0.192
   0.00000   0.00000   0.00000   0.00000   0.00000   0.00000   0.00000   0.00000   0.00000
Generated with MDTraj, t= 99.0
 63
    1UNL     C1    1  -0.174   0.364  -0.091
    1UNL     C2    2  -0.039   0.289  -0.063
    1UNL     C3    3   0.097   0.365  -0.063
    1UNL     C4    4   0.209   0.273   0.005
    1UNL     O1    5   0.328   0.349   0.024
    1UNL     O2    6   0.212   0.160  -0.094
    1UNL     C5    7   0.081   0.100  -0.086
    1UNL     O3    8  -0.016   0.178  -0.152
    1UNL     C6    9   0.046   0.105   0.071
    1UNL     C7   10   0.047  -0.028   0.150
    1UNL     O4   11   0.169  -0.088   0.144
    1UNL     C8   12   0.179  -0.166   0.028
    1UNL     O5   13   0.090  -0.200  -0.049
    1UNL     C9   14   0.317  -0.196  -0.003
    1UNL    C10   15   0.335  -0.250  -0.136
    1UNL    C11   16   0.464  -0.293  -0.174
    1UNL    C12   17   0.570  -0.259  -0.089
    1UNL     O6   18   0.700  -0.271  -0.124
    1UNL    C13   19   0.545  -0.213   0.041
    1UNL    C14   20   0.421  -0.177   0.087
    1UNL    C15   21   0.148   0.206   0.135
    1UNL    C16   22   0.025   0.284   0.193
    1UNL    C17   23  -0.062   0.220   0.082
    1UNL     O7   24  -0.194   0.178   0.110
    1UNL    C18   25  -0.239   0.057   0.033
    1UNL     O8   26  -0.218  -0.070   0.098
    1UNL    C19   27  -0.236  -0.186   0.018
    1UNL    C20   28  -0.216  -0.312   0.104
    1UNL     O9   29  -0.078  -0.352   0.130
    1UNL    C21   30  -0.379  -0.187  -0.042
    1UNL    O10   31  -0.396  -0.280  -0.153
    1UNL    C22   32  -0.419  -0.057  -0.106
    1UNL    O11   33  -0.555  -0.059  -0.140
    1UNL    C23   34  -0.390   0.059  -0.011
    1UNL    O12   35  -0.480   0.061   0.099
    1UNL     H1   36  -0.167   0.400  -0.193
    1UNL     H2   37  -0.266   0.306  -0.084
    1UNL     H3   38  -0.191   0.442  -0.019
    1UNL     H4   39   0.085   0.460  -0.011
    1UNL     H5   40   0.113   0.391  -0.174
    1UNL     H6   41   0.354   0.399  -0.055
    1UNL     H7   42   0.078  -0.004  -0.135
    1UNL     H8   43   0.039  -0.013   0.256
    1UNL     H9   44  -0.034  -0.098   0.109
    1UNL    H10   45   0.248  -0.277  -0.197
    1UNL    H11   46   0.473  -0.341  -0.275
    1UNL    H12   47   0.762  -0.251  -0.051
    1UNL    H13   48   0.628  -0.201   0.109
    1UNL    H14   49   0.406  -0.141   0.190
    1UNL    H15   50   0.212   0.147   0.202
    1UNL    H16   51   0.013   0.389   0.191
    1UNL    H17   52  -0.009   0.246   0.292
    1UNL    H18   53  -0.172   0.058  -0.051
    1UNL    H19   54  -0.173  -0.193  -0.072
    1UNL    H20   55  -0.276  -0.394   0.057
    1UNL    H21   56  -0.261  -0.294   0.201
    1UNL    H22   57  -0.014  -0.302   0.072
    1UNL    H23   58  -0.458  -0.217   0.024
    1UNL    H24   59  -0.463  -0.263  -0.221
    1UNL    H25   60  -0.356  -0.050  -0.192
    1UNL    H26   61  -0.610  -0.034  -0.055
    1UNL    H27   62  -0.418   0.151  -0.060
    1UNL    H28   63  -0.446  -0.010   0.161
   0.00000   0.00000   0.00000   0.00000   0.00000   0.00000   0.00000   0.00000   0.00000
