[ moleculetype ]
; name        nrexcl
res           1

[ atoms ]
;    nr  type resnr resid  atom  cgnr     charge       mass
      1 TC5       1 res   C1        1      0.000     36.000
      2 SN3r      1 res   C2        2      0.000     54.000
      3 SC2       1 res   C3        3      0.000     54.000
      4 TC3       1 res   C4        4      0.000     36.000
      5 SN4a      1 res   C5        5      0.000     54.000
      6 SN6       1 res   C6        6      0.000     54.000
      7 TC4       1 res   C7        7      0.000     36.000
      8 TN4a      1 res   C8        8      0.000     36.000
      9 SN3r      1 res   C9        9      0.000     54.000
     10 TC5       1 res   C10      10      0.000     36.000
     11 SC2       1 res   C11      11      0.000     54.000
     12 TC3       1 res   C12      12      0.000     36.000
     13 SN4a      1 res   C13      13      0.000     54.000
     14 SN6       1 res   C14      14      0.000     54.000
     15 TC4       1 res   C15      15      0.000     36.000
     16 TN4a      1 res   C16      16      0.000     36.000
     17 SN3r      1 res   C17      17      0.000     54.000
     18 TC5       1 res   C18      18      0.000     36.000
     19 SC2       1 res   C19      19      0.000     54.000
     20 TC3       1 res   C20      20      0.000     36.000
     21 SN4a      1 res   C21      21      0.000     54.000
     22 TC3       1 res   C22      22      0.000     36.000
     23 SC5       1 res   C23      23      0.000     54.000
     24 SN4a      1 res   C24      24      0.000     54.000
     25 SN4a      1 res   C25      25      0.000     54.000
     26 TP1       1 res   C26      26      0.000     36.000
     27 TN6       1 res   C27      27      0.000     36.000
     28 TN6       1 res   C28      28      0.000     36.000
     29 TN6       1 res   C29      29      0.000     36.000
     30 TN4a      1 res   C30      30      0.000     36.000
     31 TC4       1 res   C31      31      0.000     36.000
     32 SN6       1 res   C32      32      0.000     54.000
     33 TN6       1 res   C33      33      0.000     36.000
     34 TN4a      1 res   C34      34      0.000     36.000
     35 TN6       1 res   C35      35      0.000     36.000
     36 TN6       1 res   C36      36      0.000     36.000
     37 TN6       1 res   C37      37      0.000     36.000
     38 TN6       1 res   C38      38      0.000     36.000
     39 SN6       1 res   C39      39      0.000     54.000
     40 SC4       1 res   C40      40      0.000     54.000
     41 TC3       1 res   C41      41      0.000     36.000
     42 SC4       1 res   C42      42      0.000     54.000
     43 SC4       1 res   C43      43      0.000     54.000
     44 TC3       1 res   C44      44      0.000     36.000
     45 TN6       1 res   C45      45      0.000     36.000
     46 SN4a      1 res   C46      46      0.000     54.000
     47 TN3r      1 res   C47      47      0.000     36.000
     48 TN4a      1 res   C48      48      0.000     36.000
     49 TC4       1 res   C49      49      0.000     36.000
     50 TN6       1 res   C50      50      0.000     36.000
     51 TN6       1 res   C51      51      0.000     36.000
     52 TN6       1 res   C52      52      0.000     36.000
     53 TN6       1 res   C53      53      0.000     36.000
     54 TN6       1 res   C54      54      0.000     36.000
     55 TN6       1 res   C55      55      0.000     36.000
     56 SN4a      1 res   C56      56      0.000     54.000
     57 TP1       1 res   C57      57      0.000     36.000
     58 TN6       1 res   C58      58      0.000     36.000
     59 TN6       1 res   C59      59      0.000     36.000
     60 TN6       1 res   C60      60      0.000     36.000
     61 SC4       1 res   C61      61      0.000     54.000
     62 TC3       1 res   C62      62      0.000     36.000
     63 SC4       1 res   C63      63      0.000     54.000
     64 TN6       1 res   C64      64      0.000     36.000
     65 TN6       1 res   C65      65      0.000     36.000
     66 TN4a      1 res   C66      66      0.000     36.000
     67 TC4       1 res   C67      67      0.000     36.000
     68 TN6       1 res   C68      68      0.000     36.000
     69 TN6       1 res   C69      69      0.000     36.000
     70 TN6       1 res   C70      70      0.000     36.000

[ bonds ]
;  ai    aj   funct      b0(nm)        k
    1     2     1      0.00000    20000
    2     3     1      0.00000    20000
    2    66     1      0.00000    20000
    3     4     1      0.00000    20000
    4     5     1      0.00000    20000
    5     6     1      0.00000    20000
    6     7     1      0.00000    20000
    6    65     1      0.00000    20000
    7     8     1      0.00000    20000
    8     9     1      0.00000    20000
    8    65     1      0.00000    20000
    9    10     1      0.00000    20000
    9    11     1      0.00000    20000
   11    12     1      0.00000    20000
   12    13     1      0.00000    20000
   13    14     1      0.00000    20000
   14    15     1      0.00000    20000
   14    64     1      0.00000    20000
   15    16     1      0.00000    20000
   16    17     1      0.00000    20000
   16    64     1      0.00000    20000
   17    18     1      0.00000    20000
   17    19     1      0.00000    20000
   19    20     1      0.00000    20000
   20    21     1      0.00000    20000
   21    22     1      0.00000    20000
   22    23     1      0.00000    20000
   22    63     1      0.00000    20000
   23    24     1      0.00000    20000
   23    39     1      0.00000    20000
   23    40     1      0.00000    20000
   23    63     1      0.00000    20000
   24    25     1      0.00000    20000
   25    26     1      0.00000    20000
   25    27     1      0.00000    20000
   25    29     1      0.00000    20000
   27    28     1      0.00000    20000
   28    29     1      0.00000    20000
   29    30     1      0.00000    20000
   30    31     1      0.00000    20000
   30    38     1      0.00000    20000
   31    32     1      0.00000    20000
   32    33     1      0.00000    20000
   32    38     1      0.00000    20000
   33    34     1      0.00000    20000
   33    37     1      0.00000    20000
   34    35     1      0.00000    20000
   35    36     1      0.00000    20000
   36    37     1      0.00000    20000
   39    40     1      0.00000    20000
   40    41     1      0.00000    20000
   40    42     1      0.00000    20000
   41    42     1      0.00000    20000
   42    43     1      0.00000    20000
   42    62     1      0.00000    20000
   43    44     1      0.00000    20000
   43    61     1      0.00000    20000
   43    62     1      0.00000    20000
   44    45     1      0.00000    20000
   45    46     1      0.00000    20000
   45    61     1      0.00000    20000
   46    47     1      0.00000    20000
   46    53     1      0.00000    20000
   46    55     1      0.00000    20000
   47    48     1      0.00000    20000
   48    49     1      0.00000    20000
   48    52     1      0.00000    20000
   49    50     1      0.00000    20000
   50    51     1      0.00000    20000
   51    52     1      0.00000    20000
   53    54     1      0.00000    20000
   54    55     1      0.00000    20000
   55    56     1      0.00000    20000
   56    57     1      0.00000    20000
   56    58     1      0.00000    20000
   56    60     1      0.00000    20000
   58    59     1      0.00000    20000
   59    60     1      0.00000    20000
   66    67     1      0.00000    20000
   66    70     1      0.00000    20000
   67    68     1      0.00000    20000
   68    69     1      0.00000    20000
   69    70     1      0.00000    20000
