[ moleculetype ]
; name        nrexcl
res           1

[ atoms ]
;    nr  type resnr resid  atom  cgnr     charge       mass
      1 TC4       1 res   C1        1      0.000     36.000
      2 TN4a      1 res   C2        2      0.000     36.000
      3 TN6       1 res   C3        3      0.000     36.000
      4 TN6       1 res   C4        4      0.000     36.000
      5 SC3       1 res   C5        5      0.000     54.000
      6 SC4       1 res   C6        6      0.000     54.000
      7 TC3       1 res   C7        7      0.000     36.000
      8 SC4       1 res   C8        8      0.000     54.000
      9 TC3       1 res   C9        9      0.000     36.000
     10 SC4       1 res   C10      10      0.000     54.000
     11 SC5       1 res   C11      11      0.000     54.000
     12 SC1       1 res   C12      12      0.000     54.000
     13 SP1       1 res   C13      13      0.000     54.000
     14 SP2       1 res   C14      14      0.000     54.000
     15 SC4       1 res   C15      15      0.000     54.000
     16 TN4a      1 res   C16      16      0.000     36.000
     17 TP1       1 res   C17      17      0.000     36.000
     18 TN6       1 res   C18      18      0.000     36.000
     19 TN6       1 res   C19      19      0.000     36.000
     20 TN6       1 res   C20      20      0.000     36.000
     21 TN6       1 res   C21      21      0.000     36.000
     22 TN6       1 res   C22      22      0.000     36.000

[ bonds ]
;  ai    aj   funct      b0(nm)        k
    1     2     1      0.29746    20000
    1    22     1      0.24888    20000
    2     3     1      0.20850    20000
    2    20     1      0.25094    20000
    3     4     1      0.21222    20000
    3    19     1      0.21004    20000
    4     5     1      0.28883    20000
    4    16     1      0.23215    20000
    5     6     1      0.29524    20000
    5    15     1      0.34206    20000
    6     7     1      0.33499    20000
    6     8     1      0.40552    20000
    6    15     1      0.35711    20000
    7     8     1      0.26527    20000
    8     9     1      0.33470    20000
    8    10     1      0.28981    20000
    9    10     1      0.31163    20000
   10    11     1      0.27497    20000
   11    12     1      0.39894    20000
   11    14     1      0.36786    20000
   12    13     1      0.28424    20000
   16    17     1      0.22899    20000
   16    18     1      0.25288    20000
   18    19     1      0.24976    20000
   20    21     1      0.25011    20000
   21    22     1      0.23718    20000
