1TPCN04729
22
    1res  C1    1   -0.556  -0.350  -0.142
    1res  C2    2   -0.598  -0.057  -0.111
    1res  C3    3   -0.536   0.112  -0.005
    1res  C4    4   -0.394   0.015   0.120
    1res  C5    5   -0.127  -0.049   0.209
    1res  C6    6    0.123  -0.086   0.057
    1res  C7    7    0.045   0.128  -0.188
    1res  C8    8    0.143   0.311  -0.023
    1res  C9    9    0.318   0.139   0.205
    1res  C10   10    0.432   0.301  -0.036
    1res  C11   11    0.462   0.091  -0.210
    1res  C12   12    0.761  -0.092  -0.019
    1res  C13   13    0.907  -0.288   0.126
    1res  C14   14    0.438  -0.272  -0.155
    1res  C15   15   -0.183  -0.173  -0.105
    1res  C16   16   -0.361   0.187   0.273
    1res  C17   17   -0.466   0.314   0.432
    1res  C18   18   -0.382   0.382   0.113
    1res  C19   19   -0.609   0.302   0.047
    1res  C20   20   -0.811   0.003  -0.230
    1res  C21   21   -0.935  -0.167  -0.095
    1res  C22   22   -0.804  -0.361  -0.131
  10.00000  10.00000  10.00000
