[ moleculetype ]
; name        nrexcl
res           1

[ atoms ]
;    nr  type resnr resid  atom  cgnr     charge       mass
      1 SC4       1 res   C1        1      0.000     54.000
      2 SC5       1 res   C2        2      0.000     54.000
      3 SC4       1 res   C3        3      0.000     54.000
      4 TC3       1 res   C4        4      0.000     36.000
      5 SC4       1 res   C5        5      0.000     54.000
      6 SC4       1 res   C6        6      0.000     54.000
      7 TC3       1 res   C7        7      0.000     36.000
      8 TN6       1 res   C8        8      0.000     36.000
      9 SN4a      1 res   C9        9      0.000     54.000
     10 TN6       1 res   C10      10      0.000     36.000
     11 TN6       1 res   C11      11      0.000     36.000
     12 TN6       1 res   C12      12      0.000     36.000
     13 TC4       1 res   C13      13      0.000     36.000
     14 TP1       1 res   C14      14      0.000     36.000
     15 TC3       1 res   C15      15      0.000     36.000
     16 TC3       1 res   C16      16      0.000     36.000
     17 SP2       1 res   C17      17      0.000     54.000
     18 SN6       1 res   C18      18      0.000     54.000
     19 SN4a      1 res   C19      19      0.000     54.000
     20 TP1       1 res   C20      20      0.000     36.000
     21 TN6       1 res   C21      21      0.000     36.000
     22 TN6       1 res   C22      22      0.000     36.000
     23 TN6       1 res   C23      23      0.000     36.000
     24 SN4a      1 res   C24      24      0.000     54.000
     25 TP1       1 res   C25      25      0.000     36.000
     26 TN6       1 res   C26      26      0.000     36.000
     27 TN6       1 res   C27      27      0.000     36.000
     28 TN6       1 res   C28      28      0.000     36.000

[ bonds ]
;  ai    aj   funct      b0(nm)        k
    1     2     1      0.28377    20000
    1    18     1      0.29730    20000
    2     3     1      0.33068    20000
    2    16     1      0.36915    20000
    2    17     1      0.32035    20000
    2    18     1      0.28331    20000
    3     4     1      0.40164    20000
    3     5     1      0.29099    20000
    3    16     1      0.27347    20000
    4     5     1      0.33471    20000
    5     6     1      0.34932    20000
    5    15     1      0.28191    20000
    6     7     1      0.26466    20000
    6    13     1      0.28986    20000
    6    15     1      0.26996    20000
    7     8     1      0.24971    20000
    8     9     1      0.28741    20000
    8    13     1      0.28057    20000
    9    10     1      0.28232    20000
    9    12     1      0.28559    20000
   10    11     1      0.22181    20000
   11    12     1      0.24820    20000
   13    14     1      0.28819    20000
   18    19     1      0.37055    20000
   19    20     1      0.31092    20000
   19    21     1      0.27336    20000
   19    23     1      0.27476    20000
   21    22     1      0.23876    20000
   22    23     1      0.21879    20000
   23    24     1      0.24111    20000
   24    25     1      0.29088    20000
   24    26     1      0.29600    20000
   24    28     1      0.28553    20000
   26    27     1      0.26233    20000
   27    28     1      0.22845    20000
