1TPCN05857
43
    1res  C1    1    1.243  -0.098   0.316
    1res  C2    2    0.925   0.003   0.202
    1res  C3    3    0.873  -0.007  -0.059
    1res  C4    4    0.664   0.152  -0.003
    1res  C5    5    0.448  -0.062   0.031
    1res  C6    6    0.290   0.206  -0.167
    1res  C7    7    0.337   0.278   0.070
    1res  C8    8    0.263   0.095   0.310
    1res  C9    9    0.130   0.368   0.226
    1res  C10   10   -0.105   0.122   0.314
    1res  C11   11   -0.328  -0.023   0.425
    1res  C12   12   -0.364   0.231   0.282
    1res  C13   13   -0.179   0.077   0.011
    1res  C14   14   -0.281   0.011  -0.199
    1res  C15   15   -0.336   0.228  -0.432
    1res  C16   16   -0.520   0.204  -0.207
    1res  C17   17   -0.701   0.043  -0.515
    1res  C18   18   -0.666   0.161  -0.007
    1res  C19   19   -0.747   0.392   0.062
    1res  C20   20   -0.971   0.637   0.099
    1res  C21   21   -0.878   0.276   0.191
    1res  C22   22   -0.904   0.115   0.016
    1res  C23   23   -0.465  -0.033  -0.100
    1res  C24   24   -0.657  -0.140  -0.118
    1res  C25   25   -0.923  -0.218  -0.243
    1res  C26   26   -0.872  -0.314  -0.030
    1res  C27   27   -0.987  -0.571   0.131
    1res  C28   28   -1.121  -0.720  -0.069
    1res  C29   29   -1.272  -0.555  -0.038
    1res  C30   30   -1.190  -0.361   0.089
    1res  C31   31   -0.686  -0.380   0.054
    1res  C32   32   -0.513  -0.310  -0.056
    1res  C33   33   -0.069   0.363   0.039
    1res  C34   34    0.570   0.048  -0.332
    1res  C35   35    0.574  -0.190  -0.211
    1res  C36   36    1.019  -0.157  -0.073
    1res  C37   37    1.282  -0.260  -0.176
    1res  C38   38    1.511  -0.407  -0.079
    1res  C39   39    1.540  -0.139  -0.188
    1res  C40   40    1.427   0.043  -0.224
    1res  C41   41    1.215  -0.049  -0.317
    1res  C42   42    0.924  -0.333   0.068
    1res  C43   43    0.861  -0.211   0.266
  10.00000  10.00000  10.00000
