[ moleculetype ]
; name        nrexcl
res           1

[ atoms ]
;    nr  type resnr resid  atom  cgnr     charge       mass
      1 N4a       1 res   C1        1      0.000     72.000
      2 TN4a      1 res   C2        2      0.000     36.000
      3 TN6       1 res   C3        3      0.000     36.000
      4 SC3       1 res   C4        4      0.000     54.000
      5 SC4       1 res   C5        5      0.000     54.000
      6 TC3       1 res   C6        6      0.000     36.000
      7 SC4       1 res   C7        7      0.000     54.000
      8 TC3       1 res   C8        8      0.000     36.000
      9 SC4       1 res   C9        9      0.000     54.000
     10 SC5       1 res   C10      10      0.000     54.000
     11 SC4       1 res   C11      11      0.000     54.000
     12 TC3       1 res   C12      12      0.000     36.000
     13 SN4a      1 res   C13      13      0.000     54.000
     14 TN4a      1 res   C14      14      0.000     36.000
     15 TC4       1 res   C15      15      0.000     36.000
     16 TC3       1 res   C16      16      0.000     36.000
     17 SN4a      1 res   C17      17      0.000     54.000
     18 TN6       1 res   C18      18      0.000     36.000
     19 TN4a      1 res   C19      19      0.000     36.000
     20 N4a       1 res   C20      20      0.000     72.000
     21 TN6       1 res   C21      21      0.000     36.000
     22 TN6       1 res   C22      22      0.000     36.000
     23 TN6       1 res   C23      23      0.000     36.000
     24 TN4a      1 res   C24      24      0.000     36.000
     25 TC4       1 res   C25      25      0.000     36.000
     26 TN6       1 res   C26      26      0.000     36.000
     27 SN4a      1 res   C27      27      0.000     54.000
     28 TN6       1 res   C28      28      0.000     36.000
     29 TN6       1 res   C29      29      0.000     36.000
     30 TN6       1 res   C30      30      0.000     36.000
     31 TN6       1 res   C31      31      0.000     36.000
     32 TN6       1 res   C32      32      0.000     36.000
     33 TC3       1 res   C33      33      0.000     36.000
     34 TC4       1 res   C34      34      0.000     36.000
     35 TN4a      1 res   C35      35      0.000     36.000
     36 TN6       1 res   C36      36      0.000     36.000
     37 SN4a      1 res   C37      37      0.000     54.000
     38 TP1       1 res   C38      38      0.000     36.000
     39 TN6       1 res   C39      39      0.000     36.000
     40 TN6       1 res   C40      40      0.000     36.000
     41 TN6       1 res   C41      41      0.000     36.000
     42 TN6       1 res   C42      42      0.000     36.000
     43 TN6       1 res   C43      43      0.000     36.000

[ bonds ]
;  ai    aj   funct      b0(nm)        k
    1     2     1      0.35267    20000
    2     3     1      0.26655    20000
    2    43     1      0.23220    20000
    3     4     1      0.26874    20000
    3    36     1      0.20972    20000
    4     5     1      0.30630    20000
    4    34     1      0.35769    20000
    5     6     1      0.36910    20000
    5     7     1      0.36002    20000
    5    34     1      0.39887    20000
    6     7     1      0.25147    20000
    7     8     1      0.31087    20000
    7     9     1      0.27380    20000
    8     9     1      0.31471    20000
    9    10     1      0.35092    20000
    9    33     1      0.27332    20000
   10    11     1      0.28831    20000
   10    12     1      0.28258    20000
   10    13     1      0.31478    20000
   10    33     1      0.36747    20000
   11    12     1      0.29321    20000
   13    14     1      0.24258    20000
   14    15     1      0.32284    20000
   14    23     1      0.21285    20000
   15    16     1      0.29134    20000
   16    17     1      0.39221    20000
   16    18     1      0.25141    20000
   16    23     1      0.26569    20000
   18    19     1      0.25444    20000
   18    22     1      0.24325    20000
   19    20     1      0.33371    20000
   19    21     1      0.21732    20000
   21    22     1      0.23973    20000
   23    24     1      0.22109    20000
   24    25     1      0.30369    20000
   24    32     1      0.23110    20000
   25    26     1      0.23915    20000
   26    27     1      0.32433    20000
   26    31     1      0.21404    20000
   27    28     1      0.28374    20000
   27    30     1      0.29514    20000
   28    29     1      0.22505    20000
   29    30     1      0.24559    20000
   31    32     1      0.21691    20000
   34    35     1      0.26761    20000
   36    37     1      0.29996    20000
   36    42     1      0.24458    20000
   37    38     1      0.28909    20000
   37    39     1      0.28507    20000
   37    41     1      0.26241    20000
   39    40     1      0.21691    20000
   40    41     1      0.24912    20000
   42    43     1      0.24135    20000
