[ moleculetype ]
; name        nrexcl
res           1

[ atoms ]
;    nr  type  resnr resid  atom  cgnr     charge       mass
      1 TC3       1 res   C1        1      0.000     36.000
      2 TC3       1 res   C2        2      0.000     36.000
      3 TC3       1 res   C3        3      0.000     36.000
      4 TN6d      1 res   C4        4      0.000     36.000
      5 TC3       1 res   C5        5      0.000     36.000
      6 TC5       1 res   C6        6      0.000     36.000
      7 TN6d      1 res   C7        7      0.000     36.000
      8 TC5       1 res   C8        8      0.000     36.000
      9 TC5       1 res   C9        9      0.000     36.000
     10 TC5       1 res   C10      10      0.000     36.000
     11 TN2a      1 res   C11      11      0.000     36.000
     12 TC5       1 res   C12      12      0.000     36.000
     13 N4a       1 res   C13      13      0.000     72.000

[ constraints ]
;  ai    aj   funct      b0(nm)
    1     2     1      0.25738
   10    11     1      0.31489
    2     3     1      0.27325
    6    12     1      0.24134
    4     5     1      0.26683
    2    12     1      0.26603
    6     8     1      0.18507
    3     4     1      0.25665
    7     8     1      0.21662
    5     6     1      0.25409
    8    10     1      0.22263
    9    10     1      0.30250
    6     7     1      0.21666
   12    13     1      0.36865
    3    12     1      0.28846
    8     9     1      0.24968
    4    12     1      0.28416

[ bonds ]
;  ai    aj   funct      b0(nm)          k(kJ/mol/nm^2)

[ angles ]
;  ai    aj    ak  funct     th0(deg)        k(kJ/mol/rad^2)
    1     2     3     1    148.85058           389.31
    1     2    12     1     95.27492          1120.69
    2     3     4     1     71.67343          2626.90
    2     3    12     1     56.45725          6017.16
    2    12     3     1     58.88066          4858.22
    2    12     4     1     68.63151          3324.73
    2    12     6     1    139.11405          1085.06
    2    12    13     1     76.39931           206.54
    3     2    12     1     64.66207          5950.27
    3     4     5     1    103.61107           267.01
    3     4    12     1     64.23601          5603.12
    3    12     4     1     53.24809          5602.62
    3    12     6     1     80.49966          1394.56
    3    12    13     1     76.57099           964.16
    4     3    12     1     62.51590          5301.44
    4     5     6     1     91.56403           583.59
    4    12     6     1     90.17491           648.14
    4    12    13     1    127.99182           565.54
    5     4    12     1     69.50444          2029.61
    5     6     7     1    166.76958           195.26
    5     6     8     1    117.56460          1163.22
    5     6    12     1     78.72850          2378.01
    6     7     8     1     50.56998          7291.24
    6     8     7     1     64.72840          3743.95
    6     8     9     1    160.61321          1811.60
    6     8    10     1    118.94143          1871.87
    6    12    13     1     92.63236           292.27
    7     6     8     1     64.70156          4485.64
    7     6    12     1     93.17329           538.79
    7     8     9     1     96.60670          1710.29
    7     8    10     1    173.26934           985.53
    8     6    12     1    147.11354           302.33
    8     9    10     1     46.34024          9734.01
    8    10     9     1     54.23062          8115.95
    8    10    11     1    123.97145           662.45
    9     8    10     1     79.42913          4777.18
    9    10    11     1     71.72522           539.85

[ dihedrals ]
;  ai    aj    ak    al  funct   phi0(deg)        k(kJ/mol)   mult
    1     2     3     4     1    162.13175       15.571      1
    1     2     3    12     1   -130.25312       14.937      1
    1     2    12     3     1     23.81521       12.141      1
    1     2    12     4     1     82.67291       11.419      1
    1     2    12     6     1     19.87168       10.734      1
    1     2    12    13     1    -58.90868       10.075      1
    2     3     4     5     1    -60.73194        7.055      1
    2     3     4    12     1   -118.06087        3.233      1
    2     3    12     4     1     94.96899        5.500      1
    2     3    12     6     1     -2.07007        7.825      1
    2     3    12    13     1    -98.93558       11.551      1
    2    12     3     4     1    -94.96899        5.500      1
    2    12     4     3     1    113.03135        4.015      1
    2    12     4     5     1     -3.88902       10.770      1
    2    12     6     5     1    -84.94086        9.939      1
    2    12     6     7     1     84.82186       14.344      1
    2    12     6     8     1     41.98075       16.282      1
    3     2    12     4     1   -121.02424        3.996      1
    3     2    12     6     1    176.90822       11.474      1
    3     2    12    13     1     97.95928        7.820      1
    3     4     5     6     1    162.00229       10.804      1
    3     4    12     6     1   -101.82120        7.761      1
    3     4    12    13     1    164.04972       15.111      1
    3    12     4     5     1     62.98022       11.518      1
    3    12     6     5     1    -87.85719        9.278      1
    3    12     6     7     1     82.77860       15.694      1
    3    12     6     8     1     37.08917       15.715      1
    4     3     2    12     1    111.04119        3.964      1
    4     3    12     6     1     82.80960        8.542      1
    4     3    12    13     1    -12.97601       12.962      1
    4     5     6     7     1    101.40880       21.084      1
    4     5     6     8     1    -12.11058       14.240      1
    4     5     6    12     1    137.94503        7.812      1
    4    12     6     5     1   -140.96030        7.098      1
    4    12     6     7     1     29.89413       13.681      1
    4    12     6     8     1    -15.85924       16.410      1
    5     4     3    12     1   -121.00601        7.055      1
    5     4    12     6     1    140.03736        7.816      1
    5     4    12    13     1     46.99098       11.523      1
    5     6     7     8     1     55.14661       23.519      1
    5     6     8     7     1    -13.16238       12.953      1
    5     6     8     9     1    -14.78996       21.940      1
    5     6     8    10     1    168.01813       15.021      1
    5     6    12    13     1    -10.12680       10.780      1
    6     5     4    12     1   -142.07035        7.773      1
    6     7     8     9     1     -0.70670       11.421      1
    6     7     8    10     1     -1.42827       25.743      1
    6     8     9    10     1     -1.97147       22.843      1
    6     8    10     9     1     -0.73898       12.897      1
    6     8    10    11     1     -0.34232       24.058      1
    7     6     8     9     1    179.40585       21.813      1
    7     6     8    10     1      1.93213       10.844      1
    7     6    12    13     1    160.60577       17.097      1
    7     8     6    12     1   -129.01973       12.977      1
    7     8     9    10     1      1.92893        9.358      1
    7     8    10     9     1   -179.97841       28.030      1
    7     8    10    11     1   -176.37885       28.235      1
    8     6    12    13     1    115.12873       17.671      1
    8     7     6    12     1     25.31351       10.025      1
    8     9    10    11     1      1.85080       21.742      1
    9     8     6    12     1   -127.98125       25.330      1
    9     8    10    11     1    179.11640       24.833      1
   10     8     6    12     1     52.68129       15.736      1
