1TPCN03931
27
    1res  C1    1   -0.940   0.338  -0.158
    1res  C2    2   -0.757   0.065  -0.151
    1res  C3    3   -0.528   0.169  -0.013
    1res  C4    4   -0.578   0.035   0.234
    1res  C5    5   -0.863   0.091   0.319
    1res  C6    6   -0.655  -0.096   0.468
    1res  C7    7   -0.437  -0.100   0.473
    1res  C8    8   -0.430  -0.140   0.261
    1res  C9    9   -0.450  -0.025  -0.207
    1res  C10   10   -0.334  -0.026  -0.415
    1res  C11   11   -0.160   0.041  -0.041
    1res  C12   12   -0.075  -0.070  -0.410
    1res  C13   13    0.175  -0.060  -0.347
    1res  C14   14    0.251   0.111  -0.102
    1res  C15   15    0.417  -0.077  -0.106
    1res  C16   16    0.663  -0.033  -0.160
    1res  C17   17    0.781   0.224  -0.290
    1res  C18   18    0.921   0.042  -0.132
    1res  C19   19    0.903  -0.104   0.020
    1res  C20   20    0.701  -0.116   0.088
    1res  C21   21    0.712  -0.072   0.316
    1res  C22   22    0.948  -0.087   0.541
    1res  C23   23    0.758   0.129   0.514
    1res  C24   24    0.594   0.219   0.412
    1res  C25   25    0.484   0.056   0.282
    1res  C26   26    0.292  -0.278  -0.054
    1res  C27   27   -0.062  -0.281  -0.156
  10.00000  10.00000  10.00000
