Generated with MDTraj, t= 0.0
 78
    1UNL     C1    1   1.068   0.126  -0.168
    1UNL     O1    2   1.020   0.129  -0.036
    1UNL     C2    3   0.881   0.135  -0.024
    1UNL     C3    4   0.828   0.140   0.105
    1UNL     C4    5   0.692   0.148   0.125
    1UNL     C5    6   0.605   0.150   0.018
    1UNL     C6    7   0.459   0.159   0.041
    1UNL     O2    8   0.417   0.167   0.155
    1UNL     O3    9   0.380   0.159  -0.071
    1UNL     C7   10   0.244   0.168  -0.035
    1UNL     C8   11   0.183   0.031  -0.004
    1UNL     C9   12   0.216  -0.038   0.135
    1UNL     O4   13   0.273  -0.166   0.100
    1UNL    C10   14   0.196  -0.211  -0.015
    1UNL     O5   15   0.249  -0.326  -0.079
    1UNL    C11   16   0.051  -0.234   0.039
    1UNL    C12   17  -0.002  -0.097   0.091
    1UNL    C13   18  -0.146  -0.100   0.140
    1UNL     O6   19   0.089  -0.058   0.198
    1UNL    C14   20   0.027   0.014  -0.021
    1UNL     O7   21  -0.047   0.135  -0.013
    1UNL    C15   22  -0.165   0.132  -0.091
    1UNL     O8   23  -0.224   0.002  -0.102
    1UNL    C16   24  -0.336  -0.005  -0.191
    1UNL    C17   25  -0.397  -0.145  -0.180
    1UNL     O9   26  -0.441  -0.173  -0.049
    1UNL    C18   27  -0.575  -0.151  -0.037
    1UNL    O10   28  -0.645  -0.111  -0.128
    1UNL    C19   29  -0.635  -0.175   0.096
    1UNL    C20   30  -0.768  -0.147   0.118
    1UNL    C21   31  -0.824  -0.166   0.243
    1UNL    C22   32  -0.746  -0.213   0.347
    1UNL    C23   33  -0.613  -0.241   0.326
    1UNL    C24   34  -0.557  -0.222   0.201
    1UNL    C25   35  -0.441   0.108  -0.164
    1UNL    O11   36  -0.441   0.203  -0.270
    1UNL    C26   37  -0.409   0.178  -0.028
    1UNL    O12   38  -0.421   0.089   0.082
    1UNL    C27   39  -0.266   0.238  -0.037
    1UNL    O13   40  -0.265   0.354  -0.118
    1UNL    C28   41   0.058  -0.042  -0.164
    1UNL    C29   42   0.197  -0.084  -0.110
    1UNL    C30   43   0.656   0.144  -0.111
    1UNL    C31   44   0.792   0.137  -0.132
    1UNL     H1   45   1.031   0.037  -0.219
    1UNL     H2   46   1.037   0.217  -0.221
    1UNL     H3   47   1.177   0.123  -0.165
    1UNL     H4   48   0.896   0.139   0.188
    1UNL     H5   49   0.651   0.152   0.225
    1UNL     H6   50   0.234   0.235   0.051
    1UNL     H7   51   0.192   0.214  -0.120
    1UNL     H8   52   0.284   0.021   0.199
    1UNL     H9   53   0.282  -0.387  -0.010
    1UNL    H10   54  -0.014  -0.275  -0.039
    1UNL    H11   55   0.054  -0.305   0.121
    1UNL    H12   56  -0.176   0.000   0.171
    1UNL    H13   57  -0.157  -0.167   0.224
    1UNL    H14   58  -0.213  -0.132   0.060
    1UNL    H15   59  -0.135   0.161  -0.193
    1UNL    H16   60  -0.295   0.009  -0.292
    1UNL    H17   61  -0.481  -0.159  -0.249
    1UNL    H18   62  -0.321  -0.221  -0.204
    1UNL    H19   63  -0.827  -0.109   0.036
    1UNL    H20   64  -0.928  -0.143   0.259
    1UNL    H21   65  -0.790  -0.228   0.444
    1UNL    H22   66  -0.552  -0.278   0.407
    1UNL    H23   67  -0.453  -0.244   0.183
    1UNL    H24   68  -0.541   0.065  -0.160
    1UNL    H25   69  -0.471   0.161  -0.354
    1UNL    H26   70  -0.481   0.260  -0.011
    1UNL    H27   71  -0.417  -0.003   0.046
    1UNL    H28   72  -0.233   0.269   0.063
    1UNL    H29   73  -0.319   0.333  -0.197
    1UNL    H30   74   0.061   0.036  -0.240
    1UNL    H31   75  -0.007  -0.125  -0.194
    1UNL    H32   76   0.283  -0.075  -0.177
    1UNL    H33   77   0.587   0.146  -0.194
    1UNL    H34   78   0.829   0.133  -0.233
   0.00000   0.00000   0.00000   0.00000   0.00000   0.00000   0.00000   0.00000   0.00000
Generated with MDTraj, t= 1.0
 78
    1UNL     C1    1   1.082   0.100  -0.165
    1UNL     O1    2   1.025   0.093  -0.034
    1UNL     C2    3   0.887   0.118  -0.035
    1UNL     C3    4   0.834   0.123   0.092
    1UNL     C4    5   0.698   0.137   0.114
    1UNL     C5    6   0.606   0.154   0.009
    1UNL     C6    7   0.455   0.171   0.036
    1UNL     O2    8   0.417   0.197   0.149
    1UNL     O3    9   0.361   0.161  -0.067
    1UNL     C7   10   0.232   0.168  -0.027
    1UNL     C8   11   0.179   0.030   0.005
    1UNL     C9   12   0.212  -0.023   0.150
    1UNL     O4   13   0.278  -0.147   0.115
    1UNL    C10   14   0.200  -0.202   0.004
    1UNL     O5   15   0.263  -0.304  -0.072
    1UNL    C11   16   0.056  -0.229   0.050
    1UNL    C12   17  -0.005  -0.091   0.106
    1UNL    C13   18  -0.157  -0.084   0.137
    1UNL     O6   19   0.080  -0.052   0.208
    1UNL    C14   20   0.018   0.016  -0.013
    1UNL     O7   21  -0.055   0.134  -0.002
    1UNL    C15   22  -0.172   0.136  -0.081
    1UNL     O8   23  -0.234   0.007  -0.099
    1UNL    C16   24  -0.343   0.006  -0.196
    1UNL    C17   25  -0.401  -0.137  -0.194
    1UNL     O9   26  -0.440  -0.171  -0.062
    1UNL    C18   27  -0.574  -0.150  -0.051
    1UNL    O10   28  -0.650  -0.118  -0.144
    1UNL    C19   29  -0.624  -0.177   0.086
    1UNL    C20   30  -0.757  -0.190   0.118
    1UNL    C21   31  -0.806  -0.219   0.243
    1UNL    C22   32  -0.719  -0.235   0.345
    1UNL    C23   33  -0.583  -0.216   0.324
    1UNL    C24   34  -0.533  -0.202   0.194
    1UNL    C25   35  -0.442   0.113  -0.169
    1UNL    O11   36  -0.435   0.210  -0.277
    1UNL    C26   37  -0.425   0.180  -0.034
    1UNL    O12   38  -0.452   0.096   0.075
    1UNL    C27   39  -0.275   0.238  -0.030
    1UNL    O13   40  -0.276   0.358  -0.108
    1UNL    C28   41   0.052  -0.041  -0.155
    1UNL    C29   42   0.193  -0.081  -0.104
    1UNL    C30   43   0.660   0.137  -0.120
    1UNL    C31   44   0.795   0.119  -0.145
    1UNL     H1   45   1.065   0.186  -0.223
    1UNL     H2   46   1.191   0.099  -0.163
    1UNL     H3   47   1.050   0.007  -0.213
    1UNL     H4   48   0.904   0.136   0.168
    1UNL     H5   49   0.658   0.118   0.215
    1UNL     H6   50   0.223   0.234   0.060
    1UNL     H7   51   0.174   0.212  -0.110
    1UNL     H8   52   0.291   0.023   0.207
    1UNL     H9   53   0.291  -0.381  -0.028
    1UNL    H10   54  -0.018  -0.272  -0.018
    1UNL    H11   55   0.066  -0.296   0.133
    1UNL    H12   56  -0.185   0.019   0.134
    1UNL    H13   57  -0.183  -0.120   0.237
    1UNL    H14   58  -0.204  -0.138   0.053
    1UNL    H15   59  -0.143   0.159  -0.184
    1UNL    H16   60  -0.292   0.022  -0.293
    1UNL    H17   61  -0.483  -0.143  -0.265
    1UNL    H18   62  -0.325  -0.209  -0.219
    1UNL    H19   63  -0.826  -0.192   0.034
    1UNL    H20   64  -0.915  -0.215   0.264
    1UNL    H21   65  -0.764  -0.235   0.443
    1UNL    H22   66  -0.511  -0.245   0.395
    1UNL    H23   67  -0.427  -0.199   0.179
    1UNL    H24   68  -0.539   0.069  -0.168
    1UNL    H25   69  -0.451   0.170  -0.358
    1UNL    H26   70  -0.490   0.270  -0.017
    1UNL    H27   71  -0.424   0.001   0.044
    1UNL    H28   72  -0.243   0.269   0.072
    1UNL    H29   73  -0.343   0.338  -0.184
    1UNL    H30   74   0.045   0.049  -0.227
    1UNL    H31   75  -0.011  -0.120  -0.179
    1UNL    H32   76   0.277  -0.080  -0.174
    1UNL    H33   77   0.592   0.159  -0.202
    1UNL    H34   78   0.832   0.091  -0.242
   0.00000   0.00000   0.00000   0.00000   0.00000   0.00000   0.00000   0.00000   0.00000
Generated with MDTraj, t= 2.0
 78
    1UNL     C1    1   1.064   0.057  -0.178
    1UNL     O1    2   1.015   0.063  -0.047
    1UNL     C2    3   0.879   0.092  -0.036
    1UNL     C3    4   0.823   0.114   0.090
    1UNL     C4    5   0.689   0.125   0.114
    1UNL     C5    6   0.597   0.148   0.013
    1UNL     C6    7   0.450   0.169   0.042
    1UNL     O2    8   0.407   0.188   0.157
    1UNL     O3    9   0.367   0.170  -0.068
    1UNL     C7   10   0.229   0.192  -0.042
    1UNL     C8   11   0.170   0.054   0.008
    1UNL     C9   12   0.222  -0.006   0.146
    1UNL     O4   13   0.270  -0.141   0.112
    1UNL    C10   14   0.195  -0.192   0.005
    1UNL     O5   15   0.256  -0.310  -0.047
    1UNL    C11   16   0.058  -0.218   0.059
    1UNL    C12   17  -0.002  -0.081   0.113
    1UNL    C13   18  -0.150  -0.089   0.161
    1UNL     O6   19   0.089  -0.033   0.218
    1UNL    C14   20   0.018   0.034  -0.009
    1UNL     O7   21  -0.059   0.150  -0.001
    1UNL    C15   22  -0.173   0.147  -0.082
    1UNL     O8   23  -0.232   0.013  -0.102
    1UNL    C16   24  -0.337   0.013  -0.203
    1UNL    C17   25  -0.397  -0.130  -0.207
    1UNL     O9   26  -0.437  -0.178  -0.077
    1UNL    C18   27  -0.569  -0.165  -0.052
    1UNL    O10   28  -0.648  -0.123  -0.138
    1UNL    C19   29  -0.618  -0.200   0.084
    1UNL    C20   30  -0.748  -0.235   0.112
    1UNL    C21   31  -0.790  -0.262   0.241
    1UNL    C22   32  -0.708  -0.243   0.349
    1UNL    C23   33  -0.575  -0.220   0.328
    1UNL    C24   34  -0.530  -0.194   0.195
    1UNL    C25   35  -0.445   0.123  -0.179
    1UNL    O11   36  -0.442   0.219  -0.291
    1UNL    C26   37  -0.419   0.189  -0.037
    1UNL    O12   38  -0.431   0.086   0.057
    1UNL    C27   39  -0.275   0.247  -0.031
    1UNL    O13   40  -0.275   0.372  -0.103
    1UNL    C28   41   0.053  -0.030  -0.148
    1UNL    C29   42   0.194  -0.061  -0.096
    1UNL    C30   43   0.652   0.152  -0.117
    1UNL    C31   44   0.783   0.114  -0.138
    1UNL     H1   45   1.055   0.137  -0.248
    1UNL     H2   46   1.172   0.047  -0.168
    1UNL     H3   47   1.026  -0.044  -0.211
    1UNL     H4   48   0.896   0.108   0.180
    1UNL     H5   49   0.655   0.147   0.212
    1UNL     H6   50   0.223   0.268   0.037
    1UNL     H7   51   0.180   0.234  -0.131
    1UNL     H8   52   0.282   0.048   0.217
    1UNL     H9   53   0.314  -0.339   0.016
    1UNL    H10   54  -0.016  -0.264  -0.010
    1UNL    H11   55   0.066  -0.274   0.148
    1UNL    H12   56  -0.182  -0.015   0.232
    1UNL    H13   57  -0.153  -0.183   0.218
    1UNL    H14   58  -0.216  -0.097   0.072
    1UNL    H15   59  -0.142   0.173  -0.183
    1UNL    H16   60  -0.275   0.022  -0.295
    1UNL    H17   61  -0.492  -0.122  -0.264
    1UNL    H18   62  -0.329  -0.196  -0.255
    1UNL    H19   63  -0.824  -0.236   0.033
    1UNL    H20   64  -0.891  -0.284   0.256
    1UNL    H21   65  -0.749  -0.253   0.448
    1UNL    H22   66  -0.517  -0.207   0.428
    1UNL    H23   67  -0.421  -0.206   0.180
    1UNL    H24   68  -0.544   0.085  -0.186
    1UNL    H25   69  -0.456   0.178  -0.373
    1UNL    H26   70  -0.500   0.266  -0.031
    1UNL    H27   71  -0.403   0.005   0.022
    1UNL    H28   72  -0.236   0.270   0.074
    1UNL    H29   73  -0.306   0.357  -0.188
    1UNL    H30   74   0.044   0.052  -0.228
    1UNL    H31   75  -0.003  -0.117  -0.162
    1UNL    H32   76   0.279  -0.038  -0.162
    1UNL    H33   77   0.587   0.172  -0.201
    1UNL    H34   78   0.818   0.122  -0.241
   0.00000   0.00000   0.00000   0.00000   0.00000   0.00000   0.00000   0.00000   0.00000
Generated with MDTraj, t= 3.0
 78
    1UNL     C1    1   1.040   0.006  -0.190
    1UNL     O1    2   0.994   0.055  -0.063
    1UNL     C2    3   0.857   0.084  -0.038
    1UNL     C3    4   0.806   0.092   0.096
    1UNL     C4    5   0.673   0.112   0.121
    1UNL     C5    6   0.586   0.143   0.015
    1UNL     C6    7   0.447   0.181   0.045
    1UNL     O2    8   0.412   0.195   0.164
    1UNL     O3    9   0.369   0.190  -0.068
    1UNL     C7   10   0.235   0.201  -0.029
    1UNL     C8   11   0.174   0.061   0.012
    1UNL     C9   12   0.217   0.006   0.151
    1UNL     O4   13   0.270  -0.136   0.123
    1UNL    C10   14   0.193  -0.182   0.010
    1UNL     O5   15   0.235  -0.310  -0.039
    1UNL    C11   16   0.051  -0.197   0.059
    1UNL    C12   17  -0.000  -0.065   0.109
    1UNL    C13   18  -0.145  -0.075   0.160
    1UNL     O6   19   0.090  -0.015   0.214
    1UNL    C14   20   0.026   0.045  -0.012
    1UNL     O7   21  -0.053   0.168  -0.014
    1UNL    C15   22  -0.167   0.154  -0.094
    1UNL     O8   23  -0.218   0.016  -0.105
    1UNL    C16   24  -0.329   0.013  -0.201
    1UNL    C17   25  -0.381  -0.131  -0.190
    1UNL     O9   26  -0.420  -0.158  -0.058
    1UNL    C18   27  -0.552  -0.169  -0.051
    1UNL    O10   28  -0.625  -0.136  -0.147
    1UNL    C19   29  -0.613  -0.192   0.086
    1UNL    C20   30  -0.741  -0.251   0.100
    1UNL    C21   31  -0.780  -0.293   0.226
    1UNL    C22   32  -0.699  -0.282   0.334
    1UNL    C23   33  -0.571  -0.235   0.322
    1UNL    C24   34  -0.527  -0.191   0.198
    1UNL    C25   35  -0.446   0.118  -0.174
    1UNL    O11   36  -0.452   0.215  -0.280
    1UNL    C26   37  -0.418   0.188  -0.038
    1UNL    O12   38  -0.431   0.098   0.080
    1UNL    C27   39  -0.272   0.250  -0.039
    1UNL    O13   40  -0.271   0.368  -0.119
    1UNL    C28   41   0.068  -0.015  -0.154
    1UNL    C29   42   0.194  -0.056  -0.096
    1UNL    C30   43   0.636   0.146  -0.114
    1UNL    C31   44   0.767   0.106  -0.144
    1UNL     H1   45   0.988   0.036  -0.273
    1UNL     H2   46   1.142   0.046  -0.195
    1UNL     H3   47   1.054  -0.107  -0.179
    1UNL     H4   48   0.871   0.075   0.172
    1UNL     H5   49   0.626   0.118   0.223
    1UNL     H6   50   0.214   0.283   0.042
    1UNL     H7   51   0.179   0.227  -0.121
    1UNL     H8   52   0.277   0.066   0.218
    1UNL     H9   53   0.291  -0.336   0.028
    1UNL    H10   54  -0.020  -0.220  -0.022
    1UNL    H11   55   0.041  -0.266   0.142
    1UNL    H12   56  -0.194   0.021   0.178
    1UNL    H13   57  -0.152  -0.121   0.261
    1UNL    H14   58  -0.204  -0.133   0.088
    1UNL    H15   59  -0.148   0.182  -0.195
    1UNL    H16   60  -0.291   0.019  -0.309
    1UNL    H17   61  -0.462  -0.143  -0.269
    1UNL    H18   62  -0.297  -0.198  -0.197
    1UNL    H19   63  -0.811  -0.232   0.023
    1UNL    H20   64  -0.882  -0.341   0.227
    1UNL    H21   65  -0.743  -0.310   0.427
    1UNL    H22   66  -0.506  -0.238   0.398
    1UNL    H23   67  -0.423  -0.176   0.187
    1UNL    H24   68  -0.542   0.070  -0.174
    1UNL    H25   69  -0.476   0.160  -0.359
    1UNL    H26   70  -0.492   0.268  -0.013
    1UNL    H27   71  -0.407   0.001   0.046
    1UNL    H28   72  -0.245   0.279   0.070
    1UNL    H29   73  -0.327   0.340  -0.200
    1UNL    H30   74   0.081   0.053  -0.240
    1UNL    H31   75  -0.003  -0.094  -0.180
    1UNL    H32   76   0.287  -0.038  -0.151
    1UNL    H33   77   0.563   0.165  -0.190
    1UNL    H34   78   0.802   0.107  -0.243
   0.00000   0.00000   0.00000   0.00000   0.00000   0.00000   0.00000   0.00000   0.00000
Generated with MDTraj, t= 4.0
 78
    1UNL     C1    1   1.012  -0.031  -0.198
    1UNL     O1    2   0.986   0.023  -0.064
    1UNL     C2    3   0.857   0.069  -0.037
    1UNL     C3    4   0.809   0.085   0.096
    1UNL     C4    5   0.680   0.127   0.115
    1UNL     C5    6   0.592   0.151   0.008
    1UNL     C6    7   0.457   0.184   0.040
    1UNL     O2    8   0.436   0.200   0.160
    1UNL     O3    9   0.371   0.191  -0.061
    1UNL     C7   10   0.235   0.203  -0.020
    1UNL     C8   11   0.173   0.067   0.017
    1UNL     C9   12   0.204   0.006   0.166
    1UNL     O4   13   0.264  -0.116   0.132
    1UNL    C10   14   0.189  -0.172   0.019
    1UNL     O5   15   0.251  -0.279  -0.046
    1UNL    C11   16   0.043  -0.195   0.055
    1UNL    C12   17  -0.016  -0.048   0.108
    1UNL    C13   18  -0.160  -0.051   0.147
    1UNL     O6   19   0.074  -0.010   0.215
    1UNL    C14   20   0.022   0.056  -0.008
    1UNL     O7   21  -0.054   0.179  -0.012
    1UNL    C15   22  -0.166   0.172  -0.099
    1UNL     O8   23  -0.212   0.035  -0.118
    1UNL    C16   24  -0.326   0.014  -0.198
    1UNL    C17   25  -0.366  -0.134  -0.186
    1UNL     O9   26  -0.405  -0.154  -0.050
    1UNL    C18   27  -0.540  -0.176  -0.040
    1UNL    O10   28  -0.611  -0.136  -0.133
    1UNL    C19   29  -0.600  -0.228   0.086
    1UNL    C20   30  -0.732  -0.267   0.094
    1UNL    C21   31  -0.791  -0.317   0.211
    1UNL    C22   32  -0.715  -0.306   0.325
    1UNL    C23   33  -0.583  -0.259   0.321
    1UNL    C24   34  -0.524  -0.223   0.203
    1UNL    C25   35  -0.441   0.115  -0.163
    1UNL    O11   36  -0.446   0.206  -0.273
    1UNL    C26   37  -0.411   0.193  -0.039
    1UNL    O12   38  -0.407   0.112   0.085
    1UNL    C27   39  -0.280   0.266  -0.047
    1UNL    O13   40  -0.294   0.372  -0.142
    1UNL    C28   41   0.057  -0.004  -0.146
    1UNL    C29   42   0.191  -0.052  -0.091
    1UNL    C30   43   0.637   0.136  -0.118
    1UNL    C31   44   0.766   0.095  -0.143
    1UNL     H1   45   1.054   0.050  -0.246
    1UNL     H2   46   1.085  -0.113  -0.181
    1UNL     H3   47   0.927  -0.073  -0.262
    1UNL     H4   48   0.875   0.065   0.183
    1UNL     H5   49   0.637   0.127   0.208
    1UNL     H6   50   0.229   0.263   0.072
    1UNL     H7   51   0.172   0.256  -0.097
    1UNL     H8   52   0.278   0.062   0.225
    1UNL     H9   53   0.288  -0.337   0.016
    1UNL    H10   54  -0.005  -0.239  -0.033
    1UNL    H11   55   0.039  -0.262   0.142
    1UNL    H12   56  -0.210   0.048   0.140
    1UNL    H13   57  -0.168  -0.067   0.256
    1UNL    H14   58  -0.215  -0.127   0.093
    1UNL    H15   59  -0.132   0.213  -0.190
    1UNL    H16   60  -0.296   0.039  -0.305
    1UNL    H17   61  -0.460  -0.163  -0.246
    1UNL    H18   62  -0.274  -0.186  -0.212
    1UNL    H19   63  -0.779  -0.290  -0.005
    1UNL    H20   64  -0.893  -0.315   0.231
    1UNL    H21   65  -0.761  -0.338   0.420
    1UNL    H22   66  -0.526  -0.272   0.419
    1UNL    H23   67  -0.416  -0.201   0.204
    1UNL    H24   68  -0.548   0.085  -0.149
    1UNL    H25   69  -0.472   0.150  -0.357
    1UNL    H26   70  -0.494   0.265  -0.026
    1UNL    H27   71  -0.398   0.024   0.056
    1UNL    H28   72  -0.234   0.319   0.047
    1UNL    H29   73  -0.350   0.341  -0.219
    1UNL    H30   74   0.065   0.068  -0.222
    1UNL    H31   75  -0.012  -0.092  -0.173
    1UNL    H32   76   0.282  -0.038  -0.151
    1UNL    H33   77   0.574   0.172  -0.198
    1UNL    H34   78   0.786   0.059  -0.244
   0.00000   0.00000   0.00000   0.00000   0.00000   0.00000   0.00000   0.00000   0.00000
Generated with MDTraj, t= 5.0
 78
    1UNL     C1    1   1.004  -0.051  -0.202
    1UNL     O1    2   0.980  -0.014  -0.066
    1UNL     C2    3   0.851   0.036  -0.045
    1UNL     C3    4   0.820   0.070   0.090
    1UNL     C4    5   0.703   0.141   0.113
    1UNL     C5    6   0.606   0.159   0.014
    1UNL     C6    7   0.468   0.192   0.047
    1UNL     O2    8   0.443   0.196   0.166
    1UNL     O3    9   0.384   0.211  -0.056
    1UNL     C7   10   0.250   0.227  -0.023
    1UNL     C8   11   0.181   0.091   0.016
    1UNL     C9   12   0.208   0.022   0.160
    1UNL     O4   13   0.256  -0.107   0.134
    1UNL    C10   14   0.189  -0.158   0.016
    1UNL     O5   15   0.261  -0.268  -0.039
    1UNL    C11   16   0.043  -0.177   0.065
    1UNL    C12   17  -0.015  -0.033   0.108
    1UNL    C13   18  -0.158  -0.032   0.152
    1UNL     O6   19   0.074   0.012   0.220
    1UNL    C14   20   0.027   0.067  -0.005
    1UNL     O7   21  -0.058   0.187  -0.014
    1UNL    C15   22  -0.175   0.172  -0.091
    1UNL     O8   23  -0.220   0.037  -0.101
    1UNL    C16   24  -0.322   0.017  -0.195
    1UNL    C17   25  -0.368  -0.129  -0.190
    1UNL     O9   26  -0.397  -0.167  -0.056
    1UNL    C18   27  -0.535  -0.181  -0.040
    1UNL    O10   28  -0.614  -0.145  -0.128
    1UNL    C19   29  -0.601  -0.232   0.087
    1UNL    C20   30  -0.735  -0.269   0.090
    1UNL    C21   31  -0.793  -0.322   0.202
    1UNL    C22   32  -0.715  -0.349   0.315
    1UNL    C23   33  -0.587  -0.295   0.320
    1UNL    C24   34  -0.532  -0.238   0.213
    1UNL    C25   35  -0.450   0.110  -0.169
    1UNL    O11   36  -0.475   0.193  -0.289
    1UNL    C26   37  -0.424   0.199  -0.039
    1UNL    O12   38  -0.425   0.114   0.080
    1UNL    C27   39  -0.283   0.272  -0.049
    1UNL    O13   40  -0.289   0.377  -0.140
    1UNL    C28   41   0.059   0.002  -0.145
    1UNL    C29   42   0.199  -0.032  -0.080
    1UNL    C30   43   0.643   0.128  -0.121
    1UNL    C31   44   0.761   0.067  -0.149
    1UNL     H1   45   0.969   0.032  -0.255
    1UNL     H2   46   1.113  -0.068  -0.204
    1UNL     H3   47   0.956  -0.145  -0.241
    1UNL     H4   48   0.895   0.043   0.168
    1UNL     H5   49   0.684   0.175   0.220
    1UNL     H6   50   0.238   0.303   0.055
    1UNL     H7   51   0.198   0.267  -0.114
    1UNL     H8   52   0.268   0.091   0.222
    1UNL     H9   53   0.272  -0.341   0.020
    1UNL    H10   54  -0.014  -0.223  -0.013
    1UNL    H11   55   0.051  -0.245   0.154
    1UNL    H12   56  -0.166   0.066   0.206
    1UNL    H13   57  -0.205  -0.109   0.214
    1UNL    H14   58  -0.208  -0.018   0.057
    1UNL    H15   59  -0.149   0.200  -0.188
    1UNL    H16   60  -0.290   0.031  -0.305
    1UNL    H17   61  -0.455  -0.144  -0.267
    1UNL    H18   62  -0.281  -0.193  -0.211
    1UNL    H19   63  -0.786  -0.254   0.001
    1UNL    H20   64  -0.904  -0.339   0.191
    1UNL    H21   65  -0.758  -0.368   0.411
    1UNL    H22   66  -0.524  -0.315   0.404
    1UNL    H23   67  -0.428  -0.217   0.208
    1UNL    H24   68  -0.537   0.037  -0.164
    1UNL    H25   69  -0.501   0.126  -0.367
    1UNL    H26   70  -0.509   0.266  -0.024
    1UNL    H27   71  -0.433   0.015   0.046
    1UNL    H28   72  -0.251   0.321   0.052
    1UNL    H29   73  -0.324   0.333  -0.214
    1UNL    H30   74   0.055   0.072  -0.222
    1UNL    H31   75   0.003  -0.098  -0.162
    1UNL    H32   76   0.286  -0.027  -0.148
    1UNL    H33   77   0.574   0.153  -0.201
    1UNL    H34   78   0.786   0.042  -0.248
   0.00000   0.00000   0.00000   0.00000   0.00000   0.00000   0.00000   0.00000   0.00000
Generated with MDTraj, t= 6.0
 78
    1UNL     C1    1   1.009  -0.058  -0.199
    1UNL     O1    2   0.977  -0.025  -0.069
    1UNL     C2    3   0.850   0.026  -0.055
    1UNL     C3    4   0.819   0.062   0.074
    1UNL     C4    5   0.695   0.111   0.116
    1UNL     C5    6   0.597   0.126   0.017
    1UNL     C6    7   0.470   0.197   0.050
    1UNL     O2    8   0.438   0.231   0.163
    1UNL     O3    9   0.390   0.212  -0.062
    1UNL     C7   10   0.255   0.236  -0.029
    1UNL     C8   11   0.183   0.111   0.020
    1UNL     C9   12   0.216   0.047   0.161
    1UNL     O4   13   0.275  -0.089   0.140
    1UNL    C10   14   0.201  -0.135   0.022
    1UNL     O5   15   0.257  -0.257  -0.040
    1UNL    C11   16   0.054  -0.158   0.078
    1UNL    C12   17   0.002  -0.016   0.117
    1UNL    C13   18  -0.147  -0.020   0.165
    1UNL     O6   19   0.086   0.029   0.224
    1UNL    C14   20   0.026   0.081  -0.006
    1UNL     O7   21  -0.063   0.197  -0.011
    1UNL    C15   22  -0.180   0.170  -0.087
    1UNL     O8   23  -0.219   0.038  -0.092
    1UNL    C16   24  -0.324   0.011  -0.185
    1UNL    C17   25  -0.361  -0.133  -0.172
    1UNL     O9   26  -0.415  -0.155  -0.043
    1UNL    C18   27  -0.553  -0.178  -0.048
    1UNL    O10   28  -0.622  -0.135  -0.140
    1UNL    C19   29  -0.614  -0.241   0.073
    1UNL    C20   30  -0.748  -0.277   0.086
    1UNL    C21   31  -0.792  -0.329   0.207
    1UNL    C22   32  -0.702  -0.361   0.312
    1UNL    C23   33  -0.567  -0.327   0.294
    1UNL    C24   34  -0.533  -0.256   0.181
    1UNL    C25   35  -0.448   0.104  -0.172
    1UNL    O11   36  -0.458   0.190  -0.296
    1UNL    C26   37  -0.429   0.185  -0.041
    1UNL    O12   38  -0.434   0.100   0.074
    1UNL    C27   39  -0.294   0.264  -0.046
    1UNL    O13   40  -0.300   0.375  -0.135
    1UNL    C28   41   0.062   0.021  -0.137
    1UNL    C29   42   0.200  -0.016  -0.076
    1UNL    C30   43   0.620   0.075  -0.114
    1UNL    C31   44   0.749   0.041  -0.152
    1UNL     H1   45   1.031   0.034  -0.248
    1UNL     H2   46   1.081  -0.142  -0.188
    1UNL     H3   47   0.923  -0.104  -0.254
    1UNL     H4   48   0.892   0.045   0.144
    1UNL     H5   49   0.681   0.153   0.208
    1UNL     H6   50   0.248   0.309   0.053
    1UNL     H7   51   0.202   0.282  -0.118
    1UNL     H8   52   0.277   0.117   0.225
    1UNL     H9   53   0.328  -0.282   0.023
    1UNL    H10   54   0.013  -0.206  -0.010
    1UNL    H11   55   0.050  -0.223   0.169
    1UNL    H12   56  -0.194   0.081   0.171
    1UNL    H13   57  -0.160  -0.066   0.264
    1UNL    H14   58  -0.197  -0.079   0.086
    1UNL    H15   59  -0.156   0.196  -0.186
    1UNL    H16   60  -0.260   0.038  -0.280
    1UNL    H17   61  -0.449  -0.158  -0.244
    1UNL    H18   62  -0.266  -0.184  -0.191
    1UNL    H19   63  -0.814  -0.232   0.004
    1UNL    H20   64  -0.892  -0.349   0.230
    1UNL    H21   65  -0.734  -0.399   0.410
    1UNL    H22   66  -0.503  -0.335   0.379
    1UNL    H23   67  -0.426  -0.251   0.156
    1UNL    H24   68  -0.542   0.039  -0.158
    1UNL    H25   69  -0.477   0.136  -0.382
    1UNL    H26   70  -0.513   0.254  -0.038
    1UNL    H27   71  -0.401   0.018   0.044
    1UNL    H28   72  -0.263   0.314   0.057
    1UNL    H29   73  -0.366   0.345  -0.212
    1UNL    H30   74   0.054   0.086  -0.223
    1UNL    H31   75   0.002  -0.071  -0.162
    1UNL    H32   76   0.283  -0.011  -0.149
    1UNL    H33   77   0.538   0.059  -0.182
    1UNL    H34   78   0.785   0.059  -0.253
   0.00000   0.00000   0.00000   0.00000   0.00000   0.00000   0.00000   0.00000   0.00000
Generated with MDTraj, t= 7.0
 78
    1UNL     C1    1   1.007  -0.068  -0.199
    1UNL     O1    2   0.965  -0.053  -0.063
    1UNL     C2    3   0.843   0.010  -0.049
    1UNL     C3    4   0.808   0.056   0.078
    1UNL     C4    5   0.690   0.117   0.102
    1UNL     C5    6   0.592   0.124   0.004
    1UNL     C6    7   0.460   0.195   0.027
    1UNL     O2    8   0.432   0.229   0.140
    1UNL     O3    9   0.380   0.220  -0.081
    1UNL     C7   10   0.253   0.247  -0.034
    1UNL     C8   11   0.181   0.119   0.014
    1UNL     C9   12   0.217   0.067   0.166
    1UNL     O4   13   0.286  -0.059   0.145
    1UNL    C10   14   0.205  -0.123   0.032
    1UNL     O5   15   0.259  -0.241  -0.023
    1UNL    C11   16   0.061  -0.151   0.092
    1UNL    C12   17   0.002  -0.014   0.125
    1UNL    C13   18  -0.138  -0.031   0.179
    1UNL     O6   19   0.092   0.040   0.231
    1UNL    C14   20   0.019   0.089   0.006
    1UNL     O7   21  -0.066   0.198  -0.007
    1UNL    C15   22  -0.180   0.173  -0.091
    1UNL     O8   23  -0.220   0.034  -0.099
    1UNL    C16   24  -0.332   0.011  -0.194
    1UNL    C17   25  -0.369  -0.136  -0.185
    1UNL     O9   26  -0.403  -0.169  -0.051
    1UNL    C18   27  -0.540  -0.192  -0.051
    1UNL    O10   28  -0.611  -0.148  -0.140
    1UNL    C19   29  -0.597  -0.243   0.078
    1UNL    C20   30  -0.740  -0.259   0.089
    1UNL    C21   31  -0.797  -0.320   0.197
    1UNL    C22   32  -0.714  -0.369   0.299
    1UNL    C23   33  -0.577  -0.353   0.288
    1UNL    C24   34  -0.518  -0.290   0.180
    1UNL    C25   35  -0.445   0.114  -0.174
    1UNL    O11   36  -0.429   0.208  -0.276
    1UNL    C26   37  -0.432   0.184  -0.039
    1UNL    O12   38  -0.440   0.101   0.072
    1UNL    C27   39  -0.297   0.266  -0.040
    1UNL    O13   40  -0.308   0.382  -0.121
    1UNL    C28   41   0.056   0.023  -0.127
    1UNL    C29   42   0.200  -0.010  -0.073
    1UNL    C30   43   0.616   0.067  -0.120
    1UNL    C31   44   0.747   0.024  -0.146
    1UNL     H1   45   0.951  -0.003  -0.264
    1UNL     H2   46   1.118  -0.066  -0.205
    1UNL     H3   47   0.976  -0.173  -0.219
    1UNL     H4   48   0.883   0.038   0.164
    1UNL     H5   49   0.665   0.157   0.205
    1UNL     H6   50   0.255   0.328   0.040
    1UNL     H7   51   0.188   0.289  -0.119
    1UNL     H8   52   0.289   0.138   0.216
    1UNL     H9   53   0.313  -0.280   0.054
    1UNL    H10   54   0.003  -0.199   0.013
    1UNL    H11   55   0.061  -0.210   0.187
    1UNL    H12   56  -0.189   0.066   0.190
    1UNL    H13   57  -0.135  -0.073   0.281
    1UNL    H14   58  -0.199  -0.098   0.113
    1UNL    H15   59  -0.153   0.201  -0.188
    1UNL    H16   60  -0.285   0.043  -0.298
    1UNL    H17   61  -0.447  -0.154  -0.269
    1UNL    H18   62  -0.280  -0.197  -0.191
    1UNL    H19   63  -0.793  -0.232   0.004
    1UNL    H20   64  -0.907  -0.303   0.213
    1UNL    H21   65  -0.754  -0.426   0.379
    1UNL    H22   66  -0.497  -0.403   0.352
    1UNL    H23   67  -0.412  -0.280   0.171
    1UNL    H24   68  -0.543   0.056  -0.176
    1UNL    H25   69  -0.429   0.175  -0.365
    1UNL    H26   70  -0.510   0.259  -0.029
    1UNL    H27   71  -0.429   0.001   0.041
    1UNL    H28   72  -0.269   0.299   0.072
    1UNL    H29   73  -0.328   0.347  -0.209
    1UNL    H30   74   0.058   0.091  -0.217
    1UNL    H31   75  -0.023  -0.042  -0.167
    1UNL    H32   76   0.282   0.002  -0.147
    1UNL    H33   77   0.544   0.070  -0.200
    1UNL    H34   78   0.766  -0.019  -0.242
   0.00000   0.00000   0.00000   0.00000   0.00000   0.00000   0.00000   0.00000   0.00000
Generated with MDTraj, t= 8.0
 78
    1UNL     C1    1   1.010  -0.081  -0.186
    1UNL     O1    2   0.939  -0.078  -0.062
    1UNL     C2    3   0.819   0.000  -0.045
    1UNL     C3    4   0.795   0.061   0.077
    1UNL     C4    5   0.689   0.145   0.086
    1UNL     C5    6   0.590   0.140  -0.011
    1UNL     C6    7   0.461   0.207   0.011
    1UNL     O2    8   0.436   0.250   0.121
    1UNL     O3    9   0.372   0.221  -0.097
    1UNL     C7   10   0.245   0.241  -0.040
    1UNL     C8   11   0.186   0.115   0.016
    1UNL     C9   12   0.215   0.062   0.161
    1UNL     O4   13   0.275  -0.062   0.142
    1UNL    C10   14   0.203  -0.128   0.040
    1UNL     O5   15   0.274  -0.253   0.018
    1UNL    C11   16   0.060  -0.152   0.097
    1UNL    C12   17  -0.002  -0.012   0.133
    1UNL    C13   18  -0.142  -0.016   0.179
    1UNL     O6   19   0.086   0.041   0.229
    1UNL    C14   20   0.021   0.088   0.004
    1UNL     O7   21  -0.057   0.203  -0.009
    1UNL    C15   22  -0.179   0.186  -0.084
    1UNL     O8   23  -0.205   0.044  -0.094
    1UNL    C16   24  -0.312   0.010  -0.186
    1UNL    C17   25  -0.351  -0.134  -0.183
    1UNL     O9   26  -0.397  -0.177  -0.060
    1UNL    C18   27  -0.532  -0.189  -0.057
    1UNL    O10   28  -0.595  -0.143  -0.147
    1UNL    C19   29  -0.589  -0.242   0.066
    1UNL    C20   30  -0.725  -0.244   0.080
    1UNL    C21   31  -0.793  -0.301   0.194
    1UNL    C22   32  -0.711  -0.367   0.291
    1UNL    C23   33  -0.576  -0.370   0.277
    1UNL    C24   34  -0.515  -0.314   0.161
    1UNL    C25   35  -0.441   0.111  -0.169
    1UNL    O11   36  -0.444   0.193  -0.278
    1UNL    C26   37  -0.429   0.181  -0.031
    1UNL    O12   38  -0.451   0.095   0.078
    1UNL    C27   39  -0.297   0.267  -0.016
    1UNL    O13   40  -0.308   0.392  -0.088
    1UNL    C28   41   0.058   0.012  -0.125
    1UNL    C29   42   0.198  -0.017  -0.071
    1UNL    C30   43   0.615   0.079  -0.130
    1UNL    C31   44   0.730   0.009  -0.149
    1UNL     H1   45   1.099  -0.017  -0.183
    1UNL     H2   46   1.033  -0.184  -0.216
    1UNL     H3   47   0.942  -0.043  -0.260
    1UNL     H4   48   0.868   0.052   0.149
    1UNL     H5   49   0.658   0.191   0.175
    1UNL     H6   50   0.247   0.317   0.037
    1UNL     H7   51   0.180   0.290  -0.123
    1UNL     H8   52   0.284   0.133   0.216
    1UNL     H9   53   0.333  -0.285   0.099
    1UNL    H10   54  -0.015  -0.204   0.035
    1UNL    H11   55   0.070  -0.216   0.186
    1UNL    H12   56  -0.161   0.083   0.218
    1UNL    H13   57  -0.151  -0.084   0.266
    1UNL    H14   58  -0.218  -0.043   0.101
    1UNL    H15   59  -0.165   0.220  -0.182
    1UNL    H16   60  -0.265   0.032  -0.293
    1UNL    H17   61  -0.437  -0.159  -0.251
    1UNL    H18   62  -0.265  -0.184  -0.217
    1UNL    H19   63  -0.796  -0.212   0.002
    1UNL    H20   64  -0.896  -0.291   0.217
    1UNL    H21   65  -0.759  -0.402   0.384
    1UNL    H22   66  -0.527  -0.435   0.339
    1UNL    H23   67  -0.407  -0.327   0.142
    1UNL    H24   68  -0.529   0.043  -0.176
    1UNL    H25   69  -0.460   0.150  -0.358
    1UNL    H26   70  -0.509   0.258  -0.032
    1UNL    H27   71  -0.451   0.004   0.049
    1UNL    H28   72  -0.282   0.284   0.102
    1UNL    H29   73  -0.366   0.388  -0.166
    1UNL    H30   74   0.055   0.069  -0.224
    1UNL    H31   75   0.007  -0.076  -0.156
    1UNL    H32   76   0.285  -0.017  -0.139
    1UNL    H33   77   0.553   0.095  -0.217
    1UNL    H34   78   0.731  -0.057  -0.234
   0.00000   0.00000   0.00000   0.00000   0.00000   0.00000   0.00000   0.00000   0.00000
Generated with MDTraj, t= 9.0
 78
    1UNL     C1    1   0.983  -0.104  -0.181
    1UNL     O1    2   0.934  -0.073  -0.056
    1UNL     C2    3   0.819   0.001  -0.050
    1UNL     C3    4   0.789   0.066   0.072
    1UNL     C4    5   0.672   0.137   0.090
    1UNL     C5    6   0.590   0.157  -0.016
    1UNL     C6    7   0.461   0.224   0.006
    1UNL     O2    8   0.437   0.279   0.110
    1UNL     O3    9   0.368   0.201  -0.097
    1UNL     C7   10   0.240   0.232  -0.041
    1UNL     C8   11   0.178   0.105   0.011
    1UNL     C9   12   0.213   0.071   0.159
    1UNL     O4   13   0.283  -0.058   0.151
    1UNL    C10   14   0.203  -0.128   0.054
    1UNL     O5   15   0.257  -0.253   0.009
    1UNL    C11   16   0.060  -0.148   0.116
    1UNL    C12   17  -0.005  -0.002   0.140
    1UNL    C13   18  -0.149   0.013   0.185
    1UNL     O6   19   0.089   0.061   0.232
    1UNL    C14   20   0.020   0.079   0.005
    1UNL     O7   21  -0.051   0.200  -0.013
    1UNL    C15   22  -0.171   0.173  -0.075
    1UNL     O8   23  -0.207   0.035  -0.083
    1UNL    C16   24  -0.314   0.012  -0.182
    1UNL    C17   25  -0.344  -0.132  -0.191
    1UNL     O9   26  -0.392  -0.177  -0.069
    1UNL    C18   27  -0.524  -0.178  -0.066
    1UNL    O10   28  -0.595  -0.143  -0.156
    1UNL    C19   29  -0.593  -0.244   0.057
    1UNL    C20   30  -0.726  -0.223   0.081
    1UNL    C21   31  -0.780  -0.287   0.193
    1UNL    C22   32  -0.702  -0.361   0.280
    1UNL    C23   33  -0.570  -0.381   0.254
    1UNL    C24   34  -0.515  -0.316   0.145
    1UNL    C25   35  -0.440   0.112  -0.159
    1UNL    O11   36  -0.444   0.203  -0.260
    1UNL    C26   37  -0.416   0.169  -0.014
    1UNL    O12   38  -0.417   0.057   0.078
    1UNL    C27   39  -0.288   0.257  -0.014
    1UNL    O13   40  -0.306   0.371  -0.092
    1UNL    C28   41   0.047  -0.004  -0.121
    1UNL    C29   42   0.195  -0.025  -0.059
    1UNL    C30   43   0.608   0.089  -0.136
    1UNL    C31   44   0.722   0.012  -0.157
    1UNL     H1   45   1.040  -0.199  -0.187
    1UNL     H2   46   0.904  -0.105  -0.254
    1UNL     H3   47   1.049  -0.022  -0.207
    1UNL     H4   48   0.845   0.032   0.161
    1UNL     H5   49   0.645   0.184   0.185
    1UNL     H6   50   0.262   0.320   0.019
    1UNL     H7   51   0.177   0.284  -0.123
    1UNL     H8   52   0.271   0.140   0.226
    1UNL     H9   53   0.361  -0.251   0.004
    1UNL    H10   54  -0.018  -0.220   0.078
    1UNL    H11   55   0.078  -0.196   0.212
    1UNL    H12   56  -0.185   0.116   0.187
    1UNL    H13   57  -0.162  -0.035   0.285
    1UNL    H14   58  -0.209  -0.044   0.112
    1UNL    H15   59  -0.157   0.204  -0.175
    1UNL    H16   60  -0.279   0.052  -0.289
    1UNL    H17   61  -0.417  -0.133  -0.273
    1UNL    H18   62  -0.263  -0.195  -0.213
    1UNL    H19   63  -0.792  -0.159   0.026
    1UNL    H20   64  -0.887  -0.271   0.206
    1UNL    H21   65  -0.743  -0.388   0.374
    1UNL    H22   66  -0.488  -0.418   0.328
    1UNL    H23   67  -0.424  -0.349   0.098
    1UNL    H24   68  -0.533   0.051  -0.160
    1UNL    H25   69  -0.460   0.167  -0.347
    1UNL    H26   70  -0.503   0.232   0.014
    1UNL    H27   71  -0.389  -0.025   0.022
    1UNL    H28   72  -0.262   0.282   0.100
    1UNL    H29   73  -0.350   0.354  -0.185
    1UNL    H30   74   0.032   0.058  -0.217
    1UNL    H31   75   0.003  -0.097  -0.121
    1UNL    H32   76   0.280  -0.027  -0.130
    1UNL    H33   77   0.525   0.078  -0.204
    1UNL    H34   78   0.733  -0.039  -0.253
   0.00000   0.00000   0.00000   0.00000   0.00000   0.00000   0.00000   0.00000   0.00000
Generated with MDTraj, t= 10.0
 78
    1UNL     C1    1   0.967  -0.136  -0.172
    1UNL     O1    2   0.948  -0.053  -0.063
    1UNL     C2    3   0.818   0.006  -0.053
    1UNL     C3    4   0.788   0.063   0.068
    1UNL     C4    5   0.670   0.127   0.088
    1UNL     C5    6   0.591   0.155  -0.017
    1UNL     C6    7   0.456   0.222   0.006
    1UNL     O2    8   0.425   0.266   0.113
    1UNL     O3    9   0.371   0.214  -0.103
    1UNL     C7   10   0.237   0.232  -0.050
    1UNL     C8   11   0.185   0.107   0.011
    1UNL     C9   12   0.225   0.079   0.163
    1UNL     O4   13   0.299  -0.046   0.157
    1UNL    C10   14   0.214  -0.129   0.068
    1UNL     O5   15   0.251  -0.256   0.016
    1UNL    C11   16   0.078  -0.140   0.142
    1UNL    C12   17   0.016  -0.002   0.159
    1UNL    C13   18  -0.127   0.005   0.211
    1UNL     O6   19   0.111   0.066   0.240
    1UNL    C14   20   0.024   0.071   0.015
    1UNL     O7   21  -0.058   0.194  -0.006
    1UNL    C15   22  -0.171   0.173  -0.084
    1UNL     O8   23  -0.212   0.041  -0.111
    1UNL    C16   24  -0.327   0.022  -0.198
    1UNL    C17   25  -0.353  -0.126  -0.209
    1UNL     O9   26  -0.391  -0.182  -0.086
    1UNL    C18   27  -0.529  -0.191  -0.073
    1UNL    O10   28  -0.603  -0.143  -0.155
    1UNL    C19   29  -0.589  -0.251   0.047
    1UNL    C20   30  -0.722  -0.219   0.081
    1UNL    C21   31  -0.780  -0.270   0.200
    1UNL    C22   32  -0.702  -0.343   0.277
    1UNL    C23   33  -0.567  -0.378   0.250
    1UNL    C24   34  -0.514  -0.333   0.124
    1UNL    C25   35  -0.450   0.109  -0.162
    1UNL    O11   36  -0.469   0.212  -0.255
    1UNL    C26   37  -0.428   0.161  -0.016
    1UNL    O12   38  -0.421   0.056   0.079
    1UNL    C27   39  -0.296   0.253  -0.016
    1UNL    O13   40  -0.323   0.371  -0.087
    1UNL    C28   41   0.047  -0.013  -0.110
    1UNL    C29   42   0.197  -0.033  -0.059
    1UNL    C30   43   0.621   0.100  -0.144
    1UNL    C31   44   0.729   0.023  -0.159
    1UNL     H1   45   0.883  -0.208  -0.152
    1UNL     H2   46   0.951  -0.088  -0.263
    1UNL     H3   47   1.066  -0.180  -0.159
    1UNL     H4   48   0.855   0.053   0.153
    1UNL     H5   49   0.641   0.165   0.188
    1UNL     H6   50   0.244   0.316   0.018
    1UNL     H7   51   0.174   0.280  -0.134
    1UNL     H8   52   0.292   0.153   0.211
    1UNL     H9   53   0.255  -0.317   0.093
    1UNL    H10   54   0.004  -0.213   0.098
    1UNL    H11   55   0.075  -0.179   0.243
    1UNL    H12   56  -0.147   0.113   0.224
    1UNL    H13   57  -0.117  -0.041   0.313
    1UNL    H14   58  -0.206  -0.041   0.152
    1UNL    H15   59  -0.148   0.219  -0.176
    1UNL    H16   60  -0.286   0.069  -0.300
    1UNL    H17   61  -0.437  -0.153  -0.275
    1UNL    H18   62  -0.262  -0.159  -0.252
    1UNL    H19   63  -0.777  -0.146   0.020
    1UNL    H20   64  -0.884  -0.259   0.224
    1UNL    H21   65  -0.730  -0.379   0.377
    1UNL    H22   66  -0.518  -0.448   0.306
    1UNL    H23   67  -0.408  -0.351   0.102
    1UNL    H24   68  -0.534   0.038  -0.157
    1UNL    H25   69  -0.483   0.164  -0.345
    1UNL    H26   70  -0.510   0.232   0.012
    1UNL    H27   71  -0.370  -0.020   0.029
    1UNL    H28   72  -0.264   0.291   0.091
    1UNL    H29   73  -0.366   0.335  -0.161
    1UNL    H30   74   0.038   0.041  -0.208
    1UNL    H31   75  -0.003  -0.107  -0.106
    1UNL    H32   76   0.280  -0.051  -0.131
    1UNL    H33   77   0.547   0.109  -0.222
    1UNL    H34   78   0.750  -0.009  -0.258
   0.00000   0.00000   0.00000   0.00000   0.00000   0.00000   0.00000   0.00000   0.00000
Generated with MDTraj, t= 11.0
 78
    1UNL     C1    1   0.952  -0.162  -0.168
    1UNL     O1    2   0.947  -0.059  -0.064
    1UNL     C2    3   0.836   0.018  -0.055
    1UNL     C3    4   0.809   0.077   0.065
    1UNL     C4    5   0.684   0.137   0.084
    1UNL     C5    6   0.597   0.150  -0.023
    1UNL     C6    7   0.454   0.204  -0.002
    1UNL     O2    8   0.422   0.260   0.100
    1UNL     O3    9   0.365   0.193  -0.108
    1UNL     C7   10   0.238   0.232  -0.062
    1UNL     C8   11   0.177   0.112   0.011
    1UNL     C9   12   0.216   0.080   0.167
    1UNL     O4   13   0.282  -0.043   0.160
    1UNL    C10   14   0.205  -0.123   0.072
    1UNL     O5   15   0.278  -0.249   0.054
    1UNL    C11   16   0.067  -0.149   0.134
    1UNL    C12   17   0.003  -0.012   0.156
    1UNL    C13   18  -0.131  -0.006   0.222
    1UNL     O6   19   0.099   0.063   0.237
    1UNL    C14   20   0.022   0.072   0.021
    1UNL     O7   21  -0.067   0.188   0.008
    1UNL    C15   22  -0.183   0.172  -0.067
    1UNL     O8   23  -0.217   0.040  -0.097
    1UNL    C16   24  -0.322   0.020  -0.191
    1UNL    C17   25  -0.357  -0.129  -0.219
    1UNL     O9   26  -0.397  -0.201  -0.101
    1UNL    C18   27  -0.541  -0.195  -0.088
    1UNL    O10   28  -0.615  -0.155  -0.175
    1UNL    C19   29  -0.589  -0.237   0.045
    1UNL    C20   30  -0.717  -0.202   0.088
    1UNL    C21   31  -0.769  -0.262   0.199
    1UNL    C22   32  -0.685  -0.340   0.276
    1UNL    C23   33  -0.555  -0.371   0.232
    1UNL    C24   34  -0.508  -0.323   0.114
    1UNL    C25   35  -0.447   0.105  -0.155
    1UNL    O11   36  -0.464   0.206  -0.254
    1UNL    C26   37  -0.426   0.167  -0.006
    1UNL    O12   38  -0.424   0.067   0.090
    1UNL    C27   39  -0.304   0.257  -0.009
    1UNL    O13   40  -0.322   0.377  -0.081
    1UNL    C28   41   0.050  -0.012  -0.108
    1UNL    C29   42   0.193  -0.024  -0.056
    1UNL    C30   43   0.636   0.113  -0.149
    1UNL    C31   44   0.753   0.044  -0.164
    1UNL     H1   45   0.841  -0.175  -0.184
    1UNL     H2   46   0.997  -0.134  -0.257
    1UNL     H3   47   0.996  -0.252  -0.126
    1UNL     H4   48   0.888   0.083   0.133
    1UNL     H5   49   0.646   0.154   0.180
    1UNL     H6   50   0.241   0.327  -0.010
    1UNL     H7   51   0.178   0.251  -0.159
    1UNL     H8   52   0.270   0.171   0.193
    1UNL     H9   53   0.368  -0.233   0.033
    1UNL    H10   54  -0.007  -0.220   0.086
    1UNL    H11   55   0.079  -0.203   0.228
    1UNL    H12   56  -0.155   0.098   0.257
    1UNL    H13   57  -0.116  -0.074   0.307
    1UNL    H14   58  -0.213  -0.042   0.160
    1UNL    H15   59  -0.162   0.222  -0.160
    1UNL    H16   60  -0.291   0.075  -0.290
    1UNL    H17   61  -0.434  -0.122  -0.302
    1UNL    H18   62  -0.273  -0.188  -0.253
    1UNL    H19   63  -0.787  -0.154   0.024
    1UNL    H20   64  -0.867  -0.225   0.233
    1UNL    H21   65  -0.730  -0.409   0.344
    1UNL    H22   66  -0.495  -0.449   0.286
    1UNL    H23   67  -0.406  -0.340   0.092
    1UNL    H24   68  -0.537   0.044  -0.160
    1UNL    H25   69  -0.471   0.163  -0.351
    1UNL    H26   70  -0.519   0.228   0.005
    1UNL    H27   71  -0.410  -0.015   0.050
    1UNL    H28   72  -0.277   0.284   0.102
    1UNL    H29   73  -0.361   0.344  -0.172
    1UNL    H30   74   0.052   0.037  -0.203
    1UNL    H31   75  -0.009  -0.108  -0.114
    1UNL    H32   76   0.282  -0.033  -0.123
    1UNL    H33   77   0.575   0.143  -0.233
    1UNL    H34   78   0.781  -0.002  -0.260
   0.00000   0.00000   0.00000   0.00000   0.00000   0.00000   0.00000   0.00000   0.00000
Generated with MDTraj, t= 12.0
 78
    1UNL     C1    1   0.966  -0.162  -0.164
    1UNL     O1    2   0.952  -0.057  -0.067
    1UNL     C2    3   0.834   0.024  -0.068
    1UNL     C3    4   0.803   0.087   0.054
    1UNL     C4    5   0.680   0.135   0.080
    1UNL     C5    6   0.587   0.153  -0.026
    1UNL     C6    7   0.460   0.213  -0.004
    1UNL     O2    8   0.442   0.275   0.097
    1UNL     O3    9   0.360   0.203  -0.103
    1UNL     C7   10   0.233   0.225  -0.047
    1UNL     C8   11   0.180   0.099   0.026
    1UNL     C9   12   0.212   0.074   0.173
    1UNL     O4   13   0.283  -0.051   0.173
    1UNL    C10   14   0.205  -0.131   0.075
    1UNL     O5   15   0.266  -0.262   0.057
    1UNL    C11   16   0.059  -0.147   0.133
    1UNL    C12   17  -0.007  -0.003   0.150
    1UNL    C13   18  -0.145   0.000   0.197
    1UNL     O6   19   0.086   0.063   0.240
    1UNL    C14   20   0.023   0.070   0.014
    1UNL     O7   21  -0.060   0.190   0.002
    1UNL    C15   22  -0.181   0.173  -0.073
    1UNL     O8   23  -0.211   0.038  -0.110
    1UNL    C16   24  -0.320   0.020  -0.194
    1UNL    C17   25  -0.357  -0.130  -0.206
    1UNL     O9   26  -0.393  -0.189  -0.087
    1UNL    C18   27  -0.532  -0.185  -0.084
    1UNL    O10   28  -0.604  -0.142  -0.169
    1UNL    C19   29  -0.592  -0.249   0.036
    1UNL    C20   30  -0.720  -0.221   0.073
    1UNL    C21   31  -0.760  -0.254   0.201
    1UNL    C22   32  -0.677  -0.330   0.284
    1UNL    C23   33  -0.555  -0.370   0.242
    1UNL    C24   34  -0.511  -0.333   0.121
    1UNL    C25   35  -0.449   0.111  -0.165
    1UNL    O11   36  -0.468   0.225  -0.253
    1UNL    C26   37  -0.430   0.164  -0.015
    1UNL    O12   38  -0.433   0.055   0.074
    1UNL    C27   39  -0.299   0.245  -0.001
    1UNL    O13   40  -0.313   0.370  -0.067
    1UNL    C28   41   0.057  -0.016  -0.112
    1UNL    C29   42   0.199  -0.037  -0.046
    1UNL    C30   43   0.624   0.110  -0.152
    1UNL    C31   44   0.743   0.040  -0.170
    1UNL     H1   45   0.906  -0.246  -0.117
    1UNL     H2   46   0.920  -0.141  -0.254
    1UNL     H3   47   1.075  -0.175  -0.179
    1UNL     H4   48   0.875   0.075   0.140
    1UNL     H5   49   0.658   0.171   0.185
    1UNL     H6   50   0.249   0.299   0.028
    1UNL     H7   51   0.158   0.270  -0.122
    1UNL     H8   52   0.268   0.151   0.226
    1UNL     H9   53   0.354  -0.253   0.032
    1UNL    H10   54   0.010  -0.220   0.062
    1UNL    H11   55   0.056  -0.207   0.226
    1UNL    H12   56  -0.191   0.101   0.191
    1UNL    H13   57  -0.139  -0.034   0.301
    1UNL    H14   58  -0.212  -0.072   0.146
    1UNL    H15   59  -0.166   0.223  -0.170
    1UNL    H16   60  -0.280   0.048  -0.299
    1UNL    H17   61  -0.434  -0.160  -0.285
    1UNL    H18   62  -0.257  -0.166  -0.243
    1UNL    H19   63  -0.770  -0.147   0.009
    1UNL    H20   64  -0.860  -0.244   0.233
    1UNL    H21   65  -0.721  -0.355   0.381
    1UNL    H22   66  -0.489  -0.416   0.315
    1UNL    H23   67  -0.415  -0.353   0.075
    1UNL    H24   68  -0.538   0.049  -0.167
    1UNL    H25   69  -0.472   0.195  -0.351
    1UNL    H26   70  -0.512   0.229   0.026
    1UNL    H27   71  -0.407  -0.031   0.019
    1UNL    H28   72  -0.272   0.266   0.108
    1UNL    H29   73  -0.361   0.359  -0.154
    1UNL    H30   74   0.062   0.036  -0.203
    1UNL    H31   75  -0.012  -0.107  -0.125
    1UNL    H32   76   0.289  -0.033  -0.112
    1UNL    H33   77   0.556   0.114  -0.236
    1UNL    H34   78   0.753  -0.014  -0.260
   0.00000   0.00000   0.00000   0.00000   0.00000   0.00000   0.00000   0.00000   0.00000
Generated with MDTraj, t= 13.0
 78
    1UNL     C1    1   0.965  -0.127  -0.186
    1UNL     O1    2   0.953  -0.038  -0.079
    1UNL     C2    3   0.828   0.019  -0.067
    1UNL     C3    4   0.806   0.099   0.054
    1UNL     C4    5   0.684   0.155   0.082
    1UNL     C5    6   0.581   0.144  -0.016
    1UNL     C6    7   0.454   0.208   0.010
    1UNL     O2    8   0.435   0.262   0.118
    1UNL     O3    9   0.363   0.197  -0.093
    1UNL     C7   10   0.238   0.223  -0.045
    1UNL     C8   11   0.178   0.100   0.028
    1UNL     C9   12   0.209   0.073   0.176
    1UNL     O4   13   0.275  -0.056   0.176
    1UNL    C10   14   0.199  -0.130   0.075
    1UNL     O5   15   0.246  -0.262   0.030
    1UNL    C11   16   0.054  -0.146   0.136
    1UNL    C12   17  -0.007  -0.003   0.147
    1UNL    C13   18  -0.150   0.001   0.183
    1UNL     O6   19   0.081   0.067   0.242
    1UNL    C14   20   0.016   0.079   0.013
    1UNL     O7   21  -0.048   0.196  -0.017
    1UNL    C15   22  -0.170   0.173  -0.083
    1UNL     O8   23  -0.206   0.032  -0.110
    1UNL    C16   24  -0.319   0.020  -0.198
    1UNL    C17   25  -0.357  -0.133  -0.212
    1UNL     O9   26  -0.391  -0.186  -0.086
    1UNL    C18   27  -0.527  -0.180  -0.074
    1UNL    O10   28  -0.607  -0.150  -0.160
    1UNL    C19   29  -0.582  -0.237   0.053
    1UNL    C20   30  -0.712  -0.208   0.087
    1UNL    C21   31  -0.763  -0.262   0.195
    1UNL    C22   32  -0.691  -0.350   0.278
    1UNL    C23   33  -0.556  -0.364   0.246
    1UNL    C24   34  -0.499  -0.305   0.141
    1UNL    C25   35  -0.443   0.112  -0.169
    1UNL    O11   36  -0.446   0.223  -0.258
    1UNL    C26   37  -0.416   0.156  -0.022
    1UNL    O12   38  -0.416   0.045   0.069
    1UNL    C27   39  -0.288   0.240  -0.009
    1UNL    O13   40  -0.306   0.369  -0.065
    1UNL    C28   41   0.048  -0.014  -0.112
    1UNL    C29   42   0.195  -0.037  -0.048
    1UNL    C30   43   0.606   0.084  -0.137
    1UNL    C31   44   0.722   0.009  -0.160
    1UNL     H1   45   0.867  -0.178  -0.213
    1UNL     H2   46   0.998  -0.064  -0.264
    1UNL     H3   47   1.051  -0.189  -0.158
    1UNL     H4   48   0.887   0.101   0.118
    1UNL     H5   49   0.662   0.212   0.166
    1UNL     H6   50   0.246   0.301   0.026
    1UNL     H7   51   0.162   0.254  -0.124
    1UNL     H8   52   0.270   0.150   0.219
    1UNL     H9   53   0.239  -0.318   0.102
    1UNL    H10   54  -0.002  -0.216   0.072
    1UNL    H11   55   0.059  -0.193   0.238
    1UNL    H12   56  -0.163   0.108   0.203
    1UNL    H13   57  -0.184  -0.061   0.266
    1UNL    H14   58  -0.221  -0.022   0.100
    1UNL    H15   59  -0.158   0.214  -0.185
    1UNL    H16   60  -0.282   0.050  -0.301
    1UNL    H17   61  -0.434  -0.140  -0.296
    1UNL    H18   62  -0.266  -0.187  -0.248
    1UNL    H19   63  -0.760  -0.140   0.022
    1UNL    H20   64  -0.873  -0.259   0.210
    1UNL    H21   65  -0.733  -0.386   0.370
    1UNL    H22   66  -0.499  -0.414   0.319
    1UNL    H23   67  -0.392  -0.316   0.125
    1UNL    H24   68  -0.539   0.063  -0.176
    1UNL    H25   69  -0.446   0.196  -0.352
    1UNL    H26   70  -0.494   0.223   0.015
    1UNL    H27   71  -0.400  -0.030   0.016
    1UNL    H28   72  -0.266   0.254   0.099
    1UNL    H29   73  -0.357   0.358  -0.145
    1UNL    H30   74   0.043   0.034  -0.205
    1UNL    H31   75  -0.019  -0.107  -0.111
    1UNL    H32   76   0.265  -0.060  -0.132
    1UNL    H33   77   0.519   0.065  -0.197
    1UNL    H34   78   0.743  -0.046  -0.252
   0.00000   0.00000   0.00000   0.00000   0.00000   0.00000   0.00000   0.00000   0.00000
Generated with MDTraj, t= 14.0
 78
    1UNL     C1    1   0.971  -0.093  -0.212
    1UNL     O1    2   0.961  -0.027  -0.087
    1UNL     C2    3   0.832   0.012  -0.054
    1UNL     C3    4   0.819   0.101   0.052
    1UNL     C4    5   0.702   0.168   0.066
    1UNL     C5    6   0.594   0.153  -0.018
    1UNL     C6    7   0.458   0.199   0.023
    1UNL     O2    8   0.429   0.227   0.139
    1UNL     O3    9   0.372   0.202  -0.082
    1UNL     C7   10   0.244   0.231  -0.044
    1UNL     C8   11   0.176   0.099   0.021
    1UNL     C9   12   0.211   0.060   0.174
    1UNL     O4   13   0.262  -0.071   0.165
    1UNL    C10   14   0.188  -0.143   0.067
    1UNL     O5   15   0.260  -0.266   0.039
    1UNL    C11   16   0.045  -0.160   0.128
    1UNL    C12   17  -0.007  -0.011   0.143
    1UNL    C13   18  -0.151  -0.002   0.199
    1UNL     O6   19   0.086   0.053   0.239
    1UNL    C14   20   0.015   0.082   0.008
    1UNL     O7   21  -0.053   0.199  -0.021
    1UNL    C15   22  -0.174   0.184  -0.085
    1UNL     O8   23  -0.209   0.040  -0.097
    1UNL    C16   24  -0.316   0.022  -0.189
    1UNL    C17   25  -0.351  -0.130  -0.198
    1UNL     O9   26  -0.395  -0.187  -0.082
    1UNL    C18   27  -0.532  -0.185  -0.069
    1UNL    O10   28  -0.603  -0.128  -0.150
    1UNL    C19   29  -0.580  -0.251   0.044
    1UNL    C20   30  -0.718  -0.227   0.079
    1UNL    C21   31  -0.768  -0.275   0.195
    1UNL    C22   32  -0.685  -0.331   0.285
    1UNL    C23   33  -0.552  -0.350   0.258
    1UNL    C24   34  -0.495  -0.311   0.137
    1UNL    C25   35  -0.439   0.109  -0.170
    1UNL    O11   36  -0.447   0.200  -0.276
    1UNL    C26   37  -0.421   0.175  -0.027
    1UNL    O12   38  -0.428   0.076   0.075
    1UNL    C27   39  -0.294   0.262  -0.020
    1UNL    O13   40  -0.326   0.381  -0.090
    1UNL    C28   41   0.042  -0.016  -0.111
    1UNL    C29   42   0.186  -0.041  -0.054
    1UNL    C30   43   0.609   0.059  -0.118
    1UNL    C31   44   0.721  -0.005  -0.140
    1UNL     H1   45   0.932  -0.201  -0.218
    1UNL     H2   46   0.925  -0.030  -0.285
    1UNL     H3   47   1.075  -0.079  -0.237
    1UNL     H4   48   0.904   0.133   0.114
    1UNL     H5   49   0.679   0.230   0.158
    1UNL     H6   50   0.230   0.305   0.031
    1UNL     H7   51   0.178   0.255  -0.130
    1UNL     H8   52   0.274   0.133   0.220
    1UNL     H9   53   0.354  -0.255   0.049
    1UNL    H10   54  -0.018  -0.223   0.066
    1UNL    H11   55   0.056  -0.203   0.233
    1UNL    H12   56  -0.197   0.097   0.203
    1UNL    H13   57  -0.170  -0.068   0.286
    1UNL    H14   58  -0.210  -0.054   0.119
    1UNL    H15   59  -0.163   0.216  -0.192
    1UNL    H16   60  -0.263   0.046  -0.283
    1UNL    H17   61  -0.424  -0.148  -0.283
    1UNL    H18   62  -0.255  -0.179  -0.226
    1UNL    H19   63  -0.777  -0.193  -0.010
    1UNL    H20   64  -0.870  -0.261   0.215
    1UNL    H21   65  -0.728  -0.379   0.371
    1UNL    H22   66  -0.493  -0.409   0.335
    1UNL    H23   67  -0.389  -0.294   0.140
    1UNL    H24   68  -0.534   0.057  -0.178
    1UNL    H25   69  -0.445   0.157  -0.357
    1UNL    H26   70  -0.507   0.240  -0.023
    1UNL    H27   71  -0.430  -0.019   0.031
    1UNL    H28   72  -0.277   0.291   0.081
    1UNL    H29   73  -0.360   0.339  -0.181
    1UNL    H30   74   0.034   0.040  -0.205
    1UNL    H31   75  -0.024  -0.103  -0.120
    1UNL    H32   76   0.271  -0.054  -0.124
    1UNL    H33   77   0.523   0.051  -0.182
    1UNL    H34   78   0.722  -0.087  -0.208
   0.00000   0.00000   0.00000   0.00000   0.00000   0.00000   0.00000   0.00000   0.00000
Generated with MDTraj, t= 15.0
 78
    1UNL     C1    1   1.009  -0.070  -0.219
    1UNL     O1    2   0.979  -0.008  -0.092
    1UNL     C2    3   0.847   0.026  -0.068
    1UNL     C3    4   0.828   0.106   0.046
    1UNL     C4    5   0.705   0.157   0.071
    1UNL     C5    6   0.594   0.122   0.003
    1UNL     C6    7   0.463   0.188   0.031
    1UNL     O2    8   0.440   0.244   0.139
    1UNL     O3    9   0.371   0.186  -0.077
    1UNL     C7   10   0.245   0.223  -0.029
    1UNL     C8   11   0.176   0.095   0.036
    1UNL     C9   12   0.210   0.057   0.182
    1UNL     O4   13   0.264  -0.079   0.166
    1UNL    C10   14   0.188  -0.140   0.056
    1UNL     O5   15   0.247  -0.256   0.014
    1UNL    C11   16   0.038  -0.156   0.106
    1UNL    C12   17  -0.012  -0.014   0.150
    1UNL    C13   18  -0.162  -0.022   0.205
    1UNL     O6   19   0.078   0.036   0.252
    1UNL    C14   20   0.021   0.083   0.021
    1UNL     O7   21  -0.072   0.191   0.013
    1UNL    C15   22  -0.175   0.174  -0.076
    1UNL     O8   23  -0.216   0.035  -0.101
    1UNL    C16   24  -0.324   0.025  -0.196
    1UNL    C17   25  -0.361  -0.127  -0.199
    1UNL     O9   26  -0.398  -0.172  -0.078
    1UNL    C18   27  -0.530  -0.187  -0.065
    1UNL    O10   28  -0.609  -0.163  -0.156
    1UNL    C19   29  -0.585  -0.234   0.064
    1UNL    C20   30  -0.721  -0.236   0.079
    1UNL    C21   31  -0.772  -0.284   0.200
    1UNL    C22   32  -0.691  -0.347   0.289
    1UNL    C23   33  -0.552  -0.344   0.278
    1UNL    C24   34  -0.501  -0.292   0.161
    1UNL    C25   35  -0.446   0.118  -0.180
    1UNL    O11   36  -0.461   0.214  -0.283
    1UNL    C26   37  -0.427   0.190  -0.040
    1UNL    O12   38  -0.441   0.092   0.065
    1UNL    C27   39  -0.292   0.266  -0.037
    1UNL    O13   40  -0.292   0.371  -0.136
    1UNL    C28   41   0.048   0.013  -0.114
    1UNL    C29   42   0.184  -0.028  -0.056
    1UNL    C30   43   0.606   0.032  -0.109
    1UNL    C31   44   0.732  -0.005  -0.150
    1UNL     H1   45   0.940  -0.157  -0.249
    1UNL     H2   46   1.010   0.006  -0.294
    1UNL     H3   47   1.111  -0.102  -0.221
    1UNL     H4   48   0.916   0.143   0.094
    1UNL     H5   49   0.697   0.216   0.156
    1UNL     H6   50   0.248   0.302   0.043
    1UNL     H7   51   0.178   0.246  -0.114
    1UNL     H8   52   0.282   0.115   0.239
    1UNL     H9   53   0.345  -0.256   0.024
    1UNL    H10   54  -0.021  -0.203   0.026
    1UNL    H11   55   0.030  -0.218   0.201
    1UNL    H12   56  -0.208   0.077   0.203
    1UNL    H13   57  -0.161  -0.062   0.309
    1UNL    H14   58  -0.224  -0.088   0.145
    1UNL    H15   59  -0.136   0.198  -0.180
    1UNL    H16   60  -0.270   0.050  -0.287
    1UNL    H17   61  -0.438  -0.136  -0.277
    1UNL    H18   62  -0.277  -0.186  -0.236
    1UNL    H19   63  -0.783  -0.198   0.008
    1UNL    H20   64  -0.880  -0.299   0.216
    1UNL    H21   65  -0.740  -0.414   0.360
    1UNL    H22   66  -0.493  -0.376   0.355
    1UNL    H23   67  -0.392  -0.280   0.164
    1UNL    H24   68  -0.537   0.059  -0.171
    1UNL    H25   69  -0.467   0.165  -0.362
    1UNL    H26   70  -0.502   0.265  -0.022
    1UNL    H27   71  -0.413   0.000   0.028
    1UNL    H28   72  -0.267   0.311   0.053
    1UNL    H29   73  -0.344   0.339  -0.206
    1UNL    H30   74   0.063   0.087  -0.199
    1UNL    H31   75  -0.009  -0.071  -0.145
    1UNL    H32   76   0.274  -0.024  -0.121
    1UNL    H33   77   0.511   0.003  -0.156
    1UNL    H34   78   0.756  -0.055  -0.244
   0.00000   0.00000   0.00000   0.00000   0.00000   0.00000   0.00000   0.00000   0.00000
Generated with MDTraj, t= 16.0
 78
    1UNL     C1    1   1.010  -0.058  -0.221
    1UNL     O1    2   0.988  -0.005  -0.093
    1UNL     C2    3   0.862   0.047  -0.073
    1UNL     C3    4   0.838   0.115   0.047
    1UNL     C4    5   0.713   0.159   0.088
    1UNL     C5    6   0.602   0.134   0.002
    1UNL     C6    7   0.468   0.178   0.038
    1UNL     O2    8   0.443   0.207   0.156
    1UNL     O3    9   0.371   0.190  -0.065
    1UNL     C7   10   0.240   0.219  -0.020
    1UNL     C8   11   0.171   0.087   0.036
    1UNL     C9   12   0.208   0.042   0.185
    1UNL     O4   13   0.262  -0.095   0.160
    1UNL    C10   14   0.190  -0.156   0.056
    1UNL     O5   15   0.232  -0.277   0.006
    1UNL    C11   16   0.042  -0.169   0.106
    1UNL    C12   17  -0.014  -0.028   0.141
    1UNL    C13   18  -0.162  -0.032   0.182
    1UNL     O6   19   0.078   0.029   0.243
    1UNL    C14   20   0.017   0.070   0.019
    1UNL     O7   21  -0.070   0.192   0.014
    1UNL    C15   22  -0.171   0.185  -0.082
    1UNL     O8   23  -0.223   0.048  -0.098
    1UNL    C16   24  -0.327   0.021  -0.192
    1UNL    C17   25  -0.360  -0.132  -0.179
    1UNL     O9   26  -0.408  -0.157  -0.051
    1UNL    C18   27  -0.540  -0.177  -0.058
    1UNL    O10   28  -0.606  -0.162  -0.161
    1UNL    C19   29  -0.604  -0.244   0.063
    1UNL    C20   30  -0.735  -0.256   0.088
    1UNL    C21   31  -0.779  -0.301   0.213
    1UNL    C22   32  -0.686  -0.339   0.306
    1UNL    C23   33  -0.553  -0.334   0.282
    1UNL    C24   34  -0.509  -0.274   0.166
    1UNL    C25   35  -0.449   0.113  -0.187
    1UNL    O11   36  -0.457   0.206  -0.299
    1UNL    C26   37  -0.427   0.200  -0.055
    1UNL    O12   38  -0.435   0.117   0.060
    1UNL    C27   39  -0.291   0.280  -0.053
    1UNL    O13   40  -0.300   0.386  -0.153
    1UNL    C28   41   0.048  -0.000  -0.114
    1UNL    C29   42   0.185  -0.036  -0.061
    1UNL    C30   43   0.625   0.063  -0.115
    1UNL    C31   44   0.749   0.028  -0.157
    1UNL     H1   45   0.970  -0.166  -0.224
    1UNL     H2   46   0.978  -0.000  -0.307
    1UNL     H3   47   1.115  -0.066  -0.235
    1UNL     H4   48   0.915   0.109   0.120
    1UNL     H5   49   0.693   0.225   0.176
    1UNL     H6   50   0.247   0.297   0.053
    1UNL     H7   51   0.173   0.245  -0.106
    1UNL     H8   52   0.281   0.092   0.252
    1UNL     H9   53   0.333  -0.283  -0.009
    1UNL    H10   54  -0.036  -0.212   0.038
    1UNL    H11   55   0.046  -0.235   0.196
    1UNL    H12   56  -0.181   0.075   0.205
    1UNL    H13   57  -0.178  -0.098   0.270
    1UNL    H14   58  -0.225  -0.061   0.100
    1UNL    H15   59  -0.123   0.213  -0.183
    1UNL    H16   60  -0.288   0.041  -0.290
    1UNL    H17   61  -0.427  -0.149  -0.262
    1UNL    H18   62  -0.276  -0.197  -0.198
    1UNL    H19   63  -0.814  -0.216   0.016
    1UNL    H20   64  -0.883  -0.314   0.223
    1UNL    H21   65  -0.718  -0.374   0.401
    1UNL    H22   66  -0.486  -0.326   0.375
    1UNL    H23   67  -0.406  -0.257   0.143
    1UNL    H24   68  -0.546   0.059  -0.187
    1UNL    H25   69  -0.461   0.163  -0.388
    1UNL    H26   70  -0.509   0.269  -0.043
    1UNL    H27   71  -0.400   0.036   0.035
    1UNL    H28   72  -0.271   0.323   0.037
    1UNL    H29   73  -0.353   0.353  -0.229
    1UNL    H30   74   0.068   0.069  -0.204
    1UNL    H31   75  -0.008  -0.087  -0.133
    1UNL    H32   76   0.271  -0.023  -0.131
    1UNL    H33   77   0.546   0.013  -0.166
    1UNL    H34   78   0.755  -0.019  -0.254
   0.00000   0.00000   0.00000   0.00000   0.00000   0.00000   0.00000   0.00000   0.00000
Generated with MDTraj, t= 17.0
 78
    1UNL     C1    1   1.010  -0.041  -0.217
    1UNL     O1    2   0.992   0.023  -0.098
    1UNL     C2    3   0.863   0.067  -0.067
    1UNL     C3    4   0.827   0.110   0.063
    1UNL     C4    5   0.703   0.151   0.094
    1UNL     C5    6   0.598   0.136   0.003
    1UNL     C6    7   0.459   0.172   0.040
    1UNL     O2    8   0.444   0.191   0.161
    1UNL     O3    9   0.370   0.194  -0.057
    1UNL     C7   10   0.244   0.214  -0.009
    1UNL     C8   11   0.172   0.080   0.031
    1UNL     C9   12   0.196   0.024   0.180
    1UNL     O4   13   0.245  -0.112   0.160
    1UNL    C10   14   0.178  -0.170   0.048
    1UNL     O5   15   0.229  -0.288  -0.003
    1UNL    C11   16   0.028  -0.177   0.089
    1UNL    C12   17  -0.017  -0.026   0.125
    1UNL    C13   18  -0.160  -0.002   0.160
    1UNL     O6   19   0.066   0.023   0.232
    1UNL    C14   20   0.021   0.066  -0.007
    1UNL     O7   21  -0.058   0.185  -0.015
    1UNL    C15   22  -0.167   0.164  -0.090
    1UNL     O8   23  -0.214   0.027  -0.100
    1UNL    C16   24  -0.316   0.014  -0.192
    1UNL    C17   25  -0.376  -0.131  -0.191
    1UNL     O9   26  -0.407  -0.174  -0.059
    1UNL    C18   27  -0.543  -0.180  -0.044
    1UNL    O10   28  -0.621  -0.147  -0.136
    1UNL    C19   29  -0.595  -0.232   0.082
    1UNL    C20   30  -0.733  -0.254   0.093
    1UNL    C21   31  -0.792  -0.311   0.210
    1UNL    C22   32  -0.704  -0.335   0.312
    1UNL    C23   33  -0.566  -0.314   0.305
    1UNL    C24   34  -0.510  -0.258   0.187
    1UNL    C25   35  -0.434   0.118  -0.177
    1UNL    O11   36  -0.437   0.198  -0.297
    1UNL    C26   37  -0.412   0.205  -0.047
    1UNL    O12   38  -0.432   0.129   0.070
    1UNL    C27   39  -0.275   0.274  -0.049
    1UNL    O13   40  -0.272   0.383  -0.144
    1UNL    C28   41   0.062  -0.009  -0.132
    1UNL    C29   42   0.188  -0.050  -0.063
    1UNL    C30   43   0.628   0.094  -0.122
    1UNL    C31   44   0.760   0.068  -0.159
    1UNL     H1   45   0.913  -0.078  -0.260
    1UNL     H2   46   1.077   0.009  -0.287
    1UNL     H3   47   1.058  -0.134  -0.192
    1UNL     H4   48   0.914   0.103   0.131
    1UNL     H5   49   0.676   0.186   0.190
    1UNL     H6   50   0.243   0.284   0.073
    1UNL     H7   51   0.189   0.254  -0.099
    1UNL     H8   52   0.256   0.091   0.246
    1UNL     H9   53   0.240  -0.359   0.073
    1UNL    H10   54  -0.041  -0.235   0.018
    1UNL    H11   55   0.012  -0.223   0.187
    1UNL    H12   56  -0.178   0.107   0.181
    1UNL    H13   57  -0.188  -0.066   0.245
    1UNL    H14   58  -0.222  -0.038   0.079
    1UNL    H15   59  -0.144   0.198  -0.199
    1UNL    H16   60  -0.275   0.031  -0.286
    1UNL    H17   61  -0.461  -0.148  -0.253
    1UNL    H18   62  -0.301  -0.186  -0.246
    1UNL    H19   63  -0.800  -0.251   0.009
    1UNL    H20   64  -0.897  -0.346   0.211
    1UNL    H21   65  -0.746  -0.360   0.410
    1UNL    H22   66  -0.505  -0.356   0.377
    1UNL    H23   67  -0.410  -0.214   0.196
    1UNL    H24   68  -0.532   0.063  -0.179
    1UNL    H25   69  -0.443   0.136  -0.381
    1UNL    H26   70  -0.493   0.278  -0.043
    1UNL    H27   71  -0.422   0.027   0.046
    1UNL    H28   72  -0.258   0.312   0.042
    1UNL    H29   73  -0.309   0.343  -0.233
    1UNL    H30   74   0.079   0.063  -0.219
    1UNL    H31   75  -0.003  -0.094  -0.143
    1UNL    H32   76   0.285  -0.043  -0.116
    1UNL    H33   77   0.544   0.093  -0.193
    1UNL    H34   78   0.777   0.033  -0.256
   0.00000   0.00000   0.00000   0.00000   0.00000   0.00000   0.00000   0.00000   0.00000
Generated with MDTraj, t= 18.0
 78
    1UNL     C1    1   1.024  -0.029  -0.212
    1UNL     O1    2   0.997   0.054  -0.097
    1UNL     C2    3   0.863   0.077  -0.057
    1UNL     C3    4   0.819   0.080   0.077
    1UNL     C4    5   0.696   0.129   0.104
    1UNL     C5    6   0.600   0.147   0.001
    1UNL     C6    7   0.459   0.171   0.043
    1UNL     O2    8   0.429   0.187   0.162
    1UNL     O3    9   0.374   0.176  -0.058
    1UNL     C7   10   0.241   0.192  -0.019
    1UNL     C8   11   0.174   0.060   0.021
    1UNL     C9   12   0.195   0.018   0.171
    1UNL     O4   13   0.248  -0.117   0.159
    1UNL    C10   14   0.172  -0.177   0.049
    1UNL     O5   15   0.233  -0.299  -0.006
    1UNL    C11   16   0.031  -0.183   0.090
    1UNL    C12   17  -0.026  -0.040   0.110
    1UNL    C13   18  -0.173  -0.028   0.156
    1UNL     O6   19   0.055   0.015   0.219
    1UNL    C14   20   0.022   0.051  -0.008
    1UNL     O7   21  -0.040   0.180  -0.024
    1UNL    C15   22  -0.159   0.170  -0.104
    1UNL     O8   23  -0.201   0.032  -0.122
    1UNL    C16   24  -0.314   0.011  -0.209
    1UNL    C17   25  -0.372  -0.121  -0.183
    1UNL     O9   26  -0.407  -0.149  -0.045
    1UNL    C18   27  -0.546  -0.157  -0.029
    1UNL    O10   28  -0.624  -0.120  -0.119
    1UNL    C19   29  -0.606  -0.212   0.098
    1UNL    C20   30  -0.743  -0.249   0.096
    1UNL    C21   31  -0.794  -0.307   0.213
    1UNL    C22   32  -0.712  -0.328   0.323
    1UNL    C23   33  -0.576  -0.294   0.319
    1UNL    C24   34  -0.526  -0.239   0.202
    1UNL    C25   35  -0.433   0.110  -0.186
    1UNL    O11   36  -0.435   0.203  -0.294
    1UNL    C26   37  -0.406   0.183  -0.049
    1UNL    O12   38  -0.416   0.104   0.068
    1UNL    C27   39  -0.277   0.263  -0.051
    1UNL    O13   40  -0.286   0.373  -0.138
    1UNL    C28   41   0.059  -0.026  -0.140
    1UNL    C29   42   0.188  -0.066  -0.066
    1UNL    C30   43   0.645   0.146  -0.133
    1UNL    C31   44   0.774   0.114  -0.159
    1UNL     H1   45   1.037  -0.129  -0.165
    1UNL     H2   46   0.936  -0.039  -0.281
    1UNL     H3   47   1.112  -0.010  -0.271
    1UNL     H4   48   0.888   0.073   0.157
    1UNL     H5   49   0.659   0.118   0.208
    1UNL     H6   50   0.243   0.262   0.063
    1UNL     H7   51   0.188   0.243  -0.104
    1UNL     H8   52   0.269   0.082   0.227
    1UNL     H9   53   0.291  -0.336   0.074
    1UNL    H10   54  -0.027  -0.233   0.004
    1UNL    H11   55   0.013  -0.237   0.183
    1UNL    H12   56  -0.200   0.079   0.170
    1UNL    H13   57  -0.216  -0.092   0.235
    1UNL    H14   58  -0.230  -0.061   0.068
    1UNL    H15   59  -0.123   0.223  -0.201
    1UNL    H16   60  -0.279   0.031  -0.305
    1UNL    H17   61  -0.442  -0.134  -0.262
    1UNL    H18   62  -0.291  -0.197  -0.196
    1UNL    H19   63  -0.793  -0.265   0.004
    1UNL    H20   64  -0.893  -0.344   0.216
    1UNL    H21   65  -0.747  -0.392   0.400
    1UNL    H22   66  -0.496  -0.321   0.394
    1UNL    H23   67  -0.423  -0.211   0.198
    1UNL    H24   68  -0.532   0.058  -0.179
    1UNL    H25   69  -0.455   0.147  -0.382
    1UNL    H26   70  -0.483   0.262  -0.033
    1UNL    H27   71  -0.412   0.015   0.044
    1UNL    H28   72  -0.243   0.293   0.039
    1UNL    H29   73  -0.345   0.348  -0.204
    1UNL    H30   74   0.061   0.043  -0.226
    1UNL    H31   75  -0.007  -0.114  -0.155
    1UNL    H32   76   0.281  -0.068  -0.127
    1UNL    H33   77   0.577   0.174  -0.208
    1UNL    H34   78   0.805   0.120  -0.266
   0.00000   0.00000   0.00000   0.00000   0.00000   0.00000   0.00000   0.00000   0.00000
Generated with MDTraj, t= 19.0
 78
    1UNL     C1    1   1.026   0.006  -0.212
    1UNL     O1    2   1.012   0.065  -0.080
    1UNL     C2    3   0.877   0.090  -0.044
    1UNL     C3    4   0.823   0.076   0.087
    1UNL     C4    5   0.681   0.100   0.108
    1UNL     C5    6   0.604   0.154   0.006
    1UNL     C6    7   0.462   0.164   0.029
    1UNL     O2    8   0.426   0.177   0.146
    1UNL     O3    9   0.377   0.165  -0.079
    1UNL     C7   10   0.242   0.189  -0.034
    1UNL     C8   11   0.176   0.059   0.016
    1UNL     C9   12   0.200   0.014   0.163
    1UNL     O4   13   0.252  -0.117   0.157
    1UNL    C10   14   0.183  -0.179   0.038
    1UNL     O5   15   0.238  -0.307  -0.002
    1UNL    C11   16   0.038  -0.194   0.082
    1UNL    C12   17  -0.017  -0.048   0.113
    1UNL    C13   18  -0.163  -0.062   0.156
    1UNL     O6   19   0.063   0.004   0.219
    1UNL    C14   20   0.021   0.038  -0.017
    1UNL     O7   21  -0.046   0.163  -0.031
    1UNL    C15   22  -0.167   0.152  -0.096
    1UNL     O8   23  -0.232   0.024  -0.094
    1UNL    C16   24  -0.339   0.004  -0.194
    1UNL    C17   25  -0.382  -0.136  -0.187
    1UNL     O9   26  -0.413  -0.171  -0.055
    1UNL    C18   27  -0.551  -0.155  -0.039
    1UNL    O10   28  -0.621  -0.103  -0.121
    1UNL    C19   29  -0.612  -0.205   0.086
    1UNL    C20   30  -0.744  -0.240   0.100
    1UNL    C21   31  -0.797  -0.284   0.221
    1UNL    C22   32  -0.712  -0.307   0.334
    1UNL    C23   33  -0.581  -0.274   0.321
    1UNL    C24   34  -0.532  -0.225   0.200
    1UNL    C25   35  -0.453   0.120  -0.176
    1UNL    O11   36  -0.463   0.208  -0.289
    1UNL    C26   37  -0.413   0.196  -0.046
    1UNL    O12   38  -0.431   0.114   0.068
    1UNL    C27   39  -0.268   0.262  -0.053
    1UNL    O13   40  -0.264   0.365  -0.144
    1UNL    C28   41   0.074  -0.035  -0.142
    1UNL    C29   42   0.205  -0.073  -0.078
    1UNL    C30   43   0.658   0.170  -0.122
    1UNL    C31   44   0.792   0.149  -0.142
    1UNL     H1   45   1.126   0.018  -0.253
    1UNL     H2   46   1.007  -0.106  -0.190
    1UNL     H3   47   0.953   0.031  -0.289
    1UNL     H4   48   0.884   0.016   0.159
    1UNL     H5   49   0.638   0.090   0.204
    1UNL     H6   50   0.248   0.260   0.050
    1UNL     H7   51   0.196   0.245  -0.120
    1UNL     H8   52   0.278   0.083   0.208
    1UNL     H9   53   0.273  -0.352   0.084
    1UNL    H10   54  -0.012  -0.260   0.005
    1UNL    H11   55   0.034  -0.250   0.178
    1UNL    H12   56  -0.210   0.037   0.165
    1UNL    H13   57  -0.179  -0.114   0.250
    1UNL    H14   58  -0.222  -0.120   0.080
    1UNL    H15   59  -0.143   0.179  -0.208
    1UNL    H16   60  -0.280   0.023  -0.279
    1UNL    H17   61  -0.463  -0.167  -0.252
    1UNL    H18   62  -0.288  -0.190  -0.224
    1UNL    H19   63  -0.814  -0.202   0.020
    1UNL    H20   64  -0.903  -0.313   0.225
    1UNL    H21   65  -0.737  -0.353   0.431
    1UNL    H22   66  -0.528  -0.248   0.408
    1UNL    H23   67  -0.426  -0.203   0.179
    1UNL    H24   68  -0.549   0.071  -0.154
    1UNL    H25   69  -0.493   0.160  -0.372
    1UNL    H26   70  -0.482   0.283  -0.031
    1UNL    H27   71  -0.401   0.016   0.037
    1UNL    H28   72  -0.244   0.300   0.039
    1UNL    H29   73  -0.297   0.333  -0.238
    1UNL    H30   74   0.079   0.026  -0.228
    1UNL    H31   75   0.011  -0.126  -0.174
    1UNL    H32   76   0.298  -0.067  -0.139
    1UNL    H33   77   0.590   0.192  -0.204
    1UNL    H34   78   0.845   0.184  -0.225
   0.00000   0.00000   0.00000   0.00000   0.00000   0.00000   0.00000   0.00000   0.00000
Generated with MDTraj, t= 20.0
 78
    1UNL     C1    1   1.060   0.061  -0.191
    1UNL     O1    2   1.014   0.063  -0.058
    1UNL     C2    3   0.875   0.091  -0.049
    1UNL     C3    4   0.815   0.062   0.076
    1UNL     C4    5   0.684   0.094   0.103
    1UNL     C5    6   0.602   0.153   0.009
    1UNL     C6    7   0.460   0.170   0.032
    1UNL     O2    8   0.426   0.180   0.148
    1UNL     O3    9   0.374   0.170  -0.073
    1UNL     C7   10   0.235   0.187  -0.030
    1UNL     C8   11   0.176   0.056   0.008
    1UNL     C9   12   0.215   0.001   0.153
    1UNL     O4   13   0.266  -0.132   0.139
    1UNL    C10   14   0.195  -0.190   0.023
    1UNL     O5   15   0.253  -0.315  -0.008
    1UNL    C11   16   0.052  -0.207   0.084
    1UNL    C12   17  -0.006  -0.064   0.122
    1UNL    C13   18  -0.147  -0.065   0.166
    1UNL     O6   19   0.091  -0.016   0.221
    1UNL    C14   20   0.018   0.034  -0.005
    1UNL     O7   21  -0.066   0.146  -0.018
    1UNL    C15   22  -0.166   0.147  -0.109
    1UNL     O8   23  -0.217   0.012  -0.132
    1UNL    C16   24  -0.344   0.005  -0.205
    1UNL    C17   25  -0.399  -0.134  -0.190
    1UNL     O9   26  -0.439  -0.161  -0.055
    1UNL    C18   27  -0.577  -0.158  -0.045
    1UNL    O10   28  -0.652  -0.122  -0.134
    1UNL    C19   29  -0.626  -0.203   0.092
    1UNL    C20   30  -0.761  -0.212   0.120
    1UNL    C21   31  -0.807  -0.259   0.239
    1UNL    C22   32  -0.718  -0.282   0.350
    1UNL    C23   33  -0.583  -0.254   0.320
    1UNL    C24   34  -0.540  -0.220   0.198
    1UNL    C25   35  -0.447   0.124  -0.173
    1UNL    O11   36  -0.452   0.208  -0.288
    1UNL    C26   37  -0.411   0.190  -0.040
    1UNL    O12   38  -0.409   0.104   0.070
    1UNL    C27   39  -0.268   0.258  -0.059
    1UNL    O13   40  -0.273   0.362  -0.149
    1UNL    C28   41   0.060  -0.035  -0.140
    1UNL    C29   42   0.195  -0.077  -0.085
    1UNL    C30   43   0.665   0.185  -0.114
    1UNL    C31   44   0.796   0.152  -0.143
    1UNL     H1   45   1.014   0.130  -0.257
    1UNL     H2   46   1.173   0.081  -0.178
    1UNL     H3   47   1.053  -0.043  -0.230
    1UNL     H4   48   0.867   0.020   0.157
    1UNL     H5   49   0.645   0.053   0.200
    1UNL     H6   50   0.232   0.266   0.045
    1UNL     H7   51   0.176   0.227  -0.117
    1UNL     H8   52   0.284   0.075   0.202
    1UNL     H9   53   0.337  -0.320   0.043
    1UNL    H10   54  -0.016  -0.250   0.009
    1UNL    H11   55   0.057  -0.286   0.166
    1UNL    H12   56  -0.180   0.039   0.155
    1UNL    H13   57  -0.173  -0.108   0.263
    1UNL    H14   58  -0.200  -0.125   0.087
    1UNL    H15   59  -0.117   0.181  -0.210
    1UNL    H16   60  -0.319   0.016  -0.307
    1UNL    H17   61  -0.472  -0.150  -0.271
    1UNL    H18   62  -0.319  -0.217  -0.206
    1UNL    H19   63  -0.827  -0.174   0.049
    1UNL    H20   64  -0.911  -0.276   0.263
    1UNL    H21   65  -0.755  -0.293   0.449
    1UNL    H22   66  -0.507  -0.255   0.400
    1UNL    H23   67  -0.441  -0.188   0.177
    1UNL    H24   68  -0.542   0.070  -0.170
    1UNL    H25   69  -0.490   0.172  -0.366
    1UNL    H26   70  -0.489   0.271  -0.031
    1UNL    H27   71  -0.409   0.013   0.034
    1UNL    H28   72  -0.242   0.293   0.035
    1UNL    H29   73  -0.352   0.351  -0.211
    1UNL    H30   74   0.053   0.031  -0.223
    1UNL    H31   75  -0.017  -0.116  -0.165
    1UNL    H32   76   0.282  -0.047  -0.147
    1UNL    H33   77   0.601   0.221  -0.193
    1UNL    H34   78   0.840   0.199  -0.232
   0.00000   0.00000   0.00000   0.00000   0.00000   0.00000   0.00000   0.00000   0.00000
Generated with MDTraj, t= 21.0
 78
    1UNL     C1    1   1.082   0.137  -0.153
    1UNL     O1    2   1.009   0.071  -0.051
    1UNL     C2    3   0.869   0.088  -0.050
    1UNL     C3    4   0.816   0.066   0.078
    1UNL     C4    5   0.685   0.094   0.108
    1UNL     C5    6   0.601   0.137   0.005
    1UNL     C6    7   0.454   0.165   0.035
    1UNL     O2    8   0.415   0.197   0.146
    1UNL     O3    9   0.374   0.169  -0.071
    1UNL     C7   10   0.237   0.178  -0.037
    1UNL     C8   11   0.185   0.049   0.005
    1UNL     C9   12   0.220  -0.008   0.147
    1UNL     O4   13   0.279  -0.139   0.123
    1UNL    C10   14   0.200  -0.196   0.017
    1UNL     O5   15   0.255  -0.310  -0.039
    1UNL    C11   16   0.057  -0.211   0.069
    1UNL    C12   17   0.003  -0.071   0.106
    1UNL    C13   18  -0.148  -0.072   0.144
    1UNL     O6   19   0.087  -0.025   0.212
    1UNL    C14   20   0.029   0.027  -0.010
    1UNL     O7   21  -0.050   0.145  -0.014
    1UNL    C15   22  -0.164   0.131  -0.094
    1UNL     O8   23  -0.232   0.006  -0.100
    1UNL    C16   24  -0.343   0.001  -0.194
    1UNL    C17   25  -0.405  -0.132  -0.195
    1UNL     O9   26  -0.448  -0.168  -0.064
    1UNL    C18   27  -0.584  -0.164  -0.040
    1UNL    O10   28  -0.658  -0.139  -0.131
    1UNL    C19   29  -0.625  -0.195   0.093
    1UNL    C20   30  -0.767  -0.175   0.122
    1UNL    C21   31  -0.816  -0.215   0.245
    1UNL    C22   32  -0.728  -0.241   0.347
    1UNL    C23   33  -0.587  -0.240   0.327
    1UNL    C24   34  -0.541  -0.223   0.199
    1UNL    C25   35  -0.447   0.114  -0.165
    1UNL    O11   36  -0.444   0.194  -0.281
    1UNL    C26   37  -0.406   0.186  -0.033
    1UNL    O12   38  -0.415   0.107   0.084
    1UNL    C27   39  -0.259   0.246  -0.055
    1UNL    O13   40  -0.264   0.352  -0.150
    1UNL    C28   41   0.058  -0.038  -0.144
    1UNL    C29   42   0.201  -0.081  -0.090
    1UNL    C30   43   0.647   0.157  -0.119
    1UNL    C31   44   0.784   0.138  -0.149
    1UNL     H1   45   1.029   0.221  -0.187
    1UNL     H2   46   1.187   0.157  -0.120
    1UNL     H3   47   1.080   0.063  -0.233
    1UNL     H4   48   0.885   0.040   0.160
    1UNL     H5   49   0.637   0.066   0.196
    1UNL     H6   50   0.219   0.255   0.039
    1UNL     H7   51   0.190   0.214  -0.132
    1UNL     H8   52   0.285   0.065   0.202
    1UNL     H9   53   0.347  -0.318  -0.021
    1UNL    H10   54  -0.009  -0.257  -0.003
    1UNL    H11   55   0.060  -0.283   0.158
    1UNL    H12   56  -0.175   0.033   0.165
    1UNL    H13   57  -0.163  -0.129   0.237
    1UNL    H14   58  -0.213  -0.117   0.068
    1UNL    H15   59  -0.123   0.145  -0.204
    1UNL    H16   60  -0.292   0.023  -0.287
    1UNL    H17   61  -0.489  -0.142  -0.262
    1UNL    H18   62  -0.321  -0.200  -0.237
    1UNL    H19   63  -0.829  -0.175   0.026
    1UNL    H20   64  -0.922  -0.210   0.266
    1UNL    H21   65  -0.767  -0.268   0.445
    1UNL    H22   66  -0.522  -0.287   0.398
    1UNL    H23   67  -0.432  -0.229   0.173
    1UNL    H24   68  -0.543   0.067  -0.145
    1UNL    H25   69  -0.490   0.157  -0.353
    1UNL    H26   70  -0.467   0.278  -0.016
    1UNL    H27   71  -0.430   0.010   0.062
    1UNL    H28   72  -0.219   0.284   0.034
    1UNL    H29   73  -0.311   0.315  -0.224
    1UNL    H30   74   0.050   0.036  -0.223
    1UNL    H31   75   0.007  -0.133  -0.177
    1UNL    H32   76   0.290  -0.053  -0.149
    1UNL    H33   77   0.583   0.210  -0.188
    1UNL    H34   78   0.825   0.147  -0.248
   0.00000   0.00000   0.00000   0.00000   0.00000   0.00000   0.00000   0.00000   0.00000
Generated with MDTraj, t= 22.0
 78
    1UNL     C1    1   1.085   0.195  -0.116
    1UNL     O1    2   1.018   0.082  -0.058
    1UNL     C2    3   0.870   0.095  -0.041
    1UNL     C3    4   0.823   0.094   0.092
    1UNL     C4    5   0.688   0.111   0.113
    1UNL     C5    6   0.601   0.138   0.006
    1UNL     C6    7   0.456   0.160   0.031
    1UNL     O2    8   0.406   0.169   0.140
    1UNL     O3    9   0.377   0.177  -0.081
    1UNL     C7   10   0.240   0.176  -0.047
    1UNL     C8   11   0.176   0.043  -0.007
    1UNL     C9   12   0.209  -0.018   0.143
    1UNL     O4   13   0.280  -0.144   0.113
    1UNL    C10   14   0.206  -0.201  -0.003
    1UNL     O5   15   0.265  -0.313  -0.064
    1UNL    C11   16   0.059  -0.223   0.052
    1UNL    C12   17   0.007  -0.090   0.097
    1UNL    C13   18  -0.143  -0.105   0.142
    1UNL     O6   19   0.084  -0.040   0.206
    1UNL    C14   20   0.022   0.012  -0.021
    1UNL     O7   21  -0.045   0.141  -0.026
    1UNL    C15   22  -0.168   0.134  -0.088
    1UNL     O8   23  -0.230   0.012  -0.090
    1UNL    C16   24  -0.339  -0.007  -0.188
    1UNL    C17   25  -0.389  -0.147  -0.170
    1UNL     O9   26  -0.430  -0.170  -0.039
    1UNL    C18   27  -0.565  -0.158  -0.035
    1UNL    O10   28  -0.632  -0.126  -0.129
    1UNL    C19   29  -0.630  -0.180   0.100
    1UNL    C20   30  -0.767  -0.155   0.117
    1UNL    C21   31  -0.819  -0.158   0.243
    1UNL    C22   32  -0.740  -0.201   0.350
    1UNL    C23   33  -0.603  -0.237   0.332
    1UNL    C24   34  -0.552  -0.234   0.202
    1UNL    C25   35  -0.450   0.101  -0.166
    1UNL    O11   36  -0.462   0.187  -0.278
    1UNL    C26   37  -0.413   0.183  -0.037
    1UNL    O12   38  -0.427   0.099   0.074
    1UNL    C27   39  -0.269   0.245  -0.042
    1UNL    O13   40  -0.269   0.359  -0.134
    1UNL    C28   41   0.057  -0.049  -0.154
    1UNL    C29   42   0.200  -0.081  -0.100
    1UNL    C30   43   0.647   0.135  -0.124
    1UNL    C31   44   0.780   0.109  -0.144
    1UNL     H1   45   1.082   0.273  -0.049
    1UNL     H2   46   1.186   0.172  -0.153
    1UNL     H3   47   1.022   0.226  -0.197
    1UNL     H4   48   0.886   0.057   0.170
    1UNL     H5   49   0.644   0.103   0.215
    1UNL     H6   50   0.228   0.249   0.035
    1UNL     H7   51   0.187   0.220  -0.136
    1UNL     H8   52   0.277   0.039   0.211
    1UNL     H9   53   0.283  -0.379  -0.003
    1UNL    H10   54  -0.015  -0.272  -0.013
    1UNL    H11   55   0.068  -0.287   0.145
    1UNL    H12   56  -0.176  -0.021   0.205
    1UNL    H13   57  -0.157  -0.201   0.196
    1UNL    H14   58  -0.206  -0.118   0.056
    1UNL    H15   59  -0.154   0.173  -0.198
    1UNL    H16   60  -0.299   0.015  -0.288
    1UNL    H17   61  -0.461  -0.160  -0.248
    1UNL    H18   62  -0.307  -0.225  -0.178
    1UNL    H19   63  -0.821  -0.115   0.042
    1UNL    H20   64  -0.927  -0.151   0.254
    1UNL    H21   65  -0.775  -0.220   0.449
    1UNL    H22   66  -0.551  -0.268   0.422
    1UNL    H23   67  -0.463  -0.280   0.182
    1UNL    H24   68  -0.546   0.054  -0.150
    1UNL    H25   69  -0.509   0.142  -0.352
    1UNL    H26   70  -0.490   0.262  -0.023
    1UNL    H27   71  -0.395   0.002   0.047
    1UNL    H28   72  -0.242   0.281   0.054
    1UNL    H29   73  -0.283   0.325  -0.233
    1UNL    H30   74   0.050   0.024  -0.239
    1UNL    H31   75   0.008  -0.142  -0.182
    1UNL    H32   76   0.281  -0.066  -0.173
    1UNL    H33   77   0.585   0.140  -0.215
    1UNL    H34   78   0.808   0.111  -0.248
   0.00000   0.00000   0.00000   0.00000   0.00000   0.00000   0.00000   0.00000   0.00000
Generated with MDTraj, t= 23.0
 78
    1UNL     C1    1   1.081   0.220  -0.066
    1UNL     O1    2   1.013   0.101  -0.070
    1UNL     C2    3   0.876   0.107  -0.044
    1UNL     C3    4   0.825   0.130   0.082
    1UNL     C4    5   0.691   0.148   0.113
    1UNL     C5    6   0.605   0.141   0.008
    1UNL     C6    7   0.464   0.155   0.036
    1UNL     O2    8   0.422   0.168   0.147
    1UNL     O3    9   0.383   0.158  -0.076
    1UNL     C7   10   0.253   0.177  -0.030
    1UNL     C8   11   0.179   0.041  -0.004
    1UNL     C9   12   0.210  -0.041   0.129
    1UNL     O4   13   0.270  -0.166   0.097
    1UNL    C10   14   0.201  -0.205  -0.022
    1UNL     O5   15   0.262  -0.315  -0.086
    1UNL    C11   16   0.049  -0.231   0.030
    1UNL    C12   17  -0.006  -0.095   0.086
    1UNL    C13   18  -0.147  -0.094   0.141
    1UNL     O6   19   0.087  -0.064   0.189
    1UNL    C14   20   0.025   0.019  -0.024
    1UNL     O7   21  -0.052   0.137  -0.012
    1UNL    C15   22  -0.171   0.128  -0.095
    1UNL     O8   23  -0.216  -0.008  -0.116
    1UNL    C16   24  -0.335  -0.024  -0.187
    1UNL    C17   25  -0.391  -0.167  -0.168
    1UNL     O9   26  -0.431  -0.186  -0.033
    1UNL    C18   27  -0.562  -0.155  -0.027
    1UNL    O10   28  -0.636  -0.128  -0.118
    1UNL    C19   29  -0.627  -0.151   0.109
    1UNL    C20   30  -0.757  -0.107   0.129
    1UNL    C21   31  -0.823  -0.121   0.254
    1UNL    C22   32  -0.757  -0.182   0.356
    1UNL    C23   33  -0.634  -0.240   0.338
    1UNL    C24   34  -0.565  -0.218   0.218
    1UNL    C25   35  -0.444   0.093  -0.168
    1UNL    O11   36  -0.434   0.193  -0.276
    1UNL    C26   37  -0.419   0.160  -0.034
    1UNL    O12   38  -0.420   0.068   0.075
    1UNL    C27   39  -0.281   0.234  -0.036
    1UNL    O13   40  -0.270   0.346  -0.129
    1UNL    C28   41   0.055  -0.033  -0.161
    1UNL    C29   42   0.195  -0.074  -0.110
    1UNL    C30   43   0.648   0.124  -0.125
    1UNL    C31   44   0.785   0.099  -0.150
    1UNL     H1   45   1.040   0.269   0.018
    1UNL     H2   46   1.190   0.212  -0.066
    1UNL     H3   47   1.046   0.277  -0.150
    1UNL     H4   48   0.896   0.116   0.161
    1UNL     H5   49   0.661   0.150   0.213
    1UNL     H6   50   0.249   0.243   0.059
    1UNL     H7   51   0.201   0.227  -0.117
    1UNL     H8   52   0.276   0.006   0.204
    1UNL     H9   53   0.310  -0.363  -0.024
    1UNL    H10   54  -0.026  -0.260  -0.048
    1UNL    H11   55   0.055  -0.308   0.107
    1UNL    H12   56  -0.176   0.008   0.168
    1UNL    H13   57  -0.153  -0.158   0.231
    1UNL    H14   58  -0.218  -0.139   0.072
    1UNL    H15   59  -0.136   0.173  -0.196
    1UNL    H16   60  -0.308  -0.015  -0.295
    1UNL    H17   61  -0.479  -0.188  -0.222
    1UNL    H18   62  -0.312  -0.235  -0.208
    1UNL    H19   63  -0.802  -0.035   0.053
    1UNL    H20   64  -0.913  -0.067   0.273
    1UNL    H21   65  -0.812  -0.181   0.450
    1UNL    H22   66  -0.574  -0.273   0.420
    1UNL    H23   67  -0.460  -0.261   0.201
    1UNL    H24   68  -0.542   0.049  -0.184
    1UNL    H25   69  -0.490   0.149  -0.352
    1UNL    H26   70  -0.505   0.225  -0.017
    1UNL    H27   71  -0.390  -0.012   0.040
    1UNL    H28   72  -0.249   0.258   0.065
    1UNL    H29   73  -0.329   0.326  -0.197
    1UNL    H30   74   0.055   0.049  -0.242
    1UNL    H31   75  -0.016  -0.108  -0.188
    1UNL    H32   76   0.280  -0.059  -0.178
    1UNL    H33   77   0.576   0.102  -0.199
    1UNL    H34   78   0.829   0.082  -0.248
   0.00000   0.00000   0.00000   0.00000   0.00000   0.00000   0.00000   0.00000   0.00000
Generated with MDTraj, t= 24.0
 78
    1UNL     C1    1   1.107   0.227  -0.023
    1UNL     O1    2   1.016   0.132  -0.075
    1UNL     C2    3   0.875   0.135  -0.046
    1UNL     C3    4   0.832   0.172   0.074
    1UNL     C4    5   0.700   0.171   0.107
    1UNL     C5    6   0.609   0.137   0.010
    1UNL     C6    7   0.467   0.153   0.042
    1UNL     O2    8   0.434   0.167   0.155
    1UNL     O3    9   0.385   0.167  -0.066
    1UNL     C7   10   0.253   0.169  -0.021
    1UNL     C8   11   0.192   0.028  -0.012
    1UNL     C9   12   0.223  -0.052   0.117
    1UNL     O4   13   0.279  -0.175   0.079
    1UNL    C10   14   0.198  -0.218  -0.034
    1UNL     O5   15   0.246  -0.332  -0.107
    1UNL    C11   16   0.052  -0.241   0.020
    1UNL    C12   17  -0.001  -0.098   0.078
    1UNL    C13   18  -0.139  -0.109   0.136
    1UNL     O6   19   0.093  -0.074   0.181
    1UNL    C14   20   0.034   0.017  -0.028
    1UNL     O7   21  -0.050   0.130  -0.016
    1UNL    C15   22  -0.170   0.124  -0.098
    1UNL     O8   23  -0.222  -0.010  -0.096
    1UNL    C16   24  -0.334  -0.032  -0.183
    1UNL    C17   25  -0.401  -0.175  -0.165
    1UNL     O9   26  -0.450  -0.200  -0.035
    1UNL    C18   27  -0.580  -0.160  -0.031
    1UNL    O10   28  -0.651  -0.116  -0.121
    1UNL    C19   29  -0.650  -0.166   0.105
    1UNL    C20   30  -0.761  -0.090   0.131
    1UNL    C21   31  -0.810  -0.081   0.263
    1UNL    C22   32  -0.744  -0.148   0.363
    1UNL    C23   33  -0.636  -0.225   0.338
    1UNL    C24   34  -0.587  -0.233   0.207
    1UNL    C25   35  -0.447   0.081  -0.159
    1UNL    O11   36  -0.429   0.166  -0.270
    1UNL    C26   37  -0.414   0.165  -0.034
    1UNL    O12   38  -0.442   0.093   0.089
    1UNL    C27   39  -0.272   0.228  -0.039
    1UNL    O13   40  -0.273   0.341  -0.120
    1UNL    C28   41   0.052  -0.034  -0.172
    1UNL    C29   42   0.196  -0.083  -0.125
    1UNL    C30   43   0.652   0.092  -0.117
    1UNL    C31   44   0.784   0.101  -0.148
    1UNL     H1   45   1.119   0.203   0.081
    1UNL     H2   46   1.203   0.226  -0.073
    1UNL     H3   47   1.065   0.328  -0.029
    1UNL     H4   48   0.904   0.203   0.150
    1UNL     H5   49   0.673   0.192   0.212
    1UNL     H6   50   0.243   0.215   0.080
    1UNL     H7   51   0.187   0.226  -0.092
    1UNL     H8   52   0.290   0.012   0.173
    1UNL     H9   53   0.260  -0.399  -0.043
    1UNL    H10   54  -0.026  -0.283  -0.052
    1UNL    H11   55   0.061  -0.305   0.103
    1UNL    H12   56  -0.177  -0.007   0.151
    1UNL    H13   57  -0.127  -0.155   0.233
    1UNL    H14   58  -0.215  -0.172   0.086
    1UNL    H15   59  -0.150   0.158  -0.207
    1UNL    H16   60  -0.304  -0.019  -0.292
    1UNL    H17   61  -0.476  -0.182  -0.240
    1UNL    H18   62  -0.330  -0.257  -0.179
    1UNL    H19   63  -0.818  -0.045   0.054
    1UNL    H20   64  -0.880   0.001   0.288
    1UNL    H21   65  -0.774  -0.116   0.461
    1UNL    H22   66  -0.603  -0.298   0.413
    1UNL    H23   67  -0.493  -0.274   0.199
    1UNL    H24   68  -0.555   0.055  -0.161
    1UNL    H25   69  -0.485   0.135  -0.352
    1UNL    H26   70  -0.474   0.254  -0.020
    1UNL    H27   71  -0.460  -0.009   0.072
    1UNL    H28   72  -0.237   0.261   0.060
    1UNL    H29   73  -0.303   0.317  -0.214
    1UNL    H30   74   0.062   0.062  -0.235
    1UNL    H31   75  -0.021  -0.106  -0.207
    1UNL    H32   76   0.277  -0.085  -0.200
    1UNL    H33   77   0.575   0.078  -0.194
    1UNL    H34   78   0.824   0.060  -0.238
   0.00000   0.00000   0.00000   0.00000   0.00000   0.00000   0.00000   0.00000   0.00000
Generated with MDTraj, t= 25.0
 78
    1UNL     C1    1   1.115   0.193   0.010
    1UNL     O1    2   1.014   0.184  -0.089
    1UNL     C2    3   0.883   0.171  -0.045
    1UNL     C3    4   0.840   0.215   0.083
    1UNL     C4    5   0.702   0.202   0.109
    1UNL     C5    6   0.618   0.146   0.014
    1UNL     C6    7   0.468   0.149   0.036
    1UNL     O2    8   0.424   0.154   0.147
    1UNL     O3    9   0.395   0.141  -0.080
    1UNL     C7   10   0.253   0.148  -0.055
    1UNL     C8   11   0.186   0.015  -0.015
    1UNL     C9   12   0.227  -0.056   0.117
    1UNL     O4   13   0.284  -0.181   0.069
    1UNL    C10   14   0.197  -0.218  -0.048
    1UNL     O5   15   0.250  -0.339  -0.120
    1UNL    C11   16   0.062  -0.257   0.026
    1UNL    C12   17   0.010  -0.126   0.087
    1UNL    C13   18  -0.127  -0.144   0.146
    1UNL     O6   19   0.107  -0.082   0.188
    1UNL    C14   20   0.029  -0.006  -0.021
    1UNL     O7   21  -0.053   0.114  -0.003
    1UNL    C15   22  -0.175   0.113  -0.080
    1UNL     O8   23  -0.237  -0.018  -0.089
    1UNL    C16   24  -0.345  -0.023  -0.180
    1UNL    C17   25  -0.411  -0.157  -0.169
    1UNL     O9   26  -0.460  -0.172  -0.040
    1UNL    C18   27  -0.596  -0.153  -0.026
    1UNL    O10   28  -0.666  -0.144  -0.124
    1UNL    C19   29  -0.650  -0.149   0.109
    1UNL    C20   30  -0.759  -0.066   0.140
    1UNL    C21   31  -0.800  -0.052   0.272
    1UNL    C22   32  -0.749  -0.135   0.367
    1UNL    C23   33  -0.647  -0.219   0.340
    1UNL    C24   34  -0.591  -0.224   0.210
    1UNL    C25   35  -0.446   0.088  -0.166
    1UNL    O11   36  -0.438   0.177  -0.280
    1UNL    C26   37  -0.419   0.172  -0.037
    1UNL    O12   38  -0.438   0.084   0.077
    1UNL    C27   39  -0.275   0.231  -0.043
    1UNL    O13   40  -0.264   0.342  -0.121
    1UNL    C28   41   0.044  -0.055  -0.170
    1UNL    C29   42   0.191  -0.090  -0.128
    1UNL    C30   43   0.662   0.093  -0.106
    1UNL    C31   44   0.793   0.108  -0.134
    1UNL     H1   45   1.083   0.123   0.091
    1UNL     H2   46   1.217   0.164  -0.016
    1UNL     H3   47   1.125   0.298   0.047
    1UNL     H4   48   0.907   0.275   0.136
    1UNL     H5   49   0.659   0.230   0.202
    1UNL     H6   50   0.243   0.213   0.033
    1UNL     H7   51   0.192   0.190  -0.141
    1UNL     H8   52   0.301  -0.005   0.177
    1UNL     H9   53   0.325  -0.300  -0.173
    1UNL    H10   54  -0.017  -0.296  -0.045
    1UNL    H11   55   0.080  -0.323   0.107
    1UNL    H12   56  -0.163  -0.047   0.181
    1UNL    H13   57  -0.128  -0.220   0.222
    1UNL    H14   58  -0.194  -0.180   0.065
    1UNL    H15   59  -0.145   0.135  -0.189
    1UNL    H16   60  -0.281  -0.021  -0.278
    1UNL    H17   61  -0.493  -0.166  -0.238
    1UNL    H18   62  -0.333  -0.235  -0.189
    1UNL    H19   63  -0.812  -0.017   0.059
    1UNL    H20   64  -0.889   0.003   0.285
    1UNL    H21   65  -0.788  -0.149   0.468
    1UNL    H22   66  -0.620  -0.292   0.417
    1UNL    H23   67  -0.524  -0.313   0.197
    1UNL    H24   68  -0.551   0.054  -0.154
    1UNL    H25   69  -0.495   0.144  -0.353
    1UNL    H26   70  -0.491   0.251  -0.033
    1UNL    H27   71  -0.378   0.015   0.071
    1UNL    H28   72  -0.242   0.267   0.058
    1UNL    H29   73  -0.307   0.319  -0.211
    1UNL    H30   74   0.044   0.041  -0.227
    1UNL    H31   75  -0.027  -0.130  -0.210
    1UNL    H32   76   0.263  -0.095  -0.211
    1UNL    H33   77   0.599   0.037  -0.169
    1UNL    H34   78   0.823   0.091  -0.239
   0.00000   0.00000   0.00000   0.00000   0.00000   0.00000   0.00000   0.00000   0.00000
Generated with MDTraj, t= 26.0
 78
    1UNL     C1    1   1.093   0.186   0.049
    1UNL     O1    2   1.022   0.195  -0.069
    1UNL     C2    3   0.884   0.185  -0.039
    1UNL     C3    4   0.821   0.230   0.079
    1UNL     C4    5   0.689   0.222   0.092
    1UNL     C5    6   0.605   0.175  -0.011
    1UNL     C6    7   0.462   0.154   0.018
    1UNL     O2    8   0.429   0.164   0.133
    1UNL     O3    9   0.377   0.134  -0.090
    1UNL     C7   10   0.243   0.136  -0.049
    1UNL     C8   11   0.182   0.001  -0.012
    1UNL     C9   12   0.232  -0.079   0.112
    1UNL     O4   13   0.284  -0.206   0.071
    1UNL    C10   14   0.203  -0.236  -0.042
    1UNL     O5   15   0.264  -0.345  -0.127
    1UNL    C11   16   0.058  -0.272   0.011
    1UNL    C12   17   0.012  -0.137   0.083
    1UNL    C13   18  -0.127  -0.139   0.155
    1UNL     O6   19   0.117  -0.103   0.184
    1UNL    C14   20   0.025  -0.020  -0.031
    1UNL     O7   21  -0.060   0.096  -0.003
    1UNL    C15   22  -0.171   0.096  -0.078
    1UNL     O8   23  -0.239  -0.025  -0.091
    1UNL    C16   24  -0.354  -0.018  -0.183
    1UNL    C17   25  -0.427  -0.161  -0.172
    1UNL     O9   26  -0.461  -0.171  -0.036
    1UNL    C18   27  -0.591  -0.143  -0.021
    1UNL    O10   28  -0.658  -0.112  -0.119
    1UNL    C19   29  -0.652  -0.143   0.118
    1UNL    C20   30  -0.759  -0.058   0.141
    1UNL    C21   31  -0.804  -0.045   0.269
    1UNL    C22   32  -0.752  -0.117   0.371
    1UNL    C23   33  -0.659  -0.213   0.340
    1UNL    C24   34  -0.599  -0.220   0.220
    1UNL    C25   35  -0.445   0.097  -0.162
    1UNL    O11   36  -0.432   0.194  -0.270
    1UNL    C26   37  -0.407   0.169  -0.028
    1UNL    O12   38  -0.433   0.083   0.078
    1UNL    C27   39  -0.258   0.216  -0.039
    1UNL    O13   40  -0.240   0.324  -0.124
    1UNL    C28   41   0.053  -0.067  -0.176
    1UNL    C29   42   0.200  -0.099  -0.126
    1UNL    C30   43   0.666   0.130  -0.126
    1UNL    C31   44   0.804   0.133  -0.143
    1UNL     H1   45   1.037   0.114   0.119
    1UNL     H2   46   1.184   0.129   0.025
    1UNL     H3   47   1.130   0.283   0.094
    1UNL     H4   48   0.872   0.273   0.168
    1UNL     H5   49   0.639   0.273   0.173
    1UNL     H6   50   0.232   0.199   0.038
    1UNL     H7   51   0.189   0.179  -0.139
    1UNL     H8   52   0.299  -0.021   0.174
    1UNL     H9   53   0.279  -0.420  -0.058
    1UNL    H10   54  -0.008  -0.301  -0.071
    1UNL    H11   55   0.064  -0.354   0.081
    1UNL    H12   56  -0.145  -0.042   0.201
    1UNL    H13   57  -0.113  -0.216   0.229
    1UNL    H14   58  -0.214  -0.166   0.093
    1UNL    H15   59  -0.136   0.107  -0.187
    1UNL    H16   60  -0.301  -0.020  -0.286
    1UNL    H17   61  -0.505  -0.179  -0.248
    1UNL    H18   62  -0.349  -0.243  -0.180
    1UNL    H19   63  -0.779   0.009   0.058
    1UNL    H20   64  -0.889   0.019   0.298
    1UNL    H21   65  -0.795  -0.111   0.468
    1UNL    H22   66  -0.610  -0.267   0.420
    1UNL    H23   67  -0.529  -0.300   0.201
    1UNL    H24   68  -0.549   0.055  -0.161
    1UNL    H25   69  -0.481   0.162  -0.341
    1UNL    H26   70  -0.464   0.262  -0.029
    1UNL    H27   71  -0.384  -0.006   0.053
    1UNL    H28   72  -0.225   0.252   0.063
    1UNL    H29   73  -0.309   0.322  -0.184
    1UNL    H30   74   0.052   0.017  -0.243
    1UNL    H31   75  -0.026  -0.141  -0.213
    1UNL    H32   76   0.282  -0.094  -0.200
    1UNL    H33   77   0.601   0.086  -0.205
    1UNL    H34   78   0.855   0.106  -0.232
   0.00000   0.00000   0.00000   0.00000   0.00000   0.00000   0.00000   0.00000   0.00000
Generated with MDTraj, t= 27.0
 78
    1UNL     C1    1   1.079   0.196   0.065
    1UNL     O1    2   1.007   0.178  -0.053
    1UNL     C2    3   0.876   0.195  -0.037
    1UNL     C3    4   0.810   0.222   0.088
    1UNL     C4    5   0.672   0.231   0.094
    1UNL     C5    6   0.592   0.201  -0.014
    1UNL     C6    7   0.450   0.175   0.012
    1UNL     O2    8   0.413   0.175   0.128
    1UNL     O3    9   0.365   0.140  -0.094
    1UNL     C7   10   0.231   0.126  -0.059
    1UNL     C8   11   0.194  -0.019  -0.037
    1UNL     C9   12   0.234  -0.082   0.099
    1UNL     O4   13   0.288  -0.205   0.072
    1UNL    C10   14   0.207  -0.262  -0.042
    1UNL     O5   15   0.257  -0.374  -0.112
    1UNL    C11   16   0.067  -0.284   0.014
    1UNL    C12   17   0.012  -0.150   0.076
    1UNL    C13   18  -0.131  -0.151   0.128
    1UNL     O6   19   0.113  -0.104   0.174
    1UNL    C14   20   0.036  -0.035  -0.036
    1UNL     O7   21  -0.037   0.091  -0.017
    1UNL    C15   22  -0.155   0.096  -0.092
    1UNL     O8   23  -0.226  -0.033  -0.089
    1UNL    C16   24  -0.339  -0.033  -0.172
    1UNL    C17   25  -0.419  -0.166  -0.162
    1UNL     O9   26  -0.477  -0.177  -0.035
    1UNL    C18   27  -0.603  -0.124  -0.022
    1UNL    O10   28  -0.660  -0.070  -0.115
    1UNL    C19   29  -0.659  -0.123   0.114
    1UNL    C20   30  -0.767  -0.042   0.150
    1UNL    C21   31  -0.819  -0.049   0.275
    1UNL    C22   32  -0.756  -0.124   0.375
    1UNL    C23   33  -0.649  -0.198   0.338
    1UNL    C24   34  -0.605  -0.203   0.214
    1UNL    C25   35  -0.428   0.089  -0.153
    1UNL    O11   36  -0.412   0.179  -0.266
    1UNL    C26   37  -0.390   0.164  -0.016
    1UNL    O12   38  -0.410   0.087   0.101
    1UNL    C27   39  -0.240   0.215  -0.029
    1UNL    O13   40  -0.235   0.333  -0.112
    1UNL    C28   41   0.052  -0.096  -0.191
    1UNL    C29   42   0.195  -0.132  -0.139
    1UNL    C30   43   0.657   0.173  -0.133
    1UNL    C31   44   0.795   0.169  -0.145
    1UNL     H1   45   1.051   0.116   0.142
    1UNL     H2   46   1.180   0.169   0.037
    1UNL     H3   47   1.091   0.302   0.104
    1UNL     H4   48   0.870   0.237   0.174
    1UNL     H5   49   0.614   0.231   0.187
    1UNL     H6   50   0.219   0.184   0.030
    1UNL     H7   51   0.168   0.163  -0.144
    1UNL     H8   52   0.301  -0.023   0.162
    1UNL     H9   53   0.362  -0.362  -0.117
    1UNL    H10   54  -0.007  -0.323  -0.049
    1UNL    H11   55   0.075  -0.357   0.097
    1UNL    H12   56  -0.155  -0.047   0.151
    1UNL    H13   57  -0.126  -0.212   0.219
    1UNL    H14   58  -0.208  -0.183   0.058
    1UNL    H15   59  -0.134   0.113  -0.203
    1UNL    H16   60  -0.290  -0.026  -0.278
    1UNL    H17   61  -0.505  -0.173  -0.232
    1UNL    H18   62  -0.349  -0.252  -0.188
    1UNL    H19   63  -0.805   0.028   0.079
    1UNL    H20   64  -0.882   0.027   0.312
    1UNL    H21   65  -0.782  -0.107   0.481
    1UNL    H22   66  -0.608  -0.264   0.414
    1UNL    H23   67  -0.507  -0.236   0.194
    1UNL    H24   68  -0.539   0.073  -0.148
    1UNL    H25   69  -0.448   0.152  -0.349
    1UNL    H26   70  -0.450   0.256   0.002
    1UNL    H27   71  -0.422  -0.005   0.071
    1UNL    H28   72  -0.204   0.235   0.079
    1UNL    H29   73  -0.263   0.313  -0.212
    1UNL    H30   74   0.047  -0.023  -0.267
    1UNL    H31   75  -0.023  -0.180  -0.216
    1UNL    H32   76   0.275  -0.126  -0.212
    1UNL    H33   77   0.599   0.139  -0.214
    1UNL    H34   78   0.845   0.112  -0.226
   0.00000   0.00000   0.00000   0.00000   0.00000   0.00000   0.00000   0.00000   0.00000
Generated with MDTraj, t= 28.0
 78
    1UNL     C1    1   1.081   0.209   0.062
    1UNL     O1    2   0.992   0.212  -0.053
    1UNL     C2    3   0.856   0.198  -0.025
    1UNL     C3    4   0.799   0.208   0.107
    1UNL     C4    5   0.664   0.197   0.119
    1UNL     C5    6   0.584   0.166   0.006
    1UNL     C6    7   0.433   0.166   0.010
    1UNL     O2    8   0.372   0.202   0.111
    1UNL     O3    9   0.378   0.124  -0.109
    1UNL     C7   10   0.238   0.117  -0.091
    1UNL     C8   11   0.203  -0.020  -0.044
    1UNL     C9   12   0.245  -0.078   0.096
    1UNL     O4   13   0.303  -0.204   0.056
    1UNL    C10   14   0.219  -0.259  -0.051
    1UNL     O5   15   0.256  -0.384  -0.109
    1UNL    C11   16   0.082  -0.288   0.024
    1UNL    C12   17   0.031  -0.153   0.078
    1UNL    C13   18  -0.115  -0.156   0.121
    1UNL     O6   19   0.129  -0.098   0.170
    1UNL    C14   20   0.043  -0.047  -0.046
    1UNL     O7   21  -0.031   0.077  -0.024
    1UNL    C15   22  -0.149   0.093  -0.096
    1UNL     O8   23  -0.221  -0.032  -0.105
    1UNL    C16   24  -0.343  -0.024  -0.185
    1UNL    C17   25  -0.431  -0.152  -0.162
    1UNL     O9   26  -0.475  -0.177  -0.035
    1UNL    C18   27  -0.601  -0.118  -0.013
    1UNL    O10   28  -0.673  -0.070  -0.100
    1UNL    C19   29  -0.659  -0.121   0.125
    1UNL    C20   30  -0.774  -0.045   0.157
    1UNL    C21   31  -0.834  -0.049   0.279
    1UNL    C22   32  -0.775  -0.123   0.381
    1UNL    C23   33  -0.656  -0.186   0.362
    1UNL    C24   34  -0.602  -0.188   0.236
    1UNL    C25   35  -0.428   0.107  -0.157
    1UNL    O11   36  -0.405   0.200  -0.261
    1UNL    C26   37  -0.383   0.170  -0.026
    1UNL    O12   38  -0.405   0.086   0.081
    1UNL    C27   39  -0.236   0.206  -0.027
    1UNL    O13   40  -0.205   0.324  -0.106
    1UNL    C28   41   0.060  -0.108  -0.188
    1UNL    C29   42   0.204  -0.142  -0.152
    1UNL    C30   43   0.640   0.171  -0.121
    1UNL    C31   44   0.770   0.184  -0.135
    1UNL     H1   45   1.088   0.106   0.109
    1UNL     H2   46   1.175   0.224   0.018
    1UNL     H3   47   1.074   0.291   0.136
    1UNL     H4   48   0.859   0.230   0.194
    1UNL     H5   49   0.617   0.207   0.214
    1UNL     H6   50   0.213   0.193  -0.021
    1UNL     H7   51   0.193   0.136  -0.192
    1UNL     H8   52   0.324  -0.023   0.150
    1UNL     H9   53   0.283  -0.459  -0.039
    1UNL    H10   54   0.009  -0.345  -0.026
    1UNL    H11   55   0.117  -0.352   0.109
    1UNL    H12   56  -0.154  -0.064   0.163
    1UNL    H13   57  -0.112  -0.236   0.197
    1UNL    H14   58  -0.185  -0.181   0.044
    1UNL    H15   59  -0.124   0.124  -0.203
    1UNL    H16   60  -0.324  -0.017  -0.299
    1UNL    H17   61  -0.521  -0.145  -0.227
    1UNL    H18   62  -0.382  -0.251  -0.191
    1UNL    H19   63  -0.825   0.005   0.074
    1UNL    H20   64  -0.926   0.012   0.300
    1UNL    H21   65  -0.817  -0.139   0.476
    1UNL    H22   66  -0.619  -0.242   0.446
    1UNL    H23   67  -0.513  -0.259   0.205
    1UNL    H24   68  -0.538   0.084  -0.153
    1UNL    H25   69  -0.460   0.165  -0.339
    1UNL    H26   70  -0.435   0.268  -0.003
    1UNL    H27   71  -0.371  -0.005   0.068
    1UNL    H28   72  -0.203   0.214   0.084
    1UNL    H29   73  -0.265   0.343  -0.179
    1UNL    H30   74   0.047  -0.038  -0.268
    1UNL    H31   75   0.006  -0.206  -0.208
    1UNL    H32   76   0.284  -0.140  -0.228
    1UNL    H33   77   0.577   0.152  -0.210
    1UNL    H34   78   0.811   0.167  -0.229
   0.00000   0.00000   0.00000   0.00000   0.00000   0.00000   0.00000   0.00000   0.00000
Generated with MDTraj, t= 29.0
 78
    1UNL     C1    1   1.077   0.234   0.098
    1UNL     O1    2   1.002   0.229  -0.027
    1UNL     C2    3   0.866   0.208  -0.018
    1UNL     C3    4   0.796   0.200   0.101
    1UNL     C4    5   0.662   0.167   0.110
    1UNL     C5    6   0.587   0.162  -0.005
    1UNL     C6    7   0.440   0.152  -0.001
    1UNL     O2    8   0.378   0.171   0.106
    1UNL     O3    9   0.374   0.130  -0.124
    1UNL     C7   10   0.233   0.119  -0.094
    1UNL     C8   11   0.190  -0.027  -0.055
    1UNL     C9   12   0.255  -0.084   0.079
    1UNL     O4   13   0.313  -0.212   0.040
    1UNL    C10   14   0.219  -0.270  -0.052
    1UNL     O5   15   0.279  -0.389  -0.107
    1UNL    C11   16   0.084  -0.296   0.028
    1UNL    C12   17   0.029  -0.157   0.069
    1UNL    C13   18  -0.104  -0.156   0.155
    1UNL     O6   19   0.135  -0.104   0.156
    1UNL    C14   20   0.032  -0.053  -0.051
    1UNL     O7   21  -0.034   0.073  -0.035
    1UNL    C15   22  -0.154   0.083  -0.098
    1UNL     O8   23  -0.242  -0.034  -0.093
    1UNL    C16   24  -0.361  -0.025  -0.174
    1UNL    C17   25  -0.428  -0.155  -0.139
    1UNL     O9   26  -0.477  -0.157  -0.013
    1UNL    C18   27  -0.603  -0.105  -0.008
    1UNL    O10   28  -0.666  -0.056  -0.102
    1UNL    C19   29  -0.665  -0.116   0.126
    1UNL    C20   30  -0.793  -0.060   0.151
    1UNL    C21   31  -0.842  -0.057   0.278
    1UNL    C22   32  -0.773  -0.119   0.379
    1UNL    C23   33  -0.645  -0.176   0.357
    1UNL    C24   34  -0.594  -0.177   0.230
    1UNL    C25   35  -0.433   0.112  -0.154
    1UNL    O11   36  -0.412   0.205  -0.265
    1UNL    C26   37  -0.376   0.176  -0.021
    1UNL    O12   38  -0.408   0.093   0.092
    1UNL    C27   39  -0.230   0.212  -0.040
    1UNL    O13   40  -0.214   0.328  -0.126
    1UNL    C28   41   0.047  -0.115  -0.190
    1UNL    C29   42   0.200  -0.150  -0.149
    1UNL    C30   43   0.648   0.175  -0.129
    1UNL    C31   44   0.784   0.200  -0.134
    1UNL     H1   45   1.075   0.147   0.167
    1UNL     H2   46   1.174   0.244   0.065
    1UNL     H3   47   1.057   0.327   0.149
    1UNL     H4   48   0.851   0.215   0.193
    1UNL     H5   49   0.599   0.182   0.201
    1UNL     H6   50   0.215   0.193  -0.019
    1UNL     H7   51   0.181   0.156  -0.185
    1UNL     H8   52   0.326  -0.023   0.138
    1UNL     H9   53   0.365  -0.415  -0.057
    1UNL    H10   54   0.009  -0.348  -0.029
    1UNL    H11   55   0.110  -0.358   0.113
    1UNL    H12   56  -0.130  -0.059   0.194
    1UNL    H13   57  -0.093  -0.226   0.238
    1UNL    H14   58  -0.195  -0.181   0.104
    1UNL    H15   59  -0.129   0.114  -0.204
    1UNL    H16   60  -0.333  -0.026  -0.285
    1UNL    H17   61  -0.521  -0.164  -0.197
    1UNL    H18   62  -0.361  -0.242  -0.161
    1UNL    H19   63  -0.845  -0.000   0.080
    1UNL    H20   64  -0.941  -0.047   0.304
    1UNL    H21   65  -0.820  -0.127   0.479
    1UNL    H22   66  -0.583  -0.225   0.434
    1UNL    H23   67  -0.521  -0.242   0.205
    1UNL    H24   68  -0.544   0.102  -0.145
    1UNL    H25   69  -0.446   0.155  -0.351
    1UNL    H26   70  -0.440   0.269  -0.011
    1UNL    H27   71  -0.408  -0.008   0.065
    1UNL    H28   72  -0.190   0.233   0.068
    1UNL    H29   73  -0.263   0.308  -0.211
    1UNL    H30   74   0.037  -0.060  -0.286
    1UNL    H31   75  -0.015  -0.205  -0.196
    1UNL    H32   76   0.272  -0.152  -0.231
    1UNL    H33   77   0.581   0.154  -0.207
    1UNL    H34   78   0.842   0.218  -0.228
   0.00000   0.00000   0.00000   0.00000   0.00000   0.00000   0.00000   0.00000   0.00000
Generated with MDTraj, t= 30.0
 78
    1UNL     C1    1   1.065   0.258   0.124
    1UNL     O1    2   1.018   0.230  -0.004
    1UNL     C2    3   0.878   0.217  -0.011
    1UNL     C3    4   0.800   0.193   0.104
    1UNL     C4    5   0.665   0.179   0.099
    1UNL     C5    6   0.596   0.180  -0.019
    1UNL     C6    7   0.452   0.147  -0.020
    1UNL     O2    8   0.390   0.142   0.087
    1UNL     O3    9   0.388   0.120  -0.137
    1UNL     C7   10   0.253   0.112  -0.102
    1UNL     C8   11   0.201  -0.024  -0.050
    1UNL     C9   12   0.249  -0.097   0.087
    1UNL     O4   13   0.299  -0.225   0.045
    1UNL    C10   14   0.207  -0.269  -0.062
    1UNL     O5   15   0.258  -0.377  -0.137
    1UNL    C11   16   0.070  -0.292   0.012
    1UNL    C12   17   0.027  -0.155   0.077
    1UNL    C13   18  -0.105  -0.151   0.148
    1UNL     O6   19   0.128  -0.122   0.171
    1UNL    C14   20   0.037  -0.044  -0.040
    1UNL     O7   21  -0.029   0.074  -0.017
    1UNL    C15   22  -0.148   0.077  -0.083
    1UNL     O8   23  -0.232  -0.036  -0.072
    1UNL    C16   24  -0.348  -0.030  -0.168
    1UNL    C17   25  -0.440  -0.148  -0.150
    1UNL     O9   26  -0.494  -0.160  -0.020
    1UNL    C18   27  -0.618  -0.107  -0.005
    1UNL    O10   28  -0.687  -0.058  -0.093
    1UNL    C19   29  -0.667  -0.110   0.135
    1UNL    C20   30  -0.796  -0.065   0.152
    1UNL    C21   31  -0.855  -0.079   0.278
    1UNL    C22   32  -0.778  -0.118   0.384
    1UNL    C23   33  -0.649  -0.165   0.368
    1UNL    C24   34  -0.590  -0.158   0.241
    1UNL    C25   35  -0.438   0.096  -0.149
    1UNL    O11   36  -0.426   0.175  -0.269
    1UNL    C26   37  -0.381   0.180  -0.027
    1UNL    O12   38  -0.392   0.105   0.094
    1UNL    C27   39  -0.226   0.212  -0.047
    1UNL    O13   40  -0.207   0.310  -0.149
    1UNL    C28   41   0.042  -0.088  -0.190
    1UNL    C29   42   0.188  -0.141  -0.156
    1UNL    C30   43   0.675   0.190  -0.134
    1UNL    C31   44   0.810   0.210  -0.136
    1UNL     H1   45   1.080   0.172   0.190
    1UNL     H2   46   1.155   0.302   0.105
    1UNL     H3   47   0.997   0.331   0.164
    1UNL     H4   48   0.840   0.216   0.199
    1UNL     H5   49   0.620   0.157   0.190
    1UNL     H6   50   0.228   0.193  -0.032
    1UNL     H7   51   0.197   0.130  -0.196
    1UNL     H8   52   0.328  -0.044   0.144
    1UNL     H9   53   0.331  -0.409  -0.084
    1UNL    H10   54  -0.003  -0.336  -0.061
    1UNL    H11   55   0.079  -0.360   0.092
    1UNL    H12   56  -0.128  -0.050   0.176
    1UNL    H13   57  -0.101  -0.210   0.238
    1UNL    H14   58  -0.187  -0.180   0.084
    1UNL    H15   59  -0.123   0.094  -0.192
    1UNL    H16   60  -0.310  -0.025  -0.274
    1UNL    H17   61  -0.525  -0.146  -0.216
    1UNL    H18   62  -0.387  -0.243  -0.167
    1UNL    H19   63  -0.855  -0.026   0.069
    1UNL    H20   64  -0.959  -0.035   0.289
    1UNL    H21   65  -0.817  -0.115   0.482
    1UNL    H22   66  -0.593  -0.203   0.449
    1UNL    H23   67  -0.483  -0.168   0.213
    1UNL    H24   68  -0.546   0.072  -0.130
    1UNL    H25   69  -0.469   0.137  -0.350
    1UNL    H26   70  -0.435   0.282  -0.021
    1UNL    H27   71  -0.404   0.014   0.078
    1UNL    H28   72  -0.175   0.259   0.047
    1UNL    H29   73  -0.289   0.289  -0.208
    1UNL    H30   74   0.039  -0.007  -0.271
    1UNL    H31   75  -0.019  -0.169  -0.223
    1UNL    H32   76   0.265  -0.136  -0.234
    1UNL    H33   77   0.629   0.170  -0.235
    1UNL    H34   78   0.859   0.217  -0.229
   0.00000   0.00000   0.00000   0.00000   0.00000   0.00000   0.00000   0.00000   0.00000
Generated with MDTraj, t= 31.0
 78
    1UNL     C1    1   1.084   0.274   0.111
    1UNL     O1    2   1.017   0.272  -0.013
    1UNL     C2    3   0.888   0.215  -0.005
    1UNL     C3    4   0.826   0.194   0.118
    1UNL     C4    5   0.690   0.165   0.120
    1UNL     C5    6   0.611   0.156   0.004
    1UNL     C6    7   0.464   0.143   0.008
    1UNL     O2    8   0.401   0.178   0.110
    1UNL     O3    9   0.392   0.106  -0.105
    1UNL     C7   10   0.251   0.114  -0.096
    1UNL     C8   11   0.200  -0.027  -0.067
    1UNL     C9   12   0.253  -0.100   0.070
    1UNL     O4   13   0.299  -0.231   0.016
    1UNL    C10   14   0.196  -0.274  -0.076
    1UNL     O5   15   0.229  -0.396  -0.150
    1UNL    C11   16   0.069  -0.293   0.013
    1UNL    C12   17   0.025  -0.151   0.067
    1UNL    C13   18  -0.108  -0.161   0.132
    1UNL     O6   19   0.137  -0.118   0.153
    1UNL    C14   20   0.041  -0.045  -0.050
    1UNL     O7   21  -0.028   0.081  -0.041
    1UNL    C15   22  -0.156   0.090  -0.101
    1UNL     O8   23  -0.231  -0.028  -0.089
    1UNL    C16   24  -0.354  -0.030  -0.165
    1UNL    C17   25  -0.435  -0.157  -0.137
    1UNL     O9   26  -0.481  -0.155  -0.001
    1UNL    C18   27  -0.613  -0.118   0.013
    1UNL    O10   28  -0.677  -0.083  -0.084
    1UNL    C19   29  -0.671  -0.120   0.147
    1UNL    C20   30  -0.800  -0.087   0.153
    1UNL    C21   31  -0.865  -0.082   0.276
    1UNL    C22   32  -0.791  -0.108   0.392
    1UNL    C23   33  -0.658  -0.145   0.383
    1UNL    C24   34  -0.597  -0.151   0.256
    1UNL    C25   35  -0.436   0.102  -0.151
    1UNL    O11   36  -0.437   0.178  -0.278
    1UNL    C26   37  -0.384   0.186  -0.040
    1UNL    O12   38  -0.407   0.119   0.089
    1UNL    C27   39  -0.236   0.222  -0.056
    1UNL    O13   40  -0.226   0.326  -0.150
    1UNL    C28   41   0.040  -0.104  -0.190
    1UNL    C29   42   0.186  -0.147  -0.173
    1UNL    C30   43   0.678   0.165  -0.115
    1UNL    C31   44   0.813   0.203  -0.122
    1UNL     H1   45   1.058   0.185   0.172
    1UNL     H2   46   1.188   0.269   0.098
    1UNL     H3   47   1.044   0.362   0.160
    1UNL     H4   48   0.882   0.225   0.207
    1UNL     H5   49   0.624   0.165   0.211
    1UNL     H6   50   0.211   0.176  -0.013
    1UNL     H7   51   0.209   0.151  -0.193
    1UNL     H8   52   0.335  -0.039   0.118
    1UNL     H9   53   0.254  -0.459  -0.086
    1UNL    H10   54  -0.008  -0.339  -0.055
    1UNL    H11   55   0.094  -0.361   0.088
    1UNL    H12   56  -0.141  -0.062   0.159
    1UNL    H13   57  -0.107  -0.227   0.215
    1UNL    H14   58  -0.175  -0.195   0.051
    1UNL    H15   59  -0.138   0.092  -0.211
    1UNL    H16   60  -0.320  -0.042  -0.270
    1UNL    H17   61  -0.519  -0.172  -0.202
    1UNL    H18   62  -0.372  -0.246  -0.144
    1UNL    H19   63  -0.862  -0.062   0.070
    1UNL    H20   64  -0.959  -0.036   0.273
    1UNL    H21   65  -0.833  -0.099   0.495
    1UNL    H22   66  -0.597  -0.161   0.475
    1UNL    H23   67  -0.485  -0.156   0.248
    1UNL    H24   68  -0.537   0.063  -0.123
    1UNL    H25   69  -0.466   0.129  -0.351
    1UNL    H26   70  -0.439   0.286  -0.041
    1UNL    H27   71  -0.440   0.026   0.065
    1UNL    H28   72  -0.184   0.255   0.045
    1UNL    H29   73  -0.264   0.300  -0.229
    1UNL    H30   74   0.026  -0.019  -0.266
    1UNL    H31   75  -0.021  -0.189  -0.209
    1UNL    H32   76   0.266  -0.133  -0.247
    1UNL    H33   77   0.620   0.155  -0.200
    1UNL    H34   78   0.857   0.197  -0.221
   0.00000   0.00000   0.00000   0.00000   0.00000   0.00000   0.00000   0.00000   0.00000
Generated with MDTraj, t= 32.0
 78
    1UNL     C1    1   1.099   0.293   0.083
    1UNL     O1    2   1.020   0.234  -0.022
    1UNL     C2    3   0.880   0.219   0.004
    1UNL     C3    4   0.814   0.217   0.128
    1UNL     C4    5   0.682   0.192   0.138
    1UNL     C5    6   0.607   0.159   0.024
    1UNL     C6    7   0.461   0.124   0.020
    1UNL     O2    8   0.394   0.140   0.125
    1UNL     O3    9   0.408   0.086  -0.099
    1UNL     C7   10   0.265   0.100  -0.095
    1UNL     C8   11   0.195  -0.031  -0.065
    1UNL     C9   12   0.245  -0.108   0.066
    1UNL     O4   13   0.287  -0.238   0.019
    1UNL    C10   14   0.191  -0.266  -0.084
    1UNL     O5   15   0.225  -0.387  -0.153
    1UNL    C11   16   0.046  -0.274  -0.023
    1UNL    C12   17   0.016  -0.135   0.041
    1UNL    C13   18  -0.119  -0.129   0.110
    1UNL     O6   19   0.123  -0.114   0.141
    1UNL    C14   20   0.040  -0.030  -0.067
    1UNL     O7   21  -0.028   0.095  -0.048
    1UNL    C15   22  -0.153   0.094  -0.114
    1UNL     O8   23  -0.224  -0.027  -0.094
    1UNL    C16   24  -0.351  -0.043  -0.162
    1UNL    C17   25  -0.428  -0.164  -0.112
    1UNL     O9   26  -0.472  -0.157   0.022
    1UNL    C18   27  -0.605  -0.125   0.021
    1UNL    O10   28  -0.668  -0.113  -0.083
    1UNL    C19   29  -0.672  -0.115   0.152
    1UNL    C20   30  -0.807  -0.096   0.158
    1UNL    C21   31  -0.867  -0.078   0.284
    1UNL    C22   32  -0.797  -0.110   0.398
    1UNL    C23   33  -0.658  -0.128   0.392
    1UNL    C24   34  -0.597  -0.130   0.263
    1UNL    C25   35  -0.430   0.094  -0.155
    1UNL    O11   36  -0.417   0.183  -0.277
    1UNL    C26   37  -0.381   0.177  -0.037
    1UNL    O12   38  -0.412   0.109   0.090
    1UNL    C27   39  -0.231   0.215  -0.053
    1UNL    O13   40  -0.220   0.314  -0.154
    1UNL    C28   41   0.058  -0.081  -0.210
    1UNL    C29   42   0.199  -0.135  -0.177
    1UNL    C30   43   0.664   0.175  -0.102
    1UNL    C31   44   0.801   0.196  -0.110
    1UNL     H1   45   1.153   0.208   0.134
    1UNL     H2   46   1.174   0.360   0.047
    1UNL     H3   47   1.026   0.325   0.161
    1UNL     H4   48   0.872   0.232   0.214
    1UNL     H5   49   0.645   0.205   0.235
    1UNL     H6   50   0.237   0.177  -0.019
    1UNL     H7   51   0.230   0.142  -0.193
    1UNL     H8   52   0.317  -0.041   0.123
    1UNL     H9   53   0.285  -0.435  -0.103
    1UNL    H10   54  -0.019  -0.302  -0.108
    1UNL    H11   55   0.044  -0.350   0.053
    1UNL    H12   56  -0.115  -0.027   0.146
    1UNL    H13   57  -0.130  -0.192   0.195
    1UNL    H14   58  -0.203  -0.140   0.043
    1UNL    H15   59  -0.145   0.100  -0.225
    1UNL    H16   60  -0.314  -0.063  -0.263
    1UNL    H17   61  -0.508  -0.205  -0.173
    1UNL    H18   62  -0.349  -0.238  -0.099
    1UNL    H19   63  -0.856  -0.075   0.063
    1UNL    H20   64  -0.979  -0.081   0.293
    1UNL    H21   65  -0.855  -0.122   0.484
    1UNL    H22   66  -0.584  -0.137   0.467
    1UNL    H23   67  -0.503  -0.166   0.252
    1UNL    H24   68  -0.537   0.068  -0.145
    1UNL    H25   69  -0.438   0.144  -0.359
    1UNL    H26   70  -0.448   0.267  -0.042
    1UNL    H27   71  -0.409   0.016   0.068
    1UNL    H28   72  -0.188   0.254   0.051
    1UNL    H29   73  -0.298   0.314  -0.225
    1UNL    H30   74   0.062  -0.006  -0.293
    1UNL    H31   75  -0.025  -0.151  -0.225
    1UNL    H32   76   0.280  -0.115  -0.250
    1UNL    H33   77   0.610   0.129  -0.190
    1UNL    H34   78   0.852   0.198  -0.208
   0.00000   0.00000   0.00000   0.00000   0.00000   0.00000   0.00000   0.00000   0.00000
Generated with MDTraj, t= 33.0
 78
    1UNL     C1    1   1.090   0.302   0.098
    1UNL     O1    2   1.023   0.243  -0.008
    1UNL     C2    3   0.885   0.214  -0.003
    1UNL     C3    4   0.814   0.218   0.113
    1UNL     C4    5   0.676   0.191   0.124
    1UNL     C5    6   0.605   0.159   0.006
    1UNL     C6    7   0.460   0.131   0.018
    1UNL     O2    8   0.412   0.114   0.130
    1UNL     O3    9   0.386   0.135  -0.092
    1UNL     C7   10   0.246   0.118  -0.066
    1UNL     C8   11   0.192  -0.026  -0.060
    1UNL     C9   12   0.233  -0.101   0.065
    1UNL     O4   13   0.275  -0.231   0.025
    1UNL    C10   14   0.185  -0.270  -0.085
    1UNL     O5   15   0.221  -0.382  -0.157
    1UNL    C11   16   0.048  -0.281  -0.022
    1UNL    C12   17   0.012  -0.147   0.047
    1UNL    C13   18  -0.121  -0.131   0.110
    1UNL     O6   19   0.114  -0.126   0.144
    1UNL    C14   20   0.036  -0.032  -0.066
    1UNL     O7   21  -0.018   0.097  -0.051
    1UNL    C15   22  -0.156   0.095  -0.108
    1UNL     O8   23  -0.219  -0.031  -0.095
    1UNL    C16   24  -0.346  -0.040  -0.168
    1UNL    C17   25  -0.416  -0.163  -0.121
    1UNL     O9   26  -0.463  -0.159   0.017
    1UNL    C18   27  -0.597  -0.130   0.019
    1UNL    O10   28  -0.665  -0.106  -0.078
    1UNL    C19   29  -0.667  -0.128   0.153
    1UNL    C20   30  -0.801  -0.105   0.158
    1UNL    C21   31  -0.863  -0.089   0.279
    1UNL    C22   32  -0.789  -0.093   0.401
    1UNL    C23   33  -0.652  -0.113   0.390
    1UNL    C24   34  -0.589  -0.125   0.267
    1UNL    C25   35  -0.440   0.092  -0.152
    1UNL    O11   36  -0.432   0.167  -0.279
    1UNL    C26   37  -0.384   0.178  -0.043
    1UNL    O12   38  -0.389   0.106   0.084
    1UNL    C27   39  -0.239   0.217  -0.063
    1UNL    O13   40  -0.228   0.333  -0.150
    1UNL    C28   41   0.054  -0.082  -0.210
    1UNL    C29   42   0.191  -0.134  -0.178
    1UNL    C30   43   0.682   0.143  -0.113
    1UNL    C31   44   0.817   0.172  -0.113
    1UNL     H1   45   1.059   0.239   0.187
    1UNL     H2   46   1.199   0.286   0.089
    1UNL     H3   47   1.044   0.404   0.121
    1UNL     H4   48   0.870   0.229   0.205
    1UNL     H5   49   0.619   0.195   0.221
    1UNL     H6   50   0.222   0.161   0.034
    1UNL     H7   51   0.188   0.186  -0.134
    1UNL     H8   52   0.310  -0.060   0.135
    1UNL     H9   53   0.246  -0.454  -0.107
    1UNL    H10   54  -0.014  -0.304  -0.106
    1UNL    H11   55   0.039  -0.359   0.059
    1UNL    H12   56  -0.131  -0.031   0.149
    1UNL    H13   57  -0.140  -0.201   0.189
    1UNL    H14   58  -0.191  -0.156   0.033
    1UNL    H15   59  -0.146   0.104  -0.218
    1UNL    H16   60  -0.312  -0.046  -0.269
    1UNL    H17   61  -0.504  -0.175  -0.187
    1UNL    H18   62  -0.351  -0.250  -0.130
    1UNL    H19   63  -0.854  -0.119   0.066
    1UNL    H20   64  -0.967  -0.078   0.274
    1UNL    H21   65  -0.837  -0.087   0.502
    1UNL    H22   66  -0.595  -0.132   0.482
    1UNL    H23   67  -0.475  -0.143   0.253
    1UNL    H24   68  -0.543   0.060  -0.134
    1UNL    H25   69  -0.462   0.107  -0.352
    1UNL    H26   70  -0.435   0.275  -0.035
    1UNL    H27   71  -0.396   0.001   0.082
    1UNL    H28   72  -0.207   0.253   0.047
    1UNL    H29   73  -0.262   0.310  -0.234
    1UNL    H30   74   0.058  -0.006  -0.286
    1UNL    H31   75  -0.022  -0.159  -0.240
    1UNL    H32   76   0.266  -0.117  -0.259
    1UNL    H33   77   0.635   0.102  -0.196
    1UNL    H34   78   0.879   0.135  -0.189
   0.00000   0.00000   0.00000   0.00000   0.00000   0.00000   0.00000   0.00000   0.00000
Generated with MDTraj, t= 34.0
 78
    1UNL     C1    1   1.077   0.292   0.103
    1UNL     O1    2   1.015   0.245  -0.013
    1UNL     C2    3   0.881   0.200  -0.005
    1UNL     C3    4   0.810   0.219   0.115
    1UNL     C4    5   0.671   0.201   0.116
    1UNL     C5    6   0.605   0.144   0.007
    1UNL     C6    7   0.461   0.118   0.014
    1UNL     O2    8   0.403   0.122   0.122
    1UNL     O3    9   0.401   0.099  -0.103
    1UNL     C7   10   0.265   0.118  -0.086
    1UNL     C8   11   0.189  -0.016  -0.051
    1UNL     C9   12   0.238  -0.094   0.082
    1UNL     O4   13   0.289  -0.225   0.029
    1UNL    C10   14   0.199  -0.254  -0.073
    1UNL     O5   15   0.241  -0.360  -0.167
    1UNL    C11   16   0.064  -0.281  -0.009
    1UNL    C12   17   0.013  -0.153   0.059
    1UNL    C13   18  -0.128  -0.158   0.119
    1UNL     O6   19   0.116  -0.125   0.155
    1UNL    C14   20   0.027  -0.030  -0.042
    1UNL     O7   21  -0.040   0.094  -0.017
    1UNL    C15   22  -0.160   0.095  -0.105
    1UNL     O8   23  -0.238  -0.026  -0.092
    1UNL    C16   24  -0.350  -0.029  -0.183
    1UNL    C17   25  -0.427  -0.154  -0.149
    1UNL     O9   26  -0.461  -0.164  -0.013
    1UNL    C18   27  -0.594  -0.129   0.003
    1UNL    O10   28  -0.670  -0.092  -0.083
    1UNL    C19   29  -0.647  -0.116   0.141
    1UNL    C20   30  -0.787  -0.104   0.155
    1UNL    C21   31  -0.850  -0.101   0.276
    1UNL    C22   32  -0.768  -0.096   0.391
    1UNL    C23   33  -0.624  -0.108   0.383
    1UNL    C24   34  -0.566  -0.117   0.259
    1UNL    C25   35  -0.443   0.089  -0.151
    1UNL    O11   36  -0.461   0.167  -0.269
    1UNL    C26   37  -0.387   0.179  -0.035
    1UNL    O12   38  -0.403   0.110   0.095
    1UNL    C27   39  -0.240   0.220  -0.059
    1UNL    O13   40  -0.244   0.317  -0.165
    1UNL    C28   41   0.051  -0.078  -0.193
    1UNL    C29   42   0.191  -0.120  -0.157
    1UNL    C30   43   0.677   0.127  -0.113
    1UNL    C31   44   0.810   0.154  -0.118
    1UNL     H1   45   1.068   0.210   0.180
    1UNL     H2   46   1.186   0.304   0.090
    1UNL     H3   47   1.017   0.379   0.147
    1UNL     H4   48   0.852   0.282   0.192
    1UNL     H5   49   0.626   0.220   0.208
    1UNL     H6   50   0.244   0.199  -0.015
    1UNL     H7   51   0.233   0.161  -0.185
    1UNL     H8   52   0.321  -0.038   0.131
    1UNL     H9   53   0.331  -0.384  -0.154
    1UNL    H10   54  -0.007  -0.335  -0.067
    1UNL    H11   55   0.096  -0.343   0.083
    1UNL    H12   56  -0.155  -0.068   0.170
    1UNL    H13   57  -0.146  -0.240   0.190
    1UNL    H14   58  -0.194  -0.181   0.039
    1UNL    H15   59  -0.117   0.115  -0.202
    1UNL    H16   60  -0.311  -0.027  -0.281
    1UNL    H17   61  -0.527  -0.160  -0.202
    1UNL    H18   62  -0.361  -0.239  -0.169
    1UNL    H19   63  -0.836  -0.098   0.059
    1UNL    H20   64  -0.960  -0.080   0.285
    1UNL    H21   65  -0.808  -0.075   0.486
    1UNL    H22   66  -0.580  -0.124   0.477
    1UNL    H23   67  -0.468  -0.089   0.246
    1UNL    H24   68  -0.540   0.048  -0.126
    1UNL    H25   69  -0.501   0.115  -0.350
    1UNL    H26   70  -0.448   0.269  -0.039
    1UNL    H27   71  -0.398   0.018   0.084
    1UNL    H28   72  -0.182   0.263   0.038
    1UNL    H29   73  -0.311   0.282  -0.229
    1UNL    H30   74   0.041   0.008  -0.253
    1UNL    H31   75  -0.021  -0.165  -0.214
    1UNL    H32   76   0.278  -0.096  -0.223
    1UNL    H33   77   0.629   0.091  -0.207
    1UNL    H34   78   0.876   0.144  -0.207
   0.00000   0.00000   0.00000   0.00000   0.00000   0.00000   0.00000   0.00000   0.00000
Generated with MDTraj, t= 35.0
 78
    1UNL     C1    1   1.088   0.282   0.085
    1UNL     O1    2   1.019   0.226  -0.027
    1UNL     C2    3   0.883   0.192  -0.004
    1UNL     C3    4   0.815   0.213   0.119
    1UNL     C4    5   0.678   0.191   0.125
    1UNL     C5    6   0.601   0.155   0.014
    1UNL     C6    7   0.455   0.145   0.020
    1UNL     O2    8   0.399   0.160   0.126
    1UNL     O3    9   0.392   0.124  -0.101
    1UNL     C7   10   0.247   0.115  -0.082
    1UNL     C8   11   0.190  -0.017  -0.049
    1UNL     C9   12   0.236  -0.087   0.082
    1UNL     O4   13   0.288  -0.216   0.033
    1UNL    C10   14   0.205  -0.261  -0.070
    1UNL     O5   15   0.254  -0.371  -0.140
    1UNL    C11   16   0.068  -0.289   0.004
    1UNL    C12   17   0.013  -0.153   0.062
    1UNL    C13   18  -0.123  -0.160   0.125
    1UNL     O6   19   0.110  -0.115   0.162
    1UNL    C14   20   0.029  -0.036  -0.052
    1UNL     O7   21  -0.046   0.082  -0.033
    1UNL    C15   22  -0.173   0.090  -0.099
    1UNL     O8   23  -0.244  -0.032  -0.094
    1UNL    C16   24  -0.362  -0.019  -0.180
    1UNL    C17   25  -0.434  -0.160  -0.156
    1UNL     O9   26  -0.475  -0.171  -0.023
    1UNL    C18   27  -0.607  -0.131  -0.013
    1UNL    O10   28  -0.679  -0.102  -0.105
    1UNL    C19   29  -0.652  -0.124   0.126
    1UNL    C20   30  -0.792  -0.110   0.166
    1UNL    C21   31  -0.828  -0.096   0.296
    1UNL    C22   32  -0.732  -0.099   0.394
    1UNL    C23   33  -0.593  -0.118   0.363
    1UNL    C24   34  -0.559  -0.128   0.232
    1UNL    C25   35  -0.449   0.109  -0.146
    1UNL    O11   36  -0.448   0.195  -0.264
    1UNL    C26   37  -0.394   0.189  -0.028
    1UNL    O12   38  -0.410   0.107   0.095
    1UNL    C27   39  -0.246   0.216  -0.059
    1UNL    O13   40  -0.242   0.322  -0.161
    1UNL    C28   41   0.054  -0.083  -0.194
    1UNL    C29   42   0.196  -0.130  -0.162
    1UNL    C30   43   0.670   0.122  -0.104
    1UNL    C31   44   0.808   0.146  -0.114
    1UNL     H1   45   1.099   0.208   0.166
    1UNL     H2   46   1.193   0.310   0.064
    1UNL     H3   47   1.028   0.366   0.129
    1UNL     H4   48   0.860   0.253   0.205
    1UNL     H5   49   0.620   0.226   0.214
    1UNL     H6   50   0.210   0.172   0.003
    1UNL     H7   51   0.208   0.169  -0.173
    1UNL     H8   52   0.307  -0.031   0.148
    1UNL     H9   53   0.312  -0.411  -0.065
    1UNL    H10   54  -0.002  -0.334  -0.064
    1UNL    H11   55   0.074  -0.357   0.095
    1UNL    H12   56  -0.149  -0.064   0.165
    1UNL    H13   57  -0.122  -0.227   0.210
    1UNL    H14   58  -0.194  -0.199   0.055
    1UNL    H15   59  -0.143   0.107  -0.201
    1UNL    H16   60  -0.337  -0.007  -0.280
    1UNL    H17   61  -0.529  -0.158  -0.218
    1UNL    H18   62  -0.374  -0.252  -0.173
    1UNL    H19   63  -0.859  -0.099   0.082
    1UNL    H20   64  -0.927  -0.076   0.326
    1UNL    H21   65  -0.773  -0.098   0.498
    1UNL    H22   66  -0.507  -0.092   0.431
    1UNL    H23   67  -0.455  -0.161   0.210
    1UNL    H24   68  -0.550   0.070  -0.133
    1UNL    H25   69  -0.475   0.148  -0.353
    1UNL    H26   70  -0.450   0.280  -0.019
    1UNL    H27   71  -0.414   0.019   0.057
    1UNL    H28   72  -0.198   0.258   0.043
    1UNL    H29   73  -0.315   0.303  -0.233
    1UNL    H30   74   0.047  -0.008  -0.270
    1UNL    H31   75  -0.008  -0.174  -0.216
    1UNL    H32   76   0.271  -0.120  -0.244
    1UNL    H33   77   0.608   0.078  -0.182
    1UNL    H34   78   0.852   0.140  -0.208
   0.00000   0.00000   0.00000   0.00000   0.00000   0.00000   0.00000   0.00000   0.00000
Generated with MDTraj, t= 36.0
 78
    1UNL     C1    1   1.078   0.257   0.062
    1UNL     O1    2   1.007   0.172  -0.021
    1UNL     C2    3   0.867   0.191  -0.011
    1UNL     C3    4   0.804   0.215   0.114
    1UNL     C4    5   0.669   0.196   0.125
    1UNL     C5    6   0.592   0.165   0.011
    1UNL     C6    7   0.445   0.160   0.024
    1UNL     O2    8   0.393   0.184   0.130
    1UNL     O3    9   0.378   0.134  -0.089
    1UNL     C7   10   0.236   0.128  -0.064
    1UNL     C8   11   0.190  -0.018  -0.044
    1UNL     C9   12   0.231  -0.086   0.095
    1UNL     O4   13   0.285  -0.216   0.057
    1UNL    C10   14   0.206  -0.259  -0.052
    1UNL     O5   15   0.252  -0.378  -0.115
    1UNL    C11   16   0.056  -0.282   0.004
    1UNL    C12   17   0.011  -0.143   0.061
    1UNL    C13   18  -0.128  -0.138   0.119
    1UNL     O6   19   0.105  -0.101   0.163
    1UNL    C14   20   0.034  -0.037  -0.056
    1UNL     O7   21  -0.029   0.088  -0.044
    1UNL    C15   22  -0.154   0.097  -0.122
    1UNL     O8   23  -0.234  -0.027  -0.118
    1UNL    C16   24  -0.359  -0.021  -0.196
    1UNL    C17   25  -0.442  -0.145  -0.171
    1UNL     O9   26  -0.480  -0.162  -0.039
    1UNL    C18   27  -0.610  -0.136  -0.012
    1UNL    O10   28  -0.689  -0.119  -0.099
    1UNL    C19   29  -0.649  -0.133   0.134
    1UNL    C20   30  -0.778  -0.102   0.175
    1UNL    C21   31  -0.809  -0.080   0.307
    1UNL    C22   32  -0.718  -0.113   0.410
    1UNL    C23   33  -0.590  -0.140   0.374
    1UNL    C24   34  -0.559  -0.161   0.237
    1UNL    C25   35  -0.443   0.104  -0.169
    1UNL    O11   36  -0.438   0.209  -0.274
    1UNL    C26   37  -0.391   0.172  -0.041
    1UNL    O12   38  -0.402   0.082   0.070
    1UNL    C27   39  -0.233   0.205  -0.052
    1UNL    O13   40  -0.222   0.329  -0.122
    1UNL    C28   41   0.063  -0.078  -0.199
    1UNL    C29   42   0.206  -0.134  -0.153
    1UNL    C30   43   0.657   0.142  -0.106
    1UNL    C31   44   0.792   0.156  -0.125
    1UNL     H1   45   1.080   0.235   0.167
    1UNL     H2   46   1.184   0.238   0.034
    1UNL     H3   47   1.047   0.358   0.036
    1UNL     H4   48   0.874   0.229   0.199
    1UNL     H5   49   0.618   0.207   0.215
    1UNL     H6   50   0.217   0.203   0.011
    1UNL     H7   51   0.180   0.164  -0.152
    1UNL     H8   52   0.300  -0.032   0.162
    1UNL     H9   53   0.356  -0.371  -0.098
    1UNL    H10   54  -0.019  -0.319  -0.072
    1UNL    H11   55   0.055  -0.362   0.080
    1UNL    H12   56  -0.147  -0.033   0.131
    1UNL    H13   57  -0.148  -0.188   0.212
    1UNL    H14   58  -0.192  -0.174   0.039
    1UNL    H15   59  -0.127   0.120  -0.221
    1UNL    H16   60  -0.332  -0.014  -0.296
    1UNL    H17   61  -0.544  -0.137  -0.220
    1UNL    H18   62  -0.387  -0.232  -0.206
    1UNL    H19   63  -0.851  -0.082   0.099
    1UNL    H20   64  -0.911  -0.054   0.339
    1UNL    H21   65  -0.738  -0.099   0.512
    1UNL    H22   66  -0.524  -0.150   0.456
    1UNL    H23   67  -0.467  -0.210   0.211
    1UNL    H24   68  -0.546   0.071  -0.155
    1UNL    H25   69  -0.462   0.173  -0.364
    1UNL    H26   70  -0.444   0.264  -0.024
    1UNL    H27   71  -0.389  -0.016   0.036
    1UNL    H28   72  -0.193   0.230   0.059
    1UNL    H29   73  -0.267   0.319  -0.200
    1UNL    H30   74   0.080  -0.002  -0.278
    1UNL    H31   75   0.001  -0.158  -0.241
    1UNL    H32   76   0.300  -0.124  -0.212
    1UNL    H33   77   0.605   0.103  -0.188
    1UNL    H34   78   0.843   0.131  -0.221
   0.00000   0.00000   0.00000   0.00000   0.00000   0.00000   0.00000   0.00000   0.00000
Generated with MDTraj, t= 37.0
 78
    1UNL     C1    1   1.079   0.223   0.061
    1UNL     O1    2   1.003   0.162  -0.038
    1UNL     C2    3   0.869   0.167  -0.010
    1UNL     C3    4   0.803   0.205   0.108
    1UNL     C4    5   0.667   0.211   0.120
    1UNL     C5    6   0.588   0.164   0.016
    1UNL     C6    7   0.438   0.161   0.022
    1UNL     O2    8   0.387   0.189   0.126
    1UNL     O3    9   0.375   0.132  -0.101
    1UNL     C7   10   0.234   0.137  -0.082
    1UNL     C8   11   0.182  -0.007  -0.047
    1UNL     C9   12   0.212  -0.071   0.105
    1UNL     O4   13   0.278  -0.198   0.072
    1UNL    C10   14   0.204  -0.250  -0.036
    1UNL     O5   15   0.262  -0.365  -0.096
    1UNL    C11   16   0.059  -0.275   0.014
    1UNL    C12   17  -0.004  -0.134   0.057
    1UNL    C13   18  -0.145  -0.160   0.098
    1UNL     O6   19   0.082  -0.094   0.164
    1UNL    C14   20   0.027  -0.027  -0.055
    1UNL     O7   21  -0.042   0.094  -0.042
    1UNL    C15   22  -0.165   0.101  -0.109
    1UNL     O8   23  -0.228  -0.024  -0.108
    1UNL    C16   24  -0.345  -0.020  -0.201
    1UNL    C17   25  -0.425  -0.150  -0.173
    1UNL     O9   26  -0.456  -0.166  -0.038
    1UNL    C18   27  -0.584  -0.134  -0.011
    1UNL    O10   28  -0.662  -0.100  -0.096
    1UNL    C19   29  -0.629  -0.135   0.136
    1UNL    C20   30  -0.746  -0.072   0.169
    1UNL    C21   31  -0.792  -0.088   0.301
    1UNL    C22   32  -0.711  -0.133   0.401
    1UNL    C23   33  -0.592  -0.183   0.367
    1UNL    C24   34  -0.547  -0.184   0.237
    1UNL    C25   35  -0.435   0.105  -0.173
    1UNL    O11   36  -0.421   0.198  -0.283
    1UNL    C26   37  -0.390   0.172  -0.037
    1UNL    O12   38  -0.408   0.091   0.082
    1UNL    C27   39  -0.248   0.220  -0.050
    1UNL    O13   40  -0.237   0.341  -0.123
    1UNL    C28   41   0.048  -0.093  -0.196
    1UNL    C29   42   0.192  -0.129  -0.143
    1UNL    C30   43   0.646   0.149  -0.111
    1UNL    C31   44   0.783   0.146  -0.120
    1UNL     H1   45   1.100   0.169   0.150
    1UNL     H2   46   1.178   0.227   0.014
    1UNL     H3   47   1.048   0.325   0.064
    1UNL     H4   48   0.863   0.238   0.189
    1UNL     H5   49   0.616   0.221   0.220
    1UNL     H6   50   0.202   0.207  -0.009
    1UNL     H7   51   0.193   0.171  -0.179
    1UNL     H8   52   0.285  -0.013   0.161
    1UNL     H9   53   0.340  -0.410  -0.042
    1UNL    H10   54   0.007  -0.333  -0.072
    1UNL    H11   55   0.056  -0.342   0.097
    1UNL    H12   56  -0.189  -0.069   0.136
    1UNL    H13   57  -0.149  -0.235   0.174
    1UNL    H14   58  -0.202  -0.195   0.012
    1UNL    H15   59  -0.141   0.122  -0.209
    1UNL    H16   60  -0.312  -0.011  -0.301
    1UNL    H17   61  -0.512  -0.164  -0.240
    1UNL    H18   62  -0.360  -0.235  -0.185
    1UNL    H19   63  -0.815  -0.036   0.095
    1UNL    H20   64  -0.886  -0.042   0.321
    1UNL    H21   65  -0.739  -0.127   0.507
    1UNL    H22   66  -0.531  -0.245   0.433
    1UNL    H23   67  -0.449  -0.217   0.211
    1UNL    H24   68  -0.538   0.076  -0.152
    1UNL    H25   69  -0.431   0.149  -0.362
    1UNL    H26   70  -0.460   0.256  -0.031
    1UNL    H27   71  -0.429   0.006   0.054
    1UNL    H28   72  -0.207   0.241   0.062
    1UNL    H29   73  -0.313   0.341  -0.196
    1UNL    H30   74   0.049  -0.020  -0.283
    1UNL    H31   75   0.002  -0.187  -0.219
    1UNL    H32   76   0.278  -0.120  -0.211
    1UNL    H33   77   0.571   0.141  -0.197
    1UNL    H34   78   0.818   0.118  -0.216
   0.00000   0.00000   0.00000   0.00000   0.00000   0.00000   0.00000   0.00000   0.00000
Generated with MDTraj, t= 38.0
 78
    1UNL     C1    1   1.071   0.188   0.079
    1UNL     O1    2   0.997   0.185  -0.044
    1UNL     C2    3   0.862   0.159  -0.017
    1UNL     C3    4   0.801   0.191   0.103
    1UNL     C4    5   0.666   0.182   0.110
    1UNL     C5    6   0.591   0.162  -0.005
    1UNL     C6    7   0.443   0.165   0.014
    1UNL     O2    8   0.392   0.180   0.122
    1UNL     O3    9   0.369   0.147  -0.105
    1UNL     C7   10   0.236   0.147  -0.065
    1UNL     C8   11   0.184   0.007  -0.022
    1UNL     C9   12   0.222  -0.059   0.117
    1UNL     O4   13   0.280  -0.191   0.080
    1UNL    C10   14   0.201  -0.239  -0.036
    1UNL     O5   15   0.253  -0.350  -0.107
    1UNL    C11   16   0.056  -0.264   0.025
    1UNL    C12   17   0.002  -0.130   0.080
    1UNL    C13   18  -0.141  -0.128   0.125
    1UNL     O6   19   0.095  -0.075   0.185
    1UNL    C14   20   0.024  -0.021  -0.039
    1UNL     O7   21  -0.048   0.104  -0.041
    1UNL    C15   22  -0.172   0.100  -0.112
    1UNL     O8   23  -0.244  -0.020  -0.107
    1UNL    C16   24  -0.350  -0.025  -0.194
    1UNL    C17   25  -0.414  -0.160  -0.178
    1UNL     O9   26  -0.443  -0.180  -0.043
    1UNL    C18   27  -0.572  -0.135  -0.007
    1UNL    O10   28  -0.640  -0.077  -0.092
    1UNL    C19   29  -0.620  -0.147   0.130
    1UNL    C20   30  -0.729  -0.073   0.165
    1UNL    C21   31  -0.774  -0.084   0.301
    1UNL    C22   32  -0.697  -0.147   0.390
    1UNL    C23   33  -0.591  -0.223   0.347
    1UNL    C24   34  -0.549  -0.220   0.217
    1UNL    C25   35  -0.449   0.101  -0.173
    1UNL    O11   36  -0.442   0.193  -0.286
    1UNL    C26   37  -0.408   0.181  -0.044
    1UNL    O12   38  -0.420   0.110   0.073
    1UNL    C27   39  -0.262   0.229  -0.057
    1UNL    O13   40  -0.254   0.331  -0.150
    1UNL    C28   41   0.057  -0.084  -0.180
    1UNL    C29   42   0.196  -0.113  -0.126
    1UNL    C30   43   0.650   0.117  -0.124
    1UNL    C31   44   0.785   0.119  -0.132
    1UNL     H1   45   1.048   0.112   0.148
    1UNL     H2   46   1.172   0.159   0.049
    1UNL     H3   47   1.078   0.288   0.116
    1UNL     H4   48   0.861   0.214   0.192
    1UNL     H5   49   0.616   0.199   0.200
    1UNL     H6   50   0.218   0.216   0.016
    1UNL     H7   51   0.173   0.178  -0.150
    1UNL     H8   52   0.276   0.003   0.188
    1UNL     H9   53   0.334  -0.385  -0.055
    1UNL    H10   54  -0.004  -0.312  -0.060
    1UNL    H11   55   0.050  -0.334   0.107
    1UNL    H12   56  -0.162  -0.026   0.157
    1UNL    H13   57  -0.160  -0.194   0.207
    1UNL    H14   58  -0.208  -0.148   0.041
    1UNL    H15   59  -0.157   0.115  -0.214
    1UNL    H16   60  -0.319  -0.023  -0.296
    1UNL    H17   61  -0.505  -0.180  -0.235
    1UNL    H18   62  -0.345  -0.233  -0.211
    1UNL    H19   63  -0.777   0.005   0.104
    1UNL    H20   64  -0.863  -0.036   0.343
    1UNL    H21   65  -0.729  -0.151   0.493
    1UNL    H22   66  -0.537  -0.286   0.414
    1UNL    H23   67  -0.453  -0.276   0.192
    1UNL    H24   68  -0.550   0.069  -0.150
    1UNL    H25   69  -0.454   0.144  -0.364
    1UNL    H26   70  -0.479   0.267  -0.048
    1UNL    H27   71  -0.373   0.017   0.068
    1UNL    H28   72  -0.223   0.279   0.045
    1UNL    H29   73  -0.302   0.295  -0.224
    1UNL    H30   74   0.058  -0.008  -0.265
    1UNL    H31   75   0.002  -0.171  -0.201
    1UNL    H32   76   0.285  -0.101  -0.190
    1UNL    H33   77   0.596   0.096  -0.207
    1UNL    H34   78   0.845   0.102  -0.221
   0.00000   0.00000   0.00000   0.00000   0.00000   0.00000   0.00000   0.00000   0.00000
Generated with MDTraj, t= 39.0
 78
    1UNL     C1    1   1.089   0.163   0.071
    1UNL     O1    2   1.006   0.143  -0.045
    1UNL     C2    3   0.874   0.154  -0.027
    1UNL     C3    4   0.816   0.179   0.098
    1UNL     C4    5   0.678   0.183   0.110
    1UNL     C5    6   0.596   0.170   0.002
    1UNL     C6    7   0.452   0.157   0.018
    1UNL     O2    8   0.410   0.160   0.129
    1UNL     O3    9   0.379   0.136  -0.098
    1UNL     C7   10   0.242   0.152  -0.070
    1UNL     C8   11   0.174   0.016  -0.026
    1UNL     C9   12   0.222  -0.043   0.115
    1UNL     O4   13   0.275  -0.168   0.074
    1UNL    C10   14   0.191  -0.215  -0.025
    1UNL     O5   15   0.241  -0.333  -0.091
    1UNL    C11   16   0.053  -0.250   0.045
    1UNL    C12   17   0.000  -0.107   0.090
    1UNL    C13   18  -0.138  -0.102   0.158
    1UNL     O6   19   0.102  -0.063   0.187
    1UNL    C14   20   0.016  -0.001  -0.025
    1UNL     O7   21  -0.064   0.119  -0.008
    1UNL    C15   22  -0.163   0.114  -0.103
    1UNL     O8   23  -0.236  -0.008  -0.109
    1UNL    C16   24  -0.348  -0.021  -0.202
    1UNL    C17   25  -0.419  -0.155  -0.182
    1UNL     O9   26  -0.449  -0.167  -0.049
    1UNL    C18   27  -0.583  -0.141  -0.018
    1UNL    O10   28  -0.672  -0.118  -0.101
    1UNL    C19   29  -0.621  -0.152   0.128
    1UNL    C20   30  -0.727  -0.078   0.183
    1UNL    C21   31  -0.749  -0.082   0.319
    1UNL    C22   32  -0.685  -0.178   0.390
    1UNL    C23   33  -0.590  -0.259   0.340
    1UNL    C24   34  -0.564  -0.253   0.203
    1UNL    C25   35  -0.456   0.097  -0.188
    1UNL    O11   36  -0.459   0.185  -0.306
    1UNL    C26   37  -0.408   0.175  -0.057
    1UNL    O12   38  -0.409   0.097   0.060
    1UNL    C27   39  -0.266   0.235  -0.079
    1UNL    O13   40  -0.250   0.328  -0.181
    1UNL    C28   41   0.031  -0.068  -0.167
    1UNL    C29   42   0.182  -0.100  -0.133
    1UNL    C30   43   0.655   0.140  -0.119
    1UNL    C31   44   0.790   0.124  -0.132
    1UNL     H1   45   1.087   0.076   0.132
    1UNL     H2   46   1.197   0.172   0.040
    1UNL     H3   47   1.065   0.253   0.125
    1UNL     H4   48   0.873   0.187   0.187
    1UNL     H5   49   0.622   0.191   0.207
    1UNL     H6   50   0.238   0.221   0.014
    1UNL     H7   51   0.185   0.194  -0.155
    1UNL     H8   52   0.293   0.019   0.168
    1UNL     H9   53   0.336  -0.326  -0.070
    1UNL    H10   54  -0.013  -0.307  -0.023
    1UNL    H11   55   0.081  -0.321   0.125
    1UNL    H12   56  -0.163  -0.003   0.195
    1UNL    H13   57  -0.140  -0.170   0.243
    1UNL    H14   58  -0.218  -0.126   0.090
    1UNL    H15   59  -0.127   0.114  -0.200
    1UNL    H16   60  -0.316  -0.016  -0.306
    1UNL    H17   61  -0.503  -0.173  -0.251
    1UNL    H18   62  -0.355  -0.236  -0.199
    1UNL    H19   63  -0.772   0.005   0.133
    1UNL    H20   64  -0.835  -0.023   0.354
    1UNL    H21   65  -0.706  -0.205   0.490
    1UNL    H22   66  -0.530  -0.326   0.403
    1UNL    H23   67  -0.507  -0.325   0.159
    1UNL    H24   68  -0.559   0.064  -0.166
    1UNL    H25   69  -0.485   0.134  -0.386
    1UNL    H26   70  -0.480   0.259  -0.037
    1UNL    H27   71  -0.364   0.012   0.042
    1UNL    H28   72  -0.228   0.281   0.026
    1UNL    H29   73  -0.318   0.304  -0.242
    1UNL    H30   74   0.025  -0.003  -0.257
    1UNL    H31   75  -0.040  -0.147  -0.181
    1UNL    H32   76   0.253  -0.106  -0.219
    1UNL    H33   77   0.592   0.105  -0.209
    1UNL    H34   78   0.828   0.127  -0.233
   0.00000   0.00000   0.00000   0.00000   0.00000   0.00000   0.00000   0.00000   0.00000
Generated with MDTraj, t= 40.0
 78
    1UNL     C1    1   1.109   0.143   0.051
    1UNL     O1    2   1.020   0.119  -0.051
    1UNL     C2    3   0.882   0.134  -0.028
    1UNL     C3    4   0.824   0.155   0.098
    1UNL     C4    5   0.690   0.165   0.111
    1UNL     C5    6   0.606   0.152   0.003
    1UNL     C6    7   0.456   0.170   0.020
    1UNL     O2    8   0.419   0.211   0.127
    1UNL     O3    9   0.375   0.157  -0.090
    1UNL     C7   10   0.245   0.164  -0.051
    1UNL     C8   11   0.182   0.025  -0.019
    1UNL     C9   12   0.216  -0.035   0.118
    1UNL     O4   13   0.269  -0.166   0.097
    1UNL    C10   14   0.186  -0.224  -0.012
    1UNL     O5   15   0.228  -0.353  -0.060
    1UNL    C11   16   0.042  -0.235   0.043
    1UNL    C12   17  -0.006  -0.094   0.089
    1UNL    C13   18  -0.151  -0.087   0.139
    1UNL     O6   19   0.088  -0.053   0.188
    1UNL    C14   20   0.025   0.013  -0.035
    1UNL     O7   21  -0.062   0.134  -0.037
    1UNL    C15   22  -0.177   0.127  -0.111
    1UNL     O8   23  -0.240  -0.000  -0.106
    1UNL    C16   24  -0.350  -0.018  -0.194
    1UNL    C17   25  -0.406  -0.162  -0.180
    1UNL     O9   26  -0.452  -0.192  -0.048
    1UNL    C18   27  -0.579  -0.155  -0.021
    1UNL    O10   28  -0.663  -0.119  -0.102
    1UNL    C19   29  -0.616  -0.174   0.125
    1UNL    C20   30  -0.707  -0.084   0.181
    1UNL    C21   31  -0.739  -0.096   0.314
    1UNL    C22   32  -0.677  -0.195   0.386
    1UNL    C23   33  -0.596  -0.291   0.334
    1UNL    C24   34  -0.568  -0.284   0.200
    1UNL    C25   35  -0.454   0.095  -0.181
    1UNL    O11   36  -0.475   0.169  -0.301
    1UNL    C26   37  -0.419   0.192  -0.066
    1UNL    O12   38  -0.443   0.133   0.055
    1UNL    C27   39  -0.278   0.244  -0.072
    1UNL    O13   40  -0.269   0.341  -0.177
    1UNL    C28   41   0.058  -0.053  -0.183
    1UNL    C29   42   0.194  -0.100  -0.117
    1UNL    C30   43   0.660   0.141  -0.124
    1UNL    C31   44   0.800   0.134  -0.142
    1UNL     H1   45   1.077   0.082   0.134
    1UNL     H2   46   1.214   0.104   0.021
    1UNL     H3   47   1.117   0.250   0.079
    1UNL     H4   48   0.882   0.153   0.189
    1UNL     H5   49   0.648   0.173   0.205
    1UNL     H6   50   0.238   0.220   0.042
    1UNL     H7   51   0.187   0.218  -0.131
    1UNL     H8   52   0.293   0.031   0.160
    1UNL     H9   53   0.249  -0.412   0.008
    1UNL    H10   54  -0.017  -0.281  -0.033
    1UNL    H11   55   0.048  -0.303   0.133
    1UNL    H12   56  -0.179   0.013   0.170
    1UNL    H13   57  -0.166  -0.157   0.224
    1UNL    H14   58  -0.217  -0.109   0.057
    1UNL    H15   59  -0.169   0.131  -0.215
    1UNL    H16   60  -0.301  -0.001  -0.293
    1UNL    H17   61  -0.493  -0.173  -0.248
    1UNL    H18   62  -0.335  -0.230  -0.221
    1UNL    H19   63  -0.772  -0.020   0.119
    1UNL    H20   64  -0.792  -0.027   0.373
    1UNL    H21   65  -0.698  -0.196   0.496
    1UNL    H22   66  -0.552  -0.366   0.397
    1UNL    H23   67  -0.502  -0.356   0.144
    1UNL    H24   68  -0.552   0.053  -0.148
    1UNL    H25   69  -0.508   0.099  -0.371
    1UNL    H26   70  -0.484   0.285  -0.072
    1UNL    H27   71  -0.411   0.036   0.048
    1UNL    H28   72  -0.238   0.295   0.029
    1UNL    H29   73  -0.321   0.310  -0.264
    1UNL    H30   74   0.070   0.019  -0.262
    1UNL    H31   75  -0.017  -0.129  -0.213
    1UNL    H32   76   0.277  -0.118  -0.188
    1UNL    H33   77   0.606   0.175  -0.206
    1UNL    H34   78   0.848   0.115  -0.236
   0.00000   0.00000   0.00000   0.00000   0.00000   0.00000   0.00000   0.00000   0.00000
Generated with MDTraj, t= 41.0
 78
    1UNL     C1    1   1.101   0.114   0.039
    1UNL     O1    2   1.017   0.101  -0.065
    1UNL     C2    3   0.881   0.127  -0.036
    1UNL     C3    4   0.831   0.134   0.091
    1UNL     C4    5   0.697   0.156   0.112
    1UNL     C5    6   0.607   0.152   0.004
    1UNL     C6    7   0.458   0.171   0.024
    1UNL     O2    8   0.412   0.222   0.124
    1UNL     O3    9   0.373   0.132  -0.079
    1UNL     C7   10   0.238   0.163  -0.061
    1UNL     C8   11   0.167   0.042  -0.011
    1UNL     C9   12   0.194  -0.018   0.135
    1UNL     O4   13   0.251  -0.143   0.116
    1UNL    C10   14   0.179  -0.200  -0.003
    1UNL     O5   15   0.232  -0.323  -0.046
    1UNL    C11   16   0.034  -0.218   0.052
    1UNL    C12   17  -0.026  -0.083   0.084
    1UNL    C13   18  -0.171  -0.074   0.126
    1UNL     O6   19   0.059  -0.025   0.190
    1UNL    C14   20   0.014   0.020  -0.038
    1UNL     O7   21  -0.058   0.148  -0.047
    1UNL    C15   22  -0.172   0.128  -0.125
    1UNL     O8   23  -0.232  -0.010  -0.123
    1UNL    C16   24  -0.351  -0.018  -0.210
    1UNL    C17   25  -0.397  -0.161  -0.175
    1UNL     O9   26  -0.425  -0.183  -0.037
    1UNL    C18   27  -0.555  -0.157  -0.009
    1UNL    O10   28  -0.637  -0.115  -0.089
    1UNL    C19   29  -0.601  -0.182   0.124
    1UNL    C20   30  -0.692  -0.091   0.186
    1UNL    C21   31  -0.738  -0.113   0.310
    1UNL    C22   32  -0.692  -0.225   0.383
    1UNL    C23   33  -0.601  -0.312   0.323
    1UNL    C24   34  -0.552  -0.294   0.199
    1UNL    C25   35  -0.454   0.091  -0.187
    1UNL    O11   36  -0.455   0.183  -0.292
    1UNL    C26   37  -0.416   0.176  -0.059
    1UNL    O12   38  -0.433   0.104   0.063
    1UNL    C27   39  -0.274   0.240  -0.084
    1UNL    O13   40  -0.272   0.348  -0.182
    1UNL    C28   41   0.055  -0.051  -0.175
    1UNL    C29   42   0.189  -0.080  -0.108
    1UNL    C30   43   0.655   0.136  -0.127
    1UNL    C31   44   0.793   0.122  -0.144
    1UNL     H1   45   1.094   0.020   0.094
    1UNL     H2   46   1.214   0.132   0.011
    1UNL     H3   47   1.073   0.198   0.107
    1UNL     H4   48   0.893   0.112   0.177
    1UNL     H5   49   0.649   0.147   0.213
    1UNL     H6   50   0.237   0.243   0.014
    1UNL     H7   51   0.188   0.197  -0.155
    1UNL     H8   52   0.253   0.041   0.207
    1UNL     H9   53   0.318  -0.321  -0.081
    1UNL    H10   54  -0.020  -0.275  -0.020
    1UNL    H11   55   0.047  -0.269   0.152
    1UNL    H12   56  -0.209   0.028   0.138
    1UNL    H13   57  -0.176  -0.129   0.222
    1UNL    H14   58  -0.233  -0.124   0.052
    1UNL    H15   59  -0.147   0.133  -0.228
    1UNL    H16   60  -0.317  -0.013  -0.318
    1UNL    H17   61  -0.478  -0.188  -0.249
    1UNL    H18   62  -0.314  -0.226  -0.200
    1UNL    H19   63  -0.733  -0.007   0.134
    1UNL    H20   64  -0.805  -0.046   0.371
    1UNL    H21   65  -0.708  -0.221   0.485
    1UNL    H22   66  -0.575  -0.400   0.380
    1UNL    H23   67  -0.465  -0.341   0.167
    1UNL    H24   68  -0.555   0.044  -0.185
    1UNL    H25   69  -0.487   0.142  -0.382
    1UNL    H26   70  -0.485   0.266  -0.051
    1UNL    H27   71  -0.416   0.017   0.037
    1UNL    H28   72  -0.228   0.275   0.021
    1UNL    H29   73  -0.344   0.316  -0.242
    1UNL    H30   74   0.046   0.024  -0.248
    1UNL    H31   75  -0.014  -0.138  -0.197
    1UNL    H32   76   0.282  -0.075  -0.169
    1UNL    H33   77   0.586   0.136  -0.213
    1UNL    H34   78   0.839   0.112  -0.242
   0.00000   0.00000   0.00000   0.00000   0.00000   0.00000   0.00000   0.00000   0.00000
Generated with MDTraj, t= 42.0
 78
    1UNL     C1    1   1.096   0.089   0.037
    1UNL     O1    2   1.011   0.090  -0.075
    1UNL     C2    3   0.875   0.100  -0.045
    1UNL     C3    4   0.817   0.124   0.080
    1UNL     C4    5   0.682   0.143   0.103
    1UNL     C5    6   0.596   0.152  -0.001
    1UNL     C6    7   0.449   0.170   0.021
    1UNL     O2    8   0.401   0.174   0.135
    1UNL     O3    9   0.372   0.172  -0.095
    1UNL     C7   10   0.234   0.171  -0.058
    1UNL     C8   11   0.166   0.048  -0.007
    1UNL     C9   12   0.191   0.002   0.138
    1UNL     O4   13   0.255  -0.128   0.127
    1UNL    C10   14   0.183  -0.193   0.023
    1UNL     O5   15   0.243  -0.319  -0.020
    1UNL    C11   16   0.029  -0.212   0.061
    1UNL    C12   17  -0.016  -0.061   0.094
    1UNL    C13   18  -0.163  -0.054   0.133
    1UNL     O6   19   0.069  -0.007   0.200
    1UNL    C14   20   0.015   0.031  -0.036
    1UNL     O7   21  -0.058   0.158  -0.050
    1UNL    C15   22  -0.170   0.149  -0.137
    1UNL     O8   23  -0.219   0.015  -0.137
    1UNL    C16   24  -0.339  -0.015  -0.214
    1UNL    C17   25  -0.391  -0.161  -0.177
    1UNL     O9   26  -0.424  -0.181  -0.042
    1UNL    C18   27  -0.554  -0.159  -0.012
    1UNL    O10   28  -0.639  -0.117  -0.088
    1UNL    C19   29  -0.592  -0.187   0.119
    1UNL    C20   30  -0.694  -0.110   0.185
    1UNL    C21   31  -0.733  -0.136   0.311
    1UNL    C22   32  -0.688  -0.247   0.382
    1UNL    C23   33  -0.594  -0.327   0.320
    1UNL    C24   34  -0.540  -0.291   0.197
    1UNL    C25   35  -0.448   0.087  -0.195
    1UNL    O11   36  -0.467   0.170  -0.302
    1UNL    C26   37  -0.409   0.175  -0.071
    1UNL    O12   38  -0.409   0.093   0.049
    1UNL    C27   39  -0.277   0.244  -0.086
    1UNL    O13   40  -0.296   0.368  -0.167
    1UNL    C28   41   0.060  -0.047  -0.166
    1UNL    C29   42   0.188  -0.083  -0.091
    1UNL    C30   43   0.647   0.127  -0.128
    1UNL    C31   44   0.780   0.107  -0.147
    1UNL     H1   45   1.042   0.044   0.123
    1UNL     H2   46   1.195   0.030   0.035
    1UNL     H3   47   1.124   0.192   0.067
    1UNL     H4   48   0.878   0.120   0.169
    1UNL     H5   49   0.649   0.172   0.197
    1UNL     H6   50   0.225   0.253   0.013
    1UNL     H7   51   0.184   0.206  -0.153
    1UNL     H8   52   0.255   0.076   0.193
    1UNL     H9   53   0.286  -0.355   0.061
    1UNL    H10   54  -0.025  -0.250  -0.025
    1UNL    H11   55   0.025  -0.282   0.147
    1UNL    H12   56  -0.199   0.049   0.124
    1UNL    H13   57  -0.162  -0.081   0.239
    1UNL    H14   58  -0.236  -0.119   0.081
    1UNL    H15   59  -0.139   0.180  -0.234
    1UNL    H16   60  -0.304  -0.020  -0.322
    1UNL    H17   61  -0.485  -0.174  -0.242
    1UNL    H18   62  -0.319  -0.235  -0.215
    1UNL    H19   63  -0.727  -0.023   0.124
    1UNL    H20   64  -0.823  -0.093   0.343
    1UNL    H21   65  -0.738  -0.292   0.474
    1UNL    H22   66  -0.552  -0.404   0.384
    1UNL    H23   67  -0.467  -0.357   0.145
    1UNL    H24   68  -0.545   0.033  -0.178
    1UNL    H25   69  -0.493   0.125  -0.387
    1UNL    H26   70  -0.488   0.255  -0.066
    1UNL    H27   71  -0.390  -0.005   0.012
    1UNL    H28   72  -0.235   0.295   0.015
    1UNL    H29   73  -0.343   0.353  -0.244
    1UNL    H30   74   0.071   0.020  -0.246
    1UNL    H31   75  -0.016  -0.127  -0.192
    1UNL    H32   76   0.276  -0.084  -0.158
    1UNL    H33   77   0.584   0.124  -0.220
    1UNL    H34   78   0.811   0.111  -0.249
   0.00000   0.00000   0.00000   0.00000   0.00000   0.00000   0.00000   0.00000   0.00000
Generated with MDTraj, t= 43.0
 78
    1UNL     C1    1   1.096   0.058   0.031
    1UNL     O1    2   1.002   0.071  -0.077
    1UNL     C2    3   0.862   0.083  -0.049
    1UNL     C3    4   0.814   0.112   0.074
    1UNL     C4    5   0.683   0.145   0.093
    1UNL     C5    6   0.592   0.143  -0.006
    1UNL     C6    7   0.450   0.171   0.015
    1UNL     O2    8   0.406   0.186   0.130
    1UNL     O3    9   0.367   0.176  -0.097
    1UNL     C7   10   0.233   0.195  -0.062
    1UNL     C8   11   0.177   0.065  -0.003
    1UNL     C9   12   0.195   0.017   0.145
    1UNL     O4   13   0.249  -0.116   0.147
    1UNL    C10   14   0.186  -0.178   0.034
    1UNL     O5   15   0.235  -0.304  -0.007
    1UNL    C11   16   0.037  -0.189   0.078
    1UNL    C12   17  -0.019  -0.048   0.098
    1UNL    C13   18  -0.166  -0.042   0.143
    1UNL     O6   19   0.064   0.009   0.198
    1UNL    C14   20   0.025   0.039  -0.027
    1UNL     O7   21  -0.052   0.158  -0.044
    1UNL    C15   22  -0.176   0.133  -0.124
    1UNL     O8   23  -0.225  -0.004  -0.114
    1UNL    C16   24  -0.344  -0.013  -0.193
    1UNL    C17   25  -0.395  -0.159  -0.183
    1UNL     O9   26  -0.424  -0.190  -0.054
    1UNL    C18   27  -0.556  -0.169  -0.033
    1UNL    O10   28  -0.644  -0.124  -0.105
    1UNL    C19   29  -0.594  -0.206   0.107
    1UNL    C20   30  -0.698  -0.141   0.164
    1UNL    C21   31  -0.728  -0.161   0.296
    1UNL    C22   32  -0.663  -0.256   0.376
    1UNL    C23   33  -0.560  -0.329   0.311
    1UNL    C24   34  -0.528  -0.299   0.182
    1UNL    C25   35  -0.451   0.098  -0.179
    1UNL    O11   36  -0.470   0.175  -0.293
    1UNL    C26   37  -0.418   0.195  -0.064
    1UNL    O12   38  -0.437   0.118   0.062
    1UNL    C27   39  -0.273   0.250  -0.092
    1UNL    O13   40  -0.271   0.352  -0.191
    1UNL    C28   41   0.059  -0.044  -0.154
    1UNL    C29   42   0.198  -0.070  -0.084
    1UNL    C30   43   0.638   0.119  -0.134
    1UNL    C31   44   0.772   0.089  -0.156
    1UNL     H1   45   1.099  -0.043   0.069
    1UNL     H2   46   1.199   0.092   0.004
    1UNL     H3   47   1.068   0.124   0.115
    1UNL     H4   48   0.884   0.116   0.157
    1UNL     H5   49   0.643   0.165   0.196
    1UNL     H6   50   0.232   0.284   0.002
    1UNL     H7   51   0.185   0.226  -0.161
    1UNL     H8   52   0.261   0.084   0.203
    1UNL     H9   53   0.289  -0.331   0.077
    1UNL    H10   54  -0.036  -0.227   0.002
    1UNL    H11   55   0.043  -0.244   0.170
    1UNL    H12   56  -0.190   0.065   0.131
    1UNL    H13   57  -0.184  -0.070   0.246
    1UNL    H14   58  -0.238  -0.097   0.077
    1UNL    H15   59  -0.137   0.141  -0.224
    1UNL    H16   60  -0.303  -0.000  -0.300
    1UNL    H17   61  -0.484  -0.172  -0.256
    1UNL    H18   62  -0.314  -0.223  -0.221
    1UNL    H19   63  -0.749  -0.075   0.098
    1UNL    H20   64  -0.822  -0.120   0.338
    1UNL    H21   65  -0.708  -0.297   0.459
    1UNL    H22   66  -0.507  -0.407   0.364
    1UNL    H23   67  -0.442  -0.343   0.141
    1UNL    H24   68  -0.548   0.046  -0.156
    1UNL    H25   69  -0.501   0.123  -0.363
    1UNL    H26   70  -0.496   0.273  -0.052
    1UNL    H27   71  -0.417   0.030   0.057
    1UNL    H28   72  -0.243   0.304   0.010
    1UNL    H29   73  -0.331   0.311  -0.268
    1UNL    H30   74   0.076   0.018  -0.241
    1UNL    H31   75  -0.007  -0.126  -0.192
    1UNL    H32   76   0.293  -0.073  -0.142
    1UNL    H33   77   0.569   0.129  -0.208
    1UNL    H34   78   0.815   0.067  -0.254
   0.00000   0.00000   0.00000   0.00000   0.00000   0.00000   0.00000   0.00000   0.00000
Generated with MDTraj, t= 44.0
 78
    1UNL     C1    1   1.091   0.030   0.017
    1UNL     O1    2   0.994   0.037  -0.085
    1UNL     C2    3   0.866   0.084  -0.058
    1UNL     C3    4   0.819   0.107   0.073
    1UNL     C4    5   0.688   0.132   0.098
    1UNL     C5    6   0.599   0.137  -0.010
    1UNL     C6    7   0.459   0.180   0.019
    1UNL     O2    8   0.431   0.249   0.119
    1UNL     O3    9   0.367   0.147  -0.076
    1UNL     C7   10   0.234   0.189  -0.054
    1UNL     C8   11   0.164   0.070   0.001
    1UNL     C9   12   0.194   0.026   0.153
    1UNL     O4   13   0.259  -0.098   0.150
    1UNL    C10   14   0.192  -0.173   0.042
    1UNL     O5   15   0.242  -0.301   0.001
    1UNL    C11   16   0.045  -0.190   0.103
    1UNL    C12   17  -0.017  -0.043   0.124
    1UNL    C13   18  -0.168  -0.055   0.156
    1UNL     O6   19   0.065   0.020   0.225
    1UNL    C14   20   0.006   0.042  -0.014
    1UNL     O7   21  -0.073   0.156  -0.029
    1UNL    C15   22  -0.178   0.151  -0.129
    1UNL     O8   23  -0.234   0.026  -0.127
    1UNL    C16   24  -0.337  -0.001  -0.223
    1UNL    C17   25  -0.393  -0.144  -0.187
    1UNL     O9   26  -0.418  -0.162  -0.050
    1UNL    C18   27  -0.559  -0.167  -0.029
    1UNL    O10   28  -0.638  -0.143  -0.118
    1UNL    C19   29  -0.595  -0.212   0.107
    1UNL    C20   30  -0.707  -0.162   0.160
    1UNL    C21   31  -0.747  -0.199   0.292
    1UNL    C22   32  -0.653  -0.276   0.363
    1UNL    C23   33  -0.534  -0.319   0.308
    1UNL    C24   34  -0.500  -0.289   0.178
    1UNL    C25   35  -0.459   0.102  -0.199
    1UNL    O11   36  -0.472   0.192  -0.305
    1UNL    C26   37  -0.424   0.179  -0.068
    1UNL    O12   38  -0.423   0.096   0.042
    1UNL    C27   39  -0.288   0.255  -0.091
    1UNL    O13   40  -0.301   0.348  -0.197
    1UNL    C28   41   0.048  -0.044  -0.135
    1UNL    C29   42   0.184  -0.069  -0.074
    1UNL    C30   43   0.640   0.113  -0.143
    1UNL    C31   44   0.773   0.086  -0.168
    1UNL     H1   45   1.047   0.001   0.112
    1UNL     H2   46   1.171  -0.034  -0.013
    1UNL     H3   47   1.133   0.127   0.034
    1UNL     H4   48   0.888   0.107   0.154
    1UNL     H5   49   0.654   0.133   0.197
    1UNL     H6   50   0.250   0.277   0.010
    1UNL     H7   51   0.184   0.221  -0.150
    1UNL     H8   52   0.262   0.102   0.202
    1UNL     H9   53   0.282  -0.345   0.088
    1UNL    H10   54  -0.023  -0.252   0.038
    1UNL    H11   55   0.048  -0.226   0.201
    1UNL    H12   56  -0.217   0.039   0.188
    1UNL    H13   57  -0.172  -0.128   0.237
    1UNL    H14   58  -0.223  -0.102   0.072
    1UNL    H15   59  -0.129   0.173  -0.224
    1UNL    H16   60  -0.290   0.016  -0.326
    1UNL    H17   61  -0.488  -0.171  -0.247
    1UNL    H18   62  -0.316  -0.214  -0.216
    1UNL    H19   63  -0.770  -0.102   0.094
    1UNL    H20   64  -0.832  -0.153   0.330
    1UNL    H21   65  -0.675  -0.296   0.472
    1UNL    H22   66  -0.465  -0.383   0.358
    1UNL    H23   67  -0.394  -0.280   0.146
    1UNL    H24   68  -0.560   0.049  -0.193
    1UNL    H25   69  -0.492   0.141  -0.381
    1UNL    H26   70  -0.505   0.251  -0.058
    1UNL    H27   71  -0.404  -0.005   0.012
    1UNL    H28   72  -0.265   0.340  -0.008
    1UNL    H29   73  -0.353   0.313  -0.271
    1UNL    H30   74   0.047   0.035  -0.215
    1UNL    H31   75  -0.007  -0.134  -0.153
    1UNL    H32   76   0.273  -0.072  -0.137
    1UNL    H33   77   0.561   0.122  -0.227
    1UNL    H34   78   0.794   0.051  -0.266
   0.00000   0.00000   0.00000   0.00000   0.00000   0.00000   0.00000   0.00000   0.00000
Generated with MDTraj, t= 45.0
 78
    1UNL     C1    1   1.083   0.002   0.006
    1UNL     O1    2   0.987   0.002  -0.094
    1UNL     C2    3   0.859   0.063  -0.057
    1UNL     C3    4   0.812   0.115   0.066
    1UNL     C4    5   0.681   0.150   0.085
    1UNL     C5    6   0.595   0.158  -0.023
    1UNL     C6    7   0.455   0.194   0.008
    1UNL     O2    8   0.429   0.235   0.125
    1UNL     O3    9   0.365   0.183  -0.093
    1UNL     C7   10   0.229   0.190  -0.049
    1UNL     C8   11   0.170   0.067   0.012
    1UNL     C9   12   0.194   0.031   0.161
    1UNL     O4   13   0.255  -0.101   0.158
    1UNL    C10   14   0.178  -0.171   0.051
    1UNL     O5   15   0.234  -0.293   0.021
    1UNL    C11   16   0.030  -0.179   0.110
    1UNL    C12   17  -0.021  -0.034   0.122
    1UNL    C13   18  -0.163  -0.024   0.164
    1UNL     O6   19   0.065   0.030   0.220
    1UNL    C14   20   0.017   0.049  -0.011
    1UNL     O7   21  -0.057   0.167  -0.025
    1UNL    C15   22  -0.178   0.146  -0.109
    1UNL     O8   23  -0.231   0.008  -0.109
    1UNL    C16   24  -0.334  -0.009  -0.206
    1UNL    C17   25  -0.385  -0.150  -0.215
    1UNL     O9   26  -0.414  -0.205  -0.091
    1UNL    C18   27  -0.544  -0.174  -0.035
    1UNL    O10   28  -0.628  -0.129  -0.111
    1UNL    C19   29  -0.579  -0.224   0.104
    1UNL    C20   30  -0.707  -0.198   0.140
    1UNL    C21   31  -0.750  -0.231   0.269
    1UNL    C22   32  -0.653  -0.292   0.353
    1UNL    C23   33  -0.517  -0.302   0.317
    1UNL    C24   34  -0.477  -0.265   0.187
    1UNL    C25   35  -0.458   0.101  -0.193
    1UNL    O11   36  -0.486   0.173  -0.315
    1UNL    C26   37  -0.431   0.195  -0.074
    1UNL    O12   38  -0.446   0.127   0.047
    1UNL    C27   39  -0.287   0.258  -0.085
    1UNL    O13   40  -0.281   0.365  -0.174
    1UNL    C28   41   0.049  -0.037  -0.135
    1UNL    C29   42   0.186  -0.068  -0.062
    1UNL    C30   43   0.639   0.115  -0.146
    1UNL    C31   44   0.767   0.064  -0.158
    1UNL     H1   45   1.075  -0.084   0.071
    1UNL     H2   46   1.173   0.007  -0.046
    1UNL     H3   47   1.075   0.091   0.062
    1UNL     H4   48   0.884   0.103   0.145
    1UNL     H5   49   0.645   0.204   0.175
    1UNL     H6   50   0.220   0.268   0.027
    1UNL     H7   51   0.186   0.227  -0.146
    1UNL     H8   52   0.270   0.099   0.210
    1UNL     H9   53   0.298  -0.315   0.101
    1UNL    H10   54  -0.043  -0.225   0.040
    1UNL    H11   55   0.030  -0.232   0.202
    1UNL    H12   56  -0.176   0.086   0.175
    1UNL    H13   57  -0.194  -0.074   0.258
    1UNL    H14   58  -0.221  -0.063   0.079
    1UNL    H15   59  -0.126   0.163  -0.205
    1UNL    H16   60  -0.281   0.016  -0.303
    1UNL    H17   61  -0.478  -0.152  -0.277
    1UNL    H18   62  -0.309  -0.212  -0.259
    1UNL    H19   63  -0.774  -0.148   0.070
    1UNL    H20   64  -0.859  -0.214   0.293
    1UNL    H21   65  -0.679  -0.319   0.451
    1UNL    H22   66  -0.438  -0.309   0.393
    1UNL    H23   67  -0.375  -0.277   0.161
    1UNL    H24   68  -0.549   0.040  -0.168
    1UNL    H25   69  -0.522   0.112  -0.385
    1UNL    H26   70  -0.512   0.265  -0.050
    1UNL    H27   71  -0.430   0.037   0.039
    1UNL    H28   72  -0.266   0.300   0.025
    1UNL    H29   73  -0.319   0.331  -0.249
    1UNL    H30   74   0.055   0.035  -0.222
    1UNL    H31   75  -0.015  -0.120  -0.149
    1UNL    H32   76   0.275  -0.082  -0.125
    1UNL    H33   77   0.574   0.115  -0.224
    1UNL    H34   78   0.799   0.034  -0.259
   0.00000   0.00000   0.00000   0.00000   0.00000   0.00000   0.00000   0.00000   0.00000
Generated with MDTraj, t= 46.0
 78
    1UNL     C1    1   1.055  -0.011   0.010
    1UNL     O1    2   0.962   0.004  -0.100
    1UNL     C2    3   0.838   0.052  -0.066
    1UNL     C3    4   0.808   0.108   0.058
    1UNL     C4    5   0.680   0.153   0.077
    1UNL     C5    6   0.578   0.141  -0.021
    1UNL     C6    7   0.447   0.182   0.012
    1UNL     O2    8   0.416   0.209   0.129
    1UNL     O3    9   0.364   0.181  -0.092
    1UNL     C7   10   0.225   0.196  -0.061
    1UNL     C8   11   0.160   0.077   0.009
    1UNL     C9   12   0.196   0.042   0.157
    1UNL     O4   13   0.248  -0.091   0.163
    1UNL    C10   14   0.171  -0.160   0.061
    1UNL     O5   15   0.235  -0.285   0.028
    1UNL    C11   16   0.022  -0.172   0.114
    1UNL    C12   17  -0.019  -0.019   0.125
    1UNL    C13   18  -0.166  -0.002   0.172
    1UNL     O6   19   0.065   0.045   0.218
    1UNL    C14   20   0.010   0.056  -0.011
    1UNL     O7   21  -0.059   0.177  -0.029
    1UNL    C15   22  -0.170   0.155  -0.108
    1UNL     O8   23  -0.215   0.021  -0.103
    1UNL    C16   24  -0.319  -0.008  -0.205
    1UNL    C17   25  -0.366  -0.154  -0.203
    1UNL     O9   26  -0.398  -0.197  -0.074
    1UNL    C18   27  -0.532  -0.174  -0.045
    1UNL    O10   28  -0.614  -0.122  -0.116
    1UNL    C19   29  -0.573  -0.226   0.094
    1UNL    C20   30  -0.709  -0.236   0.123
    1UNL    C21   31  -0.740  -0.267   0.254
    1UNL    C22   32  -0.640  -0.295   0.345
    1UNL    C23   33  -0.503  -0.282   0.319
    1UNL    C24   34  -0.475  -0.258   0.180
    1UNL    C25   35  -0.436   0.100  -0.190
    1UNL    O11   36  -0.444   0.178  -0.307
    1UNL    C26   37  -0.423   0.187  -0.063
    1UNL    O12   38  -0.440   0.126   0.055
    1UNL    C27   39  -0.285   0.253  -0.073
    1UNL    O13   40  -0.290   0.354  -0.173
    1UNL    C28   41   0.042  -0.031  -0.131
    1UNL    C29   42   0.180  -0.059  -0.065
    1UNL    C30   43   0.614   0.098  -0.148
    1UNL    C31   44   0.739   0.043  -0.166
    1UNL     H1   45   1.012  -0.067   0.094
    1UNL     H2   46   1.139  -0.055  -0.033
    1UNL     H3   47   1.085   0.086   0.045
    1UNL     H4   48   0.884   0.135   0.129
    1UNL     H5   49   0.652   0.194   0.172
    1UNL     H6   50   0.218   0.295  -0.012
    1UNL     H7   51   0.177   0.201  -0.161
    1UNL     H8   52   0.267   0.118   0.198
    1UNL     H9   53   0.335  -0.275   0.051
    1UNL    H10   54  -0.040  -0.218   0.039
    1UNL    H11   55   0.014  -0.230   0.205
    1UNL    H12   56  -0.188   0.106   0.174
    1UNL    H13   57  -0.181  -0.035   0.278
    1UNL    H14   58  -0.240  -0.052   0.108
    1UNL    H15   59  -0.136   0.187  -0.211
    1UNL    H16   60  -0.266   0.007  -0.301
    1UNL    H17   61  -0.451  -0.184  -0.266
    1UNL    H18   62  -0.283  -0.213  -0.228
    1UNL    H19   63  -0.778  -0.211   0.047
    1UNL    H20   64  -0.838  -0.299   0.269
    1UNL    H21   65  -0.672  -0.340   0.441
    1UNL    H22   66  -0.418  -0.294   0.383
    1UNL    H23   67  -0.372  -0.252   0.140
    1UNL    H24   68  -0.530   0.037  -0.188
    1UNL    H25   69  -0.468   0.122  -0.392
    1UNL    H26   70  -0.506   0.261  -0.070
    1UNL    H27   71  -0.482   0.047   0.041
    1UNL    H28   72  -0.253   0.324   0.017
    1UNL    H29   73  -0.339   0.321  -0.258
    1UNL    H30   74   0.043   0.038  -0.221
    1UNL    H31   75  -0.015  -0.117  -0.157
    1UNL    H32   76   0.270  -0.073  -0.126
    1UNL    H33   77   0.535   0.101  -0.228
    1UNL    H34   78   0.768   0.009  -0.260
   0.00000   0.00000   0.00000   0.00000   0.00000   0.00000   0.00000   0.00000   0.00000
Generated with MDTraj, t= 47.0
 78
    1UNL     C1    1   1.059  -0.031  -0.000
    1UNL     O1    2   0.970   0.007  -0.108
    1UNL     C2    3   0.838   0.037  -0.071
    1UNL     C3    4   0.804   0.097   0.056
    1UNL     C4    5   0.673   0.138   0.080
    1UNL     C5    6   0.580   0.134  -0.021
    1UNL     C6    7   0.447   0.185   0.006
    1UNL     O2    8   0.426   0.228   0.119
    1UNL     O3    9   0.357   0.176  -0.094
    1UNL     C7   10   0.222   0.212  -0.059
    1UNL     C8   11   0.167   0.090   0.015
    1UNL     C9   12   0.193   0.053   0.168
    1UNL     O4   13   0.244  -0.079   0.177
    1UNL    C10   14   0.176  -0.155   0.064
    1UNL     O5   15   0.223  -0.286   0.030
    1UNL    C11   16   0.025  -0.154   0.116
    1UNL    C12   17  -0.028  -0.012   0.138
    1UNL    C13   18  -0.172  -0.016   0.183
    1UNL     O6   19   0.060   0.050   0.236
    1UNL    C14   20   0.015   0.067   0.000
    1UNL     O7   21  -0.063   0.182  -0.032
    1UNL    C15   22  -0.176   0.169  -0.119
    1UNL     O8   23  -0.223   0.033  -0.132
    1UNL    C16   24  -0.328   0.001  -0.228
    1UNL    C17   25  -0.349  -0.145  -0.194
    1UNL     O9   26  -0.380  -0.168  -0.052
    1UNL    C18   27  -0.516  -0.181  -0.036
    1UNL    O10   28  -0.598  -0.162  -0.120
    1UNL    C19   29  -0.560  -0.221   0.102
    1UNL    C20   30  -0.693  -0.241   0.129
    1UNL    C21   31  -0.733  -0.301   0.242
    1UNL    C22   32  -0.649  -0.311   0.351
    1UNL    C23   33  -0.510  -0.292   0.325
    1UNL    C24   34  -0.469  -0.249   0.197
    1UNL    C25   35  -0.441   0.110  -0.216
    1UNL    O11   36  -0.451   0.201  -0.327
    1UNL    C26   37  -0.430   0.180  -0.077
    1UNL    O12   38  -0.437   0.098   0.039
    1UNL    C27   39  -0.295   0.260  -0.079
    1UNL    O13   40  -0.305   0.378  -0.157
    1UNL    C28   41   0.048  -0.025  -0.123
    1UNL    C29   42   0.182  -0.054  -0.060
    1UNL    C30   43   0.608   0.064  -0.140
    1UNL    C31   44   0.735   0.026  -0.169
    1UNL     H1   45   1.002  -0.098   0.072
    1UNL     H2   46   1.138  -0.077  -0.055
    1UNL     H3   47   1.092   0.057   0.056
    1UNL     H4   48   0.878   0.110   0.132
    1UNL     H5   49   0.650   0.176   0.178
    1UNL     H6   50   0.222   0.299   0.009
    1UNL     H7   51   0.157   0.227  -0.146
    1UNL     H8   52   0.259   0.125   0.220
    1UNL     H9   53   0.323  -0.278   0.040
    1UNL    H10   54  -0.040  -0.210   0.056
    1UNL    H11   55   0.027  -0.208   0.212
    1UNL    H12   56  -0.227   0.079   0.171
    1UNL    H13   57  -0.181  -0.046   0.291
    1UNL    H14   58  -0.222  -0.095   0.125
    1UNL    H15   59  -0.140   0.196  -0.224
    1UNL    H16   60  -0.282   0.012  -0.324
    1UNL    H17   61  -0.441  -0.179  -0.242
    1UNL    H18   62  -0.268  -0.205  -0.222
    1UNL    H19   63  -0.761  -0.240   0.043
    1UNL    H20   64  -0.842  -0.321   0.250
    1UNL    H21   65  -0.680  -0.369   0.435
    1UNL    H22   66  -0.439  -0.325   0.398
    1UNL    H23   67  -0.368  -0.217   0.175
    1UNL    H24   68  -0.533   0.049  -0.223
    1UNL    H25   69  -0.476   0.155  -0.417
    1UNL    H26   70  -0.521   0.243  -0.061
    1UNL    H27   71  -0.385   0.007   0.017
    1UNL    H28   72  -0.277   0.288   0.036
    1UNL    H29   73  -0.355   0.336  -0.241
    1UNL    H30   74   0.048   0.040  -0.212
    1UNL    H31   75  -0.020  -0.110  -0.137
    1UNL    H32   76   0.277  -0.050  -0.116
    1UNL    H33   77   0.529   0.063  -0.212
    1UNL    H34   78   0.754  -0.052  -0.247
   0.00000   0.00000   0.00000   0.00000   0.00000   0.00000   0.00000   0.00000   0.00000
Generated with MDTraj, t= 48.0
 78
    1UNL     C1    1   1.067  -0.031  -0.011
    1UNL     O1    2   0.961  -0.051  -0.104
    1UNL     C2    3   0.842   0.024  -0.077
    1UNL     C3    4   0.813   0.081   0.051
    1UNL     C4    5   0.690   0.140   0.078
    1UNL     C5    6   0.593   0.132  -0.021
    1UNL     C6    7   0.458   0.190   0.012
    1UNL     O2    8   0.432   0.231   0.126
    1UNL     O3    9   0.369   0.176  -0.090
    1UNL     C7   10   0.238   0.215  -0.055
    1UNL     C8   11   0.164   0.097   0.017
    1UNL     C9   12   0.188   0.068   0.174
    1UNL     O4   13   0.239  -0.064   0.178
    1UNL    C10   14   0.170  -0.138   0.075
    1UNL     O5   15   0.220  -0.268   0.039
    1UNL    C11   16   0.020  -0.140   0.115
    1UNL    C12   17  -0.028   0.002   0.132
    1UNL    C13   18  -0.182   0.006   0.159
    1UNL     O6   19   0.056   0.062   0.230
    1UNL    C14   20   0.011   0.080   0.003
    1UNL     O7   21  -0.067   0.195  -0.029
    1UNL    C15   22  -0.176   0.171  -0.105
    1UNL     O8   23  -0.221   0.034  -0.111
    1UNL    C16   24  -0.323   0.002  -0.215
    1UNL    C17   25  -0.352  -0.140  -0.195
    1UNL     O9   26  -0.388  -0.183  -0.063
    1UNL    C18   27  -0.527  -0.201  -0.049
    1UNL    O10   28  -0.611  -0.188  -0.133
    1UNL    C19   29  -0.562  -0.245   0.085
    1UNL    C20   30  -0.693  -0.267   0.124
    1UNL    C21   31  -0.737  -0.305   0.249
    1UNL    C22   32  -0.643  -0.314   0.350
    1UNL    C23   33  -0.507  -0.302   0.315
    1UNL    C24   34  -0.466  -0.266   0.188
    1UNL    C25   35  -0.446   0.101  -0.209
    1UNL    O11   36  -0.461   0.177  -0.319
    1UNL    C26   37  -0.438   0.194  -0.079
    1UNL    O12   38  -0.441   0.117   0.039
    1UNL    C27   39  -0.297   0.263  -0.069
    1UNL    O13   40  -0.301   0.376  -0.150
    1UNL    C28   41   0.043  -0.011  -0.126
    1UNL    C29   42   0.177  -0.043  -0.055
    1UNL    C30   43   0.625   0.082  -0.149
    1UNL    C31   44   0.745   0.027  -0.176
    1UNL     H1   45   1.046  -0.097   0.082
    1UNL     H2   46   1.152  -0.064  -0.072
    1UNL     H3   47   1.080   0.075   0.022
    1UNL     H4   48   0.891   0.088   0.128
    1UNL     H5   49   0.663   0.199   0.168
    1UNL     H6   50   0.228   0.304   0.008
    1UNL     H7   51   0.189   0.229  -0.150
    1UNL     H8   52   0.258   0.140   0.219
    1UNL     H9   53   0.314  -0.273   0.067
    1UNL    H10   54  -0.041  -0.197   0.052
    1UNL    H11   55   0.021  -0.202   0.207
    1UNL    H12   56  -0.214   0.110   0.179
    1UNL    H13   57  -0.211  -0.055   0.247
    1UNL    H14   58  -0.243  -0.031   0.074
    1UNL    H15   59  -0.149   0.192  -0.215
    1UNL    H16   60  -0.276   0.017  -0.308
    1UNL    H17   61  -0.430  -0.180  -0.263
    1UNL    H18   62  -0.264  -0.198  -0.207
    1UNL    H19   63  -0.769  -0.242   0.054
    1UNL    H20   64  -0.837  -0.340   0.261
    1UNL    H21   65  -0.679  -0.322   0.453
    1UNL    H22   66  -0.438  -0.317   0.395
    1UNL    H23   67  -0.370  -0.239   0.162
    1UNL    H24   68  -0.536   0.039  -0.205
    1UNL    H25   69  -0.496   0.123  -0.396
    1UNL    H26   70  -0.514   0.278  -0.075
    1UNL    H27   71  -0.404   0.033   0.019
    1UNL    H28   72  -0.267   0.312   0.036
    1UNL    H29   73  -0.322   0.351  -0.235
    1UNL    H30   74   0.042   0.052  -0.213
    1UNL    H31   75  -0.038  -0.090  -0.124
    1UNL    H32   76   0.263  -0.042  -0.124
    1UNL    H33   77   0.539   0.063  -0.211
    1UNL    H34   78   0.774  -0.001  -0.272
   0.00000   0.00000   0.00000   0.00000   0.00000   0.00000   0.00000   0.00000   0.00000
Generated with MDTraj, t= 49.0
 78
    1UNL     C1    1   1.073  -0.033  -0.020
    1UNL     O1    2   0.958  -0.066  -0.100
    1UNL     C2    3   0.845   0.007  -0.075
    1UNL     C3    4   0.814   0.063   0.049
    1UNL     C4    5   0.691   0.121   0.074
    1UNL     C5    6   0.588   0.127  -0.023
    1UNL     C6    7   0.463   0.187   0.019
    1UNL     O2    8   0.442   0.222   0.133
    1UNL     O3    9   0.375   0.206  -0.081
    1UNL     C7   10   0.241   0.226  -0.044
    1UNL     C8   11   0.164   0.109   0.020
    1UNL     C9   12   0.197   0.079   0.165
    1UNL     O4   13   0.245  -0.059   0.171
    1UNL    C10   14   0.164  -0.135   0.076
    1UNL     O5   15   0.227  -0.259   0.050
    1UNL    C11   16   0.018  -0.133   0.123
    1UNL    C12   17  -0.021   0.012   0.128
    1UNL    C13   18  -0.167   0.049   0.163
    1UNL     O6   19   0.068   0.080   0.224
    1UNL    C14   20   0.011   0.088  -0.006
    1UNL     O7   21  -0.061   0.206  -0.039
    1UNL    C15   22  -0.179   0.174  -0.109
    1UNL     O8   23  -0.221   0.031  -0.115
    1UNL    C16   24  -0.324  -0.000  -0.209
    1UNL    C17   25  -0.358  -0.144  -0.201
    1UNL     O9   26  -0.405  -0.174  -0.063
    1UNL    C18   27  -0.537  -0.204  -0.052
    1UNL    O10   28  -0.615  -0.211  -0.145
    1UNL    C19   29  -0.570  -0.254   0.082
    1UNL    C20   30  -0.707  -0.273   0.115
    1UNL    C21   31  -0.736  -0.299   0.246
    1UNL    C22   32  -0.641  -0.333   0.339
    1UNL    C23   33  -0.506  -0.315   0.309
    1UNL    C24   34  -0.473  -0.278   0.182
    1UNL    C25   35  -0.444   0.102  -0.197
    1UNL    O11   36  -0.459   0.181  -0.311
    1UNL    C26   37  -0.430   0.183  -0.061
    1UNL    O12   38  -0.440   0.109   0.068
    1UNL    C27   39  -0.305   0.263  -0.076
    1UNL    O13   40  -0.329   0.360  -0.174
    1UNL    C28   41   0.047  -0.009  -0.120
    1UNL    C29   42   0.181  -0.035  -0.048
    1UNL    C30   43   0.618   0.077  -0.148
    1UNL    C31   44   0.747   0.031  -0.173
    1UNL     H1   45   1.047  -0.061   0.090
    1UNL     H2   46   1.150  -0.098  -0.067
    1UNL     H3   47   1.103   0.076  -0.024
    1UNL     H4   48   0.884   0.064   0.129
    1UNL     H5   49   0.684   0.186   0.156
    1UNL     H6   50   0.236   0.315   0.020
    1UNL     H7   51   0.190   0.242  -0.136
    1UNL     H8   52   0.267   0.139   0.222
    1UNL     H9   53   0.316  -0.238   0.080
    1UNL    H10   54  -0.037  -0.205   0.066
    1UNL    H11   55   0.013  -0.176   0.223
    1UNL    H12   56  -0.188   0.157   0.173
    1UNL    H13   57  -0.194  -0.004   0.255
    1UNL    H14   58  -0.235   0.011   0.083
    1UNL    H15   59  -0.161   0.195  -0.222
    1UNL    H16   60  -0.284   0.019  -0.303
    1UNL    H17   61  -0.444  -0.175  -0.267
    1UNL    H18   62  -0.273  -0.207  -0.219
    1UNL    H19   63  -0.781  -0.244   0.040
    1UNL    H20   64  -0.841  -0.315   0.279
    1UNL    H21   65  -0.672  -0.360   0.440
    1UNL    H22   66  -0.429  -0.315   0.389
    1UNL    H23   67  -0.363  -0.288   0.146
    1UNL    H24   68  -0.537   0.048  -0.194
    1UNL    H25   69  -0.487   0.130  -0.385
    1UNL    H26   70  -0.519   0.251  -0.059
    1UNL    H27   71  -0.424   0.008   0.046
    1UNL    H28   72  -0.275   0.305   0.030
    1UNL    H29   73  -0.346   0.323  -0.258
    1UNL    H30   74   0.055   0.040  -0.212
    1UNL    H31   75  -0.016  -0.106  -0.121
    1UNL    H32   76   0.263  -0.045  -0.120
    1UNL    H33   77   0.546   0.082  -0.233
    1UNL    H34   78   0.770  -0.009  -0.274
   0.00000   0.00000   0.00000   0.00000   0.00000   0.00000   0.00000   0.00000   0.00000
Generated with MDTraj, t= 50.0
 78
    1UNL     C1    1   1.068  -0.055  -0.021
    1UNL     O1    2   0.967  -0.032  -0.120
    1UNL     C2    3   0.836   0.013  -0.074
    1UNL     C3    4   0.800   0.043   0.061
    1UNL     C4    5   0.683   0.112   0.084
    1UNL     C5    6   0.582   0.116  -0.012
    1UNL     C6    7   0.457   0.183   0.013
    1UNL     O2    8   0.436   0.233   0.118
    1UNL     O3    9   0.374   0.185  -0.095
    1UNL     C7   10   0.245   0.222  -0.061
    1UNL     C8   11   0.167   0.117   0.019
    1UNL     C9   12   0.199   0.091   0.172
    1UNL     O4   13   0.250  -0.042   0.175
    1UNL    C10   14   0.177  -0.120   0.073
    1UNL     O5   15   0.230  -0.250   0.046
    1UNL    C11   16   0.034  -0.118   0.126
    1UNL    C12   17  -0.018   0.024   0.138
    1UNL    C13   18  -0.164   0.035   0.194
    1UNL     O6   19   0.068   0.093   0.235
    1UNL    C14   20   0.009   0.096  -0.006
    1UNL     O7   21  -0.062   0.210  -0.049
    1UNL    C15   22  -0.176   0.176  -0.128
    1UNL     O8   23  -0.214   0.036  -0.129
    1UNL    C16   24  -0.320   0.005  -0.219
    1UNL    C17   25  -0.356  -0.144  -0.199
    1UNL     O9   26  -0.391  -0.177  -0.054
    1UNL    C18   27  -0.521  -0.207  -0.045
    1UNL    O10   28  -0.598  -0.202  -0.142
    1UNL    C19   29  -0.570  -0.259   0.090
    1UNL    C20   30  -0.709  -0.264   0.114
    1UNL    C21   31  -0.755  -0.305   0.237
    1UNL    C22   32  -0.659  -0.348   0.330
    1UNL    C23   33  -0.524  -0.332   0.311
    1UNL    C24   34  -0.479  -0.288   0.190
    1UNL    C25   35  -0.453   0.091  -0.195
    1UNL    O11   36  -0.485   0.177  -0.304
    1UNL    C26   37  -0.428   0.177  -0.064
    1UNL    O12   38  -0.415   0.094   0.053
    1UNL    C27   39  -0.299   0.262  -0.077
    1UNL    O13   40  -0.314   0.373  -0.159
    1UNL    C28   41   0.052   0.001  -0.121
    1UNL    C29   42   0.184  -0.021  -0.052
    1UNL    C30   43   0.602   0.059  -0.135
    1UNL    C31   44   0.732   0.012  -0.164
    1UNL     H1   45   1.036  -0.151   0.027
    1UNL     H2   46   1.160  -0.064  -0.079
    1UNL     H3   47   1.075   0.026   0.057
    1UNL     H4   48   0.885   0.044   0.129
    1UNL     H5   49   0.660   0.150   0.187
    1UNL     H6   50   0.251   0.310   0.005
    1UNL     H7   51   0.189   0.242  -0.150
    1UNL     H8   52   0.263   0.162   0.222
    1UNL     H9   53   0.321  -0.239   0.049
    1UNL    H10   54  -0.027  -0.189   0.069
    1UNL    H11   55   0.028  -0.166   0.223
    1UNL    H12   56  -0.206   0.135   0.164
    1UNL    H13   57  -0.176   0.021   0.304
    1UNL    H14   58  -0.229  -0.034   0.141
    1UNL    H15   59  -0.171   0.206  -0.241
    1UNL    H16   60  -0.288   0.025  -0.317
    1UNL    H17   61  -0.436  -0.193  -0.263
    1UNL    H18   62  -0.262  -0.198  -0.213
    1UNL    H19   63  -0.774  -0.247   0.029
    1UNL    H20   64  -0.857  -0.294   0.266
    1UNL    H21   65  -0.679  -0.403   0.421
    1UNL    H22   66  -0.457  -0.370   0.383
    1UNL    H23   67  -0.381  -0.276   0.175
    1UNL    H24   68  -0.532   0.017  -0.187
    1UNL    H25   69  -0.538   0.130  -0.363
    1UNL    H26   70  -0.513   0.248  -0.051
    1UNL    H27   71  -0.389   0.010   0.024
    1UNL    H28   72  -0.267   0.304   0.028
    1UNL    H29   73  -0.391   0.354  -0.231
    1UNL    H30   74   0.050   0.052  -0.216
    1UNL    H31   75  -0.020  -0.086  -0.137
    1UNL    H32   76   0.280  -0.024  -0.106
    1UNL    H33   77   0.526   0.060  -0.205
    1UNL    H34   78   0.751  -0.044  -0.253
   0.00000   0.00000   0.00000   0.00000   0.00000   0.00000   0.00000   0.00000   0.00000
Generated with MDTraj, t= 51.0
 78
    1UNL     C1    1   1.049  -0.064   0.003
    1UNL     O1    2   0.957  -0.046  -0.105
    1UNL     C2    3   0.832   0.006  -0.075
    1UNL     C3    4   0.799   0.051   0.052
    1UNL     C4    5   0.683   0.122   0.076
    1UNL     C5    6   0.593   0.128  -0.033
    1UNL     C6    7   0.455   0.182   0.001
    1UNL     O2    8   0.428   0.231   0.107
    1UNL     O3    9   0.371   0.182  -0.109
    1UNL     C7   10   0.242   0.225  -0.077
    1UNL     C8   11   0.173   0.111   0.008
    1UNL     C9   12   0.199   0.098   0.164
    1UNL     O4   13   0.255  -0.031   0.180
    1UNL    C10   14   0.185  -0.119   0.086
    1UNL     O5   15   0.241  -0.252   0.074
    1UNL    C11   16   0.037  -0.123   0.130
    1UNL    C12   17  -0.026   0.025   0.129
    1UNL    C13   18  -0.172   0.012   0.175
    1UNL     O6   19   0.065   0.093   0.222
    1UNL    C14   20   0.015   0.098  -0.010
    1UNL     O7   21  -0.064   0.209  -0.037
    1UNL    C15   22  -0.188   0.172  -0.104
    1UNL     O8   23  -0.221   0.033  -0.098
    1UNL    C16   24  -0.315   0.001  -0.194
    1UNL    C17   25  -0.337  -0.149  -0.186
    1UNL     O9   26  -0.376  -0.183  -0.051
    1UNL    C18   27  -0.510  -0.199  -0.046
    1UNL    O10   28  -0.583  -0.154  -0.137
    1UNL    C19   29  -0.565  -0.257   0.079
    1UNL    C20   30  -0.702  -0.262   0.099
    1UNL    C21   31  -0.762  -0.312   0.220
    1UNL    C22   32  -0.670  -0.347   0.319
    1UNL    C23   33  -0.538  -0.339   0.298
    1UNL    C24   34  -0.482  -0.292   0.185
    1UNL    C25   35  -0.449   0.085  -0.178
    1UNL    O11   36  -0.468   0.168  -0.292
    1UNL    C26   37  -0.439   0.180  -0.052
    1UNL    O12   38  -0.435   0.092   0.057
    1UNL    C27   39  -0.310   0.269  -0.069
    1UNL    O13   40  -0.326   0.371  -0.161
    1UNL    C28   41   0.052  -0.003  -0.125
    1UNL    C29   42   0.186  -0.030  -0.055
    1UNL    C30   43   0.622   0.076  -0.158
    1UNL    C31   44   0.738   0.011  -0.185
    1UNL     H1   45   0.990  -0.092   0.088
    1UNL     H2   46   1.120  -0.140  -0.024
    1UNL     H3   47   1.099   0.031   0.026
    1UNL     H4   48   0.866   0.038   0.135
    1UNL     H5   49   0.665   0.171   0.166
    1UNL     H6   50   0.235   0.322  -0.024
    1UNL     H7   51   0.198   0.237  -0.174
    1UNL     H8   52   0.264   0.182   0.187
    1UNL     H9   53   0.314  -0.263   0.129
    1UNL    H10   54  -0.016  -0.199   0.068
    1UNL    H11   55   0.034  -0.173   0.223
    1UNL    H12   56  -0.210   0.112   0.206
    1UNL    H13   57  -0.186  -0.060   0.259
    1UNL    H14   58  -0.233  -0.014   0.090
    1UNL    H15   59  -0.164   0.186  -0.218
    1UNL    H16   60  -0.276   0.039  -0.286
    1UNL    H17   61  -0.420  -0.185  -0.252
    1UNL    H18   62  -0.242  -0.203  -0.201
    1UNL    H19   63  -0.762  -0.217   0.022
    1UNL    H20   64  -0.869  -0.312   0.239
    1UNL    H21   65  -0.702  -0.388   0.415
    1UNL    H22   66  -0.465  -0.388   0.364
    1UNL    H23   67  -0.375  -0.252   0.187
    1UNL    H24   68  -0.540   0.026  -0.164
    1UNL    H25   69  -0.502   0.122  -0.371
    1UNL    H26   70  -0.521   0.252  -0.039
    1UNL    H27   71  -0.395   0.004   0.025
    1UNL    H28   72  -0.273   0.319   0.030
    1UNL    H29   73  -0.348   0.332  -0.251
    1UNL    H30   74   0.068   0.056  -0.219
    1UNL    H31   75  -0.022  -0.083  -0.136
    1UNL    H32   76   0.266  -0.036  -0.130
    1UNL    H33   77   0.535   0.069  -0.231
    1UNL    H34   78   0.750  -0.035  -0.282
   0.00000   0.00000   0.00000   0.00000   0.00000   0.00000   0.00000   0.00000   0.00000
Generated with MDTraj, t= 52.0
 78
    1UNL     C1    1   1.042  -0.081   0.017
    1UNL     O1    2   0.947  -0.077  -0.088
    1UNL     C2    3   0.828   0.001  -0.068
    1UNL     C3    4   0.795   0.073   0.045
    1UNL     C4    5   0.671   0.137   0.051
    1UNL     C5    6   0.590   0.153  -0.057
    1UNL     C6    7   0.460   0.207  -0.019
    1UNL     O2    8   0.440   0.251   0.090
    1UNL     O3    9   0.360   0.193  -0.112
    1UNL     C7   10   0.231   0.233  -0.060
    1UNL     C8   11   0.173   0.111   0.014
    1UNL     C9   12   0.209   0.093   0.171
    1UNL     O4   13   0.265  -0.041   0.180
    1UNL    C10   14   0.187  -0.120   0.082
    1UNL     O5   15   0.240  -0.250   0.054
    1UNL    C11   16   0.045  -0.129   0.152
    1UNL    C12   17  -0.010   0.017   0.146
    1UNL    C13   18  -0.154   0.028   0.186
    1UNL     O6   19   0.080   0.090   0.234
    1UNL    C14   20   0.015   0.082   0.000
    1UNL     O7   21  -0.070   0.198  -0.028
    1UNL    C15   22  -0.181   0.169  -0.117
    1UNL     O8   23  -0.214   0.031  -0.116
    1UNL    C16   24  -0.313  -0.008  -0.205
    1UNL    C17   25  -0.358  -0.156  -0.190
    1UNL     O9   26  -0.389  -0.175  -0.058
    1UNL    C18   27  -0.524  -0.186  -0.045
    1UNL    O10   28  -0.603  -0.169  -0.140
    1UNL    C19   29  -0.577  -0.241   0.083
    1UNL    C20   30  -0.713  -0.257   0.097
    1UNL    C21   31  -0.766  -0.316   0.218
    1UNL    C22   32  -0.680  -0.358   0.323
    1UNL    C23   33  -0.545  -0.354   0.300
    1UNL    C24   34  -0.498  -0.284   0.190
    1UNL    C25   35  -0.433   0.084  -0.188
    1UNL    O11   36  -0.439   0.178  -0.299
    1UNL    C26   37  -0.431   0.166  -0.054
    1UNL    O12   38  -0.452   0.088   0.065
    1UNL    C27   39  -0.299   0.254  -0.070
    1UNL    O13   40  -0.309   0.372  -0.145
    1UNL    C28   41   0.048  -0.017  -0.112
    1UNL    C29   42   0.188  -0.032  -0.051
    1UNL    C30   43   0.632   0.096  -0.176
    1UNL    C31   44   0.752   0.028  -0.183
    1UNL     H1   45   1.002  -0.138   0.094
    1UNL     H2   46   1.137  -0.116  -0.016
    1UNL     H3   47   1.053   0.019   0.054
    1UNL     H4   48   0.865   0.070   0.127
    1UNL     H5   49   0.648   0.190   0.148
    1UNL     H6   50   0.248   0.328  -0.002
    1UNL     H7   51   0.163   0.261  -0.140
    1UNL     H8   52   0.279   0.163   0.217
    1UNL     H9   53   0.292  -0.269   0.130
    1UNL    H10   54  -0.014  -0.209   0.101
    1UNL    H11   55   0.055  -0.166   0.251
    1UNL    H12   56  -0.193   0.118   0.139
    1UNL    H13   57  -0.182   0.030   0.295
    1UNL    H14   58  -0.210  -0.049   0.129
    1UNL    H15   59  -0.158   0.196  -0.229
    1UNL    H16   60  -0.267   0.005  -0.302
    1UNL    H17   61  -0.450  -0.166  -0.251
    1UNL    H18   62  -0.283  -0.235  -0.209
    1UNL    H19   63  -0.784  -0.213   0.026
    1UNL    H20   64  -0.873  -0.338   0.232
    1UNL    H21   65  -0.715  -0.408   0.410
    1UNL    H22   66  -0.473  -0.382   0.375
    1UNL    H23   67  -0.387  -0.293   0.183
    1UNL    H24   68  -0.521   0.018  -0.184
    1UNL    H25   69  -0.478   0.130  -0.382
    1UNL    H26   70  -0.515   0.235  -0.056
    1UNL    H27   71  -0.407   0.002   0.047
    1UNL    H28   72  -0.284   0.299   0.036
    1UNL    H29   73  -0.370   0.353  -0.216
    1UNL    H30   74   0.059   0.037  -0.213
    1UNL    H31   75  -0.015  -0.102  -0.098
    1UNL    H32   76   0.278  -0.033  -0.113
    1UNL    H33   77   0.564   0.094  -0.253
    1UNL    H34   78   0.789  -0.013  -0.278
   0.00000   0.00000   0.00000   0.00000   0.00000   0.00000   0.00000   0.00000   0.00000
Generated with MDTraj, t= 53.0
 78
    1UNL     C1    1   1.026  -0.096   0.004
    1UNL     O1    2   0.939  -0.061  -0.099
    1UNL     C2    3   0.824   0.018  -0.067
    1UNL     C3    4   0.796   0.080   0.053
    1UNL     C4    5   0.673   0.140   0.073
    1UNL     C5    6   0.580   0.150  -0.032
    1UNL     C6    7   0.453   0.226  -0.018
    1UNL     O2    8   0.437   0.295   0.077
    1UNL     O3    9   0.359   0.190  -0.114
    1UNL     C7   10   0.229   0.221  -0.069
    1UNL     C8   11   0.178   0.106   0.009
    1UNL     C9   12   0.223   0.089   0.158
    1UNL     O4   13   0.280  -0.045   0.166
    1UNL    C10   14   0.200  -0.136   0.084
    1UNL     O5   15   0.259  -0.258   0.057
    1UNL    C11   16   0.058  -0.136   0.145
    1UNL    C12   17   0.002   0.015   0.147
    1UNL    C13   18  -0.140   0.044   0.198
    1UNL     O6   19   0.097   0.094   0.233
    1UNL    C14   20   0.022   0.076   0.002
    1UNL     O7   21  -0.056   0.191  -0.028
    1UNL    C15   22  -0.174   0.161  -0.102
    1UNL     O8   23  -0.207   0.021  -0.102
    1UNL    C16   24  -0.311  -0.002  -0.200
    1UNL    C17   25  -0.365  -0.154  -0.195
    1UNL     O9   26  -0.409  -0.184  -0.067
    1UNL    C18   27  -0.543  -0.195  -0.051
    1UNL    O10   28  -0.624  -0.175  -0.141
    1UNL    C19   29  -0.597  -0.251   0.079
    1UNL    C20   30  -0.736  -0.273   0.101
    1UNL    C21   31  -0.777  -0.313   0.231
    1UNL    C22   32  -0.691  -0.347   0.330
    1UNL    C23   33  -0.557  -0.340   0.307
    1UNL    C24   34  -0.510  -0.301   0.176
    1UNL    C25   35  -0.431   0.094  -0.188
    1UNL    O11   36  -0.420   0.175  -0.303
    1UNL    C26   37  -0.426   0.178  -0.059
    1UNL    O12   38  -0.431   0.089   0.047
    1UNL    C27   39  -0.295   0.259  -0.062
    1UNL    O13   40  -0.303   0.379  -0.141
    1UNL    C28   41   0.050  -0.025  -0.110
    1UNL    C29   42   0.194  -0.041  -0.053
    1UNL    C30   43   0.608   0.096  -0.155
    1UNL    C31   44   0.729   0.031  -0.170
    1UNL     H1   45   0.977  -0.142   0.083
    1UNL     H2   46   1.110  -0.154  -0.031
    1UNL     H3   47   1.059  -0.001   0.042
    1UNL     H4   48   0.876   0.097   0.126
    1UNL     H5   49   0.647   0.154   0.173
    1UNL     H6   50   0.223   0.325  -0.026
    1UNL     H7   51   0.175   0.221  -0.163
    1UNL     H8   52   0.290   0.169   0.192
    1UNL     H9   53   0.354  -0.240   0.035
    1UNL    H10   54  -0.001  -0.198   0.074
    1UNL    H11   55   0.045  -0.177   0.242
    1UNL    H12   56  -0.147   0.145   0.235
    1UNL    H13   57  -0.173  -0.021   0.282
    1UNL    H14   58  -0.210   0.042   0.109
    1UNL    H15   59  -0.125   0.184  -0.207
    1UNL    H16   60  -0.257   0.011  -0.296
    1UNL    H17   61  -0.449  -0.166  -0.263
    1UNL    H18   62  -0.284  -0.221  -0.219
    1UNL    H19   63  -0.805  -0.256   0.022
    1UNL    H20   64  -0.879  -0.334   0.239
    1UNL    H21   65  -0.720  -0.378   0.431
    1UNL    H22   66  -0.488  -0.380   0.380
    1UNL    H23   67  -0.413  -0.317   0.150
    1UNL    H24   68  -0.523   0.030  -0.184
    1UNL    H25   69  -0.459   0.121  -0.385
    1UNL    H26   70  -0.517   0.238  -0.066
    1UNL    H27   71  -0.411  -0.003   0.015
    1UNL    H28   72  -0.274   0.299   0.043
    1UNL    H29   73  -0.347   0.351  -0.235
    1UNL    H30   74   0.051   0.017  -0.217
    1UNL    H31   75  -0.000  -0.117  -0.108
    1UNL    H32   76   0.277  -0.064  -0.121
    1UNL    H33   77   0.528   0.092  -0.233
    1UNL    H34   78   0.750  -0.011  -0.263
   0.00000   0.00000   0.00000   0.00000   0.00000   0.00000   0.00000   0.00000   0.00000
Generated with MDTraj, t= 54.0
 78
    1UNL     C1    1   1.012  -0.080   0.020
    1UNL     O1    2   0.938  -0.055  -0.092
    1UNL     C2    3   0.820   0.016  -0.073
    1UNL     C3    4   0.800   0.089   0.045
    1UNL     C4    5   0.680   0.152   0.070
    1UNL     C5    6   0.587   0.151  -0.037
    1UNL     C6    7   0.455   0.214  -0.009
    1UNL     O2    8   0.430   0.271   0.094
    1UNL     O3    9   0.368   0.216  -0.121
    1UNL     C7   10   0.228   0.219  -0.092
    1UNL     C8   11   0.180   0.097  -0.005
    1UNL     C9   12   0.224   0.091   0.159
    1UNL     O4   13   0.290  -0.038   0.161
    1UNL    C10   14   0.213  -0.125   0.079
    1UNL     O5   15   0.269  -0.254   0.063
    1UNL    C11   16   0.072  -0.133   0.133
    1UNL    C12   17   0.008   0.007   0.144
    1UNL    C13   18  -0.128   0.001   0.213
    1UNL     O6   19   0.093   0.090   0.222
    1UNL    C14   20   0.023   0.069  -0.005
    1UNL     O7   21  -0.056   0.184  -0.023
    1UNL    C15   22  -0.174   0.153  -0.095
    1UNL     O8   23  -0.224   0.019  -0.089
    1UNL    C16   24  -0.312  -0.003  -0.197
    1UNL    C17   25  -0.353  -0.154  -0.178
    1UNL     O9   26  -0.409  -0.181  -0.053
    1UNL    C18   27  -0.540  -0.190  -0.052
    1UNL    O10   28  -0.604  -0.174  -0.151
    1UNL    C19   29  -0.603  -0.241   0.078
    1UNL    C20   30  -0.740  -0.251   0.104
    1UNL    C21   31  -0.792  -0.309   0.215
    1UNL    C22   32  -0.708  -0.342   0.316
    1UNL    C23   33  -0.568  -0.329   0.296
    1UNL    C24   34  -0.515  -0.287   0.176
    1UNL    C25   35  -0.440   0.089  -0.181
    1UNL    O11   36  -0.448   0.171  -0.294
    1UNL    C26   37  -0.428   0.177  -0.055
    1UNL    O12   38  -0.448   0.094   0.055
    1UNL    C27   39  -0.288   0.252  -0.050
    1UNL    O13   40  -0.290   0.361  -0.151
    1UNL    C28   41   0.054  -0.035  -0.121
    1UNL    C29   42   0.197  -0.044  -0.058
    1UNL    C30   43   0.612   0.101  -0.161
    1UNL    C31   44   0.728   0.026  -0.177
    1UNL     H1   45   0.957  -0.123   0.098
    1UNL     H2   46   1.102  -0.143   0.002
    1UNL     H3   47   1.046   0.019   0.054
    1UNL     H4   48   0.861   0.070   0.129
    1UNL     H5   49   0.649   0.195   0.169
    1UNL     H6   50   0.202   0.316  -0.041
    1UNL     H7   51   0.182   0.227  -0.190
    1UNL     H8   52   0.290   0.173   0.195
    1UNL     H9   53   0.368  -0.247   0.042
    1UNL    H10   54   0.014  -0.205   0.076
    1UNL    H11   55   0.086  -0.168   0.236
    1UNL    H12   56  -0.182   0.096   0.199
    1UNL    H13   57  -0.115  -0.016   0.321
    1UNL    H14   58  -0.186  -0.080   0.162
    1UNL    H15   59  -0.141   0.182  -0.203
    1UNL    H16   60  -0.263   0.017  -0.298
    1UNL    H17   61  -0.425  -0.172  -0.255
    1UNL    H18   62  -0.266  -0.218  -0.189
    1UNL    H19   63  -0.812  -0.233   0.023
    1UNL    H20   64  -0.901  -0.304   0.238
    1UNL    H21   65  -0.755  -0.376   0.407
    1UNL    H22   66  -0.505  -0.364   0.374
    1UNL    H23   67  -0.401  -0.271   0.155
    1UNL    H24   68  -0.535   0.029  -0.168
    1UNL    H25   69  -0.484   0.125  -0.377
    1UNL    H26   70  -0.511   0.248  -0.045
    1UNL    H27   71  -0.376   0.026   0.074
    1UNL    H28   72  -0.282   0.299   0.052
    1UNL    H29   73  -0.303   0.320  -0.233
    1UNL    H30   74   0.046   0.002  -0.227
    1UNL    H31   75  -0.008  -0.123  -0.116
    1UNL    H32   76   0.284  -0.052  -0.124
    1UNL    H33   77   0.550   0.120  -0.244
    1UNL    H34   78   0.739  -0.041  -0.267
   0.00000   0.00000   0.00000   0.00000   0.00000   0.00000   0.00000   0.00000   0.00000
Generated with MDTraj, t= 55.0
 78
    1UNL     C1    1   1.025  -0.067   0.029
    1UNL     O1    2   0.952  -0.053  -0.088
    1UNL     C2    3   0.832   0.025  -0.070
    1UNL     C3    4   0.790   0.091   0.049
    1UNL     C4    5   0.674   0.159   0.055
    1UNL     C5    6   0.587   0.162  -0.051
    1UNL     C6    7   0.447   0.208  -0.026
    1UNL     O2    8   0.430   0.263   0.078
    1UNL     O3    9   0.357   0.197  -0.127
    1UNL     C7   10   0.233   0.232  -0.075
    1UNL     C8   11   0.180   0.119   0.018
    1UNL     C9   12   0.217   0.090   0.166
    1UNL     O4   13   0.287  -0.044   0.168
    1UNL    C10   14   0.216  -0.121   0.070
    1UNL     O5   15   0.285  -0.241   0.027
    1UNL    C11   16   0.074  -0.154   0.127
    1UNL    C12   17   0.011  -0.014   0.150
    1UNL    C13   18  -0.129  -0.024   0.197
    1UNL     O6   19   0.098   0.067   0.241
    1UNL    C14   20   0.020   0.073   0.009
    1UNL     O7   21  -0.062   0.190  -0.018
    1UNL    C15   22  -0.177   0.153  -0.102
    1UNL     O8   23  -0.211   0.018  -0.113
    1UNL    C16   24  -0.317  -0.015  -0.200
    1UNL    C17   25  -0.353  -0.163  -0.175
    1UNL     O9   26  -0.395  -0.191  -0.050
    1UNL    C18   27  -0.536  -0.192  -0.043
    1UNL    O10   28  -0.599  -0.150  -0.134
    1UNL    C19   29  -0.605  -0.235   0.078
    1UNL    C20   30  -0.744  -0.238   0.091
    1UNL    C21   31  -0.809  -0.288   0.199
    1UNL    C22   32  -0.734  -0.324   0.307
    1UNL    C23   33  -0.595  -0.323   0.307
    1UNL    C24   34  -0.529  -0.279   0.193
    1UNL    C25   35  -0.444   0.079  -0.177
    1UNL    O11   36  -0.455   0.171  -0.287
    1UNL    C26   37  -0.426   0.160  -0.046
    1UNL    O12   38  -0.416   0.081   0.077
    1UNL    C27   39  -0.300   0.241  -0.060
    1UNL    O13   40  -0.311   0.350  -0.163
    1UNL    C28   41   0.066  -0.006  -0.115
    1UNL    C29   42   0.199  -0.024  -0.052
    1UNL    C30   43   0.629   0.098  -0.168
    1UNL    C31   44   0.743   0.018  -0.172
    1UNL     H1   45   0.969  -0.108   0.111
    1UNL     H2   46   1.116  -0.136   0.019
    1UNL     H3   47   1.061   0.034   0.062
    1UNL     H4   48   0.847   0.078   0.143
    1UNL     H5   49   0.642   0.193   0.148
    1UNL     H6   50   0.237   0.334  -0.028
    1UNL     H7   51   0.168   0.249  -0.162
    1UNL     H8   52   0.287   0.158   0.223
    1UNL     H9   53   0.383  -0.234   0.062
    1UNL    H10   54   0.025  -0.211   0.050
    1UNL    H11   55   0.094  -0.210   0.221
    1UNL    H12   56  -0.178   0.076   0.196
    1UNL    H13   57  -0.121  -0.061   0.300
    1UNL    H14   58  -0.186  -0.093   0.135
    1UNL    H15   59  -0.134   0.187  -0.203
    1UNL    H16   60  -0.287   0.001  -0.311
    1UNL    H17   61  -0.422  -0.203  -0.249
    1UNL    H18   62  -0.256  -0.215  -0.181
    1UNL    H19   63  -0.804  -0.185   0.022
    1UNL    H20   64  -0.912  -0.291   0.208
    1UNL    H21   65  -0.799  -0.351   0.391
    1UNL    H22   66  -0.548  -0.336   0.404
    1UNL    H23   67  -0.428  -0.269   0.183
    1UNL    H24   68  -0.539   0.020  -0.181
    1UNL    H25   69  -0.493   0.126  -0.361
    1UNL    H26   70  -0.512   0.229  -0.037
    1UNL    H27   71  -0.406  -0.008   0.052
    1UNL    H28   72  -0.280   0.287   0.040
    1UNL    H29   73  -0.384   0.330  -0.229
    1UNL    H30   74   0.073   0.055  -0.205
    1UNL    H31   75   0.010  -0.101  -0.125
    1UNL    H32   76   0.285  -0.022  -0.119
    1UNL    H33   77   0.561   0.084  -0.252
    1UNL    H34   78   0.782  -0.024  -0.258
   0.00000   0.00000   0.00000   0.00000   0.00000   0.00000   0.00000   0.00000   0.00000
Generated with MDTraj, t= 56.0
 78
    1UNL     C1    1   1.043  -0.047   0.015
    1UNL     O1    2   0.955  -0.030  -0.095
    1UNL     C2    3   0.836   0.022  -0.064
    1UNL     C3    4   0.806   0.087   0.054
    1UNL     C4    5   0.681   0.147   0.069
    1UNL     C5    6   0.591   0.160  -0.036
    1UNL     C6    7   0.461   0.225  -0.008
    1UNL     O2    8   0.444   0.286   0.094
    1UNL     O3    9   0.366   0.217  -0.108
    1UNL     C7   10   0.230   0.228  -0.061
    1UNL     C8   11   0.180   0.100   0.000
    1UNL     C9   12   0.226   0.073   0.155
    1UNL     O4   13   0.293  -0.052   0.148
    1UNL    C10   14   0.222  -0.129   0.053
    1UNL     O5   15   0.292  -0.246   0.025
    1UNL    C11   16   0.078  -0.152   0.121
    1UNL    C12   17   0.012  -0.011   0.135
    1UNL    C13   18  -0.138  -0.005   0.170
    1UNL     O6   19   0.101   0.061   0.225
    1UNL    C14   20   0.023   0.072  -0.001
    1UNL     O7   21  -0.067   0.186  -0.030
    1UNL    C15   22  -0.182   0.145  -0.101
    1UNL     O8   23  -0.216   0.010  -0.092
    1UNL    C16   24  -0.318  -0.026  -0.184
    1UNL    C17   25  -0.353  -0.175  -0.173
    1UNL     O9   26  -0.403  -0.199  -0.044
    1UNL    C18   27  -0.546  -0.201  -0.048
    1UNL    O10   28  -0.615  -0.172  -0.143
    1UNL    C19   29  -0.612  -0.236   0.081
    1UNL    C20   30  -0.753  -0.226   0.085
    1UNL    C21   31  -0.812  -0.260   0.198
    1UNL    C22   32  -0.749  -0.305   0.312
    1UNL    C23   33  -0.612  -0.302   0.316
    1UNL    C24   34  -0.545  -0.269   0.198
    1UNL    C25   35  -0.439   0.078  -0.173
    1UNL    O11   36  -0.445   0.157  -0.296
    1UNL    C26   37  -0.427   0.163  -0.042
    1UNL    O12   38  -0.406   0.078   0.082
    1UNL    C27   39  -0.296   0.240  -0.049
    1UNL    O13   40  -0.314   0.349  -0.138
    1UNL    C28   41   0.055  -0.020  -0.126
    1UNL    C29   42   0.205  -0.032  -0.073
    1UNL    C30   43   0.614   0.085  -0.153
    1UNL    C31   44   0.737   0.027  -0.170
    1UNL     H1   45   0.990  -0.087   0.103
    1UNL     H2   46   1.123  -0.130  -0.000
    1UNL     H3   47   1.096   0.048   0.045
    1UNL     H4   48   0.871   0.093   0.135
    1UNL     H5   49   0.643   0.189   0.164
    1UNL     H6   50   0.222   0.312   0.014
    1UNL     H7   51   0.161   0.258  -0.141
    1UNL     H8   52   0.280   0.162   0.199
    1UNL     H9   53   0.390  -0.219   0.055
    1UNL    H10   54   0.019  -0.213   0.056
    1UNL    H11   55   0.101  -0.187   0.225
    1UNL    H12   56  -0.168   0.099   0.198
    1UNL    H13   57  -0.152  -0.072   0.256
    1UNL    H14   58  -0.205  -0.034   0.091
    1UNL    H15   59  -0.152   0.174  -0.207
    1UNL    H16   60  -0.268  -0.003  -0.287
    1UNL    H17   61  -0.428  -0.202  -0.248
    1UNL    H18   62  -0.261  -0.238  -0.190
    1UNL    H19   63  -0.806  -0.190  -0.005
    1UNL    H20   64  -0.925  -0.269   0.189
    1UNL    H21   65  -0.805  -0.341   0.396
    1UNL    H22   66  -0.565  -0.328   0.409
    1UNL    H23   67  -0.436  -0.289   0.191
    1UNL    H24   68  -0.530   0.013  -0.174
    1UNL    H25   69  -0.464   0.096  -0.362
    1UNL    H26   70  -0.522   0.222  -0.036
    1UNL    H27   71  -0.458  -0.010   0.068
    1UNL    H28   72  -0.273   0.277   0.051
    1UNL    H29   73  -0.337   0.312  -0.234
    1UNL    H30   74   0.056   0.015  -0.226
    1UNL    H31   75  -0.009  -0.115  -0.122
    1UNL    H32   76   0.289  -0.035  -0.145
    1UNL    H33   77   0.543   0.091  -0.234
    1UNL    H34   78   0.774  -0.004  -0.272
   0.00000   0.00000   0.00000   0.00000   0.00000   0.00000   0.00000   0.00000   0.00000
Generated with MDTraj, t= 57.0
 78
    1UNL     C1    1   1.064  -0.025  -0.012
    1UNL     O1    2   0.952  -0.043  -0.094
    1UNL     C2    3   0.832   0.033  -0.060
    1UNL     C3    4   0.812   0.101   0.062
    1UNL     C4    5   0.697   0.168   0.083
    1UNL     C5    6   0.595   0.166  -0.011
    1UNL     C6    7   0.458   0.219   0.010
    1UNL     O2    8   0.427   0.262   0.119
    1UNL     O3    9   0.378   0.210  -0.103
    1UNL     C7   10   0.243   0.230  -0.071
    1UNL     C8   11   0.195   0.098  -0.013
    1UNL     C9   12   0.228   0.069   0.138
    1UNL     O4   13   0.299  -0.055   0.134
    1UNL    C10   14   0.223  -0.135   0.040
    1UNL     O5   15   0.279  -0.261   0.007
    1UNL    C11   16   0.074  -0.151   0.107
    1UNL    C12   17   0.011  -0.008   0.127
    1UNL    C13   18  -0.140  -0.008   0.171
    1UNL     O6   19   0.103   0.062   0.213
    1UNL    C14   20   0.039   0.074  -0.010
    1UNL     O7   21  -0.047   0.188  -0.041
    1UNL    C15   22  -0.172   0.142  -0.092
    1UNL     O8   23  -0.212   0.006  -0.086
    1UNL    C16   24  -0.315  -0.034  -0.185
    1UNL    C17   25  -0.355  -0.174  -0.152
    1UNL     O9   26  -0.422  -0.179  -0.028
    1UNL    C18   27  -0.557  -0.208  -0.052
    1UNL    O10   28  -0.615  -0.203  -0.159
    1UNL    C19   29  -0.627  -0.245   0.085
    1UNL    C20   30  -0.764  -0.223   0.090
    1UNL    C21   31  -0.827  -0.241   0.208
    1UNL    C22   32  -0.759  -0.270   0.322
    1UNL    C23   33  -0.623  -0.278   0.315
    1UNL    C24   34  -0.555  -0.267   0.195
    1UNL    C25   35  -0.439   0.063  -0.182
    1UNL    O11   36  -0.450   0.152  -0.299
    1UNL    C26   37  -0.430   0.151  -0.051
    1UNL    O12   38  -0.448   0.072   0.075
    1UNL    C27   39  -0.287   0.224  -0.035
    1UNL    O13   40  -0.294   0.342  -0.107
    1UNL    C28   41   0.064  -0.017  -0.137
    1UNL    C29   42   0.215  -0.037  -0.086
    1UNL    C30   43   0.619   0.107  -0.140
    1UNL    C31   44   0.736   0.053  -0.165
    1UNL     H1   45   1.061  -0.100   0.067
    1UNL     H2   46   1.154  -0.067  -0.070
    1UNL     H3   47   1.089   0.080   0.018
    1UNL     H4   48   0.895   0.104   0.134
    1UNL     H5   49   0.667   0.195   0.181
    1UNL     H6   50   0.216   0.311   0.003
    1UNL     H7   51   0.189   0.254  -0.163
    1UNL     H8   52   0.283   0.159   0.178
    1UNL     H9   53   0.284  -0.318   0.092
    1UNL    H10   54   0.015  -0.211   0.040
    1UNL    H11   55   0.095  -0.187   0.211
    1UNL    H12   56  -0.190   0.088   0.159
    1UNL    H13   57  -0.150  -0.038   0.277
    1UNL    H14   58  -0.200  -0.079   0.114
    1UNL    H15   59  -0.164   0.166  -0.201
    1UNL    H16   60  -0.252  -0.018  -0.283
    1UNL    H17   61  -0.417  -0.227  -0.228
    1UNL    H18   62  -0.259  -0.234  -0.144
    1UNL    H19   63  -0.810  -0.232  -0.007
    1UNL    H20   64  -0.928  -0.230   0.218
    1UNL    H21   65  -0.809  -0.288   0.417
    1UNL    H22   66  -0.568  -0.324   0.398
    1UNL    H23   67  -0.448  -0.280   0.194
    1UNL    H24   68  -0.530   0.001  -0.171
    1UNL    H25   69  -0.473   0.106  -0.383
    1UNL    H26   70  -0.509   0.231  -0.052
    1UNL    H27   71  -0.412  -0.010   0.052
    1UNL    H28   72  -0.269   0.250   0.064
    1UNL    H29   73  -0.343   0.321  -0.182
    1UNL    H30   74   0.056   0.028  -0.233
    1UNL    H31   75   0.005  -0.115  -0.146
    1UNL    H32   76   0.302  -0.055  -0.153
    1UNL    H33   77   0.544   0.113  -0.217
    1UNL    H34   78   0.766   0.022  -0.262
   0.00000   0.00000   0.00000   0.00000   0.00000   0.00000   0.00000   0.00000   0.00000
Generated with MDTraj, t= 58.0
 78
    1UNL     C1    1   1.078   0.008   0.007
    1UNL     O1    2   0.976  -0.013  -0.091
    1UNL     C2    3   0.857   0.044  -0.068
    1UNL     C3    4   0.811   0.103   0.054
    1UNL     C4    5   0.691   0.163   0.074
    1UNL     C5    6   0.598   0.163  -0.026
    1UNL     C6    7   0.465   0.215   0.003
    1UNL     O2    8   0.434   0.258   0.112
    1UNL     O3    9   0.377   0.209  -0.100
    1UNL     C7   10   0.245   0.234  -0.053
    1UNL     C8   11   0.189   0.103   0.003
    1UNL     C9   12   0.217   0.054   0.153
    1UNL     O4   13   0.287  -0.075   0.140
    1UNL    C10   14   0.215  -0.137   0.033
    1UNL     O5   15   0.272  -0.262  -0.009
    1UNL    C11   16   0.069  -0.170   0.090
    1UNL    C12   17   0.011  -0.026   0.124
    1UNL    C13   18  -0.121  -0.038   0.177
    1UNL     O6   19   0.100   0.033   0.224
    1UNL    C14   20   0.032   0.072  -0.009
    1UNL     O7   21  -0.055   0.184  -0.036
    1UNL    C15   22  -0.180   0.144  -0.094
    1UNL     O8   23  -0.212   0.000  -0.095
    1UNL    C16   24  -0.320  -0.034  -0.185
    1UNL    C17   25  -0.357  -0.173  -0.154
    1UNL     O9   26  -0.416  -0.215  -0.029
    1UNL    C18   27  -0.559  -0.224  -0.039
    1UNL    O10   28  -0.614  -0.213  -0.146
    1UNL    C19   29  -0.625  -0.228   0.095
    1UNL    C20   30  -0.761  -0.216   0.089
    1UNL    C21   31  -0.842  -0.223   0.205
    1UNL    C22   32  -0.776  -0.249   0.323
    1UNL    C23   33  -0.644  -0.265   0.327
    1UNL    C24   34  -0.564  -0.248   0.220
    1UNL    C25   35  -0.434   0.073  -0.181
    1UNL    O11   36  -0.426   0.166  -0.296
    1UNL    C26   37  -0.429   0.155  -0.051
    1UNL    O12   38  -0.448   0.071   0.063
    1UNL    C27   39  -0.295   0.229  -0.042
    1UNL    O13   40  -0.313   0.340  -0.123
    1UNL    C28   41   0.065   0.001  -0.142
    1UNL    C29   42   0.202  -0.027  -0.080
    1UNL    C30   43   0.632   0.101  -0.150
    1UNL    C31   44   0.760   0.050  -0.172
    1UNL     H1   45   1.054  -0.057   0.089
    1UNL     H2   46   1.169  -0.044  -0.029
    1UNL     H3   47   1.104   0.110   0.031
    1UNL     H4   48   0.873   0.075   0.136
    1UNL     H5   49   0.649   0.192   0.172
    1UNL     H6   50   0.246   0.313   0.026
    1UNL     H7   51   0.174   0.268  -0.130
    1UNL     H8   52   0.295   0.101   0.219
    1UNL     H9   53   0.366  -0.255  -0.039
    1UNL    H10   54   0.026  -0.218   0.003
    1UNL    H11   55   0.086  -0.229   0.183
    1UNL    H12   56  -0.158   0.057   0.207
    1UNL    H13   57  -0.117  -0.103   0.265
    1UNL    H14   58  -0.192  -0.082   0.103
    1UNL    H15   59  -0.169   0.165  -0.201
    1UNL    H16   60  -0.272  -0.034  -0.292
    1UNL    H17   61  -0.412  -0.225  -0.235
    1UNL    H18   62  -0.259  -0.231  -0.153
    1UNL    H19   63  -0.807  -0.193  -0.005
    1UNL    H20   64  -0.951  -0.205   0.194
    1UNL    H21   65  -0.832  -0.242   0.413
    1UNL    H22   66  -0.593  -0.285   0.419
    1UNL    H23   67  -0.458  -0.255   0.231
    1UNL    H24   68  -0.528   0.014  -0.178
    1UNL    H25   69  -0.438   0.123  -0.389
    1UNL    H26   70  -0.503   0.240  -0.061
    1UNL    H27   71  -0.418  -0.025   0.034
    1UNL    H28   72  -0.275   0.260   0.053
    1UNL    H29   73  -0.347   0.313  -0.206
    1UNL    H30   74   0.059   0.070  -0.228
    1UNL    H31   75   0.012  -0.094  -0.163
    1UNL    H32   76   0.288  -0.037  -0.149
    1UNL    H33   77   0.548   0.080  -0.218
    1UNL    H34   78   0.786   0.012  -0.272
   0.00000   0.00000   0.00000   0.00000   0.00000   0.00000   0.00000   0.00000   0.00000
Generated with MDTraj, t= 59.0
 78
    1UNL     C1    1   1.085   0.023   0.018
    1UNL     O1    2   1.001   0.039  -0.099
    1UNL     C2    3   0.865   0.068  -0.070
    1UNL     C3    4   0.823   0.114   0.055
    1UNL     C4    5   0.699   0.156   0.074
    1UNL     C5    6   0.597   0.152  -0.027
    1UNL     C6    7   0.460   0.196   0.006
    1UNL     O2    8   0.427   0.241   0.116
    1UNL     O3    9   0.373   0.198  -0.099
    1UNL     C7   10   0.244   0.223  -0.051
    1UNL     C8   11   0.174   0.092   0.003
    1UNL     C9   12   0.218   0.037   0.147
    1UNL     O4   13   0.291  -0.080   0.123
    1UNL    C10   14   0.216  -0.146   0.023
    1UNL     O5   15   0.288  -0.259  -0.016
    1UNL    C11   16   0.067  -0.185   0.074
    1UNL    C12   17   0.006  -0.049   0.125
    1UNL    C13   18  -0.130  -0.069   0.183
    1UNL     O6   19   0.095   0.017   0.219
    1UNL    C14   20   0.016   0.059  -0.002
    1UNL     O7   21  -0.067   0.169  -0.002
    1UNL    C15   22  -0.176   0.144  -0.090
    1UNL     O8   23  -0.210  -0.001  -0.082
    1UNL    C16   24  -0.317  -0.039  -0.176
    1UNL    C17   25  -0.349  -0.185  -0.147
    1UNL     O9   26  -0.414  -0.207  -0.020
    1UNL    C18   27  -0.551  -0.204  -0.037
    1UNL    O10   28  -0.606  -0.191  -0.143
    1UNL    C19   29  -0.630  -0.207   0.087
    1UNL    C20   30  -0.764  -0.206   0.076
    1UNL    C21   31  -0.838  -0.209   0.198
    1UNL    C22   32  -0.773  -0.234   0.317
    1UNL    C23   33  -0.637  -0.245   0.323
    1UNL    C24   34  -0.567  -0.221   0.209
    1UNL    C25   35  -0.439   0.063  -0.171
    1UNL    O11   36  -0.443   0.133  -0.300
    1UNL    C26   37  -0.424   0.159  -0.047
    1UNL    O12   38  -0.449   0.090   0.078
    1UNL    C27   39  -0.296   0.235  -0.055
    1UNL    O13   40  -0.311   0.346  -0.141
    1UNL    C28   41   0.046  -0.012  -0.139
    1UNL    C29   42   0.193  -0.035  -0.083
    1UNL    C30   43   0.637   0.100  -0.149
    1UNL    C31   44   0.767   0.063  -0.175
    1UNL     H1   45   1.034  -0.041   0.089
    1UNL     H2   46   1.163  -0.044  -0.011
    1UNL     H3   47   1.129   0.110   0.054
    1UNL     H4   48   0.882   0.094   0.144
    1UNL     H5   49   0.660   0.191   0.168
    1UNL     H6   50   0.245   0.304   0.024
    1UNL     H7   51   0.185   0.260  -0.137
    1UNL     H8   52   0.263   0.119   0.208
    1UNL     H9   53   0.379  -0.235  -0.022
    1UNL    H10   54   0.005  -0.231  -0.004
    1UNL    H11   55   0.084  -0.252   0.159
    1UNL    H12   56  -0.157   0.033   0.207
    1UNL    H13   57  -0.127  -0.125   0.275
    1UNL    H14   58  -0.205  -0.109   0.111
    1UNL    H15   59  -0.149   0.159  -0.193
    1UNL    H16   60  -0.273  -0.037  -0.283
    1UNL    H17   61  -0.400  -0.241  -0.225
    1UNL    H18   62  -0.255  -0.247  -0.137
    1UNL    H19   63  -0.819  -0.172  -0.013
    1UNL    H20   64  -0.942  -0.178   0.200
    1UNL    H21   65  -0.826  -0.243   0.412
    1UNL    H22   66  -0.593  -0.232   0.422
    1UNL    H23   67  -0.457  -0.230   0.217
    1UNL    H24   68  -0.531   0.006  -0.155
    1UNL    H25   69  -0.463   0.072  -0.384
    1UNL    H26   70  -0.504   0.234  -0.065
    1UNL    H27   71  -0.454  -0.006   0.065
    1UNL    H28   72  -0.283   0.263   0.042
    1UNL    H29   73  -0.369   0.317  -0.226
    1UNL    H30   74   0.058   0.059  -0.228
    1UNL    H31   75  -0.014  -0.100  -0.158
    1UNL    H32   76   0.274  -0.037  -0.158
    1UNL    H33   77   0.566   0.083  -0.224
    1UNL    H34   78   0.798   0.030  -0.273
   0.00000   0.00000   0.00000   0.00000   0.00000   0.00000   0.00000   0.00000   0.00000
Generated with MDTraj, t= 60.0
 78
    1UNL     C1    1   1.085   0.045   0.005
    1UNL     O1    2   0.992   0.052  -0.105
    1UNL     C2    3   0.863   0.091  -0.073
    1UNL     C3    4   0.826   0.128   0.062
    1UNL     C4    5   0.698   0.174   0.086
    1UNL     C5    6   0.600   0.167  -0.010
    1UNL     C6    7   0.456   0.188   0.016
    1UNL     O2    8   0.421   0.216   0.132
    1UNL     O3    9   0.374   0.192  -0.095
    1UNL     C7   10   0.241   0.203  -0.056
    1UNL     C8   11   0.191   0.070   0.001
    1UNL     C9   12   0.230   0.022   0.147
    1UNL     O4   13   0.297  -0.107   0.118
    1UNL    C10   14   0.220  -0.166   0.017
    1UNL     O5   15   0.270  -0.286  -0.034
    1UNL    C11   16   0.076  -0.194   0.082
    1UNL    C12   17   0.015  -0.052   0.122
    1UNL    C13   18  -0.132  -0.049   0.176
    1UNL     O6   19   0.108   0.005   0.222
    1UNL    C14   20   0.030   0.041  -0.000
    1UNL     O7   21  -0.056   0.154   0.005
    1UNL    C15   22  -0.167   0.132  -0.085
    1UNL     O8   23  -0.223  -0.003  -0.072
    1UNL    C16   24  -0.324  -0.037  -0.176
    1UNL    C17   25  -0.370  -0.181  -0.160
    1UNL     O9   26  -0.417  -0.199  -0.027
    1UNL    C18   27  -0.549  -0.190  -0.034
    1UNL    O10   28  -0.618  -0.176  -0.133
    1UNL    C19   29  -0.630  -0.204   0.088
    1UNL    C20   30  -0.772  -0.199   0.080
    1UNL    C21   31  -0.841  -0.195   0.202
    1UNL    C22   32  -0.782  -0.212   0.321
    1UNL    C23   33  -0.642  -0.212   0.326
    1UNL    C24   34  -0.568  -0.212   0.209
    1UNL    C25   35  -0.447   0.060  -0.173
    1UNL    O11   36  -0.450   0.141  -0.293
    1UNL    C26   37  -0.434   0.159  -0.051
    1UNL    O12   38  -0.438   0.085   0.070
    1UNL    C27   39  -0.293   0.236  -0.057
    1UNL    O13   40  -0.300   0.323  -0.170
    1UNL    C28   41   0.061  -0.036  -0.139
    1UNL    C29   42   0.207  -0.052  -0.091
    1UNL    C30   43   0.633   0.139  -0.141
    1UNL    C31   44   0.760   0.101  -0.168
    1UNL     H1   45   1.064  -0.038   0.070
    1UNL     H2   46   1.184   0.032  -0.030
    1UNL     H3   47   1.083   0.138   0.052
    1UNL     H4   48   0.904   0.136   0.135
    1UNL     H5   49   0.661   0.179   0.186
    1UNL     H6   50   0.231   0.273   0.027
    1UNL     H7   51   0.187   0.247  -0.143
    1UNL     H8   52   0.290   0.085   0.214
    1UNL     H9   53   0.359  -0.287  -0.009
    1UNL    H10   54  -0.001  -0.227   0.008
    1UNL    H11   55   0.079  -0.267   0.162
    1UNL    H12   56  -0.187   0.043   0.150
    1UNL    H13   57  -0.122  -0.055   0.283
    1UNL    H14   58  -0.188  -0.132   0.136
    1UNL    H15   59  -0.135   0.146  -0.186
    1UNL    H16   60  -0.271  -0.023  -0.277
    1UNL    H17   61  -0.449  -0.208  -0.227
    1UNL    H18   62  -0.297  -0.259  -0.191
    1UNL    H19   63  -0.817  -0.209  -0.014
    1UNL    H20   64  -0.948  -0.177   0.198
    1UNL    H21   65  -0.833  -0.224   0.414
    1UNL    H22   66  -0.586  -0.242   0.413
    1UNL    H23   67  -0.463  -0.209   0.209
    1UNL    H24   68  -0.544   0.011  -0.155
    1UNL    H25   69  -0.474   0.082  -0.373
    1UNL    H26   70  -0.514   0.235  -0.054
    1UNL    H27   71  -0.412  -0.014   0.046
    1UNL    H28   72  -0.274   0.289   0.027
    1UNL    H29   73  -0.331   0.273  -0.246
    1UNL    H30   74   0.077   0.029  -0.234
    1UNL    H31   75   0.011  -0.125  -0.166
    1UNL    H32   76   0.291  -0.061  -0.164
    1UNL    H33   77   0.552   0.151  -0.219
    1UNL    H34   78   0.788   0.084  -0.270
   0.00000   0.00000   0.00000   0.00000   0.00000   0.00000   0.00000   0.00000   0.00000
Generated with MDTraj, t= 61.0
 78
    1UNL     C1    1   1.094   0.074  -0.008
    1UNL     O1    2   0.998   0.081  -0.109
    1UNL     C2    3   0.870   0.116  -0.071
    1UNL     C3    4   0.828   0.140   0.061
    1UNL     C4    5   0.693   0.157   0.093
    1UNL     C5    6   0.603   0.187  -0.010
    1UNL     C6    7   0.457   0.207   0.020
    1UNL     O2    8   0.430   0.250   0.134
    1UNL     O3    9   0.361   0.191  -0.077
    1UNL     C7   10   0.229   0.196  -0.030
    1UNL     C8   11   0.187   0.051   0.002
    1UNL     C9   12   0.221   0.008   0.152
    1UNL     O4   13   0.285  -0.131   0.136
    1UNL    C10   14   0.210  -0.187   0.021
    1UNL     O5   15   0.245  -0.312  -0.041
    1UNL    C11   16   0.068  -0.210   0.089
    1UNL    C12   17   0.012  -0.076   0.122
    1UNL    C13   18  -0.137  -0.074   0.165
    1UNL     O6   19   0.095  -0.010   0.221
    1UNL    C14   20   0.032   0.022  -0.016
    1UNL     O7   21  -0.052   0.139  -0.029
    1UNL    C15   22  -0.164   0.115  -0.107
    1UNL     O8   23  -0.209  -0.015  -0.105
    1UNL    C16   24  -0.320  -0.043  -0.187
    1UNL    C17   25  -0.383  -0.179  -0.149
    1UNL     O9   26  -0.438  -0.183  -0.022
    1UNL    C18   27  -0.570  -0.188  -0.032
    1UNL    O10   28  -0.635  -0.181  -0.135
    1UNL    C19   29  -0.647  -0.198   0.093
    1UNL    C20   30  -0.789  -0.188   0.100
    1UNL    C21   31  -0.855  -0.191   0.219
    1UNL    C22   32  -0.779  -0.191   0.338
    1UNL    C23   33  -0.638  -0.196   0.332
    1UNL    C24   34  -0.573  -0.195   0.207
    1UNL    C25   35  -0.425   0.071  -0.177
    1UNL    O11   36  -0.436   0.150  -0.300
    1UNL    C26   37  -0.407   0.159  -0.052
    1UNL    O12   38  -0.413   0.073   0.064
    1UNL    C27   39  -0.273   0.227  -0.062
    1UNL    O13   40  -0.274   0.339  -0.159
    1UNL    C28   41   0.068  -0.055  -0.142
    1UNL    C29   42   0.210  -0.074  -0.083
    1UNL    C30   43   0.647   0.158  -0.144
    1UNL    C31   44   0.777   0.133  -0.173
    1UNL     H1   45   1.071   0.010   0.081
    1UNL     H2   46   1.186   0.041  -0.052
    1UNL     H3   47   1.100   0.176   0.024
    1UNL     H4   48   0.891   0.128   0.147
    1UNL     H5   49   0.666   0.154   0.198
    1UNL     H6   50   0.220   0.274   0.046
    1UNL     H7   51   0.166   0.230  -0.114
    1UNL     H8   52   0.297   0.067   0.200
    1UNL     H9   53   0.335  -0.318  -0.056
    1UNL    H10   54   0.002  -0.277   0.025
    1UNL    H11   55   0.079  -0.263   0.182
    1UNL    H12   56  -0.156   0.006   0.238
    1UNL    H13   57  -0.158  -0.165   0.218
    1UNL    H14   58  -0.203  -0.063   0.083
    1UNL    H15   59  -0.144   0.130  -0.210
    1UNL    H16   60  -0.287  -0.040  -0.296
    1UNL    H17   61  -0.458  -0.196  -0.221
    1UNL    H18   62  -0.326  -0.272  -0.164
    1UNL    H19   63  -0.846  -0.188   0.004
    1UNL    H20   64  -0.962  -0.205   0.229
    1UNL    H21   65  -0.830  -0.207   0.435
    1UNL    H22   66  -0.588  -0.227   0.424
    1UNL    H23   67  -0.463  -0.212   0.200
    1UNL    H24   68  -0.525   0.028  -0.165
    1UNL    H25   69  -0.464   0.088  -0.363
    1UNL    H26   70  -0.485   0.235  -0.045
    1UNL    H27   71  -0.425  -0.014   0.029
    1UNL    H28   72  -0.246   0.259   0.030
    1UNL    H29   73  -0.340   0.308  -0.222
    1UNL    H30   74   0.077   0.015  -0.232
    1UNL    H31   75   0.006  -0.142  -0.161
    1UNL    H32   76   0.303  -0.075  -0.143
    1UNL    H33   77   0.573   0.166  -0.217
    1UNL    H34   78   0.814   0.118  -0.275
   0.00000   0.00000   0.00000   0.00000   0.00000   0.00000   0.00000   0.00000   0.00000
Generated with MDTraj, t= 62.0
 78
    1UNL     C1    1   1.092   0.103  -0.007
    1UNL     O1    2   1.005   0.125  -0.110
    1UNL     C2    3   0.872   0.139  -0.071
    1UNL     C3    4   0.830   0.157   0.058
    1UNL     C4    5   0.694   0.169   0.091
    1UNL     C5    6   0.603   0.182  -0.014
    1UNL     C6    7   0.458   0.191   0.021
    1UNL     O2    8   0.419   0.220   0.136
    1UNL     O3    9   0.377   0.155  -0.078
    1UNL     C7   10   0.236   0.169  -0.046
    1UNL     C8   11   0.187   0.035   0.002
    1UNL     C9   12   0.215  -0.012   0.150
    1UNL     O4   13   0.274  -0.138   0.141
    1UNL    C10   14   0.213  -0.208   0.034
    1UNL     O5   15   0.283  -0.321  -0.013
    1UNL    C11   16   0.066  -0.231   0.077
    1UNL    C12   17  -0.005  -0.089   0.099
    1UNL    C13   18  -0.149  -0.090   0.145
    1UNL     O6   19   0.078  -0.028   0.203
    1UNL    C14   20   0.032   0.011  -0.021
    1UNL     O7   21  -0.044   0.132  -0.020
    1UNL    C15   22  -0.153   0.109  -0.101
    1UNL     O8   23  -0.219  -0.014  -0.096
    1UNL    C16   24  -0.323  -0.034  -0.186
    1UNL    C17   25  -0.396  -0.168  -0.159
    1UNL     O9   26  -0.445  -0.186  -0.033
    1UNL    C18   27  -0.582  -0.181  -0.029
    1UNL    O10   28  -0.643  -0.162  -0.132
    1UNL    C19   29  -0.648  -0.180   0.097
    1UNL    C20   30  -0.791  -0.177   0.107
    1UNL    C21   31  -0.858  -0.186   0.227
    1UNL    C22   32  -0.775  -0.183   0.348
    1UNL    C23   33  -0.637  -0.186   0.346
    1UNL    C24   34  -0.575  -0.182   0.222
    1UNL    C25   35  -0.430   0.074  -0.181
    1UNL    O11   36  -0.431   0.154  -0.301
    1UNL    C26   37  -0.404   0.167  -0.056
    1UNL    O12   38  -0.433   0.086   0.061
    1UNL    C27   39  -0.262   0.222  -0.060
    1UNL    O13   40  -0.260   0.334  -0.150
    1UNL    C28   41   0.081  -0.059  -0.157
    1UNL    C29   42   0.215  -0.089  -0.083
    1UNL    C30   43   0.652   0.187  -0.143
    1UNL    C31   44   0.782   0.155  -0.172
    1UNL     H1   45   1.069   0.009   0.056
    1UNL     H2   46   1.192   0.093  -0.050
    1UNL     H3   47   1.077   0.192   0.059
    1UNL     H4   48   0.900   0.161   0.141
    1UNL     H5   49   0.662   0.164   0.194
    1UNL     H6   50   0.220   0.243   0.031
    1UNL     H7   51   0.184   0.209  -0.135
    1UNL     H8   52   0.274   0.057   0.207
    1UNL     H9   53   0.312  -0.388   0.050
    1UNL    H10   54   0.008  -0.288   0.000
    1UNL    H11   55   0.068  -0.297   0.163
    1UNL    H12   56  -0.198   0.004   0.119
    1UNL    H13   57  -0.160  -0.099   0.252
    1UNL    H14   58  -0.207  -0.165   0.095
    1UNL    H15   59  -0.124   0.116  -0.201
    1UNL    H16   60  -0.284  -0.038  -0.290
    1UNL    H17   61  -0.472  -0.192  -0.230
    1UNL    H18   62  -0.329  -0.255  -0.175
    1UNL    H19   63  -0.844  -0.140   0.025
    1UNL    H20   64  -0.966  -0.191   0.226
    1UNL    H21   65  -0.832  -0.186   0.435
    1UNL    H22   66  -0.580  -0.178   0.437
    1UNL    H23   67  -0.471  -0.189   0.214
    1UNL    H24   68  -0.530   0.030  -0.177
    1UNL    H25   69  -0.462   0.099  -0.368
    1UNL    H26   70  -0.477   0.246  -0.063
    1UNL    H27   71  -0.440  -0.016   0.043
    1UNL    H28   72  -0.231   0.249   0.034
    1UNL    H29   73  -0.304   0.310  -0.244
    1UNL    H30   74   0.090   0.021  -0.234
    1UNL    H31   75   0.031  -0.155  -0.182
    1UNL    H32   76   0.308  -0.093  -0.146
    1UNL    H33   77   0.576   0.181  -0.224
    1UNL    H34   78   0.830   0.174  -0.265
   0.00000   0.00000   0.00000   0.00000   0.00000   0.00000   0.00000   0.00000   0.00000
Generated with MDTraj, t= 63.0
 78
    1UNL     C1    1   1.111   0.135  -0.002
    1UNL     O1    2   1.017   0.185  -0.099
    1UNL     C2    3   0.879   0.169  -0.068
    1UNL     C3    4   0.833   0.173   0.067
    1UNL     C4    5   0.695   0.166   0.090
    1UNL     C5    6   0.601   0.171  -0.014
    1UNL     C6    7   0.456   0.164   0.014
    1UNL     O2    8   0.428   0.159   0.135
    1UNL     O3    9   0.376   0.162  -0.094
    1UNL     C7   10   0.240   0.153  -0.046
    1UNL     C8   11   0.182   0.018   0.004
    1UNL     C9   12   0.211  -0.021   0.151
    1UNL     O4   13   0.281  -0.144   0.139
    1UNL    C10   14   0.213  -0.217   0.028
    1UNL     O5   15   0.291  -0.330  -0.001
    1UNL    C11   16   0.068  -0.241   0.077
    1UNL    C12   17  -0.000  -0.100   0.114
    1UNL    C13   18  -0.140  -0.108   0.163
    1UNL     O6   19   0.081  -0.040   0.212
    1UNL    C14   20   0.027  -0.008  -0.016
    1UNL     O7   21  -0.044   0.119  -0.026
    1UNL    C15   22  -0.156   0.107  -0.112
    1UNL     O8   23  -0.222  -0.025  -0.120
    1UNL    C16   24  -0.340  -0.036  -0.197
    1UNL    C17   25  -0.400  -0.180  -0.169
    1UNL     O9   26  -0.453  -0.192  -0.035
    1UNL    C18   27  -0.583  -0.157  -0.026
    1UNL    O10   28  -0.651  -0.123  -0.122
    1UNL    C19   29  -0.648  -0.166   0.109
    1UNL    C20   30  -0.786  -0.163   0.113
    1UNL    C21   31  -0.852  -0.176   0.233
    1UNL    C22   32  -0.777  -0.181   0.353
    1UNL    C23   33  -0.636  -0.172   0.348
    1UNL    C24   34  -0.573  -0.182   0.225
    1UNL    C25   35  -0.444   0.082  -0.185
    1UNL    O11   36  -0.423   0.165  -0.303
    1UNL    C26   37  -0.413   0.173  -0.063
    1UNL    O12   38  -0.441   0.102   0.061
    1UNL    C27   39  -0.264   0.218  -0.070
    1UNL    O13   40  -0.261   0.330  -0.161
    1UNL    C28   41   0.071  -0.077  -0.156
    1UNL    C29   42   0.213  -0.105  -0.091
    1UNL    C30   43   0.642   0.178  -0.145
    1UNL    C31   44   0.783   0.174  -0.167
    1UNL     H1   45   1.065   0.040   0.047
    1UNL     H2   46   1.211   0.113  -0.047
    1UNL     H3   47   1.102   0.208   0.086
    1UNL     H4   48   0.905   0.166   0.146
    1UNL     H5   49   0.667   0.144   0.192
    1UNL     H6   50   0.223   0.234   0.023
    1UNL     H7   51   0.180   0.181  -0.134
    1UNL     H8   52   0.258   0.054   0.211
    1UNL     H9   53   0.373  -0.319   0.059
    1UNL    H10   54   0.010  -0.309   0.013
    1UNL    H11   55   0.081  -0.301   0.169
    1UNL    H12   56  -0.176  -0.007   0.173
    1UNL    H13   57  -0.154  -0.151   0.261
    1UNL    H14   58  -0.203  -0.154   0.087
    1UNL    H15   59  -0.127   0.120  -0.212
    1UNL    H16   60  -0.304  -0.036  -0.302
    1UNL    H17   61  -0.478  -0.199  -0.242
    1UNL    H18   62  -0.329  -0.266  -0.184
    1UNL    H19   63  -0.831  -0.148   0.012
    1UNL    H20   64  -0.958  -0.140   0.245
    1UNL    H21   65  -0.834  -0.175   0.450
    1UNL    H22   66  -0.576  -0.160   0.437
    1UNL    H23   67  -0.463  -0.176   0.207
    1UNL    H24   68  -0.549   0.050  -0.181
    1UNL    H25   69  -0.452   0.121  -0.386
    1UNL    H26   70  -0.468   0.266  -0.054
    1UNL    H27   71  -0.426   0.008   0.047
    1UNL    H28   72  -0.237   0.251   0.025
    1UNL    H29   73  -0.311   0.309  -0.235
    1UNL    H30   74   0.069  -0.006  -0.238
    1UNL    H31   75   0.005  -0.170  -0.167
    1UNL    H32   76   0.306  -0.096  -0.151
    1UNL    H33   77   0.575   0.192  -0.225
    1UNL    H34   78   0.808   0.156  -0.273
   0.00000   0.00000   0.00000   0.00000   0.00000   0.00000   0.00000   0.00000   0.00000
Generated with MDTraj, t= 64.0
 78
    1UNL     C1    1   1.107   0.197   0.007
    1UNL     O1    2   1.007   0.217  -0.093
    1UNL     C2    3   0.869   0.200  -0.061
    1UNL     C3    4   0.829   0.177   0.066
    1UNL     C4    5   0.696   0.150   0.090
    1UNL     C5    6   0.605   0.146  -0.015
    1UNL     C6    7   0.467   0.140   0.016
    1UNL     O2    8   0.424   0.151   0.130
    1UNL     O3    9   0.383   0.144  -0.091
    1UNL     C7   10   0.245   0.153  -0.049
    1UNL     C8   11   0.180   0.023   0.008
    1UNL     C9   12   0.220  -0.027   0.155
    1UNL     O4   13   0.279  -0.164   0.137
    1UNL    C10   14   0.200  -0.220   0.026
    1UNL     O5   15   0.249  -0.347  -0.030
    1UNL    C11   16   0.063  -0.242   0.087
    1UNL    C12   17   0.006  -0.107   0.115
    1UNL    C13   18  -0.141  -0.117   0.161
    1UNL     O6   19   0.094  -0.044   0.218
    1UNL    C14   20   0.032  -0.006  -0.012
    1UNL     O7   21  -0.045   0.110  -0.031
    1UNL    C15   22  -0.162   0.098  -0.111
    1UNL     O8   23  -0.231  -0.032  -0.105
    1UNL    C16   24  -0.341  -0.045  -0.198
    1UNL    C17   25  -0.416  -0.177  -0.161
    1UNL     O9   26  -0.467  -0.182  -0.030
    1UNL    C18   27  -0.593  -0.135  -0.029
    1UNL    O10   28  -0.663  -0.100  -0.126
    1UNL    C19   29  -0.654  -0.144   0.106
    1UNL    C20   30  -0.791  -0.138   0.122
    1UNL    C21   31  -0.847  -0.156   0.246
    1UNL    C22   32  -0.765  -0.177   0.359
    1UNL    C23   33  -0.624  -0.177   0.340
    1UNL    C24   34  -0.571  -0.172   0.212
    1UNL    C25   35  -0.433   0.081  -0.190
    1UNL    O11   36  -0.420   0.157  -0.314
    1UNL    C26   37  -0.400   0.166  -0.062
    1UNL    O12   38  -0.412   0.082   0.056
    1UNL    C27   39  -0.259   0.218  -0.074
    1UNL    O13   40  -0.241   0.310  -0.177
    1UNL    C28   41   0.073  -0.079  -0.144
    1UNL    C29   42   0.205  -0.104  -0.079
    1UNL    C30   43   0.645   0.171  -0.142
    1UNL    C31   44   0.783   0.191  -0.170
    1UNL     H1   45   1.072   0.103   0.065
    1UNL     H2   46   1.200   0.176  -0.046
    1UNL     H3   47   1.102   0.284   0.079
    1UNL     H4   48   0.902   0.167   0.143
    1UNL     H5   49   0.667   0.118   0.188
    1UNL     H6   50   0.245   0.222   0.034
    1UNL     H7   51   0.183   0.200  -0.127
    1UNL     H8   52   0.293   0.035   0.205
    1UNL     H9   53   0.352  -0.337  -0.024
    1UNL    H10   54   0.020  -0.302   0.007
    1UNL    H11   55   0.063  -0.309   0.179
    1UNL    H12   56  -0.183  -0.031   0.208
    1UNL    H13   57  -0.140  -0.193   0.238
    1UNL    H14   58  -0.207  -0.157   0.083
    1UNL    H15   59  -0.136   0.108  -0.213
    1UNL    H16   60  -0.278  -0.054  -0.286
    1UNL    H17   61  -0.496  -0.214  -0.228
    1UNL    H18   62  -0.335  -0.257  -0.168
    1UNL    H19   63  -0.846  -0.137   0.032
    1UNL    H20   64  -0.949  -0.143   0.251
    1UNL    H21   65  -0.796  -0.190   0.457
    1UNL    H22   66  -0.555  -0.203   0.421
    1UNL    H23   67  -0.470  -0.197   0.199
    1UNL    H24   68  -0.540   0.056  -0.181
    1UNL    H25   69  -0.453   0.105  -0.398
    1UNL    H26   70  -0.459   0.257  -0.056
    1UNL    H27   71  -0.368  -0.002   0.027
    1UNL    H28   72  -0.228   0.259   0.018
    1UNL    H29   73  -0.305   0.280  -0.249
    1UNL    H30   74   0.067  -0.014  -0.228
    1UNL    H31   75   0.010  -0.174  -0.158
    1UNL    H32   76   0.300  -0.096  -0.135
    1UNL    H33   77   0.568   0.169  -0.224
    1UNL    H34   78   0.821   0.186  -0.270
   0.00000   0.00000   0.00000   0.00000   0.00000   0.00000   0.00000   0.00000   0.00000
Generated with MDTraj, t= 65.0
 78
    1UNL     C1    1   1.094   0.266   0.006
    1UNL     O1    2   1.015   0.219  -0.100
    1UNL     C2    3   0.884   0.196  -0.061
    1UNL     C3    4   0.835   0.177   0.069
    1UNL     C4    5   0.698   0.157   0.097
    1UNL     C5    6   0.609   0.160  -0.008
    1UNL     C6    7   0.462   0.144   0.025
    1UNL     O2    8   0.427   0.160   0.139
    1UNL     O3    9   0.378   0.132  -0.079
    1UNL     C7   10   0.250   0.135  -0.042
    1UNL     C8   11   0.187  -0.002  -0.000
    1UNL     C9   12   0.221  -0.056   0.144
    1UNL     O4   13   0.274  -0.187   0.128
    1UNL    C10   14   0.194  -0.247   0.022
    1UNL     O5   15   0.249  -0.364  -0.035
    1UNL    C11   16   0.049  -0.256   0.076
    1UNL    C12   17  -0.002  -0.115   0.104
    1UNL    C13   18  -0.150  -0.105   0.144
    1UNL     O6   19   0.090  -0.069   0.207
    1UNL    C14   20   0.033  -0.016  -0.009
    1UNL     O7   21  -0.042   0.104  -0.010
    1UNL    C15   22  -0.157   0.100  -0.098
    1UNL     O8   23  -0.240  -0.022  -0.091
    1UNL    C16   24  -0.340  -0.033  -0.191
    1UNL    C17   25  -0.404  -0.163  -0.161
    1UNL     O9   26  -0.451  -0.174  -0.029
    1UNL    C18   27  -0.591  -0.145  -0.023
    1UNL    O10   28  -0.660  -0.107  -0.120
    1UNL    C19   29  -0.648  -0.149   0.108
    1UNL    C20   30  -0.781  -0.124   0.121
    1UNL    C21   31  -0.840  -0.123   0.252
    1UNL    C22   32  -0.762  -0.150   0.363
    1UNL    C23   33  -0.632  -0.187   0.346
    1UNL    C24   34  -0.572  -0.177   0.221
    1UNL    C25   35  -0.437   0.084  -0.193
    1UNL    O11   36  -0.428   0.148  -0.325
    1UNL    C26   37  -0.401   0.179  -0.074
    1UNL    O12   38  -0.426   0.107   0.050
    1UNL    C27   39  -0.257   0.220  -0.080
    1UNL    O13   40  -0.230   0.308  -0.178
    1UNL    C28   41   0.053  -0.103  -0.142
    1UNL    C29   42   0.193  -0.137  -0.095
    1UNL    C30   43   0.659   0.186  -0.138
    1UNL    C31   44   0.791   0.203  -0.169
    1UNL     H1   45   1.144   0.170   0.030
    1UNL     H2   46   1.159   0.337  -0.040
    1UNL     H3   47   1.034   0.301   0.092
    1UNL     H4   48   0.913   0.173   0.148
    1UNL     H5   49   0.667   0.159   0.201
    1UNL     H6   50   0.226   0.209   0.036
    1UNL     H7   51   0.207   0.168  -0.139
    1UNL     H8   52   0.285   0.017   0.195
    1UNL     H9   53   0.348  -0.368   0.000
    1UNL    H10   54  -0.019  -0.309   0.012
    1UNL    H11   55   0.064  -0.318   0.170
    1UNL    H12   56  -0.175  -0.003   0.155
    1UNL    H13   57  -0.166  -0.157   0.237
    1UNL    H14   58  -0.214  -0.145   0.066
    1UNL    H15   59  -0.115   0.107  -0.196
    1UNL    H16   60  -0.285  -0.043  -0.282
    1UNL    H17   61  -0.479  -0.190  -0.237
    1UNL    H18   62  -0.330  -0.248  -0.160
    1UNL    H19   63  -0.831  -0.087   0.030
    1UNL    H20   64  -0.953  -0.128   0.253
    1UNL    H21   65  -0.809  -0.148   0.466
    1UNL    H22   66  -0.577  -0.225   0.429
    1UNL    H23   67  -0.474  -0.224   0.202
    1UNL    H24   68  -0.538   0.038  -0.187
    1UNL    H25   69  -0.468   0.085  -0.399
    1UNL    H26   70  -0.459   0.273  -0.082
    1UNL    H27   71  -0.416   0.007   0.025
    1UNL    H28   72  -0.235   0.266   0.014
    1UNL    H29   73  -0.267   0.271  -0.270
    1UNL    H30   74   0.049  -0.047  -0.235
    1UNL    H31   75  -0.021  -0.187  -0.153
    1UNL    H32   76   0.278  -0.150  -0.166
    1UNL    H33   77   0.593   0.181  -0.217
    1UNL    H34   78   0.814   0.242  -0.268
   0.00000   0.00000   0.00000   0.00000   0.00000   0.00000   0.00000   0.00000   0.00000
Generated with MDTraj, t= 66.0
 78
    1UNL     C1    1   1.083   0.312  -0.001
    1UNL     O1    2   1.008   0.232  -0.096
    1UNL     C2    3   0.875   0.207  -0.055
    1UNL     C3    4   0.835   0.192   0.076
    1UNL     C4    5   0.700   0.164   0.105
    1UNL     C5    6   0.605   0.166   0.002
    1UNL     C6    7   0.465   0.142   0.028
    1UNL     O2    8   0.425   0.149   0.138
    1UNL     O3    9   0.379   0.113  -0.077
    1UNL     C7   10   0.244   0.115  -0.047
    1UNL     C8   11   0.180  -0.015  -0.002
    1UNL     C9   12   0.218  -0.071   0.143
    1UNL     O4   13   0.264  -0.200   0.120
    1UNL    C10   14   0.191  -0.261   0.002
    1UNL     O5   15   0.245  -0.377  -0.050
    1UNL    C11   16   0.040  -0.268   0.060
    1UNL    C12   17  -0.002  -0.121   0.114
    1UNL    C13   18  -0.149  -0.100   0.158
    1UNL     O6   19   0.088  -0.078   0.210
    1UNL    C14   20   0.024  -0.026  -0.016
    1UNL     O7   21  -0.037   0.099  -0.026
    1UNL    C15   22  -0.150   0.102  -0.108
    1UNL     O8   23  -0.217  -0.022  -0.106
    1UNL    C16   24  -0.334  -0.040  -0.195
    1UNL    C17   25  -0.401  -0.175  -0.161
    1UNL     O9   26  -0.449  -0.181  -0.026
    1UNL    C18   27  -0.585  -0.156  -0.020
    1UNL    O10   28  -0.656  -0.126  -0.114
    1UNL    C19   29  -0.646  -0.150   0.116
    1UNL    C20   30  -0.770  -0.101   0.129
    1UNL    C21   31  -0.833  -0.092   0.253
    1UNL    C22   32  -0.766  -0.132   0.368
    1UNL    C23   33  -0.640  -0.190   0.351
    1UNL    C24   34  -0.578  -0.188   0.230
    1UNL    C25   35  -0.428   0.084  -0.190
    1UNL    O11   36  -0.409   0.148  -0.317
    1UNL    C26   37  -0.395   0.190  -0.072
    1UNL    O12   38  -0.424   0.137   0.059
    1UNL    C27   39  -0.246   0.224  -0.083
    1UNL    O13   40  -0.224   0.317  -0.185
    1UNL    C28   41   0.050  -0.099  -0.151
    1UNL    C29   42   0.187  -0.145  -0.100
    1UNL    C30   43   0.647   0.171  -0.131
    1UNL    C31   44   0.777   0.209  -0.154
    1UNL     H1   45   1.079   0.257   0.090
    1UNL     H2   46   1.180   0.309  -0.041
    1UNL     H3   47   1.042   0.410   0.008
    1UNL     H4   48   0.902   0.218   0.151
    1UNL     H5   49   0.668   0.148   0.208
    1UNL     H6   50   0.240   0.184   0.040
    1UNL     H7   51   0.188   0.167  -0.127
    1UNL     H8   52   0.285  -0.015   0.213
    1UNL     H9   53   0.350  -0.372  -0.041
    1UNL    H10   54  -0.027  -0.304  -0.019
    1UNL    H11   55   0.044  -0.341   0.144
    1UNL    H12   56  -0.162   0.005   0.174
    1UNL    H13   57  -0.171  -0.152   0.250
    1UNL    H14   58  -0.220  -0.127   0.082
    1UNL    H15   59  -0.110   0.119  -0.209
    1UNL    H16   60  -0.291  -0.041  -0.292
    1UNL    H17   61  -0.487  -0.206  -0.218
    1UNL    H18   62  -0.325  -0.253  -0.178
    1UNL    H19   63  -0.825  -0.057   0.048
    1UNL    H20   64  -0.921  -0.037   0.262
    1UNL    H21   65  -0.818  -0.122   0.457
    1UNL    H22   66  -0.584  -0.234   0.436
    1UNL    H23   67  -0.475  -0.215   0.230
    1UNL    H24   68  -0.534   0.053  -0.181
    1UNL    H25   69  -0.446   0.097  -0.398
    1UNL    H26   70  -0.455   0.284  -0.080
    1UNL    H27   71  -0.439   0.044   0.052
    1UNL    H28   72  -0.211   0.278   0.007
    1UNL    H29   73  -0.274   0.303  -0.261
    1UNL    H30   74   0.050  -0.031  -0.240
    1UNL    H31   75  -0.021  -0.179  -0.167
    1UNL    H32   76   0.268  -0.133  -0.174
    1UNL    H33   77   0.570   0.151  -0.210
    1UNL    H34   78   0.808   0.232  -0.253
   0.00000   0.00000   0.00000   0.00000   0.00000   0.00000   0.00000   0.00000   0.00000
Generated with MDTraj, t= 67.0
 78
    1UNL     C1    1   1.071   0.326   0.013
    1UNL     O1    2   0.992   0.266  -0.097
    1UNL     C2    3   0.867   0.223  -0.053
    1UNL     C3    4   0.824   0.219   0.085
    1UNL     C4    5   0.694   0.199   0.112
    1UNL     C5    6   0.609   0.151   0.005
    1UNL     C6    7   0.462   0.130   0.027
    1UNL     O2    8   0.421   0.127   0.138
    1UNL     O3    9   0.382   0.116  -0.086
    1UNL     C7   10   0.246   0.122  -0.049
    1UNL     C8   11   0.187  -0.011  -0.006
    1UNL     C9   12   0.217  -0.077   0.137
    1UNL     O4   13   0.259  -0.221   0.117
    1UNL    C10   14   0.181  -0.262   0.005
    1UNL     O5   15   0.214  -0.389  -0.048
    1UNL    C11   16   0.033  -0.267   0.058
    1UNL    C12   17  -0.004  -0.122   0.088
    1UNL    C13   18  -0.142  -0.126   0.163
    1UNL     O6   19   0.090  -0.079   0.202
    1UNL    C14   20   0.033  -0.024  -0.032
    1UNL     O7   21  -0.031   0.105  -0.032
    1UNL    C15   22  -0.146   0.098  -0.114
    1UNL     O8   23  -0.217  -0.028  -0.101
    1UNL    C16   24  -0.329  -0.048  -0.188
    1UNL    C17   25  -0.398  -0.178  -0.153
    1UNL     O9   26  -0.453  -0.167  -0.021
    1UNL    C18   27  -0.586  -0.136  -0.020
    1UNL    O10   28  -0.649  -0.121  -0.121
    1UNL    C19   29  -0.648  -0.130   0.121
    1UNL    C20   30  -0.772  -0.072   0.142
    1UNL    C21   31  -0.822  -0.063   0.267
    1UNL    C22   32  -0.762  -0.129   0.367
    1UNL    C23   33  -0.642  -0.185   0.353
    1UNL    C24   34  -0.581  -0.190   0.224
    1UNL    C25   35  -0.418   0.083  -0.190
    1UNL    O11   36  -0.410   0.155  -0.314
    1UNL    C26   37  -0.392   0.172  -0.062
    1UNL    O12   38  -0.408   0.093   0.053
    1UNL    C27   39  -0.241   0.222  -0.077
    1UNL    O13   40  -0.229   0.310  -0.187
    1UNL    C28   41   0.067  -0.091  -0.166
    1UNL    C29   42   0.197  -0.138  -0.099
    1UNL    C30   43   0.647   0.143  -0.127
    1UNL    C31   44   0.775   0.180  -0.156
    1UNL     H1   45   1.103   0.247   0.075
    1UNL     H2   46   1.151   0.377  -0.033
    1UNL     H3   47   1.009   0.394   0.066
    1UNL     H4   48   0.885   0.259   0.169
    1UNL     H5   49   0.663   0.185   0.215
    1UNL     H6   50   0.234   0.205   0.024
    1UNL     H7   51   0.196   0.156  -0.141
    1UNL     H8   52   0.307  -0.031   0.188
    1UNL     H9   53   0.318  -0.397  -0.056
    1UNL    H10   54  -0.038  -0.311  -0.016
    1UNL    H11   55   0.049  -0.333   0.145
    1UNL    H12   56  -0.181  -0.030   0.197
    1UNL    H13   57  -0.137  -0.193   0.247
    1UNL    H14   58  -0.217  -0.166   0.101
    1UNL    H15   59  -0.104   0.112  -0.216
    1UNL    H16   60  -0.298  -0.052  -0.288
    1UNL    H17   61  -0.478  -0.195  -0.221
    1UNL    H18   62  -0.333  -0.264  -0.156
    1UNL    H19   63  -0.822  -0.037   0.052
    1UNL    H20   64  -0.900   0.015   0.287
    1UNL    H21   65  -0.803  -0.131   0.469
    1UNL    H22   66  -0.597  -0.235   0.433
    1UNL    H23   67  -0.480  -0.220   0.199
    1UNL    H24   68  -0.523   0.047  -0.191
    1UNL    H25   69  -0.445   0.105  -0.388
    1UNL    H26   70  -0.463   0.257  -0.047
    1UNL    H27   71  -0.348   0.008   0.049
    1UNL    H28   72  -0.208   0.271   0.019
    1UNL    H29   73  -0.271   0.263  -0.269
    1UNL    H30   74   0.071  -0.016  -0.253
    1UNL    H31   75   0.009  -0.176  -0.187
    1UNL    H32   76   0.290  -0.124  -0.155
    1UNL    H33   77   0.584   0.106  -0.202
    1UNL    H34   78   0.825   0.166  -0.250
   0.00000   0.00000   0.00000   0.00000   0.00000   0.00000   0.00000   0.00000   0.00000
Generated with MDTraj, t= 68.0
 78
    1UNL     C1    1   1.070   0.339   0.020
    1UNL     O1    2   1.002   0.279  -0.085
    1UNL     C2    3   0.875   0.236  -0.053
    1UNL     C3    4   0.810   0.253   0.077
    1UNL     C4    5   0.682   0.215   0.103
    1UNL     C5    6   0.613   0.147   0.005
    1UNL     C6    7   0.472   0.114   0.031
    1UNL     O2    8   0.423   0.122   0.139
    1UNL     O3    9   0.393   0.101  -0.083
    1UNL     C7   10   0.250   0.112  -0.047
    1UNL     C8   11   0.188  -0.021  -0.012
    1UNL     C9   12   0.218  -0.075   0.134
    1UNL     O4   13   0.267  -0.205   0.108
    1UNL    C10   14   0.188  -0.268   0.001
    1UNL     O5   15   0.232  -0.386  -0.052
    1UNL    C11   16   0.038  -0.277   0.063
    1UNL    C12   17  -0.001  -0.135   0.094
    1UNL    C13   18  -0.149  -0.130   0.158
    1UNL     O6   19   0.084  -0.085   0.189
    1UNL    C14   20   0.027  -0.038  -0.034
    1UNL     O7   21  -0.044   0.089  -0.029
    1UNL    C15   22  -0.157   0.084  -0.113
    1UNL     O8   23  -0.223  -0.035  -0.109
    1UNL    C16   24  -0.341  -0.045  -0.196
    1UNL    C17   25  -0.413  -0.176  -0.165
    1UNL     O9   26  -0.456  -0.184  -0.031
    1UNL    C18   27  -0.582  -0.132  -0.017
    1UNL    O10   28  -0.635  -0.086  -0.114
    1UNL    C19   29  -0.644  -0.134   0.121
    1UNL    C20   30  -0.765  -0.059   0.139
    1UNL    C21   31  -0.810  -0.037   0.263
    1UNL    C22   32  -0.756  -0.106   0.368
    1UNL    C23   33  -0.639  -0.183   0.355
    1UNL    C24   34  -0.581  -0.190   0.230
    1UNL    C25   35  -0.437   0.083  -0.185
    1UNL    O11   36  -0.424   0.152  -0.303
    1UNL    C26   37  -0.397   0.167  -0.060
    1UNL    O12   38  -0.417   0.092   0.055
    1UNL    C27   39  -0.249   0.204  -0.078
    1UNL    O13   40  -0.225   0.314  -0.172
    1UNL    C28   41   0.057  -0.101  -0.169
    1UNL    C29   42   0.192  -0.149  -0.109
    1UNL    C30   43   0.673   0.134  -0.119
    1UNL    C31   44   0.798   0.177  -0.144
    1UNL     H1   45   1.059   0.283   0.109
    1UNL     H2   46   1.174   0.343  -0.011
    1UNL     H3   47   1.038   0.442   0.021
    1UNL     H4   48   0.864   0.272   0.164
    1UNL     H5   49   0.616   0.241   0.186
    1UNL     H6   50   0.225   0.189   0.031
    1UNL     H7   51   0.202   0.150  -0.139
    1UNL     H8   52   0.285   0.001   0.186
    1UNL     H9   53   0.334  -0.377  -0.066
    1UNL    H10   54  -0.041  -0.312  -0.013
    1UNL    H11   55   0.030  -0.333   0.155
    1UNL    H12   56  -0.191  -0.030   0.145
    1UNL    H13   57  -0.157  -0.155   0.261
    1UNL    H14   58  -0.219  -0.187   0.104
    1UNL    H15   59  -0.116   0.107  -0.215
    1UNL    H16   60  -0.304  -0.052  -0.293
    1UNL    H17   61  -0.502  -0.200  -0.221
    1UNL    H18   62  -0.340  -0.254  -0.181
    1UNL    H19   63  -0.818  -0.001   0.065
    1UNL    H20   64  -0.900   0.017   0.278
    1UNL    H21   65  -0.802  -0.096   0.466
    1UNL    H22   66  -0.594  -0.229   0.447
    1UNL    H23   67  -0.500  -0.263   0.223
    1UNL    H24   68  -0.540   0.048  -0.179
    1UNL    H25   69  -0.481   0.112  -0.362
    1UNL    H26   70  -0.461   0.259  -0.052
    1UNL    H27   71  -0.429   0.000   0.033
    1UNL    H28   72  -0.220   0.238   0.028
    1UNL    H29   73  -0.285   0.310  -0.256
    1UNL    H30   74   0.064  -0.016  -0.243
    1UNL    H31   75  -0.005  -0.176  -0.210
    1UNL    H32   76   0.283  -0.146  -0.169
    1UNL    H33   77   0.615   0.076  -0.192
    1UNL    H34   78   0.851   0.133  -0.228
   0.00000   0.00000   0.00000   0.00000   0.00000   0.00000   0.00000   0.00000   0.00000
Generated with MDTraj, t= 69.0
 78
    1UNL     C1    1   1.079   0.352   0.027
    1UNL     O1    2   1.009   0.274  -0.066
    1UNL     C2    3   0.879   0.236  -0.040
    1UNL     C3    4   0.808   0.266   0.082
    1UNL     C4    5   0.675   0.236   0.092
    1UNL     C5    6   0.608   0.162  -0.004
    1UNL     C6    7   0.468   0.130   0.022
    1UNL     O2    8   0.414   0.141   0.126
    1UNL     O3    9   0.395   0.087  -0.086
    1UNL     C7   10   0.252   0.096  -0.051
    1UNL     C8   11   0.187  -0.030  -0.012
    1UNL     C9   12   0.217  -0.086   0.129
    1UNL     O4   13   0.275  -0.215   0.108
    1UNL    C10   14   0.203  -0.277  -0.006
    1UNL     O5   15   0.260  -0.394  -0.047
    1UNL    C11   16   0.050  -0.290   0.052
    1UNL    C12   17  -0.003  -0.138   0.091
    1UNL    C13   18  -0.146  -0.122   0.141
    1UNL     O6   19   0.089  -0.097   0.197
    1UNL    C14   20   0.030  -0.044  -0.031
    1UNL     O7   21  -0.044   0.075  -0.026
    1UNL    C15   22  -0.157   0.085  -0.113
    1UNL     O8   23  -0.236  -0.032  -0.110
    1UNL    C16   24  -0.350  -0.042  -0.196
    1UNL    C17   25  -0.429  -0.169  -0.172
    1UNL     O9   26  -0.468  -0.176  -0.039
    1UNL    C18   27  -0.607  -0.139  -0.022
    1UNL    O10   28  -0.674  -0.117  -0.118
    1UNL    C19   29  -0.651  -0.124   0.117
    1UNL    C20   30  -0.758  -0.037   0.146
    1UNL    C21   31  -0.802  -0.030   0.278
    1UNL    C22   32  -0.739  -0.098   0.375
    1UNL    C23   33  -0.633  -0.178   0.349
    1UNL    C24   34  -0.581  -0.184   0.223
    1UNL    C25   35  -0.431   0.086  -0.184
    1UNL    O11   36  -0.416   0.152  -0.305
    1UNL    C26   37  -0.396   0.167  -0.052
    1UNL    O12   38  -0.426   0.098   0.067
    1UNL    C27   39  -0.245   0.213  -0.069
    1UNL    O13   40  -0.237   0.325  -0.169
    1UNL    C28   41   0.057  -0.116  -0.167
    1UNL    C29   42   0.198  -0.154  -0.115
    1UNL    C30   43   0.675   0.129  -0.119
    1UNL    C31   44   0.805   0.160  -0.137
    1UNL     H1   45   1.123   0.289   0.104
    1UNL     H2   46   1.159   0.409  -0.030
    1UNL     H3   47   1.016   0.437   0.060
    1UNL     H4   48   0.853   0.322   0.167
    1UNL     H5   49   0.618   0.278   0.173
    1UNL     H6   50   0.242   0.184   0.019
    1UNL     H7   51   0.190   0.126  -0.137
    1UNL     H8   52   0.294  -0.021   0.182
    1UNL     H9   53   0.358  -0.385  -0.025
    1UNL    H10   54  -0.029  -0.347  -0.008
    1UNL    H11   55   0.066  -0.339   0.147
    1UNL    H12   56  -0.167  -0.017   0.150
    1UNL    H13   57  -0.162  -0.172   0.234
    1UNL    H14   58  -0.212  -0.156   0.062
    1UNL    H15   59  -0.106   0.105  -0.213
    1UNL    H16   60  -0.308  -0.046  -0.290
    1UNL    H17   61  -0.514  -0.162  -0.241
    1UNL    H18   62  -0.377  -0.265  -0.181
    1UNL    H19   63  -0.801   0.021   0.067
    1UNL    H20   64  -0.891   0.026   0.307
    1UNL    H21   65  -0.778  -0.082   0.473
    1UNL    H22   66  -0.587  -0.227   0.427
    1UNL    H23   67  -0.498  -0.239   0.189
    1UNL    H24   68  -0.539   0.063  -0.174
    1UNL    H25   69  -0.463   0.108  -0.375
    1UNL    H26   70  -0.467   0.253  -0.051
    1UNL    H27   71  -0.407   0.003   0.042
    1UNL    H28   72  -0.210   0.244   0.038
    1UNL    H29   73  -0.265   0.286  -0.247
    1UNL    H30   74   0.057  -0.045  -0.249
    1UNL    H31   75  -0.004  -0.203  -0.192
    1UNL    H32   76   0.274  -0.146  -0.193
    1UNL    H33   77   0.635   0.049  -0.179
    1UNL    H34   78   0.864   0.148  -0.226
   0.00000   0.00000   0.00000   0.00000   0.00000   0.00000   0.00000   0.00000   0.00000
Generated with MDTraj, t= 70.0
 78
    1UNL     C1    1   1.070   0.356   0.032
    1UNL     O1    2   1.009   0.259  -0.058
    1UNL     C2    3   0.872   0.224  -0.031
    1UNL     C3    4   0.805   0.265   0.088
    1UNL     C4    5   0.672   0.238   0.105
    1UNL     C5    6   0.598   0.174   0.003
    1UNL     C6    7   0.453   0.152   0.016
    1UNL     O2    8   0.398   0.179   0.117
    1UNL     O3    9   0.384   0.099  -0.093
    1UNL     C7   10   0.247   0.108  -0.068
    1UNL     C8   11   0.190  -0.027  -0.021
    1UNL     C9   12   0.227  -0.079   0.121
    1UNL     O4   13   0.276  -0.211   0.101
    1UNL    C10   14   0.199  -0.270  -0.001
    1UNL     O5   15   0.237  -0.402  -0.062
    1UNL    C11   16   0.057  -0.285   0.063
    1UNL    C12   17   0.008  -0.144   0.090
    1UNL    C13   18  -0.141  -0.143   0.136
    1UNL     O6   19   0.105  -0.094   0.187
    1UNL    C14   20   0.037  -0.050  -0.037
    1UNL     O7   21  -0.034   0.076  -0.035
    1UNL    C15   22  -0.152   0.072  -0.108
    1UNL     O8   23  -0.231  -0.049  -0.110
    1UNL    C16   24  -0.350  -0.043  -0.194
    1UNL    C17   25  -0.437  -0.169  -0.168
    1UNL     O9   26  -0.473  -0.172  -0.034
    1UNL    C18   27  -0.606  -0.141  -0.027
    1UNL    O10   28  -0.677  -0.107  -0.116
    1UNL    C19   29  -0.659  -0.129   0.114
    1UNL    C20   30  -0.763  -0.047   0.149
    1UNL    C21   31  -0.800  -0.028   0.277
    1UNL    C22   32  -0.721  -0.076   0.383
    1UNL    C23   33  -0.624  -0.164   0.347
    1UNL    C24   34  -0.598  -0.197   0.219
    1UNL    C25   35  -0.436   0.092  -0.177
    1UNL    O11   36  -0.418   0.164  -0.296
    1UNL    C26   37  -0.387   0.170  -0.052
    1UNL    O12   38  -0.412   0.095   0.062
    1UNL    C27   39  -0.228   0.198  -0.065
    1UNL    O13   40  -0.209   0.302  -0.164
    1UNL    C28   41   0.059  -0.131  -0.168
    1UNL    C29   42   0.202  -0.159  -0.109
    1UNL    C30   43   0.658   0.117  -0.110
    1UNL    C31   44   0.790   0.157  -0.130
    1UNL     H1   45   1.046   0.335   0.137
    1UNL     H2   46   1.187   0.364   0.029
    1UNL     H3   47   1.048   0.460  -0.005
    1UNL     H4   48   0.840   0.341   0.152
    1UNL     H5   49   0.618   0.269   0.196
    1UNL     H6   50   0.229   0.188   0.010
    1UNL     H7   51   0.205   0.156  -0.156
    1UNL     H8   52   0.309  -0.031   0.182
    1UNL     H9   53   0.330  -0.408  -0.089
    1UNL    H10   54  -0.007  -0.345  -0.007
    1UNL    H11   55   0.075  -0.344   0.155
    1UNL    H12   56  -0.154  -0.044   0.172
    1UNL    H13   57  -0.165  -0.216   0.211
    1UNL    H14   58  -0.207  -0.149   0.049
    1UNL    H15   59  -0.111   0.086  -0.214
    1UNL    H16   60  -0.309  -0.054  -0.288
    1UNL    H17   61  -0.535  -0.169  -0.223
    1UNL    H18   62  -0.379  -0.258  -0.200
    1UNL    H19   63  -0.828   0.002   0.076
    1UNL    H20   64  -0.879   0.043   0.302
    1UNL    H21   65  -0.734  -0.054   0.492
    1UNL    H22   66  -0.570  -0.220   0.429
    1UNL    H23   67  -0.502  -0.250   0.197
    1UNL    H24   68  -0.542   0.068  -0.161
    1UNL    H25   69  -0.479   0.125  -0.368
    1UNL    H26   70  -0.424   0.272  -0.035
    1UNL    H27   71  -0.421   0.003   0.032
    1UNL    H28   72  -0.189   0.250   0.035
    1UNL    H29   73  -0.280   0.278  -0.240
    1UNL    H30   74   0.057  -0.058  -0.243
    1UNL    H31   75  -0.020  -0.212  -0.172
    1UNL    H32   76   0.292  -0.149  -0.172
    1UNL    H33   77   0.588   0.066  -0.175
    1UNL    H34   78   0.840   0.127  -0.224
   0.00000   0.00000   0.00000   0.00000   0.00000   0.00000   0.00000   0.00000   0.00000
Generated with MDTraj, t= 71.0
 78
    1UNL     C1    1   1.053   0.334   0.036
    1UNL     O1    2   1.000   0.229  -0.041
    1UNL     C2    3   0.861   0.217  -0.024
    1UNL     C3    4   0.791   0.266   0.087
    1UNL     C4    5   0.654   0.255   0.104
    1UNL     C5    6   0.586   0.186   0.006
    1UNL     C6    7   0.438   0.162   0.018
    1UNL     O2    8   0.367   0.189   0.111
    1UNL     O3    9   0.382   0.107  -0.092
    1UNL     C7   10   0.246   0.092  -0.083
    1UNL     C8   11   0.189  -0.036  -0.035
    1UNL     C9   12   0.238  -0.081   0.108
    1UNL     O4   13   0.296  -0.212   0.096
    1UNL    C10   14   0.203  -0.274  -0.010
    1UNL     O5   15   0.250  -0.397  -0.064
    1UNL    C11   16   0.067  -0.288   0.052
    1UNL    C12   17   0.015  -0.147   0.093
    1UNL    C13   18  -0.127  -0.150   0.155
    1UNL     O6   19   0.116  -0.094   0.187
    1UNL    C14   20   0.034  -0.052  -0.035
    1UNL     O7   21  -0.031   0.072  -0.044
    1UNL    C15   22  -0.155   0.081  -0.111
    1UNL     O8   23  -0.231  -0.040  -0.101
    1UNL    C16   24  -0.342  -0.041  -0.189
    1UNL    C17   25  -0.425  -0.168  -0.161
    1UNL     O9   26  -0.461  -0.184  -0.026
    1UNL    C18   27  -0.584  -0.126  -0.017
    1UNL    O10   28  -0.654  -0.086  -0.108
    1UNL    C19   29  -0.637  -0.105   0.121
    1UNL    C20   30  -0.755  -0.032   0.145
    1UNL    C21   31  -0.804  -0.030   0.275
    1UNL    C22   32  -0.737  -0.091   0.378
    1UNL    C23   33  -0.624  -0.161   0.352
    1UNL    C24   34  -0.581  -0.176   0.221
    1UNL    C25   35  -0.432   0.085  -0.178
    1UNL    O11   36  -0.431   0.166  -0.300
    1UNL    C26   37  -0.387   0.160  -0.053
    1UNL    O12   38  -0.402   0.082   0.066
    1UNL    C27   39  -0.238   0.202  -0.075
    1UNL    O13   40  -0.225   0.302  -0.168
    1UNL    C28   41   0.050  -0.131  -0.174
    1UNL    C29   42   0.189  -0.164  -0.123
    1UNL    C30   43   0.652   0.135  -0.102
    1UNL    C31   44   0.785   0.151  -0.119
    1UNL     H1   45   1.102   0.296   0.128
    1UNL     H2   46   1.132   0.395  -0.025
    1UNL     H3   47   0.980   0.420   0.047
    1UNL     H4   48   0.854   0.323   0.156
    1UNL     H5   49   0.606   0.283   0.193
    1UNL     H6   50   0.207   0.173  -0.016
    1UNL     H7   51   0.206   0.118  -0.181
    1UNL     H8   52   0.293   0.005   0.151
    1UNL     H9   53   0.313  -0.431  -0.004
    1UNL    H10   54   0.005  -0.346  -0.015
    1UNL    H11   55   0.075  -0.337   0.154
    1UNL    H12   56  -0.182  -0.060   0.142
    1UNL    H13   57  -0.115  -0.172   0.261
    1UNL    H14   58  -0.184  -0.230   0.109
    1UNL    H15   59  -0.115   0.088  -0.218
    1UNL    H16   60  -0.303  -0.046  -0.284
    1UNL    H17   61  -0.512  -0.169  -0.234
    1UNL    H18   62  -0.363  -0.257  -0.181
    1UNL    H19   63  -0.800   0.003   0.055
    1UNL    H20   64  -0.896   0.014   0.302
    1UNL    H21   65  -0.772  -0.094   0.476
    1UNL    H22   66  -0.563  -0.200   0.427
    1UNL    H23   67  -0.509  -0.246   0.192
    1UNL    H24   68  -0.540   0.062  -0.175
    1UNL    H25   69  -0.487   0.123  -0.378
    1UNL    H26   70  -0.459   0.241  -0.042
    1UNL    H27   71  -0.394  -0.014   0.043
    1UNL    H28   72  -0.207   0.243   0.032
    1UNL    H29   73  -0.269   0.283  -0.253
    1UNL    H30   74   0.049  -0.055  -0.244
    1UNL    H31   75  -0.017  -0.219  -0.193
    1UNL    H32   76   0.258  -0.183  -0.207
    1UNL    H33   77   0.602   0.081  -0.182
    1UNL    H34   78   0.833   0.103  -0.201
   0.00000   0.00000   0.00000   0.00000   0.00000   0.00000   0.00000   0.00000   0.00000
Generated with MDTraj, t= 72.0
 78
    1UNL     C1    1   1.057   0.314   0.066
    1UNL     O1    2   0.994   0.232  -0.030
    1UNL     C2    3   0.858   0.218  -0.013
    1UNL     C3    4   0.779   0.267   0.088
    1UNL     C4    5   0.644   0.240   0.101
    1UNL     C5    6   0.577   0.169   0.002
    1UNL     C6    7   0.429   0.162  -0.001
    1UNL     O2    8   0.361   0.200   0.090
    1UNL     O3    9   0.363   0.123  -0.114
    1UNL     C7   10   0.229   0.110  -0.094
    1UNL     C8   11   0.191  -0.029  -0.033
    1UNL     C9   12   0.235  -0.082   0.107
    1UNL     O4   13   0.286  -0.210   0.076
    1UNL    C10   14   0.197  -0.275  -0.026
    1UNL     O5   15   0.269  -0.394  -0.065
    1UNL    C11   16   0.060  -0.286   0.050
    1UNL    C12   17   0.013  -0.144   0.094
    1UNL    C13   18  -0.121  -0.135   0.164
    1UNL     O6   19   0.118  -0.096   0.181
    1UNL    C14   20   0.033  -0.047  -0.030
    1UNL     O7   21  -0.028   0.080  -0.033
    1UNL    C15   22  -0.150   0.080  -0.111
    1UNL     O8   23  -0.227  -0.049  -0.115
    1UNL    C16   24  -0.341  -0.051  -0.196
    1UNL    C17   25  -0.425  -0.176  -0.162
    1UNL     O9   26  -0.459  -0.187  -0.021
    1UNL    C18   27  -0.582  -0.132  -0.001
    1UNL    O10   28  -0.654  -0.095  -0.095
    1UNL    C19   29  -0.634  -0.114   0.130
    1UNL    C20   30  -0.756  -0.044   0.147
    1UNL    C21   31  -0.812  -0.032   0.275
    1UNL    C22   32  -0.747  -0.094   0.382
    1UNL    C23   33  -0.624  -0.157   0.363
    1UNL    C24   34  -0.573  -0.174   0.237
    1UNL    C25   35  -0.426   0.081  -0.181
    1UNL    O11   36  -0.405   0.160  -0.305
    1UNL    C26   37  -0.380   0.165  -0.056
    1UNL    O12   38  -0.400   0.100   0.067
    1UNL    C27   39  -0.230   0.203  -0.075
    1UNL    O13   40  -0.220   0.300  -0.170
    1UNL    C28   41   0.047  -0.121  -0.167
    1UNL    C29   42   0.195  -0.156  -0.135
    1UNL    C30   43   0.653   0.128  -0.111
    1UNL    C31   44   0.795   0.138  -0.107
    1UNL     H1   45   1.013   0.304   0.166
    1UNL     H2   46   1.166   0.286   0.073
    1UNL     H3   47   1.057   0.418   0.031
    1UNL     H4   48   0.826   0.306   0.176
    1UNL     H5   49   0.583   0.293   0.179
    1UNL     H6   50   0.185   0.197  -0.042
    1UNL     H7   51   0.176   0.116  -0.188
    1UNL     H8   52   0.306  -0.017   0.157
    1UNL     H9   53   0.344  -0.397  -0.012
    1UNL    H10   54  -0.015  -0.332  -0.010
    1UNL    H11   55   0.066  -0.355   0.141
    1UNL    H12   56  -0.138  -0.035   0.201
    1UNL    H13   57  -0.120  -0.202   0.251
    1UNL    H14   58  -0.205  -0.160   0.102
    1UNL    H15   59  -0.104   0.094  -0.214
    1UNL    H16   60  -0.300  -0.062  -0.289
    1UNL    H17   61  -0.515  -0.190  -0.226
    1UNL    H18   62  -0.356  -0.258  -0.188
    1UNL    H19   63  -0.808   0.002   0.062
    1UNL    H20   64  -0.914   0.011   0.284
    1UNL    H21   65  -0.782  -0.074   0.487
    1UNL    H22   66  -0.557  -0.181   0.447
    1UNL    H23   67  -0.487  -0.246   0.234
    1UNL    H24   68  -0.534   0.060  -0.173
    1UNL    H25   69  -0.450   0.105  -0.379
    1UNL    H26   70  -0.434   0.260  -0.047
    1UNL    H27   71  -0.412  -0.003   0.054
    1UNL    H28   72  -0.185   0.261   0.021
    1UNL    H29   73  -0.276   0.277  -0.242
    1UNL    H30   74   0.041  -0.050  -0.245
    1UNL    H31   75  -0.033  -0.193  -0.186
    1UNL    H32   76   0.281  -0.161  -0.204
    1UNL    H33   77   0.607   0.061  -0.181
    1UNL    H34   78   0.850   0.096  -0.192
   0.00000   0.00000   0.00000   0.00000   0.00000   0.00000   0.00000   0.00000   0.00000
Generated with MDTraj, t= 73.0
 78
    1UNL     C1    1   1.065   0.286   0.103
    1UNL     O1    2   1.005   0.218  -0.004
    1UNL     C2    3   0.860   0.210  -0.005
    1UNL     C3    4   0.779   0.274   0.089
    1UNL     C4    5   0.644   0.253   0.089
    1UNL     C5    6   0.585   0.183  -0.010
    1UNL     C6    7   0.439   0.161  -0.007
    1UNL     O2    8   0.379   0.190   0.099
    1UNL     O3    9   0.381   0.111  -0.122
    1UNL     C7   10   0.241   0.104  -0.107
    1UNL     C8   11   0.190  -0.027  -0.044
    1UNL     C9   12   0.240  -0.070   0.093
    1UNL     O4   13   0.298  -0.201   0.072
    1UNL    C10   14   0.208  -0.263  -0.020
    1UNL     O5   15   0.250  -0.392  -0.073
    1UNL    C11   16   0.074  -0.279   0.059
    1UNL    C12   17   0.022  -0.134   0.088
    1UNL    C13   18  -0.121  -0.133   0.137
    1UNL     O6   19   0.121  -0.079   0.177
    1UNL    C14   20   0.034  -0.041  -0.044
    1UNL     O7   21  -0.034   0.082  -0.037
    1UNL    C15   22  -0.157   0.082  -0.107
    1UNL     O8   23  -0.223  -0.042  -0.095
    1UNL    C16   24  -0.336  -0.051  -0.185
    1UNL    C17   25  -0.424  -0.177  -0.142
    1UNL     O9   26  -0.469  -0.171  -0.002
    1UNL    C18   27  -0.599  -0.142  -0.000
    1UNL    O10   28  -0.666  -0.120  -0.103
    1UNL    C19   29  -0.655  -0.128   0.135
    1UNL    C20   30  -0.771  -0.059   0.157
    1UNL    C21   31  -0.820  -0.046   0.290
    1UNL    C22   32  -0.736  -0.090   0.394
    1UNL    C23   33  -0.617  -0.156   0.370
    1UNL    C24   34  -0.573  -0.177   0.239
    1UNL    C25   35  -0.425   0.079  -0.192
    1UNL    O11   36  -0.408   0.145  -0.321
    1UNL    C26   37  -0.391   0.173  -0.068
    1UNL    O12   38  -0.421   0.115   0.060
    1UNL    C27   39  -0.241   0.204  -0.072
    1UNL    O13   40  -0.224   0.301  -0.170
    1UNL    C28   41   0.046  -0.114  -0.180
    1UNL    C29   42   0.189  -0.151  -0.134
    1UNL    C30   43   0.652   0.128  -0.117
    1UNL    C31   44   0.794   0.142  -0.114
    1UNL     H1   45   1.049   0.226   0.191
    1UNL     H2   46   1.170   0.302   0.080
    1UNL     H3   47   1.021   0.381   0.122
    1UNL     H4   48   0.819   0.322   0.175
    1UNL     H5   49   0.588   0.287   0.169
    1UNL     H6   50   0.200   0.189  -0.049
    1UNL     H7   51   0.193   0.123  -0.202
    1UNL     H8   52   0.321  -0.008   0.128
    1UNL     H9   53   0.344  -0.394  -0.093
    1UNL    H10   54   0.005  -0.345   0.009
    1UNL    H11   55   0.108  -0.341   0.147
    1UNL    H12   56  -0.141  -0.035   0.180
    1UNL    H13   57  -0.135  -0.202   0.220
    1UNL    H14   58  -0.195  -0.156   0.063
    1UNL    H15   59  -0.123   0.093  -0.215
    1UNL    H16   60  -0.286  -0.066  -0.274
    1UNL    H17   61  -0.494  -0.187  -0.227
    1UNL    H18   62  -0.365  -0.266  -0.137
    1UNL    H19   63  -0.829  -0.034   0.073
    1UNL    H20   64  -0.905   0.012   0.310
    1UNL    H21   65  -0.758  -0.063   0.494
    1UNL    H22   66  -0.559  -0.184   0.459
    1UNL    H23   67  -0.474  -0.204   0.215
    1UNL    H24   68  -0.533   0.063  -0.179
    1UNL    H25   69  -0.442   0.087  -0.390
    1UNL    H26   70  -0.446   0.268  -0.069
    1UNL    H27   71  -0.438   0.022   0.051
    1UNL    H28   72  -0.201   0.255   0.030
    1UNL    H29   73  -0.281   0.258  -0.250
    1UNL    H30   74   0.039  -0.059  -0.276
    1UNL    H31   75  -0.017  -0.198  -0.171
    1UNL    H32   76   0.261  -0.138  -0.216
    1UNL    H33   77   0.606   0.077  -0.202
    1UNL    H34   78   0.857   0.084  -0.179
   0.00000   0.00000   0.00000   0.00000   0.00000   0.00000   0.00000   0.00000   0.00000
Generated with MDTraj, t= 74.0
 78
    1UNL     C1    1   1.093   0.255   0.117
    1UNL     O1    2   1.015   0.223   0.004
    1UNL     C2    3   0.872   0.210   0.007
    1UNL     C3    4   0.792   0.255   0.111
    1UNL     C4    5   0.650   0.245   0.096
    1UNL     C5    6   0.597   0.184  -0.013
    1UNL     C6    7   0.448   0.168  -0.012
    1UNL     O2    8   0.386   0.202   0.091
    1UNL     O3    9   0.393   0.108  -0.120
    1UNL     C7   10   0.251   0.115  -0.115
    1UNL     C8   11   0.197  -0.019  -0.063
    1UNL     C9   12   0.250  -0.059   0.082
    1UNL     O4   13   0.304  -0.191   0.072
    1UNL    C10   14   0.212  -0.257  -0.024
    1UNL     O5   15   0.239  -0.380  -0.087
    1UNL    C11   16   0.070  -0.264   0.053
    1UNL    C12   17   0.024  -0.123   0.082
    1UNL    C13   18  -0.119  -0.116   0.140
    1UNL     O6   19   0.130  -0.065   0.166
    1UNL    C14   20   0.034  -0.037  -0.051
    1UNL     O7   21  -0.033   0.090  -0.049
    1UNL    C15   22  -0.163   0.074  -0.117
    1UNL     O8   23  -0.242  -0.045  -0.088
    1UNL    C16   24  -0.355  -0.058  -0.173
    1UNL    C17   25  -0.431  -0.185  -0.137
    1UNL     O9   26  -0.472  -0.175  -0.001
    1UNL    C18   27  -0.598  -0.148   0.004
    1UNL    O10   28  -0.668  -0.119  -0.093
    1UNL    C19   29  -0.654  -0.131   0.141
    1UNL    C20   30  -0.777  -0.072   0.165
    1UNL    C21   31  -0.826  -0.056   0.294
    1UNL    C22   32  -0.750  -0.099   0.401
    1UNL    C23   33  -0.621  -0.152   0.386
    1UNL    C24   34  -0.571  -0.159   0.256
    1UNL    C25   35  -0.444   0.072  -0.196
    1UNL    O11   36  -0.432   0.133  -0.329
    1UNL    C26   37  -0.407   0.166  -0.076
    1UNL    O12   38  -0.433   0.106   0.051
    1UNL    C27   39  -0.254   0.193  -0.083
    1UNL    O13   40  -0.235   0.301  -0.172
    1UNL    C28   41   0.050  -0.113  -0.189
    1UNL    C29   42   0.194  -0.152  -0.141
    1UNL    C30   43   0.677   0.133  -0.112
    1UNL    C31   44   0.812   0.147  -0.102
    1UNL     H1   45   1.025   0.263   0.201
    1UNL     H2   46   1.166   0.179   0.130
    1UNL     H3   47   1.136   0.349   0.115
    1UNL     H4   48   0.826   0.324   0.189
    1UNL     H5   49   0.574   0.242   0.180
    1UNL     H6   50   0.217   0.195  -0.048
    1UNL     H7   51   0.210   0.142  -0.210
    1UNL     H8   52   0.309   0.015   0.134
    1UNL     H9   53   0.258  -0.446  -0.010
    1UNL    H10   54  -0.012  -0.316   0.001
    1UNL    H11   55   0.090  -0.318   0.144
    1UNL    H12   56  -0.156  -0.012   0.158
    1UNL    H13   57  -0.128  -0.167   0.235
    1UNL    H14   58  -0.180  -0.170   0.069
    1UNL    H15   59  -0.141   0.080  -0.226
    1UNL    H16   60  -0.302  -0.089  -0.259
    1UNL    H17   61  -0.518  -0.207  -0.200
    1UNL    H18   62  -0.363  -0.265  -0.153
    1UNL    H19   63  -0.840  -0.040   0.077
    1UNL    H20   64  -0.930  -0.018   0.308
    1UNL    H21   65  -0.798  -0.101   0.500
    1UNL    H22   66  -0.556  -0.184   0.461
    1UNL    H23   67  -0.465  -0.185   0.240
    1UNL    H24   68  -0.551   0.049  -0.187
    1UNL    H25   69  -0.470   0.079  -0.393
    1UNL    H26   70  -0.471   0.256  -0.084
    1UNL    H27   71  -0.406   0.007   0.038
    1UNL    H28   72  -0.219   0.231   0.026
    1UNL    H29   73  -0.276   0.278  -0.252
    1UNL    H30   74   0.046  -0.045  -0.280
    1UNL    H31   75   0.001  -0.205  -0.187
    1UNL    H32   76   0.273  -0.146  -0.217
    1UNL    H33   77   0.636   0.083  -0.196
    1UNL    H34   78   0.867   0.106  -0.187
   0.00000   0.00000   0.00000   0.00000   0.00000   0.00000   0.00000   0.00000   0.00000
Generated with MDTraj, t= 75.0
 78
    1UNL     C1    1   1.088   0.224   0.132
    1UNL     O1    2   1.020   0.208   0.009
    1UNL     C2    3   0.881   0.198   0.014
    1UNL     C3    4   0.798   0.246   0.113
    1UNL     C4    5   0.662   0.230   0.103
    1UNL     C5    6   0.603   0.182  -0.007
    1UNL     C6    7   0.455   0.167  -0.006
    1UNL     O2    8   0.389   0.223   0.085
    1UNL     O3    9   0.397   0.113  -0.116
    1UNL     C7   10   0.257   0.123  -0.117
    1UNL     C8   11   0.196  -0.005  -0.064
    1UNL     C9   12   0.237  -0.051   0.087
    1UNL     O4   13   0.279  -0.187   0.064
    1UNL    C10   14   0.201  -0.249  -0.037
    1UNL     O5   15   0.256  -0.368  -0.074
    1UNL    C11   16   0.057  -0.256   0.031
    1UNL    C12   17   0.020  -0.112   0.073
    1UNL    C13   18  -0.117  -0.097   0.147
    1UNL     O6   19   0.120  -0.058   0.162
    1UNL    C14   20   0.032  -0.024  -0.059
    1UNL     O7   21  -0.039   0.097  -0.068
    1UNL    C15   22  -0.163   0.082  -0.129
    1UNL     O8   23  -0.230  -0.045  -0.112
    1UNL    C16   24  -0.353  -0.071  -0.183
    1UNL    C17   25  -0.426  -0.199  -0.127
    1UNL     O9   26  -0.465  -0.180   0.011
    1UNL    C18   27  -0.595  -0.146   0.015
    1UNL    O10   28  -0.661  -0.105  -0.082
    1UNL    C19   29  -0.654  -0.137   0.150
    1UNL    C20   30  -0.785  -0.094   0.166
    1UNL    C21   31  -0.835  -0.065   0.292
    1UNL    C22   32  -0.763  -0.104   0.406
    1UNL    C23   33  -0.629  -0.145   0.394
    1UNL    C24   34  -0.576  -0.152   0.263
    1UNL    C25   35  -0.441   0.061  -0.184
    1UNL    O11   36  -0.436   0.117  -0.310
    1UNL    C26   37  -0.401   0.154  -0.065
    1UNL    O12   38  -0.407   0.092   0.062
    1UNL    C27   39  -0.256   0.199  -0.096
    1UNL    O13   40  -0.272   0.293  -0.203
    1UNL    C28   41   0.048  -0.099  -0.191
    1UNL    C29   42   0.201  -0.138  -0.152
    1UNL    C30   43   0.687   0.134  -0.109
    1UNL    C31   44   0.825   0.149  -0.105
    1UNL     H1   45   1.087   0.127   0.181
    1UNL     H2   46   1.185   0.251   0.107
    1UNL     H3   47   1.045   0.284   0.207
    1UNL     H4   48   0.832   0.281   0.208
    1UNL     H5   49   0.608   0.286   0.174
    1UNL     H6   50   0.220   0.209  -0.061
    1UNL     H7   51   0.227   0.129  -0.220
    1UNL     H8   52   0.315   0.013   0.126
    1UNL     H9   53   0.358  -0.356  -0.057
    1UNL    H10   54  -0.021  -0.296  -0.040
    1UNL    H11   55   0.052  -0.319   0.115
    1UNL    H12   56  -0.128   0.009   0.175
    1UNL    H13   57  -0.112  -0.144   0.244
    1UNL    H14   58  -0.200  -0.139   0.090
    1UNL    H15   59  -0.136   0.086  -0.235
    1UNL    H16   60  -0.334  -0.096  -0.285
    1UNL    H17   61  -0.512  -0.223  -0.194
    1UNL    H18   62  -0.373  -0.290  -0.123
    1UNL    H19   63  -0.838  -0.075   0.079
    1UNL    H20   64  -0.937  -0.052   0.308
    1UNL    H21   65  -0.813  -0.106   0.502
    1UNL    H22   66  -0.573  -0.164   0.493
    1UNL    H23   67  -0.477  -0.191   0.251
    1UNL    H24   68  -0.546   0.030  -0.175
    1UNL    H25   69  -0.479   0.059  -0.369
    1UNL    H26   70  -0.460   0.249  -0.065
    1UNL    H27   71  -0.448   0.004   0.050
    1UNL    H28   72  -0.210   0.247   0.003
    1UNL    H29   73  -0.318   0.245  -0.279
    1UNL    H30   74   0.043  -0.042  -0.286
    1UNL    H31   75  -0.002  -0.189  -0.206
    1UNL    H32   76   0.286  -0.143  -0.224
    1UNL    H33   77   0.643   0.090  -0.202
    1UNL    H34   78   0.890   0.145  -0.189
   0.00000   0.00000   0.00000   0.00000   0.00000   0.00000   0.00000   0.00000   0.00000
Generated with MDTraj, t= 76.0
 78
    1UNL     C1    1   1.076   0.204   0.142
    1UNL     O1    2   1.019   0.177   0.015
    1UNL     C2    3   0.881   0.190   0.006
    1UNL     C3    4   0.804   0.220   0.117
    1UNL     C4    5   0.664   0.218   0.116
    1UNL     C5    6   0.598   0.168   0.001
    1UNL     C6    7   0.454   0.175  -0.009
    1UNL     O2    8   0.391   0.217   0.092
    1UNL     O3    9   0.396   0.146  -0.134
    1UNL     C7   10   0.254   0.133  -0.126
    1UNL     C8   11   0.196   0.005  -0.062
    1UNL     C9   12   0.235  -0.035   0.086
    1UNL     O4   13   0.285  -0.176   0.070
    1UNL    C10   14   0.202  -0.236  -0.030
    1UNL     O5   15   0.255  -0.361  -0.071
    1UNL    C11   16   0.057  -0.248   0.028
    1UNL    C12   17   0.011  -0.104   0.064
    1UNL    C13   18  -0.124  -0.108   0.132
    1UNL     O6   19   0.108  -0.041   0.157
    1UNL    C14   20   0.039  -0.014  -0.066
    1UNL     O7   21  -0.042   0.099  -0.078
    1UNL    C15   22  -0.158   0.080  -0.146
    1UNL     O8   23  -0.224  -0.044  -0.118
    1UNL    C16   24  -0.349  -0.069  -0.180
    1UNL    C17   25  -0.408  -0.188  -0.115
    1UNL     O9   26  -0.452  -0.181   0.023
    1UNL    C18   27  -0.588  -0.154   0.027
    1UNL    O10   28  -0.655  -0.153  -0.075
    1UNL    C19   29  -0.644  -0.129   0.154
    1UNL    C20   30  -0.781  -0.098   0.166
    1UNL    C21   31  -0.842  -0.087   0.288
    1UNL    C22   32  -0.771  -0.115   0.404
    1UNL    C23   33  -0.636  -0.142   0.393
    1UNL    C24   34  -0.570  -0.146   0.272
    1UNL    C25   35  -0.440   0.056  -0.178
    1UNL    O11   36  -0.464   0.113  -0.304
    1UNL    C26   37  -0.400   0.159  -0.061
    1UNL    O12   38  -0.401   0.109   0.073
    1UNL    C27   39  -0.252   0.207  -0.107
    1UNL    O13   40  -0.267   0.294  -0.222
    1UNL    C28   41   0.061  -0.094  -0.195
    1UNL    C29   42   0.201  -0.129  -0.140
    1UNL    C30   43   0.673   0.138  -0.114
    1UNL    C31   44   0.813   0.150  -0.109
    1UNL     H1   45   1.018   0.158   0.226
    1UNL     H2   46   1.174   0.168   0.141
    1UNL     H3   47   1.077   0.308   0.170
    1UNL     H4   48   0.862   0.253   0.203
    1UNL     H5   49   0.604   0.235   0.207
    1UNL     H6   50   0.214   0.223  -0.077
    1UNL     H7   51   0.218   0.133  -0.228
    1UNL     H8   52   0.316   0.026   0.128
    1UNL     H9   53   0.357  -0.360  -0.068
    1UNL    H10   54  -0.005  -0.297  -0.053
    1UNL    H11   55   0.062  -0.313   0.111
    1UNL    H12   56  -0.158  -0.003   0.137
    1UNL    H13   57  -0.125  -0.139   0.237
    1UNL    H14   58  -0.196  -0.167   0.073
    1UNL    H15   59  -0.136   0.088  -0.252
    1UNL    H16   60  -0.318  -0.081  -0.284
    1UNL    H17   61  -0.503  -0.223  -0.165
    1UNL    H18   62  -0.338  -0.267  -0.127
    1UNL    H19   63  -0.844  -0.106   0.073
    1UNL    H20   64  -0.945  -0.047   0.281
    1UNL    H21   65  -0.818  -0.097   0.498
    1UNL    H22   66  -0.580  -0.157   0.476
    1UNL    H23   67  -0.463  -0.161   0.265
    1UNL    H24   68  -0.542   0.032  -0.145
    1UNL    H25   69  -0.522   0.053  -0.358
    1UNL    H26   70  -0.467   0.249  -0.065
    1UNL    H27   71  -0.396   0.010   0.073
    1UNL    H28   72  -0.201   0.264  -0.018
    1UNL    H29   73  -0.333   0.248  -0.288
    1UNL    H30   74   0.068  -0.057  -0.300
    1UNL    H31   75   0.001  -0.181  -0.213
    1UNL    H32   76   0.285  -0.137  -0.212
    1UNL    H33   77   0.620   0.103  -0.197
    1UNL    H34   78   0.868   0.148  -0.203
   0.00000   0.00000   0.00000   0.00000   0.00000   0.00000   0.00000   0.00000   0.00000
Generated with MDTraj, t= 77.0
 78
    1UNL     C1    1   1.074   0.185   0.133
    1UNL     O1    2   1.008   0.145   0.016
    1UNL     C2    3   0.867   0.160   0.011
    1UNL     C3    4   0.793   0.197   0.127
    1UNL     C4    5   0.660   0.209   0.118
    1UNL     C5    6   0.591   0.176  -0.005
    1UNL     C6    7   0.442   0.183  -0.012
    1UNL     O2    8   0.383   0.214   0.096
    1UNL     O3    9   0.392   0.153  -0.132
    1UNL     C7   10   0.249   0.147  -0.128
    1UNL     C8   11   0.196   0.016  -0.060
    1UNL     C9   12   0.244  -0.028   0.090
    1UNL     O4   13   0.296  -0.162   0.085
    1UNL    C10   14   0.217  -0.223  -0.019
    1UNL     O5   15   0.265  -0.348  -0.079
    1UNL    C11   16   0.075  -0.245   0.045
    1UNL    C12   17   0.017  -0.096   0.070
    1UNL    C13   18  -0.119  -0.100   0.130
    1UNL     O6   19   0.114  -0.036   0.162
    1UNL    C14   20   0.037  -0.014  -0.067
    1UNL     O7   21  -0.034   0.115  -0.083
    1UNL    C15   22  -0.154   0.093  -0.144
    1UNL     O8   23  -0.224  -0.029  -0.113
    1UNL    C16   24  -0.354  -0.055  -0.180
    1UNL    C17   25  -0.407  -0.179  -0.118
    1UNL     O9   26  -0.442  -0.172   0.021
    1UNL    C18   27  -0.581  -0.175   0.026
    1UNL    O10   28  -0.658  -0.193  -0.067
    1UNL    C19   29  -0.646  -0.151   0.161
    1UNL    C20   30  -0.780  -0.131   0.167
    1UNL    C21   31  -0.839  -0.099   0.288
    1UNL    C22   32  -0.762  -0.100   0.404
    1UNL    C23   33  -0.628  -0.134   0.391
    1UNL    C24   34  -0.570  -0.164   0.273
    1UNL    C25   35  -0.462   0.066  -0.174
    1UNL    O11   36  -0.473   0.113  -0.305
    1UNL    C26   37  -0.399   0.170  -0.078
    1UNL    O12   38  -0.393   0.115   0.045
    1UNL    C27   39  -0.258   0.211  -0.125
    1UNL    O13   40  -0.270   0.299  -0.233
    1UNL    C28   41   0.062  -0.097  -0.194
    1UNL    C29   42   0.203  -0.123  -0.137
    1UNL    C30   43   0.666   0.139  -0.115
    1UNL    C31   44   0.799   0.143  -0.110
    1UNL     H1   45   1.070   0.111   0.220
    1UNL     H2   46   1.175   0.202   0.102
    1UNL     H3   47   1.032   0.280   0.174
    1UNL     H4   48   0.850   0.194   0.217
    1UNL     H5   49   0.609   0.205   0.213
    1UNL     H6   50   0.214   0.237  -0.072
    1UNL     H7   51   0.216   0.154  -0.231
    1UNL     H8   52   0.298   0.039   0.160
    1UNL     H9   53   0.360  -0.364  -0.063
    1UNL    H10   54   0.021  -0.304  -0.028
    1UNL    H11   55   0.090  -0.297   0.140
    1UNL    H12   56  -0.173  -0.008   0.114
    1UNL    H13   57  -0.115  -0.108   0.241
    1UNL    H14   58  -0.172  -0.183   0.082
    1UNL    H15   59  -0.133   0.093  -0.248
    1UNL    H16   60  -0.332  -0.078  -0.285
    1UNL    H17   61  -0.494  -0.228  -0.176
    1UNL    H18   62  -0.333  -0.259  -0.112
    1UNL    H19   63  -0.833  -0.134   0.079
    1UNL    H20   64  -0.935  -0.057   0.301
    1UNL    H21   65  -0.806  -0.054   0.495
    1UNL    H22   66  -0.566  -0.120   0.485
    1UNL    H23   67  -0.464  -0.173   0.255
    1UNL    H24   68  -0.556   0.023  -0.134
    1UNL    H25   69  -0.546   0.052  -0.348
    1UNL    H26   70  -0.464   0.260  -0.074
    1UNL    H27   71  -0.363   0.021   0.038
    1UNL    H28   72  -0.215   0.265  -0.030
    1UNL    H29   73  -0.334   0.270  -0.291
    1UNL    H30   74   0.058  -0.029  -0.278
    1UNL    H31   75  -0.006  -0.180  -0.218
    1UNL    H32   76   0.299  -0.125  -0.191
    1UNL    H33   77   0.617   0.130  -0.216
    1UNL    H34   78   0.848   0.095  -0.192
   0.00000   0.00000   0.00000   0.00000   0.00000   0.00000   0.00000   0.00000   0.00000
Generated with MDTraj, t= 78.0
 78
    1UNL     C1    1   1.076   0.161   0.124
    1UNL     O1    2   1.001   0.130   0.008
    1UNL     C2    3   0.866   0.136   0.018
    1UNL     C3    4   0.785   0.175   0.128
    1UNL     C4    5   0.651   0.188   0.111
    1UNL     C5    6   0.584   0.170  -0.011
    1UNL     C6    7   0.443   0.198  -0.010
    1UNL     O2    8   0.385   0.251   0.088
    1UNL     O3    9   0.384   0.150  -0.121
    1UNL     C7   10   0.242   0.155  -0.109
    1UNL     C8   11   0.187   0.028  -0.058
    1UNL     C9   12   0.230  -0.013   0.093
    1UNL     O4   13   0.293  -0.146   0.075
    1UNL    C10   14   0.216  -0.213  -0.022
    1UNL     O5   15   0.282  -0.335  -0.067
    1UNL    C11   16   0.075  -0.234   0.046
    1UNL    C12   17   0.015  -0.088   0.081
    1UNL    C13   18  -0.121  -0.081   0.140
    1UNL     O6   19   0.111  -0.025   0.170
    1UNL    C14   20   0.033   0.002  -0.056
    1UNL     O7   21  -0.043   0.116  -0.067
    1UNL    C15   22  -0.161   0.092  -0.135
    1UNL     O8   23  -0.231  -0.037  -0.111
    1UNL    C16   24  -0.348  -0.067  -0.182
    1UNL    C17   25  -0.417  -0.188  -0.131
    1UNL     O9   26  -0.449  -0.172   0.005
    1UNL    C18   27  -0.588  -0.184   0.020
    1UNL    O10   28  -0.662  -0.211  -0.070
    1UNL    C19   29  -0.642  -0.150   0.151
    1UNL    C20   30  -0.779  -0.139   0.169
    1UNL    C21   31  -0.824  -0.120   0.294
    1UNL    C22   32  -0.737  -0.106   0.400
    1UNL    C23   33  -0.603  -0.124   0.384
    1UNL    C24   34  -0.555  -0.146   0.259
    1UNL    C25   35  -0.440   0.059  -0.176
    1UNL    O11   36  -0.468   0.108  -0.312
    1UNL    C26   37  -0.398   0.164  -0.070
    1UNL    O12   38  -0.405   0.118   0.062
    1UNL    C27   39  -0.262   0.218  -0.121
    1UNL    O13   40  -0.256   0.282  -0.245
    1UNL    C28   41   0.058  -0.080  -0.197
    1UNL    C29   42   0.202  -0.103  -0.143
    1UNL    C30   43   0.665   0.138  -0.120
    1UNL    C31   44   0.802   0.118  -0.108
    1UNL     H1   45   1.048   0.107   0.221
    1UNL     H2   46   1.182   0.148   0.098
    1UNL     H3   47   1.058   0.272   0.146
    1UNL     H4   48   0.833   0.171   0.224
    1UNL     H5   49   0.581   0.217   0.191
    1UNL     H6   50   0.224   0.238  -0.036
    1UNL     H7   51   0.205   0.181  -0.207
    1UNL     H8   52   0.303   0.060   0.132
    1UNL     H9   53   0.348  -0.339  -0.001
    1UNL    H10   54   0.012  -0.295  -0.012
    1UNL    H11   55   0.092  -0.275   0.148
    1UNL    H12   56  -0.142   0.025   0.159
    1UNL    H13   57  -0.118  -0.123   0.245
    1UNL    H14   58  -0.196  -0.120   0.071
    1UNL    H15   59  -0.129   0.095  -0.235
    1UNL    H16   60  -0.315  -0.087  -0.286
    1UNL    H17   61  -0.516  -0.225  -0.177
    1UNL    H18   62  -0.349  -0.273  -0.141
    1UNL    H19   63  -0.846  -0.139   0.080
    1UNL    H20   64  -0.931  -0.128   0.304
    1UNL    H21   65  -0.768  -0.099   0.501
    1UNL    H22   66  -0.526  -0.109   0.457
    1UNL    H23   67  -0.454  -0.177   0.240
    1UNL    H24   68  -0.539   0.023  -0.139
    1UNL    H25   69  -0.526   0.042  -0.370
    1UNL    H26   70  -0.468   0.250  -0.074
    1UNL    H27   71  -0.428   0.023   0.057
    1UNL    H28   72  -0.214   0.293  -0.048
    1UNL    H29   73  -0.311   0.230  -0.313
    1UNL    H30   74   0.063  -0.021  -0.285
    1UNL    H31   75   0.006  -0.181  -0.208
    1UNL    H32   76   0.273  -0.117  -0.227
    1UNL    H33   77   0.600   0.118  -0.199
    1UNL    H34   78   0.874   0.113  -0.189
   0.00000   0.00000   0.00000   0.00000   0.00000   0.00000   0.00000   0.00000   0.00000
Generated with MDTraj, t= 79.0
 78
    1UNL     C1    1   1.079   0.125   0.126
    1UNL     O1    2   1.002   0.103   0.010
    1UNL     C2    3   0.863   0.125   0.010
    1UNL     C3    4   0.788   0.175   0.122
    1UNL     C4    5   0.658   0.195   0.105
    1UNL     C5    6   0.588   0.188  -0.018
    1UNL     C6    7   0.445   0.201  -0.016
    1UNL     O2    8   0.395   0.242   0.090
    1UNL     O3    9   0.377   0.160  -0.127
    1UNL     C7   10   0.235   0.162  -0.103
    1UNL     C8   11   0.191   0.034  -0.044
    1UNL     C9   12   0.233  -0.005   0.101
    1UNL     O4   13   0.302  -0.129   0.082
    1UNL    C10   14   0.221  -0.203  -0.009
    1UNL     O5   15   0.276  -0.327  -0.049
    1UNL    C11   16   0.083  -0.226   0.061
    1UNL    C12   17   0.019  -0.086   0.083
    1UNL    C13   18  -0.129  -0.094   0.138
    1UNL     O6   19   0.112  -0.010   0.169
    1UNL    C14   20   0.033   0.009  -0.048
    1UNL     O7   21  -0.062   0.127  -0.057
    1UNL    C15   22  -0.172   0.102  -0.139
    1UNL     O8   23  -0.231  -0.026  -0.116
    1UNL    C16   24  -0.347  -0.065  -0.192
    1UNL    C17   25  -0.414  -0.196  -0.143
    1UNL     O9   26  -0.441  -0.187  -0.003
    1UNL    C18   27  -0.582  -0.181   0.014
    1UNL    O10   28  -0.658  -0.181  -0.080
    1UNL    C19   29  -0.628  -0.164   0.155
    1UNL    C20   30  -0.765  -0.159   0.174
    1UNL    C21   31  -0.811  -0.145   0.302
    1UNL    C22   32  -0.723  -0.109   0.400
    1UNL    C23   33  -0.587  -0.103   0.378
    1UNL    C24   34  -0.541  -0.140   0.252
    1UNL    C25   35  -0.455   0.052  -0.192
    1UNL    O11   36  -0.462   0.102  -0.328
    1UNL    C26   37  -0.424   0.162  -0.082
    1UNL    O12   38  -0.425   0.099   0.042
    1UNL    C27   39  -0.282   0.216  -0.118
    1UNL    O13   40  -0.283   0.293  -0.229
    1UNL    C28   41   0.063  -0.074  -0.179
    1UNL    C29   42   0.214  -0.094  -0.131
    1UNL    C30   43   0.668   0.134  -0.123
    1UNL    C31   44   0.796   0.099  -0.111
    1UNL     H1   45   1.042   0.079   0.222
    1UNL     H2   46   1.177   0.087   0.093
    1UNL     H3   47   1.085   0.238   0.142
    1UNL     H4   48   0.829   0.189   0.222
    1UNL     H5   49   0.605   0.220   0.193
    1UNL     H6   50   0.214   0.247  -0.034
    1UNL     H7   51   0.197   0.178  -0.205
    1UNL     H8   52   0.303   0.064   0.156
    1UNL     H9   53   0.320  -0.370   0.021
    1UNL    H10   54   0.016  -0.284   0.006
    1UNL    H11   55   0.088  -0.257   0.170
    1UNL    H12   56  -0.155   0.002   0.182
    1UNL    H13   57  -0.138  -0.165   0.224
    1UNL    H14   58  -0.198  -0.115   0.055
    1UNL    H15   59  -0.141   0.108  -0.238
    1UNL    H16   60  -0.308  -0.072  -0.296
    1UNL    H17   61  -0.508  -0.225  -0.200
    1UNL    H18   62  -0.353  -0.285  -0.144
    1UNL    H19   63  -0.831  -0.186   0.094
    1UNL    H20   64  -0.913  -0.168   0.331
    1UNL    H21   65  -0.757  -0.095   0.504
    1UNL    H22   66  -0.528  -0.102   0.467
    1UNL    H23   67  -0.434  -0.142   0.233
    1UNL    H24   68  -0.555   0.008  -0.165
    1UNL    H25   69  -0.501   0.044  -0.396
    1UNL    H26   70  -0.488   0.251  -0.066
    1UNL    H27   71  -0.431  -0.005   0.030
    1UNL    H28   72  -0.244   0.285  -0.036
    1UNL    H29   73  -0.346   0.244  -0.295
    1UNL    H30   74   0.065  -0.015  -0.268
    1UNL    H31   75  -0.006  -0.166  -0.184
    1UNL    H32   76   0.311  -0.093  -0.185
    1UNL    H33   77   0.609   0.105  -0.214
    1UNL    H34   78   0.861   0.078  -0.197
   0.00000   0.00000   0.00000   0.00000   0.00000   0.00000   0.00000   0.00000   0.00000
Generated with MDTraj, t= 80.0
 78
    1UNL     C1    1   1.066   0.085   0.124
    1UNL     O1    2   0.997   0.086  -0.000
    1UNL     C2    3   0.866   0.113  -0.006
    1UNL     C3    4   0.804   0.185   0.104
    1UNL     C4    5   0.666   0.213   0.100
    1UNL     C5    6   0.590   0.182  -0.015
    1UNL     C6    7   0.443   0.190  -0.005
    1UNL     O2    8   0.397   0.240   0.099
    1UNL     O3    9   0.375   0.154  -0.121
    1UNL     C7   10   0.231   0.173  -0.104
    1UNL     C8   11   0.179   0.045  -0.044
    1UNL     C9   12   0.214   0.017   0.108
    1UNL     O4   13   0.288  -0.109   0.110
    1UNL    C10   14   0.216  -0.183   0.008
    1UNL     O5   15   0.272  -0.308  -0.042
    1UNL    C11   16   0.074  -0.212   0.062
    1UNL    C12   17   0.006  -0.073   0.085
    1UNL    C13   18  -0.139  -0.079   0.128
    1UNL     O6   19   0.091   0.007   0.178
    1UNL    C14   20   0.029   0.015  -0.054
    1UNL     O7   21  -0.062   0.128  -0.066
    1UNL    C15   22  -0.178   0.092  -0.143
    1UNL     O8   23  -0.233  -0.039  -0.114
    1UNL    C16   24  -0.351  -0.073  -0.186
    1UNL    C17   25  -0.396  -0.212  -0.141
    1UNL     O9   26  -0.431  -0.202  -0.006
    1UNL    C18   27  -0.563  -0.170   0.005
    1UNL    O10   28  -0.633  -0.149  -0.089
    1UNL    C19   29  -0.611  -0.163   0.147
    1UNL    C20   30  -0.750  -0.170   0.173
    1UNL    C21   31  -0.794  -0.167   0.304
    1UNL    C22   32  -0.707  -0.136   0.403
    1UNL    C23   33  -0.577  -0.104   0.374
    1UNL    C24   34  -0.525  -0.125   0.250
    1UNL    C25   35  -0.459   0.043  -0.201
    1UNL    O11   36  -0.448   0.098  -0.332
    1UNL    C26   37  -0.428   0.153  -0.089
    1UNL    O12   38  -0.436   0.084   0.034
    1UNL    C27   39  -0.287   0.204  -0.113
    1UNL    O13   40  -0.275   0.306  -0.204
    1UNL    C28   41   0.063  -0.067  -0.182
    1UNL    C29   42   0.199  -0.084  -0.118
    1UNL    C30   43   0.652   0.117  -0.123
    1UNL    C31   44   0.782   0.089  -0.116
    1UNL     H1   45   1.015   0.018   0.194
    1UNL     H2   46   1.167   0.053   0.096
    1UNL     H3   47   1.067   0.188   0.166
    1UNL     H4   48   0.872   0.223   0.179
    1UNL     H5   49   0.602   0.243   0.185
    1UNL     H6   50   0.224   0.261  -0.035
    1UNL     H7   51   0.190   0.198  -0.202
    1UNL     H8   52   0.262   0.097   0.170
    1UNL     H9   53   0.346  -0.344   0.008
    1UNL    H10   54   0.018  -0.277  -0.003
    1UNL    H11   55   0.090  -0.261   0.159
    1UNL    H12   56  -0.210   0.003   0.104
    1UNL    H13   57  -0.134  -0.082   0.238
    1UNL    H14   58  -0.178  -0.176   0.089
    1UNL    H15   59  -0.150   0.090  -0.243
    1UNL    H16   60  -0.302  -0.080  -0.289
    1UNL    H17   61  -0.489  -0.251  -0.190
    1UNL    H18   62  -0.320  -0.285  -0.154
    1UNL    H19   63  -0.826  -0.190   0.097
    1UNL    H20   64  -0.899  -0.175   0.321
    1UNL    H21   65  -0.750  -0.124   0.499
    1UNL    H22   66  -0.501  -0.070   0.452
    1UNL    H23   67  -0.424  -0.098   0.226
    1UNL    H24   68  -0.558  -0.009  -0.194
    1UNL    H25   69  -0.491   0.041  -0.390
    1UNL    H26   70  -0.503   0.232  -0.092
    1UNL    H27   71  -0.409  -0.005   0.019
    1UNL    H28   72  -0.254   0.246  -0.013
    1UNL    H29   73  -0.306   0.282  -0.286
    1UNL    H30   74   0.061  -0.010  -0.275
    1UNL    H31   75   0.019  -0.170  -0.205
    1UNL    H32   76   0.278  -0.081  -0.194
    1UNL    H33   77   0.602   0.116  -0.217
    1UNL    H34   78   0.832   0.032  -0.190
   0.00000   0.00000   0.00000   0.00000   0.00000   0.00000   0.00000   0.00000   0.00000
Generated with MDTraj, t= 81.0
 78
    1UNL     C1    1   1.062   0.055   0.107
    1UNL     O1    2   0.999   0.073  -0.023
    1UNL     C2    3   0.861   0.111  -0.015
    1UNL     C3    4   0.804   0.181   0.089
    1UNL     C4    5   0.674   0.209   0.095
    1UNL     C5    6   0.583   0.164  -0.007
    1UNL     C6    7   0.435   0.203  -0.002
    1UNL     O2    8   0.387   0.262   0.095
    1UNL     O3    9   0.371   0.178  -0.118
    1UNL     C7   10   0.230   0.191  -0.101
    1UNL     C8   11   0.179   0.054  -0.033
    1UNL     C9   12   0.206   0.022   0.121
    1UNL     O4   13   0.269  -0.109   0.126
    1UNL    C10   14   0.208  -0.187   0.021
    1UNL     O5   15   0.277  -0.307  -0.009
    1UNL    C11   16   0.061  -0.203   0.062
    1UNL    C12   17   0.000  -0.061   0.092
    1UNL    C13   18  -0.142  -0.069   0.139
    1UNL     O6   19   0.082   0.012   0.186
    1UNL    C14   20   0.020   0.016  -0.049
    1UNL     O7   21  -0.058   0.138  -0.072
    1UNL    C15   22  -0.174   0.112  -0.149
    1UNL     O8   23  -0.222  -0.025  -0.131
    1UNL    C16   24  -0.332  -0.067  -0.208
    1UNL    C17   25  -0.385  -0.200  -0.143
    1UNL     O9   26  -0.423  -0.191  -0.009
    1UNL    C18   27  -0.557  -0.179   0.004
    1UNL    O10   28  -0.634  -0.166  -0.086
    1UNL    C19   29  -0.612  -0.170   0.146
    1UNL    C20   30  -0.745  -0.189   0.172
    1UNL    C21   31  -0.789  -0.174   0.303
    1UNL    C22   32  -0.697  -0.150   0.402
    1UNL    C23   33  -0.564  -0.131   0.381
    1UNL    C24   34  -0.519  -0.140   0.249
    1UNL    C25   35  -0.436   0.045  -0.214
    1UNL    O11   36  -0.433   0.103  -0.339
    1UNL    C26   37  -0.419   0.145  -0.091
    1UNL    O12   38  -0.439   0.083   0.044
    1UNL    C27   39  -0.287   0.214  -0.117
    1UNL    O13   40  -0.300   0.308  -0.224
    1UNL    C28   41   0.064  -0.069  -0.177
    1UNL    C29   42   0.202  -0.082  -0.100
    1UNL    C30   43   0.643   0.103  -0.118
    1UNL    C31   44   0.776   0.065  -0.114
    1UNL     H1   45   0.998  -0.001   0.169
    1UNL     H2   46   1.149  -0.006   0.082
    1UNL     H3   47   1.094   0.149   0.150
    1UNL     H4   48   0.858   0.228   0.169
    1UNL     H5   49   0.637   0.254   0.184
    1UNL     H6   50   0.210   0.280  -0.034
    1UNL     H7   51   0.188   0.207  -0.202
    1UNL     H8   52   0.273   0.093   0.177
    1UNL     H9   53   0.326  -0.339   0.072
    1UNL    H10   54  -0.006  -0.247  -0.016
    1UNL    H11   55   0.056  -0.267   0.146
    1UNL    H12   56  -0.178   0.038   0.144
    1UNL    H13   57  -0.155  -0.102   0.242
    1UNL    H14   58  -0.210  -0.119   0.067
    1UNL    H15   59  -0.150   0.119  -0.251
    1UNL    H16   60  -0.295  -0.078  -0.318
    1UNL    H17   61  -0.464  -0.247  -0.204
    1UNL    H18   62  -0.306  -0.270  -0.136
    1UNL    H19   63  -0.820  -0.186   0.093
    1UNL    H20   64  -0.895  -0.178   0.336
    1UNL    H21   65  -0.733  -0.135   0.505
    1UNL    H22   66  -0.514  -0.086   0.456
    1UNL    H23   67  -0.414  -0.135   0.224
    1UNL    H24   68  -0.537  -0.003  -0.218
    1UNL    H25   69  -0.473   0.049  -0.407
    1UNL    H26   70  -0.492   0.226  -0.096
    1UNL    H27   71  -0.402  -0.012   0.033
    1UNL    H28   72  -0.262   0.273  -0.027
    1UNL    H29   73  -0.350   0.262  -0.302
    1UNL    H30   74   0.074  -0.008  -0.272
    1UNL    H31   75  -0.002  -0.153  -0.203
    1UNL    H32   76   0.291  -0.085  -0.162
    1UNL    H33   77   0.576   0.067  -0.197
    1UNL    H34   78   0.829   0.015  -0.196
   0.00000   0.00000   0.00000   0.00000   0.00000   0.00000   0.00000   0.00000   0.00000
Generated with MDTraj, t= 82.0
 78
    1UNL     C1    1   1.071   0.062   0.084
    1UNL     O1    2   0.981   0.022  -0.024
    1UNL     C2    3   0.859   0.085  -0.026
    1UNL     C3    4   0.811   0.171   0.078
    1UNL     C4    5   0.671   0.200   0.093
    1UNL     C5    6   0.585   0.179  -0.011
    1UNL     C6    7   0.438   0.209   0.001
    1UNL     O2    8   0.390   0.255   0.103
    1UNL     O3    9   0.368   0.184  -0.113
    1UNL     C7   10   0.230   0.186  -0.095
    1UNL     C8   11   0.180   0.066  -0.023
    1UNL     C9   12   0.207   0.028   0.134
    1UNL     O4   13   0.265  -0.102   0.134
    1UNL    C10   14   0.195  -0.173   0.035
    1UNL     O5   15   0.266  -0.293   0.007
    1UNL    C11   16   0.049  -0.190   0.084
    1UNL    C12   17  -0.009  -0.044   0.096
    1UNL    C13   18  -0.150  -0.041   0.157
    1UNL     O6   19   0.078   0.031   0.190
    1UNL    C14   20   0.019   0.030  -0.044
    1UNL     O7   21  -0.049   0.146  -0.074
    1UNL    C15   22  -0.168   0.111  -0.144
    1UNL     O8   23  -0.225  -0.023  -0.127
    1UNL    C16   24  -0.334  -0.049  -0.209
    1UNL    C17   25  -0.380  -0.190  -0.156
    1UNL     O9   26  -0.416  -0.194  -0.019
    1UNL    C18   27  -0.550  -0.199   0.003
    1UNL    O10   28  -0.634  -0.215  -0.081
    1UNL    C19   29  -0.598  -0.183   0.140
    1UNL    C20   30  -0.736  -0.191   0.165
    1UNL    C21   31  -0.785  -0.175   0.292
    1UNL    C22   32  -0.699  -0.165   0.398
    1UNL    C23   33  -0.564  -0.172   0.377
    1UNL    C24   34  -0.512  -0.177   0.249
    1UNL    C25   35  -0.447   0.053  -0.210
    1UNL    O11   36  -0.461   0.100  -0.333
    1UNL    C26   37  -0.419   0.170  -0.107
    1UNL    O12   38  -0.423   0.117   0.029
    1UNL    C27   39  -0.278   0.223  -0.128
    1UNL    O13   40  -0.277   0.301  -0.252
    1UNL    C28   41   0.066  -0.064  -0.154
    1UNL    C29   42   0.207  -0.075  -0.086
    1UNL    C30   43   0.634   0.109  -0.120
    1UNL    C31   44   0.770   0.064  -0.130
    1UNL     H1   45   1.026   0.021   0.167
    1UNL     H2   46   1.166   0.012   0.071
    1UNL     H3   47   1.086   0.168   0.081
    1UNL     H4   48   0.880   0.166   0.162
    1UNL     H5   49   0.638   0.269   0.171
    1UNL     H6   50   0.201   0.277  -0.037
    1UNL     H7   51   0.182   0.183  -0.194
    1UNL     H8   52   0.282   0.108   0.166
    1UNL     H9   53   0.297  -0.321   0.101
    1UNL    H10   54  -0.010  -0.247   0.006
    1UNL    H11   55   0.048  -0.241   0.175
    1UNL    H12   56  -0.177   0.057   0.204
    1UNL    H13   57  -0.139  -0.105   0.246
    1UNL    H14   58  -0.231  -0.074   0.089
    1UNL    H15   59  -0.131   0.109  -0.243
    1UNL    H16   60  -0.294  -0.056  -0.318
    1UNL    H17   61  -0.471  -0.216  -0.212
    1UNL    H18   62  -0.311  -0.266  -0.181
    1UNL    H19   63  -0.805  -0.212   0.088
    1UNL    H20   64  -0.889  -0.174   0.305
    1UNL    H21   65  -0.735  -0.161   0.497
    1UNL    H22   66  -0.490  -0.180   0.465
    1UNL    H23   67  -0.404  -0.187   0.244
    1UNL    H24   68  -0.540   0.001  -0.184
    1UNL    H25   69  -0.518   0.039  -0.388
    1UNL    H26   70  -0.486   0.257  -0.111
    1UNL    H27   71  -0.387   0.030   0.025
    1UNL    H28   72  -0.250   0.293  -0.051
    1UNL    H29   73  -0.327   0.245  -0.315
    1UNL    H30   74   0.079  -0.023  -0.262
    1UNL    H31   75   0.008  -0.154  -0.151
    1UNL    H32   76   0.285  -0.093  -0.161
    1UNL    H33   77   0.564   0.078  -0.194
    1UNL    H34   78   0.798   0.003  -0.213
   0.00000   0.00000   0.00000   0.00000   0.00000   0.00000   0.00000   0.00000   0.00000
Generated with MDTraj, t= 83.0
 78
    1UNL     C1    1   1.077   0.071   0.062
    1UNL     O1    2   0.987   0.018  -0.033
    1UNL     C2    3   0.847   0.064  -0.026
    1UNL     C3    4   0.805   0.129   0.085
    1UNL     C4    5   0.678   0.188   0.087
    1UNL     C5    6   0.586   0.158  -0.014
    1UNL     C6    7   0.452   0.210  -0.005
    1UNL     O2    8   0.406   0.259   0.096
    1UNL     O3    9   0.369   0.173  -0.113
    1UNL     C7   10   0.232   0.187  -0.083
    1UNL     C8   11   0.180   0.066  -0.013
    1UNL     C9   12   0.209   0.052   0.141
    1UNL     O4   13   0.273  -0.077   0.152
    1UNL    C10   14   0.196  -0.160   0.049
    1UNL     O5   15   0.263  -0.286   0.018
    1UNL    C11   16   0.053  -0.173   0.113
    1UNL    C12   17  -0.008  -0.030   0.113
    1UNL    C13   18  -0.156  -0.024   0.144
    1UNL     O6   19   0.074   0.049   0.205
    1UNL    C14   20   0.019   0.040  -0.026
    1UNL     O7   21  -0.058   0.163  -0.060
    1UNL    C15   22  -0.168   0.125  -0.148
    1UNL     O8   23  -0.223  -0.008  -0.124
    1UNL    C16   24  -0.335  -0.045  -0.206
    1UNL    C17   25  -0.377  -0.183  -0.145
    1UNL     O9   26  -0.415  -0.174  -0.012
    1UNL    C18   27  -0.549  -0.204  -0.008
    1UNL    O10   28  -0.623  -0.236  -0.101
    1UNL    C19   29  -0.598  -0.202   0.130
    1UNL    C20   30  -0.736  -0.191   0.160
    1UNL    C21   31  -0.778  -0.176   0.293
    1UNL    C22   32  -0.689  -0.185   0.394
    1UNL    C23   33  -0.559  -0.214   0.365
    1UNL    C24   34  -0.514  -0.216   0.233
    1UNL    C25   35  -0.455   0.051  -0.208
    1UNL    O11   36  -0.489   0.094  -0.337
    1UNL    C26   37  -0.417   0.178  -0.107
    1UNL    O12   38  -0.410   0.132   0.026
    1UNL    C27   39  -0.280   0.231  -0.145
    1UNL    O13   40  -0.282   0.291  -0.277
    1UNL    C28   41   0.057  -0.053  -0.144
    1UNL    C29   42   0.195  -0.076  -0.072
    1UNL    C30   43   0.631   0.096  -0.127
    1UNL    C31   44   0.759   0.047  -0.138
    1UNL     H1   45   1.053   0.013   0.145
    1UNL     H2   46   1.177   0.042   0.029
    1UNL     H3   47   1.072   0.180   0.059
    1UNL     H4   48   0.874   0.165   0.158
    1UNL     H5   49   0.644   0.231   0.182
    1UNL     H6   50   0.215   0.273  -0.016
    1UNL     H7   51   0.180   0.199  -0.179
    1UNL     H8   52   0.255   0.146   0.183
    1UNL     H9   53   0.280  -0.327   0.112
    1UNL    H10   54  -0.007  -0.240   0.046
    1UNL    H11   55   0.066  -0.215   0.211
    1UNL    H12   56  -0.199   0.078   0.128
    1UNL    H13   57  -0.179  -0.056   0.249
    1UNL    H14   58  -0.202  -0.089   0.068
    1UNL    H15   59  -0.120   0.117  -0.242
    1UNL    H16   60  -0.291  -0.058  -0.314
    1UNL    H17   61  -0.458  -0.224  -0.210
    1UNL    H18   62  -0.298  -0.255  -0.149
    1UNL    H19   63  -0.799  -0.206   0.070
    1UNL    H20   64  -0.884  -0.151   0.320
    1UNL    H21   65  -0.725  -0.170   0.496
    1UNL    H22   66  -0.500  -0.255   0.441
    1UNL    H23   67  -0.407  -0.231   0.215
    1UNL    H24   68  -0.542  -0.007  -0.179
    1UNL    H25   69  -0.539   0.021  -0.393
    1UNL    H26   70  -0.499   0.252  -0.112
    1UNL    H27   71  -0.410   0.034   0.035
    1UNL    H28   72  -0.251   0.307  -0.076
    1UNL    H29   73  -0.319   0.227  -0.331
    1UNL    H30   74   0.074  -0.000  -0.246
    1UNL    H31   75  -0.004  -0.141  -0.154
    1UNL    H32   76   0.287  -0.085  -0.132
    1UNL    H33   77   0.566   0.082  -0.215
    1UNL    H34   78   0.774  -0.000  -0.236
   0.00000   0.00000   0.00000   0.00000   0.00000   0.00000   0.00000   0.00000   0.00000
Generated with MDTraj, t= 84.0
 78
    1UNL     C1    1   1.092   0.053   0.039
    1UNL     O1    2   0.992   0.037  -0.061
    1UNL     C2    3   0.860   0.062  -0.026
    1UNL     C3    4   0.804   0.115   0.090
    1UNL     C4    5   0.672   0.158   0.088
    1UNL     C5    6   0.592   0.138  -0.019
    1UNL     C6    7   0.449   0.192  -0.006
    1UNL     O2    8   0.413   0.250   0.094
    1UNL     O3    9   0.368   0.166  -0.115
    1UNL     C7   10   0.236   0.207  -0.084
    1UNL     C8   11   0.174   0.084  -0.012
    1UNL     C9   12   0.199   0.072   0.139
    1UNL     O4   13   0.260  -0.055   0.169
    1UNL    C10   14   0.196  -0.144   0.069
    1UNL     O5   15   0.254  -0.277   0.057
    1UNL    C11   16   0.056  -0.153   0.133
    1UNL    C12   17  -0.012  -0.004   0.117
    1UNL    C13   18  -0.162  -0.007   0.141
    1UNL     O6   19   0.072   0.072   0.206
    1UNL    C14   20   0.019   0.061  -0.026
    1UNL     O7   21  -0.067   0.172  -0.066
    1UNL    C15   22  -0.174   0.128  -0.152
    1UNL     O8   23  -0.226  -0.005  -0.127
    1UNL    C16   24  -0.341  -0.053  -0.205
    1UNL    C17   25  -0.380  -0.199  -0.158
    1UNL     O9   26  -0.406  -0.187  -0.022
    1UNL    C18   27  -0.541  -0.205  -0.006
    1UNL    O10   28  -0.622  -0.219  -0.098
    1UNL    C19   29  -0.600  -0.211   0.129
    1UNL    C20   30  -0.733  -0.184   0.154
    1UNL    C21   31  -0.777  -0.183   0.282
    1UNL    C22   32  -0.692  -0.223   0.391
    1UNL    C23   33  -0.561  -0.251   0.361
    1UNL    C24   34  -0.513  -0.235   0.236
    1UNL    C25   35  -0.453   0.053  -0.210
    1UNL    O11   36  -0.477   0.102  -0.344
    1UNL    C26   37  -0.419   0.168  -0.106
    1UNL    O12   38  -0.409   0.122   0.027
    1UNL    C27   39  -0.283   0.228  -0.145
    1UNL    O13   40  -0.290   0.292  -0.276
    1UNL    C28   41   0.056  -0.037  -0.140
    1UNL    C29   42   0.194  -0.057  -0.066
    1UNL    C30   43   0.630   0.063  -0.127
    1UNL    C31   44   0.771   0.032  -0.135
    1UNL     H1   45   1.047   0.017   0.127
    1UNL     H2   46   1.182  -0.013   0.016
    1UNL     H3   47   1.124   0.160   0.034
    1UNL     H4   48   0.871   0.134   0.174
    1UNL     H5   49   0.634   0.209   0.174
    1UNL     H6   50   0.232   0.296  -0.024
    1UNL     H7   51   0.186   0.227  -0.181
    1UNL     H8   52   0.262   0.154   0.179
    1UNL     H9   53   0.319  -0.295   0.132
    1UNL    H10   54   0.011  -0.232   0.073
    1UNL    H11   55   0.063  -0.186   0.240
    1UNL    H12   56  -0.193   0.096   0.115
    1UNL    H13   57  -0.183  -0.018   0.251
    1UNL    H14   58  -0.214  -0.079   0.075
    1UNL    H15   59  -0.135   0.129  -0.252
    1UNL    H16   60  -0.295  -0.062  -0.313
    1UNL    H17   61  -0.468  -0.243  -0.214
    1UNL    H18   62  -0.296  -0.266  -0.176
    1UNL    H19   63  -0.790  -0.138   0.079
    1UNL    H20   64  -0.874  -0.147   0.298
    1UNL    H21   65  -0.726  -0.228   0.492
    1UNL    H22   66  -0.491  -0.270   0.441
    1UNL    H23   67  -0.411  -0.255   0.220
    1UNL    H24   68  -0.544   0.005  -0.176
    1UNL    H25   69  -0.521   0.027  -0.402
    1UNL    H26   70  -0.495   0.247  -0.097
    1UNL    H27   71  -0.403   0.019   0.033
    1UNL    H28   72  -0.261   0.311  -0.085
    1UNL    H29   73  -0.357   0.231  -0.332
    1UNL    H30   74   0.055   0.001  -0.247
    1UNL    H31   75  -0.002  -0.131  -0.148
    1UNL    H32   76   0.284  -0.070  -0.128
    1UNL    H33   77   0.561   0.049  -0.206
    1UNL    H34   78   0.810  -0.027  -0.217
   0.00000   0.00000   0.00000   0.00000   0.00000   0.00000   0.00000   0.00000   0.00000
Generated with MDTraj, t= 85.0
 78
    1UNL     C1    1   1.085   0.033   0.039
    1UNL     O1    2   0.992   0.009  -0.067
    1UNL     C2    3   0.860   0.061  -0.047
    1UNL     C3    4   0.812   0.118   0.068
    1UNL     C4    5   0.687   0.169   0.074
    1UNL     C5    6   0.600   0.148  -0.028
    1UNL     C6    7   0.458   0.175   0.001
    1UNL     O2    8   0.424   0.225   0.103
    1UNL     O3    9   0.376   0.146  -0.105
    1UNL     C7   10   0.246   0.200  -0.085
    1UNL     C8   11   0.172   0.089  -0.012
    1UNL     C9   12   0.190   0.088   0.148
    1UNL     O4   13   0.250  -0.035   0.180
    1UNL    C10   14   0.186  -0.128   0.088
    1UNL     O5   15   0.251  -0.258   0.102
    1UNL    C11   16   0.036  -0.131   0.130
    1UNL    C12   17  -0.026   0.012   0.116
    1UNL    C13   18  -0.172   0.006   0.160
    1UNL     O6   19   0.062   0.102   0.200
    1UNL    C14   20   0.015   0.068  -0.037
    1UNL     O7   21  -0.062   0.168  -0.096
    1UNL    C15   22  -0.180   0.121  -0.164
    1UNL     O8   23  -0.209  -0.019  -0.138
    1UNL    C16   24  -0.324  -0.063  -0.209
    1UNL    C17   25  -0.367  -0.196  -0.159
    1UNL     O9   26  -0.402  -0.194  -0.023
    1UNL    C18   27  -0.542  -0.191  -0.005
    1UNL    O10   28  -0.612  -0.159  -0.102
    1UNL    C19   29  -0.597  -0.214   0.128
    1UNL    C20   30  -0.728  -0.184   0.150
    1UNL    C21   31  -0.776  -0.201   0.278
    1UNL    C22   32  -0.691  -0.245   0.378
    1UNL    C23   33  -0.558  -0.272   0.356
    1UNL    C24   34  -0.507  -0.254   0.232
    1UNL    C25   35  -0.445   0.041  -0.212
    1UNL    O11   36  -0.457   0.089  -0.345
    1UNL    C26   37  -0.436   0.155  -0.107
    1UNL    O12   38  -0.447   0.107   0.026
    1UNL    C27   39  -0.299   0.223  -0.131
    1UNL    O13   40  -0.309   0.312  -0.235
    1UNL    C28   41   0.063  -0.041  -0.133
    1UNL    C29   42   0.200  -0.058  -0.058
    1UNL    C30   43   0.642   0.079  -0.142
    1UNL    C31   44   0.772   0.037  -0.147
    1UNL     H1   45   1.061  -0.031   0.124
    1UNL     H2   46   1.193   0.009   0.006
    1UNL     H3   47   1.079   0.143   0.061
    1UNL     H4   48   0.866   0.117   0.159
    1UNL     H5   49   0.664   0.247   0.150
    1UNL     H6   50   0.260   0.291  -0.032
    1UNL     H7   51   0.192   0.220  -0.180
    1UNL     H8   52   0.258   0.168   0.180
    1UNL     H9   53   0.290  -0.268   0.192
    1UNL    H10   54  -0.019  -0.204   0.076
    1UNL    H11   55   0.031  -0.153   0.243
    1UNL    H12   56  -0.209   0.109   0.157
    1UNL    H13   57  -0.178  -0.030   0.266
    1UNL    H14   58  -0.237  -0.056   0.093
    1UNL    H15   59  -0.141   0.123  -0.265
    1UNL    H16   60  -0.286  -0.074  -0.319
    1UNL    H17   61  -0.452  -0.241  -0.222
    1UNL    H18   62  -0.279  -0.261  -0.166
    1UNL    H19   63  -0.773  -0.131   0.063
    1UNL    H20   64  -0.883  -0.180   0.301
    1UNL    H21   65  -0.733  -0.268   0.477
    1UNL    H22   66  -0.494  -0.314   0.438
    1UNL    H23   67  -0.404  -0.272   0.195
    1UNL    H24   68  -0.542  -0.007  -0.194
    1UNL    H25   69  -0.487   0.018  -0.407
    1UNL    H26   70  -0.520   0.226  -0.115
    1UNL    H27   71  -0.431   0.015   0.014
    1UNL    H28   72  -0.265   0.280  -0.050
    1UNL    H29   73  -0.352   0.265  -0.310
    1UNL    H30   74   0.077  -0.017  -0.239
    1UNL    H31   75   0.004  -0.138  -0.130
    1UNL    H32   76   0.295  -0.080  -0.112
    1UNL    H33   77   0.573   0.040  -0.216
    1UNL    H34   78   0.810   0.000  -0.242
   0.00000   0.00000   0.00000   0.00000   0.00000   0.00000   0.00000   0.00000   0.00000
Generated with MDTraj, t= 86.0
 78
    1UNL     C1    1   1.093   0.006   0.035
    1UNL     O1    2   0.999   0.004  -0.073
    1UNL     C2    3   0.870   0.053  -0.061
    1UNL     C3    4   0.822   0.109   0.060
    1UNL     C4    5   0.697   0.174   0.070
    1UNL     C5    6   0.607   0.146  -0.036
    1UNL     C6    7   0.465   0.193  -0.020
    1UNL     O2    8   0.432   0.254   0.077
    1UNL     O3    9   0.373   0.159  -0.120
    1UNL     C7   10   0.243   0.191  -0.084
    1UNL     C8   11   0.174   0.087   0.003
    1UNL     C9   12   0.177   0.100   0.158
    1UNL     O4   13   0.228  -0.029   0.197
    1UNL    C10   14   0.165  -0.126   0.112
    1UNL     O5   15   0.224  -0.254   0.124
    1UNL    C11   16   0.013  -0.125   0.141
    1UNL    C12   17  -0.035   0.024   0.119
    1UNL    C13   18  -0.177   0.028   0.161
    1UNL     O6   19   0.043   0.122   0.196
    1UNL    C14   20   0.012   0.059  -0.031
    1UNL     O7   21  -0.052   0.166  -0.095
    1UNL    C15   22  -0.173   0.127  -0.151
    1UNL     O8   23  -0.216  -0.008  -0.120
    1UNL    C16   24  -0.311  -0.063  -0.213
    1UNL    C17   25  -0.370  -0.192  -0.167
    1UNL     O9   26  -0.407  -0.200  -0.027
    1UNL    C18   27  -0.544  -0.192  -0.008
    1UNL    O10   28  -0.612  -0.168  -0.110
    1UNL    C19   29  -0.590  -0.214   0.134
    1UNL    C20   30  -0.722  -0.184   0.162
    1UNL    C21   31  -0.781  -0.219   0.279
    1UNL    C22   32  -0.701  -0.270   0.379
    1UNL    C23   33  -0.556  -0.284   0.355
    1UNL    C24   34  -0.507  -0.265   0.231
    1UNL    C25   35  -0.432   0.047  -0.231
    1UNL    O11   36  -0.417   0.110  -0.358
    1UNL    C26   37  -0.427   0.144  -0.111
    1UNL    O12   38  -0.449   0.077   0.015
    1UNL    C27   39  -0.292   0.223  -0.122
    1UNL    O13   40  -0.304   0.321  -0.218
    1UNL    C28   41   0.064  -0.059  -0.121
    1UNL    C29   42   0.188  -0.067  -0.033
    1UNL    C30   43   0.645   0.082  -0.153
    1UNL    C31   44   0.774   0.039  -0.166
    1UNL     H1   45   1.048  -0.026   0.130
    1UNL     H2   46   1.189  -0.056   0.018
    1UNL     H3   47   1.122   0.114   0.043
    1UNL     H4   48   0.893   0.137   0.139
    1UNL     H5   49   0.658   0.233   0.149
    1UNL     H6   50   0.238   0.286  -0.038
    1UNL     H7   51   0.195   0.194  -0.184
    1UNL     H8   52   0.231   0.186   0.197
    1UNL     H9   53   0.316  -0.247   0.146
    1UNL    H10   54  -0.045  -0.181   0.072
    1UNL    H11   55  -0.023  -0.151   0.247
    1UNL    H12   56  -0.223   0.128   0.146
    1UNL    H13   57  -0.191  -0.006   0.265
    1UNL    H14   58  -0.234  -0.038   0.091
    1UNL    H15   59  -0.159   0.125  -0.260
    1UNL    H16   60  -0.260  -0.081  -0.315
    1UNL    H17   61  -0.459  -0.223  -0.231
    1UNL    H18   62  -0.295  -0.272  -0.179
    1UNL    H19   63  -0.784  -0.155   0.082
    1UNL    H20   64  -0.883  -0.193   0.293
    1UNL    H21   65  -0.747  -0.301   0.471
    1UNL    H22   66  -0.501  -0.339   0.421
    1UNL    H23   67  -0.406  -0.291   0.210
    1UNL    H24   68  -0.530  -0.006  -0.233
    1UNL    H25   69  -0.424   0.043  -0.422
    1UNL    H26   70  -0.512   0.213  -0.114
    1UNL    H27   71  -0.420  -0.023   0.005
    1UNL    H28   72  -0.281   0.278  -0.037
    1UNL    H29   73  -0.303   0.292  -0.309
    1UNL    H30   74   0.089  -0.030  -0.220
    1UNL    H31   75  -0.002  -0.154  -0.113
    1UNL    H32   76   0.289  -0.087  -0.073
    1UNL    H33   77   0.580   0.080  -0.238
    1UNL    H34   78   0.819  -0.008  -0.252
   0.00000   0.00000   0.00000   0.00000   0.00000   0.00000   0.00000   0.00000   0.00000
Generated with MDTraj, t= 87.0
 78
    1UNL     C1    1   1.068  -0.005   0.027
    1UNL     O1    2   0.998   0.003  -0.087
    1UNL     C2    3   0.863   0.055  -0.074
    1UNL     C3    4   0.817   0.121   0.049
    1UNL     C4    5   0.690   0.157   0.061
    1UNL     C5    6   0.593   0.143  -0.036
    1UNL     C6    7   0.457   0.196  -0.027
    1UNL     O2    8   0.425   0.275   0.055
    1UNL     O3    9   0.368   0.143  -0.119
    1UNL     C7   10   0.236   0.182  -0.094
    1UNL     C8   11   0.172   0.082   0.010
    1UNL     C9   12   0.194   0.103   0.167
    1UNL     O4   13   0.235  -0.037   0.216
    1UNL    C10   14   0.167  -0.127   0.137
    1UNL     O5   15   0.222  -0.260   0.124
    1UNL    C11   16   0.021  -0.115   0.176
    1UNL    C12   17  -0.025   0.033   0.139
    1UNL    C13   18  -0.171   0.059   0.155
    1UNL     O6   19   0.055   0.130   0.209
    1UNL    C14   20   0.018   0.058  -0.010
    1UNL     O7   21  -0.043   0.168  -0.067
    1UNL    C15   22  -0.158   0.134  -0.143
    1UNL     O8   23  -0.211  -0.004  -0.122
    1UNL    C16   24  -0.316  -0.056  -0.209
    1UNL    C17   25  -0.360  -0.188  -0.163
    1UNL     O9   26  -0.407  -0.185  -0.028
    1UNL    C18   27  -0.544  -0.204  -0.023
    1UNL    O10   28  -0.615  -0.210  -0.124
    1UNL    C19   29  -0.599  -0.235   0.113
    1UNL    C20   30  -0.732  -0.209   0.151
    1UNL    C21   31  -0.776  -0.228   0.281
    1UNL    C22   32  -0.690  -0.270   0.380
    1UNL    C23   33  -0.558  -0.292   0.350
    1UNL    C24   34  -0.517  -0.284   0.213
    1UNL    C25   35  -0.431   0.052  -0.232
    1UNL    O11   36  -0.423   0.112  -0.360
    1UNL    C26   37  -0.421   0.161  -0.124
    1UNL    O12   38  -0.445   0.102   0.001
    1UNL    C27   39  -0.281   0.236  -0.129
    1UNL    O13   40  -0.282   0.331  -0.230
    1UNL    C28   41   0.049  -0.070  -0.096
    1UNL    C29   42   0.183  -0.068  -0.009
    1UNL    C30   43   0.632   0.075  -0.155
    1UNL    C31   44   0.766   0.048  -0.173
    1UNL     H1   45   1.016  -0.055   0.111
    1UNL     H2   46   1.163  -0.062   0.010
    1UNL     H3   47   1.097   0.095   0.054
    1UNL     H4   48   0.881   0.149   0.130
    1UNL     H5   49   0.665   0.209   0.155
    1UNL     H6   50   0.240   0.284  -0.065
    1UNL     H7   51   0.185   0.181  -0.192
    1UNL     H8   52   0.264   0.179   0.195
    1UNL     H9   53   0.292  -0.257   0.185
    1UNL    H10   54  -0.043  -0.192   0.128
    1UNL    H11   55   0.005  -0.124   0.285
    1UNL    H12   56  -0.195   0.169   0.150
    1UNL    H13   57  -0.195   0.024   0.256
    1UNL    H14   58  -0.237   0.008   0.082
    1UNL    H15   59  -0.116   0.135  -0.246
    1UNL    H16   60  -0.268  -0.066  -0.313
    1UNL    H17   61  -0.445  -0.231  -0.222
    1UNL    H18   62  -0.276  -0.258  -0.162
    1UNL    H19   63  -0.793  -0.160   0.073
    1UNL    H20   64  -0.881  -0.199   0.298
    1UNL    H21   65  -0.725  -0.271   0.483
    1UNL    H22   66  -0.484  -0.310   0.436
    1UNL    H23   67  -0.424  -0.325   0.172
    1UNL    H24   68  -0.534   0.008  -0.226
    1UNL    H25   69  -0.440   0.049  -0.427
    1UNL    H26   70  -0.504   0.231  -0.143
    1UNL    H27   71  -0.416   0.014   0.007
    1UNL    H28   72  -0.261   0.283  -0.041
    1UNL    H29   73  -0.345   0.293  -0.307
    1UNL    H30   74   0.065  -0.056  -0.202
    1UNL    H31   75  -0.013  -0.163  -0.073
    1UNL    H32   76   0.265  -0.087  -0.082
    1UNL    H33   77   0.567   0.084  -0.242
    1UNL    H34   78   0.799  -0.020  -0.253
   0.00000   0.00000   0.00000   0.00000   0.00000   0.00000   0.00000   0.00000   0.00000
Generated with MDTraj, t= 88.0
 78
    1UNL     C1    1   1.061   0.000   0.022
    1UNL     O1    2   0.982  -0.011  -0.092
    1UNL     C2    3   0.863   0.055  -0.079
    1UNL     C3    4   0.818   0.127   0.034
    1UNL     C4    5   0.684   0.162   0.053
    1UNL     C5    6   0.589   0.137  -0.049
    1UNL     C6    7   0.450   0.192  -0.028
    1UNL     O2    8   0.412   0.249   0.072
    1UNL     O3    9   0.367   0.147  -0.124
    1UNL     C7   10   0.232   0.177  -0.101
    1UNL     C8   11   0.170   0.081   0.008
    1UNL     C9   12   0.204   0.101   0.163
    1UNL     O4   13   0.250  -0.031   0.212
    1UNL    C10   14   0.174  -0.127   0.141
    1UNL     O5   15   0.233  -0.261   0.149
    1UNL    C11   16   0.032  -0.101   0.198
    1UNL    C12   17  -0.016   0.041   0.164
    1UNL    C13   18  -0.165   0.066   0.195
    1UNL     O6   19   0.078   0.136   0.226
    1UNL    C14   20   0.008   0.055   0.008
    1UNL     O7   21  -0.076   0.163  -0.046
    1UNL    C15   22  -0.167   0.130  -0.139
    1UNL     O8   23  -0.217  -0.001  -0.111
    1UNL    C16   24  -0.314  -0.045  -0.211
    1UNL    C17   25  -0.357  -0.182  -0.169
    1UNL     O9   26  -0.402  -0.186  -0.029
    1UNL    C18   27  -0.532  -0.216  -0.035
    1UNL    O10   28  -0.608  -0.233  -0.130
    1UNL    C19   29  -0.595  -0.227   0.101
    1UNL    C20   30  -0.728  -0.209   0.129
    1UNL    C21   31  -0.775  -0.238   0.254
    1UNL    C22   32  -0.689  -0.278   0.361
    1UNL    C23   33  -0.554  -0.294   0.336
    1UNL    C24   34  -0.509  -0.268   0.204
    1UNL    C25   35  -0.430   0.063  -0.223
    1UNL    O11   36  -0.433   0.108  -0.359
    1UNL    C26   37  -0.422   0.177  -0.118
    1UNL    O12   38  -0.429   0.130   0.018
    1UNL    C27   39  -0.280   0.239  -0.145
    1UNL    O13   40  -0.280   0.319  -0.268
    1UNL    C28   41   0.037  -0.065  -0.079
    1UNL    C29   42   0.172  -0.081  -0.012
    1UNL    C30   43   0.637   0.087  -0.166
    1UNL    C31   44   0.762   0.033  -0.179
    1UNL     H1   45   1.019  -0.054   0.110
    1UNL     H2   46   1.159  -0.043   0.011
    1UNL     H3   47   1.072   0.100   0.051
    1UNL     H4   48   0.888   0.149   0.115
    1UNL     H5   49   0.639   0.217   0.130
    1UNL     H6   50   0.222   0.280  -0.077
    1UNL     H7   51   0.174   0.165  -0.194
    1UNL     H8   52   0.284   0.168   0.187
    1UNL     H9   53   0.237  -0.283   0.243
    1UNL    H10   54  -0.052  -0.175   0.177
    1UNL    H11   55   0.028  -0.104   0.306
    1UNL    H12   56  -0.197   0.163   0.149
    1UNL    H13   57  -0.192   0.060   0.302
    1UNL    H14   58  -0.220  -0.011   0.137
    1UNL    H15   59  -0.125   0.131  -0.244
    1UNL    H16   60  -0.261  -0.050  -0.311
    1UNL    H17   61  -0.445  -0.213  -0.230
    1UNL    H18   62  -0.279  -0.256  -0.178
    1UNL    H19   63  -0.792  -0.151   0.070
    1UNL    H20   64  -0.878  -0.229   0.280
    1UNL    H21   65  -0.733  -0.290   0.459
    1UNL    H22   66  -0.482  -0.318   0.404
    1UNL    H23   67  -0.404  -0.288   0.178
    1UNL    H24   68  -0.524   0.008  -0.196
    1UNL    H25   69  -0.443   0.032  -0.420
    1UNL    H26   70  -0.498   0.256  -0.130
    1UNL    H27   71  -0.417   0.028   0.008
    1UNL    H28   72  -0.252   0.306  -0.075
    1UNL    H29   73  -0.320   0.264  -0.329
    1UNL    H30   74   0.042  -0.049  -0.189
    1UNL    H31   75  -0.043  -0.142  -0.066
    1UNL    H32   76   0.260  -0.115  -0.070
    1UNL    H33   77   0.555   0.060  -0.231
    1UNL    H34   78   0.796   0.000  -0.274
   0.00000   0.00000   0.00000   0.00000   0.00000   0.00000   0.00000   0.00000   0.00000
Generated with MDTraj, t= 89.0
 78
    1UNL     C1    1   1.072   0.003   0.012
    1UNL     O1    2   0.980   0.003  -0.101
    1UNL     C2    3   0.845   0.049  -0.079
    1UNL     C3    4   0.807   0.126   0.035
    1UNL     C4    5   0.679   0.155   0.053
    1UNL     C5    6   0.589   0.137  -0.054
    1UNL     C6    7   0.446   0.180  -0.039
    1UNL     O2    8   0.415   0.251   0.055
    1UNL     O3    9   0.350   0.133  -0.127
    1UNL     C7   10   0.225   0.181  -0.085
    1UNL     C8   11   0.173   0.089   0.022
    1UNL     C9   12   0.212   0.103   0.175
    1UNL     O4   13   0.251  -0.023   0.216
    1UNL    C10   14   0.175  -0.121   0.148
    1UNL     O5   15   0.233  -0.250   0.161
    1UNL    C11   16   0.032  -0.104   0.207
    1UNL    C12   17  -0.016   0.043   0.175
    1UNL    C13   18  -0.155   0.062   0.235
    1UNL     O6   19   0.084   0.128   0.236
    1UNL    C14   20   0.017   0.074   0.017
    1UNL     O7   21  -0.069   0.179  -0.035
    1UNL    C15   22  -0.156   0.133  -0.135
    1UNL     O8   23  -0.220   0.000  -0.120
    1UNL    C16   24  -0.317  -0.046  -0.217
    1UNL    C17   25  -0.358  -0.185  -0.185
    1UNL     O9   26  -0.395  -0.185  -0.044
    1UNL    C18   27  -0.528  -0.210  -0.035
    1UNL    O10   28  -0.606  -0.203  -0.126
    1UNL    C19   29  -0.583  -0.242   0.094
    1UNL    C20   30  -0.724  -0.236   0.110
    1UNL    C21   31  -0.787  -0.254   0.236
    1UNL    C22   32  -0.702  -0.262   0.346
    1UNL    C23   33  -0.564  -0.274   0.330
    1UNL    C24   34  -0.502  -0.264   0.204
    1UNL    C25   35  -0.438   0.054  -0.217
    1UNL    O11   36  -0.462   0.101  -0.349
    1UNL    C26   37  -0.415   0.171  -0.119
    1UNL    O12   38  -0.420   0.124   0.013
    1UNL    C27   39  -0.272   0.235  -0.149
    1UNL    O13   40  -0.272   0.298  -0.277
    1UNL    C28   41   0.044  -0.044  -0.074
    1UNL    C29   42   0.176  -0.070  -0.002
    1UNL    C30   43   0.629   0.063  -0.167
    1UNL    C31   44   0.753   0.019  -0.181
    1UNL     H1   45   1.034  -0.036   0.107
    1UNL     H2   46   1.148  -0.066  -0.012
    1UNL     H3   47   1.117   0.093   0.032
    1UNL     H4   48   0.883   0.140   0.108
    1UNL     H5   49   0.657   0.222   0.139
    1UNL     H6   50   0.222   0.282  -0.049
    1UNL     H7   51   0.155   0.182  -0.173
    1UNL     H8   52   0.287   0.178   0.189
    1UNL     H9   53   0.329  -0.241   0.135
    1UNL    H10   54  -0.040  -0.184   0.169
    1UNL    H11   55   0.025  -0.114   0.313
    1UNL    H12   56  -0.202   0.160   0.213
    1UNL    H13   57  -0.152   0.040   0.344
    1UNL    H14   58  -0.209  -0.017   0.182
    1UNL    H15   59  -0.102   0.133  -0.237
    1UNL    H16   60  -0.267  -0.045  -0.315
    1UNL    H17   61  -0.448  -0.207  -0.242
    1UNL    H18   62  -0.284  -0.263  -0.197
    1UNL    H19   63  -0.785  -0.227   0.019
    1UNL    H20   64  -0.893  -0.239   0.251
    1UNL    H21   65  -0.750  -0.289   0.439
    1UNL    H22   66  -0.504  -0.323   0.413
    1UNL    H23   67  -0.399  -0.261   0.188
    1UNL    H24   68  -0.527  -0.005  -0.184
    1UNL    H25   69  -0.477   0.027  -0.419
    1UNL    H26   70  -0.499   0.240  -0.136
    1UNL    H27   71  -0.391   0.026  -0.002
    1UNL    H28   72  -0.245   0.295  -0.070
    1UNL    H29   73  -0.334   0.239  -0.329
    1UNL    H30   74   0.053  -0.017  -0.185
    1UNL    H31   75  -0.027  -0.122  -0.055
    1UNL    H32   76   0.250  -0.108  -0.075
    1UNL    H33   77   0.558   0.052  -0.248
    1UNL    H34   78   0.773  -0.049  -0.264
   0.00000   0.00000   0.00000   0.00000   0.00000   0.00000   0.00000   0.00000   0.00000
Generated with MDTraj, t= 90.0
 78
    1UNL     C1    1   1.074   0.023  -0.009
    1UNL     O1    2   0.976  -0.007  -0.109
    1UNL     C2    3   0.848   0.033  -0.083
    1UNL     C3    4   0.807   0.106   0.029
    1UNL     C4    5   0.681   0.167   0.042
    1UNL     C5    6   0.583   0.139  -0.052
    1UNL     C6    7   0.455   0.188  -0.033
    1UNL     O2    8   0.429   0.266   0.060
    1UNL     O3    9   0.357   0.131  -0.113
    1UNL     C7   10   0.234   0.179  -0.075
    1UNL     C8   11   0.164   0.081   0.020
    1UNL     C9   12   0.201   0.115   0.167
    1UNL     O4   13   0.252  -0.008   0.219
    1UNL    C10   14   0.179  -0.117   0.149
    1UNL     O5   15   0.240  -0.244   0.176
    1UNL    C11   16   0.039  -0.108   0.208
    1UNL    C12   17  -0.015   0.038   0.170
    1UNL    C13   18  -0.158   0.046   0.219
    1UNL     O6   19   0.076   0.142   0.230
    1UNL    C14   20   0.009   0.070   0.017
    1UNL     O7   21  -0.062   0.181  -0.045
    1UNL    C15   22  -0.164   0.131  -0.128
    1UNL     O8   23  -0.210  -0.006  -0.109
    1UNL    C16   24  -0.303  -0.054  -0.208
    1UNL    C17   25  -0.350  -0.196  -0.181
    1UNL     O9   26  -0.396  -0.200  -0.045
    1UNL    C18   27  -0.529  -0.191  -0.042
    1UNL    O10   28  -0.597  -0.183  -0.140
    1UNL    C19   29  -0.591  -0.210   0.089
    1UNL    C20   30  -0.732  -0.241   0.096
    1UNL    C21   31  -0.788  -0.267   0.222
    1UNL    C22   32  -0.702  -0.280   0.330
    1UNL    C23   33  -0.563  -0.255   0.321
    1UNL    C24   34  -0.515  -0.218   0.201
    1UNL    C25   35  -0.430   0.048  -0.213
    1UNL    O11   36  -0.465   0.099  -0.344
    1UNL    C26   37  -0.421   0.157  -0.106
    1UNL    O12   38  -0.410   0.100   0.024
    1UNL    C27   39  -0.285   0.232  -0.133
    1UNL    O13   40  -0.276   0.298  -0.259
    1UNL    C28   41   0.028  -0.058  -0.069
    1UNL    C29   42   0.176  -0.073  -0.005
    1UNL    C30   43   0.613   0.060  -0.165
    1UNL    C31   44   0.743   0.002  -0.173
    1UNL     H1   45   1.060  -0.031   0.086
    1UNL     H2   46   1.164  -0.016  -0.046
    1UNL     H3   47   1.086   0.125   0.010
    1UNL     H4   48   0.899   0.141   0.079
    1UNL     H5   49   0.650   0.217   0.128
    1UNL     H6   50   0.245   0.278  -0.032
    1UNL     H7   51   0.168   0.196  -0.165
    1UNL     H8   52   0.270   0.198   0.168
    1UNL     H9   53   0.341  -0.238   0.157
    1UNL    H10   54  -0.029  -0.189   0.171
    1UNL    H11   55   0.042  -0.116   0.315
    1UNL    H12   56  -0.189   0.140   0.174
    1UNL    H13   57  -0.175   0.054   0.328
    1UNL    H14   58  -0.222  -0.031   0.174
    1UNL    H15   59  -0.129   0.134  -0.239
    1UNL    H16   60  -0.248  -0.049  -0.302
    1UNL    H17   61  -0.428  -0.232  -0.247
    1UNL    H18   62  -0.262  -0.260  -0.176
    1UNL    H19   63  -0.792  -0.243   0.008
    1UNL    H20   64  -0.895  -0.291   0.225
    1UNL    H21   65  -0.732  -0.315   0.427
    1UNL    H22   66  -0.503  -0.290   0.399
    1UNL    H23   67  -0.402  -0.211   0.190
    1UNL    H24   68  -0.518  -0.014  -0.186
    1UNL    H25   69  -0.476   0.018  -0.409
    1UNL    H26   70  -0.504   0.230  -0.114
    1UNL    H27   71  -0.362   0.017   0.025
    1UNL    H28   72  -0.257   0.296  -0.059
    1UNL    H29   73  -0.324   0.237  -0.334
    1UNL    H30   74   0.028  -0.028  -0.180
    1UNL    H31   75  -0.040  -0.136  -0.045
    1UNL    H32   76   0.257  -0.096  -0.077
    1UNL    H33   77   0.543   0.069  -0.248
    1UNL    H34   78   0.768  -0.063  -0.254
   0.00000   0.00000   0.00000   0.00000   0.00000   0.00000   0.00000   0.00000   0.00000
Generated with MDTraj, t= 91.0
 78
    1UNL     C1    1   1.086   0.026  -0.047
    1UNL     O1    2   0.976  -0.029  -0.107
    1UNL     C2    3   0.851   0.040  -0.077
    1UNL     C3    4   0.813   0.120   0.027
    1UNL     C4    5   0.684   0.165   0.037
    1UNL     C5    6   0.583   0.141  -0.056
    1UNL     C6    7   0.447   0.186  -0.026
    1UNL     O2    8   0.420   0.256   0.076
    1UNL     O3    9   0.357   0.147  -0.116
    1UNL     C7   10   0.235   0.190  -0.076
    1UNL     C8   11   0.172   0.093   0.024
    1UNL     C9   12   0.200   0.115   0.172
    1UNL     O4   13   0.257  -0.009   0.231
    1UNL    C10   14   0.187  -0.114   0.154
    1UNL     O5   15   0.255  -0.245   0.176
    1UNL    C11   16   0.041  -0.097   0.208
    1UNL    C12   17  -0.015   0.046   0.158
    1UNL    C13   18  -0.165   0.058   0.175
    1UNL     O6   19   0.073   0.141   0.225
    1UNL    C14   20   0.019   0.066   0.006
    1UNL     O7   21  -0.052   0.175  -0.058
    1UNL    C15   22  -0.166   0.128  -0.131
    1UNL     O8   23  -0.204  -0.009  -0.121
    1UNL    C16   24  -0.301  -0.056  -0.216
    1UNL    C17   25  -0.350  -0.202  -0.180
    1UNL     O9   26  -0.402  -0.216  -0.042
    1UNL    C18   27  -0.535  -0.202  -0.042
    1UNL    O10   28  -0.596  -0.184  -0.143
    1UNL    C19   29  -0.603  -0.231   0.091
    1UNL    C20   30  -0.736  -0.269   0.093
    1UNL    C21   31  -0.794  -0.272   0.221
    1UNL    C22   32  -0.719  -0.260   0.337
    1UNL    C23   33  -0.581  -0.239   0.330
    1UNL    C24   34  -0.530  -0.211   0.209
    1UNL    C25   35  -0.429   0.048  -0.225
    1UNL    O11   36  -0.431   0.122  -0.347
    1UNL    C26   37  -0.426   0.146  -0.108
    1UNL    O12   38  -0.434   0.083   0.024
    1UNL    C27   39  -0.289   0.227  -0.111
    1UNL    O13   40  -0.289   0.319  -0.215
    1UNL    C28   41   0.050  -0.072  -0.060
    1UNL    C29   42   0.188  -0.067   0.001
    1UNL    C30   43   0.619   0.054  -0.159
    1UNL    C31   44   0.744   0.001  -0.165
    1UNL     H1   45   1.083   0.015   0.065
    1UNL     H2   46   1.161  -0.042  -0.083
    1UNL     H3   47   1.103   0.128  -0.076
    1UNL     H4   48   0.876   0.138   0.110
    1UNL     H5   49   0.666   0.243   0.116
    1UNL     H6   50   0.250   0.288  -0.026
    1UNL     H7   51   0.159   0.206  -0.161
    1UNL     H8   52   0.266   0.201   0.189
    1UNL     H9   53   0.310  -0.238   0.263
    1UNL    H10   54  -0.016  -0.175   0.162
    1UNL    H11   55   0.028  -0.109   0.317
    1UNL    H12   56  -0.199   0.158   0.152
    1UNL    H13   57  -0.202   0.042   0.278
    1UNL    H14   58  -0.214  -0.010   0.102
    1UNL    H15   59  -0.144   0.135  -0.246
    1UNL    H16   60  -0.250  -0.049  -0.310
    1UNL    H17   61  -0.426  -0.232  -0.251
    1UNL    H18   62  -0.260  -0.268  -0.180
    1UNL    H19   63  -0.790  -0.260  -0.002
    1UNL    H20   64  -0.899  -0.283   0.236
    1UNL    H21   65  -0.757  -0.257   0.440
    1UNL    H22   66  -0.520  -0.211   0.418
    1UNL    H23   67  -0.431  -0.192   0.197
    1UNL    H24   68  -0.524  -0.008  -0.221
    1UNL    H25   69  -0.428   0.054  -0.420
    1UNL    H26   70  -0.509   0.219  -0.111
    1UNL    H27   71  -0.415  -0.012   0.025
    1UNL    H28   72  -0.276   0.272  -0.021
    1UNL    H29   73  -0.343   0.280  -0.287
    1UNL    H30   74   0.045  -0.072  -0.172
    1UNL    H31   75  -0.004  -0.163  -0.032
    1UNL    H32   76   0.279  -0.084  -0.061
    1UNL    H33   77   0.551   0.020  -0.236
    1UNL    H34   78   0.760  -0.071  -0.244
   0.00000   0.00000   0.00000   0.00000   0.00000   0.00000   0.00000   0.00000   0.00000
Generated with MDTraj, t= 92.0
 78
    1UNL     C1    1   1.098   0.030  -0.048
    1UNL     O1    2   0.981  -0.018  -0.120
    1UNL     C2    3   0.853   0.029  -0.091
    1UNL     C3    4   0.832   0.122   0.016
    1UNL     C4    5   0.701   0.173   0.032
    1UNL     C5    6   0.599   0.132  -0.042
    1UNL     C6    7   0.457   0.187  -0.023
    1UNL     O2    8   0.430   0.259   0.077
    1UNL     O3    9   0.362   0.156  -0.116
    1UNL     C7   10   0.241   0.199  -0.079
    1UNL     C8   11   0.174   0.094   0.021
    1UNL     C9   12   0.193   0.122   0.181
    1UNL     O4   13   0.242   0.002   0.233
    1UNL    C10   14   0.179  -0.107   0.150
    1UNL     O5   15   0.248  -0.232   0.156
    1UNL    C11   16   0.029  -0.100   0.187
    1UNL    C12   17  -0.025   0.043   0.147
    1UNL    C13   18  -0.172   0.051   0.187
    1UNL     O6   19   0.056   0.146   0.217
    1UNL    C14   20   0.024   0.068  -0.004
    1UNL     O7   21  -0.047   0.166  -0.067
    1UNL    C15   22  -0.168   0.119  -0.128
    1UNL     O8   23  -0.208  -0.019  -0.116
    1UNL    C16   24  -0.301  -0.060  -0.211
    1UNL    C17   25  -0.350  -0.199  -0.170
    1UNL     O9   26  -0.405  -0.213  -0.040
    1UNL    C18   27  -0.542  -0.219  -0.045
    1UNL    O10   28  -0.607  -0.221  -0.145
    1UNL    C19   29  -0.606  -0.231   0.091
    1UNL    C20   30  -0.740  -0.265   0.099
    1UNL    C21   31  -0.809  -0.272   0.220
    1UNL    C22   32  -0.737  -0.251   0.338
    1UNL    C23   33  -0.604  -0.222   0.329
    1UNL    C24   34  -0.535  -0.207   0.211
    1UNL    C25   35  -0.421   0.047  -0.223
    1UNL    O11   36  -0.391   0.122  -0.341
    1UNL    C26   37  -0.424   0.142  -0.101
    1UNL    O12   38  -0.446   0.075   0.025
    1UNL    C27   39  -0.289   0.220  -0.093
    1UNL    O13   40  -0.298   0.328  -0.180
    1UNL    C28   41   0.072  -0.061  -0.086
    1UNL    C29   42   0.199  -0.057   0.005
    1UNL    C30   43   0.619   0.041  -0.144
    1UNL    C31   44   0.745  -0.018  -0.165
    1UNL     H1   45   1.090  -0.005   0.060
    1UNL     H2   46   1.186  -0.016  -0.095
    1UNL     H3   47   1.098   0.142  -0.040
    1UNL     H4   48   0.911   0.136   0.089
    1UNL     H5   49   0.675   0.259   0.087
    1UNL     H6   50   0.238   0.297  -0.027
    1UNL     H7   51   0.173   0.206  -0.171
    1UNL     H8   52   0.255   0.212   0.201
    1UNL     H9   53   0.247  -0.259   0.255
    1UNL    H10   54  -0.027  -0.177   0.141
    1UNL    H11   55   0.011  -0.108   0.298
    1UNL    H12   56  -0.214   0.152   0.178
    1UNL    H13   57  -0.182   0.030   0.293
    1UNL    H14   58  -0.228  -0.022   0.126
    1UNL    H15   59  -0.147   0.131  -0.243
    1UNL    H16   60  -0.245  -0.072  -0.299
    1UNL    H17   61  -0.422  -0.233  -0.244
    1UNL    H18   62  -0.253  -0.259  -0.162
    1UNL    H19   63  -0.792  -0.280   0.006
    1UNL    H20   64  -0.918  -0.279   0.226
    1UNL    H21   65  -0.783  -0.256   0.433
    1UNL    H22   66  -0.545  -0.216   0.419
    1UNL    H23   67  -0.436  -0.149   0.214
    1UNL    H24   68  -0.517  -0.001  -0.241
    1UNL    H25   69  -0.380   0.065  -0.416
    1UNL    H26   70  -0.507   0.209  -0.125
    1UNL    H27   71  -0.399  -0.013   0.009
    1UNL    H28   72  -0.265   0.259   0.002
    1UNL    H29   73  -0.312   0.300  -0.271
    1UNL    H30   74   0.076  -0.033  -0.190
    1UNL    H31   75  -0.004  -0.143  -0.069
    1UNL    H32   76   0.296  -0.073  -0.048
    1UNL    H33   77   0.528   0.014  -0.196
    1UNL    H34   78   0.758  -0.091  -0.243
   0.00000   0.00000   0.00000   0.00000   0.00000   0.00000   0.00000   0.00000   0.00000
Generated with MDTraj, t= 93.0
 78
    1UNL     C1    1   1.093   0.030  -0.035
    1UNL     O1    2   0.993  -0.012  -0.132
    1UNL     C2    3   0.858   0.029  -0.105
    1UNL     C3    4   0.839   0.125  -0.004
    1UNL     C4    5   0.721   0.179   0.028
    1UNL     C5    6   0.603   0.129  -0.028
    1UNL     C6    7   0.472   0.191  -0.015
    1UNL     O2    8   0.445   0.259   0.087
    1UNL     O3    9   0.378   0.151  -0.109
    1UNL     C7   10   0.250   0.195  -0.076
    1UNL     C8   11   0.176   0.104   0.024
    1UNL     C9   12   0.192   0.118   0.177
    1UNL     O4   13   0.232  -0.007   0.224
    1UNL    C10   14   0.176  -0.109   0.140
    1UNL     O5   15   0.248  -0.235   0.156
    1UNL    C11   16   0.033  -0.111   0.178
    1UNL    C12   17  -0.016   0.034   0.151
    1UNL    C13   18  -0.163   0.039   0.195
    1UNL     O6   19   0.056   0.141   0.222
    1UNL    C14   20   0.022   0.067  -0.001
    1UNL     O7   21  -0.060   0.172  -0.050
    1UNL    C15   22  -0.170   0.134  -0.127
    1UNL     O8   23  -0.209  -0.003  -0.108
    1UNL    C16   24  -0.295  -0.056  -0.206
    1UNL    C17   25  -0.337  -0.196  -0.148
    1UNL     O9   26  -0.406  -0.189  -0.028
    1UNL    C18   27  -0.540  -0.225  -0.045
    1UNL    O10   28  -0.602  -0.249  -0.147
    1UNL    C19   29  -0.611  -0.233   0.086
    1UNL    C20   30  -0.750  -0.260   0.095
    1UNL    C21   31  -0.823  -0.262   0.212
    1UNL    C22   32  -0.754  -0.238   0.331
    1UNL    C23   33  -0.622  -0.212   0.327
    1UNL    C24   34  -0.548  -0.211   0.206
    1UNL    C25   35  -0.421   0.035  -0.218
    1UNL    O11   36  -0.414   0.095  -0.349
    1UNL    C26   37  -0.427   0.138  -0.101
    1UNL    O12   38  -0.447   0.082   0.029
    1UNL    C27   39  -0.293   0.221  -0.102
    1UNL    O13   40  -0.308   0.328  -0.189
    1UNL    C28   41   0.073  -0.038  -0.102
    1UNL    C29   42   0.197  -0.055  -0.011
    1UNL    C30   43   0.622   0.034  -0.128
    1UNL    C31   44   0.745  -0.012  -0.176
    1UNL     H1   45   1.055   0.012   0.071
    1UNL     H2   46   1.184  -0.031  -0.056
    1UNL     H3   47   1.107   0.144  -0.037
    1UNL     H4   48   0.913   0.187   0.044
    1UNL     H5   49   0.719   0.249   0.115
    1UNL     H6   50   0.252   0.291  -0.022
    1UNL     H7   51   0.183   0.206  -0.167
    1UNL     H8   52   0.268   0.192   0.216
    1UNL     H9   53   0.342  -0.215   0.186
    1UNL    H10   54  -0.032  -0.178   0.127
    1UNL    H11   55   0.028  -0.134   0.288
    1UNL    H12   56  -0.196   0.147   0.195
    1UNL    H13   57  -0.176   0.002   0.297
    1UNL    H14   58  -0.226  -0.015   0.123
    1UNL    H15   59  -0.137   0.140  -0.239
    1UNL    H16   60  -0.244  -0.073  -0.295
    1UNL    H17   61  -0.398  -0.245  -0.224
    1UNL    H18   62  -0.243  -0.255  -0.122
    1UNL    H19   63  -0.804  -0.286   0.005
    1UNL    H20   64  -0.925  -0.292   0.211
    1UNL    H21   65  -0.809  -0.273   0.419
    1UNL    H22   66  -0.576  -0.211   0.425
    1UNL    H23   67  -0.446  -0.186   0.213
    1UNL    H24   68  -0.504  -0.033  -0.206
    1UNL    H25   69  -0.406   0.034  -0.418
    1UNL    H26   70  -0.509   0.208  -0.119
    1UNL    H27   71  -0.413  -0.009   0.028
    1UNL    H28   72  -0.282   0.268  -0.005
    1UNL    H29   73  -0.361   0.287  -0.272
    1UNL    H30   74   0.092   0.006  -0.197
    1UNL    H31   75   0.010  -0.134  -0.101
    1UNL    H32   76   0.288  -0.095  -0.061
    1UNL    H33   77   0.538   0.008  -0.189
    1UNL    H34   78   0.749  -0.087  -0.253
   0.00000   0.00000   0.00000   0.00000   0.00000   0.00000   0.00000   0.00000   0.00000
Generated with MDTraj, t= 94.0
 78
    1UNL     C1    1   1.105   0.016  -0.050
    1UNL     O1    2   0.992  -0.021  -0.119
    1UNL     C2    3   0.873   0.042  -0.095
    1UNL     C3    4   0.851   0.142   0.001
    1UNL     C4    5   0.717   0.190   0.024
    1UNL     C5    6   0.604   0.150  -0.049
    1UNL     C6    7   0.466   0.195  -0.013
    1UNL     O2    8   0.433   0.243   0.098
    1UNL     O3    9   0.370   0.163  -0.107
    1UNL     C7   10   0.247   0.213  -0.067
    1UNL     C8   11   0.176   0.106   0.027
    1UNL     C9   12   0.205   0.105   0.177
    1UNL     O4   13   0.248  -0.030   0.219
    1UNL    C10   14   0.184  -0.123   0.129
    1UNL     O5   15   0.244  -0.251   0.119
    1UNL    C11   16   0.037  -0.113   0.179
    1UNL    C12   17  -0.014   0.033   0.161
    1UNL    C13   18  -0.162   0.047   0.198
    1UNL     O6   19   0.075   0.123   0.232
    1UNL    C14   20   0.023   0.077   0.007
    1UNL     O7   21  -0.067   0.185  -0.037
    1UNL    C15   22  -0.170   0.131  -0.121
    1UNL     O8   23  -0.213  -0.008  -0.091
    1UNL    C16   24  -0.313  -0.058  -0.185
    1UNL    C17   25  -0.333  -0.210  -0.140
    1UNL     O9   26  -0.394  -0.209  -0.018
    1UNL    C18   27  -0.528  -0.229  -0.033
    1UNL    O10   28  -0.583  -0.249  -0.140
    1UNL    C19   29  -0.613  -0.238   0.091
    1UNL    C20   30  -0.751  -0.254   0.078
    1UNL    C21   31  -0.827  -0.250   0.190
    1UNL    C22   32  -0.778  -0.230   0.312
    1UNL    C23   33  -0.645  -0.210   0.334
    1UNL    C24   34  -0.563  -0.215   0.220
    1UNL    C25   35  -0.439   0.037  -0.202
    1UNL    O11   36  -0.441   0.091  -0.339
    1UNL    C26   37  -0.434   0.155  -0.098
    1UNL    O12   38  -0.441   0.103   0.031
    1UNL    C27   39  -0.296   0.224  -0.123
    1UNL    O13   40  -0.296   0.299  -0.245
    1UNL    C28   41   0.066  -0.036  -0.093
    1UNL    C29   42   0.198  -0.046  -0.008
    1UNL    C30   43   0.629   0.044  -0.139
    1UNL    C31   44   0.761   0.004  -0.165
    1UNL     H1   45   1.090  -0.009   0.057
    1UNL     H2   46   1.186  -0.043  -0.098
    1UNL     H3   47   1.114   0.132  -0.058
    1UNL     H4   48   0.937   0.168   0.060
    1UNL     H5   49   0.698   0.265   0.095
    1UNL     H6   50   0.261   0.314  -0.027
    1UNL     H7   51   0.171   0.218  -0.152
    1UNL     H8   52   0.287   0.174   0.215
    1UNL     H9   53   0.339  -0.230   0.120
    1UNL    H10   54  -0.037  -0.186   0.147
    1UNL    H11   55   0.046  -0.124   0.288
    1UNL    H12   56  -0.203   0.150   0.195
    1UNL    H13   57  -0.172   0.003   0.299
    1UNL    H14   58  -0.220  -0.016   0.128
    1UNL    H15   59  -0.121   0.137  -0.229
    1UNL    H16   60  -0.265  -0.050  -0.277
    1UNL    H17   61  -0.397  -0.256  -0.214
    1UNL    H18   62  -0.232  -0.260  -0.138
    1UNL    H19   63  -0.794  -0.253  -0.023
    1UNL    H20   64  -0.931  -0.288   0.181
    1UNL    H21   65  -0.849  -0.239   0.391
    1UNL    H22   66  -0.606  -0.180   0.434
    1UNL    H23   67  -0.455  -0.213   0.233
    1UNL    H24   68  -0.532  -0.010  -0.179
    1UNL    H25   69  -0.441   0.024  -0.411
    1UNL    H26   70  -0.517   0.222  -0.121
    1UNL    H27   71  -0.432   0.002   0.039
    1UNL    H28   72  -0.282   0.303  -0.049
    1UNL    H29   73  -0.344   0.249  -0.304
    1UNL    H30   74   0.065   0.004  -0.193
    1UNL    H31   75   0.009  -0.133  -0.089
    1UNL    H32   76   0.291  -0.060  -0.066
    1UNL    H33   77   0.548  -0.002  -0.195
    1UNL    H34   78   0.787  -0.075  -0.236
   0.00000   0.00000   0.00000   0.00000   0.00000   0.00000   0.00000   0.00000   0.00000
Generated with MDTraj, t= 95.0
 78
    1UNL     C1    1   1.090   0.038  -0.042
    1UNL     O1    2   0.983  -0.001  -0.125
    1UNL     C2    3   0.856   0.045  -0.088
    1UNL     C3    4   0.829   0.130   0.016
    1UNL     C4    5   0.707   0.183   0.035
    1UNL     C5    6   0.597   0.138  -0.039
    1UNL     C6    7   0.460   0.196  -0.008
    1UNL     O2    8   0.445   0.268   0.091
    1UNL     O3    9   0.364   0.168  -0.100
    1UNL     C7   10   0.240   0.205  -0.050
    1UNL     C8   11   0.176   0.091   0.026
    1UNL     C9   12   0.218   0.090   0.178
    1UNL     O4   13   0.273  -0.042   0.205
    1UNL    C10   14   0.201  -0.129   0.117
    1UNL     O5   15   0.248  -0.264   0.093
    1UNL    C11   16   0.055  -0.117   0.176
    1UNL    C12   17  -0.000   0.030   0.160
    1UNL    C13   18  -0.153   0.043   0.191
    1UNL     O6   19   0.090   0.112   0.239
    1UNL    C14   20   0.024   0.075   0.011
    1UNL     O7   21  -0.062   0.187  -0.037
    1UNL    C15   22  -0.163   0.140  -0.122
    1UNL     O8   23  -0.198   0.005  -0.088
    1UNL    C16   24  -0.290  -0.066  -0.176
    1UNL    C17   25  -0.332  -0.208  -0.114
    1UNL     O9   26  -0.409  -0.197  -0.001
    1UNL    C18   27  -0.542  -0.215  -0.031
    1UNL    O10   28  -0.574  -0.237  -0.146
    1UNL    C19   29  -0.635  -0.221   0.088
    1UNL    C20   30  -0.769  -0.231   0.074
    1UNL    C21   31  -0.843  -0.248   0.184
    1UNL    C22   32  -0.789  -0.230   0.307
    1UNL    C23   33  -0.653  -0.210   0.328
    1UNL    C24   34  -0.573  -0.212   0.218
    1UNL    C25   35  -0.424   0.021  -0.191
    1UNL    O11   36  -0.447   0.056  -0.326
    1UNL    C26   37  -0.422   0.152  -0.099
    1UNL    O12   38  -0.421   0.113   0.034
    1UNL    C27   39  -0.292   0.231  -0.132
    1UNL    O13   40  -0.291   0.279  -0.266
    1UNL    C28   41   0.050  -0.040  -0.092
    1UNL    C29   42   0.188  -0.057  -0.026
    1UNL    C30   43   0.625   0.057  -0.154
    1UNL    C31   44   0.749   0.008  -0.168
    1UNL     H1   45   1.072   0.002   0.057
    1UNL     H2   46   1.178  -0.006  -0.088
    1UNL     H3   47   1.091   0.152  -0.039
    1UNL     H4   48   0.907   0.168   0.079
    1UNL     H5   49   0.703   0.276   0.096
    1UNL     H6   50   0.244   0.280   0.027
    1UNL     H7   51   0.178   0.248  -0.134
    1UNL     H8   52   0.285   0.179   0.202
    1UNL     H9   53   0.336  -0.274   0.119
    1UNL    H10   54  -0.028  -0.179   0.135
    1UNL    H11   55   0.056  -0.136   0.280
    1UNL    H12   56  -0.196   0.136   0.156
    1UNL    H13   57  -0.168   0.039   0.303
    1UNL    H14   58  -0.212  -0.041   0.149
    1UNL    H15   59  -0.111   0.140  -0.228
    1UNL    H16   60  -0.249  -0.074  -0.273
    1UNL    H17   61  -0.385  -0.267  -0.185
    1UNL    H18   62  -0.237  -0.262  -0.090
    1UNL    H19   63  -0.812  -0.233  -0.023
    1UNL    H20   64  -0.947  -0.263   0.178
    1UNL    H21   65  -0.853  -0.212   0.393
    1UNL    H22   66  -0.621  -0.199   0.426
    1UNL    H23   67  -0.465  -0.183   0.226
    1UNL    H24   68  -0.500  -0.045  -0.154
    1UNL    H25   69  -0.460  -0.037  -0.371
    1UNL    H26   70  -0.512   0.212  -0.115
    1UNL    H27   71  -0.382   0.022   0.034
    1UNL    H28   72  -0.289   0.313  -0.061
    1UNL    H29   73  -0.338   0.210  -0.326
    1UNL    H30   74   0.042  -0.000  -0.195
    1UNL    H31   75  -0.021  -0.122  -0.077
    1UNL    H32   76   0.274  -0.068  -0.095
    1UNL    H33   77   0.543   0.031  -0.217
    1UNL    H34   78   0.774  -0.031  -0.265
   0.00000   0.00000   0.00000   0.00000   0.00000   0.00000   0.00000   0.00000   0.00000
Generated with MDTraj, t= 96.0
 78
    1UNL     C1    1   1.091   0.045  -0.038
    1UNL     O1    2   0.976   0.010  -0.125
    1UNL     C2    3   0.853   0.062  -0.089
    1UNL     C3    4   0.821   0.124   0.034
    1UNL     C4    5   0.694   0.179   0.059
    1UNL     C5    6   0.594   0.163  -0.040
    1UNL     C6    7   0.454   0.204  -0.014
    1UNL     O2    8   0.433   0.261   0.091
    1UNL     O3    9   0.365   0.175  -0.115
    1UNL     C7   10   0.242   0.207  -0.071
    1UNL     C8   11   0.187   0.093   0.009
    1UNL     C9   12   0.217   0.095   0.164
    1UNL     O4   13   0.273  -0.035   0.193
    1UNL    C10   14   0.207  -0.132   0.106
    1UNL     O5   15   0.273  -0.266   0.107
    1UNL    C11   16   0.059  -0.134   0.164
    1UNL    C12   17   0.006   0.007   0.147
    1UNL    C13   18  -0.135   0.009   0.195
    1UNL     O6   19   0.088   0.108   0.222
    1UNL    C14   20   0.035   0.067   0.001
    1UNL     O7   21  -0.044   0.174  -0.044
    1UNL    C15   22  -0.159   0.119  -0.110
    1UNL     O8   23  -0.209  -0.011  -0.076
    1UNL    C16   24  -0.294  -0.073  -0.170
    1UNL    C17   25  -0.342  -0.210  -0.118
    1UNL     O9   26  -0.409  -0.200  -0.001
    1UNL    C18   27  -0.549  -0.210  -0.010
    1UNL    O10   28  -0.597  -0.219  -0.121
    1UNL    C19   29  -0.639  -0.209   0.104
    1UNL    C20   30  -0.775  -0.220   0.080
    1UNL    C21   31  -0.865  -0.235   0.180
    1UNL    C22   32  -0.818  -0.220   0.305
    1UNL    C23   33  -0.682  -0.207   0.325
    1UNL    C24   34  -0.586  -0.209   0.233
    1UNL    C25   35  -0.419   0.019  -0.196
    1UNL    O11   36  -0.430   0.057  -0.328
    1UNL    C26   37  -0.415   0.149  -0.104
    1UNL    O12   38  -0.431   0.112   0.034
    1UNL    C27   39  -0.278   0.222  -0.127
    1UNL    O13   40  -0.256   0.283  -0.254
    1UNL    C28   41   0.061  -0.050  -0.093
    1UNL    C29   42   0.204  -0.061  -0.036
    1UNL    C30   43   0.623   0.080  -0.148
    1UNL    C31   44   0.747   0.030  -0.180
    1UNL     H1   45   1.069   0.013   0.059
    1UNL     H2   46   1.181  -0.004  -0.063
    1UNL     H3   47   1.098   0.155  -0.042
    1UNL     H4   48   0.903   0.124   0.105
    1UNL     H5   49   0.670   0.224   0.151
    1UNL     H6   50   0.254   0.295  -0.012
    1UNL     H7   51   0.170   0.239  -0.152
    1UNL     H8   52   0.286   0.177   0.194
    1UNL     H9   53   0.357  -0.260   0.146
    1UNL    H10   54  -0.020  -0.196   0.114
    1UNL    H11   55   0.058  -0.157   0.267
    1UNL    H12   56  -0.174   0.110   0.195
    1UNL    H13   57  -0.140  -0.023   0.302
    1UNL    H14   58  -0.198  -0.063   0.139
    1UNL    H15   59  -0.111   0.106  -0.217
    1UNL    H16   60  -0.252  -0.083  -0.269
    1UNL    H17   61  -0.403  -0.257  -0.189
    1UNL    H18   62  -0.251  -0.272  -0.106
    1UNL    H19   63  -0.804  -0.230  -0.026
    1UNL    H20   64  -0.973  -0.240   0.155
    1UNL    H21   65  -0.889  -0.234   0.384
    1UNL    H22   66  -0.650  -0.199   0.434
    1UNL    H23   67  -0.486  -0.194   0.249
    1UNL    H24   68  -0.508  -0.038  -0.172
    1UNL    H25   69  -0.451  -0.025  -0.387
    1UNL    H26   70  -0.499   0.213  -0.131
    1UNL    H27   71  -0.393   0.021   0.033
    1UNL    H28   72  -0.271   0.298  -0.048
    1UNL    H29   73  -0.289   0.229  -0.339
    1UNL    H30   74   0.065  -0.020  -0.203
    1UNL    H31   75   0.000  -0.135  -0.079
    1UNL    H32   76   0.288  -0.080  -0.105
    1UNL    H33   77   0.540   0.080  -0.220
    1UNL    H34   78   0.769  -0.053  -0.247
   0.00000   0.00000   0.00000   0.00000   0.00000   0.00000   0.00000   0.00000   0.00000
Generated with MDTraj, t= 97.0
 78
    1UNL     C1    1   1.087   0.046  -0.016
    1UNL     O1    2   0.983   0.026  -0.109
    1UNL     C2    3   0.854   0.071  -0.084
    1UNL     C3    4   0.819   0.128   0.040
    1UNL     C4    5   0.695   0.177   0.051
    1UNL     C5    6   0.596   0.169  -0.048
    1UNL     C6    7   0.459   0.212  -0.025
    1UNL     O2    8   0.423   0.248   0.083
    1UNL     O3    9   0.372   0.180  -0.125
    1UNL     C7   10   0.242   0.202  -0.077
    1UNL     C8   11   0.189   0.090   0.012
    1UNL     C9   12   0.224   0.086   0.172
    1UNL     O4   13   0.291  -0.038   0.201
    1UNL    C10   14   0.230  -0.133   0.107
    1UNL     O5   15   0.308  -0.253   0.102
    1UNL    C11   16   0.084  -0.149   0.162
    1UNL    C12   17   0.016  -0.000   0.149
    1UNL    C13   18  -0.121  -0.024   0.206
    1UNL     O6   19   0.096   0.090   0.226
    1UNL    C14   20   0.033   0.047  -0.003
    1UNL     O7   21  -0.058   0.147  -0.056
    1UNL    C15   22  -0.167   0.098  -0.132
    1UNL     O8   23  -0.213  -0.022  -0.085
    1UNL    C16   24  -0.308  -0.083  -0.173
    1UNL    C17   25  -0.364  -0.211  -0.100
    1UNL     O9   26  -0.431  -0.186   0.016
    1UNL    C18   27  -0.570  -0.196  -0.008
    1UNL    O10   28  -0.623  -0.196  -0.121
    1UNL    C19   29  -0.660  -0.198   0.106
    1UNL    C20   30  -0.796  -0.216   0.083
    1UNL    C21   31  -0.878  -0.210   0.190
    1UNL    C22   32  -0.828  -0.206   0.318
    1UNL    C23   33  -0.692  -0.203   0.336
    1UNL    C24   34  -0.611  -0.202   0.229
    1UNL    C25   35  -0.417   0.020  -0.217
    1UNL    O11   36  -0.391   0.069  -0.339
    1UNL    C26   37  -0.423   0.138  -0.111
    1UNL    O12   38  -0.440   0.092   0.026
    1UNL    C27   39  -0.283   0.207  -0.126
    1UNL    O13   40  -0.272   0.296  -0.234
    1UNL    C28   41   0.084  -0.062  -0.103
    1UNL    C29   42   0.225  -0.055  -0.029
    1UNL    C30   43   0.637   0.111  -0.169
    1UNL    C31   44   0.759   0.057  -0.184
    1UNL     H1   45   1.071  -0.018   0.064
    1UNL     H2   46   1.175   0.009  -0.060
    1UNL     H3   47   1.092   0.153   0.002
    1UNL     H4   48   0.898   0.142   0.109
    1UNL     H5   49   0.667   0.213   0.153
    1UNL     H6   50   0.242   0.297  -0.029
    1UNL     H7   51   0.180   0.225  -0.167
    1UNL     H8   52   0.295   0.161   0.214
    1UNL     H9   53   0.347  -0.254   0.188
    1UNL    H10   54   0.033  -0.229   0.105
    1UNL    H11   55   0.078  -0.174   0.266
    1UNL    H12   56  -0.169   0.073   0.228
    1UNL    H13   57  -0.116  -0.071   0.305
    1UNL    H14   58  -0.184  -0.084   0.140
    1UNL    H15   59  -0.124   0.085  -0.241
    1UNL    H16   60  -0.259  -0.110  -0.269
    1UNL    H17   61  -0.425  -0.273  -0.159
    1UNL    H18   62  -0.272  -0.270  -0.078
    1UNL    H19   63  -0.828  -0.218  -0.018
    1UNL    H20   64  -0.979  -0.237   0.180
    1UNL    H21   65  -0.894  -0.224   0.402
    1UNL    H22   66  -0.655  -0.195   0.430
    1UNL    H23   67  -0.499  -0.220   0.248
    1UNL    H24   68  -0.517  -0.027  -0.214
    1UNL    H25   69  -0.393   0.006  -0.413
    1UNL    H26   70  -0.496   0.216  -0.136
    1UNL    H27   71  -0.436  -0.009   0.022
    1UNL    H28   72  -0.271   0.271  -0.039
    1UNL    H29   73  -0.314   0.257  -0.305
    1UNL    H30   74   0.088  -0.019  -0.208
    1UNL    H31   75   0.035  -0.156  -0.104
    1UNL    H32   76   0.317  -0.048  -0.089
    1UNL    H33   77   0.565   0.105  -0.248
    1UNL    H34   78   0.773   0.010  -0.279
   0.00000   0.00000   0.00000   0.00000   0.00000   0.00000   0.00000   0.00000   0.00000
Generated with MDTraj, t= 98.0
 78
    1UNL     C1    1   1.074   0.040   0.009
    1UNL     O1    2   1.004   0.054  -0.108
    1UNL     C2    3   0.873   0.084  -0.085
    1UNL     C3    4   0.824   0.141   0.034
    1UNL     C4    5   0.692   0.165   0.057
    1UNL     C5    6   0.599   0.166  -0.048
    1UNL     C6    7   0.462   0.220  -0.027
    1UNL     O2    8   0.432   0.277   0.077
    1UNL     O3    9   0.377   0.181  -0.133
    1UNL     C7   10   0.245   0.200  -0.078
    1UNL     C8   11   0.196   0.086   0.006
    1UNL     C9   12   0.225   0.084   0.159
    1UNL     O4   13   0.294  -0.039   0.189
    1UNL    C10   14   0.235  -0.138   0.104
    1UNL     O5   15   0.328  -0.248   0.083
    1UNL    C11   16   0.095  -0.157   0.161
    1UNL    C12   17   0.015  -0.019   0.147
    1UNL    C13   18  -0.132  -0.032   0.190
    1UNL     O6   19   0.094   0.079   0.225
    1UNL    C14   20   0.044   0.035   0.003
    1UNL     O7   21  -0.049   0.132  -0.027
    1UNL    C15   22  -0.163   0.077  -0.109
    1UNL     O8   23  -0.217  -0.053  -0.074
    1UNL    C16   24  -0.320  -0.101  -0.165
    1UNL    C17   25  -0.379  -0.230  -0.104
    1UNL     O9   26  -0.456  -0.198   0.008
    1UNL    C18   27  -0.591  -0.185  -0.023
    1UNL    O10   28  -0.646  -0.181  -0.137
    1UNL    C19   29  -0.675  -0.186   0.100
    1UNL    C20   30  -0.808  -0.180   0.089
    1UNL    C21   31  -0.884  -0.187   0.201
    1UNL    C22   32  -0.832  -0.201   0.329
    1UNL    C23   33  -0.699  -0.194   0.343
    1UNL    C24   34  -0.620  -0.178   0.229
    1UNL    C25   35  -0.419   0.009  -0.214
    1UNL    O11   36  -0.379   0.056  -0.337
    1UNL    C26   37  -0.421   0.134  -0.108
    1UNL    O12   38  -0.464   0.088   0.019
    1UNL    C27   39  -0.275   0.191  -0.110
    1UNL    O13   40  -0.249   0.286  -0.213
    1UNL    C28   41   0.087  -0.066  -0.112
    1UNL    C29   42   0.224  -0.064  -0.039
    1UNL    C30   43   0.643   0.134  -0.171
    1UNL    C31   44   0.775   0.085  -0.191
    1UNL     H1   45   1.022  -0.030   0.069
    1UNL     H2   46   1.167  -0.008  -0.012
    1UNL     H3   47   1.088   0.142   0.048
    1UNL     H4   48   0.897   0.146   0.118
    1UNL     H5   49   0.657   0.226   0.135
    1UNL     H6   50   0.228   0.294  -0.028
    1UNL     H7   51   0.183   0.215  -0.169
    1UNL     H8   52   0.279   0.175   0.185
    1UNL     H9   53   0.420  -0.213   0.074
    1UNL    H10   54   0.041  -0.233   0.110
    1UNL    H11   55   0.108  -0.184   0.266
    1UNL    H12   56  -0.179   0.047   0.126
    1UNL    H13   57  -0.163  -0.011   0.291
    1UNL    H14   58  -0.168  -0.128   0.154
    1UNL    H15   59  -0.120   0.067  -0.217
    1UNL    H16   60  -0.261  -0.130  -0.258
    1UNL    H17   61  -0.440  -0.280  -0.176
    1UNL    H18   62  -0.297  -0.301  -0.078
    1UNL    H19   63  -0.851  -0.185  -0.013
    1UNL    H20   64  -0.995  -0.182   0.191
    1UNL    H21   65  -0.888  -0.198   0.420
    1UNL    H22   66  -0.645  -0.192   0.443
    1UNL    H23   67  -0.518  -0.170   0.233
    1UNL    H24   68  -0.519  -0.042  -0.210
    1UNL    H25   69  -0.384  -0.011  -0.401
    1UNL    H26   70  -0.487   0.211  -0.151
    1UNL    H27   71  -0.438  -0.004   0.030
    1UNL    H28   72  -0.270   0.252  -0.019
    1UNL    H29   73  -0.284   0.241  -0.304
    1UNL    H30   74   0.080  -0.016  -0.209
    1UNL    H31   75   0.035  -0.164  -0.120
    1UNL    H32   76   0.311  -0.085  -0.103
    1UNL    H33   77   0.570   0.136  -0.252
    1UNL    H34   78   0.813   0.064  -0.290
   0.00000   0.00000   0.00000   0.00000   0.00000   0.00000   0.00000   0.00000   0.00000
Generated with MDTraj, t= 99.0
 78
    1UNL     C1    1   1.080   0.039   0.013
    1UNL     O1    2   0.996   0.058  -0.104
    1UNL     C2    3   0.870   0.125  -0.083
    1UNL     C3    4   0.824   0.158   0.047
    1UNL     C4    5   0.694   0.179   0.069
    1UNL     C5    6   0.604   0.186  -0.037
    1UNL     C6    7   0.457   0.220  -0.025
    1UNL     O2    8   0.414   0.267   0.076
    1UNL     O3    9   0.373   0.180  -0.131
    1UNL     C7   10   0.233   0.186  -0.088
    1UNL     C8   11   0.193   0.068  -0.005
    1UNL     C9   12   0.237   0.072   0.155
    1UNL     O4   13   0.309  -0.049   0.175
    1UNL    C10   14   0.250  -0.150   0.089
    1UNL     O5   15   0.336  -0.268   0.075
    1UNL    C11   16   0.114  -0.171   0.160
    1UNL    C12   17   0.033  -0.037   0.149
    1UNL    C13   18  -0.111  -0.046   0.195
    1UNL     O6   19   0.112   0.063   0.225
    1UNL    C14   20   0.041   0.022  -0.001
    1UNL     O7   21  -0.051   0.129  -0.017
    1UNL    C15   22  -0.165   0.090  -0.110
    1UNL     O8   23  -0.219  -0.037  -0.077
    1UNL    C16   24  -0.314  -0.101  -0.169
    1UNL    C17   25  -0.382  -0.228  -0.108
    1UNL     O9   26  -0.463  -0.213   0.008
    1UNL    C18   27  -0.597  -0.195  -0.020
    1UNL    O10   28  -0.640  -0.171  -0.136
    1UNL    C19   29  -0.674  -0.188   0.109
    1UNL    C20   30  -0.808  -0.167   0.093
    1UNL    C21   31  -0.901  -0.150   0.198
    1UNL    C22   32  -0.848  -0.157   0.326
    1UNL    C23   33  -0.712  -0.176   0.350
    1UNL    C24   34  -0.622  -0.186   0.242
    1UNL    C25   35  -0.416   0.005  -0.214
    1UNL    O11   36  -0.390   0.050  -0.343
    1UNL    C26   37  -0.416   0.131  -0.110
    1UNL    O12   38  -0.459   0.084   0.016
    1UNL    C27   39  -0.279   0.193  -0.111
    1UNL    O13   40  -0.275   0.275  -0.224
    1UNL    C28   41   0.081  -0.081  -0.106
    1UNL    C29   42   0.227  -0.081  -0.049
    1UNL    C30   43   0.651   0.152  -0.168
    1UNL    C31   44   0.782   0.120  -0.190
    1UNL     H1   45   1.044  -0.049   0.066
    1UNL     H2   46   1.181   0.007  -0.022
    1UNL     H3   47   1.087   0.132   0.070
    1UNL     H4   48   0.885   0.158   0.133
    1UNL     H5   49   0.654   0.185   0.174
    1UNL     H6   50   0.213   0.285  -0.048
    1UNL     H7   51   0.159   0.185  -0.171
    1UNL     H8   52   0.290   0.161   0.185
    1UNL     H9   53   0.365  -0.302   0.166
    1UNL    H10   54   0.076  -0.263   0.124
    1UNL    H11   55   0.134  -0.182   0.270
    1UNL    H12   56  -0.133   0.052   0.245
    1UNL    H13   57  -0.118  -0.120   0.271
    1UNL    H14   58  -0.178  -0.075   0.114
    1UNL    H15   59  -0.121   0.074  -0.217
    1UNL    H16   60  -0.248  -0.123  -0.262
    1UNL    H17   61  -0.445  -0.279  -0.182
    1UNL    H18   62  -0.300  -0.299  -0.077
    1UNL    H19   63  -0.856  -0.167  -0.001
    1UNL    H20   64  -1.001  -0.123   0.182
    1UNL    H21   65  -0.913  -0.123   0.409
    1UNL    H22   66  -0.675  -0.191   0.448
    1UNL    H23   67  -0.510  -0.171   0.254
    1UNL    H24   68  -0.518  -0.043  -0.212
    1UNL    H25   69  -0.387  -0.021  -0.406
    1UNL    H26   70  -0.486   0.207  -0.151
    1UNL    H27   71  -0.462  -0.018   0.013
    1UNL    H28   72  -0.272   0.255  -0.021
    1UNL    H29   73  -0.300   0.225  -0.303
    1UNL    H30   74   0.063  -0.037  -0.201
    1UNL    H31   75   0.020  -0.178  -0.104
    1UNL    H32   76   0.308  -0.098  -0.123
    1UNL    H33   77   0.584   0.141  -0.249
    1UNL    H34   78   0.815   0.072  -0.281
   0.00000   0.00000   0.00000   0.00000   0.00000   0.00000   0.00000   0.00000   0.00000
