Generated with MDTraj, t= 0.0
 53
    1UNL     C1    1   0.174   0.448   0.082
    1UNL     O1    2   0.181   0.325   0.017
    1UNL     C2    3   0.082   0.242   0.063
    1UNL     O2    4   0.002   0.276   0.150
    1UNL     C3    5   0.075   0.110   0.003
    1UNL     C4    6  -0.028   0.025   0.034
    1UNL     N1    7  -0.146   0.059   0.098
    1UNL     C5    8  -0.253  -0.020   0.051
    1UNL     C6    9  -0.391  -0.004   0.074
    1UNL     O3   10  -0.430   0.101   0.159
    1UNL     C7   11  -0.569   0.113   0.175
    1UNL     C8   12  -0.476  -0.094   0.010
    1UNL     C9   13  -0.427  -0.193  -0.073
    1UNL    C10   14  -0.291  -0.207  -0.096
    1UNL    C11   15  -0.204  -0.119  -0.034
    1UNL    C12   16  -0.052  -0.110  -0.033
    1UNL    C13   17   0.007  -0.226   0.053
    1UNL    C14   18   0.113  -0.297  -0.031
    1UNL     N2   19   0.135  -0.213  -0.154
    1UNL    C15   20   0.269  -0.150  -0.166
    1UNL    C16   21   0.284  -0.015  -0.092
    1UNL    C17   22   0.317  -0.036   0.057
    1UNL    C18   23   0.375   0.089   0.123
    1UNL     O4   24   0.403  -0.148   0.076
    1UNL    C19   25   0.159   0.079  -0.119
    1UNL    C20   26   0.065   0.017  -0.225
    1UNL    C21   27   0.018  -0.120  -0.174
    1UNL     H1   28   0.251   0.514   0.043
    1UNL     H2   29   0.075   0.491   0.064
    1UNL     H3   30   0.189   0.432   0.189
    1UNL     H4   31  -0.162   0.154   0.132
    1UNL     H5   32  -0.616   0.132   0.079
    1UNL     H6   33  -0.588   0.198   0.241
    1UNL     H7   34  -0.609   0.022   0.221
    1UNL     H8   35  -0.582  -0.086   0.025
    1UNL     H9   36  -0.495  -0.261  -0.121
    1UNL    H10   37  -0.253  -0.285  -0.159
    1UNL    H11   38   0.049  -0.186   0.146
    1UNL    H12   39  -0.072  -0.295   0.084
    1UNL    H13   40   0.207  -0.309   0.022
    1UNL    H14   41   0.080  -0.396  -0.063
    1UNL    H15   42   0.343  -0.222  -0.128
    1UNL    H16   43   0.291  -0.139  -0.272
    1UNL    H17   44   0.372   0.035  -0.135
    1UNL    H18   45   0.224  -0.064   0.109
    1UNL    H19   46   0.308   0.174   0.115
    1UNL    H20   47   0.394   0.071   0.229
    1UNL    H21   48   0.469   0.116   0.076
    1UNL    H22   49   0.492  -0.126   0.040
    1UNL    H23   50   0.196   0.176  -0.156
    1UNL    H24   51   0.115   0.007  -0.321
    1UNL    H25   52  -0.022   0.083  -0.241
    1UNL    H26   53  -0.051  -0.167  -0.245
   0.00000   0.00000   0.00000   0.00000   0.00000   0.00000   0.00000   0.00000   0.00000
Generated with MDTraj, t= 1.0
 53
    1UNL     C1    1   0.154   0.448   0.098
    1UNL     O1    2   0.170   0.336   0.017
    1UNL     C2    3   0.075   0.245   0.061
    1UNL     O2    4   0.000   0.271   0.154
    1UNL     C3    5   0.072   0.119  -0.007
    1UNL     C4    6  -0.031   0.025   0.023
    1UNL     N1    7  -0.146   0.058   0.096
    1UNL     C5    8  -0.249  -0.027   0.059
    1UNL     C6    9  -0.385  -0.002   0.072
    1UNL     O3   10  -0.417   0.100   0.159
    1UNL     C7   11  -0.560   0.123   0.190
    1UNL     C8   12  -0.472  -0.084   0.008
    1UNL     C9   13  -0.427  -0.186  -0.071
    1UNL    C10   14  -0.294  -0.196  -0.110
    1UNL    C11   15  -0.208  -0.120  -0.042
    1UNL    C12   16  -0.056  -0.111  -0.043
    1UNL    C13   17   0.008  -0.223   0.051
    1UNL    C14   18   0.107  -0.303  -0.030
    1UNL     N2   19   0.139  -0.223  -0.150
    1UNL    C15   20   0.273  -0.160  -0.152
    1UNL    C16   21   0.286  -0.025  -0.091
    1UNL    C17   22   0.314  -0.033   0.058
    1UNL    C18   23   0.366   0.096   0.123
    1UNL     O4   24   0.417  -0.141   0.073
    1UNL    C19   25   0.161   0.071  -0.123
    1UNL    C20   26   0.072   0.006  -0.230
    1UNL    C21   27   0.027  -0.130  -0.177
    1UNL     H1   28   0.200   0.538   0.054
    1UNL     H2   29   0.044   0.461   0.098
    1UNL     H3   30   0.195   0.429   0.200
    1UNL     H4   31  -0.168   0.154   0.139
    1UNL     H5   32  -0.616   0.164   0.106
    1UNL     H6   33  -0.577   0.181   0.283
    1UNL     H7   34  -0.589   0.028   0.236
    1UNL     H8   35  -0.580  -0.057   0.024
    1UNL     H9   36  -0.491  -0.264  -0.110
    1UNL    H10   37  -0.262  -0.260  -0.195
    1UNL    H11   38   0.039  -0.189   0.145
    1UNL    H12   39  -0.077  -0.283   0.079
    1UNL    H13   40   0.203  -0.326   0.018
    1UNL    H14   41   0.061  -0.402  -0.045
    1UNL    H15   42   0.341  -0.231  -0.101
    1UNL    H16   43   0.292  -0.163  -0.261
    1UNL    H17   44   0.381   0.014  -0.126
    1UNL    H18   45   0.222  -0.061   0.110
    1UNL    H19   46   0.293   0.171   0.129
    1UNL    H20   47   0.391   0.062   0.223
    1UNL    H21   48   0.463   0.135   0.075
    1UNL    H22   49   0.487  -0.125   0.008
    1UNL    H23   50   0.206   0.158  -0.168
    1UNL    H24   51   0.128   0.004  -0.322
    1UNL    H25   52  -0.017   0.062  -0.257
    1UNL    H26   53  -0.029  -0.174  -0.259
   0.00000   0.00000   0.00000   0.00000   0.00000   0.00000   0.00000   0.00000   0.00000
Generated with MDTraj, t= 2.0
 53
    1UNL     C1    1   0.176   0.442   0.053
    1UNL     O1    2   0.176   0.308   0.005
    1UNL     C2    3   0.086   0.231   0.070
    1UNL     O2    4   0.017   0.274   0.159
    1UNL     C3    5   0.072   0.100   0.016
    1UNL     C4    6  -0.029   0.013   0.043
    1UNL     N1    7  -0.149   0.053   0.097
    1UNL     C5    8  -0.261  -0.019   0.047
    1UNL     C6    9  -0.396  -0.004   0.081
    1UNL     O3   10  -0.432   0.103   0.169
    1UNL     C7   11  -0.568   0.119   0.197
    1UNL     C8   12  -0.483  -0.083  -0.000
    1UNL     C9   13  -0.435  -0.177  -0.089
    1UNL    C10   14  -0.296  -0.205  -0.096
    1UNL    C11   15  -0.211  -0.116  -0.039
    1UNL    C12   16  -0.057  -0.114  -0.038
    1UNL    C13   17  -0.005  -0.244   0.032
    1UNL    C14   18   0.116  -0.298  -0.044
    1UNL     N2   19   0.141  -0.216  -0.157
    1UNL    C15   20   0.287  -0.147  -0.156
    1UNL    C16   21   0.288  -0.013  -0.090
    1UNL    C17   22   0.319  -0.023   0.069
    1UNL    C18   23   0.367   0.102   0.124
    1UNL     O4   24   0.417  -0.127   0.084
    1UNL    C19   25   0.158   0.079  -0.110
    1UNL    C20   26   0.068   0.016  -0.220
    1UNL    C21   27   0.024  -0.128  -0.177
    1UNL     H1   28   0.271   0.498   0.043
    1UNL     H2   29   0.096   0.490  -0.007
    1UNL     H3   30   0.148   0.445   0.161
    1UNL     H4   31  -0.168   0.149   0.148
    1UNL     H5   32  -0.626   0.110   0.108
    1UNL     H6   33  -0.595   0.209   0.260
    1UNL     H7   34  -0.579   0.037   0.270
    1UNL     H8   35  -0.585  -0.082   0.002
    1UNL     H9   36  -0.500  -0.238  -0.157
    1UNL    H10   37  -0.253  -0.288  -0.146
    1UNL    H11   38   0.017  -0.214   0.130
    1UNL    H12   39  -0.078  -0.317   0.048
    1UNL    H13   40   0.199  -0.309   0.027
    1UNL    H14   41   0.103  -0.394  -0.095
    1UNL    H15   42   0.349  -0.226  -0.112
    1UNL    H16   43   0.307  -0.128  -0.266
    1UNL    H17   44   0.373   0.039  -0.126
    1UNL    H18   45   0.237  -0.065   0.125
    1UNL    H19   46   0.299   0.175   0.084
    1UNL    H20   47   0.357   0.105   0.234
    1UNL    H21   48   0.471   0.138   0.102
    1UNL    H22   49   0.489  -0.118   0.018
    1UNL    H23   50   0.184   0.180  -0.140
    1UNL    H24   51   0.097   0.030  -0.323
    1UNL    H25   52  -0.023   0.076  -0.218
    1UNL    H26   53  -0.030  -0.173  -0.259
   0.00000   0.00000   0.00000   0.00000   0.00000   0.00000   0.00000   0.00000   0.00000
Generated with MDTraj, t= 3.0
 53
    1UNL     C1    1   0.157   0.451   0.079
    1UNL     O1    2   0.170   0.328   0.012
    1UNL     C2    3   0.086   0.238   0.064
    1UNL     O2    4   0.006   0.275   0.148
    1UNL     C3    5   0.073   0.107   0.002
    1UNL     C4    6  -0.031   0.031   0.033
    1UNL     N1    7  -0.142   0.062   0.108
    1UNL     C5    8  -0.246  -0.023   0.056
    1UNL     C6    9  -0.385   0.000   0.075
    1UNL     O3   10  -0.437   0.093   0.166
    1UNL     C7   11  -0.568   0.105   0.189
    1UNL     C8   12  -0.470  -0.088   0.000
    1UNL     C9   13  -0.422  -0.178  -0.097
    1UNL    C10   14  -0.286  -0.196  -0.110
    1UNL    C11   15  -0.200  -0.118  -0.032
    1UNL    C12   16  -0.052  -0.108  -0.033
    1UNL    C13   17  -0.001  -0.222   0.059
    1UNL    C14   18   0.108  -0.293  -0.022
    1UNL     N2   19   0.135  -0.212  -0.144
    1UNL    C15   20   0.277  -0.154  -0.159
    1UNL    C16   21   0.284  -0.024  -0.097
    1UNL    C17   22   0.312  -0.036   0.058
    1UNL    C18   23   0.377   0.090   0.119
    1UNL     O4   24   0.410  -0.157   0.069
    1UNL    C19   25   0.161   0.075  -0.120
    1UNL    C20   26   0.065   0.012  -0.224
    1UNL    C21   27   0.017  -0.126  -0.172
    1UNL     H1   28   0.232   0.527   0.056
    1UNL     H2   29   0.057   0.489   0.054
    1UNL     H3   30   0.169   0.433   0.187
    1UNL     H4   31  -0.149   0.162   0.145
    1UNL     H5   32  -0.609   0.124   0.095
    1UNL     H6   33  -0.572   0.191   0.264
    1UNL     H7   34  -0.611   0.017   0.239
    1UNL     H8   35  -0.581  -0.075   0.013
    1UNL     H9   36  -0.497  -0.234  -0.138
    1UNL    H10   37  -0.244  -0.271  -0.178
    1UNL    H11   38   0.036  -0.170   0.141
    1UNL    H12   39  -0.069  -0.289   0.097
    1UNL    H13   40   0.205  -0.316   0.027
    1UNL    H14   41   0.057  -0.386  -0.053
    1UNL    H15   42   0.341  -0.228  -0.106
    1UNL    H16   43   0.283  -0.163  -0.273
    1UNL    H17   44   0.366   0.026  -0.138
    1UNL    H18   45   0.218  -0.058   0.103
    1UNL    H19   46   0.301   0.175   0.137
    1UNL    H20   47   0.431   0.062   0.213
    1UNL    H21   48   0.454   0.133   0.055
    1UNL    H22   49   0.492  -0.119   0.029
    1UNL    H23   50   0.193   0.169  -0.163
    1UNL    H24   51   0.116   0.007  -0.318
    1UNL    H25   52  -0.020   0.073  -0.249
    1UNL    H26   53  -0.042  -0.185  -0.240
   0.00000   0.00000   0.00000   0.00000   0.00000   0.00000   0.00000   0.00000   0.00000
Generated with MDTraj, t= 4.0
 53
    1UNL     C1    1   0.165   0.446   0.087
    1UNL     O1    2   0.177   0.332   0.016
    1UNL     C2    3   0.080   0.245   0.058
    1UNL     O2    4  -0.002   0.277   0.141
    1UNL     C3    5   0.075   0.110   0.001
    1UNL     C4    6  -0.026   0.023   0.035
    1UNL     N1    7  -0.149   0.055   0.093
    1UNL     C5    8  -0.255  -0.025   0.056
    1UNL     C6    9  -0.390  -0.004   0.078
    1UNL     O3   10  -0.426   0.101   0.164
    1UNL     C7   11  -0.568   0.107   0.179
    1UNL     C8   12  -0.479  -0.084   0.005
    1UNL     C9   13  -0.426  -0.193  -0.070
    1UNL    C10   14  -0.296  -0.201  -0.107
    1UNL    C11   15  -0.208  -0.117  -0.035
    1UNL    C12   16  -0.058  -0.112  -0.035
    1UNL    C13   17   0.003  -0.224   0.057
    1UNL    C14   18   0.112  -0.297  -0.025
    1UNL     N2   19   0.135  -0.211  -0.151
    1UNL    C15   20   0.278  -0.148  -0.159
    1UNL    C16   21   0.286  -0.017  -0.097
    1UNL    C17   22   0.328  -0.039   0.058
    1UNL    C18   23   0.383   0.085   0.119
    1UNL     O4   24   0.408  -0.159   0.074
    1UNL    C19   25   0.160   0.084  -0.123
    1UNL    C20   26   0.065   0.018  -0.223
    1UNL    C21   27   0.021  -0.117  -0.170
    1UNL     H1   28   0.213   0.529   0.040
    1UNL     H2   29   0.059   0.466   0.105
    1UNL     H3   30   0.224   0.429   0.177
    1UNL     H4   31  -0.163   0.144   0.135
    1UNL     H5   32  -0.596   0.148   0.088
    1UNL     H6   33  -0.583   0.181   0.264
    1UNL     H7   34  -0.629   0.016   0.196
    1UNL     H8   35  -0.584  -0.065   0.012
    1UNL     H9   36  -0.496  -0.272  -0.118
    1UNL    H10   37  -0.255  -0.285  -0.161
    1UNL    H11   38   0.045  -0.204   0.150
    1UNL    H12   39  -0.085  -0.277   0.063
    1UNL    H13   40   0.212  -0.307   0.024
    1UNL    H14   41   0.072  -0.391  -0.064
    1UNL    H15   42   0.331  -0.226  -0.100
    1UNL    H16   43   0.311  -0.149  -0.268
    1UNL    H17   44   0.370   0.028  -0.140
    1UNL    H18   45   0.238  -0.063   0.114
    1UNL    H19   46   0.306   0.155   0.070
    1UNL    H20   47   0.370   0.080   0.233
    1UNL    H21   48   0.487   0.109   0.093
    1UNL    H22   49   0.505  -0.140   0.080
    1UNL    H23   50   0.199   0.179  -0.158
    1UNL    H24   51   0.110   0.010  -0.321
    1UNL    H25   52  -0.023   0.079  -0.242
    1UNL    H26   53  -0.035  -0.173  -0.242
   0.00000   0.00000   0.00000   0.00000   0.00000   0.00000   0.00000   0.00000   0.00000
Generated with MDTraj, t= 5.0
 53
    1UNL     C1    1   0.187   0.442   0.072
    1UNL     O1    2   0.193   0.313   0.022
    1UNL     C2    3   0.085   0.238   0.063
    1UNL     O2    4   0.015   0.271   0.157
    1UNL     C3    5   0.072   0.109   0.001
    1UNL     C4    6  -0.032   0.022   0.031
    1UNL     N1    7  -0.147   0.056   0.095
    1UNL     C5    8  -0.255  -0.015   0.039
    1UNL     C6    9  -0.389  -0.008   0.069
    1UNL     O3   10  -0.418   0.105   0.149
    1UNL     C7   11  -0.567   0.117   0.173
    1UNL     C8   12  -0.479  -0.101   0.027
    1UNL     C9   13  -0.438  -0.198  -0.063
    1UNL    C10   14  -0.301  -0.214  -0.088
    1UNL    C11   15  -0.210  -0.124  -0.038
    1UNL    C12   16  -0.063  -0.113  -0.036
    1UNL    C13   17   0.002  -0.238   0.035
    1UNL    C14   18   0.116  -0.297  -0.044
    1UNL     N2   19   0.139  -0.206  -0.157
    1UNL    C15   20   0.279  -0.143  -0.159
    1UNL    C16   21   0.283  -0.010  -0.093
    1UNL    C17   22   0.307  -0.029   0.063
    1UNL    C18   23   0.364   0.101   0.127
    1UNL     O4   24   0.409  -0.138   0.087
    1UNL    C19   25   0.154   0.081  -0.115
    1UNL    C20   26   0.055   0.023  -0.221
    1UNL    C21   27   0.017  -0.118  -0.173
    1UNL     H1   28   0.284   0.487   0.078
    1UNL     H2   29   0.118   0.501   0.011
    1UNL     H3   30   0.156   0.434   0.175
    1UNL     H4   31  -0.158   0.147   0.123
    1UNL     H5   32  -0.618   0.091   0.088
    1UNL     H6   33  -0.581   0.227   0.190
    1UNL     H7   34  -0.617   0.064   0.259
    1UNL     H8   35  -0.582  -0.087   0.045
    1UNL     H9   36  -0.501  -0.268  -0.104
    1UNL    H10   37  -0.260  -0.296  -0.144
    1UNL    H11   38   0.044  -0.198   0.122
    1UNL    H12   39  -0.062  -0.319   0.047
    1UNL    H13   40   0.216  -0.309   0.002
    1UNL    H14   41   0.088  -0.389  -0.095
    1UNL    H15   42   0.349  -0.219  -0.114
    1UNL    H16   43   0.288  -0.127  -0.272
    1UNL    H17   44   0.368   0.035  -0.133
    1UNL    H18   45   0.218  -0.062   0.114
    1UNL    H19   46   0.292   0.186   0.129
    1UNL    H20   47   0.403   0.068   0.229
    1UNL    H21   48   0.460   0.131   0.071
    1UNL    H22   49   0.498  -0.100   0.092
    1UNL    H23   50   0.199   0.177  -0.146
    1UNL    H24   51   0.101   0.015  -0.317
    1UNL    H25   52  -0.030   0.089  -0.232
    1UNL    H26   53  -0.044  -0.177  -0.237
   0.00000   0.00000   0.00000   0.00000   0.00000   0.00000   0.00000   0.00000   0.00000
Generated with MDTraj, t= 6.0
 53
    1UNL     C1    1   0.178   0.447   0.101
    1UNL     O1    2   0.173   0.330   0.016
    1UNL     C2    3   0.073   0.241   0.058
    1UNL     O2    4   0.003   0.270   0.155
    1UNL     C3    5   0.076   0.114  -0.006
    1UNL     C4    6  -0.029   0.031   0.029
    1UNL     N1    7  -0.147   0.066   0.091
    1UNL     C5    8  -0.254  -0.013   0.043
    1UNL     C6    9  -0.395  -0.002   0.076
    1UNL     O3   10  -0.432   0.098   0.160
    1UNL     C7   11  -0.566   0.121   0.157
    1UNL     C8   12  -0.477  -0.102   0.019
    1UNL     C9   13  -0.424  -0.199  -0.063
    1UNL    C10   14  -0.285  -0.209  -0.086
    1UNL    C11   15  -0.201  -0.123  -0.028
    1UNL    C12   16  -0.047  -0.100  -0.031
    1UNL    C13   17   0.013  -0.215   0.056
    1UNL    C14   18   0.103  -0.294  -0.030
    1UNL     N2   19   0.133  -0.210  -0.159
    1UNL    C15   20   0.276  -0.155  -0.164
    1UNL    C16   21   0.278  -0.017  -0.090
    1UNL    C17   22   0.319  -0.047   0.057
    1UNL    C18   23   0.370   0.075   0.119
    1UNL     O4   24   0.411  -0.151   0.067
    1UNL    C19   25   0.156   0.080  -0.123
    1UNL    C20   26   0.063   0.012  -0.232
    1UNL    C21   27   0.020  -0.116  -0.171
    1UNL     H1   28   0.271   0.504   0.103
    1UNL     H2   29   0.095   0.517   0.079
    1UNL     H3   30   0.166   0.411   0.204
    1UNL     H4   31  -0.160   0.156   0.135
    1UNL     H5   32  -0.591   0.183   0.078
    1UNL     H6   33  -0.578   0.165   0.260
    1UNL     H7   34  -0.633   0.031   0.156
    1UNL     H8   35  -0.588  -0.099   0.030
    1UNL     H9   36  -0.496  -0.270  -0.106
    1UNL    H10   37  -0.247  -0.286  -0.151
    1UNL    H11   38   0.065  -0.159   0.128
    1UNL    H12   39  -0.054  -0.282   0.098
    1UNL    H13   40   0.203  -0.307   0.017
    1UNL    H14   41   0.063  -0.389  -0.067
    1UNL    H15   42   0.349  -0.226  -0.116
    1UNL    H16   43   0.289  -0.137  -0.276
    1UNL    H17   44   0.360   0.031  -0.132
    1UNL    H18   45   0.231  -0.081   0.116
    1UNL    H19   46   0.294   0.157   0.114
    1UNL    H20   47   0.393   0.060   0.230
    1UNL    H21   48   0.472   0.119   0.078
    1UNL    H22   49   0.497  -0.108   0.088
    1UNL    H23   50   0.205   0.170  -0.166
    1UNL    H24   51   0.121  -0.007  -0.320
    1UNL    H25   52  -0.024   0.071  -0.257
    1UNL    H26   53  -0.046  -0.181  -0.225
   0.00000   0.00000   0.00000   0.00000   0.00000   0.00000   0.00000   0.00000   0.00000
Generated with MDTraj, t= 7.0
 53
    1UNL     C1    1   0.174   0.450   0.077
    1UNL     O1    2   0.188   0.320   0.040
    1UNL     C2    3   0.082   0.241   0.068
    1UNL     O2    4  -0.007   0.281   0.141
    1UNL     C3    5   0.076   0.101   0.007
    1UNL     C4    6  -0.027   0.023   0.042
    1UNL     N1    7  -0.147   0.059   0.107
    1UNL     C5    8  -0.253  -0.024   0.054
    1UNL     C6    9  -0.390  -0.006   0.080
    1UNL     O3   10  -0.437   0.098   0.160
    1UNL     C7   11  -0.574   0.122   0.155
    1UNL     C8   12  -0.477  -0.096   0.009
    1UNL     C9   13  -0.426  -0.196  -0.069
    1UNL    C10   14  -0.290  -0.199  -0.106
    1UNL    C11   15  -0.208  -0.114  -0.038
    1UNL    C12   16  -0.055  -0.111  -0.030
    1UNL    C13   17   0.008  -0.224   0.056
    1UNL    C14   18   0.118  -0.294  -0.029
    1UNL     N2   19   0.135  -0.212  -0.153
    1UNL    C15   20   0.269  -0.144  -0.166
    1UNL    C16   21   0.281  -0.008  -0.091
    1UNL    C17   22   0.323  -0.039   0.053
    1UNL    C18   23   0.389   0.090   0.108
    1UNL     O4   24   0.408  -0.159   0.066
    1UNL    C19   25   0.151   0.075  -0.114
    1UNL    C20   26   0.062   0.014  -0.223
    1UNL    C21   27   0.015  -0.118  -0.165
    1UNL     H1   28   0.197   0.513  -0.011
    1UNL     H2   29   0.067   0.471   0.108
    1UNL     H3   30   0.248   0.470   0.156
    1UNL     H4   31  -0.174   0.163   0.124
    1UNL     H5   32  -0.630   0.085   0.073
    1UNL     H6   33  -0.592   0.231   0.166
    1UNL     H7   34  -0.608   0.075   0.250
    1UNL     H8   35  -0.579  -0.100   0.024
    1UNL     H9   36  -0.486  -0.282  -0.111
    1UNL    H10   37  -0.255  -0.280  -0.170
    1UNL    H11   38   0.046  -0.185   0.146
    1UNL    H12   39  -0.075  -0.282   0.082
    1UNL    H13   40   0.218  -0.313   0.014
    1UNL    H14   41   0.094  -0.391  -0.074
    1UNL    H15   42   0.339  -0.218  -0.120
    1UNL    H16   43   0.283  -0.112  -0.274
    1UNL    H17   44   0.351   0.046  -0.148
    1UNL    H18   45   0.230  -0.066   0.109
    1UNL    H19   46   0.338   0.189   0.083
    1UNL    H20   47   0.408   0.092   0.222
    1UNL    H21   48   0.497   0.102   0.069
    1UNL    H22   49   0.487  -0.150   0.007
    1UNL    H23   50   0.193   0.174  -0.145
    1UNL    H24   51   0.122  -0.004  -0.310
    1UNL    H25   52  -0.011   0.090  -0.246
    1UNL    H26   53  -0.053  -0.166  -0.232
   0.00000   0.00000   0.00000   0.00000   0.00000   0.00000   0.00000   0.00000   0.00000
Generated with MDTraj, t= 8.0
 53
    1UNL     C1    1   0.183   0.447   0.072
    1UNL     O1    2   0.189   0.316   0.023
    1UNL     C2    3   0.082   0.234   0.066
    1UNL     O2    4   0.006   0.279   0.149
    1UNL     C3    5   0.069   0.100   0.008
    1UNL     C4    6  -0.036   0.020   0.036
    1UNL     N1    7  -0.153   0.050   0.107
    1UNL     C5    8  -0.257  -0.024   0.052
    1UNL     C6    9  -0.394  -0.000   0.064
    1UNL     O3   10  -0.429   0.098   0.161
    1UNL     C7   11  -0.567   0.132   0.165
    1UNL     C8   12  -0.480  -0.089  -0.002
    1UNL     C9   13  -0.431  -0.192  -0.080
    1UNL    C10   14  -0.296  -0.223  -0.084
    1UNL    C11   15  -0.209  -0.129  -0.025
    1UNL    C12   16  -0.060  -0.119  -0.028
    1UNL    C13   17   0.011  -0.231   0.049
    1UNL    C14   18   0.120  -0.298  -0.043
    1UNL     N2   19   0.140  -0.207  -0.154
    1UNL    C15   20   0.272  -0.143  -0.172
    1UNL    C16   21   0.283  -0.005  -0.080
    1UNL    C17   22   0.321  -0.031   0.062
    1UNL    C18   23   0.389   0.097   0.118
    1UNL     O4   24   0.406  -0.142   0.073
    1UNL    C19   25   0.156   0.081  -0.111
    1UNL    C20   26   0.055   0.021  -0.217
    1UNL    C21   27   0.015  -0.122  -0.168
    1UNL     H1   28   0.192   0.505  -0.022
    1UNL     H2   29   0.079   0.468   0.108
    1UNL     H3   30   0.259   0.472   0.146
    1UNL     H4   31  -0.163   0.155   0.144
    1UNL     H5   32  -0.596   0.208   0.095
    1UNL     H6   33  -0.602   0.175   0.261
    1UNL     H7   34  -0.622   0.039   0.151
    1UNL     H8   35  -0.589  -0.070   0.013
    1UNL     H9   36  -0.498  -0.256  -0.121
    1UNL    H10   37  -0.262  -0.308  -0.135
    1UNL    H11   38   0.032  -0.204   0.147
    1UNL    H12   39  -0.070  -0.301   0.052
    1UNL    H13   40   0.222  -0.321  -0.005
    1UNL    H14   41   0.088  -0.397  -0.074
    1UNL    H15   42   0.346  -0.206  -0.121
    1UNL    H16   43   0.273  -0.122  -0.284
    1UNL    H17   44   0.362   0.048  -0.123
    1UNL    H18   45   0.231  -0.057   0.121
    1UNL    H19   46   0.313   0.186   0.116
    1UNL    H20   47   0.446   0.090   0.220
    1UNL    H21   48   0.462   0.126   0.039
    1UNL    H22   49   0.478  -0.140   0.005
    1UNL    H23   50   0.197   0.180  -0.148
    1UNL    H24   51   0.109   0.026  -0.310
    1UNL    H25   52  -0.028   0.087  -0.231
    1UNL    H26   53  -0.045  -0.173  -0.241
   0.00000   0.00000   0.00000   0.00000   0.00000   0.00000   0.00000   0.00000   0.00000
Generated with MDTraj, t= 9.0
 53
    1UNL     C1    1   0.165   0.441   0.105
    1UNL     O1    2   0.156   0.336   0.002
    1UNL     C2    3   0.079   0.240   0.061
    1UNL     O2    4   0.023   0.260   0.166
    1UNL     C3    5   0.076   0.115  -0.006
    1UNL     C4    6  -0.022   0.025   0.036
    1UNL     N1    7  -0.142   0.053   0.104
    1UNL     C5    8  -0.247  -0.024   0.060
    1UNL     C6    9  -0.387  -0.006   0.081
    1UNL     O3   10  -0.426   0.110   0.147
    1UNL     C7   11  -0.564   0.119   0.163
    1UNL     C8   12  -0.473  -0.092   0.019
    1UNL     C9   13  -0.424  -0.184  -0.076
    1UNL    C10   14  -0.292  -0.194  -0.100
    1UNL    C11   15  -0.196  -0.119  -0.033
    1UNL    C12   16  -0.046  -0.109  -0.032
    1UNL    C13   17   0.007  -0.224   0.057
    1UNL    C14   18   0.100  -0.300  -0.026
    1UNL     N2   19   0.137  -0.220  -0.147
    1UNL    C15   20   0.270  -0.161  -0.171
    1UNL    C16   21   0.276  -0.016  -0.093
    1UNL    C17   22   0.313  -0.042   0.048
    1UNL    C18   23   0.351   0.091   0.118
    1UNL     O4   24   0.421  -0.137   0.065
    1UNL    C19   25   0.158   0.080  -0.130
    1UNL    C20   26   0.061   0.010  -0.224
    1UNL    C21   27   0.026  -0.125  -0.172
    1UNL     H1   28   0.253   0.502   0.085
    1UNL     H2   29   0.080   0.507   0.078
    1UNL     H3   30   0.156   0.412   0.208
    1UNL     H4   31  -0.154   0.142   0.160
    1UNL     H5   32  -0.616   0.101   0.069
    1UNL     H6   33  -0.598   0.221   0.186
    1UNL     H7   34  -0.592   0.044   0.237
    1UNL     H8   35  -0.574  -0.095   0.050
    1UNL     H9   36  -0.499  -0.237  -0.145
    1UNL    H10   37  -0.247  -0.265  -0.171
    1UNL    H11   38   0.058  -0.182   0.137
    1UNL    H12   39  -0.073  -0.287   0.088
    1UNL    H13   40   0.179  -0.337   0.044
    1UNL    H14   41   0.065  -0.393  -0.068
    1UNL    H15   42   0.339  -0.230  -0.117
    1UNL    H16   43   0.288  -0.136  -0.277
    1UNL    H17   44   0.358   0.038  -0.129
    1UNL    H18   45   0.228  -0.082   0.106
    1UNL    H19   46   0.295   0.181   0.088
    1UNL    H20   47   0.355   0.082   0.234
    1UNL    H21   48   0.455   0.109   0.076
    1UNL    H22   49   0.460  -0.131   0.155
    1UNL    H23   50   0.189   0.177  -0.181
    1UNL    H24   51   0.111   0.002  -0.320
    1UNL    H25   52  -0.022   0.075  -0.245
    1UNL    H26   53  -0.037  -0.173  -0.246
   0.00000   0.00000   0.00000   0.00000   0.00000   0.00000   0.00000   0.00000   0.00000
Generated with MDTraj, t= 10.0
 53
    1UNL     C1    1   0.146   0.441   0.066
    1UNL     O1    2   0.174   0.310   0.014
    1UNL     C2    3   0.088   0.230   0.075
    1UNL     O2    4   0.020   0.268   0.167
    1UNL     C3    5   0.077   0.103   0.008
    1UNL     C4    6  -0.032   0.020   0.025
    1UNL     N1    7  -0.146   0.072   0.075
    1UNL     C5    8  -0.254  -0.018   0.046
    1UNL     C6    9  -0.390  -0.002   0.071
    1UNL     O3   10  -0.424   0.089   0.171
    1UNL     C7   11  -0.555   0.131   0.177
    1UNL     C8   12  -0.484  -0.084   0.011
    1UNL     C9   13  -0.439  -0.197  -0.062
    1UNL    C10   14  -0.304  -0.215  -0.091
    1UNL    C11   15  -0.213  -0.118  -0.045
    1UNL    C12   16  -0.059  -0.118  -0.043
    1UNL    C13   17   0.001  -0.235   0.046
    1UNL    C14   18   0.118  -0.295  -0.039
    1UNL     N2   19   0.142  -0.201  -0.144
    1UNL    C15   20   0.274  -0.146  -0.166
    1UNL    C16   21   0.288  -0.006  -0.086
    1UNL    C17   22   0.322  -0.034   0.055
    1UNL    C18   23   0.381   0.094   0.121
    1UNL     O4   24   0.405  -0.147   0.080
    1UNL    C19   25   0.164   0.083  -0.111
    1UNL    C20   26   0.069   0.019  -0.221
    1UNL    C21   27   0.020  -0.120  -0.174
    1UNL     H1   28   0.191   0.513  -0.000
    1UNL     H2   29   0.036   0.452   0.059
    1UNL     H3   30   0.175   0.456   0.166
    1UNL     H4   31  -0.168   0.160   0.107
    1UNL     H5   32  -0.572   0.196   0.088
    1UNL     H6   33  -0.573   0.206   0.253
    1UNL     H7   34  -0.626   0.051   0.178
    1UNL     H8   35  -0.592  -0.075   0.011
    1UNL     H9   36  -0.512  -0.264  -0.099
    1UNL    H10   37  -0.265  -0.290  -0.157
    1UNL    H11   38   0.045  -0.186   0.128
    1UNL    H12   39  -0.067  -0.316   0.063
    1UNL    H13   40   0.207  -0.315   0.022
    1UNL    H14   41   0.098  -0.394  -0.079
    1UNL    H15   42   0.347  -0.214  -0.125
    1UNL    H16   43   0.303  -0.118  -0.267
    1UNL    H17   44   0.374   0.039  -0.126
    1UNL    H18   45   0.227  -0.064   0.103
    1UNL    H19   46   0.324   0.188   0.117
    1UNL    H20   47   0.413   0.089   0.227
    1UNL    H21   48   0.473   0.119   0.053
    1UNL    H22   49   0.476  -0.120   0.141
    1UNL    H23   50   0.190   0.188  -0.144
    1UNL    H24   51   0.117   0.016  -0.319
    1UNL    H25   52  -0.007   0.095  -0.230
    1UNL    H26   53  -0.042  -0.172  -0.245
   0.00000   0.00000   0.00000   0.00000   0.00000   0.00000   0.00000   0.00000   0.00000
Generated with MDTraj, t= 11.0
 53
    1UNL     C1    1   0.157   0.452   0.074
    1UNL     O1    2   0.174   0.329   0.011
    1UNL     C2    3   0.077   0.249   0.064
    1UNL     O2    4  -0.001   0.289   0.149
    1UNL     C3    5   0.070   0.111   0.005
    1UNL     C4    6  -0.027   0.015   0.038
    1UNL     N1    7  -0.140   0.042   0.112
    1UNL     C5    8  -0.250  -0.032   0.063
    1UNL     C6    9  -0.384  -0.002   0.088
    1UNL     O3   10  -0.426   0.109   0.156
    1UNL     C7   11  -0.566   0.109   0.171
    1UNL     C8   12  -0.469  -0.097   0.022
    1UNL     C9   13  -0.424  -0.183  -0.078
    1UNL    C10   14  -0.290  -0.198  -0.107
    1UNL    C11   15  -0.208  -0.117  -0.035
    1UNL    C12   16  -0.055  -0.114  -0.038
    1UNL    C13   17  -0.014  -0.231   0.045
    1UNL    C14   18   0.105  -0.295  -0.041
    1UNL     N2   19   0.140  -0.212  -0.155
    1UNL    C15   20   0.270  -0.152  -0.160
    1UNL    C16   21   0.281  -0.014  -0.084
    1UNL    C17   22   0.328  -0.039   0.060
    1UNL    C18   23   0.397   0.086   0.114
    1UNL     O4   24   0.403  -0.156   0.076
    1UNL    C19   25   0.158   0.081  -0.118
    1UNL    C20   26   0.071   0.017  -0.229
    1UNL    C21   27   0.023  -0.119  -0.171
    1UNL     H1   28   0.239   0.517   0.047
    1UNL     H2   29   0.055   0.487   0.047
    1UNL     H3   30   0.161   0.439   0.180
    1UNL     H4   31  -0.158   0.126   0.155
    1UNL     H5   32  -0.616   0.095   0.069
    1UNL     H6   33  -0.601   0.209   0.188
    1UNL     H7   34  -0.603   0.035   0.240
    1UNL     H8   35  -0.571  -0.100   0.061
    1UNL     H9   36  -0.501  -0.231  -0.136
    1UNL    H10   37  -0.260  -0.258  -0.191
    1UNL    H11   38   0.016  -0.200   0.141
    1UNL    H12   39  -0.095  -0.300   0.034
    1UNL    H13   40   0.195  -0.317   0.018
    1UNL    H14   41   0.080  -0.394  -0.075
    1UNL    H15   42   0.356  -0.204  -0.124
    1UNL    H16   43   0.295  -0.133  -0.262
    1UNL    H17   44   0.372   0.020  -0.128
    1UNL    H18   45   0.237  -0.067   0.111
    1UNL    H19   46   0.329   0.175   0.115
    1UNL    H20   47   0.447   0.099   0.211
    1UNL    H21   48   0.472   0.119   0.035
    1UNL    H22   49   0.428  -0.162   0.171
    1UNL    H23   50   0.192   0.179  -0.156
    1UNL    H24   51   0.133   0.022  -0.321
    1UNL    H25   52  -0.014   0.083  -0.242
    1UNL    H26   53  -0.046  -0.161  -0.242
   0.00000   0.00000   0.00000   0.00000   0.00000   0.00000   0.00000   0.00000   0.00000
Generated with MDTraj, t= 12.0
 53
    1UNL     C1    1   0.170   0.445   0.086
    1UNL     O1    2   0.187   0.322   0.023
    1UNL     C2    3   0.080   0.245   0.064
    1UNL     O2    4  -0.004   0.292   0.137
    1UNL     C3    5   0.072   0.112   0.000
    1UNL     C4    6  -0.034   0.035   0.027
    1UNL     N1    7  -0.150   0.067   0.096
    1UNL     C5    8  -0.249  -0.027   0.065
    1UNL     C6    9  -0.391  -0.008   0.076
    1UNL     O3   10  -0.428   0.081   0.176
    1UNL     C7   11  -0.562   0.116   0.181
    1UNL     C8   12  -0.469  -0.082  -0.012
    1UNL     C9   13  -0.418  -0.178  -0.093
    1UNL    C10   14  -0.283  -0.215  -0.081
    1UNL    C11   15  -0.198  -0.125  -0.019
    1UNL    C12   16  -0.048  -0.112  -0.027
    1UNL    C13   17   0.017  -0.221   0.055
    1UNL    C14   18   0.110  -0.298  -0.036
    1UNL     N2   19   0.136  -0.213  -0.152
    1UNL    C15   20   0.266  -0.151  -0.169
    1UNL    C16   21   0.281  -0.017  -0.095
    1UNL    C17   22   0.310  -0.044   0.054
    1UNL    C18   23   0.359   0.087   0.115
    1UNL     O4   24   0.404  -0.151   0.072
    1UNL    C19   25   0.155   0.076  -0.123
    1UNL    C20   26   0.060   0.011  -0.226
    1UNL    C21   27   0.020  -0.122  -0.170
    1UNL     H1   28   0.264   0.501   0.069
    1UNL     H2   29   0.074   0.494   0.052
    1UNL     H3   30   0.168   0.430   0.192
    1UNL     H4   31  -0.168   0.162   0.127
    1UNL     H5   32  -0.579   0.216   0.125
    1UNL     H6   33  -0.574   0.150   0.280
    1UNL     H7   34  -0.634   0.041   0.152
    1UNL     H8   35  -0.571  -0.069   0.009
    1UNL     H9   36  -0.473  -0.229  -0.176
    1UNL    H10   37  -0.248  -0.293  -0.149
    1UNL    H11   38   0.070  -0.174   0.136
    1UNL    H12   39  -0.059  -0.278   0.099
    1UNL    H13   40   0.202  -0.324   0.019
    1UNL    H14   41   0.085  -0.396  -0.072
    1UNL    H15   42   0.344  -0.220  -0.149
    1UNL    H16   43   0.291  -0.122  -0.268
    1UNL    H17   44   0.371   0.027  -0.135
    1UNL    H18   45   0.215  -0.076   0.097
    1UNL    H19   46   0.324   0.191   0.082
    1UNL    H20   47   0.333   0.082   0.222
    1UNL    H21   48   0.465   0.084   0.107
    1UNL    H22   49   0.476  -0.130   0.137
    1UNL    H23   50   0.180   0.173  -0.168
    1UNL    H24   51   0.121  -0.003  -0.317
    1UNL    H25   52  -0.025   0.076  -0.249
    1UNL    H26   53  -0.046  -0.165  -0.246
   0.00000   0.00000   0.00000   0.00000   0.00000   0.00000   0.00000   0.00000   0.00000
Generated with MDTraj, t= 13.0
 53
    1UNL     C1    1   0.188   0.429   0.080
    1UNL     O1    2   0.183   0.305   0.012
    1UNL     C2    3   0.073   0.238   0.058
    1UNL     O2    4   0.002   0.281   0.145
    1UNL     C3    5   0.061   0.105  -0.002
    1UNL     C4    6  -0.029   0.021   0.039
    1UNL     N1    7  -0.146   0.060   0.099
    1UNL     C5    8  -0.252  -0.023   0.060
    1UNL     C6    9  -0.394  -0.005   0.080
    1UNL     O3   10  -0.426   0.105   0.164
    1UNL     C7   11  -0.570   0.116   0.174
    1UNL     C8   12  -0.479  -0.098   0.023
    1UNL     C9   13  -0.431  -0.194  -0.066
    1UNL    C10   14  -0.296  -0.193  -0.111
    1UNL    C11   15  -0.207  -0.107  -0.048
    1UNL    C12   16  -0.057  -0.112  -0.034
    1UNL    C13   17  -0.006  -0.246   0.038
    1UNL    C14   18   0.121  -0.293  -0.031
    1UNL     N2   19   0.149  -0.206  -0.147
    1UNL    C15   20   0.283  -0.137  -0.170
    1UNL    C16   21   0.286  -0.003  -0.089
    1UNL    C17   22   0.322  -0.029   0.062
    1UNL    C18   23   0.371   0.098   0.123
    1UNL     O4   24   0.400  -0.142   0.071
    1UNL    C19   25   0.155   0.079  -0.117
    1UNL    C20   26   0.066   0.013  -0.224
    1UNL    C21   27   0.023  -0.127  -0.167
    1UNL     H1   28   0.280   0.482   0.048
    1UNL     H2   29   0.091   0.489   0.072
    1UNL     H3   30   0.207   0.411   0.185
    1UNL     H4   31  -0.160   0.165   0.122
    1UNL     H5   32  -0.638   0.062   0.095
    1UNL     H6   33  -0.587   0.220   0.171
    1UNL     H7   34  -0.606   0.072   0.265
    1UNL     H8   35  -0.585  -0.114   0.059
    1UNL     H9   36  -0.496  -0.261  -0.110
    1UNL    H10   37  -0.266  -0.247  -0.197
    1UNL    H11   38   0.011  -0.226   0.145
    1UNL    H12   39  -0.081  -0.320   0.040
    1UNL    H13   40   0.212  -0.302   0.031
    1UNL    H14   41   0.116  -0.398  -0.056
    1UNL    H15   42   0.360  -0.196  -0.129
    1UNL    H16   43   0.313  -0.140  -0.272
    1UNL    H17   44   0.374   0.051  -0.124
    1UNL    H18   45   0.225  -0.041   0.111
    1UNL    H19   46   0.293   0.158   0.164
    1UNL    H20   47   0.420   0.053   0.214
    1UNL    H21   48   0.439   0.145   0.056
    1UNL    H22   49   0.438  -0.146   0.161
    1UNL    H23   50   0.171   0.178  -0.157
    1UNL    H24   51   0.115   0.012  -0.325
    1UNL    H25   52  -0.025   0.076  -0.230
    1UNL    H26   53  -0.041  -0.182  -0.237
   0.00000   0.00000   0.00000   0.00000   0.00000   0.00000   0.00000   0.00000   0.00000
Generated with MDTraj, t= 14.0
 53
    1UNL     C1    1   0.163   0.445   0.095
    1UNL     O1    2   0.180   0.324   0.025
    1UNL     C2    3   0.087   0.240   0.070
    1UNL     O2    4   0.022   0.260   0.170
    1UNL     C3    5   0.073   0.108  -0.002
    1UNL     C4    6  -0.037   0.033   0.020
    1UNL     N1    7  -0.157   0.064   0.083
    1UNL     C5    8  -0.257  -0.020   0.039
    1UNL     C6    9  -0.393  -0.005   0.071
    1UNL     O3   10  -0.415   0.096   0.165
    1UNL     C7   11  -0.556   0.123   0.166
    1UNL     C8   12  -0.485  -0.096   0.018
    1UNL     C9   13  -0.437  -0.206  -0.062
    1UNL    C10   14  -0.305  -0.212  -0.088
    1UNL    C11   15  -0.215  -0.122  -0.043
    1UNL    C12   16  -0.057  -0.101  -0.045
    1UNL    C13   17   0.003  -0.217   0.054
    1UNL    C14   18   0.109  -0.295  -0.029
    1UNL     N2   19   0.138  -0.215  -0.147
    1UNL    C15   20   0.273  -0.154  -0.164
    1UNL    C16   21   0.287  -0.016  -0.104
    1UNL    C17   22   0.325  -0.035   0.056
    1UNL    C18   23   0.377   0.105   0.107
    1UNL     O4   24   0.418  -0.138   0.086
    1UNL    C19   25   0.158   0.077  -0.126
    1UNL    C20   26   0.069   0.017  -0.230
    1UNL    C21   27   0.018  -0.123  -0.179
    1UNL     H1   28   0.240   0.516   0.064
    1UNL     H2   29   0.058   0.486   0.085
    1UNL     H3   30   0.181   0.425   0.198
    1UNL     H4   31  -0.172   0.147   0.154
    1UNL     H5   32  -0.604   0.181   0.075
    1UNL     H6   33  -0.574   0.167   0.260
    1UNL     H7   34  -0.603   0.025   0.165
    1UNL     H8   35  -0.582  -0.106   0.053
    1UNL     H9   36  -0.518  -0.263  -0.112
    1UNL    H10   37  -0.266  -0.279  -0.166
    1UNL    H11   38   0.052  -0.182   0.145
    1UNL    H12   39  -0.078  -0.281   0.080
    1UNL    H13   40   0.194  -0.326   0.035
    1UNL    H14   41   0.068  -0.387  -0.067
    1UNL    H15   42   0.340  -0.228  -0.131
    1UNL    H16   43   0.305  -0.150  -0.264
    1UNL    H17   44   0.381   0.028  -0.137
    1UNL    H18   45   0.230  -0.060   0.098
    1UNL    H19   46   0.350   0.192   0.054
    1UNL    H20   47   0.338   0.119   0.206
    1UNL    H21   48   0.484   0.097   0.106
    1UNL    H22   49   0.439  -0.160   0.180
    1UNL    H23   50   0.183   0.174  -0.165
    1UNL    H24   51   0.137  -0.000  -0.318
    1UNL    H25   52  -0.017   0.080  -0.262
    1UNL    H26   53  -0.053  -0.170  -0.249
   0.00000   0.00000   0.00000   0.00000   0.00000   0.00000   0.00000   0.00000   0.00000
Generated with MDTraj, t= 15.0
 53
    1UNL     C1    1   0.161   0.446   0.102
    1UNL     O1    2   0.168   0.339   0.016
    1UNL     C2    3   0.080   0.242   0.065
    1UNL     O2    4   0.026   0.263   0.171
    1UNL     C3    5   0.072   0.108  -0.001
    1UNL     C4    6  -0.029   0.026   0.033
    1UNL     N1    7  -0.139   0.052   0.107
    1UNL     C5    8  -0.252  -0.018   0.047
    1UNL     C6    9  -0.388   0.000   0.070
    1UNL     O3   10  -0.429   0.103   0.156
    1UNL     C7   11  -0.566   0.111   0.157
    1UNL     C8   12  -0.478  -0.087   0.008
    1UNL     C9   13  -0.437  -0.189  -0.074
    1UNL    C10   14  -0.299  -0.215  -0.079
    1UNL    C11   15  -0.203  -0.115  -0.038
    1UNL    C12   16  -0.051  -0.107  -0.034
    1UNL    C13   17  -0.000  -0.226   0.054
    1UNL    C14   18   0.100  -0.305  -0.043
    1UNL     N2   19   0.132  -0.211  -0.155
    1UNL    C15   20   0.272  -0.153  -0.160
    1UNL    C16   21   0.285  -0.022  -0.096
    1UNL    C17   22   0.328  -0.034   0.059
    1UNL    C18   23   0.391   0.102   0.098
    1UNL     O4   24   0.418  -0.136   0.083
    1UNL    C19   25   0.155   0.078  -0.125
    1UNL    C20   26   0.063   0.007  -0.232
    1UNL    C21   27   0.012  -0.125  -0.174
    1UNL     H1   28   0.228   0.521   0.061
    1UNL     H2   29   0.057   0.485   0.108
    1UNL     H3   30   0.194   0.416   0.196
    1UNL     H4   31  -0.160   0.150   0.133
    1UNL     H5   32  -0.615   0.084   0.055
    1UNL     H6   33  -0.598   0.207   0.188
    1UNL     H7   34  -0.589   0.035   0.233
    1UNL     H8   35  -0.586  -0.085   0.040
    1UNL     H9   36  -0.504  -0.248  -0.128
    1UNL    H10   37  -0.267  -0.297  -0.138
    1UNL    H11   38   0.049  -0.188   0.143
    1UNL    H12   39  -0.083  -0.292   0.077
    1UNL    H13   40   0.192  -0.328   0.014
    1UNL    H14   41   0.051  -0.397  -0.068
    1UNL    H15   42   0.340  -0.222  -0.118
    1UNL    H16   43   0.307  -0.158  -0.260
    1UNL    H17   44   0.388   0.012  -0.128
    1UNL    H18   45   0.236  -0.050   0.110
    1UNL    H19   46   0.320   0.175   0.133
    1UNL    H20   47   0.445   0.097   0.183
    1UNL    H21   48   0.446   0.151   0.019
    1UNL    H22   49   0.428  -0.148   0.181
    1UNL    H23   50   0.183   0.168  -0.175
    1UNL    H24   51   0.117  -0.023  -0.325
    1UNL    H25   52  -0.026   0.066  -0.265
    1UNL    H26   53  -0.053  -0.180  -0.246
   0.00000   0.00000   0.00000   0.00000   0.00000   0.00000   0.00000   0.00000   0.00000
Generated with MDTraj, t= 16.0
 53
    1UNL     C1    1   0.169   0.437   0.063
    1UNL     O1    2   0.180   0.308   0.020
    1UNL     C2    3   0.078   0.234   0.073
    1UNL     O2    4   0.010   0.273   0.164
    1UNL     C3    5   0.072   0.099   0.018
    1UNL     C4    6  -0.037   0.016   0.048
    1UNL     N1    7  -0.150   0.056   0.105
    1UNL     C5    8  -0.258  -0.021   0.050
    1UNL     C6    9  -0.398   0.003   0.061
    1UNL     O3   10  -0.428   0.108   0.150
    1UNL     C7   11  -0.563   0.131   0.175
    1UNL     C8   12  -0.482  -0.093  -0.007
    1UNL     C9   13  -0.425  -0.197  -0.076
    1UNL    C10   14  -0.287  -0.210  -0.095
    1UNL    C11   15  -0.204  -0.120  -0.030
    1UNL    C12   16  -0.057  -0.115  -0.019
    1UNL    C13   17   0.014  -0.234   0.057
    1UNL    C14   18   0.109  -0.299  -0.044
    1UNL     N2   19   0.134  -0.207  -0.155
    1UNL    C15   20   0.271  -0.134  -0.166
    1UNL    C16   21   0.280  -0.005  -0.094
    1UNL    C17   22   0.329  -0.031   0.054
    1UNL    C18   23   0.386   0.099   0.115
    1UNL     O4   24   0.428  -0.138   0.066
    1UNL    C19   25   0.147   0.071  -0.109
    1UNL    C20   26   0.056   0.019  -0.222
    1UNL    C21   27   0.011  -0.122  -0.164
    1UNL     H1   28   0.217   0.501  -0.012
    1UNL     H2   29   0.062   0.465   0.065
    1UNL     H3   30   0.210   0.449   0.159
    1UNL     H4   31  -0.152   0.144   0.143
    1UNL     H5   32  -0.587   0.221   0.108
    1UNL     H6   33  -0.593   0.152   0.274
    1UNL     H7   34  -0.611   0.042   0.132
    1UNL     H8   35  -0.582  -0.081   0.017
    1UNL     H9   36  -0.489  -0.272  -0.124
    1UNL    H10   37  -0.242  -0.279  -0.168
    1UNL    H11   38   0.082  -0.199   0.133
    1UNL    H12   39  -0.061  -0.303   0.099
    1UNL    H13   40   0.200  -0.335   0.010
    1UNL    H14   41   0.062  -0.385  -0.089
    1UNL    H15   42   0.346  -0.202  -0.139
    1UNL    H16   43   0.303  -0.120  -0.267
    1UNL    H17   44   0.365   0.045  -0.149
    1UNL    H18   45   0.238  -0.052   0.104
    1UNL    H19   46   0.346   0.190   0.072
    1UNL    H20   47   0.360   0.109   0.215
    1UNL    H21   48   0.487   0.104   0.091
    1UNL    H22   49   0.437  -0.158   0.162
    1UNL    H23   50   0.175   0.167  -0.145
    1UNL    H24   51   0.102   0.009  -0.322
    1UNL    H25   52  -0.042   0.071  -0.230
    1UNL    H26   53  -0.068  -0.153  -0.237
   0.00000   0.00000   0.00000   0.00000   0.00000   0.00000   0.00000   0.00000   0.00000
Generated with MDTraj, t= 17.0
 53
    1UNL     C1    1   0.160   0.446   0.091
    1UNL     O1    2   0.177   0.323   0.020
    1UNL     C2    3   0.073   0.242   0.059
    1UNL     O2    4  -0.007   0.272   0.145
    1UNL     C3    5   0.070   0.109   0.003
    1UNL     C4    6  -0.032   0.028   0.043
    1UNL     N1    7  -0.148   0.061   0.109
    1UNL     C5    8  -0.248  -0.016   0.060
    1UNL     C6    9  -0.386   0.004   0.075
    1UNL     O3   10  -0.434   0.107   0.154
    1UNL     C7   11  -0.572   0.124   0.178
    1UNL     C8   12  -0.471  -0.083   0.006
    1UNL     C9   13  -0.424  -0.182  -0.078
    1UNL    C10   14  -0.289  -0.197  -0.107
    1UNL    C11   15  -0.204  -0.114  -0.031
    1UNL    C12   16  -0.049  -0.110  -0.023
    1UNL    C13   17   0.014  -0.240   0.056
    1UNL    C14   18   0.124  -0.299  -0.026
    1UNL     N2   19   0.147  -0.218  -0.150
    1UNL    C15   20   0.272  -0.147  -0.174
    1UNL    C16   21   0.283  -0.016  -0.093
    1UNL    C17   22   0.326  -0.043   0.050
    1UNL    C18   23   0.369   0.083   0.119
    1UNL     O4   24   0.425  -0.145   0.055
    1UNL    C19   25   0.150   0.070  -0.115
    1UNL    C20   26   0.057   0.011  -0.225
    1UNL    C21   27   0.023  -0.130  -0.164
    1UNL     H1   28   0.247   0.514   0.089
    1UNL     H2   29   0.084   0.501   0.030
    1UNL     H3   30   0.121   0.429   0.189
    1UNL     H4   31  -0.167   0.149   0.145
    1UNL     H5   32  -0.623   0.092   0.084
    1UNL     H6   33  -0.600   0.227   0.185
    1UNL     H7   34  -0.603   0.056   0.260
    1UNL     H8   35  -0.580  -0.085   0.027
    1UNL     H9   36  -0.494  -0.239  -0.137
    1UNL    H10   37  -0.247  -0.265  -0.179
    1UNL    H11   38   0.043  -0.210   0.154
    1UNL    H12   39  -0.070  -0.312   0.073
    1UNL    H13   40   0.223  -0.309   0.028
    1UNL    H14   41   0.106  -0.403  -0.051
    1UNL    H15   42   0.359  -0.204  -0.158
    1UNL    H16   43   0.283  -0.130  -0.277
    1UNL    H17   44   0.370   0.024  -0.152
    1UNL    H18   45   0.236  -0.079   0.092
    1UNL    H19   46   0.281   0.133   0.144
    1UNL    H20   47   0.413   0.056   0.214
    1UNL    H21   48   0.418   0.141   0.051
    1UNL    H22   49   0.449  -0.176   0.146
    1UNL    H23   50   0.182   0.165  -0.154
    1UNL    H24   51   0.102  -0.012  -0.322
    1UNL    H25   52  -0.043   0.058  -0.245
    1UNL    H26   53  -0.043  -0.180  -0.240
   0.00000   0.00000   0.00000   0.00000   0.00000   0.00000   0.00000   0.00000   0.00000
Generated with MDTraj, t= 18.0
 53
    1UNL     C1    1   0.176   0.445   0.090
    1UNL     O1    2   0.187   0.323   0.025
    1UNL     C2    3   0.077   0.250   0.061
    1UNL     O2    4  -0.003   0.288   0.143
    1UNL     C3    5   0.067   0.112  -0.006
    1UNL     C4    6  -0.029   0.025   0.026
    1UNL     N1    7  -0.149   0.056   0.094
    1UNL     C5    8  -0.258  -0.030   0.056
    1UNL     C6    9  -0.392  -0.007   0.074
    1UNL     O3   10  -0.417   0.095   0.170
    1UNL     C7   11  -0.555   0.122   0.182
    1UNL     C8   12  -0.480  -0.088   0.004
    1UNL     C9   13  -0.434  -0.194  -0.079
    1UNL    C10   14  -0.295  -0.213  -0.083
    1UNL    C11   15  -0.208  -0.124  -0.032
    1UNL    C12   16  -0.053  -0.111  -0.042
    1UNL    C13   17   0.002  -0.228   0.050
    1UNL    C14   18   0.108  -0.298  -0.034
    1UNL     N2   19   0.143  -0.212  -0.157
    1UNL    C15   20   0.275  -0.153  -0.163
    1UNL    C16   21   0.285  -0.017  -0.090
    1UNL    C17   22   0.311  -0.039   0.063
    1UNL    C18   23   0.365   0.089   0.115
    1UNL     O4   24   0.420  -0.138   0.074
    1UNL    C19   25   0.160   0.078  -0.119
    1UNL    C20   26   0.065   0.017  -0.226
    1UNL    C21   27   0.020  -0.124  -0.178
    1UNL     H1   28   0.241   0.528   0.051
    1UNL     H2   29   0.072   0.481   0.063
    1UNL     H3   30   0.182   0.431   0.197
    1UNL     H4   31  -0.157   0.133   0.163
    1UNL     H5   32  -0.578   0.195   0.105
    1UNL     H6   33  -0.587   0.180   0.268
    1UNL     H7   34  -0.619   0.033   0.170
    1UNL     H8   35  -0.583  -0.073  -0.005
    1UNL     H9   36  -0.504  -0.253  -0.138
    1UNL    H10   37  -0.247  -0.293  -0.135
    1UNL    H11   38   0.023  -0.189   0.148
    1UNL    H12   39  -0.086  -0.294   0.070
    1UNL    H13   40   0.205  -0.315   0.022
    1UNL    H14   41   0.079  -0.400  -0.060
    1UNL    H15   42   0.355  -0.214  -0.134
    1UNL    H16   43   0.291  -0.123  -0.262
    1UNL    H17   44   0.381   0.027  -0.124
    1UNL    H18   45   0.231  -0.069   0.125
    1UNL    H19   46   0.324   0.176   0.080
    1UNL    H20   47   0.350   0.094   0.222
    1UNL    H21   48   0.465   0.098   0.088
    1UNL    H22   49   0.456  -0.151   0.164
    1UNL    H23   50   0.199   0.170  -0.161
    1UNL    H24   51   0.105  -0.001  -0.327
    1UNL    H25   52  -0.033   0.068  -0.246
    1UNL    H26   53  -0.042  -0.173  -0.259
   0.00000   0.00000   0.00000   0.00000   0.00000   0.00000   0.00000   0.00000   0.00000
Generated with MDTraj, t= 19.0
 53
    1UNL     C1    1   0.185   0.435   0.072
    1UNL     O1    2   0.184   0.318   0.012
    1UNL     C2    3   0.088   0.242   0.067
    1UNL     O2    4   0.014   0.281   0.151
    1UNL     C3    5   0.066   0.113  -0.002
    1UNL     C4    6  -0.031   0.028   0.021
    1UNL     N1    7  -0.146   0.059   0.098
    1UNL     C5    8  -0.244  -0.027   0.055
    1UNL     C6    9  -0.381  -0.015   0.089
    1UNL     O3   10  -0.427   0.086   0.173
    1UNL     C7   11  -0.565   0.108   0.168
    1UNL     C8   12  -0.472  -0.102   0.028
    1UNL     C9   13  -0.427  -0.200  -0.065
    1UNL    C10   14  -0.295  -0.205  -0.104
    1UNL    C11   15  -0.208  -0.119  -0.045
    1UNL    C12   16  -0.056  -0.105  -0.046
    1UNL    C13   17  -0.007  -0.225   0.040
    1UNL    C14   18   0.088  -0.303  -0.050
    1UNL     N2   19   0.135  -0.203  -0.155
    1UNL    C15   20   0.272  -0.153  -0.149
    1UNL    C16   21   0.284  -0.005  -0.086
    1UNL    C17   22   0.312  -0.022   0.069
    1UNL    C18   23   0.390   0.099   0.112
    1UNL     O4   24   0.383  -0.143   0.099
    1UNL    C19   25   0.163   0.080  -0.115
    1UNL    C20   26   0.078   0.024  -0.235
    1UNL    C21   27   0.019  -0.116  -0.187
    1UNL     H1   28   0.249   0.505   0.014
    1UNL     H2   29   0.080   0.475   0.063
    1UNL     H3   30   0.214   0.422   0.176
    1UNL     H4   31  -0.174   0.164   0.115
    1UNL     H5   32  -0.606   0.122   0.071
    1UNL     H6   33  -0.584   0.209   0.205
    1UNL     H7   34  -0.624   0.035   0.226
    1UNL     H8   35  -0.578  -0.098   0.059
    1UNL     H9   36  -0.501  -0.269  -0.104
    1UNL    H10   37  -0.268  -0.288  -0.169
    1UNL    H11   38   0.041  -0.183   0.129
    1UNL    H12   39  -0.090  -0.293   0.069
    1UNL    H13   40   0.168  -0.352   0.014
    1UNL    H14   41   0.040  -0.380  -0.110
    1UNL    H15   42   0.330  -0.205  -0.081
    1UNL    H16   43   0.320  -0.149  -0.241
    1UNL    H17   44   0.372   0.043  -0.129
    1UNL    H18   45   0.227  -0.028   0.132
    1UNL    H19   46   0.326   0.185   0.128
    1UNL    H20   47   0.434   0.092   0.205
    1UNL    H21   48   0.457   0.136   0.036
    1UNL    H22   49   0.402  -0.159   0.195
    1UNL    H23   50   0.210   0.174  -0.148
    1UNL    H24   51   0.116   0.009  -0.337
    1UNL    H25   52  -0.014   0.085  -0.254
    1UNL    H26   53  -0.046  -0.158  -0.271
   0.00000   0.00000   0.00000   0.00000   0.00000   0.00000   0.00000   0.00000   0.00000
Generated with MDTraj, t= 20.0
 53
    1UNL     C1    1   0.174   0.440   0.086
    1UNL     O1    2   0.178   0.329   0.003
    1UNL     C2    3   0.090   0.241   0.068
    1UNL     O2    4   0.020   0.270   0.162
    1UNL     C3    5   0.082   0.114  -0.005
    1UNL     C4    6  -0.025   0.036   0.023
    1UNL     N1    7  -0.151   0.082   0.068
    1UNL     C5    8  -0.255  -0.014   0.044
    1UNL     C6    9  -0.392  -0.009   0.092
    1UNL     O3   10  -0.435   0.089   0.184
    1UNL     C7   11  -0.570   0.102   0.168
    1UNL     C8   12  -0.468  -0.107   0.026
    1UNL     C9   13  -0.422  -0.197  -0.066
    1UNL    C10   14  -0.284  -0.208  -0.103
    1UNL    C11   15  -0.200  -0.117  -0.038
    1UNL    C12   16  -0.051  -0.106  -0.037
    1UNL    C13   17   0.008  -0.219   0.054
    1UNL    C14   18   0.092  -0.301  -0.039
    1UNL     N2   19   0.137  -0.211  -0.153
    1UNL    C15   20   0.270  -0.157  -0.157
    1UNL    C16   21   0.286  -0.014  -0.095
    1UNL    C17   22   0.309  -0.037   0.056
    1UNL    C18   23   0.379   0.097   0.116
    1UNL     O4   24   0.378  -0.155   0.094
    1UNL    C19   25   0.169   0.083  -0.125
    1UNL    C20   26   0.072   0.021  -0.230
    1UNL    C21   27   0.019  -0.117  -0.179
    1UNL     H1   28   0.261   0.507   0.086
    1UNL     H2   29   0.087   0.499   0.052
    1UNL     H3   30   0.156   0.404   0.185
    1UNL     H4   31  -0.161   0.168   0.133
    1UNL     H5   32  -0.607   0.145   0.078
    1UNL     H6   33  -0.597   0.182   0.238
    1UNL     H7   34  -0.628   0.012   0.201
    1UNL     H8   35  -0.574  -0.103   0.043
    1UNL     H9   36  -0.479  -0.277  -0.104
    1UNL    H10   37  -0.241  -0.280  -0.168
    1UNL    H11   38   0.073  -0.179   0.137
    1UNL    H12   39  -0.075  -0.279   0.094
    1UNL    H13   40   0.186  -0.343   0.007
    1UNL    H14   41   0.027  -0.379  -0.077
    1UNL    H15   42   0.344  -0.213  -0.107
    1UNL    H16   43   0.304  -0.155  -0.257
    1UNL    H17   44   0.368   0.035  -0.146
    1UNL    H18   45   0.211  -0.051   0.094
    1UNL    H19   46   0.340   0.183   0.062
    1UNL    H20   47   0.347   0.113   0.211
    1UNL    H21   48   0.485   0.108   0.100
    1UNL    H22   49   0.384  -0.159   0.193
    1UNL    H23   50   0.211   0.181  -0.158
    1UNL    H24   51   0.104  -0.001  -0.333
    1UNL    H25   52  -0.015   0.087  -0.252
    1UNL    H26   53  -0.051  -0.152  -0.262
   0.00000   0.00000   0.00000   0.00000   0.00000   0.00000   0.00000   0.00000   0.00000
Generated with MDTraj, t= 21.0
 53
    1UNL     C1    1   0.180   0.446   0.081
    1UNL     O1    2   0.191   0.326   0.015
    1UNL     C2    3   0.087   0.248   0.064
    1UNL     O2    4   0.009   0.282   0.148
    1UNL     C3    5   0.074   0.116   0.003
    1UNL     C4    6  -0.033   0.028   0.028
    1UNL     N1    7  -0.147   0.059   0.093
    1UNL     C5    8  -0.253  -0.019   0.045
    1UNL     C6    9  -0.390  -0.006   0.072
    1UNL     O3   10  -0.433   0.115   0.127
    1UNL     C7   11  -0.561   0.104   0.197
    1UNL     C8   12  -0.480  -0.107   0.021
    1UNL     C9   13  -0.434  -0.198  -0.070
    1UNL    C10   14  -0.301  -0.209  -0.095
    1UNL    C11   15  -0.210  -0.124  -0.034
    1UNL    C12   16  -0.057  -0.114  -0.040
    1UNL    C13   17   0.002  -0.230   0.053
    1UNL    C14   18   0.116  -0.287  -0.030
    1UNL     N2   19   0.145  -0.205  -0.148
    1UNL    C15   20   0.276  -0.151  -0.164
    1UNL    C16   21   0.287  -0.010  -0.089
    1UNL    C17   22   0.310  -0.044   0.059
    1UNL    C18   23   0.370   0.083   0.131
    1UNL     O4   24   0.407  -0.151   0.066
    1UNL    C19   25   0.160   0.082  -0.117
    1UNL    C20   26   0.058   0.018  -0.221
    1UNL    C21   27   0.021  -0.122  -0.177
    1UNL     H1   28   0.210   0.531   0.022
    1UNL     H2   29   0.075   0.463   0.104
    1UNL     H3   30   0.236   0.438   0.171
    1UNL     H4   31  -0.163   0.151   0.132
    1UNL     H5   32  -0.655   0.103   0.149
    1UNL     H6   33  -0.566   0.193   0.264
    1UNL     H7   34  -0.558   0.017   0.267
    1UNL     H8   35  -0.584  -0.084   0.030
    1UNL     H9   36  -0.501  -0.274  -0.116
    1UNL    H10   37  -0.257  -0.291  -0.155
    1UNL    H11   38   0.037  -0.179   0.150
    1UNL    H12   39  -0.071  -0.306   0.084
    1UNL    H13   40   0.211  -0.284   0.030
    1UNL    H14   41   0.101  -0.386  -0.072
    1UNL    H15   42   0.362  -0.212  -0.146
    1UNL    H16   43   0.291  -0.136  -0.268
    1UNL    H17   44   0.370   0.041  -0.131
    1UNL    H18   45   0.215  -0.076   0.103
    1UNL    H19   46   0.293   0.155   0.148
    1UNL    H20   47   0.404   0.056   0.231
    1UNL    H21   48   0.441   0.135   0.071
    1UNL    H22   49   0.421  -0.152   0.164
    1UNL    H23   50   0.204   0.183  -0.142
    1UNL    H24   51   0.100   0.014  -0.321
    1UNL    H25   52  -0.040   0.068  -0.242
    1UNL    H26   53  -0.029  -0.178  -0.262
   0.00000   0.00000   0.00000   0.00000   0.00000   0.00000   0.00000   0.00000   0.00000
Generated with MDTraj, t= 22.0
 53
    1UNL     C1    1   0.177   0.441   0.084
    1UNL     O1    2   0.183   0.324   0.013
    1UNL     C2    3   0.080   0.244   0.065
    1UNL     O2    4   0.001   0.280   0.148
    1UNL     C3    5   0.074   0.107   0.009
    1UNL     C4    6  -0.031   0.017   0.044
    1UNL     N1    7  -0.150   0.060   0.096
    1UNL     C5    8  -0.258  -0.020   0.043
    1UNL     C6    9  -0.394   0.004   0.057
    1UNL     O3   10  -0.427   0.114   0.139
    1UNL     C7   11  -0.556   0.099   0.201
    1UNL     C8   12  -0.483  -0.076  -0.016
    1UNL     C9   13  -0.427  -0.194  -0.068
    1UNL    C10   14  -0.294  -0.214  -0.083
    1UNL    C11   15  -0.209  -0.123  -0.028
    1UNL    C12   16  -0.057  -0.114  -0.031
    1UNL    C13   17   0.002  -0.235   0.053
    1UNL    C14   18   0.112  -0.298  -0.033
    1UNL     N2   19   0.137  -0.212  -0.155
    1UNL    C15   20   0.269  -0.148  -0.165
    1UNL    C16   21   0.278  -0.015  -0.087
    1UNL    C17   22   0.324  -0.039   0.058
    1UNL    C18   23   0.367   0.092   0.121
    1UNL     O4   24   0.435  -0.133   0.065
    1UNL    C19   25   0.156   0.073  -0.113
    1UNL    C20   26   0.060   0.016  -0.225
    1UNL    C21   27   0.015  -0.119  -0.174
    1UNL     H1   28   0.258   0.511   0.067
    1UNL     H2   29   0.082   0.490   0.060
    1UNL     H3   30   0.177   0.410   0.188
    1UNL     H4   31  -0.172   0.140   0.142
    1UNL     H5   32  -0.642   0.091   0.139
    1UNL     H6   33  -0.568   0.190   0.266
    1UNL     H7   34  -0.554   0.012   0.271
    1UNL     H8   35  -0.589  -0.054  -0.035
    1UNL     H9   36  -0.498  -0.260  -0.106
    1UNL    H10   37  -0.259  -0.310  -0.114
    1UNL    H11   38   0.042  -0.192   0.152
    1UNL    H12   39  -0.072  -0.312   0.085
    1UNL    H13   40   0.211  -0.305   0.017
    1UNL    H14   41   0.092  -0.399  -0.070
    1UNL    H15   42   0.350  -0.210  -0.132
    1UNL    H16   43   0.311  -0.147  -0.265
    1UNL    H17   44   0.362   0.039  -0.122
    1UNL    H18   45   0.238  -0.088   0.101
    1UNL    H19   46   0.306   0.167   0.081
    1UNL    H20   47   0.353   0.091   0.234
    1UNL    H21   48   0.464   0.126   0.095
    1UNL    H22   49   0.475  -0.152   0.152
    1UNL    H23   50   0.197   0.173  -0.149
    1UNL    H24   51   0.087   0.015  -0.331
    1UNL    H25   52  -0.031   0.079  -0.230
    1UNL    H26   53  -0.051  -0.171  -0.250
   0.00000   0.00000   0.00000   0.00000   0.00000   0.00000   0.00000   0.00000   0.00000
Generated with MDTraj, t= 23.0
 53
    1UNL     C1    1   0.155   0.441   0.083
    1UNL     O1    2   0.179   0.321   0.023
    1UNL     C2    3   0.082   0.234   0.069
    1UNL     O2    4   0.006   0.261   0.157
    1UNL     C3    5   0.075   0.106  -0.001
    1UNL     C4    6  -0.029   0.026   0.038
    1UNL     N1    7  -0.145   0.064   0.112
    1UNL     C5    8  -0.256  -0.011   0.047
    1UNL     C6    9  -0.395   0.004   0.070
    1UNL     O3   10  -0.438   0.100   0.163
    1UNL     C7   11  -0.568   0.113   0.189
    1UNL     C8   12  -0.468  -0.089   0.001
    1UNL     C9   13  -0.417  -0.188  -0.086
    1UNL    C10   14  -0.285  -0.197  -0.112
    1UNL    C11   15  -0.206  -0.110  -0.040
    1UNL    C12   16  -0.059  -0.108  -0.033
    1UNL    C13   17   0.002  -0.224   0.055
    1UNL    C14   18   0.098  -0.303  -0.030
    1UNL     N2   19   0.130  -0.223  -0.151
    1UNL    C15   20   0.267  -0.162  -0.152
    1UNL    C16   21   0.286  -0.021  -0.095
    1UNL    C17   22   0.324  -0.024   0.056
    1UNL    C18   23   0.381   0.107   0.093
    1UNL     O4   24   0.423  -0.131   0.074
    1UNL    C19   25   0.165   0.069  -0.117
    1UNL    C20   26   0.067   0.008  -0.226
    1UNL    C21   27   0.015  -0.124  -0.175
    1UNL     H1   28   0.242   0.509   0.081
    1UNL     H2   29   0.069   0.489   0.032
    1UNL     H3   30   0.131   0.418   0.189
    1UNL     H4   31  -0.157   0.158   0.141
    1UNL     H5   32  -0.614   0.161   0.107
    1UNL     H6   33  -0.566   0.177   0.286
    1UNL     H7   34  -0.615   0.015   0.208
    1UNL     H8   35  -0.572  -0.084   0.001
    1UNL     H9   36  -0.483  -0.272  -0.123
    1UNL    H10   37  -0.241  -0.282  -0.164
    1UNL    H11   38   0.059  -0.190   0.147
    1UNL    H12   39  -0.076  -0.294   0.104
    1UNL    H13   40   0.195  -0.328   0.018
    1UNL    H14   41   0.059  -0.398  -0.065
    1UNL    H15   42   0.331  -0.232  -0.102
    1UNL    H16   43   0.316  -0.175  -0.247
    1UNL    H17   44   0.376   0.020  -0.130
    1UNL    H18   45   0.241  -0.041   0.123
    1UNL    H19   46   0.308   0.176   0.135
    1UNL    H20   47   0.479   0.105   0.149
    1UNL    H21   48   0.404   0.160   0.002
    1UNL    H22   49   0.444  -0.141   0.169
    1UNL    H23   50   0.205   0.166  -0.162
    1UNL    H24   51   0.114  -0.016  -0.323
    1UNL    H25   52  -0.008   0.081  -0.267
    1UNL    H26   53  -0.062  -0.167  -0.245
   0.00000   0.00000   0.00000   0.00000   0.00000   0.00000   0.00000   0.00000   0.00000
Generated with MDTraj, t= 24.0
 53
    1UNL     C1    1   0.178   0.438   0.073
    1UNL     O1    2   0.174   0.319   0.005
    1UNL     C2    3   0.078   0.233   0.065
    1UNL     O2    4   0.014   0.264   0.159
    1UNL     C3    5   0.062   0.099   0.005
    1UNL     C4    6  -0.035   0.015   0.042
    1UNL     N1    7  -0.162   0.045   0.105
    1UNL     C5    8  -0.261  -0.015   0.043
    1UNL     C6    9  -0.400  -0.013   0.082
    1UNL     O3   10  -0.438   0.091   0.181
    1UNL     C7   11  -0.570   0.137   0.184
    1UNL     C8   12  -0.486  -0.101   0.012
    1UNL     C9   13  -0.439  -0.179  -0.088
    1UNL    C10   14  -0.305  -0.186  -0.120
    1UNL    C11   15  -0.213  -0.113  -0.048
    1UNL    C12   16  -0.063  -0.112  -0.040
    1UNL    C13   17  -0.010  -0.236   0.043
    1UNL    C14   18   0.114  -0.302  -0.027
    1UNL     N2   19   0.142  -0.213  -0.141
    1UNL    C15   20   0.285  -0.151  -0.146
    1UNL    C16   21   0.289  -0.007  -0.087
    1UNL    C17   22   0.338  -0.017   0.066
    1UNL    C18   23   0.405   0.115   0.111
    1UNL     O4   24   0.434  -0.131   0.070
    1UNL    C19   25   0.156   0.076  -0.120
    1UNL    C20   26   0.069   0.005  -0.235
    1UNL    C21   27   0.019  -0.126  -0.177
    1UNL     H1   28   0.208   0.523   0.008
    1UNL     H2   29   0.077   0.460   0.113
    1UNL     H3   30   0.252   0.424   0.155
    1UNL     H4   31  -0.167   0.142   0.147
    1UNL     H5   32  -0.595   0.149   0.081
    1UNL     H6   33  -0.577   0.229   0.255
    1UNL     H7   34  -0.636   0.056   0.218
    1UNL     H8   35  -0.592  -0.102   0.046
    1UNL     H9   36  -0.503  -0.245  -0.136
    1UNL    H10   37  -0.274  -0.263  -0.188
    1UNL    H11   38   0.012  -0.210   0.150
    1UNL    H12   39  -0.092  -0.320   0.050
    1UNL    H13   40   0.198  -0.303   0.044
    1UNL    H14   41   0.101  -0.404  -0.061
    1UNL    H15   42   0.364  -0.215  -0.108
    1UNL    H16   43   0.316  -0.158  -0.250
    1UNL    H17   44   0.370   0.046  -0.129
    1UNL    H18   45   0.249  -0.035   0.123
    1UNL    H19   46   0.393   0.187   0.026
    1UNL    H20   47   0.382   0.152   0.212
    1UNL    H21   48   0.514   0.088   0.115
    1UNL    H22   49   0.468  -0.145   0.162
    1UNL    H23   50   0.186   0.179  -0.157
    1UNL    H24   51   0.127  -0.015  -0.326
    1UNL    H25   52  -0.015   0.064  -0.276
    1UNL    H26   53  -0.043  -0.185  -0.251
   0.00000   0.00000   0.00000   0.00000   0.00000   0.00000   0.00000   0.00000   0.00000
Generated with MDTraj, t= 25.0
 53
    1UNL     C1    1   0.168   0.449   0.091
    1UNL     O1    2   0.179   0.330   0.020
    1UNL     C2    3   0.084   0.241   0.065
    1UNL     O2    4   0.019   0.258   0.163
    1UNL     C3    5   0.070   0.110  -0.004
    1UNL     C4    6  -0.023   0.022   0.036
    1UNL     N1    7  -0.143   0.046   0.105
    1UNL     C5    8  -0.253  -0.024   0.051
    1UNL     C6    9  -0.391  -0.007   0.069
    1UNL     O3   10  -0.421   0.086   0.167
    1UNL     C7   11  -0.556   0.132   0.175
    1UNL     C8   12  -0.483  -0.077  -0.002
    1UNL     C9   13  -0.436  -0.172  -0.089
    1UNL    C10   14  -0.297  -0.192  -0.105
    1UNL    C11   15  -0.210  -0.123  -0.031
    1UNL    C12   16  -0.055  -0.121  -0.033
    1UNL    C13   17  -0.001  -0.241   0.059
    1UNL    C14   18   0.127  -0.296  -0.019
    1UNL     N2   19   0.137  -0.223  -0.152
    1UNL    C15   20   0.274  -0.149  -0.169
    1UNL    C16   21   0.281  -0.014  -0.098
    1UNL    C17   22   0.314  -0.030   0.054
    1UNL    C18   23   0.366   0.107   0.101
    1UNL     O4   24   0.412  -0.124   0.081
    1UNL    C19   25   0.151   0.078  -0.125
    1UNL    C20   26   0.058  -0.004  -0.228
    1UNL    C21   27   0.014  -0.135  -0.170
    1UNL     H1   28   0.209   0.535   0.037
    1UNL     H2   29   0.062   0.469   0.110
    1UNL     H3   30   0.223   0.434   0.187
    1UNL     H4   31  -0.140   0.145   0.154
    1UNL     H5   32  -0.582   0.151   0.075
    1UNL     H6   33  -0.564   0.221   0.251
    1UNL     H7   34  -0.623   0.054   0.210
    1UNL     H8   35  -0.584  -0.053   0.004
    1UNL     H9   36  -0.498  -0.245  -0.147
    1UNL    H10   37  -0.254  -0.262  -0.174
    1UNL    H11   38   0.028  -0.210   0.164
    1UNL    H12   39  -0.082  -0.324   0.073
    1UNL    H13   40   0.217  -0.282   0.042
    1UNL    H14   41   0.117  -0.403  -0.026
    1UNL    H15   42   0.344  -0.215  -0.120
    1UNL    H16   43   0.320  -0.138  -0.266
    1UNL    H17   44   0.365   0.036  -0.136
    1UNL    H18   45   0.217  -0.061   0.088
    1UNL    H19   46   0.278   0.181   0.107
    1UNL    H20   47   0.421   0.093   0.192
    1UNL    H21   48   0.440   0.150   0.024
    1UNL    H22   49   0.437  -0.126   0.177
    1UNL    H23   50   0.186   0.180  -0.160
    1UNL    H24   51   0.115  -0.024  -0.319
    1UNL    H25   52  -0.030   0.051  -0.266
    1UNL    H26   53  -0.050  -0.189  -0.245
   0.00000   0.00000   0.00000   0.00000   0.00000   0.00000   0.00000   0.00000   0.00000
Generated with MDTraj, t= 26.0
 53
    1UNL     C1    1   0.155   0.451   0.077
    1UNL     O1    2   0.151   0.330   0.002
    1UNL     C2    3   0.068   0.239   0.067
    1UNL     O2    4   0.001   0.258   0.164
    1UNL     C3    5   0.070   0.106   0.005
    1UNL     C4    6  -0.026   0.016   0.046
    1UNL     N1    7  -0.137   0.050   0.116
    1UNL     C5    8  -0.246  -0.025   0.063
    1UNL     C6    9  -0.381   0.004   0.071
    1UNL     O3   10  -0.414   0.114   0.144
    1UNL     C7   11  -0.552   0.119   0.164
    1UNL     C8   12  -0.480  -0.072  -0.000
    1UNL     C9   13  -0.433  -0.180  -0.079
    1UNL    C10   14  -0.294  -0.207  -0.096
    1UNL    C11   15  -0.206  -0.123  -0.027
    1UNL    C12   16  -0.050  -0.116  -0.024
    1UNL    C13   17   0.021  -0.233   0.061
    1UNL    C14   18   0.123  -0.295  -0.031
    1UNL     N2   19   0.138  -0.209  -0.145
    1UNL    C15   20   0.275  -0.147  -0.181
    1UNL    C16   21   0.285  -0.015  -0.102
    1UNL    C17   22   0.317  -0.042   0.054
    1UNL    C18   23   0.374   0.087   0.121
    1UNL     O4   24   0.408  -0.153   0.063
    1UNL    C19   25   0.153   0.075  -0.116
    1UNL    C20   26   0.060   0.018  -0.225
    1UNL    C21   27   0.018  -0.118  -0.167
    1UNL     H1   28   0.246   0.508   0.074
    1UNL     H2   29   0.071   0.509   0.048
    1UNL     H3   30   0.135   0.416   0.180
    1UNL     H4   31  -0.161   0.147   0.157
    1UNL     H5   32  -0.597   0.137   0.071
    1UNL     H6   33  -0.565   0.197   0.250
    1UNL     H7   34  -0.591   0.027   0.204
    1UNL     H8   35  -0.587  -0.043  -0.010
    1UNL     H9   36  -0.509  -0.232  -0.132
    1UNL    H10   37  -0.263  -0.291  -0.162
    1UNL    H11   38   0.072  -0.194   0.156
    1UNL    H12   39  -0.042  -0.318   0.107
    1UNL    H13   40   0.216  -0.318   0.021
    1UNL    H14   41   0.087  -0.394  -0.056
    1UNL    H15   42   0.361  -0.205  -0.154
    1UNL    H16   43   0.278  -0.130  -0.289
    1UNL    H17   44   0.373   0.034  -0.133
    1UNL    H18   45   0.224  -0.066   0.106
    1UNL    H19   46   0.342   0.185   0.081
    1UNL    H20   47   0.361   0.091   0.234
    1UNL    H21   48   0.490   0.093   0.115
    1UNL    H22   49   0.405  -0.171   0.160
    1UNL    H23   50   0.189   0.172  -0.159
    1UNL    H24   51   0.122   0.010  -0.316
    1UNL    H25   52  -0.023   0.087  -0.249
    1UNL    H26   53  -0.048  -0.164  -0.246
   0.00000   0.00000   0.00000   0.00000   0.00000   0.00000   0.00000   0.00000   0.00000
Generated with MDTraj, t= 27.0
 53
    1UNL     C1    1   0.143   0.452   0.036
    1UNL     O1    2   0.182   0.325   0.020
    1UNL     C2    3   0.086   0.237   0.081
    1UNL     O2    4   0.003   0.264   0.161
    1UNL     C3    5   0.084   0.107   0.021
    1UNL     C4    6  -0.027   0.021   0.047
    1UNL     N1    7  -0.148   0.060   0.101
    1UNL     C5    8  -0.253  -0.017   0.044
    1UNL     C6    9  -0.387   0.007   0.071
    1UNL     O3   10  -0.421   0.114   0.153
    1UNL     C7   11  -0.561   0.112   0.153
    1UNL     C8   12  -0.471  -0.091   0.015
    1UNL     C9   13  -0.426  -0.200  -0.066
    1UNL    C10   14  -0.289  -0.210  -0.088
    1UNL    C11   15  -0.201  -0.121  -0.029
    1UNL    C12   16  -0.051  -0.112  -0.024
    1UNL    C13   17   0.001  -0.238   0.046
    1UNL    C14   18   0.101  -0.302  -0.056
    1UNL     N2   19   0.131  -0.210  -0.160
    1UNL    C15   20   0.268  -0.139  -0.169
    1UNL    C16   21   0.285  -0.009  -0.091
    1UNL    C17   22   0.325  -0.040   0.056
    1UNL    C18   23   0.374   0.080   0.131
    1UNL     O4   24   0.410  -0.153   0.064
    1UNL    C19   25   0.164   0.089  -0.105
    1UNL    C20   26   0.061   0.029  -0.216
    1UNL    C21   27   0.017  -0.116  -0.167
    1UNL     H1   28   0.192   0.514  -0.036
    1UNL     H2   29   0.038   0.452   0.021
    1UNL     H3   30   0.165   0.475   0.141
    1UNL     H4   31  -0.169   0.151   0.137
    1UNL     H5   32  -0.601   0.130   0.057
    1UNL     H6   33  -0.582   0.191   0.234
    1UNL     H7   34  -0.596   0.024   0.199
    1UNL     H8   35  -0.572  -0.087   0.051
    1UNL     H9   36  -0.497  -0.267  -0.114
    1UNL    H10   37  -0.242  -0.283  -0.143
    1UNL    H11   38   0.058  -0.204   0.142
    1UNL    H12   39  -0.074  -0.312   0.092
    1UNL    H13   40   0.190  -0.339  -0.005
    1UNL    H14   41   0.063  -0.395  -0.099
    1UNL    H15   42   0.345  -0.203  -0.128
    1UNL    H16   43   0.295  -0.107  -0.271
    1UNL    H17   44   0.375   0.036  -0.125
    1UNL    H18   45   0.233  -0.083   0.101
    1UNL    H19   46   0.293   0.140   0.175
    1UNL    H20   47   0.438   0.038   0.222
    1UNL    H21   48   0.441   0.155   0.080
    1UNL    H22   49   0.423  -0.201   0.149
    1UNL    H23   50   0.194   0.187  -0.147
    1UNL    H24   51   0.110   0.019  -0.315
    1UNL    H25   52  -0.020   0.102  -0.225
    1UNL    H26   53  -0.062  -0.154  -0.237
   0.00000   0.00000   0.00000   0.00000   0.00000   0.00000   0.00000   0.00000   0.00000
Generated with MDTraj, t= 28.0
 53
    1UNL     C1    1   0.169   0.464   0.083
    1UNL     O1    2   0.168   0.349   0.008
    1UNL     C2    3   0.082   0.251   0.062
    1UNL     O2    4   0.012   0.280   0.154
    1UNL     C3    5   0.077   0.109   0.003
    1UNL     C4    6  -0.030   0.027   0.032
    1UNL     N1    7  -0.151   0.069   0.084
    1UNL     C5    8  -0.255  -0.018   0.057
    1UNL     C6    9  -0.395  -0.010   0.078
    1UNL     O3   10  -0.438   0.094   0.163
    1UNL     C7   11  -0.578   0.115   0.159
    1UNL     C8   12  -0.480  -0.106   0.027
    1UNL     C9   13  -0.431  -0.200  -0.061
    1UNL    C10   14  -0.295  -0.211  -0.089
    1UNL    C11   15  -0.205  -0.112  -0.033
    1UNL    C12   16  -0.055  -0.105  -0.038
    1UNL    C13   17  -0.000  -0.226   0.048
    1UNL    C14   18   0.100  -0.301  -0.056
    1UNL     N2   19   0.126  -0.205  -0.160
    1UNL    C15   20   0.268  -0.160  -0.169
    1UNL    C16   21   0.299  -0.028  -0.085
    1UNL    C17   22   0.332  -0.054   0.066
    1UNL    C18   23   0.375   0.077   0.133
    1UNL     O4   24   0.439  -0.151   0.072
    1UNL    C19   25   0.171   0.070  -0.114
    1UNL    C20   26   0.073   0.020  -0.224
    1UNL    C21   27   0.014  -0.110  -0.177
    1UNL     H1   28   0.249   0.531   0.050
    1UNL     H2   29   0.073   0.509   0.067
    1UNL     H3   30   0.178   0.434   0.190
    1UNL     H4   31  -0.166   0.162   0.103
    1UNL     H5   32  -0.612   0.123   0.060
    1UNL     H6   33  -0.582   0.218   0.212
    1UNL     H7   34  -0.629   0.052   0.227
    1UNL     H8   35  -0.581  -0.098   0.057
    1UNL     H9   36  -0.492  -0.280  -0.105
    1UNL    H10   37  -0.245  -0.290  -0.152
    1UNL    H11   38   0.052  -0.191   0.145
    1UNL    H12   39  -0.087  -0.289   0.084
    1UNL    H13   40   0.190  -0.341  -0.010
    1UNL    H14   41   0.048  -0.387  -0.099
    1UNL    H15   42   0.340  -0.234  -0.134
    1UNL    H16   43   0.291  -0.135  -0.274
    1UNL    H17   44   0.392   0.010  -0.118
    1UNL    H18   45   0.244  -0.089   0.124
    1UNL    H19   46   0.322   0.166   0.082
    1UNL    H20   47   0.351   0.066   0.245
    1UNL    H21   48   0.485   0.087   0.122
    1UNL    H22   49   0.487  -0.141   0.158
    1UNL    H23   50   0.203   0.169  -0.147
    1UNL    H24   51   0.129   0.019  -0.321
    1UNL    H25   52  -0.013   0.090  -0.219
    1UNL    H26   53  -0.054  -0.151  -0.255
   0.00000   0.00000   0.00000   0.00000   0.00000   0.00000   0.00000   0.00000   0.00000
Generated with MDTraj, t= 29.0
 53
    1UNL     C1    1   0.184   0.439   0.092
    1UNL     O1    2   0.198   0.314   0.031
    1UNL     C2    3   0.087   0.235   0.068
    1UNL     O2    4   0.009   0.270   0.152
    1UNL     C3    5   0.068   0.111  -0.010
    1UNL     C4    6  -0.033   0.035   0.027
    1UNL     N1    7  -0.151   0.071   0.086
    1UNL     C5    8  -0.252  -0.021   0.050
    1UNL     C6    9  -0.394  -0.013   0.078
    1UNL     O3   10  -0.429   0.100   0.153
    1UNL     C7   11  -0.568   0.126   0.193
    1UNL     C8   12  -0.476  -0.110   0.013
    1UNL     C9   13  -0.419  -0.209  -0.071
    1UNL    C10   14  -0.286  -0.212  -0.101
    1UNL    C11   15  -0.206  -0.114  -0.043
    1UNL    C12   16  -0.055  -0.104  -0.043
    1UNL    C13   17  -0.003  -0.218   0.049
    1UNL    C14   18   0.106  -0.293  -0.031
    1UNL     N2   19   0.136  -0.217  -0.153
    1UNL    C15   20   0.264  -0.151  -0.161
    1UNL    C16   21   0.282  -0.014  -0.092
    1UNL    C17   22   0.314  -0.029   0.057
    1UNL    C18   23   0.368   0.099   0.114
    1UNL     O4   24   0.406  -0.138   0.089
    1UNL    C19   25   0.159   0.076  -0.128
    1UNL    C20   26   0.064   0.014  -0.233
    1UNL    C21   27   0.017  -0.123  -0.181
    1UNL     H1   28   0.256   0.512   0.052
    1UNL     H2   29   0.083   0.472   0.070
    1UNL     H3   30   0.192   0.429   0.205
    1UNL     H4   31  -0.163   0.158   0.138
    1UNL     H5   32  -0.621   0.161   0.108
    1UNL     H6   33  -0.571   0.212   0.270
    1UNL     H7   34  -0.610   0.043   0.245
    1UNL     H8   35  -0.584  -0.114   0.042
    1UNL     H9   36  -0.487  -0.267  -0.126
    1UNL    H10   37  -0.243  -0.283  -0.165
    1UNL    H11   38   0.051  -0.176   0.138
    1UNL    H12   39  -0.087  -0.285   0.084
    1UNL    H13   40   0.194  -0.310   0.031
    1UNL    H14   41   0.061  -0.389  -0.061
    1UNL    H15   42   0.338  -0.215  -0.113
    1UNL    H16   43   0.304  -0.137  -0.264
    1UNL    H17   44   0.370   0.021  -0.141
    1UNL    H18   45   0.223  -0.050   0.108
    1UNL    H19   46   0.285   0.172   0.151
    1UNL    H20   47   0.439   0.077   0.195
    1UNL    H21   48   0.427   0.158   0.035
    1UNL    H22   49   0.449  -0.112   0.173
    1UNL    H23   50   0.187   0.175  -0.161
    1UNL    H24   51   0.134   0.003  -0.320
    1UNL    H25   52  -0.022   0.080  -0.251
    1UNL    H26   53  -0.049  -0.173  -0.253
   0.00000   0.00000   0.00000   0.00000   0.00000   0.00000   0.00000   0.00000   0.00000
Generated with MDTraj, t= 30.0
 53
    1UNL     C1    1   0.201   0.415   0.096
    1UNL     O1    2   0.174   0.313   0.010
    1UNL     C2    3   0.073   0.238   0.061
    1UNL     O2    4  -0.002   0.274   0.146
    1UNL     C3    5   0.062   0.111  -0.011
    1UNL     C4    6  -0.033   0.027   0.024
    1UNL     N1    7  -0.148   0.060   0.092
    1UNL     C5    8  -0.263  -0.015   0.043
    1UNL     C6    9  -0.402   0.009   0.065
    1UNL     O3   10  -0.439   0.108   0.159
    1UNL     C7   11  -0.572   0.105   0.215
    1UNL     C8   12  -0.473  -0.090  -0.002
    1UNL     C9   13  -0.422  -0.194  -0.079
    1UNL    C10   14  -0.286  -0.214  -0.092
    1UNL    C11   15  -0.206  -0.117  -0.038
    1UNL    C12   16  -0.054  -0.110  -0.033
    1UNL    C13   17  -0.001  -0.237   0.048
    1UNL    C14   18   0.117  -0.292  -0.023
    1UNL     N2   19   0.149  -0.205  -0.136
    1UNL    C15   20   0.284  -0.141  -0.158
    1UNL    C16   21   0.281  -0.000  -0.089
    1UNL    C17   22   0.321  -0.019   0.059
    1UNL    C18   23   0.398   0.095   0.118
    1UNL     O4   24   0.387  -0.145   0.076
    1UNL    C19   25   0.153   0.087  -0.129
    1UNL    C20   26   0.062   0.009  -0.231
    1UNL    C21   27   0.026  -0.129  -0.176
    1UNL     H1   28   0.299   0.457   0.066
    1UNL     H2   29   0.124   0.489   0.084
    1UNL     H3   30   0.202   0.380   0.204
    1UNL     H4   31  -0.168   0.165   0.109
    1UNL     H5   32  -0.635   0.146   0.139
    1UNL     H6   33  -0.585   0.170   0.309
    1UNL     H7   34  -0.605   0.006   0.241
    1UNL     H8   35  -0.576  -0.086   0.003
    1UNL     H9   36  -0.501  -0.258  -0.128
    1UNL    H10   37  -0.254  -0.281  -0.170
    1UNL    H11   38   0.035  -0.219   0.152
    1UNL    H12   39  -0.079  -0.319   0.055
    1UNL    H13   40   0.201  -0.285   0.045
    1UNL    H14   41   0.103  -0.397  -0.058
    1UNL    H15   42   0.369  -0.201  -0.120
    1UNL    H16   43   0.315  -0.134  -0.265
    1UNL    H17   44   0.363   0.044  -0.141
    1UNL    H18   45   0.225  -0.039   0.099
    1UNL    H19   46   0.377   0.192   0.075
    1UNL    H20   47   0.399   0.102   0.229
    1UNL    H21   48   0.513   0.086   0.090
    1UNL    H22   49   0.458  -0.140   0.144
    1UNL    H23   50   0.168   0.182  -0.176
    1UNL    H24   51   0.113   0.002  -0.330
    1UNL    H25   52  -0.028   0.072  -0.239
    1UNL    H26   53  -0.033  -0.195  -0.239
   0.00000   0.00000   0.00000   0.00000   0.00000   0.00000   0.00000   0.00000   0.00000
Generated with MDTraj, t= 31.0
 53
    1UNL     C1    1   0.174   0.454   0.082
    1UNL     O1    2   0.195   0.327   0.035
    1UNL     C2    3   0.085   0.246   0.072
    1UNL     O2    4   0.003   0.282   0.150
    1UNL     C3    5   0.070   0.115   0.002
    1UNL     C4    6  -0.034   0.030   0.021
    1UNL     N1    7  -0.147   0.056   0.096
    1UNL     C5    8  -0.252  -0.024   0.049
    1UNL     C6    9  -0.393  -0.008   0.068
    1UNL     O3   10  -0.436   0.098   0.157
    1UNL     C7   11  -0.564   0.087   0.210
    1UNL     C8   12  -0.474  -0.080  -0.012
    1UNL     C9   13  -0.422  -0.180  -0.090
    1UNL    C10   14  -0.287  -0.204  -0.102
    1UNL    C11   15  -0.202  -0.118  -0.045
    1UNL    C12   16  -0.050  -0.107  -0.033
    1UNL    C13   17   0.003  -0.220   0.061
    1UNL    C14   18   0.116  -0.288  -0.013
    1UNL     N2   19   0.136  -0.217  -0.147
    1UNL    C15   20   0.268  -0.161  -0.165
    1UNL    C16   21   0.279  -0.021  -0.100
    1UNL    C17   22   0.317  -0.039   0.052
    1UNL    C18   23   0.384   0.096   0.097
    1UNL     O4   24   0.393  -0.151   0.082
    1UNL    C19   25   0.155   0.080  -0.125
    1UNL    C20   26   0.058   0.007  -0.223
    1UNL    C21   27   0.023  -0.124  -0.169
    1UNL     H1   28   0.231   0.525   0.023
    1UNL     H2   29   0.070   0.476   0.078
    1UNL     H3   30   0.206   0.461   0.188
    1UNL     H4   31  -0.177   0.157   0.122
    1UNL     H5   32  -0.628   0.085   0.122
    1UNL     H6   33  -0.608   0.171   0.274
    1UNL     H7   34  -0.567  -0.008   0.264
    1UNL     H8   35  -0.585  -0.073  -0.002
    1UNL     H9   36  -0.479  -0.237  -0.154
    1UNL    H10   37  -0.259  -0.286  -0.172
    1UNL    H11   38   0.034  -0.169   0.155
    1UNL    H12   39  -0.081  -0.286   0.101
    1UNL    H13   40   0.207  -0.311   0.042
    1UNL    H14   41   0.077  -0.386  -0.050
    1UNL    H15   42   0.340  -0.236  -0.124
    1UNL    H16   43   0.298  -0.161  -0.273
    1UNL    H17   44   0.371   0.014  -0.143
    1UNL    H18   45   0.226  -0.047   0.108
    1UNL    H19   46   0.328   0.186   0.093
    1UNL    H20   47   0.446   0.089   0.193
    1UNL    H21   48   0.466   0.116   0.019
    1UNL    H22   49   0.402  -0.149   0.180
    1UNL    H23   50   0.185   0.174  -0.164
    1UNL    H24   51   0.110  -0.002  -0.321
    1UNL    H25   52  -0.032   0.068  -0.241
    1UNL    H26   53  -0.055  -0.174  -0.228
   0.00000   0.00000   0.00000   0.00000   0.00000   0.00000   0.00000   0.00000   0.00000
Generated with MDTraj, t= 32.0
 53
    1UNL     C1    1   0.170   0.456   0.064
    1UNL     O1    2   0.167   0.331  -0.002
    1UNL     C2    3   0.076   0.242   0.059
    1UNL     O2    4   0.014   0.282   0.153
    1UNL     C3    5   0.078   0.106   0.013
    1UNL     C4    6  -0.026   0.018   0.033
    1UNL     N1    7  -0.143   0.056   0.094
    1UNL     C5    8  -0.258  -0.021   0.059
    1UNL     C6    9  -0.400  -0.000   0.069
    1UNL     O3   10  -0.439   0.101   0.148
    1UNL     C7   11  -0.563   0.093   0.212
    1UNL     C8   12  -0.479  -0.089   0.003
    1UNL     C9   13  -0.436  -0.184  -0.084
    1UNL    C10   14  -0.299  -0.200  -0.106
    1UNL    C11   15  -0.216  -0.117  -0.036
    1UNL    C12   16  -0.059  -0.110  -0.042
    1UNL    C13   17   0.001  -0.225   0.046
    1UNL    C14   18   0.099  -0.304  -0.046
    1UNL     N2   19   0.137  -0.212  -0.157
    1UNL    C15   20   0.277  -0.157  -0.156
    1UNL    C16   21   0.287  -0.025  -0.085
    1UNL    C17   22   0.336  -0.047   0.063
    1UNL    C18   23   0.380   0.096   0.119
    1UNL     O4   24   0.434  -0.140   0.088
    1UNL    C19   25   0.163   0.074  -0.102
    1UNL    C20   26   0.069   0.022  -0.214
    1UNL    C21   27   0.017  -0.116  -0.176
    1UNL     H1   28   0.261   0.509   0.043
    1UNL     H2   29   0.082   0.510   0.041
    1UNL     H3   30   0.166   0.436   0.173
    1UNL     H4   31  -0.147   0.145   0.146
    1UNL     H5   32  -0.642   0.075   0.135
    1UNL     H6   33  -0.595   0.187   0.265
    1UNL     H7   34  -0.556   0.005   0.278
    1UNL     H8   35  -0.581  -0.081   0.027
    1UNL     H9   36  -0.514  -0.247  -0.138
    1UNL    H10   37  -0.262  -0.264  -0.179
    1UNL    H11   38   0.040  -0.185   0.141
    1UNL    H12   39  -0.093  -0.276   0.084
    1UNL    H13   40   0.189  -0.337   0.003
    1UNL    H14   41   0.053  -0.395  -0.093
    1UNL    H15   42   0.340  -0.234  -0.104
    1UNL    H16   43   0.317  -0.151  -0.261
    1UNL    H17   44   0.375   0.024  -0.125
    1UNL    H18   45   0.252  -0.073   0.116
    1UNL    H19   46   0.315   0.179   0.085
    1UNL    H20   47   0.400   0.087   0.232
    1UNL    H21   48   0.475   0.115   0.076
    1UNL    H22   49   0.441  -0.179   0.180
    1UNL    H23   50   0.203   0.169  -0.119
    1UNL    H24   51   0.123   0.038  -0.310
    1UNL    H25   52  -0.017   0.089  -0.227
    1UNL    H26   53  -0.041  -0.161  -0.256
   0.00000   0.00000   0.00000   0.00000   0.00000   0.00000   0.00000   0.00000   0.00000
Generated with MDTraj, t= 33.0
 53
    1UNL     C1    1   0.145   0.450   0.058
    1UNL     O1    2   0.168   0.324   0.005
    1UNL     C2    3   0.081   0.235   0.062
    1UNL     O2    4   0.017   0.263   0.160
    1UNL     C3    5   0.085   0.099   0.004
    1UNL     C4    6  -0.026   0.024   0.036
    1UNL     N1    7  -0.148   0.068   0.081
    1UNL     C5    8  -0.251  -0.009   0.030
    1UNL     C6    9  -0.382   0.007   0.061
    1UNL     O3   10  -0.418   0.112   0.150
    1UNL     C7   11  -0.546   0.101   0.219
    1UNL     C8   12  -0.475  -0.088   0.008
    1UNL     C9   13  -0.430  -0.192  -0.070
    1UNL    C10   14  -0.296  -0.212  -0.102
    1UNL    C11   15  -0.204  -0.112  -0.050
    1UNL    C12   16  -0.053  -0.109  -0.037
    1UNL    C13   17  -0.003  -0.230   0.039
    1UNL    C14   18   0.087  -0.309  -0.050
    1UNL     N2   19   0.137  -0.214  -0.149
    1UNL    C15   20   0.280  -0.153  -0.145
    1UNL    C16   21   0.287  -0.015  -0.084
    1UNL    C17   22   0.323  -0.035   0.069
    1UNL    C18   23   0.353   0.088   0.152
    1UNL     O4   24   0.422  -0.132   0.076
    1UNL    C19   25   0.165   0.073  -0.118
    1UNL    C20   26   0.060   0.018  -0.220
    1UNL    C21   27   0.019  -0.119  -0.172
    1UNL     H1   28   0.225   0.519   0.030
    1UNL     H2   29   0.046   0.484   0.032
    1UNL     H3   30   0.147   0.440   0.169
    1UNL     H4   31  -0.166   0.140   0.143
    1UNL     H5   32  -0.610   0.194   0.227
    1UNL     H6   33  -0.535   0.064   0.321
    1UNL     H7   34  -0.607   0.028   0.164
    1UNL     H8   35  -0.580  -0.087   0.030
    1UNL     H9   36  -0.498  -0.255  -0.116
    1UNL    H10   37  -0.262  -0.297  -0.163
    1UNL    H11   38   0.052  -0.183   0.124
    1UNL    H12   39  -0.087  -0.293   0.075
    1UNL    H13   40   0.169  -0.349   0.010
    1UNL    H14   41   0.029  -0.389  -0.103
    1UNL    H15   42   0.350  -0.222  -0.089
    1UNL    H16   43   0.307  -0.153  -0.255
    1UNL    H17   44   0.369   0.040  -0.132
    1UNL    H18   45   0.238  -0.071   0.115
    1UNL    H19   46   0.276   0.173   0.155
    1UNL    H20   47   0.375   0.048   0.256
    1UNL    H21   48   0.441   0.134   0.122
    1UNL    H22   49   0.516  -0.100   0.074
    1UNL    H23   50   0.195   0.165  -0.158
    1UNL    H24   51   0.107   0.009  -0.320
    1UNL    H25   52  -0.017   0.094  -0.244
    1UNL    H26   53  -0.054  -0.164  -0.238
   0.00000   0.00000   0.00000   0.00000   0.00000   0.00000   0.00000   0.00000   0.00000
Generated with MDTraj, t= 34.0
 53
    1UNL     C1    1   0.146   0.455   0.082
    1UNL     O1    2   0.153   0.337   0.009
    1UNL     C2    3   0.074   0.240   0.056
    1UNL     O2    4   0.004   0.266   0.150
    1UNL     C3    5   0.080   0.104  -0.006
    1UNL     C4    6  -0.029   0.024   0.025
    1UNL     N1    7  -0.143   0.056   0.099
    1UNL     C5    8  -0.255  -0.018   0.041
    1UNL     C6    9  -0.393   0.008   0.064
    1UNL     O3   10  -0.426   0.118   0.140
    1UNL     C7   11  -0.541   0.094   0.220
    1UNL     C8   12  -0.480  -0.084   0.005
    1UNL     C9   13  -0.428  -0.188  -0.071
    1UNL    C10   14  -0.295  -0.201  -0.101
    1UNL    C11   15  -0.202  -0.113  -0.042
    1UNL    C12   16  -0.051  -0.108  -0.039
    1UNL    C13   17   0.007  -0.219   0.053
    1UNL    C14   18   0.116  -0.292  -0.023
    1UNL     N2   19   0.138  -0.219  -0.148
    1UNL    C15   20   0.279  -0.156  -0.159
    1UNL    C16   21   0.298  -0.013  -0.091
    1UNL    C17   22   0.315  -0.044   0.059
    1UNL    C18   23   0.367   0.076   0.126
    1UNL     O4   24   0.402  -0.155   0.087
    1UNL    C19   25   0.165   0.077  -0.124
    1UNL    C20   26   0.070   0.012  -0.230
    1UNL    C21   27   0.027  -0.122  -0.172
    1UNL     H1   28   0.200   0.530   0.021
    1UNL     H2   29   0.043   0.482   0.105
    1UNL     H3   30   0.201   0.441   0.179
    1UNL     H4   31  -0.151   0.156   0.109
    1UNL     H5   32  -0.516   0.066   0.325
    1UNL     H6   33  -0.585   0.002   0.190
    1UNL     H7   34  -0.616   0.176   0.220
    1UNL     H8   35  -0.589  -0.064   0.016
    1UNL     H9   36  -0.509  -0.253  -0.108
    1UNL    H10   37  -0.256  -0.278  -0.162
    1UNL    H11   38   0.054  -0.175   0.145
    1UNL    H12   39  -0.080  -0.282   0.078
    1UNL    H13   40   0.208  -0.297   0.037
    1UNL    H14   41   0.085  -0.398  -0.044
    1UNL    H15   42   0.338  -0.240  -0.113
    1UNL    H16   43   0.292  -0.154  -0.271
    1UNL    H17   44   0.385   0.039  -0.135
    1UNL    H18   45   0.224  -0.063   0.098
    1UNL    H19   46   0.319   0.173   0.104
    1UNL    H20   47   0.370   0.068   0.236
    1UNL    H21   48   0.469   0.102   0.100
    1UNL    H22   49   0.496  -0.137   0.113
    1UNL    H23   50   0.193   0.166  -0.171
    1UNL    H24   51   0.115   0.009  -0.330
    1UNL    H25   52  -0.016   0.077  -0.253
    1UNL    H26   53  -0.041  -0.167  -0.243
   0.00000   0.00000   0.00000   0.00000   0.00000   0.00000   0.00000   0.00000   0.00000
Generated with MDTraj, t= 35.0
 53
    1UNL     C1    1   0.183   0.462   0.060
    1UNL     O1    2   0.179   0.327   0.009
    1UNL     C2    3   0.075   0.245   0.061
    1UNL     O2    4   0.009   0.287   0.155
    1UNL     C3    5   0.067   0.111  -0.001
    1UNL     C4    6  -0.034   0.025   0.037
    1UNL     N1    7  -0.152   0.057   0.095
    1UNL     C5    8  -0.255  -0.019   0.044
    1UNL     C6    9  -0.392  -0.004   0.057
    1UNL     O3   10  -0.434   0.099   0.138
    1UNL     C7   11  -0.543   0.074   0.218
    1UNL     C8   12  -0.478  -0.085  -0.008
    1UNL     C9   13  -0.433  -0.186  -0.089
    1UNL    C10   14  -0.301  -0.206  -0.104
    1UNL    C11   15  -0.208  -0.124  -0.035
    1UNL    C12   16  -0.050  -0.109  -0.026
    1UNL    C13   17   0.009  -0.223   0.062
    1UNL    C14   18   0.127  -0.287  -0.023
    1UNL     N2   19   0.140  -0.212  -0.154
    1UNL    C15   20   0.275  -0.143  -0.165
    1UNL    C16   21   0.278  -0.013  -0.082
    1UNL    C17   22   0.316  -0.029   0.060
    1UNL    C18   23   0.409   0.084   0.110
    1UNL     O4   24   0.368  -0.161   0.100
    1UNL    C19   25   0.153   0.079  -0.118
    1UNL    C20   26   0.062   0.014  -0.223
    1UNL    C21   27   0.015  -0.122  -0.165
    1UNL     H1   28   0.266   0.517   0.010
    1UNL     H2   29   0.087   0.510   0.044
    1UNL     H3   30   0.202   0.460   0.170
    1UNL     H4   31  -0.164   0.138   0.166
    1UNL     H5   32  -0.585  -0.024   0.198
    1UNL     H6   33  -0.618   0.137   0.186
    1UNL     H7   34  -0.520   0.083   0.327
    1UNL     H8   35  -0.579  -0.066  -0.003
    1UNL     H9   36  -0.501  -0.258  -0.135
    1UNL    H10   37  -0.267  -0.286  -0.170
    1UNL    H11   38   0.034  -0.180   0.164
    1UNL    H12   39  -0.077  -0.290   0.074
    1UNL    H13   40   0.223  -0.296   0.029
    1UNL    H14   41   0.101  -0.391  -0.053
    1UNL    H15   42   0.336  -0.224  -0.118
    1UNL    H16   43   0.292  -0.136  -0.276
    1UNL    H17   44   0.373   0.028  -0.126
    1UNL    H18   45   0.228  -0.022   0.114
    1UNL    H19   46   0.376   0.180   0.076
    1UNL    H20   47   0.422   0.082   0.218
    1UNL    H21   48   0.513   0.080   0.064
    1UNL    H22   49   0.462  -0.147   0.128
    1UNL    H23   50   0.206   0.161  -0.156
    1UNL    H24   51   0.115   0.003  -0.317
    1UNL    H25   52  -0.019   0.087  -0.245
    1UNL    H26   53  -0.049  -0.177  -0.232
   0.00000   0.00000   0.00000   0.00000   0.00000   0.00000   0.00000   0.00000   0.00000
Generated with MDTraj, t= 36.0
 53
    1UNL     C1    1   0.195   0.450   0.063
    1UNL     O1    2   0.200   0.316   0.027
    1UNL     C2    3   0.090   0.245   0.061
    1UNL     O2    4   0.007   0.278   0.143
    1UNL     C3    5   0.072   0.114  -0.009
    1UNL     C4    6  -0.030   0.034   0.033
    1UNL     N1    7  -0.152   0.080   0.082
    1UNL     C5    8  -0.260  -0.002   0.043
    1UNL     C6    9  -0.401  -0.004   0.064
    1UNL     O3   10  -0.453   0.100   0.151
    1UNL     C7   11  -0.563   0.054   0.219
    1UNL     C8   12  -0.476  -0.100  -0.002
    1UNL     C9   13  -0.423  -0.190  -0.086
    1UNL    C10   14  -0.286  -0.201  -0.099
    1UNL    C11   15  -0.206  -0.117  -0.027
    1UNL    C12   16  -0.053  -0.104  -0.026
    1UNL    C13   17   0.009  -0.222   0.058
    1UNL    C14   18   0.094  -0.301  -0.037
    1UNL     N2   19   0.132  -0.219  -0.147
    1UNL    C15   20   0.270  -0.159  -0.148
    1UNL    C16   21   0.279  -0.010  -0.089
    1UNL    C17   22   0.319  -0.021   0.060
    1UNL    C18   23   0.398   0.100   0.117
    1UNL     O4   24   0.389  -0.142   0.089
    1UNL    C19   25   0.152   0.081  -0.125
    1UNL    C20   26   0.071   0.010  -0.229
    1UNL    C21   27   0.017  -0.121  -0.167
    1UNL     H1   28   0.297   0.489   0.046
    1UNL     H2   29   0.123   0.501   0.001
    1UNL     H3   30   0.170   0.463   0.169
    1UNL     H4   31  -0.167   0.183   0.112
    1UNL     H5   32  -0.644   0.058   0.147
    1UNL     H6   33  -0.590   0.117   0.294
    1UNL     H7   34  -0.547  -0.052   0.251
    1UNL     H8   35  -0.587  -0.113   0.012
    1UNL     H9   36  -0.483  -0.256  -0.140
    1UNL    H10   37  -0.246  -0.278  -0.158
    1UNL    H11   38   0.077  -0.174   0.137
    1UNL    H12   39  -0.066  -0.277   0.115
    1UNL    H13   40   0.185  -0.344   0.007
    1UNL    H14   41   0.052  -0.392  -0.088
    1UNL    H15   42   0.326  -0.242  -0.097
    1UNL    H16   43   0.283  -0.152  -0.260
    1UNL    H17   44   0.362   0.038  -0.151
    1UNL    H18   45   0.229  -0.034   0.112
    1UNL    H19   46   0.331   0.181   0.104
    1UNL    H20   47   0.432   0.082   0.218
    1UNL    H21   48   0.480   0.122   0.039
    1UNL    H22   49   0.408  -0.153   0.186
    1UNL    H23   50   0.192   0.168  -0.166
    1UNL    H24   51   0.141  -0.018  -0.307
    1UNL    H25   52  -0.008   0.075  -0.269
    1UNL    H26   53  -0.051  -0.172  -0.233
   0.00000   0.00000   0.00000   0.00000   0.00000   0.00000   0.00000   0.00000   0.00000
Generated with MDTraj, t= 37.0
 53
    1UNL     C1    1   0.203   0.434   0.092
    1UNL     O1    2   0.191   0.325   0.011
    1UNL     C2    3   0.079   0.246   0.052
    1UNL     O2    4  -0.013   0.277   0.129
    1UNL     C3    5   0.076   0.112  -0.010
    1UNL     C4    6  -0.037   0.045   0.015
    1UNL     N1    7  -0.164   0.081   0.068
    1UNL     C5    8  -0.265  -0.015   0.036
    1UNL     C6    9  -0.408  -0.010   0.073
    1UNL     O3   10  -0.434   0.092   0.161
    1UNL     C7   11  -0.563   0.082   0.228
    1UNL     C8   12  -0.485  -0.113   0.017
    1UNL     C9   13  -0.424  -0.200  -0.073
    1UNL    C10   14  -0.289  -0.198  -0.105
    1UNL    C11   15  -0.209  -0.108  -0.051
    1UNL    C12   16  -0.058  -0.096  -0.039
    1UNL    C13   17  -0.006  -0.211   0.049
    1UNL    C14   18   0.084  -0.294  -0.031
    1UNL     N2   19   0.127  -0.210  -0.144
    1UNL    C15   20   0.271  -0.165  -0.146
    1UNL    C16   21   0.289  -0.024  -0.081
    1UNL    C17   22   0.328  -0.036   0.061
    1UNL    C18   23   0.374   0.096   0.129
    1UNL     O4   24   0.431  -0.136   0.088
    1UNL    C19   25   0.174   0.079  -0.119
    1UNL    C20   26   0.091   0.008  -0.232
    1UNL    C21   27   0.019  -0.113  -0.171
    1UNL     H1   28   0.289   0.493   0.060
    1UNL     H2   29   0.112   0.492   0.087
    1UNL     H3   30   0.223   0.405   0.195
    1UNL     H4   31  -0.180   0.169   0.119
    1UNL     H5   32  -0.641   0.099   0.157
    1UNL     H6   33  -0.575   0.150   0.304
    1UNL     H7   34  -0.578  -0.024   0.261
    1UNL     H8   35  -0.589  -0.113   0.018
    1UNL     H9   36  -0.488  -0.286  -0.115
    1UNL    H10   37  -0.255  -0.278  -0.174
    1UNL    H11   38   0.044  -0.175   0.146
    1UNL    H12   39  -0.091  -0.275   0.075
    1UNL    H13   40   0.178  -0.326   0.017
    1UNL    H14   41   0.049  -0.393  -0.068
    1UNL    H15   42   0.323  -0.241  -0.081
    1UNL    H16   43   0.281  -0.164  -0.259
    1UNL    H17   44   0.381   0.026  -0.128
    1UNL    H18   45   0.247  -0.073   0.122
    1UNL    H19   46   0.313   0.183   0.101
    1UNL    H20   47   0.373   0.078   0.236
    1UNL    H21   48   0.474   0.124   0.089
    1UNL    H22   49   0.510  -0.089   0.122
    1UNL    H23   50   0.211   0.166  -0.164
    1UNL    H24   51   0.155  -0.036  -0.307
    1UNL    H25   52   0.012   0.071  -0.273
    1UNL    H26   53  -0.050  -0.165  -0.237
   0.00000   0.00000   0.00000   0.00000   0.00000   0.00000   0.00000   0.00000   0.00000
Generated with MDTraj, t= 38.0
 53
    1UNL     C1    1   0.187   0.454   0.085
    1UNL     O1    2   0.195   0.321   0.034
    1UNL     C2    3   0.088   0.241   0.056
    1UNL     O2    4  -0.001   0.276   0.130
    1UNL     C3    5   0.073   0.109  -0.012
    1UNL     C4    6  -0.028   0.029   0.024
    1UNL     N1    7  -0.151   0.063   0.087
    1UNL     C5    8  -0.260  -0.014   0.042
    1UNL     C6    9  -0.394  -0.011   0.073
    1UNL     O3   10  -0.425   0.092   0.161
    1UNL     C7   11  -0.558   0.109   0.206
    1UNL     C8   12  -0.480  -0.103   0.014
    1UNL     C9   13  -0.433  -0.206  -0.060
    1UNL    C10   14  -0.297  -0.211  -0.096
    1UNL    C11   15  -0.216  -0.110  -0.041
    1UNL    C12   16  -0.061  -0.106  -0.045
    1UNL    C13   17  -0.022  -0.229   0.037
    1UNL    C14   18   0.100  -0.292  -0.026
    1UNL     N2   19   0.135  -0.212  -0.151
    1UNL    C15   20   0.271  -0.157  -0.158
    1UNL    C16   21   0.290  -0.021  -0.087
    1UNL    C17   22   0.320  -0.035   0.063
    1UNL    C18   23   0.343   0.099   0.135
    1UNL     O4   24   0.424  -0.130   0.086
    1UNL    C19   25   0.174   0.074  -0.120
    1UNL    C20   26   0.087   0.014  -0.236
    1UNL    C21   27   0.025  -0.119  -0.185
    1UNL     H1   28   0.261   0.514   0.033
    1UNL     H2   29   0.092   0.495   0.057
    1UNL     H3   30   0.205   0.466   0.191
    1UNL     H4   31  -0.167   0.159   0.102
    1UNL     H5   32  -0.631   0.153   0.137
    1UNL     H6   33  -0.551   0.178   0.286
    1UNL     H7   34  -0.593   0.009   0.245
    1UNL     H8   35  -0.585  -0.090   0.036
    1UNL     H9   36  -0.499  -0.270  -0.105
    1UNL    H10   37  -0.260  -0.294  -0.152
    1UNL    H11   38   0.001  -0.197   0.142
    1UNL    H12   39  -0.103  -0.306   0.028
    1UNL    H13   40   0.190  -0.302   0.036
    1UNL    H14   41   0.090  -0.394  -0.070
    1UNL    H15   42   0.326  -0.237  -0.102
    1UNL    H16   43   0.282  -0.142  -0.270
    1UNL    H17   44   0.383   0.029  -0.131
    1UNL    H18   45   0.237  -0.094   0.112
    1UNL    H19   46   0.253   0.162   0.166
    1UNL    H20   47   0.394   0.085   0.232
    1UNL    H21   48   0.395   0.171   0.077
    1UNL    H22   49   0.510  -0.083   0.083
    1UNL    H23   50   0.212   0.169  -0.148
    1UNL    H24   51   0.152  -0.010  -0.318
    1UNL    H25   52  -0.001   0.072  -0.264
    1UNL    H26   53  -0.033  -0.173  -0.259
   0.00000   0.00000   0.00000   0.00000   0.00000   0.00000   0.00000   0.00000   0.00000
Generated with MDTraj, t= 39.0
 53
    1UNL     C1    1   0.179   0.452   0.066
    1UNL     O1    2   0.164   0.326   0.001
    1UNL     C2    3   0.070   0.238   0.060
    1UNL     O2    4  -0.007   0.274   0.147
    1UNL     C3    5   0.071   0.108   0.002
    1UNL     C4    6  -0.026   0.018   0.038
    1UNL     N1    7  -0.146   0.051   0.109
    1UNL     C5    8  -0.253  -0.032   0.064
    1UNL     C6    9  -0.391  -0.006   0.079
    1UNL     O3   10  -0.424   0.101   0.165
    1UNL     C7   11  -0.560   0.134   0.171
    1UNL     C8   12  -0.477  -0.087   0.004
    1UNL     C9   13  -0.430  -0.181  -0.089
    1UNL    C10   14  -0.294  -0.207  -0.099
    1UNL    C11   15  -0.202  -0.128  -0.027
    1UNL    C12   16  -0.048  -0.120  -0.029
    1UNL    C13   17   0.015  -0.230   0.056
    1UNL    C14   18   0.118  -0.301  -0.035
    1UNL     N2   19   0.147  -0.212  -0.157
    1UNL    C15   20   0.277  -0.140  -0.167
    1UNL    C16   21   0.284  -0.001  -0.093
    1UNL    C17   22   0.313  -0.036   0.064
    1UNL    C18   23   0.367   0.076   0.146
    1UNL     O4   24   0.404  -0.144   0.074
    1UNL    C19   25   0.157   0.084  -0.126
    1UNL    C20   26   0.067   0.014  -0.222
    1UNL    C21   27   0.022  -0.124  -0.166
    1UNL     H1   28   0.280   0.497   0.063
    1UNL     H2   29   0.112   0.522   0.015
    1UNL     H3   30   0.154   0.444   0.172
    1UNL     H4   31  -0.154   0.122   0.178
    1UNL     H5   32  -0.614   0.147   0.076
    1UNL     H6   33  -0.576   0.223   0.233
    1UNL     H7   34  -0.603   0.044   0.222
    1UNL     H8   35  -0.581  -0.053   0.012
    1UNL     H9   36  -0.498  -0.245  -0.150
    1UNL    H10   37  -0.253  -0.286  -0.158
    1UNL    H11   38   0.069  -0.190   0.143
    1UNL    H12   39  -0.068  -0.304   0.078
    1UNL    H13   40   0.215  -0.333   0.005
    1UNL    H14   41   0.074  -0.389  -0.082
    1UNL    H15   42   0.357  -0.205  -0.129
    1UNL    H16   43   0.285  -0.122  -0.278
    1UNL    H17   44   0.370   0.051  -0.147
    1UNL    H18   45   0.213  -0.084   0.097
    1UNL    H19   46   0.313   0.171   0.134
    1UNL    H20   47   0.371   0.049   0.255
    1UNL    H21   48   0.463   0.098   0.107
    1UNL    H22   49   0.471  -0.139   0.002
    1UNL    H23   50   0.178   0.184  -0.153
    1UNL    H24   51   0.107   0.002  -0.320
    1UNL    H25   52  -0.024   0.072  -0.225
    1UNL    H26   53  -0.041  -0.173  -0.240
   0.00000   0.00000   0.00000   0.00000   0.00000   0.00000   0.00000   0.00000   0.00000
Generated with MDTraj, t= 40.0
 53
    1UNL     C1    1   0.129   0.459   0.063
    1UNL     O1    2   0.156   0.331   0.021
    1UNL     C2    3   0.078   0.236   0.076
    1UNL     O2    4   0.006   0.268   0.166
    1UNL     C3    5   0.081   0.107   0.022
    1UNL     C4    6  -0.020   0.013   0.052
    1UNL     N1    7  -0.138   0.057   0.110
    1UNL     C5    8  -0.241  -0.020   0.055
    1UNL     C6    9  -0.380  -0.005   0.076
    1UNL     O3   10  -0.430   0.092   0.165
    1UNL     C7   11  -0.556   0.152   0.140
    1UNL     C8   12  -0.466  -0.086   0.004
    1UNL     C9   13  -0.413  -0.181  -0.088
    1UNL    C10   14  -0.278  -0.196  -0.110
    1UNL    C11   15  -0.192  -0.119  -0.030
    1UNL    C12   16  -0.042  -0.119  -0.019
    1UNL    C13   17   0.018  -0.238   0.059
    1UNL    C14   18   0.122  -0.305  -0.029
    1UNL     N2   19   0.135  -0.215  -0.153
    1UNL    C15   20   0.266  -0.152  -0.184
    1UNL    C16   21   0.282  -0.018  -0.105
    1UNL    C17   22   0.316  -0.037   0.048
    1UNL    C18   23   0.387   0.087   0.106
    1UNL     O4   24   0.391  -0.155   0.076
    1UNL    C19   25   0.155   0.078  -0.115
    1UNL    C20   26   0.041   0.023  -0.213
    1UNL    C21   27   0.013  -0.128  -0.161
    1UNL     H1   28   0.171   0.529  -0.013
    1UNL     H2   29   0.019   0.476   0.061
    1UNL     H3   30   0.181   0.479   0.159
    1UNL     H4   31  -0.170   0.143   0.164
    1UNL     H5   32  -0.576   0.172   0.034
    1UNL     H6   33  -0.549   0.245   0.204
    1UNL     H7   34  -0.639   0.084   0.172
    1UNL     H8   35  -0.568  -0.084   0.021
    1UNL     H9   36  -0.486  -0.247  -0.130
    1UNL    H10   37  -0.237  -0.274  -0.180
    1UNL    H11   38   0.067  -0.197   0.146
    1UNL    H12   39  -0.057  -0.322   0.077
    1UNL    H13   40   0.225  -0.303   0.008
    1UNL    H14   41   0.107  -0.410  -0.057
    1UNL    H15   42   0.345  -0.223  -0.154
    1UNL    H16   43   0.259  -0.124  -0.291
    1UNL    H17   44   0.374   0.025  -0.157
    1UNL    H18   45   0.212  -0.046   0.100
    1UNL    H19   46   0.328   0.176   0.104
    1UNL    H20   47   0.404   0.055   0.212
    1UNL    H21   48   0.481   0.098   0.052
    1UNL    H22   49   0.376  -0.185   0.169
    1UNL    H23   50   0.189   0.174  -0.143
    1UNL    H24   51   0.077   0.025  -0.313
    1UNL    H25   52  -0.050   0.078  -0.210
    1UNL    H26   53  -0.054  -0.182  -0.228
   0.00000   0.00000   0.00000   0.00000   0.00000   0.00000   0.00000   0.00000   0.00000
Generated with MDTraj, t= 41.0
 53
    1UNL     C1    1   0.131   0.454   0.080
    1UNL     O1    2   0.138   0.335   0.004
    1UNL     C2    3   0.073   0.239   0.071
    1UNL     O2    4   0.029   0.250   0.184
    1UNL     C3    5   0.071   0.105   0.007
    1UNL     C4    6  -0.028   0.014   0.030
    1UNL     N1    7  -0.142   0.043   0.101
    1UNL     C5    8  -0.259  -0.031   0.053
    1UNL     C6    9  -0.392  -0.005   0.080
    1UNL     O3   10  -0.433   0.103   0.165
    1UNL     C7   11  -0.549   0.181   0.124
    1UNL     C8   12  -0.483  -0.091   0.018
    1UNL     C9   13  -0.433  -0.200  -0.063
    1UNL    C10   14  -0.297  -0.216  -0.091
    1UNL    C11   15  -0.212  -0.130  -0.029
    1UNL    C12   16  -0.057  -0.120  -0.040
    1UNL    C13   17   0.014  -0.224   0.046
    1UNL    C14   18   0.110  -0.302  -0.042
    1UNL     N2   19   0.131  -0.215  -0.168
    1UNL    C15   20   0.277  -0.145  -0.165
    1UNL    C16   21   0.290  -0.010  -0.091
    1UNL    C17   22   0.343  -0.031   0.060
    1UNL    C18   23   0.410   0.092   0.122
    1UNL     O4   24   0.424  -0.150   0.081
    1UNL    C19   25   0.157   0.075  -0.116
    1UNL    C20   26   0.059   0.016  -0.215
    1UNL    C21   27   0.013  -0.123  -0.179
    1UNL     H1   28   0.170   0.543   0.026
    1UNL     H2   29   0.022   0.467   0.094
    1UNL     H3   30   0.188   0.439   0.171
    1UNL     H4   31  -0.161   0.142   0.141
    1UNL     H5   32  -0.513   0.229   0.032
    1UNL     H6   33  -0.564   0.260   0.207
    1UNL     H7   34  -0.638   0.127   0.088
    1UNL     H8   35  -0.594  -0.087   0.035
    1UNL     H9   36  -0.497  -0.279  -0.099
    1UNL    H10   37  -0.253  -0.284  -0.154
    1UNL    H11   38   0.069  -0.171   0.120
    1UNL    H12   39  -0.061  -0.301   0.087
    1UNL    H13   40   0.203  -0.324   0.012
    1UNL    H14   41   0.079  -0.400  -0.078
    1UNL    H15   42   0.344  -0.216  -0.112
    1UNL    H16   43   0.306  -0.125  -0.270
    1UNL    H17   44   0.379   0.046  -0.135
    1UNL    H18   45   0.246  -0.041   0.125
    1UNL    H19   46   0.337   0.170   0.130
    1UNL    H20   47   0.442   0.069   0.224
    1UNL    H21   48   0.497   0.131   0.063
    1UNL    H22   49   0.511  -0.125   0.120
    1UNL    H23   50   0.178   0.173  -0.157
    1UNL    H24   51   0.095   0.020  -0.316
    1UNL    H25   52  -0.026   0.080  -0.220
    1UNL    H26   53  -0.056  -0.154  -0.258
   0.00000   0.00000   0.00000   0.00000   0.00000   0.00000   0.00000   0.00000   0.00000
Generated with MDTraj, t= 42.0
 53
    1UNL     C1    1   0.145   0.454   0.093
    1UNL     O1    2   0.164   0.329   0.021
    1UNL     C2    3   0.085   0.235   0.081
    1UNL     O2    4   0.016   0.253   0.180
    1UNL     C3    5   0.081   0.105   0.014
    1UNL     C4    6  -0.022   0.024   0.035
    1UNL     N1    7  -0.138   0.041   0.108
    1UNL     C5    8  -0.247  -0.026   0.054
    1UNL     C6    9  -0.385  -0.009   0.082
    1UNL     O3   10  -0.431   0.102   0.158
    1UNL     C7   11  -0.536   0.180   0.105
    1UNL     C8   12  -0.471  -0.108   0.028
    1UNL     C9   13  -0.425  -0.208  -0.056
    1UNL    C10   14  -0.288  -0.217  -0.089
    1UNL    C11   15  -0.207  -0.120  -0.039
    1UNL    C12   16  -0.058  -0.110  -0.040
    1UNL    C13   17  -0.006  -0.230   0.041
    1UNL    C14   18   0.093  -0.310  -0.047
    1UNL     N2   19   0.129  -0.219  -0.153
    1UNL    C15   20   0.267  -0.159  -0.161
    1UNL    C16   21   0.284  -0.022  -0.101
    1UNL    C17   22   0.326  -0.027   0.056
    1UNL    C18   23   0.363   0.104   0.127
    1UNL     O4   24   0.437  -0.117   0.069
    1UNL    C19   25   0.153   0.074  -0.117
    1UNL    C20   26   0.052   0.019  -0.229
    1UNL    C21   27   0.011  -0.122  -0.179
    1UNL     H1   28   0.203   0.535   0.047
    1UNL     H2   29   0.038   0.475   0.081
    1UNL     H3   30   0.179   0.438   0.193
    1UNL     H4   31  -0.145   0.135   0.151
    1UNL     H5   32  -0.533   0.159  -0.001
    1UNL     H6   33  -0.495   0.288   0.124
    1UNL     H7   34  -0.637   0.162   0.141
    1UNL     H8   35  -0.572  -0.093   0.053
    1UNL     H9   36  -0.501  -0.280  -0.093
    1UNL    H10   37  -0.253  -0.298  -0.160
    1UNL    H11   38   0.038  -0.187   0.128
    1UNL    H12   39  -0.093  -0.294   0.076
    1UNL    H13   40   0.185  -0.353  -0.002
    1UNL    H14   41   0.043  -0.401  -0.079
    1UNL    H15   42   0.325  -0.233  -0.104
    1UNL    H16   43   0.291  -0.165  -0.268
    1UNL    H17   44   0.374   0.029  -0.145
    1UNL    H18   45   0.235  -0.079   0.107
    1UNL    H19   46   0.299   0.186   0.098
    1UNL    H20   47   0.352   0.100   0.232
    1UNL    H21   48   0.468   0.144   0.110
    1UNL    H22   49   0.503  -0.112  -0.003
    1UNL    H23   50   0.179   0.170  -0.158
    1UNL    H24   51   0.109   0.017  -0.320
    1UNL    H25   52  -0.032   0.077  -0.260
    1UNL    H26   53  -0.047  -0.172  -0.258
   0.00000   0.00000   0.00000   0.00000   0.00000   0.00000   0.00000   0.00000   0.00000
Generated with MDTraj, t= 43.0
 53
    1UNL     C1    1   0.186   0.435   0.097
    1UNL     O1    2   0.164   0.318   0.016
    1UNL     C2    3   0.064   0.239   0.071
    1UNL     O2    4  -0.017   0.275   0.157
    1UNL     C3    5   0.071   0.099   0.018
    1UNL     C4    6  -0.032   0.016   0.039
    1UNL     N1    7  -0.150   0.053   0.098
    1UNL     C5    8  -0.249  -0.032   0.066
    1UNL     C6    9  -0.391  -0.007   0.080
    1UNL     O3   10  -0.436   0.103   0.163
    1UNL     C7   11  -0.549   0.160   0.112
    1UNL     C8   12  -0.479  -0.088   0.008
    1UNL     C9   13  -0.432  -0.195  -0.066
    1UNL    C10   14  -0.292  -0.212  -0.083
    1UNL    C11   15  -0.205  -0.133  -0.017
    1UNL    C12   16  -0.055  -0.122  -0.027
    1UNL    C13   17   0.019  -0.233   0.058
    1UNL    C14   18   0.115  -0.297  -0.043
    1UNL     N2   19   0.137  -0.212  -0.159
    1UNL    C15   20   0.282  -0.146  -0.176
    1UNL    C16   21   0.284  -0.012  -0.099
    1UNL    C17   22   0.325  -0.030   0.048
    1UNL    C18   23   0.372   0.098   0.118
    1UNL     O4   24   0.426  -0.135   0.063
    1UNL    C19   25   0.153   0.082  -0.110
    1UNL    C20   26   0.058   0.019  -0.214
    1UNL    C21   27   0.016  -0.125  -0.170
    1UNL     H1   28   0.284   0.475   0.072
    1UNL     H2   29   0.107   0.506   0.075
    1UNL     H3   30   0.191   0.398   0.198
    1UNL     H4   31  -0.157   0.145   0.127
    1UNL     H5   32  -0.530   0.171   0.008
    1UNL     H6   33  -0.560   0.263   0.165
    1UNL     H7   34  -0.632   0.097   0.133
    1UNL     H8   35  -0.585  -0.076   0.024
    1UNL     H9   36  -0.487  -0.258  -0.130
    1UNL    H10   37  -0.254  -0.294  -0.141
    1UNL    H11   38   0.070  -0.196   0.148
    1UNL    H12   39  -0.063  -0.295   0.099
    1UNL    H13   40   0.207  -0.328   0.007
    1UNL    H14   41   0.080  -0.393  -0.080
    1UNL    H15   42   0.350  -0.223  -0.138
    1UNL    H16   43   0.302  -0.136  -0.283
    1UNL    H17   44   0.372   0.039  -0.143
    1UNL    H18   45   0.226  -0.069   0.098
    1UNL    H19   46   0.289   0.151   0.170
    1UNL    H20   47   0.434   0.060   0.195
    1UNL    H21   48   0.429   0.167   0.053
    1UNL    H22   49   0.502  -0.108   0.006
    1UNL    H23   50   0.184   0.181  -0.144
    1UNL    H24   51   0.099   0.024  -0.312
    1UNL    H25   52  -0.024   0.084  -0.226
    1UNL    H26   53  -0.058  -0.168  -0.239
   0.00000   0.00000   0.00000   0.00000   0.00000   0.00000   0.00000   0.00000   0.00000
Generated with MDTraj, t= 44.0
 53
    1UNL     C1    1   0.181   0.444   0.089
    1UNL     O1    2   0.196   0.316   0.050
    1UNL     C2    3   0.085   0.244   0.075
    1UNL     O2    4  -0.009   0.278   0.146
    1UNL     C3    5   0.073   0.109   0.007
    1UNL     C4    6  -0.033   0.025   0.040
    1UNL     N1    7  -0.152   0.062   0.097
    1UNL     C5    8  -0.252  -0.031   0.068
    1UNL     C6    9  -0.391  -0.007   0.073
    1UNL     O3   10  -0.433   0.103   0.146
    1UNL     C7   11  -0.569   0.123   0.138
    1UNL     C8   12  -0.478  -0.089   0.001
    1UNL     C9   13  -0.426  -0.188  -0.079
    1UNL    C10   14  -0.288  -0.209  -0.087
    1UNL    C11   15  -0.202  -0.126  -0.026
    1UNL    C12   16  -0.056  -0.116  -0.021
    1UNL    C13   17   0.005  -0.244   0.066
    1UNL    C14   18   0.130  -0.288  -0.011
    1UNL     N2   19   0.140  -0.215  -0.140
    1UNL    C15   20   0.267  -0.141  -0.179
    1UNL    C16   21   0.284  -0.003  -0.111
    1UNL    C17   22   0.327  -0.029   0.038
    1UNL    C18   23   0.381   0.093   0.112
    1UNL     O4   24   0.395  -0.150   0.049
    1UNL    C19   25   0.147   0.082  -0.120
    1UNL    C20   26   0.052   0.012  -0.215
    1UNL    C21   27   0.020  -0.126  -0.161
    1UNL     H1   28   0.267   0.485   0.034
    1UNL     H2   29   0.088   0.489   0.049
    1UNL     H3   30   0.201   0.448   0.196
    1UNL     H4   31  -0.177   0.155   0.130
    1UNL     H5   32  -0.597   0.158   0.042
    1UNL     H6   33  -0.596   0.197   0.220
    1UNL     H7   34  -0.609   0.031   0.171
    1UNL     H8   35  -0.584  -0.067  -0.011
    1UNL     H9   36  -0.496  -0.246  -0.144
    1UNL    H10   37  -0.246  -0.291  -0.142
    1UNL    H11   38   0.031  -0.207   0.167
    1UNL    H12   39  -0.057  -0.330   0.079
    1UNL    H13   40   0.218  -0.278   0.055
    1UNL    H14   41   0.125  -0.395  -0.025
    1UNL    H15   42   0.347  -0.211  -0.149
    1UNL    H16   43   0.269  -0.133  -0.286
    1UNL    H17   44   0.372   0.036  -0.161
    1UNL    H18   45   0.226  -0.062   0.088
    1UNL    H19   46   0.323   0.178   0.072
    1UNL    H20   47   0.360   0.085   0.218
    1UNL    H21   48   0.483   0.104   0.091
    1UNL    H22   49   0.491  -0.134   0.030
    1UNL    H23   50   0.177   0.177  -0.170
    1UNL    H24   51   0.093   0.006  -0.312
    1UNL    H25   52  -0.031   0.075  -0.230
    1UNL    H26   53  -0.043  -0.192  -0.224
   0.00000   0.00000   0.00000   0.00000   0.00000   0.00000   0.00000   0.00000   0.00000
Generated with MDTraj, t= 45.0
 53
    1UNL     C1    1   0.181   0.447   0.097
    1UNL     O1    2   0.177   0.327   0.010
    1UNL     C2    3   0.076   0.242   0.063
    1UNL     O2    4   0.001   0.270   0.160
    1UNL     C3    5   0.071   0.111  -0.003
    1UNL     C4    6  -0.038   0.031   0.036
    1UNL     N1    7  -0.151   0.070   0.093
    1UNL     C5    8  -0.255  -0.024   0.054
    1UNL     C6    9  -0.397  -0.003   0.065
    1UNL     O3   10  -0.435   0.108   0.142
    1UNL     C7   11  -0.572   0.104   0.179
    1UNL     C8   12  -0.484  -0.098   0.003
    1UNL     C9   13  -0.428  -0.197  -0.083
    1UNL    C10   14  -0.295  -0.211  -0.096
    1UNL    C11   15  -0.211  -0.127  -0.023
    1UNL    C12   16  -0.061  -0.105  -0.026
    1UNL    C13   17   0.001  -0.227   0.056
    1UNL    C14   18   0.106  -0.299  -0.033
    1UNL     N2   19   0.133  -0.211  -0.146
    1UNL    C15   20   0.271  -0.152  -0.160
    1UNL    C16   21   0.292  -0.017  -0.094
    1UNL    C17   22   0.328  -0.028   0.059
    1UNL    C18   23   0.414   0.094   0.107
    1UNL     O4   24   0.401  -0.150   0.081
    1UNL    C19   25   0.167   0.079  -0.119
    1UNL    C20   26   0.074   0.016  -0.230
    1UNL    C21   27   0.016  -0.115  -0.171
    1UNL     H1   28   0.273   0.509   0.082
    1UNL     H2   29   0.093   0.513   0.079
    1UNL     H3   30   0.176   0.407   0.198
    1UNL     H4   31  -0.178   0.164   0.132
    1UNL     H5   32  -0.642   0.112   0.098
    1UNL     H6   33  -0.598   0.179   0.259
    1UNL     H7   34  -0.573   0.015   0.236
    1UNL     H8   35  -0.586  -0.103   0.029
    1UNL     H9   36  -0.495  -0.256  -0.132
    1UNL    H10   37  -0.249  -0.271  -0.174
    1UNL    H11   38   0.045  -0.195   0.155
    1UNL    H12   39  -0.080  -0.291   0.072
    1UNL    H13   40   0.196  -0.304   0.030
    1UNL    H14   41   0.079  -0.401  -0.053
    1UNL    H15   42   0.342  -0.227  -0.121
    1UNL    H16   43   0.286  -0.131  -0.264
    1UNL    H17   44   0.384   0.018  -0.137
    1UNL    H18   45   0.231  -0.043   0.122
    1UNL    H19   46   0.368   0.188   0.127
    1UNL    H20   47   0.472   0.066   0.198
    1UNL    H21   48   0.489   0.102   0.036
    1UNL    H22   49   0.498  -0.133   0.090
    1UNL    H23   50   0.212   0.174  -0.158
    1UNL    H24   51   0.122   0.005  -0.323
    1UNL    H25   52  -0.002   0.083  -0.260
    1UNL    H26   53  -0.051  -0.179  -0.231
   0.00000   0.00000   0.00000   0.00000   0.00000   0.00000   0.00000   0.00000   0.00000
Generated with MDTraj, t= 46.0
 53
    1UNL     C1    1   0.167   0.443   0.076
    1UNL     O1    2   0.184   0.316   0.016
    1UNL     C2    3   0.090   0.236   0.063
    1UNL     O2    4   0.016   0.260   0.159
    1UNL     C3    5   0.080   0.106   0.000
    1UNL     C4    6  -0.032   0.033   0.036
    1UNL     N1    7  -0.153   0.075   0.072
    1UNL     C5    8  -0.262  -0.008   0.034
    1UNL     C6    9  -0.395  -0.003   0.071
    1UNL     O3   10  -0.435   0.105   0.149
    1UNL     C7   11  -0.556   0.088   0.213
    1UNL     C8   12  -0.476  -0.102   0.013
    1UNL     C9   13  -0.427  -0.196  -0.076
    1UNL    C10   14  -0.292  -0.207  -0.095
    1UNL    C11   15  -0.208  -0.102  -0.047
    1UNL    C12   16  -0.060  -0.100  -0.039
    1UNL    C13   17  -0.004  -0.225   0.043
    1UNL    C14   18   0.080  -0.307  -0.053
    1UNL     N2   19   0.123  -0.218  -0.167
    1UNL    C15   20   0.263  -0.166  -0.143
    1UNL    C16   21   0.293  -0.022  -0.080
    1UNL    C17   22   0.327  -0.029   0.075
    1UNL    C18   23   0.374   0.107   0.114
    1UNL     O4   24   0.417  -0.124   0.112
    1UNL    C19   25   0.170   0.074  -0.116
    1UNL    C20   26   0.086   0.010  -0.236
    1UNL    C21   27   0.018  -0.111  -0.184
    1UNL     H1   28   0.228   0.516   0.017
    1UNL     H2   29   0.060   0.475   0.070
    1UNL     H3   30   0.193   0.440   0.181
    1UNL     H4   31  -0.178   0.176   0.101
    1UNL     H5   32  -0.644   0.102   0.149
    1UNL     H6   33  -0.567   0.162   0.296
    1UNL     H7   34  -0.547  -0.001   0.272
    1UNL     H8   35  -0.581  -0.104   0.046
    1UNL     H9   36  -0.496  -0.273  -0.123
    1UNL    H10   37  -0.248  -0.279  -0.161
    1UNL    H11   38   0.057  -0.191   0.130
    1UNL    H12   39  -0.089  -0.274   0.080
    1UNL    H13   40   0.159  -0.365   0.000
    1UNL    H14   41   0.021  -0.388  -0.095
    1UNL    H15   42   0.308  -0.238  -0.072
    1UNL    H16   43   0.304  -0.172  -0.242
    1UNL    H17   44   0.381   0.017  -0.124
    1UNL    H18   45   0.228  -0.051   0.129
    1UNL    H19   46   0.313   0.185   0.082
    1UNL    H20   47   0.394   0.125   0.221
    1UNL    H21   48   0.471   0.120   0.071
    1UNL    H22   49   0.510  -0.093   0.111
    1UNL    H23   50   0.211   0.176  -0.147
    1UNL    H24   51   0.143  -0.003  -0.324
    1UNL    H25   52   0.015   0.079  -0.273
    1UNL    H26   53  -0.054  -0.147  -0.259
   0.00000   0.00000   0.00000   0.00000   0.00000   0.00000   0.00000   0.00000   0.00000
Generated with MDTraj, t= 47.0
 53
    1UNL     C1    1   0.168   0.453   0.066
    1UNL     O1    2   0.166   0.337  -0.004
    1UNL     C2    3   0.078   0.248   0.052
    1UNL     O2    4   0.008   0.278   0.148
    1UNL     C3    5   0.070   0.113  -0.005
    1UNL     C4    6  -0.035   0.029   0.019
    1UNL     N1    7  -0.149   0.068   0.083
    1UNL     C5    8  -0.253  -0.007   0.034
    1UNL     C6    9  -0.392   0.001   0.070
    1UNL     O3   10  -0.423   0.097   0.166
    1UNL     C7   11  -0.544   0.081   0.231
    1UNL     C8   12  -0.480  -0.092   0.006
    1UNL     C9   13  -0.431  -0.187  -0.079
    1UNL    C10   14  -0.297  -0.192  -0.113
    1UNL    C11   15  -0.205  -0.105  -0.059
    1UNL    C12   16  -0.057  -0.113  -0.045
    1UNL    C13   17  -0.009  -0.238   0.041
    1UNL    C14   18   0.089  -0.311  -0.042
    1UNL     N2   19   0.134  -0.213  -0.151
    1UNL    C15   20   0.272  -0.160  -0.136
    1UNL    C16   21   0.285  -0.020  -0.068
    1UNL    C17   22   0.319  -0.041   0.081
    1UNL    C18   23   0.367   0.093   0.144
    1UNL     O4   24   0.419  -0.146   0.096
    1UNL    C19   25   0.170   0.074  -0.116
    1UNL    C20   26   0.094   0.007  -0.232
    1UNL    C21   27   0.019  -0.117  -0.184
    1UNL     H1   28   0.235   0.524   0.018
    1UNL     H2   29   0.069   0.500   0.059
    1UNL     H3   30   0.185   0.435   0.170
    1UNL     H4   31  -0.158   0.149   0.148
    1UNL     H5   32  -0.622   0.120   0.163
    1UNL     H6   33  -0.550   0.145   0.320
    1UNL     H7   34  -0.563  -0.019   0.269
    1UNL     H8   35  -0.580  -0.082   0.040
    1UNL     H9   36  -0.494  -0.263  -0.111
    1UNL    H10   37  -0.259  -0.264  -0.188
    1UNL    H11   38   0.027  -0.191   0.131
    1UNL    H12   39  -0.092  -0.302   0.067
    1UNL    H13   40   0.171  -0.360   0.016
    1UNL    H14   41   0.042  -0.393  -0.094
    1UNL    H15   42   0.321  -0.233  -0.071
    1UNL    H16   43   0.317  -0.147  -0.233
    1UNL    H17   44   0.371   0.023  -0.112
    1UNL    H18   45   0.220  -0.069   0.128
    1UNL    H19   46   0.291   0.166   0.173
    1UNL    H20   47   0.420   0.065   0.229
    1UNL    H21   48   0.446   0.135   0.083
    1UNL    H22   49   0.511  -0.114   0.086
    1UNL    H23   50   0.212   0.174  -0.154
    1UNL    H24   51   0.155  -0.017  -0.314
    1UNL    H25   52   0.036   0.082  -0.278
    1UNL    H26   53  -0.049  -0.146  -0.267
   0.00000   0.00000   0.00000   0.00000   0.00000   0.00000   0.00000   0.00000   0.00000
Generated with MDTraj, t= 48.0
 53
    1UNL     C1    1   0.159   0.455   0.042
    1UNL     O1    2   0.182   0.326   0.008
    1UNL     C2    3   0.078   0.251   0.050
    1UNL     O2    4  -0.006   0.282   0.132
    1UNL     C3    5   0.064   0.119  -0.007
    1UNL     C4    6  -0.023   0.025   0.033
    1UNL     N1    7  -0.139   0.055   0.110
    1UNL     C5    8  -0.247  -0.014   0.049
    1UNL     C6    9  -0.393   0.004   0.075
    1UNL     O3   10  -0.425   0.090   0.184
    1UNL     C7   11  -0.558   0.073   0.222
    1UNL     C8   12  -0.476  -0.071  -0.002
    1UNL     C9   13  -0.431  -0.161  -0.098
    1UNL    C10   14  -0.292  -0.183  -0.120
    1UNL    C11   15  -0.204  -0.112  -0.045
    1UNL    C12   16  -0.044  -0.110  -0.035
    1UNL    C13   17   0.002  -0.226   0.056
    1UNL    C14   18   0.118  -0.295  -0.026
    1UNL     N2   19   0.150  -0.222  -0.151
    1UNL    C15   20   0.282  -0.157  -0.168
    1UNL    C16   21   0.283  -0.020  -0.080
    1UNL    C17   22   0.302  -0.053   0.072
    1UNL    C18   23   0.349   0.076   0.151
    1UNL     O4   24   0.397  -0.155   0.086
    1UNL    C19   25   0.162   0.079  -0.116
    1UNL    C20   26   0.080   0.013  -0.232
    1UNL    C21   27   0.029  -0.127  -0.172
    1UNL     H1   28   0.217   0.527  -0.015
    1UNL     H2   29   0.055   0.477   0.016
    1UNL     H3   30   0.162   0.472   0.146
    1UNL     H4   31  -0.160   0.144   0.145
    1UNL     H5   32  -0.617   0.111   0.132
    1UNL     H6   33  -0.580   0.141   0.303
    1UNL     H7   34  -0.598  -0.026   0.255
    1UNL     H8   35  -0.582  -0.066   0.012
    1UNL     H9   36  -0.500  -0.216  -0.164
    1UNL    H10   37  -0.255  -0.252  -0.187
    1UNL    H11   38   0.025  -0.190   0.151
    1UNL    H12   39  -0.086  -0.290   0.053
    1UNL    H13   40   0.213  -0.273   0.031
    1UNL    H14   41   0.123  -0.402  -0.044
    1UNL    H15   42   0.359  -0.218  -0.120
    1UNL    H16   43   0.297  -0.141  -0.272
    1UNL    H17   44   0.376   0.022  -0.108
    1UNL    H18   45   0.205  -0.093   0.114
    1UNL    H19   46   0.293   0.159   0.103
    1UNL    H20   47   0.319   0.080   0.249
    1UNL    H21   48   0.455   0.094   0.147
    1UNL    H22   49   0.491  -0.127   0.092
    1UNL    H23   50   0.205   0.174  -0.164
    1UNL    H24   51   0.145   0.011  -0.314
    1UNL    H25   52   0.004   0.077  -0.265
    1UNL    H26   53  -0.038  -0.180  -0.241
   0.00000   0.00000   0.00000   0.00000   0.00000   0.00000   0.00000   0.00000   0.00000
Generated with MDTraj, t= 49.0
 53
    1UNL     C1    1   0.172   0.447   0.049
    1UNL     O1    2   0.172   0.323  -0.009
    1UNL     C2    3   0.077   0.252   0.058
    1UNL     O2    4  -0.009   0.290   0.138
    1UNL     C3    5   0.076   0.107   0.011
    1UNL     C4    6  -0.019   0.022   0.045
    1UNL     N1    7  -0.137   0.047   0.117
    1UNL     C5    8  -0.248  -0.017   0.054
    1UNL     C6    9  -0.385  -0.002   0.069
    1UNL     O3   10  -0.414   0.081   0.178
    1UNL     C7   11  -0.557   0.091   0.207
    1UNL     C8   12  -0.474  -0.074  -0.012
    1UNL     C9   13  -0.425  -0.169  -0.103
    1UNL    C10   14  -0.288  -0.181  -0.113
    1UNL    C11   15  -0.200  -0.104  -0.042
    1UNL    C12   16  -0.046  -0.111  -0.032
    1UNL    C13   17   0.015  -0.233   0.051
    1UNL    C14   18   0.125  -0.304  -0.032
    1UNL     N2   19   0.146  -0.218  -0.150
    1UNL    C15   20   0.272  -0.148  -0.163
    1UNL    C16   21   0.280  -0.012  -0.083
    1UNL    C17   22   0.294  -0.041   0.066
    1UNL    C18   23   0.361   0.086   0.130
    1UNL     O4   24   0.376  -0.157   0.099
    1UNL    C19   25   0.156   0.074  -0.115
    1UNL    C20   26   0.064   0.012  -0.221
    1UNL    C21   27   0.021  -0.123  -0.173
    1UNL     H1   28   0.264   0.505   0.043
    1UNL     H2   29   0.093   0.508   0.001
    1UNL     H3   30   0.135   0.446   0.150
    1UNL     H4   31  -0.164   0.138   0.148
    1UNL     H5   32  -0.608   0.154   0.124
    1UNL     H6   33  -0.572   0.141   0.299
    1UNL     H7   34  -0.625   0.002   0.207
    1UNL     H8   35  -0.580  -0.052  -0.021
    1UNL     H9   36  -0.490  -0.227  -0.169
    1UNL    H10   37  -0.254  -0.276  -0.170
    1UNL    H11   38   0.055  -0.185   0.133
    1UNL    H12   39  -0.061  -0.310   0.074
    1UNL    H13   40   0.225  -0.318   0.016
    1UNL    H14   41   0.088  -0.399  -0.069
    1UNL    H15   42   0.351  -0.216  -0.133
    1UNL    H16   43   0.281  -0.123  -0.266
    1UNL    H17   44   0.370   0.034  -0.114
    1UNL    H18   45   0.191  -0.063   0.108
    1UNL    H19   46   0.285   0.155   0.165
    1UNL    H20   47   0.409   0.062   0.222
    1UNL    H21   48   0.430   0.141   0.070
    1UNL    H22   49   0.467  -0.119   0.082
    1UNL    H23   50   0.183   0.173  -0.165
    1UNL    H24   51   0.121   0.005  -0.309
    1UNL    H25   52  -0.011   0.085  -0.236
    1UNL    H26   53  -0.053  -0.161  -0.245
   0.00000   0.00000   0.00000   0.00000   0.00000   0.00000   0.00000   0.00000   0.00000
Generated with MDTraj, t= 50.0
 53
    1UNL     C1    1   0.158   0.447   0.083
    1UNL     O1    2   0.176   0.333   0.007
    1UNL     C2    3   0.084   0.240   0.059
    1UNL     O2    4   0.009   0.272   0.151
    1UNL     C3    5   0.075   0.106  -0.002
    1UNL     C4    6  -0.026   0.022   0.034
    1UNL     N1    7  -0.143   0.047   0.102
    1UNL     C5    8  -0.258  -0.020   0.045
    1UNL     C6    9  -0.394  -0.000   0.077
    1UNL     O3   10  -0.430   0.095   0.168
    1UNL     C7   11  -0.568   0.117   0.179
    1UNL     C8   12  -0.480  -0.092   0.015
    1UNL     C9   13  -0.432  -0.188  -0.075
    1UNL    C10   14  -0.301  -0.195  -0.113
    1UNL    C11   15  -0.209  -0.119  -0.042
    1UNL    C12   16  -0.054  -0.112  -0.036
    1UNL    C13   17   0.007  -0.220   0.053
    1UNL    C14   18   0.089  -0.298  -0.042
    1UNL     N2   19   0.141  -0.214  -0.158
    1UNL    C15   20   0.283  -0.159  -0.154
    1UNL    C16   21   0.296  -0.014  -0.084
    1UNL    C17   22   0.324  -0.027   0.063
    1UNL    C18   23   0.376   0.098   0.132
    1UNL     O4   24   0.411  -0.140   0.085
    1UNL    C19   25   0.169   0.070  -0.117
    1UNL    C20   26   0.072   0.006  -0.233
    1UNL    C21   27   0.025  -0.126  -0.177
    1UNL     H1   28   0.229   0.529   0.060
    1UNL     H2   29   0.054   0.488   0.068
    1UNL     H3   30   0.162   0.430   0.190
    1UNL     H4   31  -0.153   0.154   0.113
    1UNL     H5   32  -0.632   0.116   0.082
    1UNL     H6   33  -0.571   0.209   0.229
    1UNL     H7   34  -0.623   0.048   0.245
    1UNL     H8   35  -0.582  -0.084   0.044
    1UNL     H9   36  -0.515  -0.245  -0.109
    1UNL    H10   37  -0.274  -0.269  -0.180
    1UNL    H11   38   0.070  -0.184   0.128
    1UNL    H12   39  -0.077  -0.279   0.090
    1UNL    H13   40   0.173  -0.346   0.015
    1UNL    H14   41   0.036  -0.376  -0.099
    1UNL    H15   42   0.336  -0.235  -0.099
    1UNL    H16   43   0.318  -0.162  -0.254
    1UNL    H17   44   0.391   0.027  -0.113
    1UNL    H18   45   0.223  -0.060   0.111
    1UNL    H19   46   0.326   0.183   0.098
    1UNL    H20   47   0.333   0.088   0.234
    1UNL    H21   48   0.482   0.112   0.137
    1UNL    H22   49   0.502  -0.115   0.055
    1UNL    H23   50   0.197   0.174  -0.153
    1UNL    H24   51   0.123  -0.005  -0.325
    1UNL    H25   52  -0.013   0.067  -0.243
    1UNL    H26   53  -0.038  -0.175  -0.251
   0.00000   0.00000   0.00000   0.00000   0.00000   0.00000   0.00000   0.00000   0.00000
Generated with MDTraj, t= 51.0
 53
    1UNL     C1    1   0.161   0.443   0.096
    1UNL     O1    2   0.186   0.329   0.029
    1UNL     C2    3   0.099   0.229   0.079
    1UNL     O2    4   0.027   0.259   0.175
    1UNL     C3    5   0.081   0.098   0.011
    1UNL     C4    6  -0.041   0.027   0.025
    1UNL     N1    7  -0.159   0.071   0.076
    1UNL     C5    8  -0.263  -0.008   0.019
    1UNL     C6    9  -0.399  -0.006   0.067
    1UNL     O3   10  -0.431   0.111   0.142
    1UNL     C7   11  -0.569   0.138   0.148
    1UNL     C8   12  -0.482  -0.112   0.033
    1UNL     C9   13  -0.434  -0.214  -0.044
    1UNL    C10   14  -0.301  -0.226  -0.086
    1UNL    C11   15  -0.214  -0.115  -0.056
    1UNL    C12   16  -0.064  -0.111  -0.046
    1UNL    C13   17  -0.010  -0.229   0.047
    1UNL    C14   18   0.101  -0.298  -0.030
    1UNL     N2   19   0.134  -0.216  -0.149
    1UNL    C15   20   0.269  -0.155  -0.155
    1UNL    C16   21   0.287  -0.012  -0.098
    1UNL    C17   22   0.337  -0.029   0.054
    1UNL    C18   23   0.376   0.104   0.118
    1UNL     O4   24   0.438  -0.131   0.082
    1UNL    C19   25   0.167   0.074  -0.114
    1UNL    C20   26   0.069   0.024  -0.227
    1UNL    C21   27   0.015  -0.119  -0.183
    1UNL     H1   28   0.201   0.531   0.043
    1UNL     H2   29   0.053   0.457   0.126
    1UNL     H3   30   0.216   0.444   0.189
    1UNL     H4   31  -0.168   0.145   0.153
    1UNL     H5   32  -0.625   0.157   0.051
    1UNL     H6   33  -0.580   0.211   0.221
    1UNL     H7   34  -0.618   0.049   0.190
    1UNL     H8   35  -0.588  -0.104   0.056
    1UNL     H9   36  -0.487  -0.309  -0.064
    1UNL    H10   37  -0.264  -0.317  -0.129
    1UNL    H11   38   0.030  -0.183   0.135
    1UNL    H12   39  -0.090  -0.290   0.081
    1UNL    H13   40   0.199  -0.316   0.020
    1UNL    H14   41   0.072  -0.399  -0.060
    1UNL    H15   42   0.332  -0.231  -0.112
    1UNL    H16   43   0.288  -0.161  -0.259
    1UNL    H17   44   0.372   0.033  -0.149
    1UNL    H18   45   0.243  -0.076   0.103
    1UNL    H19   46   0.304   0.133   0.189
    1UNL    H20   47   0.469   0.094   0.179
    1UNL    H21   48   0.393   0.173   0.040
    1UNL    H22   49   0.519  -0.115   0.030
    1UNL    H23   50   0.191   0.180  -0.142
    1UNL    H24   51   0.123   0.022  -0.318
    1UNL    H25   52  -0.013   0.090  -0.235
    1UNL    H26   53  -0.047  -0.171  -0.256
   0.00000   0.00000   0.00000   0.00000   0.00000   0.00000   0.00000   0.00000   0.00000
Generated with MDTraj, t= 52.0
 53
    1UNL     C1    1   0.206   0.418   0.108
    1UNL     O1    2   0.169   0.324   0.020
    1UNL     C2    3   0.081   0.235   0.080
    1UNL     O2    4   0.030   0.255   0.190
    1UNL     C3    5   0.073   0.110   0.003
    1UNL     C4    6  -0.033   0.026   0.036
    1UNL     N1    7  -0.156   0.072   0.087
    1UNL     C5    8  -0.260  -0.017   0.053
    1UNL     C6    9  -0.399   0.002   0.062
    1UNL     O3   10  -0.450   0.123   0.116
    1UNL     C7   11  -0.592   0.129   0.124
    1UNL     C8   12  -0.478  -0.098  -0.003
    1UNL     C9   13  -0.430  -0.209  -0.061
    1UNL    C10   14  -0.293  -0.225  -0.070
    1UNL    C11   15  -0.207  -0.133  -0.013
    1UNL    C12   16  -0.054  -0.110  -0.020
    1UNL    C13   17   0.019  -0.217   0.071
    1UNL    C14   18   0.112  -0.293  -0.031
    1UNL     N2   19   0.130  -0.209  -0.156
    1UNL    C15   20   0.269  -0.153  -0.169
    1UNL    C16   21   0.280  -0.016  -0.104
    1UNL    C17   22   0.338  -0.032   0.048
    1UNL    C18   23   0.370   0.095   0.124
    1UNL     O4   24   0.448  -0.119   0.047
    1UNL    C19   25   0.154   0.076  -0.121
    1UNL    C20   26   0.046   0.017  -0.217
    1UNL    C21   27   0.006  -0.123  -0.166
    1UNL     H1   28   0.311   0.439   0.095
    1UNL     H2   29   0.146   0.513   0.110
    1UNL     H3   30   0.196   0.377   0.207
    1UNL     H4   31  -0.178   0.146   0.162
    1UNL     H5   32  -0.644   0.094   0.032
    1UNL     H6   33  -0.620   0.219   0.165
    1UNL     H7   34  -0.615   0.053   0.197
    1UNL     H8   35  -0.584  -0.079  -0.005
    1UNL     H9   36  -0.495  -0.285  -0.092
    1UNL    H10   37  -0.243  -0.316  -0.119
    1UNL    H11   38   0.074  -0.170   0.152
    1UNL    H12   39  -0.050  -0.277   0.120
    1UNL    H13   40   0.212  -0.312   0.012
    1UNL    H14   41   0.086  -0.395  -0.058
    1UNL    H15   42   0.341  -0.225  -0.132
    1UNL    H16   43   0.279  -0.151  -0.275
    1UNL    H17   44   0.362   0.038  -0.157
    1UNL    H18   45   0.253  -0.091   0.101
    1UNL    H19   46   0.293   0.169   0.105
    1UNL    H20   47   0.371   0.090   0.234
    1UNL    H21   48   0.461   0.125   0.080
    1UNL    H22   49   0.520  -0.078  -0.005
    1UNL    H23   50   0.177   0.178  -0.157
    1UNL    H24   51   0.078   0.002  -0.318
    1UNL    H25   52  -0.034   0.085  -0.215
    1UNL    H26   53  -0.064  -0.180  -0.227
   0.00000   0.00000   0.00000   0.00000   0.00000   0.00000   0.00000   0.00000   0.00000
Generated with MDTraj, t= 53.0
 53
    1UNL     C1    1   0.192   0.437   0.101
    1UNL     O1    2   0.207   0.305   0.058
    1UNL     C2    3   0.088   0.238   0.086
    1UNL     O2    4   0.005   0.280   0.166
    1UNL     C3    5   0.068   0.109   0.020
    1UNL     C4    6  -0.028   0.023   0.052
    1UNL     N1    7  -0.151   0.066   0.101
    1UNL     C5    8  -0.257  -0.022   0.061
    1UNL     C6    9  -0.394   0.001   0.057
    1UNL     O3   10  -0.443   0.108   0.123
    1UNL     C7   11  -0.582   0.129   0.110
    1UNL     C8   12  -0.469  -0.092  -0.014
    1UNL     C9   13  -0.414  -0.202  -0.079
    1UNL    C10   14  -0.276  -0.220  -0.072
    1UNL    C11   15  -0.202  -0.131  -0.001
    1UNL    C12   16  -0.049  -0.116  -0.012
    1UNL    C13   17   0.012  -0.232   0.070
    1UNL    C14   18   0.121  -0.297  -0.017
    1UNL     N2   19   0.127  -0.213  -0.145
    1UNL    C15   20   0.258  -0.147  -0.177
    1UNL    C16   21   0.270  -0.005  -0.110
    1UNL    C17   22   0.327  -0.025   0.035
    1UNL    C18   23   0.386   0.097   0.098
    1UNL     O4   24   0.420  -0.132   0.030
    1UNL    C19   25   0.141   0.082  -0.112
    1UNL    C20   26   0.028   0.014  -0.210
    1UNL    C21   27   0.005  -0.128  -0.159
    1UNL     H1   28   0.271   0.496   0.059
    1UNL     H2   29   0.094   0.483   0.077
    1UNL     H3   30   0.202   0.431   0.206
    1UNL     H4   31  -0.171   0.167   0.108
    1UNL     H5   32  -0.609   0.125   0.002
    1UNL     H6   33  -0.615   0.212   0.164
    1UNL     H7   34  -0.624   0.042   0.156
    1UNL     H8   35  -0.573  -0.077  -0.022
    1UNL     H9   36  -0.484  -0.273  -0.131
    1UNL    H10   37  -0.234  -0.298  -0.119
    1UNL    H11   38   0.050  -0.196   0.165
    1UNL    H12   39  -0.059  -0.306   0.082
    1UNL    H13   40   0.212  -0.310   0.045
    1UNL    H14   41   0.095  -0.400  -0.037
    1UNL    H15   42   0.321  -0.228  -0.136
    1UNL    H16   43   0.268  -0.142  -0.283
    1UNL    H17   44   0.355   0.050  -0.159
    1UNL    H18   45   0.239  -0.071   0.099
    1UNL    H19   46   0.449   0.159   0.027
    1UNL    H20   47   0.315   0.166   0.137
    1UNL    H21   48   0.452   0.058   0.171
    1UNL    H22   49   0.495  -0.107  -0.029
    1UNL    H23   50   0.180   0.177  -0.150
    1UNL    H24   51   0.056   0.020  -0.313
    1UNL    H25   52  -0.067   0.059  -0.205
    1UNL    H26   53  -0.068  -0.181  -0.219
   0.00000   0.00000   0.00000   0.00000   0.00000   0.00000   0.00000   0.00000   0.00000
Generated with MDTraj, t= 54.0
 53
    1UNL     C1    1   0.164   0.443   0.103
    1UNL     O1    2   0.170   0.320   0.034
    1UNL     C2    3   0.067   0.242   0.074
    1UNL     O2    4  -0.029   0.276   0.143
    1UNL     C3    5   0.071   0.104   0.020
    1UNL     C4    6  -0.035   0.025   0.042
    1UNL     N1    7  -0.158   0.054   0.102
    1UNL     C5    8  -0.259  -0.034   0.066
    1UNL     C6    9  -0.397  -0.009   0.077
    1UNL     O3   10  -0.438   0.111   0.148
    1UNL     C7   11  -0.571   0.155   0.118
    1UNL     C8   12  -0.482  -0.091   0.013
    1UNL     C9   13  -0.428  -0.197  -0.066
    1UNL    C10   14  -0.291  -0.223  -0.083
    1UNL    C11   15  -0.206  -0.129  -0.020
    1UNL    C12   16  -0.052  -0.116  -0.025
    1UNL    C13   17   0.014  -0.234   0.049
    1UNL    C14   18   0.131  -0.285  -0.031
    1UNL     N2   19   0.141  -0.209  -0.154
    1UNL    C15   20   0.280  -0.141  -0.172
    1UNL    C16   21   0.287  -0.007  -0.097
    1UNL    C17   22   0.340  -0.035   0.048
    1UNL    C18   23   0.435   0.077   0.089
    1UNL     O4   24   0.408  -0.158   0.059
    1UNL    C19   25   0.153   0.080  -0.101
    1UNL    C20   26   0.062   0.021  -0.209
    1UNL    C21   27   0.013  -0.116  -0.169
    1UNL     H1   28   0.249   0.505   0.079
    1UNL     H2   29   0.067   0.494   0.083
    1UNL     H3   30   0.165   0.413   0.206
    1UNL     H4   31  -0.173   0.143   0.136
    1UNL     H5   32  -0.566   0.165   0.007
    1UNL     H6   33  -0.602   0.246   0.164
    1UNL     H7   34  -0.634   0.072   0.145
    1UNL     H8   35  -0.590  -0.075   0.005
    1UNL     H9   36  -0.493  -0.254  -0.123
    1UNL    H10   37  -0.266  -0.321  -0.134
    1UNL    H11   38   0.053  -0.199   0.144
    1UNL    H12   39  -0.053  -0.314   0.063
    1UNL    H13   40   0.220  -0.293   0.032
    1UNL    H14   41   0.108  -0.389  -0.051
    1UNL    H15   42   0.361  -0.202  -0.134
    1UNL    H16   43   0.275  -0.126  -0.279
    1UNL    H17   44   0.369   0.052  -0.150
    1UNL    H18   45   0.244  -0.046   0.116
    1UNL    H19   46   0.532   0.080   0.032
    1UNL    H20   47   0.388   0.168   0.070
    1UNL    H21   48   0.465   0.061   0.192
    1UNL    H22   49   0.491  -0.150   0.005
    1UNL    H23   50   0.190   0.175  -0.137
    1UNL    H24   51   0.111   0.016  -0.304
    1UNL    H25   52  -0.019   0.085  -0.230
    1UNL    H26   53  -0.045  -0.158  -0.249
   0.00000   0.00000   0.00000   0.00000   0.00000   0.00000   0.00000   0.00000   0.00000
Generated with MDTraj, t= 55.0
 53
    1UNL     C1    1   0.140   0.459   0.088
    1UNL     O1    2   0.168   0.334   0.029
    1UNL     C2    3   0.082   0.238   0.070
    1UNL     O2    4   0.003   0.259   0.161
    1UNL     C3    5   0.081   0.106   0.005
    1UNL     C4    6  -0.027   0.023   0.030
    1UNL     N1    7  -0.145   0.060   0.092
    1UNL     C5    8  -0.250  -0.021   0.055
    1UNL     C6    9  -0.386  -0.016   0.084
    1UNL     O3   10  -0.423   0.092   0.170
    1UNL     C7   11  -0.545   0.156   0.144
    1UNL     C8   12  -0.471  -0.114   0.028
    1UNL     C9   13  -0.422  -0.207  -0.064
    1UNL    C10   14  -0.292  -0.204  -0.104
    1UNL    C11   15  -0.206  -0.122  -0.038
    1UNL    C12   16  -0.052  -0.110  -0.038
    1UNL    C13   17  -0.000  -0.223   0.050
    1UNL    C14   18   0.096  -0.301  -0.048
    1UNL     N2   19   0.138  -0.211  -0.156
    1UNL    C15   20   0.278  -0.156  -0.164
    1UNL    C16   21   0.289  -0.020  -0.090
    1UNL    C17   22   0.311  -0.032   0.063
    1UNL    C18   23   0.386   0.100   0.110
    1UNL     O4   24   0.379  -0.153   0.082
    1UNL    C19   25   0.164   0.079  -0.115
    1UNL    C20   26   0.076   0.022  -0.231
    1UNL    C21   27   0.026  -0.117  -0.180
    1UNL     H1   28   0.218   0.531   0.060
    1UNL     H2   29   0.038   0.490   0.049
    1UNL     H3   30   0.138   0.443   0.195
    1UNL     H4   31  -0.142   0.148   0.141
    1UNL     H5   32  -0.536   0.154   0.032
    1UNL     H6   33  -0.543   0.261   0.174
    1UNL     H7   34  -0.624   0.093   0.184
    1UNL     H8   35  -0.574  -0.115   0.056
    1UNL     H9   36  -0.498  -0.277  -0.110
    1UNL    H10   37  -0.239  -0.266  -0.179
    1UNL    H11   38   0.063  -0.185   0.127
    1UNL    H12   39  -0.084  -0.273   0.093
    1UNL    H13   40   0.190  -0.324   0.003
    1UNL    H14   41   0.058  -0.397  -0.079
    1UNL    H15   42   0.339  -0.234  -0.118
    1UNL    H16   43   0.300  -0.134  -0.267
    1UNL    H17   44   0.379   0.028  -0.139
    1UNL    H18   45   0.207  -0.038   0.114
    1UNL    H19   46   0.490   0.107   0.086
    1UNL    H20   47   0.335   0.180   0.062
    1UNL    H21   48   0.382   0.110   0.219
    1UNL    H22   49   0.467  -0.144   0.038
    1UNL    H23   50   0.202   0.172  -0.151
    1UNL    H24   51   0.129   0.003  -0.322
    1UNL    H25   52   0.000   0.087  -0.269
    1UNL    H26   53  -0.042  -0.160  -0.250
   0.00000   0.00000   0.00000   0.00000   0.00000   0.00000   0.00000   0.00000   0.00000
Generated with MDTraj, t= 56.0
 53
    1UNL     C1    1   0.183   0.450   0.066
    1UNL     O1    2   0.172   0.336  -0.014
    1UNL     C2    3   0.087   0.245   0.047
    1UNL     O2    4   0.035   0.265   0.157
    1UNL     C3    5   0.075   0.110  -0.008
    1UNL     C4    6  -0.025   0.017   0.030
    1UNL     N1    7  -0.138   0.045   0.103
    1UNL     C5    8  -0.248  -0.024   0.057
    1UNL     C6    9  -0.385  -0.017   0.088
    1UNL     O3   10  -0.426   0.079   0.177
    1UNL     C7   11  -0.558   0.131   0.184
    1UNL     C8   12  -0.473  -0.100   0.018
    1UNL     C9   13  -0.434  -0.190  -0.077
    1UNL    C10   14  -0.296  -0.201  -0.104
    1UNL    C11   15  -0.202  -0.112  -0.044
    1UNL    C12   16  -0.051  -0.111  -0.043
    1UNL    C13   17  -0.004  -0.245   0.034
    1UNL    C14   18   0.103  -0.313  -0.061
    1UNL     N2   19   0.140  -0.210  -0.166
    1UNL    C15   20   0.274  -0.141  -0.151
    1UNL    C16   21   0.284  -0.003  -0.076
    1UNL    C17   22   0.294  -0.029   0.077
    1UNL    C18   23   0.329   0.094   0.157
    1UNL     O4   24   0.393  -0.134   0.107
    1UNL    C19   25   0.162   0.085  -0.127
    1UNL    C20   26   0.079   0.019  -0.234
    1UNL    C21   27   0.022  -0.115  -0.180
    1UNL     H1   28   0.236   0.529   0.011
    1UNL     H2   29   0.074   0.477   0.080
    1UNL     H3   30   0.232   0.421   0.159
    1UNL     H4   31  -0.144   0.140   0.152
    1UNL     H5   32  -0.554   0.186   0.085
    1UNL     H6   33  -0.561   0.212   0.261
    1UNL     H7   34  -0.630   0.049   0.193
    1UNL     H8   35  -0.580  -0.096   0.036
    1UNL     H9   36  -0.500  -0.258  -0.120
    1UNL    H10   37  -0.259  -0.265  -0.175
    1UNL    H11   38   0.024  -0.221   0.131
    1UNL    H12   39  -0.084  -0.313   0.052
    1UNL    H13   40   0.188  -0.360  -0.011
    1UNL    H14   41   0.070  -0.401  -0.116
    1UNL    H15   42   0.338  -0.203  -0.089
    1UNL    H16   43   0.309  -0.125  -0.252
    1UNL    H17   44   0.385   0.039  -0.102
    1UNL    H18   45   0.193  -0.067   0.124
    1UNL    H19   46   0.422   0.131   0.137
    1UNL    H20   47   0.259   0.176   0.143
    1UNL    H21   48   0.336   0.068   0.265
    1UNL    H22   49   0.482  -0.117   0.069
    1UNL    H23   50   0.209   0.171  -0.171
    1UNL    H24   51   0.128   0.010  -0.328
    1UNL    H25   52  -0.002   0.084  -0.262
    1UNL    H26   53  -0.049  -0.156  -0.248
   0.00000   0.00000   0.00000   0.00000   0.00000   0.00000   0.00000   0.00000   0.00000
Generated with MDTraj, t= 57.0
 53
    1UNL     C1    1   0.182   0.450   0.063
    1UNL     O1    2   0.167   0.331  -0.013
    1UNL     C2    3   0.072   0.245   0.040
    1UNL     O2    4   0.004   0.276   0.138
    1UNL     C3    5   0.077   0.108  -0.008
    1UNL     C4    6  -0.025   0.023   0.035
    1UNL     N1    7  -0.144   0.052   0.101
    1UNL     C5    8  -0.255  -0.023   0.043
    1UNL     C6    9  -0.387  -0.005   0.077
    1UNL     O3   10  -0.417   0.084   0.180
    1UNL     C7   11  -0.552   0.084   0.222
    1UNL     C8   12  -0.477  -0.079  -0.001
    1UNL     C9   13  -0.428  -0.165  -0.101
    1UNL    C10   14  -0.292  -0.190  -0.125
    1UNL    C11   15  -0.208  -0.113  -0.046
    1UNL    C12   16  -0.049  -0.109  -0.034
    1UNL    C13   17   0.004  -0.231   0.054
    1UNL    C14   18   0.120  -0.287  -0.024
    1UNL     N2   19   0.137  -0.211  -0.148
    1UNL    C15   20   0.270  -0.155  -0.172
    1UNL    C16   21   0.293  -0.023  -0.081
    1UNL    C17   22   0.302  -0.047   0.075
    1UNL    C18   23   0.330   0.073   0.151
    1UNL     O4   24   0.405  -0.143   0.103
    1UNL    C19   25   0.171   0.081  -0.119
    1UNL    C20   26   0.078   0.025  -0.228
    1UNL    C21   27   0.020  -0.112  -0.172
    1UNL     H1   28   0.221   0.522  -0.008
    1UNL     H2   29   0.075   0.479   0.085
    1UNL     H3   30   0.246   0.431   0.148
    1UNL     H4   31  -0.152   0.144   0.158
    1UNL     H5   32  -0.621   0.088   0.134
    1UNL     H6   33  -0.576   0.185   0.272
    1UNL     H7   34  -0.564   0.001   0.293
    1UNL     H8   35  -0.581  -0.078   0.028
    1UNL     H9   36  -0.503  -0.218  -0.160
    1UNL    H10   37  -0.261  -0.259  -0.213
    1UNL    H11   38   0.033  -0.203   0.148
    1UNL    H12   39  -0.072  -0.305   0.073
    1UNL    H13   40   0.213  -0.298   0.031
    1UNL    H14   41   0.101  -0.386  -0.065
    1UNL    H15   42   0.338  -0.233  -0.139
    1UNL    H16   43   0.292  -0.126  -0.276
    1UNL    H17   44   0.392   0.013  -0.118
    1UNL    H18   45   0.197  -0.085   0.114
    1UNL    H19   46   0.405   0.132   0.109
    1UNL    H20   47   0.241   0.139   0.164
    1UNL    H21   48   0.372   0.047   0.248
    1UNL    H22   49   0.488  -0.114   0.061
    1UNL    H23   50   0.220   0.171  -0.149
    1UNL    H24   51   0.117   0.013  -0.327
    1UNL    H25   52   0.004   0.101  -0.247
    1UNL    H26   53  -0.050  -0.158  -0.239
   0.00000   0.00000   0.00000   0.00000   0.00000   0.00000   0.00000   0.00000   0.00000
Generated with MDTraj, t= 58.0
 53
    1UNL     C1    1   0.150   0.462   0.053
    1UNL     O1    2   0.183   0.327   0.027
    1UNL     C2    3   0.077   0.244   0.056
    1UNL     O2    4  -0.017   0.276   0.129
    1UNL     C3    5   0.078   0.109  -0.003
    1UNL     C4    6  -0.022   0.025   0.035
    1UNL     N1    7  -0.138   0.067   0.101
    1UNL     C5    8  -0.248  -0.004   0.039
    1UNL     C6    9  -0.388   0.015   0.056
    1UNL     O3   10  -0.433   0.098   0.157
    1UNL     C7   11  -0.548   0.040   0.231
    1UNL     C8   12  -0.482  -0.070  -0.010
    1UNL     C9   13  -0.433  -0.168  -0.094
    1UNL    C10   14  -0.296  -0.185  -0.115
    1UNL    C11   15  -0.205  -0.106  -0.043
    1UNL    C12   16  -0.052  -0.107  -0.031
    1UNL    C13   17  -0.004  -0.222   0.057
    1UNL    C14   18   0.098  -0.303  -0.022
    1UNL     N2   19   0.137  -0.223  -0.142
    1UNL    C15   20   0.268  -0.157  -0.154
    1UNL    C16   21   0.289  -0.019  -0.084
    1UNL    C17   22   0.321  -0.039   0.067
    1UNL    C18   23   0.383   0.081   0.132
    1UNL     O4   24   0.404  -0.155   0.086
    1UNL    C19   25   0.169   0.080  -0.119
    1UNL    C20   26   0.079   0.011  -0.219
    1UNL    C21   27   0.023  -0.124  -0.173
    1UNL     H1   28   0.241   0.518   0.045
    1UNL     H2   29   0.088   0.485  -0.036
    1UNL     H3   30   0.103   0.472   0.149
    1UNL     H4   31  -0.154   0.165   0.129
    1UNL     H5   32  -0.651   0.071   0.208
    1UNL     H6   33  -0.530   0.065   0.343
    1UNL     H7   34  -0.535  -0.066   0.231
    1UNL     H8   35  -0.586  -0.064   0.018
    1UNL     H9   36  -0.514  -0.227  -0.142
    1UNL    H10   37  -0.265  -0.253  -0.187
    1UNL    H11   38   0.058  -0.187   0.133
    1UNL    H12   39  -0.086  -0.278   0.093
    1UNL    H13   40   0.193  -0.308   0.029
    1UNL    H14   41   0.061  -0.402  -0.049
    1UNL    H15   42   0.348  -0.222  -0.119
    1UNL    H16   43   0.290  -0.154  -0.263
    1UNL    H17   44   0.382   0.020  -0.130
    1UNL    H18   45   0.219  -0.059   0.121
    1UNL    H19   46   0.486   0.099   0.096
    1UNL    H20   47   0.323   0.169   0.115
    1UNL    H21   48   0.397   0.068   0.236
    1UNL    H22   49   0.488  -0.159   0.035
    1UNL    H23   50   0.207   0.172  -0.157
    1UNL    H24   51   0.139   0.008  -0.308
    1UNL    H25   52  -0.004   0.069  -0.258
    1UNL    H26   53  -0.043  -0.169  -0.245
   0.00000   0.00000   0.00000   0.00000   0.00000   0.00000   0.00000   0.00000   0.00000
Generated with MDTraj, t= 59.0
 53
    1UNL     C1    1   0.192   0.454   0.058
    1UNL     O1    2   0.187   0.322   0.017
    1UNL     C2    3   0.080   0.247   0.071
    1UNL     O2    4  -0.011   0.295   0.139
    1UNL     C3    5   0.070   0.109   0.015
    1UNL     C4    6  -0.031   0.025   0.038
    1UNL     N1    7  -0.156   0.060   0.085
    1UNL     C5    8  -0.261  -0.021   0.048
    1UNL     C6    9  -0.404  -0.004   0.062
    1UNL     O3   10  -0.446   0.102   0.140
    1UNL     C7   11  -0.539   0.058   0.240
    1UNL     C8   12  -0.483  -0.091  -0.004
    1UNL     C9   13  -0.435  -0.181  -0.098
    1UNL    C10   14  -0.299  -0.189  -0.119
    1UNL    C11   15  -0.209  -0.107  -0.052
    1UNL    C12   16  -0.057  -0.104  -0.035
    1UNL    C13   17  -0.002  -0.225   0.048
    1UNL    C14   18   0.087  -0.314  -0.044
    1UNL     N2   19   0.135  -0.215  -0.149
    1UNL    C15   20   0.268  -0.153  -0.143
    1UNL    C16   21   0.285  -0.018  -0.075
    1UNL    C17   22   0.333  -0.030   0.074
    1UNL    C18   23   0.413   0.100   0.118
    1UNL     O4   24   0.407  -0.143   0.094
    1UNL    C19   25   0.161   0.076  -0.110
    1UNL    C20   26   0.075   0.008  -0.218
    1UNL    C21   27   0.020  -0.121  -0.172
    1UNL     H1   28   0.296   0.478   0.056
    1UNL     H2   29   0.143   0.512  -0.025
    1UNL     H3   30   0.161   0.472   0.159
    1UNL     H4   31  -0.171   0.147   0.123
    1UNL     H5   32  -0.634   0.014   0.214
    1UNL     H6   33  -0.558   0.147   0.310
    1UNL     H7   34  -0.486  -0.016   0.295
    1UNL     H8   35  -0.590  -0.085   0.003
    1UNL     H9   36  -0.489  -0.239  -0.163
    1UNL    H10   37  -0.255  -0.265  -0.180
    1UNL    H11   38   0.060  -0.188   0.126
    1UNL    H12   39  -0.082  -0.281   0.088
    1UNL    H13   40   0.172  -0.361   0.005
    1UNL    H14   41   0.033  -0.389  -0.104
    1UNL    H15   42   0.335  -0.230  -0.107
    1UNL    H16   43   0.305  -0.150  -0.250
    1UNL    H17   44   0.368   0.034  -0.124
    1UNL    H18   45   0.236  -0.034   0.140
    1UNL    H19   46   0.522   0.090   0.083
    1UNL    H20   47   0.370   0.190   0.080
    1UNL    H21   48   0.424   0.108   0.220
    1UNL    H22   49   0.484  -0.147   0.032
    1UNL    H23   50   0.186   0.173  -0.144
    1UNL    H24   51   0.129  -0.009  -0.309
    1UNL    H25   52  -0.006   0.072  -0.252
    1UNL    H26   53  -0.051  -0.166  -0.239
   0.00000   0.00000   0.00000   0.00000   0.00000   0.00000   0.00000   0.00000   0.00000
Generated with MDTraj, t= 60.0
 53
    1UNL     C1    1   0.202   0.441   0.109
    1UNL     O1    2   0.189   0.325   0.024
    1UNL     C2    3   0.090   0.237   0.066
    1UNL     O2    4   0.008   0.267   0.150
    1UNL     C3    5   0.070   0.109  -0.004
    1UNL     C4    6  -0.038   0.031   0.012
    1UNL     N1    7  -0.153   0.075   0.070
    1UNL     C5    8  -0.259  -0.005   0.034
    1UNL     C6    9  -0.399   0.007   0.058
    1UNL     O3   10  -0.445   0.112   0.145
    1UNL     C7   11  -0.544   0.069   0.229
    1UNL     C8   12  -0.471  -0.091  -0.001
    1UNL     C9   13  -0.426  -0.196  -0.074
    1UNL    C10   14  -0.292  -0.211  -0.094
    1UNL    C11   15  -0.211  -0.117  -0.040
    1UNL    C12   16  -0.060  -0.105  -0.045
    1UNL    C13   17  -0.006  -0.216   0.050
    1UNL    C14   18   0.093  -0.297  -0.031
    1UNL     N2   19   0.138  -0.222  -0.152
    1UNL    C15   20   0.273  -0.163  -0.162
    1UNL    C16   21   0.286  -0.026  -0.088
    1UNL    C17   22   0.314  -0.031   0.063
    1UNL    C18   23   0.359   0.112   0.117
    1UNL     O4   24   0.406  -0.125   0.100
    1UNL    C19   25   0.167   0.071  -0.124
    1UNL    C20   26   0.077   0.008  -0.229
    1UNL    C21   27   0.017  -0.126  -0.174
    1UNL     H1   28   0.246   0.525   0.056
    1UNL     H2   29   0.099   0.478   0.137
    1UNL     H3   30   0.268   0.422   0.192
    1UNL     H4   31  -0.163   0.169   0.092
    1UNL     H5   32  -0.624   0.015   0.189
    1UNL     H6   33  -0.593   0.164   0.269
    1UNL     H7   34  -0.508   0.007   0.307
    1UNL     H8   35  -0.575  -0.084   0.025
    1UNL     H9   36  -0.507  -0.260  -0.128
    1UNL    H10   37  -0.251  -0.296  -0.157
    1UNL    H11   38   0.036  -0.173   0.139
    1UNL    H12   39  -0.084  -0.275   0.082
    1UNL    H13   40   0.178  -0.338   0.024
    1UNL    H14   41   0.043  -0.381  -0.083
    1UNL    H15   42   0.350  -0.238  -0.140
    1UNL    H16   43   0.295  -0.155  -0.274
    1UNL    H17   44   0.375   0.025  -0.125
    1UNL    H18   45   0.215  -0.057   0.118
    1UNL    H19   46   0.424   0.164   0.041
    1UNL    H20   47   0.282   0.177   0.149
    1UNL    H21   48   0.427   0.095   0.196
    1UNL    H22   49   0.493  -0.107   0.058
    1UNL    H23   50   0.195   0.170  -0.148
    1UNL    H24   51   0.126  -0.010  -0.323
    1UNL    H25   52  -0.004   0.078  -0.250
    1UNL    H26   53  -0.050  -0.176  -0.241
   0.00000   0.00000   0.00000   0.00000   0.00000   0.00000   0.00000   0.00000   0.00000
Generated with MDTraj, t= 61.0
 53
    1UNL     C1    1   0.189   0.430   0.103
    1UNL     O1    2   0.179   0.319   0.017
    1UNL     C2    3   0.085   0.236   0.060
    1UNL     O2    4   0.018   0.259   0.160
    1UNL     C3    5   0.071   0.113  -0.009
    1UNL     C4    6  -0.039   0.039   0.008
    1UNL     N1    7  -0.151   0.077   0.075
    1UNL     C5    8  -0.257  -0.017   0.038
    1UNL     C6    9  -0.394  -0.003   0.062
    1UNL     O3   10  -0.433   0.109   0.130
    1UNL     C7   11  -0.542   0.105   0.213
    1UNL     C8   12  -0.481  -0.100   0.005
    1UNL     C9   13  -0.425  -0.210  -0.059
    1UNL    C10   14  -0.290  -0.219  -0.086
    1UNL    C11   15  -0.211  -0.116  -0.048
    1UNL    C12   16  -0.058  -0.105  -0.048
    1UNL    C13   17  -0.012  -0.217   0.050
    1UNL    C14   18   0.099  -0.286  -0.019
    1UNL     N2   19   0.141  -0.214  -0.141
    1UNL    C15   20   0.268  -0.149  -0.165
    1UNL    C16   21   0.282  -0.011  -0.088
    1UNL    C17   22   0.320  -0.038   0.058
    1UNL    C18   23   0.344   0.085   0.146
    1UNL     O4   24   0.423  -0.132   0.079
    1UNL    C19   25   0.161   0.082  -0.126
    1UNL    C20   26   0.070   0.019  -0.231
    1UNL    C21   27   0.023  -0.121  -0.179
    1UNL     H1   28   0.254   0.507   0.059
    1UNL     H2   29   0.090   0.484   0.119
    1UNL     H3   30   0.237   0.399   0.196
    1UNL     H4   31  -0.165   0.141   0.158
    1UNL     H5   32  -0.616   0.167   0.171
    1UNL     H6   33  -0.528   0.147   0.316
    1UNL     H7   34  -0.595   0.012   0.213
    1UNL     H8   35  -0.588  -0.083   0.014
    1UNL     H9   36  -0.478  -0.294  -0.081
    1UNL    H10   37  -0.265  -0.295  -0.151
    1UNL    H11   38   0.027  -0.169   0.140
    1UNL    H12   39  -0.088  -0.276   0.089
    1UNL    H13   40   0.190  -0.285   0.039
    1UNL    H14   41   0.075  -0.392  -0.039
    1UNL    H15   42   0.351  -0.219  -0.143
    1UNL    H16   43   0.279  -0.136  -0.278
    1UNL    H17   44   0.371   0.031  -0.132
    1UNL    H18   45   0.233  -0.101   0.108
    1UNL    H19   46   0.428   0.140   0.116
    1UNL    H20   47   0.260   0.151   0.158
    1UNL    H21   48   0.377   0.052   0.245
    1UNL    H22   49   0.506  -0.101   0.038
    1UNL    H23   50   0.193   0.174  -0.167
    1UNL    H24   51   0.128   0.011  -0.321
    1UNL    H25   52  -0.020   0.080  -0.249
    1UNL    H26   53  -0.038  -0.167  -0.254
   0.00000   0.00000   0.00000   0.00000   0.00000   0.00000   0.00000   0.00000   0.00000
Generated with MDTraj, t= 62.0
 53
    1UNL     C1    1   0.169   0.446   0.068
    1UNL     O1    2   0.185   0.314   0.025
    1UNL     C2    3   0.080   0.241   0.069
    1UNL     O2    4   0.000   0.282   0.155
    1UNL     C3    5   0.084   0.107   0.008
    1UNL     C4    6  -0.022   0.021   0.033
    1UNL     N1    7  -0.144   0.061   0.088
    1UNL     C5    8  -0.257  -0.022   0.043
    1UNL     C6    9  -0.396  -0.003   0.071
    1UNL     O3   10  -0.437   0.109   0.147
    1UNL     C7   11  -0.575   0.108   0.183
    1UNL     C8   12  -0.481  -0.091   0.004
    1UNL     C9   13  -0.427  -0.193  -0.068
    1UNL    C10   14  -0.291  -0.216  -0.085
    1UNL    C11   15  -0.207  -0.119  -0.034
    1UNL    C12   16  -0.054  -0.114  -0.029
    1UNL    C13   17   0.000  -0.234   0.042
    1UNL    C14   18   0.104  -0.305  -0.050
    1UNL     N2   19   0.136  -0.205  -0.152
    1UNL    C15   20   0.270  -0.142  -0.168
    1UNL    C16   21   0.292  -0.008  -0.085
    1UNL    C17   22   0.326  -0.038   0.060
    1UNL    C18   23   0.381   0.083   0.134
    1UNL     O4   24   0.414  -0.149   0.078
    1UNL    C19   25   0.167   0.085  -0.116
    1UNL    C20   26   0.063   0.025  -0.218
    1UNL    C21   27   0.019  -0.113  -0.169
    1UNL     H1   28   0.265   0.496   0.075
    1UNL     H2   29   0.113   0.512  -0.004
    1UNL     H3   30   0.126   0.447   0.167
    1UNL     H4   31  -0.178   0.164   0.092
    1UNL     H5   32  -0.630   0.090   0.096
    1UNL     H6   33  -0.614   0.202   0.231
    1UNL     H7   34  -0.609   0.021   0.240
    1UNL     H8   35  -0.588  -0.087   0.006
    1UNL     H9   36  -0.505  -0.265  -0.104
    1UNL    H10   37  -0.243  -0.298  -0.145
    1UNL    H11   38   0.037  -0.208   0.140
    1UNL    H12   39  -0.081  -0.295   0.069
    1UNL    H13   40   0.190  -0.326   0.012
    1UNL    H14   41   0.073  -0.400  -0.101
    1UNL    H15   42   0.346  -0.211  -0.129
    1UNL    H16   43   0.293  -0.122  -0.278
    1UNL    H17   44   0.381   0.023  -0.134
    1UNL    H18   45   0.233  -0.080   0.120
    1UNL    H19   46   0.471   0.113   0.098
    1UNL    H20   47   0.317   0.172   0.138
    1UNL    H21   48   0.408   0.055   0.237
    1UNL    H22   49   0.492  -0.126   0.025
    1UNL    H23   50   0.194   0.177  -0.160
    1UNL    H24   51   0.093   0.020  -0.322
    1UNL    H25   52  -0.026   0.087  -0.208
    1UNL    H26   53  -0.044  -0.148  -0.249
   0.00000   0.00000   0.00000   0.00000   0.00000   0.00000   0.00000   0.00000   0.00000
Generated with MDTraj, t= 63.0
 53
    1UNL     C1    1   0.153   0.462   0.075
    1UNL     O1    2   0.179   0.331   0.037
    1UNL     C2    3   0.075   0.252   0.067
    1UNL     O2    4  -0.017   0.296   0.137
    1UNL     C3    5   0.079   0.113   0.017
    1UNL     C4    6  -0.028   0.027   0.047
    1UNL     N1    7  -0.147   0.053   0.106
    1UNL     C5    8  -0.247  -0.030   0.062
    1UNL     C6    9  -0.386  -0.007   0.079
    1UNL     O3   10  -0.437   0.094   0.160
    1UNL     C7   11  -0.574   0.124   0.149
    1UNL     C8   12  -0.464  -0.099   0.011
    1UNL     C9   13  -0.416  -0.183  -0.093
    1UNL    C10   14  -0.285  -0.202  -0.109
    1UNL    C11   15  -0.196  -0.137  -0.018
    1UNL    C12   16  -0.046  -0.110  -0.019
    1UNL    C13   17   0.022  -0.225   0.054
    1UNL    C14   18   0.095  -0.311  -0.054
    1UNL     N2   19   0.127  -0.212  -0.156
    1UNL    C15   20   0.260  -0.159  -0.171
    1UNL    C16   21   0.290  -0.019  -0.093
    1UNL    C17   22   0.327  -0.043   0.052
    1UNL    C18   23   0.405   0.078   0.104
    1UNL     O4   24   0.401  -0.165   0.085
    1UNL    C19   25   0.164   0.080  -0.106
    1UNL    C20   26   0.061   0.030  -0.215
    1UNL    C21   27   0.015  -0.110  -0.164
    1UNL     H1   28   0.227   0.524   0.028
    1UNL     H2   29   0.059   0.510   0.036
    1UNL     H3   30   0.160   0.471   0.182
    1UNL     H4   31  -0.162   0.155   0.132
    1UNL     H5   32  -0.596   0.194   0.073
    1UNL     H6   33  -0.604   0.162   0.251
    1UNL     H7   34  -0.644   0.038   0.139
    1UNL     H8   35  -0.570  -0.094   0.036
    1UNL     H9   36  -0.486  -0.232  -0.159
    1UNL    H10   37  -0.234  -0.265  -0.177
    1UNL    H11   38   0.071  -0.178   0.135
    1UNL    H12   39  -0.055  -0.289   0.094
    1UNL    H13   40   0.176  -0.366  -0.005
    1UNL    H14   41   0.020  -0.381  -0.098
    1UNL    H15   42   0.331  -0.231  -0.125
    1UNL    H16   43   0.280  -0.145  -0.281
    1UNL    H17   44   0.377   0.013  -0.143
    1UNL    H18   45   0.235  -0.055   0.123
    1UNL    H19   46   0.504   0.070   0.066
    1UNL    H20   47   0.363   0.171   0.070
    1UNL    H21   48   0.418   0.078   0.213
    1UNL    H22   49   0.475  -0.171   0.021
    1UNL    H23   50   0.195   0.175  -0.135
    1UNL    H24   51   0.116   0.014  -0.308
    1UNL    H25   52  -0.029   0.093  -0.227
    1UNL    H26   53  -0.063  -0.138  -0.233
   0.00000   0.00000   0.00000   0.00000   0.00000   0.00000   0.00000   0.00000   0.00000
Generated with MDTraj, t= 64.0
 53
    1UNL     C1    1   0.172   0.448   0.092
    1UNL     O1    2   0.167   0.324   0.018
    1UNL     C2    3   0.069   0.241   0.061
    1UNL     O2    4  -0.007   0.273   0.153
    1UNL     C3    5   0.072   0.108   0.002
    1UNL     C4    6  -0.027   0.022   0.036
    1UNL     N1    7  -0.148   0.057   0.096
    1UNL     C5    8  -0.254  -0.025   0.059
    1UNL     C6    9  -0.396  -0.018   0.080
    1UNL     O3   10  -0.436   0.080   0.183
    1UNL     C7   11  -0.542   0.163   0.142
    1UNL     C8   12  -0.484  -0.105   0.013
    1UNL     C9   13  -0.433  -0.201  -0.079
    1UNL    C10   14  -0.295  -0.205  -0.105
    1UNL    C11   15  -0.200  -0.119  -0.038
    1UNL    C12   16  -0.050  -0.113  -0.039
    1UNL    C13   17   0.012  -0.228   0.052
    1UNL    C14   18   0.116  -0.295  -0.037
    1UNL     N2   19   0.144  -0.208  -0.150
    1UNL    C15   20   0.279  -0.144  -0.170
    1UNL    C16   21   0.283  -0.007  -0.093
    1UNL    C17   22   0.323  -0.035   0.054
    1UNL    C18   23   0.385   0.085   0.126
    1UNL     O4   24   0.395  -0.156   0.080
    1UNL    C19   25   0.159   0.084  -0.118
    1UNL    C20   26   0.069   0.019  -0.223
    1UNL    C21   27   0.019  -0.120  -0.171
    1UNL     H1   28   0.240   0.518   0.046
    1UNL     H2   29   0.078   0.507   0.088
    1UNL     H3   30   0.197   0.424   0.192
    1UNL     H4   31  -0.156   0.126   0.165
    1UNL     H5   32  -0.561   0.172   0.036
    1UNL     H6   33  -0.522   0.265   0.188
    1UNL     H7   34  -0.624   0.133   0.214
    1UNL     H8   35  -0.588  -0.088   0.019
    1UNL     H9   36  -0.497  -0.263  -0.138
    1UNL    H10   37  -0.250  -0.285  -0.162
    1UNL    H11   38   0.058  -0.193   0.137
    1UNL    H12   39  -0.072  -0.290   0.085
    1UNL    H13   40   0.200  -0.310   0.031
    1UNL    H14   41   0.076  -0.395  -0.067
    1UNL    H15   42   0.362  -0.212  -0.135
    1UNL    H16   43   0.294  -0.115  -0.279
    1UNL    H17   44   0.362   0.049  -0.134
    1UNL    H18   45   0.220  -0.057   0.107
    1UNL    H19   46   0.470   0.126   0.063
    1UNL    H20   47   0.308   0.156   0.135
    1UNL    H21   48   0.426   0.060   0.221
    1UNL    H22   49   0.479  -0.164   0.029
    1UNL    H23   50   0.179   0.178  -0.159
    1UNL    H24   51   0.125  -0.004  -0.315
    1UNL    H25   52  -0.021   0.081  -0.239
    1UNL    H26   53  -0.048  -0.166  -0.245
   0.00000   0.00000   0.00000   0.00000   0.00000   0.00000   0.00000   0.00000   0.00000
Generated with MDTraj, t= 65.0
 53
    1UNL     C1    1   0.177   0.439   0.097
    1UNL     O1    2   0.175   0.321   0.021
    1UNL     C2    3   0.086   0.229   0.064
    1UNL     O2    4   0.019   0.241   0.166
    1UNL     C3    5   0.065   0.105  -0.007
    1UNL     C4    6  -0.030   0.019   0.027
    1UNL     N1    7  -0.134   0.042   0.111
    1UNL     C5    8  -0.247  -0.030   0.057
    1UNL     C6    9  -0.387  -0.012   0.088
    1UNL     O3   10  -0.421   0.085   0.175
    1UNL     C7   11  -0.530   0.171   0.118
    1UNL     C8   12  -0.479  -0.099   0.027
    1UNL     C9   13  -0.431  -0.200  -0.057
    1UNL    C10   14  -0.292  -0.206  -0.095
    1UNL    C11   15  -0.212  -0.115  -0.044
    1UNL    C12   16  -0.060  -0.113  -0.046
    1UNL    C13   17  -0.012  -0.239   0.036
    1UNL    C14   18   0.121  -0.285  -0.036
    1UNL     N2   19   0.145  -0.205  -0.155
    1UNL    C15   20   0.276  -0.138  -0.172
    1UNL    C16   21   0.283  -0.004  -0.097
    1UNL    C17   22   0.302  -0.024   0.058
    1UNL    C18   23   0.337   0.100   0.143
    1UNL     O4   24   0.398  -0.121   0.084
    1UNL    C19   25   0.153   0.077  -0.124
    1UNL    C20   26   0.062   0.013  -0.236
    1UNL    C21   27   0.022  -0.127  -0.180
    1UNL     H1   28   0.260   0.496   0.056
    1UNL     H2   29   0.091   0.507   0.073
    1UNL     H3   30   0.186   0.416   0.202
    1UNL     H4   31  -0.140   0.128   0.159
    1UNL     H5   32  -0.545   0.166   0.011
    1UNL     H6   33  -0.514   0.278   0.146
    1UNL     H7   34  -0.618   0.146   0.185
    1UNL     H8   35  -0.584  -0.093   0.052
    1UNL     H9   36  -0.499  -0.277  -0.102
    1UNL    H10   37  -0.258  -0.286  -0.157
    1UNL    H11   38   0.008  -0.217   0.135
    1UNL    H12   39  -0.089  -0.316   0.042
    1UNL    H13   40   0.207  -0.280   0.029
    1UNL    H14   41   0.103  -0.394  -0.052
    1UNL    H15   42   0.354  -0.209  -0.135
    1UNL    H16   43   0.294  -0.121  -0.284
    1UNL    H17   44   0.369   0.049  -0.128
    1UNL    H18   45   0.195  -0.066   0.082
    1UNL    H19   46   0.450   0.120   0.131
    1UNL    H20   47   0.287   0.189   0.117
    1UNL    H21   48   0.325   0.086   0.246
    1UNL    H22   49   0.486  -0.097   0.046
    1UNL    H23   50   0.184   0.168  -0.165
    1UNL    H24   51   0.114  -0.011  -0.330
    1UNL    H25   52  -0.028   0.077  -0.248
    1UNL    H26   53  -0.039  -0.182  -0.252
   0.00000   0.00000   0.00000   0.00000   0.00000   0.00000   0.00000   0.00000   0.00000
Generated with MDTraj, t= 66.0
 53
    1UNL     C1    1   0.163   0.456   0.093
    1UNL     O1    2   0.154   0.339   0.012
    1UNL     C2    3   0.078   0.241   0.076
    1UNL     O2    4  -0.003   0.255   0.169
    1UNL     C3    5   0.074   0.101   0.014
    1UNL     C4    6  -0.030   0.017   0.036
    1UNL     N1    7  -0.151   0.045   0.104
    1UNL     C5    8  -0.255  -0.034   0.053
    1UNL     C6    9  -0.389  -0.006   0.076
    1UNL     O3   10  -0.415   0.097   0.166
    1UNL     C7   11  -0.534   0.162   0.127
    1UNL     C8   12  -0.480  -0.093   0.005
    1UNL     C9   13  -0.431  -0.195  -0.075
    1UNL    C10   14  -0.291  -0.219  -0.087
    1UNL    C11   15  -0.207  -0.132  -0.029
    1UNL    C12   16  -0.055  -0.111  -0.029
    1UNL    C13   17   0.020  -0.221   0.049
    1UNL    C14   18   0.113  -0.299  -0.048
    1UNL     N2   19   0.134  -0.210  -0.164
    1UNL    C15   20   0.267  -0.144  -0.170
    1UNL    C16   21   0.280  -0.014  -0.094
    1UNL    C17   22   0.325  -0.035   0.062
    1UNL    C18   23   0.390   0.088   0.120
    1UNL     O4   24   0.400  -0.152   0.083
    1UNL    C19   25   0.159   0.081  -0.118
    1UNL    C20   26   0.058   0.019  -0.220
    1UNL    C21   27   0.019  -0.115  -0.172
    1UNL     H1   28   0.203   0.541   0.035
    1UNL     H2   29   0.058   0.487   0.120
    1UNL     H3   30   0.215   0.433   0.186
    1UNL     H4   31  -0.181   0.143   0.133
    1UNL     H5   32  -0.514   0.243   0.059
    1UNL     H6   33  -0.572   0.206   0.220
    1UNL     H7   34  -0.614   0.090   0.086
    1UNL     H8   35  -0.584  -0.082   0.028
    1UNL     H9   36  -0.504  -0.265  -0.112
    1UNL    H10   37  -0.259  -0.284  -0.168
    1UNL    H11   38   0.066  -0.180   0.136
    1UNL    H12   39  -0.046  -0.292   0.095
    1UNL    H13   40   0.199  -0.339   0.005
    1UNL    H14   41   0.065  -0.392  -0.088
    1UNL    H15   42   0.351  -0.218  -0.157
    1UNL    H16   43   0.282  -0.120  -0.280
    1UNL    H17   44   0.374   0.026  -0.125
    1UNL    H18   45   0.219  -0.051   0.109
    1UNL    H19   46   0.481   0.123   0.064
    1UNL    H20   47   0.317   0.173   0.124
    1UNL    H21   48   0.422   0.072   0.218
    1UNL    H22   49   0.485  -0.146   0.035
    1UNL    H23   50   0.199   0.168  -0.159
    1UNL    H24   51   0.100   0.012  -0.323
    1UNL    H25   52  -0.037   0.074  -0.215
    1UNL    H26   53  -0.042  -0.162  -0.252
   0.00000   0.00000   0.00000   0.00000   0.00000   0.00000   0.00000   0.00000   0.00000
Generated with MDTraj, t= 67.0
 53
    1UNL     C1    1   0.140   0.467   0.067
    1UNL     O1    2   0.170   0.335   0.034
    1UNL     C2    3   0.076   0.240   0.081
    1UNL     O2    4  -0.012   0.273   0.160
    1UNL     C3    5   0.082   0.111   0.024
    1UNL     C4    6  -0.015   0.021   0.059
    1UNL     N1    7  -0.141   0.058   0.111
    1UNL     C5    8  -0.248  -0.018   0.056
    1UNL     C6    9  -0.386  -0.008   0.076
    1UNL     O3   10  -0.449   0.086   0.167
    1UNL     C7   11  -0.563   0.135   0.115
    1UNL     C8   12  -0.471  -0.089   0.007
    1UNL     C9   13  -0.425  -0.185  -0.084
    1UNL    C10   14  -0.290  -0.201  -0.097
    1UNL    C11   15  -0.200  -0.118  -0.026
    1UNL    C12   16  -0.050  -0.116  -0.018
    1UNL    C13   17   0.015  -0.239   0.053
    1UNL    C14   18   0.099  -0.305  -0.054
    1UNL     N2   19   0.128  -0.213  -0.157
    1UNL    C15   20   0.262  -0.150  -0.169
    1UNL    C16   21   0.285  -0.019  -0.099
    1UNL    C17   22   0.340  -0.043   0.053
    1UNL    C18   23   0.416   0.078   0.103
    1UNL     O4   24   0.410  -0.166   0.065
    1UNL    C19   25   0.162   0.085  -0.102
    1UNL    C20   26   0.057   0.024  -0.204
    1UNL    C21   27   0.012  -0.117  -0.162
    1UNL     H1   28   0.194   0.525  -0.008
    1UNL     H2   29   0.030   0.490   0.050
    1UNL     H3   30   0.164   0.487   0.171
    1UNL     H4   31  -0.159   0.162   0.139
    1UNL     H5   32  -0.545   0.152   0.010
    1UNL     H6   33  -0.566   0.236   0.155
    1UNL     H7   34  -0.659   0.069   0.130
    1UNL     H8   35  -0.573  -0.094   0.035
    1UNL     H9   36  -0.483  -0.243  -0.157
    1UNL    H10   37  -0.240  -0.259  -0.167
    1UNL    H11   38   0.079  -0.191   0.130
    1UNL    H12   39  -0.051  -0.303   0.105
    1UNL    H13   40   0.196  -0.337  -0.020
    1UNL    H14   41   0.045  -0.394  -0.094
    1UNL    H15   42   0.344  -0.229  -0.159
    1UNL    H16   43   0.279  -0.132  -0.279
    1UNL    H17   44   0.374   0.022  -0.142
    1UNL    H18   45   0.237  -0.045   0.112
    1UNL    H19   46   0.501   0.097   0.042
    1UNL    H20   47   0.346   0.167   0.112
    1UNL    H21   48   0.451   0.051   0.204
    1UNL    H22   49   0.491  -0.163   0.010
    1UNL    H23   50   0.198   0.177  -0.134
    1UNL    H24   51   0.096   0.020  -0.307
    1UNL    H25   52  -0.034   0.086  -0.208
    1UNL    H26   53  -0.059  -0.161  -0.235
   0.00000   0.00000   0.00000   0.00000   0.00000   0.00000   0.00000   0.00000   0.00000
Generated with MDTraj, t= 68.0
 53
    1UNL     C1    1   0.175   0.451   0.067
    1UNL     O1    2   0.169   0.318   0.023
    1UNL     C2    3   0.073   0.241   0.080
    1UNL     O2    4  -0.001   0.270   0.172
    1UNL     C3    5   0.071   0.110   0.011
    1UNL     C4    6  -0.028   0.011   0.045
    1UNL     N1    7  -0.147   0.055   0.099
    1UNL     C5    8  -0.251  -0.023   0.051
    1UNL     C6    9  -0.394  -0.003   0.061
    1UNL     O3   10  -0.432   0.109   0.140
    1UNL     C7   11  -0.570   0.131   0.153
    1UNL     C8   12  -0.485  -0.092   0.009
    1UNL     C9   13  -0.427  -0.198  -0.063
    1UNL    C10   14  -0.295  -0.214  -0.090
    1UNL    C11   15  -0.202  -0.121  -0.037
    1UNL    C12   16  -0.057  -0.115  -0.033
    1UNL    C13   17   0.016  -0.231   0.059
    1UNL    C14   18   0.112  -0.298  -0.038
    1UNL     N2   19   0.132  -0.204  -0.152
    1UNL    C15   20   0.267  -0.140  -0.173
    1UNL    C16   21   0.283  -0.010  -0.097
    1UNL    C17   22   0.332  -0.046   0.056
    1UNL    C18   23   0.381   0.074   0.131
    1UNL     O4   24   0.430  -0.148   0.058
    1UNL    C19   25   0.158   0.086  -0.107
    1UNL    C20   26   0.063   0.030  -0.216
    1UNL    C21   27   0.015  -0.112  -0.170
    1UNL     H1   28   0.277   0.487   0.066
    1UNL     H2   29   0.117   0.518  -0.002
    1UNL     H3   30   0.121   0.457   0.160
    1UNL     H4   31  -0.146   0.128   0.173
    1UNL     H5   32  -0.606   0.141   0.050
    1UNL     H6   33  -0.582   0.229   0.197
    1UNL     H7   34  -0.625   0.039   0.199
    1UNL     H8   35  -0.594  -0.089   0.028
    1UNL     H9   36  -0.500  -0.257  -0.117
    1UNL    H10   37  -0.252  -0.301  -0.142
    1UNL    H11   38   0.073  -0.197   0.149
    1UNL    H12   39  -0.059  -0.297   0.089
    1UNL    H13   40   0.208  -0.325   0.003
    1UNL    H14   41   0.061  -0.387  -0.081
    1UNL    H15   42   0.353  -0.206  -0.139
    1UNL    H16   43   0.292  -0.142  -0.283
    1UNL    H17   44   0.372   0.042  -0.132
    1UNL    H18   45   0.233  -0.084   0.109
    1UNL    H19   46   0.474   0.100   0.095
    1UNL    H20   47   0.306   0.156   0.131
    1UNL    H21   48   0.395   0.034   0.238
    1UNL    H22   49   0.514  -0.126   0.011
    1UNL    H23   50   0.185   0.184  -0.133
    1UNL    H24   51   0.111   0.034  -0.316
    1UNL    H25   52  -0.027   0.089  -0.236
    1UNL    H26   53  -0.054  -0.159  -0.244
   0.00000   0.00000   0.00000   0.00000   0.00000   0.00000   0.00000   0.00000   0.00000
Generated with MDTraj, t= 69.0
 53
    1UNL     C1    1   0.189   0.433   0.112
    1UNL     O1    2   0.192   0.319   0.034
    1UNL     C2    3   0.086   0.237   0.065
    1UNL     O2    4   0.007   0.258   0.157
    1UNL     C3    5   0.072   0.117  -0.012
    1UNL     C4    6  -0.032   0.033   0.021
    1UNL     N1    7  -0.147   0.063   0.083
    1UNL     C5    8  -0.259  -0.017   0.040
    1UNL     C6    9  -0.391   0.010   0.058
    1UNL     O3   10  -0.441   0.123   0.124
    1UNL     C7   11  -0.563   0.115   0.204
    1UNL     C8   12  -0.474  -0.096   0.011
    1UNL     C9   13  -0.424  -0.208  -0.057
    1UNL    C10   14  -0.291  -0.219  -0.081
    1UNL    C11   15  -0.209  -0.121  -0.035
    1UNL    C12   16  -0.056  -0.109  -0.041
    1UNL    C13   17   0.002  -0.225   0.055
    1UNL    C14   18   0.115  -0.298  -0.025
    1UNL     N2   19   0.134  -0.214  -0.155
    1UNL    C15   20   0.269  -0.149  -0.174
    1UNL    C16   21   0.286  -0.015  -0.101
    1UNL    C17   22   0.314  -0.040   0.058
    1UNL    C18   23   0.329   0.087   0.136
    1UNL     O4   24   0.427  -0.126   0.079
    1UNL    C19   25   0.163   0.083  -0.130
    1UNL    C20   26   0.064   0.015  -0.232
    1UNL    C21   27   0.022  -0.120  -0.178
    1UNL     H1   28   0.270   0.495   0.078
    1UNL     H2   29   0.094   0.489   0.097
    1UNL     H3   30   0.185   0.402   0.214
    1UNL     H4   31  -0.162   0.159   0.091
    1UNL     H5   32  -0.647   0.093   0.136
    1UNL     H6   33  -0.577   0.212   0.244
    1UNL     H7   34  -0.557   0.023   0.271
    1UNL     H8   35  -0.579  -0.100   0.033
    1UNL     H9   36  -0.494  -0.281  -0.098
    1UNL    H10   37  -0.259  -0.309  -0.128
    1UNL    H11   38   0.035  -0.183   0.153
    1UNL    H12   39  -0.069  -0.300   0.076
    1UNL    H13   40   0.208  -0.301   0.028
    1UNL    H14   41   0.089  -0.400  -0.060
    1UNL    H15   42   0.344  -0.220  -0.128
    1UNL    H16   43   0.308  -0.141  -0.277
    1UNL    H17   44   0.378   0.034  -0.138
    1UNL    H18   45   0.226  -0.104   0.103
    1UNL    H19   46   0.375   0.168   0.083
    1UNL    H20   47   0.239   0.121   0.183
    1UNL    H21   48   0.400   0.063   0.222
    1UNL    H22   49   0.509  -0.083   0.042
    1UNL    H23   50   0.197   0.169  -0.176
    1UNL    H24   51   0.109  -0.008  -0.331
    1UNL    H25   52  -0.012   0.088  -0.265
    1UNL    H26   53  -0.044  -0.166  -0.255
   0.00000   0.00000   0.00000   0.00000   0.00000   0.00000   0.00000   0.00000   0.00000
Generated with MDTraj, t= 70.0
 53
    1UNL     C1    1   0.217   0.428   0.111
    1UNL     O1    2   0.196   0.319   0.021
    1UNL     C2    3   0.084   0.249   0.057
    1UNL     O2    4   0.001   0.283   0.139
    1UNL     C3    5   0.072   0.115  -0.001
    1UNL     C4    6  -0.039   0.040   0.009
    1UNL     N1    7  -0.164   0.081   0.057
    1UNL     C5    8  -0.266  -0.016   0.023
    1UNL     C6    9  -0.402  -0.008   0.062
    1UNL     O3   10  -0.437   0.106   0.151
    1UNL     C7   11  -0.553   0.092   0.232
    1UNL     C8   12  -0.480  -0.109   0.002
    1UNL     C9   13  -0.430  -0.210  -0.073
    1UNL    C10   14  -0.289  -0.218  -0.094
    1UNL    C11   15  -0.210  -0.115  -0.052
    1UNL    C12   16  -0.061  -0.103  -0.043
    1UNL    C13   17  -0.013  -0.223   0.047
    1UNL    C14   18   0.087  -0.302  -0.032
    1UNL     N2   19   0.131  -0.216  -0.145
    1UNL    C15   20   0.272  -0.155  -0.148
    1UNL    C16   21   0.288  -0.016  -0.078
    1UNL    C17   22   0.327  -0.033   0.073
    1UNL    C18   23   0.364   0.099   0.139
    1UNL     O4   24   0.433  -0.131   0.078
    1UNL    C19   25   0.163   0.082  -0.121
    1UNL    C20   26   0.069   0.011  -0.234
    1UNL    C21   27   0.013  -0.118  -0.173
    1UNL     H1   28   0.255   0.514   0.058
    1UNL     H2   29   0.121   0.458   0.160
    1UNL     H3   30   0.272   0.394   0.197
    1UNL     H4   31  -0.181   0.160   0.118
    1UNL     H5   32  -0.647   0.105   0.173
    1UNL     H6   33  -0.553   0.172   0.299
    1UNL     H7   34  -0.548  -0.013   0.270
    1UNL     H8   35  -0.585  -0.110   0.023
    1UNL     H9   36  -0.494  -0.282  -0.113
    1UNL    H10   37  -0.258  -0.298  -0.157
    1UNL    H11   38   0.033  -0.183   0.136
    1UNL    H12   39  -0.096  -0.281   0.086
    1UNL    H13   40   0.178  -0.317   0.023
    1UNL    H14   41   0.051  -0.400  -0.068
    1UNL    H15   42   0.361  -0.216  -0.116
    1UNL    H16   43   0.293  -0.138  -0.254
    1UNL    H17   44   0.380   0.025  -0.127
    1UNL    H18   45   0.242  -0.088   0.126
    1UNL    H19   46   0.458   0.142   0.094
    1UNL    H20   47   0.289   0.173   0.131
    1UNL    H21   48   0.390   0.088   0.245
    1UNL    H22   49   0.508  -0.086   0.034
    1UNL    H23   50   0.210   0.167  -0.157
    1UNL    H24   51   0.119   0.001  -0.333
    1UNL    H25   52  -0.010   0.079  -0.269
    1UNL    H26   53  -0.047  -0.173  -0.252
   0.00000   0.00000   0.00000   0.00000   0.00000   0.00000   0.00000   0.00000   0.00000
Generated with MDTraj, t= 71.0
 53
    1UNL     C1    1   0.178   0.451   0.063
    1UNL     O1    2   0.200   0.318   0.029
    1UNL     C2    3   0.087   0.244   0.056
    1UNL     O2    4  -0.000   0.282   0.130
    1UNL     C3    5   0.078   0.109   0.005
    1UNL     C4    6  -0.032   0.035   0.021
    1UNL     N1    7  -0.150   0.077   0.087
    1UNL     C5    8  -0.256  -0.009   0.050
    1UNL     C6    9  -0.403  -0.008   0.075
    1UNL     O3   10  -0.458   0.086   0.160
    1UNL     C7   11  -0.569   0.050   0.234
    1UNL     C8   12  -0.480  -0.095  -0.001
    1UNL     C9   13  -0.421  -0.181  -0.088
    1UNL    C10   14  -0.290  -0.194  -0.109
    1UNL    C11   15  -0.216  -0.100  -0.051
    1UNL    C12   16  -0.060  -0.096  -0.044
    1UNL    C13   17  -0.016  -0.211   0.047
    1UNL    C14   18   0.082  -0.294  -0.028
    1UNL     N2   19   0.134  -0.218  -0.149
    1UNL    C15   20   0.274  -0.160  -0.152
    1UNL    C16   21   0.292  -0.024  -0.078
    1UNL    C17   22   0.325  -0.036   0.071
    1UNL    C18   23   0.404   0.089   0.117
    1UNL     O4   24   0.406  -0.147   0.100
    1UNL    C19   25   0.170   0.071  -0.112
    1UNL    C20   26   0.084   0.016  -0.230
    1UNL    C21   27   0.022  -0.115  -0.184
    1UNL     H1   28   0.271   0.506   0.044
    1UNL     H2   29   0.100   0.501  -0.002
    1UNL     H3   30   0.136   0.457   0.163
    1UNL     H4   31  -0.165   0.182   0.100
    1UNL     H5   32  -0.665   0.040   0.177
    1UNL     H6   33  -0.578   0.134   0.293
    1UNL     H7   34  -0.538  -0.045   0.282
    1UNL     H8   35  -0.589  -0.083   0.006
    1UNL     H9   36  -0.473  -0.262  -0.151
    1UNL    H10   37  -0.243  -0.253  -0.192
    1UNL    H11   38   0.023  -0.165   0.134
    1UNL    H12   39  -0.102  -0.266   0.087
    1UNL    H13   40   0.168  -0.327   0.028
    1UNL    H14   41   0.033  -0.386  -0.062
    1UNL    H15   42   0.352  -0.222  -0.105
    1UNL    H16   43   0.310  -0.138  -0.252
    1UNL    H17   44   0.380   0.025  -0.128
    1UNL    H18   45   0.236  -0.057   0.138
    1UNL    H19   46   0.483   0.111   0.036
    1UNL    H20   47   0.335   0.176   0.117
    1UNL    H21   48   0.455   0.077   0.208
    1UNL    H22   49   0.494  -0.128   0.062
    1UNL    H23   50   0.220   0.159  -0.134
    1UNL    H24   51   0.145   0.012  -0.323
    1UNL    H25   52   0.008   0.087  -0.265
    1UNL    H26   53  -0.053  -0.143  -0.264
   0.00000   0.00000   0.00000   0.00000   0.00000   0.00000   0.00000   0.00000   0.00000
Generated with MDTraj, t= 72.0
 53
    1UNL     C1    1   0.163   0.459   0.046
    1UNL     O1    2   0.169   0.330  -0.005
    1UNL     C2    3   0.072   0.255   0.058
    1UNL     O2    4  -0.009   0.290   0.143
    1UNL     C3    5   0.078   0.114   0.011
    1UNL     C4    6  -0.025   0.030   0.036
    1UNL     N1    7  -0.146   0.059   0.102
    1UNL     C5    8  -0.251  -0.017   0.047
    1UNL     C6    9  -0.385   0.002   0.066
    1UNL     O3   10  -0.422   0.089   0.169
    1UNL     C7   11  -0.542   0.049   0.234
    1UNL     C8   12  -0.465  -0.065  -0.022
    1UNL     C9   13  -0.423  -0.161  -0.106
    1UNL    C10   14  -0.286  -0.191  -0.117
    1UNL    C11   15  -0.197  -0.117  -0.042
    1UNL    C12   16  -0.051  -0.107  -0.036
    1UNL    C13   17  -0.000  -0.224   0.057
    1UNL    C14   18   0.096  -0.309  -0.034
    1UNL     N2   19   0.137  -0.216  -0.153
    1UNL    C15   20   0.269  -0.154  -0.161
    1UNL    C16   21   0.286  -0.026  -0.075
    1UNL    C17   22   0.309  -0.038   0.071
    1UNL    C18   23   0.392   0.080   0.125
    1UNL     O4   24   0.373  -0.163   0.104
    1UNL    C19   25   0.165   0.075  -0.108
    1UNL    C20   26   0.072   0.016  -0.219
    1UNL    C21   27   0.025  -0.118  -0.171
    1UNL     H1   28   0.266   0.494   0.057
    1UNL     H2   29   0.106   0.534  -0.018
    1UNL     H3   30   0.108   0.461   0.141
    1UNL     H4   31  -0.180   0.149   0.147
    1UNL     H5   32  -0.640   0.065   0.182
    1UNL     H6   33  -0.552   0.109   0.316
    1UNL     H7   34  -0.529  -0.056   0.261
    1UNL     H8   35  -0.569  -0.056  -0.015
    1UNL     H9   36  -0.493  -0.201  -0.167
    1UNL    H10   37  -0.245  -0.262  -0.180
    1UNL    H11   38   0.041  -0.185   0.144
    1UNL    H12   39  -0.086  -0.287   0.086
    1UNL    H13   40   0.180  -0.339   0.027
    1UNL    H14   41   0.052  -0.398  -0.081
    1UNL    H15   42   0.342  -0.216  -0.108
    1UNL    H16   43   0.298  -0.131  -0.261
    1UNL    H17   44   0.372   0.035  -0.116
    1UNL    H18   45   0.210  -0.041   0.128
    1UNL    H19   46   0.497   0.069   0.086
    1UNL    H20   47   0.355   0.180   0.086
    1UNL    H21   48   0.399   0.082   0.230
    1UNL    H22   49   0.465  -0.162   0.070
    1UNL    H23   50   0.201   0.166  -0.143
    1UNL    H24   51   0.122   0.008  -0.318
    1UNL    H25   52  -0.011   0.083  -0.243
    1UNL    H26   53  -0.046  -0.159  -0.249
   0.00000   0.00000   0.00000   0.00000   0.00000   0.00000   0.00000   0.00000   0.00000
Generated with MDTraj, t= 73.0
 53
    1UNL     C1    1   0.143   0.459   0.050
    1UNL     O1    2   0.165   0.332  -0.006
    1UNL     C2    3   0.073   0.247   0.055
    1UNL     O2    4   0.000   0.282   0.147
    1UNL     C3    5   0.072   0.112  -0.005
    1UNL     C4    6  -0.022   0.016   0.032
    1UNL     N1    7  -0.133   0.046   0.103
    1UNL     C5    8  -0.245  -0.023   0.053
    1UNL     C6    9  -0.382   0.013   0.070
    1UNL     O3   10  -0.422   0.118   0.155
    1UNL     C7   11  -0.532   0.080   0.246
    1UNL     C8   12  -0.471  -0.069   0.000
    1UNL     C9   13  -0.429  -0.166  -0.100
    1UNL    C10   14  -0.296  -0.178  -0.122
    1UNL    C11   15  -0.203  -0.113  -0.043
    1UNL    C12   16  -0.045  -0.122  -0.043
    1UNL    C13   17   0.008  -0.243   0.049
    1UNL    C14   18   0.124  -0.306  -0.035
    1UNL     N2   19   0.152  -0.214  -0.143
    1UNL    C15   20   0.285  -0.152  -0.164
    1UNL    C16   21   0.291  -0.009  -0.080
    1UNL    C17   22   0.297  -0.042   0.070
    1UNL    C18   23   0.326   0.074   0.159
    1UNL     O4   24   0.378  -0.163   0.095
    1UNL    C19   25   0.165   0.085  -0.124
    1UNL    C20   26   0.075   0.012  -0.231
    1UNL    C21   27   0.032  -0.132  -0.178
    1UNL     H1   28   0.156   0.533  -0.029
    1UNL     H2   29   0.045   0.473   0.102
    1UNL     H3   30   0.214   0.478   0.129
    1UNL     H4   31  -0.141   0.132   0.157
    1UNL     H5   32  -0.579   0.166   0.300
    1UNL     H6   33  -0.505   0.017   0.323
    1UNL     H7   34  -0.605   0.023   0.188
    1UNL     H8   35  -0.576  -0.040   0.009
    1UNL     H9   36  -0.504  -0.228  -0.157
    1UNL    H10   37  -0.274  -0.262  -0.193
    1UNL    H11   38   0.041  -0.208   0.141
    1UNL    H12   39  -0.068  -0.322   0.063
    1UNL    H13   40   0.217  -0.303   0.022
    1UNL    H14   41   0.101  -0.408  -0.070
    1UNL    H15   42   0.363  -0.221  -0.138
    1UNL    H16   43   0.297  -0.126  -0.266
    1UNL    H17   44   0.378   0.058  -0.108
    1UNL    H18   45   0.199  -0.085   0.105
    1UNL    H19   46   0.427   0.103   0.139
    1UNL    H20   47   0.268   0.168   0.138
    1UNL    H21   48   0.317   0.050   0.267
    1UNL    H22   49   0.473  -0.147   0.073
    1UNL    H23   50   0.192   0.176  -0.165
    1UNL    H24   51   0.129  -0.001  -0.325
    1UNL    H25   52  -0.014   0.071  -0.254
    1UNL    H26   53  -0.035  -0.189  -0.249
   0.00000   0.00000   0.00000   0.00000   0.00000   0.00000   0.00000   0.00000   0.00000
Generated with MDTraj, t= 74.0
 53
    1UNL     C1    1   0.141   0.457   0.059
    1UNL     O1    2   0.158   0.334  -0.004
    1UNL     C2    3   0.076   0.248   0.056
    1UNL     O2    4   0.009   0.272   0.155
    1UNL     C3    5   0.073   0.112  -0.003
    1UNL     C4    6  -0.024   0.017   0.032
    1UNL     N1    7  -0.142   0.061   0.088
    1UNL     C5    8  -0.248  -0.013   0.028
    1UNL     C6    9  -0.384   0.001   0.066
    1UNL     O3   10  -0.409   0.108   0.155
    1UNL     C7   11  -0.524   0.096   0.230
    1UNL     C8   12  -0.478  -0.082   0.009
    1UNL     C9   13  -0.439  -0.181  -0.080
    1UNL    C10   14  -0.304  -0.199  -0.117
    1UNL    C11   15  -0.204  -0.112  -0.058
    1UNL    C12   16  -0.051  -0.120  -0.046
    1UNL    C13   17  -0.003  -0.236   0.045
    1UNL    C14   18   0.110  -0.297  -0.037
    1UNL     N2   19   0.145  -0.216  -0.158
    1UNL    C15   20   0.279  -0.149  -0.158
    1UNL    C16   21   0.287  -0.014  -0.073
    1UNL    C17   22   0.307  -0.046   0.074
    1UNL    C18   23   0.341   0.072   0.160
    1UNL     O4   24   0.403  -0.145   0.108
    1UNL    C19   25   0.166   0.077  -0.119
    1UNL    C20   26   0.081   0.018  -0.228
    1UNL    C21   27   0.027  -0.126  -0.185
    1UNL     H1   28   0.070   0.520   0.007
    1UNL     H2   29   0.121   0.450   0.168
    1UNL     H3   30   0.235   0.506   0.056
    1UNL     H4   31  -0.156   0.146   0.135
    1UNL     H5   32  -0.493   0.089   0.338
    1UNL     H6   33  -0.597   0.023   0.209
    1UNL     H7   34  -0.583   0.187   0.213
    1UNL     H8   35  -0.580  -0.063   0.031
    1UNL     H9   36  -0.524  -0.233  -0.114
    1UNL    H10   37  -0.274  -0.291  -0.159
    1UNL    H11   38   0.042  -0.205   0.137
    1UNL    H12   39  -0.087  -0.300   0.068
    1UNL    H13   40   0.190  -0.332   0.030
    1UNL    H14   41   0.073  -0.389  -0.084
    1UNL    H15   42   0.359  -0.208  -0.114
    1UNL    H16   43   0.306  -0.147  -0.262
    1UNL    H17   44   0.385   0.028  -0.107
    1UNL    H18   45   0.221  -0.100   0.115
    1UNL    H19   46   0.427   0.115   0.116
    1UNL    H20   47   0.265   0.147   0.157
    1UNL    H21   48   0.362   0.040   0.269
    1UNL    H22   49   0.491  -0.119   0.072
    1UNL    H23   50   0.219   0.160  -0.154
    1UNL    H24   51   0.144   0.004  -0.316
    1UNL    H25   52  -0.004   0.087  -0.242
    1UNL    H26   53  -0.036  -0.182  -0.260
   0.00000   0.00000   0.00000   0.00000   0.00000   0.00000   0.00000   0.00000   0.00000
Generated with MDTraj, t= 75.0
 53
    1UNL     C1    1   0.161   0.457   0.070
    1UNL     O1    2   0.176   0.332   0.007
    1UNL     C2    3   0.089   0.243   0.068
    1UNL     O2    4   0.002   0.269   0.151
    1UNL     C3    5   0.085   0.105   0.010
    1UNL     C4    6  -0.027   0.030   0.036
    1UNL     N1    7  -0.150   0.068   0.093
    1UNL     C5    8  -0.259  -0.004   0.037
    1UNL     C6    9  -0.396   0.005   0.062
    1UNL     O3   10  -0.437   0.105   0.138
    1UNL     C7   11  -0.553   0.078   0.207
    1UNL     C8   12  -0.480  -0.096   0.007
    1UNL     C9   13  -0.428  -0.194  -0.077
    1UNL    C10   14  -0.291  -0.203  -0.101
    1UNL    C11   15  -0.204  -0.112  -0.041
    1UNL    C12   16  -0.050  -0.102  -0.036
    1UNL    C13   17   0.003  -0.219   0.042
    1UNL    C14   18   0.080  -0.311  -0.057
    1UNL     N2   19   0.123  -0.214  -0.158
    1UNL    C15   20   0.265  -0.161  -0.149
    1UNL    C16   21   0.290  -0.029  -0.074
    1UNL    C17   22   0.322  -0.035   0.075
    1UNL    C18   23   0.392   0.100   0.123
    1UNL     O4   24   0.410  -0.143   0.111
    1UNL    C19   25   0.174   0.066  -0.112
    1UNL    C20   26   0.081   0.018  -0.230
    1UNL    C21   27   0.017  -0.113  -0.185
    1UNL     H1   28   0.081   0.456   0.145
    1UNL     H2   29   0.259   0.488   0.108
    1UNL     H3   30   0.135   0.528  -0.005
    1UNL     H4   31  -0.164   0.155   0.140
    1UNL     H5   32  -0.550  -0.031   0.238
    1UNL     H6   33  -0.641   0.104   0.148
    1UNL     H7   34  -0.569   0.138   0.297
    1UNL     H8   35  -0.585  -0.089   0.017
    1UNL     H9   36  -0.485  -0.278  -0.117
    1UNL    H10   37  -0.236  -0.276  -0.162
    1UNL    H11   38   0.057  -0.173   0.127
    1UNL    H12   39  -0.080  -0.269   0.084
    1UNL    H13   40   0.163  -0.373  -0.020
    1UNL    H14   41   0.011  -0.391  -0.089
    1UNL    H15   42   0.307  -0.247  -0.098
    1UNL    H16   43   0.313  -0.157  -0.243
    1UNL    H17   44   0.385   0.008  -0.119
    1UNL    H18   45   0.233  -0.052   0.137
    1UNL    H19   46   0.491   0.103   0.086
    1UNL    H20   47   0.348   0.188   0.085
    1UNL    H21   48   0.389   0.109   0.238
    1UNL    H22   49   0.491  -0.125   0.057
    1UNL    H23   50   0.222   0.153  -0.145
    1UNL    H24   51   0.126   0.004  -0.329
    1UNL    H25   52  -0.001   0.091  -0.220
    1UNL    H26   53  -0.057  -0.162  -0.252
   0.00000   0.00000   0.00000   0.00000   0.00000   0.00000   0.00000   0.00000   0.00000
Generated with MDTraj, t= 76.0
 53
    1UNL     C1    1   0.196   0.447   0.086
    1UNL     O1    2   0.207   0.317   0.029
    1UNL     C2    3   0.094   0.244   0.065
    1UNL     O2    4   0.007   0.272   0.144
    1UNL     C3    5   0.075   0.113   0.004
    1UNL     C4    6  -0.037   0.035   0.035
    1UNL     N1    7  -0.166   0.074   0.090
    1UNL     C5    8  -0.260  -0.011   0.044
    1UNL     C6    9  -0.404  -0.007   0.063
    1UNL     O3   10  -0.450   0.097   0.147
    1UNL     C7   11  -0.585   0.078   0.193
    1UNL     C8   12  -0.478  -0.100  -0.013
    1UNL     C9   13  -0.427  -0.199  -0.093
    1UNL    C10   14  -0.284  -0.204  -0.105
    1UNL    C11   15  -0.210  -0.115  -0.031
    1UNL    C12   16  -0.059  -0.104  -0.028
    1UNL    C13   17   0.004  -0.214   0.060
    1UNL    C14   18   0.083  -0.300  -0.039
    1UNL     N2   19   0.123  -0.217  -0.150
    1UNL    C15   20   0.269  -0.159  -0.145
    1UNL    C16   21   0.294  -0.020  -0.084
    1UNL    C17   22   0.332  -0.021   0.064
    1UNL    C18   23   0.415   0.110   0.105
    1UNL     O4   24   0.406  -0.136   0.086
    1UNL    C19   25   0.161   0.068  -0.110
    1UNL    C20   26   0.071   0.009  -0.221
    1UNL    C21   27   0.014  -0.119  -0.166
    1UNL     H1   28   0.243   0.455   0.186
    1UNL     H2   29   0.237   0.520   0.014
    1UNL     H3   30   0.090   0.466   0.095
    1UNL     H4   31  -0.193   0.172   0.123
    1UNL     H5   32  -0.581  -0.015   0.256
    1UNL     H6   33  -0.657   0.063   0.109
    1UNL     H7   34  -0.636   0.159   0.246
    1UNL     H8   35  -0.589  -0.082  -0.015
    1UNL     H9   36  -0.490  -0.280  -0.132
    1UNL    H10   37  -0.235  -0.266  -0.177
    1UNL    H11   38   0.071  -0.171   0.140
    1UNL    H12   39  -0.074  -0.263   0.111
    1UNL    H13   40   0.164  -0.348   0.019
    1UNL    H14   41   0.037  -0.390  -0.081
    1UNL    H15   42   0.328  -0.240  -0.106
    1UNL    H16   43   0.284  -0.165  -0.250
    1UNL    H17   44   0.379   0.026  -0.134
    1UNL    H18   45   0.241  -0.033   0.128
    1UNL    H19   46   0.474   0.149   0.023
    1UNL    H20   47   0.349   0.191   0.128
    1UNL    H21   48   0.474   0.103   0.198
    1UNL    H22   49   0.486  -0.140   0.031
    1UNL    H23   50   0.194   0.156  -0.157
    1UNL    H24   51   0.130  -0.006  -0.311
    1UNL    H25   52  -0.018   0.069  -0.241
    1UNL    H26   53  -0.057  -0.167  -0.237
   0.00000   0.00000   0.00000   0.00000   0.00000   0.00000   0.00000   0.00000   0.00000
Generated with MDTraj, t= 77.0
 53
    1UNL     C1    1   0.222   0.427   0.119
    1UNL     O1    2   0.195   0.318   0.028
    1UNL     C2    3   0.083   0.240   0.061
    1UNL     O2    4  -0.002   0.275   0.140
    1UNL     C3    5   0.072   0.109   0.004
    1UNL     C4    6  -0.037   0.033   0.032
    1UNL     N1    7  -0.163   0.069   0.082
    1UNL     C5    8  -0.272  -0.012   0.039
    1UNL     C6    9  -0.406  -0.009   0.067
    1UNL     O3   10  -0.445   0.092   0.156
    1UNL     C7   11  -0.580   0.113   0.169
    1UNL     C8   12  -0.489  -0.098  -0.004
    1UNL     C9   13  -0.430  -0.203  -0.080
    1UNL    C10   14  -0.289  -0.210  -0.096
    1UNL    C11   15  -0.215  -0.112  -0.041
    1UNL    C12   16  -0.058  -0.113  -0.031
    1UNL    C13   17  -0.011  -0.235   0.059
    1UNL    C14   18   0.122  -0.277   0.004
    1UNL     N2   19   0.143  -0.217  -0.131
    1UNL    C15   20   0.282  -0.150  -0.160
    1UNL    C16   21   0.284  -0.011  -0.095
    1UNL    C17   22   0.332  -0.025   0.047
    1UNL    C18   23   0.385   0.102   0.107
    1UNL     O4   24   0.417  -0.134   0.066
    1UNL    C19   25   0.151   0.078  -0.116
    1UNL    C20   26   0.071   0.012  -0.230
    1UNL    C21   27   0.021  -0.129  -0.170
    1UNL     H1   28   0.331   0.432   0.140
    1UNL     H2   29   0.190   0.520   0.070
    1UNL     H3   30   0.161   0.410   0.209
    1UNL     H4   31  -0.171   0.153   0.150
    1UNL     H5   32  -0.623   0.012   0.186
    1UNL     H6   33  -0.623   0.171   0.082
    1UNL     H7   34  -0.610   0.172   0.253
    1UNL     H8   35  -0.591  -0.082  -0.001
    1UNL     H9   36  -0.490  -0.281  -0.121
    1UNL    H10   37  -0.250  -0.298  -0.146
    1UNL    H11   38  -0.007  -0.197   0.164
    1UNL    H12   39  -0.075  -0.318   0.049
    1UNL    H13   40   0.208  -0.258   0.070
    1UNL    H14   41   0.117  -0.387   0.004
    1UNL    H15   42   0.348  -0.232  -0.134
    1UNL    H16   43   0.282  -0.143  -0.266
    1UNL    H17   44   0.355   0.051  -0.148
    1UNL    H18   45   0.236  -0.046   0.102
    1UNL    H19   46   0.493   0.112   0.091
    1UNL    H20   47   0.341   0.199   0.072
    1UNL    H21   48   0.361   0.101   0.208
    1UNL    H22   49   0.493  -0.130   0.005
    1UNL    H23   50   0.182   0.173  -0.150
    1UNL    H24   51   0.143  -0.007  -0.308
    1UNL    H25   52  -0.006   0.077  -0.270
    1UNL    H26   53  -0.049  -0.172  -0.243
   0.00000   0.00000   0.00000   0.00000   0.00000   0.00000   0.00000   0.00000   0.00000
Generated with MDTraj, t= 78.0
 53
    1UNL     C1    1   0.174   0.434   0.104
    1UNL     O1    2   0.182   0.311   0.042
    1UNL     C2    3   0.072   0.235   0.076
    1UNL     O2    4  -0.009   0.256   0.165
    1UNL     C3    5   0.070   0.107  -0.002
    1UNL     C4    6  -0.033   0.024   0.020
    1UNL     N1    7  -0.142   0.050   0.101
    1UNL     C5    8  -0.256  -0.031   0.057
    1UNL     C6    9  -0.395  -0.007   0.072
    1UNL     O3   10  -0.432   0.109   0.145
    1UNL     C7   11  -0.560   0.158   0.138
    1UNL     C8   12  -0.485  -0.101   0.021
    1UNL     C9   13  -0.436  -0.192  -0.076
    1UNL    C10   14  -0.300  -0.208  -0.104
    1UNL    C11   15  -0.204  -0.132  -0.031
    1UNL    C12   16  -0.052  -0.113  -0.035
    1UNL    C13   17   0.008  -0.219   0.059
    1UNL    C14   18   0.125  -0.290  -0.018
    1UNL     N2   19   0.145  -0.213  -0.150
    1UNL    C15   20   0.286  -0.148  -0.168
    1UNL    C16   21   0.287  -0.009  -0.094
    1UNL    C17   22   0.315  -0.023   0.058
    1UNL    C18   23   0.385   0.106   0.106
    1UNL     O4   24   0.399  -0.134   0.075
    1UNL    C19   25   0.156   0.074  -0.125
    1UNL    C20   26   0.071   0.006  -0.237
    1UNL    C21   27   0.020  -0.127  -0.171
    1UNL     H1   28   0.192   0.516   0.030
    1UNL     H2   29   0.071   0.443   0.141
    1UNL     H3   30   0.242   0.431   0.190
    1UNL     H4   31  -0.158   0.150   0.113
    1UNL     H5   32  -0.617   0.088   0.200
    1UNL     H6   33  -0.602   0.162   0.033
    1UNL     H7   34  -0.567   0.253   0.182
    1UNL     H8   35  -0.596  -0.098   0.034
    1UNL     H9   36  -0.515  -0.252  -0.124
    1UNL    H10   37  -0.268  -0.293  -0.161
    1UNL    H11   38   0.050  -0.174   0.150
    1UNL    H12   39  -0.074  -0.288   0.082
    1UNL    H13   40   0.210  -0.296   0.053
    1UNL    H14   41   0.099  -0.392  -0.045
    1UNL    H15   42   0.347  -0.218  -0.113
    1UNL    H16   43   0.308  -0.162  -0.272
    1UNL    H17   44   0.370   0.049  -0.133
    1UNL    H18   45   0.220  -0.035   0.118
    1UNL    H19   46   0.434   0.155   0.018
    1UNL    H20   47   0.324   0.182   0.158
    1UNL    H21   48   0.456   0.078   0.174
    1UNL    H22   49   0.483  -0.127   0.021
    1UNL    H23   50   0.190   0.170  -0.160
    1UNL    H24   51   0.139  -0.015  -0.318
    1UNL    H25   52  -0.009   0.073  -0.266
    1UNL    H26   53  -0.026  -0.189  -0.246
   0.00000   0.00000   0.00000   0.00000   0.00000   0.00000   0.00000   0.00000   0.00000
Generated with MDTraj, t= 79.0
 53
    1UNL     C1    1   0.147   0.450   0.078
    1UNL     O1    2   0.158   0.335   0.011
    1UNL     C2    3   0.068   0.243   0.075
    1UNL     O2    4   0.009   0.265   0.180
    1UNL     C3    5   0.082   0.107   0.021
    1UNL     C4    6  -0.019   0.014   0.048
    1UNL     N1    7  -0.143   0.048   0.103
    1UNL     C5    8  -0.247  -0.026   0.053
    1UNL     C6    9  -0.387  -0.001   0.066
    1UNL     O3   10  -0.426   0.107   0.153
    1UNL     C7   11  -0.552   0.165   0.116
    1UNL     C8   12  -0.468  -0.091  -0.000
    1UNL     C9   13  -0.415  -0.199  -0.071
    1UNL    C10   14  -0.286  -0.213  -0.084
    1UNL    C11   15  -0.200  -0.129  -0.020
    1UNL    C12   16  -0.043  -0.120  -0.020
    1UNL    C13   17   0.010  -0.256   0.041
    1UNL    C14   18   0.094  -0.330  -0.073
    1UNL     N2   19   0.123  -0.212  -0.164
    1UNL    C15   20   0.265  -0.157  -0.156
    1UNL    C16   21   0.281  -0.015  -0.089
    1UNL    C17   22   0.324  -0.031   0.067
    1UNL    C18   23   0.376   0.108   0.121
    1UNL     O4   24   0.416  -0.139   0.084
    1UNL    C19   25   0.159   0.082  -0.110
    1UNL    C20   26   0.057   0.031  -0.213
    1UNL    C21   27   0.013  -0.114  -0.168
    1UNL     H1   28   0.058   0.498   0.035
    1UNL     H2   29   0.132   0.427   0.182
    1UNL     H3   30   0.242   0.503   0.062
    1UNL     H4   31  -0.155   0.142   0.123
    1UNL     H5   32  -0.631   0.096   0.143
    1UNL     H6   33  -0.555   0.174   0.003
    1UNL     H7   34  -0.564   0.254   0.166
    1UNL     H8   35  -0.576  -0.088   0.001
    1UNL     H9   36  -0.478  -0.266  -0.125
    1UNL    H10   37  -0.230  -0.295  -0.125
    1UNL    H11   38   0.076  -0.237   0.122
    1UNL    H12   39  -0.076  -0.320   0.072
    1UNL    H13   40   0.193  -0.367  -0.041
    1UNL    H14   41   0.044  -0.414  -0.121
    1UNL    H15   42   0.317  -0.238  -0.105
    1UNL    H16   43   0.310  -0.158  -0.255
    1UNL    H17   44   0.363   0.032  -0.140
    1UNL    H18   45   0.237  -0.063   0.131
    1UNL    H19   46   0.486   0.111   0.110
    1UNL    H20   47   0.341   0.190   0.062
    1UNL    H21   48   0.345   0.133   0.222
    1UNL    H22   49   0.492  -0.142   0.019
    1UNL    H23   50   0.200   0.176  -0.148
    1UNL    H24   51   0.113   0.022  -0.304
    1UNL    H25   52  -0.022   0.104  -0.223
    1UNL    H26   53  -0.065  -0.154  -0.228
   0.00000   0.00000   0.00000   0.00000   0.00000   0.00000   0.00000   0.00000   0.00000
Generated with MDTraj, t= 80.0
 53
    1UNL     C1    1   0.125   0.458   0.055
    1UNL     O1    2   0.161   0.331   0.010
    1UNL     C2    3   0.073   0.237   0.071
    1UNL     O2    4   0.014   0.258   0.174
    1UNL     C3    5   0.080   0.102   0.014
    1UNL     C4    6  -0.024   0.015   0.040
    1UNL     N1    7  -0.143   0.052   0.111
    1UNL     C5    8  -0.248  -0.035   0.072
    1UNL     C6    9  -0.384  -0.005   0.082
    1UNL     O3   10  -0.431   0.104   0.154
    1UNL     C7   11  -0.558   0.153   0.106
    1UNL     C8   12  -0.466  -0.087   0.008
    1UNL     C9   13  -0.422  -0.183  -0.075
    1UNL    C10   14  -0.289  -0.207  -0.098
    1UNL    C11   15  -0.199  -0.126  -0.027
    1UNL    C12   16  -0.056  -0.113  -0.032
    1UNL    C13   17   0.013  -0.234   0.046
    1UNL    C14   18   0.094  -0.311  -0.053
    1UNL     N2   19   0.126  -0.214  -0.168
    1UNL    C15   20   0.265  -0.150  -0.160
    1UNL    C16   21   0.289  -0.016  -0.079
    1UNL    C17   22   0.332  -0.046   0.067
    1UNL    C18   23   0.371   0.078   0.142
    1UNL     O4   24   0.438  -0.143   0.078
    1UNL    C19   25   0.162   0.085  -0.098
    1UNL    C20   26   0.066   0.030  -0.211
    1UNL    C21   27   0.007  -0.114  -0.177
    1UNL     H1   28   0.083   0.447   0.154
    1UNL     H2   29   0.207   0.526   0.055
    1UNL     H3   30   0.050   0.496  -0.016
    1UNL     H4   31  -0.162   0.145   0.145
    1UNL     H5   32  -0.643   0.091   0.131
    1UNL     H6   33  -0.552   0.154  -0.007
    1UNL     H7   34  -0.565   0.247   0.148
    1UNL     H8   35  -0.570  -0.068   0.009
    1UNL     H9   36  -0.494  -0.240  -0.132
    1UNL    H10   37  -0.262  -0.273  -0.181
    1UNL    H11   38   0.066  -0.205   0.132
    1UNL    H12   39  -0.060  -0.309   0.090
    1UNL    H13   40   0.190  -0.354  -0.019
    1UNL    H14   41   0.041  -0.399  -0.089
    1UNL    H15   42   0.341  -0.224  -0.129
    1UNL    H16   43   0.295  -0.130  -0.265
    1UNL    H17   44   0.370   0.033  -0.130
    1UNL    H18   45   0.239  -0.086   0.115
    1UNL    H19   46   0.403   0.154   0.075
    1UNL    H20   47   0.294   0.118   0.202
    1UNL    H21   48   0.454   0.055   0.217
    1UNL    H22   49   0.514  -0.112   0.024
    1UNL    H23   50   0.202   0.185  -0.123
    1UNL    H24   51   0.126   0.025  -0.299
    1UNL    H25   52  -0.011   0.102  -0.229
    1UNL    H26   53  -0.060  -0.157  -0.248
   0.00000   0.00000   0.00000   0.00000   0.00000   0.00000   0.00000   0.00000   0.00000
Generated with MDTraj, t= 81.0
 53
    1UNL     C1    1   0.141   0.459   0.072
    1UNL     O1    2   0.146   0.332   0.010
    1UNL     C2    3   0.072   0.227   0.079
    1UNL     O2    4  -0.001   0.261   0.170
    1UNL     C3    5   0.080   0.098   0.012
    1UNL     C4    6  -0.024   0.019   0.041
    1UNL     N1    7  -0.142   0.058   0.093
    1UNL     C5    8  -0.253  -0.020   0.043
    1UNL     C6    9  -0.386  -0.003   0.073
    1UNL     O3   10  -0.423   0.103   0.160
    1UNL     C7   11  -0.554   0.154   0.146
    1UNL     C8   12  -0.476  -0.088  -0.002
    1UNL     C9   13  -0.425  -0.180  -0.086
    1UNL    C10   14  -0.292  -0.211  -0.105
    1UNL    C11   15  -0.211  -0.119  -0.044
    1UNL    C12   16  -0.056  -0.116  -0.037
    1UNL    C13   17  -0.007  -0.234   0.052
    1UNL    C14   18   0.117  -0.285  -0.010
    1UNL     N2   19   0.142  -0.208  -0.145
    1UNL    C15   20   0.278  -0.152  -0.176
    1UNL    C16   21   0.295  -0.020  -0.086
    1UNL    C17   22   0.327  -0.049   0.064
    1UNL    C18   23   0.364   0.073   0.148
    1UNL     O4   24   0.439  -0.140   0.061
    1UNL    C19   25   0.163   0.069  -0.110
    1UNL    C20   26   0.061   0.014  -0.221
    1UNL    C21   27   0.022  -0.125  -0.173
    1UNL     H1   28   0.244   0.491   0.080
    1UNL     H2   29   0.079   0.529   0.018
    1UNL     H3   30   0.098   0.455   0.174
    1UNL     H4   31  -0.144   0.136   0.167
    1UNL     H5   32  -0.633   0.095   0.190
    1UNL     H6   33  -0.572   0.162   0.034
    1UNL     H7   34  -0.545   0.245   0.197
    1UNL     H8   35  -0.584  -0.086   0.026
    1UNL     H9   36  -0.491  -0.241  -0.142
    1UNL    H10   37  -0.272  -0.283  -0.179
    1UNL    H11   38   0.007  -0.201   0.153
    1UNL    H12   39  -0.086  -0.314   0.063
    1UNL    H13   40   0.201  -0.291   0.062
    1UNL    H14   41   0.114  -0.386  -0.050
    1UNL    H15   42   0.359  -0.227  -0.159
    1UNL    H16   43   0.291  -0.113  -0.280
    1UNL    H17   44   0.380   0.035  -0.123
    1UNL    H18   45   0.242  -0.101   0.116
    1UNL    H19   46   0.465   0.095   0.141
    1UNL    H20   47   0.312   0.160   0.114
    1UNL    H21   48   0.333   0.061   0.257
    1UNL    H22   49   0.521  -0.097   0.030
    1UNL    H23   50   0.206   0.169  -0.135
    1UNL    H24   51   0.102   0.020  -0.320
    1UNL    H25   52  -0.026   0.076  -0.224
    1UNL    H26   53  -0.043  -0.177  -0.241
   0.00000   0.00000   0.00000   0.00000   0.00000   0.00000   0.00000   0.00000   0.00000
Generated with MDTraj, t= 82.0
 53
    1UNL     C1    1   0.175   0.448   0.088
    1UNL     O1    2   0.167   0.325   0.019
    1UNL     C2    3   0.087   0.227   0.079
    1UNL     O2    4   0.006   0.253   0.164
    1UNL     C3    5   0.075   0.099  -0.001
    1UNL     C4    6  -0.026   0.012   0.033
    1UNL     N1    7  -0.141   0.046   0.103
    1UNL     C5    8  -0.250  -0.025   0.049
    1UNL     C6    9  -0.390   0.006   0.062
    1UNL     O3   10  -0.431   0.113   0.146
    1UNL     C7   11  -0.573   0.123   0.182
    1UNL     C8   12  -0.473  -0.075  -0.016
    1UNL     C9   13  -0.431  -0.175  -0.094
    1UNL    C10   14  -0.295  -0.197  -0.101
    1UNL    C11   15  -0.203  -0.116  -0.039
    1UNL    C12   16  -0.052  -0.120  -0.037
    1UNL    C13   17   0.003  -0.233   0.051
    1UNL    C14   18   0.109  -0.313  -0.035
    1UNL     N2   19   0.149  -0.222  -0.153
    1UNL    C15   20   0.279  -0.152  -0.152
    1UNL    C16   21   0.285  -0.006  -0.093
    1UNL    C17   22   0.312  -0.017   0.057
    1UNL    C18   23   0.374   0.114   0.115
    1UNL     O4   24   0.394  -0.130   0.110
    1UNL    C19   25   0.155   0.073  -0.126
    1UNL    C20   26   0.063  -0.001  -0.226
    1UNL    C21   27   0.028  -0.136  -0.174
    1UNL     H1   28   0.166   0.535   0.023
    1UNL     H2   29   0.100   0.445   0.168
    1UNL     H3   30   0.272   0.461   0.142
    1UNL     H4   31  -0.147   0.147   0.144
    1UNL     H5   32  -0.612   0.032   0.224
    1UNL     H6   33  -0.630   0.139   0.084
    1UNL     H7   34  -0.577   0.199   0.256
    1UNL     H8   35  -0.578  -0.067  -0.010
    1UNL     H9   36  -0.506  -0.243  -0.141
    1UNL    H10   37  -0.268  -0.273  -0.177
    1UNL    H11   38   0.064  -0.187   0.130
    1UNL    H12   39  -0.076  -0.296   0.097
    1UNL    H13   40   0.203  -0.329   0.021
    1UNL    H14   41   0.069  -0.411  -0.060
    1UNL    H15   42   0.361  -0.204  -0.097
    1UNL    H16   43   0.322  -0.145  -0.255
    1UNL    H17   44   0.368   0.048  -0.137
    1UNL    H18   45   0.211  -0.034   0.106
    1UNL    H19   46   0.432   0.159   0.040
    1UNL    H20   47   0.297   0.191   0.137
    1UNL    H21   48   0.431   0.106   0.207
    1UNL    H22   49   0.485  -0.116   0.077
    1UNL    H23   50   0.182   0.176  -0.166
    1UNL    H24   51   0.104   0.004  -0.325
    1UNL    H25   52  -0.030   0.052  -0.234
    1UNL    H26   53  -0.025  -0.195  -0.245
   0.00000   0.00000   0.00000   0.00000   0.00000   0.00000   0.00000   0.00000   0.00000
Generated with MDTraj, t= 83.0
 53
    1UNL     C1    1   0.203   0.440   0.091
    1UNL     O1    2   0.189   0.322   0.023
    1UNL     C2    3   0.084   0.241   0.069
    1UNL     O2    4   0.008   0.279   0.152
    1UNL     C3    5   0.060   0.117  -0.005
    1UNL     C4    6  -0.034   0.022   0.034
    1UNL     N1    7  -0.155   0.049   0.101
    1UNL     C5    8  -0.262  -0.027   0.043
    1UNL     C6    9  -0.398  -0.001   0.055
    1UNL     O3   10  -0.439   0.096   0.149
    1UNL     C7   11  -0.571   0.090   0.200
    1UNL     C8   12  -0.478  -0.083  -0.021
    1UNL     C9   13  -0.426  -0.187  -0.098
    1UNL    C10   14  -0.293  -0.200  -0.121
    1UNL    C11   15  -0.208  -0.116  -0.054
    1UNL    C12   16  -0.056  -0.111  -0.034
    1UNL    C13   17   0.005  -0.221   0.057
    1UNL    C14   18   0.091  -0.308  -0.038
    1UNL     N2   19   0.134  -0.217  -0.141
    1UNL    C15   20   0.275  -0.170  -0.136
    1UNL    C16   21   0.288  -0.021  -0.085
    1UNL    C17   22   0.330  -0.009   0.061
    1UNL    C18   23   0.404   0.116   0.109
    1UNL     O4   24   0.389  -0.130   0.110
    1UNL    C19   25   0.160   0.075  -0.118
    1UNL    C20   26   0.062   0.011  -0.221
    1UNL    C21   27   0.021  -0.128  -0.170
    1UNL     H1   28   0.107   0.475   0.129
    1UNL     H2   29   0.276   0.419   0.172
    1UNL     H3   30   0.241   0.525   0.026
    1UNL     H4   31  -0.174   0.138   0.148
    1UNL     H5   32  -0.598  -0.016   0.211
    1UNL     H6   33  -0.642   0.143   0.127
    1UNL     H7   34  -0.564   0.134   0.298
    1UNL     H8   35  -0.586  -0.085  -0.012
    1UNL     H9   36  -0.483  -0.249  -0.157
    1UNL    H10   37  -0.247  -0.270  -0.182
    1UNL    H11   38   0.068  -0.174   0.138
    1UNL    H12   39  -0.079  -0.273   0.103
    1UNL    H13   40   0.182  -0.352   0.010
    1UNL    H14   41   0.026  -0.386  -0.077
    1UNL    H15   42   0.350  -0.235  -0.083
    1UNL    H16   43   0.310  -0.169  -0.243
    1UNL    H17   44   0.370   0.021  -0.142
    1UNL    H18   45   0.227  -0.017   0.112
    1UNL    H19   46   0.511   0.111   0.085
    1UNL    H20   47   0.365   0.198   0.044
    1UNL    H21   48   0.386   0.149   0.206
    1UNL    H22   49   0.482  -0.138   0.077
    1UNL    H23   50   0.197   0.172  -0.166
    1UNL    H24   51   0.106  -0.005  -0.318
    1UNL    H25   52  -0.015   0.084  -0.237
    1UNL    H26   53  -0.037  -0.185  -0.239
   0.00000   0.00000   0.00000   0.00000   0.00000   0.00000   0.00000   0.00000   0.00000
Generated with MDTraj, t= 84.0
 53
    1UNL     C1    1   0.186   0.443   0.092
    1UNL     O1    2   0.203   0.315   0.036
    1UNL     C2    3   0.088   0.243   0.063
    1UNL     O2    4  -0.005   0.287   0.126
    1UNL     C3    5   0.077   0.115  -0.005
    1UNL     C4    6  -0.035   0.036   0.015
    1UNL     N1    7  -0.156   0.079   0.081
    1UNL     C5    8  -0.266   0.007   0.024
    1UNL     C6    9  -0.408   0.002   0.053
    1UNL     O3   10  -0.449   0.082   0.160
    1UNL     C7   11  -0.583   0.064   0.200
    1UNL     C8   12  -0.487  -0.097  -0.000
    1UNL     C9   13  -0.427  -0.193  -0.083
    1UNL    C10   14  -0.293  -0.201  -0.107
    1UNL    C11   15  -0.214  -0.099  -0.056
    1UNL    C12   16  -0.066  -0.097  -0.050
    1UNL    C13   17  -0.008  -0.207   0.051
    1UNL    C14   18   0.095  -0.290  -0.017
    1UNL     N2   19   0.133  -0.219  -0.136
    1UNL    C15   20   0.277  -0.167  -0.143
    1UNL    C16   21   0.293  -0.022  -0.088
    1UNL    C17   22   0.336  -0.030   0.063
    1UNL    C18   23   0.403   0.089   0.131
    1UNL     O4   24   0.416  -0.149   0.102
    1UNL    C19   25   0.176   0.076  -0.118
    1UNL    C20   26   0.078   0.012  -0.222
    1UNL    C21   27   0.024  -0.124  -0.174
    1UNL     H1   28   0.230   0.440   0.189
    1UNL     H2   29   0.234   0.524   0.033
    1UNL     H3   30   0.079   0.464   0.116
    1UNL     H4   31  -0.176   0.166   0.119
    1UNL     H5   32  -0.577  -0.029   0.260
    1UNL     H6   33  -0.652   0.058   0.112
    1UNL     H7   34  -0.606   0.144   0.272
    1UNL     H8   35  -0.585  -0.113   0.044
    1UNL     H9   36  -0.507  -0.250  -0.142
    1UNL    H10   37  -0.250  -0.288  -0.161
    1UNL    H11   38   0.026  -0.147   0.141
    1UNL    H12   39  -0.083  -0.276   0.086
    1UNL    H13   40   0.172  -0.317   0.061
    1UNL    H14   41   0.045  -0.377  -0.061
    1UNL    H15   42   0.342  -0.244  -0.095
    1UNL    H16   43   0.312  -0.165  -0.250
    1UNL    H17   44   0.379   0.026  -0.133
    1UNL    H18   45   0.238  -0.064   0.117
    1UNL    H19   46   0.483   0.132   0.063
    1UNL    H20   47   0.336   0.165   0.166
    1UNL    H21   48   0.448   0.047   0.214
    1UNL    H22   49   0.506  -0.151   0.060
    1UNL    H23   50   0.216   0.176  -0.158
    1UNL    H24   51   0.130   0.006  -0.315
    1UNL    H25   52  -0.006   0.076  -0.241
    1UNL    H26   53  -0.036  -0.167  -0.251
   0.00000   0.00000   0.00000   0.00000   0.00000   0.00000   0.00000   0.00000   0.00000
Generated with MDTraj, t= 85.0
 53
    1UNL     C1    1   0.193   0.443   0.093
    1UNL     O1    2   0.194   0.317   0.028
    1UNL     C2    3   0.080   0.251   0.060
    1UNL     O2    4  -0.010   0.303   0.126
    1UNL     C3    5   0.082   0.114   0.005
    1UNL     C4    6  -0.028   0.038   0.033
    1UNL     N1    7  -0.158   0.078   0.072
    1UNL     C5    8  -0.263  -0.011   0.026
    1UNL     C6    9  -0.400  -0.005   0.054
    1UNL     O3   10  -0.434   0.096   0.139
    1UNL     C7   11  -0.559   0.088   0.204
    1UNL     C8   12  -0.480  -0.103   0.005
    1UNL     C9   13  -0.427  -0.208  -0.076
    1UNL    C10   14  -0.287  -0.205  -0.103
    1UNL    C11   15  -0.210  -0.103  -0.053
    1UNL    C12   16  -0.057  -0.102  -0.041
    1UNL    C13   17   0.001  -0.210   0.054
    1UNL    C14   18   0.101  -0.289  -0.035
    1UNL     N2   19   0.133  -0.212  -0.152
    1UNL    C15   20   0.273  -0.156  -0.164
    1UNL    C16   21   0.287  -0.025  -0.084
    1UNL    C17   22   0.321  -0.052   0.074
    1UNL    C18   23   0.348   0.073   0.159
    1UNL     O4   24   0.421  -0.149   0.097
    1UNL    C19   25   0.165   0.078  -0.116
    1UNL    C20   26   0.072   0.010  -0.228
    1UNL    C21   27   0.026  -0.119  -0.170
    1UNL     H1   28   0.289   0.481   0.070
    1UNL     H2   29   0.116   0.515   0.062
    1UNL     H3   30   0.191   0.422   0.200
    1UNL     H4   31  -0.183   0.169   0.102
    1UNL     H5   32  -0.557  -0.010   0.255
    1UNL     H6   33  -0.640   0.102   0.131
    1UNL     H7   34  -0.561   0.158   0.292
    1UNL     H8   35  -0.582  -0.089   0.030
    1UNL     H9   36  -0.483  -0.285  -0.115
    1UNL    H10   37  -0.245  -0.282  -0.163
    1UNL    H11   38   0.046  -0.144   0.134
    1UNL    H12   39  -0.077  -0.262   0.108
    1UNL    H13   40   0.197  -0.309   0.020
    1UNL    H14   41   0.049  -0.381  -0.062
    1UNL    H15   42   0.337  -0.230  -0.111
    1UNL    H16   43   0.308  -0.170  -0.271
    1UNL    H17   44   0.374   0.030  -0.113
    1UNL    H18   45   0.224  -0.103   0.109
    1UNL    H19   46   0.448   0.111   0.132
    1UNL    H20   47   0.277   0.148   0.148
    1UNL    H21   48   0.352   0.038   0.262
    1UNL    H22   49   0.497  -0.109   0.049
    1UNL    H23   50   0.202   0.182  -0.147
    1UNL    H24   51   0.128  -0.008  -0.320
    1UNL    H25   52  -0.015   0.070  -0.242
    1UNL    H26   53  -0.035  -0.165  -0.244
   0.00000   0.00000   0.00000   0.00000   0.00000   0.00000   0.00000   0.00000   0.00000
Generated with MDTraj, t= 86.0
 53
    1UNL     C1    1   0.190   0.458   0.083
    1UNL     O1    2   0.190   0.319   0.026
    1UNL     C2    3   0.080   0.246   0.059
    1UNL     O2    4  -0.002   0.290   0.138
    1UNL     C3    5   0.073   0.102   0.004
    1UNL     C4    6  -0.033   0.018   0.030
    1UNL     N1    7  -0.145   0.052   0.104
    1UNL     C5    8  -0.249  -0.014   0.041
    1UNL     C6    9  -0.386   0.008   0.063
    1UNL     O3   10  -0.432   0.122   0.132
    1UNL     C7   11  -0.560   0.107   0.189
    1UNL     C8   12  -0.475  -0.090   0.005
    1UNL     C9   13  -0.425  -0.196  -0.068
    1UNL    C10   14  -0.286  -0.209  -0.099
    1UNL    C11   15  -0.202  -0.118  -0.039
    1UNL    C12   16  -0.052  -0.119  -0.035
    1UNL    C13   17   0.010  -0.240   0.035
    1UNL    C14   18   0.117  -0.305  -0.058
    1UNL     N2   19   0.139  -0.212  -0.162
    1UNL    C15   20   0.282  -0.145  -0.162
    1UNL    C16   21   0.287  -0.016  -0.088
    1UNL    C17   22   0.299  -0.042   0.071
    1UNL    C18   23   0.321   0.086   0.160
    1UNL     O4   24   0.394  -0.141   0.109
    1UNL    C19   25   0.166   0.077  -0.118
    1UNL    C20   26   0.073   0.013  -0.227
    1UNL    C21   27   0.022  -0.121  -0.176
    1UNL     H1   28   0.124   0.519   0.029
    1UNL     H2   29   0.162   0.454   0.190
    1UNL     H3   30   0.293   0.493   0.076
    1UNL     H4   31  -0.173   0.147   0.144
    1UNL     H5   32  -0.557   0.015   0.246
    1UNL     H6   33  -0.628   0.103   0.107
    1UNL     H7   34  -0.581   0.185   0.269
    1UNL     H8   35  -0.583  -0.086   0.029
    1UNL     H9   36  -0.499  -0.272  -0.102
    1UNL    H10   37  -0.245  -0.277  -0.171
    1UNL    H11   38   0.041  -0.208   0.137
    1UNL    H12   39  -0.078  -0.299   0.066
    1UNL    H13   40   0.215  -0.321  -0.007
    1UNL    H14   41   0.081  -0.397  -0.103
    1UNL    H15   42   0.359  -0.218  -0.129
    1UNL    H16   43   0.316  -0.134  -0.269
    1UNL    H17   44   0.372   0.044  -0.112
    1UNL    H18   45   0.210  -0.104   0.101
    1UNL    H19   46   0.391   0.150   0.117
    1UNL    H20   47   0.233   0.144   0.177
    1UNL    H21   48   0.360   0.054   0.258
    1UNL    H22   49   0.483  -0.121   0.072
    1UNL    H23   50   0.202   0.173  -0.168
    1UNL    H24   51   0.141  -0.011  -0.309
    1UNL    H25   52  -0.008   0.075  -0.261
    1UNL    H26   53  -0.042  -0.164  -0.250
   0.00000   0.00000   0.00000   0.00000   0.00000   0.00000   0.00000   0.00000   0.00000
Generated with MDTraj, t= 87.0
 53
    1UNL     C1    1   0.163   0.462   0.079
    1UNL     O1    2   0.155   0.336   0.013
    1UNL     C2    3   0.070   0.244   0.059
    1UNL     O2    4   0.006   0.260   0.157
    1UNL     C3    5   0.070   0.113  -0.000
    1UNL     C4    6  -0.031   0.024   0.031
    1UNL     N1    7  -0.150   0.055   0.095
    1UNL     C5    8  -0.256  -0.023   0.043
    1UNL     C6    9  -0.395  -0.006   0.074
    1UNL     O3   10  -0.422   0.088   0.164
    1UNL     C7   11  -0.554   0.134   0.159
    1UNL     C8   12  -0.482  -0.084   0.000
    1UNL     C9   13  -0.432  -0.178  -0.096
    1UNL    C10   14  -0.295  -0.209  -0.108
    1UNL    C11   15  -0.205  -0.125  -0.044
    1UNL    C12   16  -0.050  -0.107  -0.035
    1UNL    C13   17   0.002  -0.227   0.050
    1UNL    C14   18   0.113  -0.300  -0.027
    1UNL     N2   19   0.144  -0.219  -0.146
    1UNL    C15   20   0.283  -0.150  -0.159
    1UNL    C16   21   0.292  -0.015  -0.083
    1UNL    C17   22   0.322  -0.039   0.067
    1UNL    C18   23   0.372   0.079   0.144
    1UNL     O4   24   0.393  -0.159   0.091
    1UNL    C19   25   0.166   0.079  -0.108
    1UNL    C20   26   0.081   0.019  -0.224
    1UNL    C21   27   0.031  -0.119  -0.170
    1UNL     H1   28   0.087   0.478   0.156
    1UNL     H2   29   0.270   0.470   0.110
    1UNL     H3   30   0.156   0.532  -0.005
    1UNL     H4   31  -0.153   0.154   0.140
    1UNL     H5   32  -0.623   0.060   0.195
    1UNL     H6   33  -0.566   0.159   0.058
    1UNL     H7   34  -0.565   0.225   0.226
    1UNL     H8   35  -0.585  -0.063   0.008
    1UNL     H9   36  -0.498  -0.243  -0.152
    1UNL    H10   37  -0.245  -0.278  -0.179
    1UNL    H11   38   0.018  -0.190   0.150
    1UNL    H12   39  -0.087  -0.296   0.059
    1UNL    H13   40   0.203  -0.318   0.037
    1UNL    H14   41   0.067  -0.390  -0.068
    1UNL    H15   42   0.369  -0.215  -0.132
    1UNL    H16   43   0.307  -0.135  -0.267
    1UNL    H17   44   0.379   0.036  -0.119
    1UNL    H18   45   0.223  -0.073   0.106
    1UNL    H19   46   0.467   0.103   0.115
    1UNL    H20   47   0.309   0.169   0.127
    1UNL    H21   48   0.376   0.055   0.251
    1UNL    H22   49   0.471  -0.165   0.031
    1UNL    H23   50   0.201   0.176  -0.153
    1UNL    H24   51   0.146  -0.009  -0.306
    1UNL    H25   52   0.005   0.089  -0.256
    1UNL    H26   53  -0.033  -0.168  -0.240
   0.00000   0.00000   0.00000   0.00000   0.00000   0.00000   0.00000   0.00000   0.00000
Generated with MDTraj, t= 88.0
 53
    1UNL     C1    1   0.127   0.458   0.061
    1UNL     O1    2   0.156   0.325   0.013
    1UNL     C2    3   0.078   0.229   0.076
    1UNL     O2    4   0.020   0.246   0.181
    1UNL     C3    5   0.080   0.105   0.007
    1UNL     C4    6  -0.022   0.021   0.037
    1UNL     N1    7  -0.140   0.056   0.101
    1UNL     C5    8  -0.249  -0.022   0.064
    1UNL     C6    9  -0.392  -0.017   0.071
    1UNL     O3   10  -0.437   0.080   0.170
    1UNL     C7   11  -0.556   0.141   0.127
    1UNL     C8   12  -0.478  -0.089  -0.011
    1UNL     C9   13  -0.430  -0.177  -0.107
    1UNL    C10   14  -0.287  -0.175  -0.124
    1UNL    C11   15  -0.199  -0.111  -0.031
    1UNL    C12   16  -0.050  -0.104  -0.032
    1UNL    C13   17  -0.011  -0.232   0.048
    1UNL    C14   18   0.108  -0.299  -0.015
    1UNL     N2   19   0.132  -0.213  -0.134
    1UNL    C15   20   0.270  -0.152  -0.160
    1UNL    C16   21   0.292  -0.020  -0.086
    1UNL    C17   22   0.321  -0.029   0.065
    1UNL    C18   23   0.402   0.085   0.115
    1UNL     O4   24   0.399  -0.150   0.088
    1UNL    C19   25   0.166   0.073  -0.112
    1UNL    C20   26   0.076   0.015  -0.219
    1UNL    C21   27   0.023  -0.114  -0.159
    1UNL     H1   28   0.092   0.459   0.165
    1UNL     H2   29   0.214   0.527   0.041
    1UNL     H3   30   0.042   0.498   0.004
    1UNL     H4   31  -0.147   0.144   0.154
    1UNL     H5   32  -0.646   0.082   0.125
    1UNL     H6   33  -0.530   0.186   0.038
    1UNL     H7   34  -0.579   0.225   0.199
    1UNL     H8   35  -0.586  -0.087   0.002
    1UNL     H9   36  -0.496  -0.236  -0.166
    1UNL    H10   37  -0.247  -0.243  -0.191
    1UNL    H11   38   0.000  -0.202   0.150
    1UNL    H12   39  -0.105  -0.298   0.043
    1UNL    H13   40   0.197  -0.293   0.052
    1UNL    H14   41   0.078  -0.400  -0.046
    1UNL    H15   42   0.349  -0.223  -0.134
    1UNL    H16   43   0.290  -0.127  -0.267
    1UNL    H17   44   0.382   0.022  -0.128
    1UNL    H18   45   0.226  -0.035   0.120
    1UNL    H19   46   0.496   0.077   0.059
    1UNL    H20   47   0.360   0.184   0.097
    1UNL    H21   48   0.425   0.067   0.217
    1UNL    H22   49   0.483  -0.141   0.036
    1UNL    H23   50   0.212   0.170  -0.142
    1UNL    H24   51   0.126  -0.010  -0.313
    1UNL    H25   52  -0.001   0.090  -0.237
    1UNL    H26   53  -0.054  -0.152  -0.223
   0.00000   0.00000   0.00000   0.00000   0.00000   0.00000   0.00000   0.00000   0.00000
Generated with MDTraj, t= 89.0
 53
    1UNL     C1    1   0.150   0.446   0.073
    1UNL     O1    2   0.151   0.315   0.016
    1UNL     C2    3   0.070   0.221   0.076
    1UNL     O2    4   0.004   0.243   0.175
    1UNL     C3    5   0.075   0.090   0.020
    1UNL     C4    6  -0.023   0.003   0.045
    1UNL     N1    7  -0.146   0.043   0.097
    1UNL     C5    8  -0.257  -0.037   0.060
    1UNL     C6    9  -0.385   0.011   0.065
    1UNL     O3   10  -0.423   0.120   0.140
    1UNL     C7   11  -0.560   0.158   0.138
    1UNL     C8   12  -0.478  -0.070  -0.012
    1UNL     C9   13  -0.430  -0.169  -0.102
    1UNL    C10   14  -0.299  -0.198  -0.108
    1UNL    C11   15  -0.210  -0.133  -0.027
    1UNL    C12   16  -0.051  -0.126  -0.026
    1UNL    C13   17  -0.001  -0.253   0.047
    1UNL    C14   18   0.123  -0.302  -0.032
    1UNL     N2   19   0.140  -0.214  -0.148
    1UNL    C15   20   0.269  -0.140  -0.161
    1UNL    C16   21   0.287  -0.011  -0.085
    1UNL    C17   22   0.333  -0.029   0.063
    1UNL    C18   23   0.380   0.104   0.124
    1UNL     O4   24   0.430  -0.130   0.086
    1UNL    C19   25   0.153   0.074  -0.102
    1UNL    C20   26   0.065   0.015  -0.215
    1UNL    C21   27   0.024  -0.125  -0.162
    1UNL     H1   28   0.232   0.464   0.142
    1UNL     H2   29   0.152   0.518  -0.014
    1UNL     H3   30   0.062   0.471   0.133
    1UNL     H4   31  -0.156   0.139   0.103
    1UNL     H5   32  -0.628   0.096   0.196
    1UNL     H6   33  -0.591   0.175   0.041
    1UNL     H7   34  -0.568   0.261   0.186
    1UNL     H8   35  -0.581  -0.039  -0.014
    1UNL     H9   36  -0.502  -0.230  -0.163
    1UNL    H10   37  -0.277  -0.291  -0.169
    1UNL    H11   38   0.016  -0.234   0.152
    1UNL    H12   39  -0.092  -0.321   0.042
    1UNL    H13   40   0.213  -0.288   0.032
    1UNL    H14   41   0.116  -0.402  -0.074
    1UNL    H15   42   0.356  -0.196  -0.126
    1UNL    H16   43   0.288  -0.113  -0.267
    1UNL    H17   44   0.370   0.041  -0.132
    1UNL    H18   45   0.243  -0.064   0.122
    1UNL    H19   46   0.463   0.145   0.055
    1UNL    H20   47   0.302   0.175   0.119
    1UNL    H21   48   0.416   0.098   0.222
    1UNL    H22   49   0.520  -0.109   0.052
    1UNL    H23   50   0.192   0.174  -0.126
    1UNL    H24   51   0.132   0.013  -0.301
    1UNL    H25   52  -0.027   0.066  -0.248
    1UNL    H26   53  -0.047  -0.168  -0.230
   0.00000   0.00000   0.00000   0.00000   0.00000   0.00000   0.00000   0.00000   0.00000
Generated with MDTraj, t= 90.0
 53
    1UNL     C1    1   0.168   0.441   0.114
    1UNL     O1    2   0.161   0.326   0.035
    1UNL     C2    3   0.068   0.232   0.075
    1UNL     O2    4   0.002   0.253   0.176
    1UNL     C3    5   0.070   0.099   0.004
    1UNL     C4    6  -0.031   0.011   0.028
    1UNL     N1    7  -0.144   0.046   0.102
    1UNL     C5    8  -0.254  -0.028   0.043
    1UNL     C6    9  -0.388   0.015   0.052
    1UNL     O3   10  -0.418   0.138   0.120
    1UNL     C7   11  -0.559   0.154   0.146
    1UNL     C8   12  -0.472  -0.076  -0.017
    1UNL     C9   13  -0.423  -0.177  -0.094
    1UNL    C10   14  -0.289  -0.216  -0.102
    1UNL    C11   15  -0.204  -0.134  -0.029
    1UNL    C12   16  -0.056  -0.129  -0.021
    1UNL    C13   17   0.004  -0.245   0.065
    1UNL    C14   18   0.111  -0.310  -0.021
    1UNL     N2   19   0.139  -0.223  -0.137
    1UNL    C15   20   0.269  -0.151  -0.158
    1UNL    C16   21   0.276  -0.019  -0.089
    1UNL    C17   22   0.334  -0.030   0.054
    1UNL    C18   23   0.344   0.100   0.134
    1UNL     O4   24   0.451  -0.109   0.048
    1UNL    C19   25   0.153   0.078  -0.120
    1UNL    C20   26   0.063  -0.002  -0.219
    1UNL    C21   27   0.016  -0.138  -0.163
    1UNL     H1   28   0.238   0.433   0.195
    1UNL     H2   29   0.193   0.521   0.042
    1UNL     H3   30   0.076   0.469   0.163
    1UNL     H4   31  -0.156   0.138   0.133
    1UNL     H5   32  -0.603   0.060   0.179
    1UNL     H6   33  -0.613   0.189   0.063
    1UNL     H7   34  -0.575   0.232   0.227
    1UNL     H8   35  -0.580  -0.067  -0.024
    1UNL     H9   36  -0.499  -0.213  -0.155
    1UNL    H10   37  -0.259  -0.301  -0.153
    1UNL    H11   38   0.029  -0.211   0.166
    1UNL    H12   39  -0.077  -0.322   0.085
    1UNL    H13   40   0.207  -0.341   0.022
    1UNL    H14   41   0.058  -0.395  -0.064
    1UNL    H15   42   0.359  -0.207  -0.132
    1UNL    H16   43   0.283  -0.122  -0.263
    1UNL    H17   44   0.352   0.036  -0.145
    1UNL    H18   45   0.255  -0.091   0.109
    1UNL    H19   46   0.407   0.180   0.085
    1UNL    H20   47   0.251   0.151   0.151
    1UNL    H21   48   0.386   0.083   0.231
    1UNL    H22   49   0.527  -0.053   0.071
    1UNL    H23   50   0.176   0.174  -0.166
    1UNL    H24   51   0.105  -0.017  -0.320
    1UNL    H25   52  -0.027   0.059  -0.242
    1UNL    H26   53  -0.046  -0.190  -0.235
   0.00000   0.00000   0.00000   0.00000   0.00000   0.00000   0.00000   0.00000   0.00000
Generated with MDTraj, t= 91.0
 53
    1UNL     C1    1   0.186   0.438   0.092
    1UNL     O1    2   0.183   0.309   0.040
    1UNL     C2    3   0.079   0.233   0.082
    1UNL     O2    4   0.002   0.264   0.171
    1UNL     C3    5   0.073   0.106   0.018
    1UNL     C4    6  -0.034   0.021   0.034
    1UNL     N1    7  -0.146   0.061   0.097
    1UNL     C5    8  -0.255  -0.013   0.044
    1UNL     C6    9  -0.400   0.003   0.057
    1UNL     O3   10  -0.455   0.110   0.131
    1UNL     C7   11  -0.593   0.127   0.133
    1UNL     C8   12  -0.483  -0.084  -0.011
    1UNL     C9   13  -0.428  -0.189  -0.079
    1UNL    C10   14  -0.297  -0.210  -0.092
    1UNL    C11   15  -0.206  -0.121  -0.037
    1UNL    C12   16  -0.053  -0.110  -0.034
    1UNL    C13   17   0.005  -0.224   0.059
    1UNL    C14   18   0.098  -0.299  -0.024
    1UNL     N2   19   0.135  -0.217  -0.142
    1UNL    C15   20   0.266  -0.158  -0.163
    1UNL    C16   21   0.285  -0.022  -0.091
    1UNL    C17   22   0.337  -0.043   0.057
    1UNL    C18   23   0.367   0.094   0.127
    1UNL     O4   24   0.457  -0.117   0.057
    1UNL    C19   25   0.161   0.078  -0.107
    1UNL    C20   26   0.067   0.015  -0.214
    1UNL    C21   27   0.031  -0.127  -0.169
    1UNL     H1   28   0.140   0.442   0.188
    1UNL     H2   29   0.293   0.467   0.087
    1UNL     H3   30   0.136   0.509   0.029
    1UNL     H4   31  -0.151   0.157   0.136
    1UNL     H5   32  -0.636   0.042   0.187
    1UNL     H6   33  -0.640   0.136   0.037
    1UNL     H7   34  -0.608   0.224   0.190
    1UNL     H8   35  -0.590  -0.069  -0.027
    1UNL     H9   36  -0.479  -0.266  -0.147
    1UNL    H10   37  -0.262  -0.287  -0.165
    1UNL    H11   38   0.054  -0.184   0.151
    1UNL    H12   39  -0.076  -0.284   0.106
    1UNL    H13   40   0.187  -0.326   0.033
    1UNL    H14   41   0.055  -0.387  -0.072
    1UNL    H15   42   0.337  -0.231  -0.125
    1UNL    H16   43   0.282  -0.148  -0.270
    1UNL    H17   44   0.372   0.028  -0.136
    1UNL    H18   45   0.267  -0.111   0.118
    1UNL    H19   46   0.406   0.164   0.055
    1UNL    H20   47   0.282   0.148   0.174
    1UNL    H21   48   0.450   0.073   0.198
    1UNL    H22   49   0.538  -0.067   0.032
    1UNL    H23   50   0.197   0.173  -0.142
    1UNL    H24   51   0.110   0.017  -0.315
    1UNL    H25   52  -0.028   0.071  -0.228
    1UNL    H26   53  -0.028  -0.181  -0.244
   0.00000   0.00000   0.00000   0.00000   0.00000   0.00000   0.00000   0.00000   0.00000
Generated with MDTraj, t= 92.0
 53
    1UNL     C1    1   0.203   0.447   0.087
    1UNL     O1    2   0.199   0.308   0.040
    1UNL     C2    3   0.083   0.241   0.077
    1UNL     O2    4  -0.007   0.289   0.144
    1UNL     C3    5   0.080   0.111   0.021
    1UNL     C4    6  -0.031   0.029   0.039
    1UNL     N1    7  -0.158   0.066   0.085
    1UNL     C5    8  -0.263  -0.016   0.039
    1UNL     C6    9  -0.405  -0.011   0.061
    1UNL     O3   10  -0.454   0.095   0.150
    1UNL     C7   11  -0.593   0.115   0.139
    1UNL     C8   12  -0.479  -0.106  -0.006
    1UNL     C9   13  -0.425  -0.212  -0.072
    1UNL    C10   14  -0.290  -0.208  -0.098
    1UNL    C11   15  -0.207  -0.113  -0.049
    1UNL    C12   16  -0.060  -0.100  -0.043
    1UNL    C13   17  -0.008  -0.218   0.050
    1UNL    C14   18   0.091  -0.301  -0.037
    1UNL     N2   19   0.136  -0.211  -0.146
    1UNL    C15   20   0.266  -0.148  -0.159
    1UNL    C16   21   0.284  -0.021  -0.083
    1UNL    C17   22   0.339  -0.038   0.064
    1UNL    C18   23   0.405   0.086   0.126
    1UNL     O4   24   0.428  -0.145   0.080
    1UNL    C19   25   0.164   0.080  -0.099
    1UNL    C20   26   0.071   0.027  -0.205
    1UNL    C21   27   0.018  -0.115  -0.173
    1UNL     H1   28   0.147   0.442   0.179
    1UNL     H2   29   0.307   0.485   0.094
    1UNL     H3   30   0.149   0.516   0.024
    1UNL     H4   31  -0.175   0.163   0.132
    1UNL     H5   32  -0.642   0.044   0.206
    1UNL     H6   33  -0.634   0.100   0.038
    1UNL     H7   34  -0.618   0.220   0.167
    1UNL     H8   35  -0.583  -0.096   0.008
    1UNL     H9   36  -0.490  -0.290  -0.093
    1UNL    H10   37  -0.255  -0.276  -0.171
    1UNL    H11   38   0.045  -0.179   0.143
    1UNL    H12   39  -0.089  -0.280   0.089
    1UNL    H13   40   0.181  -0.337   0.014
    1UNL    H14   41   0.029  -0.380  -0.078
    1UNL    H15   42   0.334  -0.224  -0.123
    1UNL    H16   43   0.285  -0.142  -0.265
    1UNL    H17   44   0.372   0.026  -0.131
    1UNL    H18   45   0.247  -0.064   0.127
    1UNL    H19   46   0.503   0.089   0.092
    1UNL    H20   47   0.360   0.184   0.096
    1UNL    H21   48   0.414   0.063   0.237
    1UNL    H22   49   0.513  -0.117   0.035
    1UNL    H23   50   0.212   0.171  -0.130
    1UNL    H24   51   0.104   0.046  -0.309
    1UNL    H25   52  -0.018   0.094  -0.195
    1UNL    H26   53  -0.038  -0.157  -0.257
   0.00000   0.00000   0.00000   0.00000   0.00000   0.00000   0.00000   0.00000   0.00000
Generated with MDTraj, t= 93.0
 53
    1UNL     C1    1   0.180   0.447   0.126
    1UNL     O1    2   0.196   0.333   0.046
    1UNL     C2    3   0.090   0.247   0.062
    1UNL     O2    4  -0.012   0.284   0.121
    1UNL     C3    5   0.078   0.115  -0.007
    1UNL     C4    6  -0.030   0.039   0.017
    1UNL     N1    7  -0.145   0.062   0.087
    1UNL     C5    8  -0.249  -0.021   0.041
    1UNL     C6    9  -0.382  -0.004   0.069
    1UNL     O3   10  -0.435   0.104   0.149
    1UNL     C7   11  -0.575   0.108   0.160
    1UNL     C8   12  -0.467  -0.100   0.007
    1UNL     C9   13  -0.417  -0.201  -0.078
    1UNL    C10   14  -0.282  -0.217  -0.099
    1UNL    C11   15  -0.204  -0.118  -0.042
    1UNL    C12   16  -0.051  -0.104  -0.042
    1UNL    C13   17   0.011  -0.210   0.050
    1UNL    C14   18   0.098  -0.299  -0.045
    1UNL     N2   19   0.132  -0.218  -0.156
    1UNL    C15   20   0.270  -0.153  -0.155
    1UNL    C16   21   0.293  -0.019  -0.086
    1UNL    C17   22   0.316  -0.031   0.072
    1UNL    C18   23   0.394   0.085   0.138
    1UNL     O4   24   0.355  -0.159   0.108
    1UNL    C19   25   0.163   0.079  -0.120
    1UNL    C20   26   0.067   0.014  -0.229
    1UNL    C21   27   0.017  -0.123  -0.184
    1UNL     H1   28   0.197   0.410   0.228
    1UNL     H2   29   0.254   0.525   0.093
    1UNL     H3   30   0.078   0.489   0.120
    1UNL     H4   31  -0.174   0.158   0.123
    1UNL     H5   32  -0.612   0.008   0.181
    1UNL     H6   33  -0.626   0.144   0.067
    1UNL     H7   34  -0.599   0.179   0.241
    1UNL     H8   35  -0.566  -0.121   0.048
    1UNL     H9   36  -0.479  -0.289  -0.115
    1UNL    H10   37  -0.248  -0.307  -0.147
    1UNL    H11   38   0.066  -0.172   0.143
    1UNL    H12   39  -0.061  -0.281   0.088
    1UNL    H13   40   0.188  -0.333   0.006
    1UNL    H14   41   0.041  -0.380  -0.094
    1UNL    H15   42   0.342  -0.230  -0.134
    1UNL    H16   43   0.278  -0.132  -0.260
    1UNL    H17   44   0.385   0.028  -0.125
    1UNL    H18   45   0.211  -0.033   0.116
    1UNL    H19   46   0.496   0.082   0.107
    1UNL    H20   47   0.364   0.186   0.104
    1UNL    H21   48   0.400   0.068   0.250
    1UNL    H22   49   0.432  -0.181   0.050
    1UNL    H23   50   0.201   0.169  -0.161
    1UNL    H24   51   0.110   0.011  -0.331
    1UNL    H25   52  -0.022   0.082  -0.236
    1UNL    H26   53  -0.056  -0.166  -0.255
   0.00000   0.00000   0.00000   0.00000   0.00000   0.00000   0.00000   0.00000   0.00000
Generated with MDTraj, t= 94.0
 53
    1UNL     C1    1   0.201   0.434   0.105
    1UNL     O1    2   0.188   0.323   0.025
    1UNL     C2    3   0.081   0.245   0.057
    1UNL     O2    4  -0.011   0.283   0.131
    1UNL     C3    5   0.072   0.111  -0.011
    1UNL     C4    6  -0.028   0.023   0.017
    1UNL     N1    7  -0.143   0.060   0.086
    1UNL     C5    8  -0.247  -0.028   0.042
    1UNL     C6    9  -0.388  -0.003   0.066
    1UNL     O3   10  -0.419   0.105   0.147
    1UNL     C7   11  -0.551   0.110   0.193
    1UNL     C8   12  -0.475  -0.101   0.010
    1UNL     C9   13  -0.427  -0.196  -0.081
    1UNL    C10   14  -0.288  -0.210  -0.106
    1UNL    C11   15  -0.200  -0.122  -0.047
    1UNL    C12   16  -0.050  -0.116  -0.045
    1UNL    C13   17   0.015  -0.216   0.045
    1UNL    C14   18   0.111  -0.291  -0.043
    1UNL     N2   19   0.151  -0.207  -0.163
    1UNL    C15   20   0.285  -0.139  -0.154
    1UNL    C16   21   0.286  -0.010  -0.076
    1UNL    C17   22   0.289  -0.028   0.077
    1UNL    C18   23   0.362   0.084   0.158
    1UNL     O4   24   0.329  -0.154   0.121
    1UNL    C19   25   0.163   0.082  -0.126
    1UNL    C20   26   0.072   0.015  -0.241
    1UNL    C21   27   0.030  -0.117  -0.187
    1UNL     H1   28   0.191   0.396   0.207
    1UNL     H2   29   0.300   0.483   0.082
    1UNL     H3   30   0.115   0.498   0.082
    1UNL     H4   31  -0.156   0.152   0.125
    1UNL     H5   32  -0.573   0.023   0.252
    1UNL     H6   33  -0.626   0.104   0.107
    1UNL     H7   34  -0.561   0.206   0.243
    1UNL     H8   35  -0.579  -0.098   0.036
    1UNL     H9   36  -0.500  -0.259  -0.120
    1UNL    H10   37  -0.243  -0.291  -0.167
    1UNL    H11   38   0.068  -0.175   0.136
    1UNL    H12   39  -0.053  -0.287   0.094
    1UNL    H13   40   0.198  -0.309   0.020
    1UNL    H14   41   0.072  -0.388  -0.077
    1UNL    H15   42   0.353  -0.210  -0.109
    1UNL    H16   43   0.315  -0.120  -0.253
    1UNL    H17   44   0.381   0.043  -0.096
    1UNL    H18   45   0.185  -0.038   0.110
    1UNL    H19   46   0.459   0.117   0.108
    1UNL    H20   47   0.308   0.176   0.169
    1UNL    H21   48   0.393   0.041   0.254
    1UNL    H22   49   0.418  -0.182   0.092
    1UNL    H23   50   0.196   0.171  -0.173
    1UNL    H24   51   0.130   0.009  -0.336
    1UNL    H25   52  -0.027   0.064  -0.265
    1UNL    H26   53  -0.033  -0.169  -0.263
   0.00000   0.00000   0.00000   0.00000   0.00000   0.00000   0.00000   0.00000   0.00000
Generated with MDTraj, t= 95.0
 53
    1UNL     C1    1   0.198   0.449   0.066
    1UNL     O1    2   0.187   0.320   0.014
    1UNL     C2    3   0.083   0.245   0.062
    1UNL     O2    4   0.003   0.282   0.148
    1UNL     C3    5   0.082   0.114   0.006
    1UNL     C4    6  -0.025   0.033   0.030
    1UNL     N1    7  -0.150   0.069   0.079
    1UNL     C5    8  -0.257  -0.002   0.030
    1UNL     C6    9  -0.392  -0.005   0.065
    1UNL     O3   10  -0.432   0.082   0.165
    1UNL     C7   11  -0.566   0.082   0.201
    1UNL     C8   12  -0.480  -0.093  -0.001
    1UNL     C9   13  -0.428  -0.197  -0.078
    1UNL    C10   14  -0.296  -0.196  -0.115
    1UNL    C11   15  -0.210  -0.097  -0.064
    1UNL    C12   16  -0.055  -0.104  -0.044
    1UNL    C13   17  -0.011  -0.229   0.041
    1UNL    C14   18   0.107  -0.297  -0.035
    1UNL     N2   19   0.147  -0.210  -0.149
    1UNL    C15   20   0.286  -0.156  -0.155
    1UNL    C16   21   0.294  -0.019  -0.080
    1UNL    C17   22   0.301  -0.041   0.070
    1UNL    C18   23   0.337   0.078   0.152
    1UNL     O4   24   0.383  -0.151   0.115
    1UNL    C19   25   0.174   0.077  -0.114
    1UNL    C20   26   0.087   0.022  -0.227
    1UNL    C21   27   0.028  -0.113  -0.179
    1UNL     H1   28   0.187   0.443   0.173
    1UNL     H2   29   0.291   0.500   0.034
    1UNL     H3   30   0.110   0.497   0.024
    1UNL     H4   31  -0.160   0.151   0.129
    1UNL     H5   32  -0.600  -0.016   0.229
    1UNL     H6   33  -0.633   0.115   0.114
    1UNL     H7   34  -0.570   0.157   0.276
    1UNL     H8   35  -0.585  -0.072   0.014
    1UNL     H9   36  -0.492  -0.256  -0.147
    1UNL    H10   37  -0.247  -0.258  -0.182
    1UNL    H11   38   0.024  -0.196   0.139
    1UNL    H12   39  -0.093  -0.299   0.068
    1UNL    H13   40   0.197  -0.304   0.026
    1UNL    H14   41   0.076  -0.399  -0.064
    1UNL    H15   42   0.338  -0.224  -0.089
    1UNL    H16   43   0.325  -0.154  -0.254
    1UNL    H17   44   0.390   0.030  -0.106
    1UNL    H18   45   0.205  -0.065   0.098
    1UNL    H19   46   0.454   0.088   0.150
    1UNL    H20   47   0.309   0.173   0.106
    1UNL    H21   48   0.315   0.063   0.256
    1UNL    H22   49   0.474  -0.115   0.114
    1UNL    H23   50   0.210   0.168  -0.153
    1UNL    H24   51   0.136   0.006  -0.327
    1UNL    H25   52   0.008   0.101  -0.231
    1UNL    H26   53  -0.036  -0.158  -0.259
   0.00000   0.00000   0.00000   0.00000   0.00000   0.00000   0.00000   0.00000   0.00000
Generated with MDTraj, t= 96.0
 53
    1UNL     C1    1   0.162   0.474   0.056
    1UNL     O1    2   0.177   0.338   0.010
    1UNL     C2    3   0.081   0.253   0.059
    1UNL     O2    4   0.005   0.275   0.152
    1UNL     C3    5   0.073   0.120   0.002
    1UNL     C4    6  -0.037   0.037   0.027
    1UNL     N1    7  -0.153   0.064   0.100
    1UNL     C5    8  -0.257  -0.008   0.041
    1UNL     C6    9  -0.397  -0.002   0.059
    1UNL     O3   10  -0.441   0.091   0.162
    1UNL     C7   11  -0.573   0.062   0.204
    1UNL     C8   12  -0.482  -0.086  -0.009
    1UNL     C9   13  -0.427  -0.169  -0.111
    1UNL    C10   14  -0.289  -0.181  -0.130
    1UNL    C11   15  -0.204  -0.102  -0.052
    1UNL    C12   16  -0.056  -0.097  -0.043
    1UNL    C13   17  -0.005  -0.212   0.056
    1UNL    C14   18   0.088  -0.307  -0.027
    1UNL     N2   19   0.135  -0.225  -0.139
    1UNL    C15   20   0.277  -0.180  -0.140
    1UNL    C16   21   0.302  -0.026  -0.074
    1UNL    C17   22   0.330  -0.049   0.076
    1UNL    C18   23   0.376   0.070   0.160
    1UNL     O4   24   0.421  -0.162   0.085
    1UNL    C19   25   0.178   0.077  -0.111
    1UNL    C20   26   0.089   0.017  -0.227
    1UNL    C21   27   0.024  -0.121  -0.173
    1UNL     H1   28   0.180   0.479   0.161
    1UNL     H2   29   0.213   0.555   0.002
    1UNL     H3   30   0.056   0.485   0.041
    1UNL     H4   31  -0.168   0.157   0.134
    1UNL     H5   32  -0.590  -0.040   0.230
    1UNL     H6   33  -0.649   0.087   0.122
    1UNL     H7   34  -0.595   0.129   0.282
    1UNL     H8   35  -0.589  -0.079  -0.001
    1UNL     H9   36  -0.490  -0.220  -0.182
    1UNL    H10   37  -0.249  -0.229  -0.225
    1UNL    H11   38   0.042  -0.185   0.150
    1UNL    H12   39  -0.090  -0.269   0.099
    1UNL    H13   40   0.162  -0.354   0.038
    1UNL    H14   41   0.041  -0.390  -0.084
    1UNL    H15   42   0.327  -0.255  -0.081
    1UNL    H16   43   0.303  -0.186  -0.241
    1UNL    H17   44   0.400   0.009  -0.113
    1UNL    H18   45   0.248  -0.082   0.126
    1UNL    H19   46   0.442   0.142   0.101
    1UNL    H20   47   0.287   0.135   0.180
    1UNL    H21   48   0.427   0.041   0.250
    1UNL    H22   49   0.516  -0.136   0.096
    1UNL    H23   50   0.222   0.168  -0.143
    1UNL    H24   51   0.162  -0.005  -0.309
    1UNL    H25   52   0.010   0.089  -0.259
    1UNL    H26   53  -0.045  -0.165  -0.250
   0.00000   0.00000   0.00000   0.00000   0.00000   0.00000   0.00000   0.00000   0.00000
Generated with MDTraj, t= 97.0
 53
    1UNL     C1    1   0.150   0.453   0.052
    1UNL     O1    2   0.167   0.328   0.008
    1UNL     C2    3   0.078   0.235   0.071
    1UNL     O2    4  -0.004   0.265   0.159
    1UNL     C3    5   0.085   0.098   0.024
    1UNL     C4    6  -0.022   0.018   0.053
    1UNL     N1    7  -0.147   0.056   0.101
    1UNL     C5    8  -0.258  -0.011   0.034
    1UNL     C6    9  -0.395   0.018   0.052
    1UNL     O3   10  -0.433   0.111   0.147
    1UNL     C7   11  -0.556   0.077   0.200
    1UNL     C8   12  -0.479  -0.059  -0.030
    1UNL     C9   13  -0.428  -0.162  -0.115
    1UNL    C10   14  -0.290  -0.185  -0.117
    1UNL    C11   15  -0.209  -0.110  -0.046
    1UNL    C12   16  -0.053  -0.112  -0.029
    1UNL    C13   17  -0.013  -0.242   0.047
    1UNL    C14   18   0.098  -0.309  -0.039
    1UNL     N2   19   0.133  -0.215  -0.153
    1UNL    C15   20   0.275  -0.160  -0.147
    1UNL    C16   21   0.297  -0.024  -0.075
    1UNL    C17   22   0.326  -0.039   0.074
    1UNL    C18   23   0.376   0.093   0.131
    1UNL     O4   24   0.434  -0.143   0.101
    1UNL    C19   25   0.170   0.069  -0.101
    1UNL    C20   26   0.079   0.010  -0.211
    1UNL    C21   27   0.014  -0.120  -0.173
    1UNL     H1   28   0.180   0.461   0.157
    1UNL     H2   29   0.215   0.515  -0.008
    1UNL     H3   30   0.048   0.480   0.026
    1UNL     H4   31  -0.157   0.158   0.134
    1UNL     H5   32  -0.572  -0.029   0.214
    1UNL     H6   33  -0.640   0.111   0.132
    1UNL     H7   34  -0.568   0.131   0.288
    1UNL     H8   35  -0.585  -0.060  -0.011
    1UNL     H9   36  -0.502  -0.225  -0.161
    1UNL    H10   37  -0.251  -0.265  -0.169
    1UNL    H11   38   0.010  -0.223   0.150
    1UNL    H12   39  -0.092  -0.320   0.062
    1UNL    H13   40   0.188  -0.315   0.021
    1UNL    H14   41   0.071  -0.417  -0.055
    1UNL    H15   42   0.327  -0.237  -0.093
    1UNL    H16   43   0.311  -0.164  -0.246
    1UNL    H17   44   0.382   0.017  -0.131
    1UNL    H18   45   0.239  -0.063   0.122
    1UNL    H19   46   0.459   0.135   0.077
    1UNL    H20   47   0.297   0.173   0.121
    1UNL    H21   48   0.409   0.081   0.237
    1UNL    H22   49   0.521  -0.100   0.087
    1UNL    H23   50   0.198   0.163  -0.140
    1UNL    H24   51   0.144  -0.009  -0.300
    1UNL    H25   52   0.006   0.088  -0.235
    1UNL    H26   53  -0.056  -0.153  -0.256
   0.00000   0.00000   0.00000   0.00000   0.00000   0.00000   0.00000   0.00000   0.00000
Generated with MDTraj, t= 98.0
 53
    1UNL     C1    1   0.154   0.440   0.083
    1UNL     O1    2   0.169   0.320   0.020
    1UNL     C2    3   0.081   0.228   0.075
    1UNL     O2    4   0.008   0.242   0.173
    1UNL     C3    5   0.071   0.092   0.005
    1UNL     C4    6  -0.024   0.006   0.042
    1UNL     N1    7  -0.145   0.055   0.094
    1UNL     C5    8  -0.251  -0.024   0.046
    1UNL     C6    9  -0.388   0.005   0.053
    1UNL     O3   10  -0.414   0.114   0.140
    1UNL     C7   11  -0.545   0.128   0.187
    1UNL     C8   12  -0.484  -0.068  -0.027
    1UNL     C9   13  -0.436  -0.160  -0.113
    1UNL    C10   14  -0.300  -0.190  -0.123
    1UNL    C11   15  -0.210  -0.118  -0.043
    1UNL    C12   16  -0.057  -0.122  -0.031
    1UNL    C13   17  -0.002  -0.241   0.050
    1UNL    C14   18   0.117  -0.305  -0.023
    1UNL     N2   19   0.140  -0.218  -0.147
    1UNL    C15   20   0.275  -0.152  -0.153
    1UNL    C16   21   0.285  -0.018  -0.081
    1UNL    C17   22   0.317  -0.024   0.071
    1UNL    C18   23   0.361   0.108   0.136
    1UNL     O4   24   0.423  -0.116   0.094
    1UNL    C19   25   0.158   0.068  -0.115
    1UNL    C20   26   0.067   0.001  -0.234
    1UNL    C21   27   0.015  -0.128  -0.172
    1UNL     H1   28   0.148   0.426   0.193
    1UNL     H2   29   0.243   0.501   0.063
    1UNL     H3   30   0.071   0.497   0.037
    1UNL     H4   31  -0.170   0.159   0.112
    1UNL     H5   32  -0.570   0.048   0.257
    1UNL     H6   33  -0.624   0.126   0.107
    1UNL     H7   34  -0.550   0.223   0.233
    1UNL     H8   35  -0.590  -0.056  -0.017
    1UNL     H9   36  -0.503  -0.232  -0.161
    1UNL    H10   37  -0.268  -0.282  -0.179
    1UNL    H11   38   0.044  -0.214   0.143
    1UNL    H12   39  -0.079  -0.313   0.084
    1UNL    H13   40   0.191  -0.301   0.058
    1UNL    H14   41   0.110  -0.413  -0.051
    1UNL    H15   42   0.338  -0.222  -0.099
    1UNL    H16   43   0.313  -0.155  -0.251
    1UNL    H17   44   0.362   0.030  -0.139
    1UNL    H18   45   0.233  -0.057   0.119
    1UNL    H19   46   0.461   0.137   0.131
    1UNL    H20   47   0.301   0.185   0.081
    1UNL    H21   48   0.332   0.112   0.248
    1UNL    H22   49   0.514  -0.079   0.085
    1UNL    H23   50   0.191   0.166  -0.139
    1UNL    H24   51   0.136  -0.013  -0.320
    1UNL    H25   52  -0.017   0.066  -0.262
    1UNL    H26   53  -0.045  -0.184  -0.250
   0.00000   0.00000   0.00000   0.00000   0.00000   0.00000   0.00000   0.00000   0.00000
Generated with MDTraj, t= 99.0
 53
    1UNL     C1    1   0.164   0.435   0.119
    1UNL     O1    2   0.165   0.333   0.020
    1UNL     C2    3   0.076   0.231   0.067
    1UNL     O2    4   0.001   0.244   0.165
    1UNL     C3    5   0.068   0.110  -0.005
    1UNL     C4    6  -0.033   0.024   0.027
    1UNL     N1    7  -0.147   0.051   0.100
    1UNL     C5    8  -0.257  -0.023   0.049
    1UNL     C6    9  -0.395   0.000   0.068
    1UNL     O3   10  -0.430   0.106   0.155
    1UNL     C7   11  -0.558   0.157   0.131
    1UNL     C8   12  -0.477  -0.089   0.001
    1UNL     C9   13  -0.430  -0.176  -0.092
    1UNL    C10   14  -0.298  -0.196  -0.117
    1UNL    C11   15  -0.209  -0.124  -0.035
    1UNL    C12   16  -0.056  -0.115  -0.034
    1UNL    C13   17  -0.005  -0.240   0.055
    1UNL    C14   18   0.117  -0.298  -0.017
    1UNL     N2   19   0.147  -0.225  -0.149
    1UNL    C15   20   0.279  -0.155  -0.148
    1UNL    C16   21   0.293  -0.007  -0.091
    1UNL    C17   22   0.316  -0.026   0.062
    1UNL    C18   23   0.380   0.103   0.132
    1UNL     O4   24   0.407  -0.139   0.078
    1UNL    C19   25   0.164   0.079  -0.124
    1UNL    C20   26   0.076   0.002  -0.230
    1UNL    C21   27   0.025  -0.131  -0.171
    1UNL     H1   28   0.228   0.401   0.204
    1UNL     H2   29   0.199   0.534   0.087
    1UNL     H3   30   0.059   0.455   0.152
    1UNL     H4   31  -0.142   0.123   0.171
    1UNL     H5   32  -0.628   0.071   0.121
    1UNL     H6   33  -0.562   0.225   0.042
    1UNL     H7   34  -0.585   0.220   0.214
    1UNL     H8   35  -0.582  -0.066   0.018
    1UNL     H9   36  -0.492  -0.228  -0.160
    1UNL    H10   37  -0.250  -0.260  -0.187
    1UNL    H11   38   0.015  -0.217   0.158
    1UNL    H12   39  -0.078  -0.323   0.066
    1UNL    H13   40   0.211  -0.288   0.039
    1UNL    H14   41   0.098  -0.410  -0.024
    1UNL    H15   42   0.359  -0.223  -0.125
    1UNL    H16   43   0.279  -0.148  -0.254
    1UNL    H17   44   0.375   0.038  -0.143
    1UNL    H18   45   0.229  -0.047   0.112
    1UNL    H19   46   0.433   0.163   0.061
    1UNL    H20   47   0.307   0.170   0.175
    1UNL    H21   48   0.463   0.080   0.211
    1UNL    H22   49   0.500  -0.116   0.060
    1UNL    H23   50   0.201   0.176  -0.151
    1UNL    H24   51   0.143  -0.016  -0.316
    1UNL    H25   52  -0.008   0.064  -0.260
    1UNL    H26   53  -0.050  -0.179  -0.241
   0.00000   0.00000   0.00000   0.00000   0.00000   0.00000   0.00000   0.00000   0.00000
