[ moleculetype ]
; name        nrexcl
res           1

[ atoms ]
;    nr  type resnr resid  atom  cgnr     charge       mass
      1 TC4       1 res   C1        1      0.000     36.000
      2 TN4a      1 res   C2        2      0.000     36.000
      3 TN6       1 res   C3        3      0.000     36.000
      4 TN6       1 res   C4        4      0.000     36.000
      5 SN6       1 res   C5        5      0.000     54.000
      6 TN6       1 res   C6        6      0.000     36.000
      7 SC3       1 res   C7        7      0.000     54.000
      8 SC4       1 res   C8        8      0.000     54.000
      9 TC3       1 res   C9        9      0.000     36.000
     10 SC4       1 res   C10      10      0.000     54.000
     11 TC3       1 res   C11      11      0.000     36.000
     12 SC4       1 res   C12      12      0.000     54.000
     13 SC4       1 res   C13      13      0.000     54.000
     14 SC4       1 res   C14      14      0.000     54.000
     15 SP2       1 res   C15      15      0.000     54.000
     16 SN6       1 res   C16      16      0.000     54.000
     17 TC3       1 res   C17      17      0.000     36.000
     18 TC4       1 res   C18      18      0.000     36.000
     19 TP1       1 res   C19      19      0.000     36.000
     20 TN4a      1 res   C20      20      0.000     36.000
     21 SP2       1 res   C21      21      0.000     54.000
     22 TN6       1 res   C22      22      0.000     36.000
     23 TN4a      1 res   C23      23      0.000     36.000
     24 TN6       1 res   C24      24      0.000     36.000
     25 TN6       1 res   C25      25      0.000     36.000
     26 TN6       1 res   C26      26      0.000     36.000
     27 TN6       1 res   C27      27      0.000     36.000
     28 TN6       1 res   C28      28      0.000     36.000

[ bonds ]
;  ai    aj   funct      b0(nm)        k
    1     2     1      0.29539    20000
    1    28     1      0.24758    20000
    2     3     1      0.20410    20000
    2    26     1      0.22856    20000
    3     4     1      0.20673    20000
    3    25     1      0.24194    20000
    4     5     1      0.30611    20000
    4    23     1      0.27062    20000
    5     6     1      0.29921    20000
    5    22     1      0.25047    20000
    6     7     1      0.31935    20000
    6    20     1      0.22994    20000
    7     8     1      0.28372    20000
    7    18     1      0.37199    20000
    8     9     1      0.37321    20000
    8    10     1      0.37226    20000
    8    18     1      0.28720    20000
    9    10     1      0.27822    20000
   10    11     1      0.38256    20000
   10    12     1      0.27413    20000
   11    12     1      0.32253    20000
   12    13     1      0.32277    20000
   12    17     1      0.27838    20000
   13    14     1      0.44818    20000
   13    16     1      0.29304    20000
   13    17     1      0.31301    20000
   14    15     1      0.30580    20000
   14    16     1      0.33327    20000
   18    19     1      0.30317    20000
   20    21     1      0.26057    20000
   20    22     1      0.22861    20000
   23    24     1      0.25268    20000
   24    25     1      0.22910    20000
   26    27     1      0.23955    20000
   27    28     1      0.23413    20000
