1TPCN04971
15
    1res  C1    1   -0.610  -0.214  -0.075
    1res  C2    2   -0.588   0.043   0.081
    1res  C3    3   -0.325  -0.005   0.069
    1res  C4    4   -0.417   0.271  -0.087
    1res  C5    5   -0.222   0.161   0.223
    1res  C6    6   -0.085   0.194  -0.018
    1res  C7    7   -0.031  -0.082  -0.191
    1res  C8    8    0.071  -0.057   0.072
    1res  C9    9    0.322  -0.035   0.033
    1res  C10   10    0.421   0.040  -0.242
    1res  C11   11    0.639  -0.097  -0.123
    1res  C12   12    0.320  -0.210  -0.114
    1res  C13   13    0.584   0.014   0.093
    1res  C14   14    0.239   0.151   0.165
    1res  C15   15   -0.342  -0.234  -0.084
  10.00000  10.00000  10.00000
