[ moleculetype ]
; name        nrexcl
res           1

[ atoms ]
;    nr  type  resnr resid  atom  cgnr     charge       mass
      1 TC6       1 res   C1        1      0.000     36.000
      2 TC6       1 res   C2        2      0.000     36.000
      3 TC4       1 res   C3        3      0.000     36.000
      4 TC4       1 res   C4        4      0.000     36.000

[ constraints ]
;  ai    aj   funct      b0(nm)
    1     2     1      0.28404
    2     3     1      0.34027
    1     4     1      0.26702
    3     4     1      0.29610

[ bonds ]
;  ai    aj   funct      b0(nm)          k(kJ/mol/nm^2)

[ angles ]
;  ai    aj    ak  funct     th0(deg)        k(kJ/mol/rad^2)
    1     2     3     1     90.93806          2428.63
    1     4     3     1    104.89713          2123.89
    2     1     4     1     88.98634          1754.80
    2     3     4     1     74.40433          2326.30

[ dihedrals ]
;  ai    aj    ak    al  funct   phi0(deg)        k(kJ/mol)   mult
    1     2     3     4     1   -179.87575       12.192      1
    1     4     3     2     1    179.16496       12.915      1
    2     1     4     3     1   -179.04743       14.320      1
    3     2     1     4     1    179.15930       12.887      1
