1TPCN03682
28
    1res  C1    1    0.652  -0.112   0.091
    1res  C2    2    0.770   0.094   0.015
    1res  C3    3    1.047   0.249   0.136
    1res  C4    4    1.034   0.475   0.256
    1res  C5    5    1.193   0.379  -0.034
    1res  C6    6    1.261   0.171  -0.082
    1res  C7    7    1.028   0.092  -0.123
    1res  C8    8    0.668  -0.156  -0.200
    1res  C9    9    0.515  -0.346  -0.079
    1res  C10   10    0.282  -0.306  -0.233
    1res  C11   11    0.249  -0.362   0.066
    1res  C12   12    0.169   0.012   0.045
    1res  C13   13   -0.018  -0.302  -0.080
    1res  C14   14   -0.227  -0.161  -0.106
    1res  C15   15   -0.199   0.137  -0.038
    1res  C16   16   -0.425   0.091   0.041
    1res  C17   17   -0.609   0.329   0.001
    1res  C18   18   -0.694   0.348  -0.233
    1res  C19   19   -0.844   0.467   0.113
    1res  C20   20   -0.786   0.303   0.279
    1res  C21   21   -0.731   0.140   0.144
    1res  C22   22   -0.864  -0.086   0.048
    1res  C23   23   -0.774   0.013  -0.228
    1res  C24   24   -1.090  -0.124  -0.147
    1res  C25   25   -1.107   0.091  -0.077
    1res  C26   26   -1.065   0.022   0.193
    1res  C27   27   -0.426  -0.102   0.187
    1res  C28   28   -0.052  -0.216   0.207
  10.00000  10.00000  10.00000
