[ moleculetype ]
; name        nrexcl
res           1

[ atoms ]
;    nr  type resnr resid  atom  cgnr     charge       mass
      1 TC4       1 res   C1        1      0.000     36.000
      2 TN4a      1 res   C2        2      0.000     36.000
      3 TN6       1 res   C3        3      0.000     36.000
      4 SN4a      1 res   C4        4      0.000     54.000
      5 SN4a      1 res   C5        5      0.000     54.000
      6 SC5       1 res   C6        6      0.000     54.000
      7 TC3       1 res   C7        7      0.000     36.000
      8 SC4       1 res   C8        8      0.000     54.000
      9 SC4       1 res   C9        9      0.000     54.000
     10 TC3       1 res   C10      10      0.000     36.000
     11 SC4       1 res   C11      11      0.000     54.000
     12 SC4       1 res   C12      12      0.000     54.000
     13 SN6       1 res   C13      13      0.000     54.000
     14 SN6       1 res   C14      14      0.000     54.000
     15 SN4a      1 res   C15      15      0.000     54.000
     16 TN3r      1 res   C16      16      0.000     36.000
     17 SN4a      1 res   C17      17      0.000     54.000
     18 TN3r      1 res   C18      18      0.000     36.000
     19 SN4a      1 res   C19      19      0.000     54.000
     20 TP1       1 res   C20      20      0.000     36.000
     21 TN6       1 res   C21      21      0.000     36.000
     22 TN6       1 res   C22      22      0.000     36.000
     23 TN6       1 res   C23      23      0.000     36.000
     24 TN6       1 res   C24      24      0.000     36.000
     25 TN6       1 res   C25      25      0.000     36.000
     26 TN6       1 res   C26      26      0.000     36.000
     27 TN6       1 res   C27      27      0.000     36.000
     28 TN6       1 res   C28      28      0.000     36.000
     29 TN6       1 res   C29      29      0.000     36.000
     30 TP1       1 res   C30      30      0.000     36.000
     31 TP1       1 res   C31      31      0.000     36.000
     32 TC3       1 res   C32      32      0.000     36.000
     33 SN6       1 res   C33      33      0.000     54.000
     34 TN6       1 res   C34      34      0.000     36.000
     35 TN6       1 res   C35      35      0.000     36.000
     36 TN6       1 res   C36      36      0.000     36.000
     37 SN6       1 res   C37      37      0.000     54.000
     38 TN6       1 res   C38      38      0.000     36.000
     39 TN4a      1 res   C39      39      0.000     36.000
     40 TN6       1 res   C40      40      0.000     36.000
     41 TN6       1 res   C41      41      0.000     36.000
     42 TN6       1 res   C42      42      0.000     36.000

[ bonds ]
;  ai    aj   funct      b0(nm)        k
    1     2     1      0.29375    20000
    1    37     1      0.35227    20000
    2     3     1      0.21324    20000
    2    36     1      0.23377    20000
    3     4     1      0.25602    20000
    3    35     1      0.21469    20000
    4     5     1      0.34896    20000
    4    34     1      0.26121    20000
    5     6     1      0.34914    20000
    6     7     1      0.27100    20000
    6     8     1      0.28115    20000
    6     9     1      0.31533    20000
    6    33     1      0.33548    20000
    7     8     1      0.29379    20000
    9    10     1      0.30493    20000
    9    11     1      0.34743    20000
    9    33     1      0.27855    20000
   10    11     1      0.33473    20000
   11    12     1      0.34359    20000
   11    32     1      0.28092    20000
   12    13     1      0.31183    20000
   12    14     1      0.34917    20000
   12    32     1      0.38127    20000
   13    14     1      0.25542    20000
   14    15     1      0.34427    20000
   14    30     1      0.29680    20000
   14    31     1      0.26181    20000
   15    16     1      0.29682    20000
   15    27     1      0.29410    20000
   15    29     1      0.25354    20000
   16    17     1      0.31290    20000
   17    18     1      0.26058    20000
   17    24     1      0.28691    20000
   17    26     1      0.28297    20000
   18    19     1      0.30654    20000
   19    20     1      0.30835    20000
   19    21     1      0.27600    20000
   19    23     1      0.30306    20000
   21    22     1      0.24845    20000
   22    23     1      0.26869    20000
   24    25     1      0.24031    20000
   25    26     1      0.26255    20000
   27    28     1      0.23537    20000
   28    29     1      0.24323    20000
   34    35     1      0.21543    20000
   36    37     1      0.27834    20000
   37    38     1      0.28584    20000
   38    39     1      0.28135    20000
   38    42     1      0.22011    20000
   39    40     1      0.23231    20000
   40    41     1      0.24637    20000
   41    42     1      0.25376    20000
