Generated with MDTraj, t= 0.0
 53
    1UNL     C1    1  -0.357  -0.047  -0.309
    1UNL     O1    2  -0.307  -0.128  -0.206
    1UNL     C2    3  -0.179  -0.089  -0.159
    1UNL     O2    4  -0.129  -0.175  -0.055
    1UNL     C3    5  -0.142  -0.108   0.073
    1UNL     C4    6  -0.053  -0.169   0.179
    1UNL     C5    7  -0.294  -0.117   0.111
    1UNL     C6    8  -0.378  -0.013   0.038
    1UNL     O3    9  -0.497  -0.022   0.025
    1UNL     C7   10  -0.297   0.104  -0.016
    1UNL     C8   11  -0.198   0.151   0.092
    1UNL     C9   12  -0.101   0.043   0.036
    1UNL     O4   13   0.037   0.079   0.043
    1UNL    C10   14   0.123   0.005  -0.044
    1UNL     O5   15   0.176  -0.117   0.012
    1UNL    C11   16   0.310  -0.114   0.065
    1UNL    C12   17   0.322  -0.219   0.176
    1UNL     O6   18   0.226  -0.199   0.276
    1UNL    C13   19   0.349   0.027   0.115
    1UNL     O7   20   0.259   0.076   0.211
    1UNL    C14   21   0.352   0.124  -0.007
    1UNL     O8   22   0.353   0.258   0.037
    1UNL    C15   23   0.233   0.098  -0.105
    1UNL     O9   24   0.276   0.046  -0.230
    1UNL    C16   25  -0.174   0.058  -0.103
    1UNL    C17   26  -0.119   0.165  -0.198
    1UNL    O10   27  -0.113   0.292  -0.137
    1UNL     H1   28  -0.448  -0.093  -0.347
    1UNL     H2   29  -0.380   0.052  -0.271
    1UNL     H3   30  -0.284  -0.041  -0.390
    1UNL     H4   31  -0.110  -0.099  -0.243
    1UNL     H5   32   0.051  -0.169   0.147
    1UNL     H6   33  -0.081  -0.273   0.198
    1UNL     H7   34  -0.059  -0.114   0.273
    1UNL     H8   35  -0.307  -0.105   0.219
    1UNL     H9   36  -0.331  -0.216   0.085
    1UNL    H10   37  -0.359   0.184  -0.061
    1UNL    H11   38  -0.230   0.133   0.195
    1UNL    H12   39  -0.159   0.253   0.077
    1UNL    H13   40   0.062  -0.031  -0.127
    1UNL    H14   41   0.375  -0.141  -0.020
    1UNL    H15   42   0.307  -0.319   0.134
    1UNL    H16   43   0.423  -0.215   0.220
    1UNL    H17   44   0.243  -0.258   0.353
    1UNL    H18   45   0.447   0.025   0.164
    1UNL    H19   46   0.170   0.073   0.169
    1UNL    H20   47   0.446   0.110  -0.063
    1UNL    H21   48   0.292   0.266   0.113
    1UNL    H22   49   0.186   0.195  -0.125
    1UNL    H23   50   0.344   0.105  -0.269
    1UNL    H24   51  -0.019   0.138  -0.232
    1UNL    H25   52  -0.183   0.172  -0.287
    1UNL    H26   53  -0.074   0.359  -0.198
   0.00000   0.00000   0.00000   0.00000   0.00000   0.00000   0.00000   0.00000   0.00000
Generated with MDTraj, t= 1.0
 53
    1UNL     C1    1  -0.396  -0.057  -0.279
    1UNL     O1    2  -0.318  -0.139  -0.206
    1UNL     C2    3  -0.190  -0.083  -0.162
    1UNL     O2    4  -0.132  -0.171  -0.068
    1UNL     C3    5  -0.151  -0.106   0.062
    1UNL     C4    6  -0.068  -0.165   0.183
    1UNL     C5    7  -0.303  -0.111   0.101
    1UNL     C6    8  -0.386  -0.007   0.027
    1UNL     O3    9  -0.500  -0.019   0.002
    1UNL     C7   10  -0.305   0.111  -0.025
    1UNL     C8   11  -0.207   0.158   0.083
    1UNL     C9   12  -0.111   0.049   0.033
    1UNL     O4   13   0.028   0.087   0.032
    1UNL    C10   14   0.129   0.002  -0.025
    1UNL     O5   15   0.178  -0.110   0.054
    1UNL    C11   16   0.320  -0.112   0.065
    1UNL    C12   17   0.360  -0.228   0.163
    1UNL     O6   18   0.277  -0.224   0.275
    1UNL    C13   19   0.361   0.029   0.115
    1UNL     O7   20   0.266   0.062   0.218
    1UNL    C14   21   0.357   0.127  -0.000
    1UNL     O8   22   0.351   0.257   0.045
    1UNL    C15   23   0.233   0.093  -0.096
    1UNL     O9   24   0.291   0.038  -0.219
    1UNL    C16   25  -0.175   0.064  -0.105
    1UNL    C17   26  -0.120   0.166  -0.201
    1UNL    O10   27  -0.115   0.302  -0.156
    1UNL     H1   28  -0.423  -0.118  -0.362
    1UNL     H2   29  -0.486  -0.034  -0.224
    1UNL     H3   30  -0.348   0.027  -0.314
    1UNL     H4   31  -0.118  -0.101  -0.240
    1UNL     H5   32   0.038  -0.167   0.138
    1UNL     H6   33  -0.100  -0.263   0.201
    1UNL     H7   34  -0.071  -0.097   0.266
    1UNL     H8   35  -0.310  -0.083   0.210
    1UNL     H9   36  -0.347  -0.208   0.086
    1UNL    H10   37  -0.365   0.189  -0.075
    1UNL    H11   38  -0.217   0.139   0.191
    1UNL    H12   39  -0.173   0.263   0.076
    1UNL    H13   40   0.075  -0.066  -0.095
    1UNL    H14   41   0.367  -0.131  -0.032
    1UNL    H15   42   0.340  -0.322   0.117
    1UNL    H16   43   0.462  -0.216   0.191
    1UNL    H17   44   0.305  -0.253   0.367
    1UNL    H18   45   0.454   0.023   0.170
    1UNL    H19   46   0.176   0.073   0.177
    1UNL    H20   47   0.446   0.121  -0.069
    1UNL    H21   48   0.284   0.270   0.124
    1UNL    H22   49   0.184   0.190  -0.117
    1UNL    H23   50   0.340   0.108  -0.262
    1UNL    H24   51  -0.014   0.140  -0.221
    1UNL    H25   52  -0.177   0.176  -0.296
    1UNL    H26   53  -0.105   0.375  -0.220
   0.00000   0.00000   0.00000   0.00000   0.00000   0.00000   0.00000   0.00000   0.00000
Generated with MDTraj, t= 2.0
 53
    1UNL     C1    1  -0.384  -0.034  -0.281
    1UNL     O1    2  -0.312  -0.133  -0.215
    1UNL     C2    3  -0.178  -0.099  -0.161
    1UNL     O2    4  -0.129  -0.176  -0.052
    1UNL     C3    5  -0.148  -0.102   0.070
    1UNL     C4    6  -0.064  -0.160   0.181
    1UNL     C5    7  -0.301  -0.111   0.104
    1UNL     C6    8  -0.382  -0.004   0.025
    1UNL     O3    9  -0.504   0.007   0.020
    1UNL     C7   10  -0.298   0.105  -0.035
    1UNL     C8   11  -0.201   0.150   0.079
    1UNL     C9   12  -0.109   0.040   0.031
    1UNL     O4   13   0.028   0.069   0.056
    1UNL    C10   14   0.116  -0.001  -0.035
    1UNL     O5   15   0.176  -0.111   0.032
    1UNL    C11   16   0.317  -0.111   0.060
    1UNL    C12   17   0.343  -0.237   0.149
    1UNL     O6   18   0.314  -0.208   0.281
    1UNL    C13   19   0.352   0.027   0.122
    1UNL     O7   20   0.256   0.060   0.219
    1UNL    C14   21   0.346   0.136   0.004
    1UNL     O8   22   0.331   0.269   0.050
    1UNL    C15   23   0.227   0.106  -0.095
    1UNL     O9   24   0.284   0.026  -0.205
    1UNL    C16   25  -0.174   0.057  -0.119
    1UNL    C17   26  -0.102   0.159  -0.210
    1UNL    O10   27  -0.128   0.291  -0.164
    1UNL     H1   28  -0.434  -0.085  -0.356
    1UNL     H2   29  -0.461   0.002  -0.218
    1UNL     H3   30  -0.328   0.042  -0.322
    1UNL     H4   31  -0.104  -0.108  -0.236
    1UNL     H5   32   0.041  -0.165   0.150
    1UNL     H6   33  -0.106  -0.258   0.191
    1UNL     H7   34  -0.078  -0.092   0.266
    1UNL     H8   35  -0.319  -0.105   0.216
    1UNL     H9   36  -0.338  -0.203   0.066
    1UNL    H10   37  -0.355   0.198  -0.065
    1UNL    H11   38  -0.248   0.149   0.178
    1UNL    H12   39  -0.136   0.241   0.065
    1UNL    H13   40   0.057  -0.040  -0.119
    1UNL    H14   41   0.356  -0.114  -0.042
    1UNL    H15   42   0.283  -0.313   0.112
    1UNL    H16   43   0.445  -0.260   0.147
    1UNL    H17   44   0.309  -0.298   0.322
    1UNL    H18   45   0.450   0.034   0.168
    1UNL    H19   46   0.159   0.046   0.183
    1UNL    H20   47   0.446   0.124  -0.050
    1UNL    H21   48   0.282   0.269   0.127
    1UNL    H22   49   0.173   0.196  -0.131
    1UNL    H23   50   0.330   0.073  -0.278
    1UNL    H24   51   0.010   0.152  -0.213
    1UNL    H25   52  -0.130   0.154  -0.319
    1UNL    H26   53  -0.067   0.348  -0.221
   0.00000   0.00000   0.00000   0.00000   0.00000   0.00000   0.00000   0.00000   0.00000
Generated with MDTraj, t= 3.0
 53
    1UNL     C1    1  -0.347  -0.058  -0.322
    1UNL     O1    2  -0.318  -0.128  -0.201
    1UNL     C2    3  -0.185  -0.087  -0.155
    1UNL     O2    4  -0.147  -0.173  -0.050
    1UNL     C3    5  -0.156  -0.107   0.073
    1UNL     C4    6  -0.058  -0.159   0.187
    1UNL     C5    7  -0.301  -0.095   0.116
    1UNL     C6    8  -0.387   0.005   0.034
    1UNL     O3    9  -0.508  -0.004   0.014
    1UNL     C7   10  -0.297   0.108  -0.020
    1UNL     C8   11  -0.193   0.163   0.091
    1UNL     C9   12  -0.104   0.044   0.031
    1UNL     O4   13   0.031   0.077   0.034
    1UNL    C10   14   0.126  -0.009  -0.038
    1UNL     O5   15   0.183  -0.122   0.024
    1UNL    C11   16   0.324  -0.114   0.061
    1UNL    C12   17   0.361  -0.227   0.160
    1UNL     O6   18   0.297  -0.221   0.291
    1UNL    C13   19   0.356   0.030   0.117
    1UNL     O7   20   0.257   0.044   0.215
    1UNL    C14   21   0.335   0.134  -0.001
    1UNL     O8   22   0.307   0.264   0.057
    1UNL    C15   23   0.232   0.088  -0.102
    1UNL     O9   24   0.290   0.039  -0.229
    1UNL    C16   25  -0.180   0.061  -0.108
    1UNL    C17   26  -0.132   0.163  -0.209
    1UNL    O10   27  -0.120   0.296  -0.152
    1UNL     H1   28  -0.443  -0.076  -0.350
    1UNL     H2   29  -0.345   0.044  -0.301
    1UNL     H3   30  -0.278  -0.083  -0.397
    1UNL     H4   31  -0.112  -0.092  -0.232
    1UNL     H5   32   0.041  -0.149   0.159
    1UNL     H6   33  -0.072  -0.266   0.202
    1UNL     H7   34  -0.075  -0.098   0.278
    1UNL     H8   35  -0.303  -0.065   0.225
    1UNL     H9   36  -0.342  -0.193   0.102
    1UNL    H10   37  -0.350   0.190  -0.075
    1UNL    H11   38  -0.233   0.158   0.191
    1UNL    H12   39  -0.145   0.262   0.062
    1UNL    H13   40   0.076  -0.058  -0.123
    1UNL    H14   41   0.382  -0.128  -0.031
    1UNL    H15   42   0.328  -0.318   0.117
    1UNL    H16   43   0.466  -0.228   0.170
    1UNL    H17   44   0.359  -0.236   0.365
    1UNL    H18   45   0.457   0.027   0.159
    1UNL    H19   46   0.177   0.038   0.164
    1UNL    H20   47   0.440   0.139  -0.048
    1UNL    H21   48   0.231   0.252   0.128
    1UNL    H22   49   0.180   0.188  -0.112
    1UNL    H23   50   0.339   0.121  -0.264
    1UNL    H24   51  -0.044   0.129  -0.270
    1UNL    H25   52  -0.217   0.185  -0.281
    1UNL    H26   53  -0.045   0.343  -0.198
   0.00000   0.00000   0.00000   0.00000   0.00000   0.00000   0.00000   0.00000   0.00000
Generated with MDTraj, t= 4.0
 53
    1UNL     C1    1  -0.338  -0.090  -0.341
    1UNL     O1    2  -0.316  -0.122  -0.202
    1UNL     C2    3  -0.182  -0.085  -0.155
    1UNL     O2    4  -0.147  -0.180  -0.052
    1UNL     C3    5  -0.151  -0.104   0.074
    1UNL     C4    6  -0.061  -0.181   0.169
    1UNL     C5    7  -0.300  -0.103   0.125
    1UNL     C6    8  -0.383  -0.001   0.047
    1UNL     O3    9  -0.499  -0.004   0.033
    1UNL     C7   10  -0.295   0.112  -0.015
    1UNL     C8   11  -0.197   0.152   0.097
    1UNL     C9   12  -0.105   0.043   0.040
    1UNL     O4   13   0.030   0.086   0.043
    1UNL    C10   14   0.121   0.012  -0.044
    1UNL     O5   15   0.177  -0.108   0.026
    1UNL    C11   16   0.313  -0.111   0.054
    1UNL    C12   17   0.351  -0.224   0.152
    1UNL     O6   18   0.251  -0.217   0.255
    1UNL    C13   19   0.340   0.035   0.108
    1UNL     O7   20   0.258   0.060   0.217
    1UNL    C14   21   0.339   0.141  -0.004
    1UNL     O8   22   0.320   0.277   0.046
    1UNL    C15   23   0.230   0.099  -0.109
    1UNL     O9   24   0.289   0.012  -0.204
    1UNL    C16   25  -0.173   0.060  -0.100
    1UNL    C17   26  -0.109   0.163  -0.193
    1UNL    O10   27  -0.085   0.294  -0.139
    1UNL     H1   28  -0.436  -0.114  -0.360
    1UNL     H2   29  -0.329   0.013  -0.358
    1UNL     H3   30  -0.274  -0.150  -0.406
    1UNL     H4   31  -0.115  -0.110  -0.232
    1UNL     H5   32   0.028  -0.212   0.125
    1UNL     H6   33  -0.117  -0.277   0.178
    1UNL     H7   34  -0.034  -0.145   0.267
    1UNL     H8   35  -0.293  -0.078   0.233
    1UNL     H9   36  -0.354  -0.198   0.109
    1UNL    H10   37  -0.347   0.201  -0.063
    1UNL    H11   38  -0.211   0.135   0.204
    1UNL    H12   39  -0.163   0.258   0.081
    1UNL    H13   40   0.065  -0.038  -0.124
    1UNL    H14   41   0.373  -0.117  -0.038
    1UNL    H15   42   0.346  -0.324   0.107
    1UNL    H16   43   0.447  -0.201   0.201
    1UNL    H17   44   0.186  -0.141   0.247
    1UNL    H18   45   0.442   0.037   0.152
    1UNL    H19   46   0.163   0.071   0.174
    1UNL    H20   47   0.433   0.137  -0.072
    1UNL    H21   48   0.250   0.290   0.113
    1UNL    H22   49   0.184   0.182  -0.166
    1UNL    H23   50   0.351   0.042  -0.274
    1UNL    H24   51  -0.017   0.118  -0.233
    1UNL    H25   52  -0.188   0.179  -0.271
    1UNL    H26   53  -0.027   0.355  -0.186
   0.00000   0.00000   0.00000   0.00000   0.00000   0.00000   0.00000   0.00000   0.00000
Generated with MDTraj, t= 5.0
 53
    1UNL     C1    1  -0.333  -0.089  -0.350
    1UNL     O1    2  -0.315  -0.109  -0.215
    1UNL     C2    3  -0.185  -0.082  -0.168
    1UNL     O2    4  -0.137  -0.169  -0.056
    1UNL     C3    5  -0.144  -0.104   0.073
    1UNL     C4    6  -0.058  -0.150   0.182
    1UNL     C5    7  -0.292  -0.123   0.109
    1UNL     C6    8  -0.381  -0.009   0.053
    1UNL     O3    9  -0.503  -0.009   0.053
    1UNL     C7   10  -0.294   0.107  -0.005
    1UNL     C8   11  -0.192   0.139   0.103
    1UNL     C9   12  -0.102   0.041   0.034
    1UNL     O4   13   0.040   0.070   0.032
    1UNL    C10   14   0.121  -0.006  -0.058
    1UNL     O5   15   0.171  -0.128  -0.005
    1UNL    C11   16   0.310  -0.117   0.058
    1UNL    C12   17   0.316  -0.218   0.176
    1UNL     O6   18   0.258  -0.194   0.305
    1UNL    C13   19   0.348   0.028   0.111
    1UNL     O7   20   0.259   0.064   0.221
    1UNL    C14   21   0.339   0.131  -0.012
    1UNL     O8   22   0.317   0.263   0.040
    1UNL    C15   23   0.223   0.092  -0.116
    1UNL     O9   24   0.288   0.038  -0.227
    1UNL    C16   25  -0.180   0.066  -0.106
    1UNL    C17   26  -0.118   0.179  -0.193
    1UNL    O10   27  -0.077   0.291  -0.123
    1UNL     H1   28  -0.439  -0.103  -0.362
    1UNL     H2   29  -0.311   0.014  -0.375
    1UNL     H3   30  -0.275  -0.167  -0.409
    1UNL     H4   31  -0.123  -0.096  -0.252
    1UNL     H5   32   0.045  -0.129   0.158
    1UNL     H6   33  -0.056  -0.260   0.196
    1UNL     H7   34  -0.069  -0.100   0.273
    1UNL     H8   35  -0.309  -0.139   0.215
    1UNL     H9   36  -0.318  -0.219   0.054
    1UNL    H10   37  -0.355   0.198  -0.033
    1UNL    H11   38  -0.202   0.116   0.209
    1UNL    H12   39  -0.160   0.245   0.091
    1UNL    H13   40   0.053  -0.034  -0.139
    1UNL    H14   41   0.371  -0.147  -0.032
    1UNL    H15   42   0.268  -0.311   0.134
    1UNL    H16   43   0.425  -0.236   0.199
    1UNL    H17   44   0.224  -0.102   0.304
    1UNL    H18   45   0.444   0.030   0.170
    1UNL    H19   46   0.173   0.072   0.187
    1UNL    H20   47   0.438   0.133  -0.070
    1UNL    H21   48   0.263   0.257   0.116
    1UNL    H22   49   0.172   0.188  -0.137
    1UNL    H23   50   0.339   0.109  -0.265
    1UNL    H24   51  -0.032   0.132  -0.242
    1UNL    H25   52  -0.194   0.204  -0.269
    1UNL    H26   53  -0.089   0.375  -0.174
   0.00000   0.00000   0.00000   0.00000   0.00000   0.00000   0.00000   0.00000   0.00000
Generated with MDTraj, t= 6.0
 53
    1UNL     C1    1  -0.347  -0.070  -0.337
    1UNL     O1    2  -0.312  -0.112  -0.209
    1UNL     C2    3  -0.183  -0.080  -0.169
    1UNL     O2    4  -0.137  -0.175  -0.069
    1UNL     C3    5  -0.140  -0.123   0.065
    1UNL     C4    6  -0.059  -0.206   0.163
    1UNL     C5    7  -0.298  -0.118   0.111
    1UNL     C6    8  -0.374  -0.004   0.045
    1UNL     O3    9  -0.497  -0.015   0.035
    1UNL     C7   10  -0.289   0.104  -0.008
    1UNL     C8   11  -0.185   0.144   0.106
    1UNL     C9   12  -0.097   0.037   0.039
    1UNL     O4   13   0.032   0.082   0.035
    1UNL    C10   14   0.117   0.003  -0.046
    1UNL     O5   15   0.166  -0.115   0.021
    1UNL    C11   16   0.304  -0.115   0.069
    1UNL    C12   17   0.327  -0.210   0.191
    1UNL     O6   18   0.242  -0.179   0.297
    1UNL    C13   19   0.341   0.026   0.114
    1UNL     O7   20   0.261   0.072   0.213
    1UNL    C14   21   0.351   0.125  -0.008
    1UNL     O8   22   0.357   0.261   0.026
    1UNL    C15   23   0.231   0.091  -0.111
    1UNL     O9   24   0.269   0.033  -0.238
    1UNL    C16   25  -0.172   0.061  -0.099
    1UNL    C17   26  -0.120   0.177  -0.188
    1UNL    O10   27  -0.114   0.302  -0.129
    1UNL     H1   28  -0.450  -0.104  -0.364
    1UNL     H2   29  -0.344   0.043  -0.338
    1UNL     H3   30  -0.269  -0.114  -0.409
    1UNL     H4   31  -0.125  -0.074  -0.255
    1UNL     H5   32   0.049  -0.229   0.144
    1UNL     H6   33  -0.102  -0.303   0.190
    1UNL     H7   34  -0.046  -0.149   0.251
    1UNL     H8   35  -0.312  -0.104   0.216
    1UNL     H9   36  -0.355  -0.212   0.076
    1UNL    H10   37  -0.345   0.194  -0.047
    1UNL    H11   38  -0.206   0.128   0.214
    1UNL    H12   39  -0.141   0.242   0.088
    1UNL    H13   40   0.056  -0.026  -0.133
    1UNL    H14   41   0.373  -0.149  -0.013
    1UNL    H15   42   0.300  -0.322   0.181
    1UNL    H16   43   0.438  -0.205   0.224
    1UNL    H17   44   0.258  -0.081   0.303
    1UNL    H18   45   0.443   0.020   0.164
    1UNL    H19   46   0.173   0.104   0.173
    1UNL    H20   47   0.450   0.098  -0.053
    1UNL    H21   48   0.301   0.263   0.117
    1UNL    H22   49   0.190   0.191  -0.133
    1UNL    H23   50   0.333   0.094  -0.280
    1UNL    H24   51  -0.030   0.144  -0.240
    1UNL    H25   52  -0.196   0.188  -0.265
    1UNL    H26   53  -0.016   0.311  -0.106
   0.00000   0.00000   0.00000   0.00000   0.00000   0.00000   0.00000   0.00000   0.00000
Generated with MDTraj, t= 7.0
 53
    1UNL     C1    1  -0.372  -0.021  -0.306
    1UNL     O1    2  -0.311  -0.114  -0.211
    1UNL     C2    3  -0.182  -0.081  -0.167
    1UNL     O2    4  -0.133  -0.181  -0.068
    1UNL     C3    5  -0.147  -0.105   0.060
    1UNL     C4    6  -0.070  -0.184   0.163
    1UNL     C5    7  -0.299  -0.129   0.098
    1UNL     C6    8  -0.392  -0.026   0.033
    1UNL     O3    9  -0.508  -0.035   0.018
    1UNL     C7   10  -0.311   0.095  -0.015
    1UNL     C8   11  -0.215   0.149   0.094
    1UNL     C9   12  -0.110   0.043   0.039
    1UNL     O4   13   0.036   0.072   0.042
    1UNL    C10   14   0.130  -0.004  -0.037
    1UNL     O5   15   0.192  -0.113   0.028
    1UNL    C11   16   0.321  -0.106   0.080
    1UNL    C12   17   0.338  -0.196   0.198
    1UNL     O6   18   0.229  -0.193   0.284
    1UNL    C13   19   0.359   0.041   0.117
    1UNL     O7   20   0.276   0.091   0.215
    1UNL    C14   21   0.362   0.118  -0.019
    1UNL     O8   22   0.387   0.254   0.001
    1UNL    C15   23   0.234   0.082  -0.103
    1UNL     O9   24   0.270   0.017  -0.224
    1UNL    C16   25  -0.182   0.056  -0.103
    1UNL    C17   26  -0.130   0.174  -0.187
    1UNL    O10   27  -0.103   0.298  -0.114
    1UNL     H1   28  -0.468  -0.061  -0.358
    1UNL     H2   29  -0.398   0.081  -0.257
    1UNL     H3   30  -0.296  -0.001  -0.387
    1UNL     H4   31  -0.115  -0.091  -0.245
    1UNL     H5   32   0.036  -0.183   0.138
    1UNL     H6   33  -0.094  -0.290   0.161
    1UNL     H7   34  -0.072  -0.141   0.262
    1UNL     H8   35  -0.314  -0.115   0.205
    1UNL     H9   36  -0.337  -0.231   0.066
    1UNL    H10   37  -0.377   0.176  -0.050
    1UNL    H11   38  -0.257   0.128   0.195
    1UNL    H12   39  -0.170   0.245   0.087
    1UNL    H13   40   0.070  -0.044  -0.120
    1UNL    H14   41   0.391  -0.139   0.001
    1UNL    H15   42   0.352  -0.307   0.170
    1UNL    H16   43   0.420  -0.181   0.279
    1UNL    H17   44   0.191  -0.102   0.279
    1UNL    H18   45   0.461   0.057   0.163
    1UNL    H19   46   0.185   0.078   0.183
    1UNL    H20   47   0.444   0.100  -0.088
    1UNL    H21   48   0.318   0.295   0.051
    1UNL    H22   49   0.185   0.176  -0.129
    1UNL    H23   50   0.340   0.062  -0.282
    1UNL    H24   51  -0.035   0.149  -0.235
    1UNL    H25   52  -0.198   0.197  -0.269
    1UNL    H26   53  -0.030   0.283  -0.049
   0.00000   0.00000   0.00000   0.00000   0.00000   0.00000   0.00000   0.00000   0.00000
Generated with MDTraj, t= 8.0
 53
    1UNL     C1    1  -0.388  -0.023  -0.284
    1UNL     O1    2  -0.295  -0.122  -0.241
    1UNL     C2    3  -0.180  -0.069  -0.173
    1UNL     O2    4  -0.129  -0.166  -0.073
    1UNL     C3    5  -0.152  -0.121   0.066
    1UNL     C4    6  -0.059  -0.202   0.166
    1UNL     C5    7  -0.298  -0.140   0.089
    1UNL     C6    8  -0.378  -0.021   0.033
    1UNL     O3    9  -0.493  -0.033   0.004
    1UNL     C7   10  -0.296   0.103  -0.002
    1UNL     C8   11  -0.198   0.130   0.110
    1UNL     C9   12  -0.105   0.035   0.038
    1UNL     O4   13   0.031   0.077   0.035
    1UNL    C10   14   0.118  -0.009  -0.046
    1UNL     O5   15   0.164  -0.122   0.034
    1UNL    C11   16   0.304  -0.118   0.083
    1UNL    C12   17   0.313  -0.208   0.203
    1UNL     O6   18   0.268  -0.142   0.327
    1UNL    C13   19   0.350   0.034   0.111
    1UNL     O7   20   0.265   0.108   0.208
    1UNL    C14   21   0.347   0.116  -0.026
    1UNL     O8   22   0.352   0.247   0.011
    1UNL    C15   23   0.223   0.081  -0.118
    1UNL     O9   24   0.251   0.031  -0.251
    1UNL    C16   25  -0.180   0.069  -0.098
    1UNL    C17   26  -0.115   0.181  -0.189
    1UNL    O10   27  -0.047   0.276  -0.105
    1UNL     H1   28  -0.435  -0.053  -0.386
    1UNL     H2   29  -0.469  -0.008  -0.203
    1UNL     H3   30  -0.333   0.072  -0.299
    1UNL     H4   31  -0.112  -0.061  -0.251
    1UNL     H5   32   0.023  -0.225   0.104
    1UNL     H6   33  -0.103  -0.289   0.206
    1UNL     H7   34  -0.026  -0.131   0.244
    1UNL     H8   35  -0.326  -0.138   0.198
    1UNL     H9   36  -0.339  -0.233   0.040
    1UNL    H10   37  -0.353   0.196  -0.020
    1UNL    H11   38  -0.223   0.082   0.207
    1UNL    H12   39  -0.154   0.225   0.132
    1UNL    H13   40   0.052  -0.048  -0.125
    1UNL    H14   41   0.362  -0.164  -0.001
    1UNL    H15   42   0.248  -0.301   0.202
    1UNL    H16   43   0.417  -0.254   0.219
    1UNL    H17   44   0.238  -0.050   0.309
    1UNL    H18   45   0.446   0.024   0.164
    1UNL    H19   46   0.172   0.100   0.170
    1UNL    H20   47   0.432   0.102  -0.088
    1UNL    H21   48   0.285   0.261   0.076
    1UNL    H22   49   0.178   0.179  -0.134
    1UNL    H23   50   0.323   0.083  -0.298
    1UNL    H24   51  -0.038   0.141  -0.255
    1UNL    H25   52  -0.177   0.239  -0.259
    1UNL    H26   53   0.006   0.238  -0.033
   0.00000   0.00000   0.00000   0.00000   0.00000   0.00000   0.00000   0.00000   0.00000
Generated with MDTraj, t= 9.0
 53
    1UNL     C1    1  -0.383  -0.006  -0.295
    1UNL     O1    2  -0.318  -0.103  -0.220
    1UNL     C2    3  -0.189  -0.072  -0.172
    1UNL     O2    4  -0.135  -0.178  -0.084
    1UNL     C3    5  -0.149  -0.123   0.046
    1UNL     C4    6  -0.058  -0.194   0.157
    1UNL     C5    7  -0.306  -0.134   0.076
    1UNL     C6    8  -0.381  -0.018   0.018
    1UNL     O3    9  -0.506  -0.023   0.008
    1UNL     C7   10  -0.298   0.106  -0.010
    1UNL     C8   11  -0.202   0.133   0.107
    1UNL     C9   12  -0.105   0.033   0.040
    1UNL     O4   13   0.038   0.061   0.051
    1UNL    C10   14   0.120  -0.026  -0.035
    1UNL     O5   15   0.193  -0.133   0.035
    1UNL    C11   16   0.332  -0.107   0.085
    1UNL    C12   17   0.345  -0.192   0.206
    1UNL     O6   18   0.255  -0.139   0.310
    1UNL    C13   19   0.355   0.043   0.111
    1UNL     O7   20   0.266   0.109   0.199
    1UNL    C14   21   0.348   0.123  -0.025
    1UNL     O8   22   0.346   0.256   0.006
    1UNL    C15   23   0.221   0.068  -0.110
    1UNL     O9   24   0.253  -0.006  -0.231
    1UNL    C16   25  -0.178   0.065  -0.099
    1UNL    C17   26  -0.109   0.172  -0.174
    1UNL    O10   27  -0.075   0.280  -0.089
    1UNL     H1   28  -0.436  -0.062  -0.379
    1UNL     H2   29  -0.457   0.049  -0.232
    1UNL     H3   30  -0.311   0.061  -0.346
    1UNL     H4   31  -0.139  -0.051  -0.260
    1UNL     H5   32   0.041  -0.157   0.180
    1UNL     H6   33  -0.054  -0.293   0.128
    1UNL     H7   34  -0.131  -0.195   0.241
    1UNL     H8   35  -0.343  -0.128   0.185
    1UNL     H9   36  -0.352  -0.224   0.034
    1UNL    H10   37  -0.363   0.185  -0.046
    1UNL    H11   38  -0.223   0.093   0.209
    1UNL    H12   39  -0.174   0.235   0.116
    1UNL    H13   40   0.052  -0.080  -0.104
    1UNL    H14   41   0.393  -0.127  -0.007
    1UNL    H15   42   0.316  -0.291   0.162
    1UNL    H16   43   0.452  -0.195   0.239
    1UNL    H17   44   0.246  -0.044   0.291
    1UNL    H18   45   0.449   0.066   0.158
    1UNL    H19   46   0.176   0.111   0.150
    1UNL    H20   47   0.436   0.107  -0.081
    1UNL    H21   48   0.272   0.264   0.080
    1UNL    H22   49   0.174   0.162  -0.141
    1UNL    H23   50   0.322   0.045  -0.278
    1UNL    H24   51  -0.019   0.146  -0.232
    1UNL    H25   52  -0.180   0.209  -0.248
    1UNL    H26   53  -0.010   0.235  -0.026
   0.00000   0.00000   0.00000   0.00000   0.00000   0.00000   0.00000   0.00000   0.00000
Generated with MDTraj, t= 10.0
 53
    1UNL     C1    1  -0.352  -0.003  -0.335
    1UNL     O1    2  -0.320  -0.088  -0.223
    1UNL     C2    3  -0.188  -0.066  -0.174
    1UNL     O2    4  -0.133  -0.173  -0.084
    1UNL     C3    5  -0.157  -0.126   0.050
    1UNL     C4    6  -0.074  -0.220   0.131
    1UNL     C5    7  -0.298  -0.138   0.088
    1UNL     C6    8  -0.390  -0.017   0.035
    1UNL     O3    9  -0.512  -0.023   0.031
    1UNL     C7   10  -0.304   0.104   0.001
    1UNL     C8   11  -0.197   0.132   0.115
    1UNL     C9   12  -0.102   0.026   0.037
    1UNL     O4   13   0.041   0.063   0.041
    1UNL    C10   14   0.128  -0.020  -0.027
    1UNL     O5   15   0.182  -0.116   0.062
    1UNL    C11   16   0.321  -0.096   0.100
    1UNL    C12   17   0.366  -0.183   0.219
    1UNL     O6   18   0.256  -0.187   0.301
    1UNL    C13   19   0.353   0.057   0.107
    1UNL     O7   20   0.265   0.127   0.195
    1UNL    C14   21   0.343   0.125  -0.035
    1UNL     O8   22   0.322   0.264  -0.023
    1UNL    C15   23   0.227   0.053  -0.112
    1UNL     O9   24   0.278  -0.027  -0.220
    1UNL    C16   25  -0.187   0.066  -0.092
    1UNL    C17   26  -0.134   0.192  -0.171
    1UNL    O10   27  -0.065   0.279  -0.092
    1UNL     H1   28  -0.460  -0.002  -0.347
    1UNL     H2   29  -0.313   0.098  -0.324
    1UNL     H3   30  -0.316  -0.050  -0.424
    1UNL     H4   31  -0.127  -0.063  -0.258
    1UNL     H5   32   0.009  -0.262   0.074
    1UNL     H6   33  -0.125  -0.302   0.174
    1UNL     H7   34  -0.035  -0.163   0.215
    1UNL     H8   35  -0.298  -0.137   0.203
    1UNL     H9   36  -0.346  -0.230   0.055
    1UNL    H10   37  -0.361   0.193  -0.020
    1UNL    H11   38  -0.224   0.101   0.217
    1UNL    H12   39  -0.157   0.233   0.106
    1UNL    H13   40   0.063  -0.081  -0.094
    1UNL    H14   41   0.396  -0.136   0.029
    1UNL    H15   42   0.391  -0.282   0.186
    1UNL    H16   43   0.448  -0.138   0.276
    1UNL    H17   44   0.178  -0.147   0.256
    1UNL    H18   45   0.450   0.076   0.150
    1UNL    H19   46   0.176   0.101   0.164
    1UNL    H20   47   0.434   0.110  -0.090
    1UNL    H21   48   0.284   0.279   0.062
    1UNL    H22   49   0.168   0.129  -0.166
    1UNL    H23   50   0.338   0.014  -0.281
    1UNL    H24   51  -0.069   0.159  -0.253
    1UNL    H25   52  -0.212   0.250  -0.222
    1UNL    H26   53   0.023   0.242  -0.073
   0.00000   0.00000   0.00000   0.00000   0.00000   0.00000   0.00000   0.00000   0.00000
Generated with MDTraj, t= 11.0
 53
    1UNL     C1    1  -0.340  -0.022  -0.361
    1UNL     O1    2  -0.320  -0.073  -0.227
    1UNL     C2    3  -0.192  -0.045  -0.174
    1UNL     O2    4  -0.146  -0.161  -0.096
    1UNL     C3    5  -0.155  -0.128   0.048
    1UNL     C4    6  -0.070  -0.223   0.138
    1UNL     C5    7  -0.307  -0.137   0.091
    1UNL     C6    8  -0.387  -0.013   0.044
    1UNL     O3    9  -0.505  -0.021   0.039
    1UNL     C7   10  -0.300   0.110   0.007
    1UNL     C8   11  -0.193   0.130   0.115
    1UNL     C9   12  -0.105   0.030   0.039
    1UNL     O4   13   0.036   0.060   0.036
    1UNL    C10   14   0.121  -0.034  -0.030
    1UNL     O5   15   0.186  -0.135   0.053
    1UNL    C11   16   0.330  -0.096   0.082
    1UNL    C12   17   0.365  -0.173   0.207
    1UNL     O6   18   0.279  -0.141   0.313
    1UNL    C13   19   0.345   0.053   0.103
    1UNL     O7   20   0.256   0.089   0.200
    1UNL    C14   21   0.328   0.125  -0.032
    1UNL     O8   22   0.279   0.254  -0.022
    1UNL    C15   23   0.225   0.046  -0.120
    1UNL     O9   24   0.295  -0.041  -0.208
    1UNL    C16   25  -0.182   0.074  -0.091
    1UNL    C17   26  -0.117   0.193  -0.163
    1UNL    O10   27  -0.063   0.284  -0.077
    1UNL     H1   28  -0.432  -0.057  -0.392
    1UNL     H2   29  -0.333   0.084  -0.369
    1UNL     H3   30  -0.273  -0.068  -0.427
    1UNL     H4   31  -0.124  -0.042  -0.253
    1UNL     H5   32   0.024  -0.250   0.087
    1UNL     H6   33  -0.110  -0.325   0.131
    1UNL     H7   34  -0.053  -0.213   0.241
    1UNL     H8   35  -0.327  -0.131   0.203
    1UNL     H9   36  -0.361  -0.225   0.053
    1UNL    H10   37  -0.359   0.197  -0.011
    1UNL    H11   38  -0.210   0.093   0.215
    1UNL    H12   39  -0.153   0.233   0.109
    1UNL    H13   40   0.053  -0.081  -0.103
    1UNL    H14   41   0.394  -0.128  -0.000
    1UNL    H15   42   0.351  -0.277   0.207
    1UNL    H16   43   0.463  -0.150   0.235
    1UNL    H17   44   0.285  -0.051   0.354
    1UNL    H18   45   0.438   0.084   0.150
    1UNL    H19   46   0.161   0.063   0.170
    1UNL    H20   47   0.429   0.152  -0.071
    1UNL    H21   48   0.259   0.281   0.072
    1UNL    H22   49   0.170   0.123  -0.176
    1UNL    H23   50   0.355   0.004  -0.270
    1UNL    H24   51  -0.037   0.163  -0.232
    1UNL    H25   52  -0.191   0.240  -0.230
    1UNL    H26   53   0.035   0.274  -0.057
   0.00000   0.00000   0.00000   0.00000   0.00000   0.00000   0.00000   0.00000   0.00000
Generated with MDTraj, t= 12.0
 53
    1UNL     C1    1  -0.338  -0.014  -0.365
    1UNL     O1    2  -0.318  -0.070  -0.239
    1UNL     C2    3  -0.189  -0.061  -0.176
    1UNL     O2    4  -0.152  -0.170  -0.096
    1UNL     C3    5  -0.156  -0.129   0.044
    1UNL     C4    6  -0.085  -0.217   0.145
    1UNL     C5    7  -0.307  -0.130   0.079
    1UNL     C6    8  -0.374  -0.003   0.043
    1UNL     O3    9  -0.497   0.003   0.027
    1UNL     C7   10  -0.285   0.117   0.007
    1UNL     C8   11  -0.190   0.126   0.128
    1UNL     C9   12  -0.103   0.022   0.043
    1UNL     O4   13   0.040   0.044   0.045
    1UNL    C10   14   0.118  -0.040  -0.039
    1UNL     O5   15   0.187  -0.134   0.040
    1UNL    C11   16   0.327  -0.100   0.078
    1UNL    C12   17   0.368  -0.185   0.206
    1UNL     O6   18   0.330  -0.124   0.329
    1UNL    C13   19   0.343   0.053   0.103
    1UNL     O7   20   0.262   0.097   0.206
    1UNL    C14   21   0.297   0.137  -0.033
    1UNL     O8   22   0.217   0.252  -0.009
    1UNL    C15   23   0.211   0.042  -0.133
    1UNL     O9   24   0.300  -0.043  -0.201
    1UNL    C16   25  -0.176   0.074  -0.088
    1UNL    C17   26  -0.106   0.180  -0.164
    1UNL    O10   27  -0.061   0.280  -0.070
    1UNL     H1   28  -0.438  -0.017  -0.388
    1UNL     H2   29  -0.296   0.081  -0.373
    1UNL     H3   30  -0.293  -0.079  -0.432
    1UNL     H4   31  -0.116  -0.046  -0.249
    1UNL     H5   32   0.020  -0.230   0.127
    1UNL     H6   33  -0.126  -0.319   0.151
    1UNL     H7   34  -0.102  -0.172   0.238
    1UNL     H8   35  -0.321  -0.144   0.187
    1UNL     H9   36  -0.374  -0.205   0.028
    1UNL    H10   37  -0.346   0.202  -0.016
    1UNL    H11   38  -0.210   0.090   0.227
    1UNL    H12   39  -0.129   0.218   0.137
    1UNL    H13   40   0.052  -0.107  -0.097
    1UNL    H14   41   0.380  -0.143  -0.007
    1UNL    H15   42   0.309  -0.272   0.197
    1UNL    H16   43   0.469  -0.203   0.225
    1UNL    H17   44   0.358  -0.031   0.344
    1UNL    H18   45   0.449   0.062   0.131
    1UNL    H19   46   0.173   0.068   0.184
    1UNL    H20   47   0.391   0.150  -0.093
    1UNL    H21   48   0.235   0.281   0.090
    1UNL    H22   49   0.158   0.096  -0.213
    1UNL    H23   50   0.354   0.018  -0.260
    1UNL    H24   51  -0.033   0.137  -0.234
    1UNL    H25   52  -0.177   0.233  -0.228
    1UNL    H26   53   0.037   0.269  -0.055
   0.00000   0.00000   0.00000   0.00000   0.00000   0.00000   0.00000   0.00000   0.00000
Generated with MDTraj, t= 13.0
 53
    1UNL     C1    1  -0.347   0.013  -0.351
    1UNL     O1    2  -0.323  -0.081  -0.252
    1UNL     C2    3  -0.193  -0.064  -0.182
    1UNL     O2    4  -0.148  -0.173  -0.089
    1UNL     C3    5  -0.163  -0.123   0.044
    1UNL     C4    6  -0.091  -0.217   0.148
    1UNL     C5    7  -0.313  -0.126   0.088
    1UNL     C6    8  -0.391  -0.001   0.032
    1UNL     O3    9  -0.512  -0.000   0.011
    1UNL     C7   10  -0.295   0.112  -0.003
    1UNL     C8   11  -0.195   0.127   0.115
    1UNL     C9   12  -0.109   0.030   0.042
    1UNL     O4   13   0.036   0.051   0.057
    1UNL    C10   14   0.121  -0.042  -0.015
    1UNL     O5   15   0.206  -0.124   0.075
    1UNL    C11   16   0.346  -0.088   0.081
    1UNL    C12   17   0.411  -0.168   0.192
    1UNL     O6   18   0.350  -0.159   0.318
    1UNL    C13   19   0.345   0.061   0.104
    1UNL     O7   20   0.259   0.084   0.208
    1UNL    C14   21   0.297   0.128  -0.031
    1UNL     O8   22   0.231   0.257  -0.003
    1UNL    C15   23   0.211   0.035  -0.111
    1UNL     O9   24   0.280  -0.054  -0.200
    1UNL    C16   25  -0.180   0.070  -0.098
    1UNL    C17   26  -0.119   0.184  -0.176
    1UNL    O10   27  -0.051   0.276  -0.088
    1UNL     H1   28  -0.447   0.004  -0.383
    1UNL     H2   29  -0.318   0.107  -0.317
    1UNL     H3   30  -0.286  -0.011  -0.434
    1UNL     H4   31  -0.118  -0.072  -0.256
    1UNL     H5   32   0.005  -0.232   0.110
    1UNL     H6   33  -0.138  -0.316   0.160
    1UNL     H7   34  -0.095  -0.165   0.240
    1UNL     H8   35  -0.344  -0.144   0.190
    1UNL     H9   36  -0.358  -0.213   0.029
    1UNL    H10   37  -0.342   0.211  -0.001
    1UNL    H11   38  -0.235   0.095   0.210
    1UNL    H12   39  -0.144   0.227   0.115
    1UNL    H13   40   0.062  -0.115  -0.073
    1UNL    H14   41   0.392  -0.106  -0.017
    1UNL    H15   42   0.426  -0.274   0.175
    1UNL    H16   43   0.500  -0.105   0.199
    1UNL    H17   44   0.270  -0.107   0.291
    1UNL    H18   45   0.443   0.110   0.124
    1UNL    H19   46   0.167   0.073   0.160
    1UNL    H20   47   0.382   0.152  -0.104
    1UNL    H21   48   0.269   0.292   0.074
    1UNL    H22   49   0.146   0.103  -0.166
    1UNL    H23   50   0.348  -0.006  -0.256
    1UNL    H24   51  -0.045   0.155  -0.251
    1UNL    H25   52  -0.194   0.237  -0.234
    1UNL    H26   53   0.036   0.239  -0.066
   0.00000   0.00000   0.00000   0.00000   0.00000   0.00000   0.00000   0.00000   0.00000
Generated with MDTraj, t= 14.0
 53
    1UNL     C1    1  -0.355   0.014  -0.311
    1UNL     O1    2  -0.313  -0.093  -0.228
    1UNL     C2    3  -0.186  -0.067  -0.176
    1UNL     O2    4  -0.145  -0.174  -0.089
    1UNL     C3    5  -0.170  -0.126   0.054
    1UNL     C4    6  -0.097  -0.228   0.158
    1UNL     C5    7  -0.325  -0.125   0.073
    1UNL     C6    8  -0.400  -0.004   0.013
    1UNL     O3    9  -0.515  -0.006  -0.012
    1UNL     C7   10  -0.300   0.106  -0.026
    1UNL     C8   11  -0.206   0.131   0.100
    1UNL     C9   12  -0.112   0.026   0.043
    1UNL     O4   13   0.033   0.049   0.062
    1UNL    C10   14   0.117  -0.033  -0.011
    1UNL     O5   15   0.195  -0.121   0.072
    1UNL    C11   16   0.336  -0.099   0.068
    1UNL    C12   17   0.400  -0.180   0.184
    1UNL     O6   18   0.348  -0.142   0.315
    1UNL    C13   19   0.360   0.050   0.089
    1UNL     O7   20   0.294   0.094   0.206
    1UNL    C14   21   0.307   0.133  -0.034
    1UNL     O8   22   0.235   0.255   0.015
    1UNL    C15   23   0.210   0.051  -0.111
    1UNL     O9   24   0.274  -0.044  -0.199
    1UNL    C16   25  -0.170   0.062  -0.102
    1UNL    C17   26  -0.101   0.186  -0.169
    1UNL    O10   27  -0.056   0.285  -0.083
    1UNL     H1   28  -0.373  -0.027  -0.410
    1UNL     H2   29  -0.444   0.057  -0.265
    1UNL     H3   30  -0.285   0.098  -0.319
    1UNL     H4   31  -0.123  -0.080  -0.259
    1UNL     H5   32   0.008  -0.232   0.139
    1UNL     H6   33  -0.135  -0.327   0.143
    1UNL     H7   34  -0.122  -0.201   0.258
    1UNL     H8   35  -0.344  -0.130   0.179
    1UNL     H9   36  -0.385  -0.213   0.029
    1UNL    H10   37  -0.350   0.197  -0.065
    1UNL    H11   38  -0.257   0.109   0.195
    1UNL    H12   39  -0.168   0.235   0.087
    1UNL    H13   40   0.059  -0.098  -0.076
    1UNL    H14   41   0.377  -0.144  -0.025
    1UNL    H15   42   0.355  -0.281   0.165
    1UNL    H16   43   0.512  -0.185   0.191
    1UNL    H17   44   0.306  -0.056   0.295
    1UNL    H18   45   0.469   0.056   0.123
    1UNL    H19   46   0.200   0.099   0.171
    1UNL    H20   47   0.400   0.162  -0.091
    1UNL    H21   48   0.298   0.301   0.076
    1UNL    H22   49   0.144   0.116  -0.165
    1UNL    H23   50   0.348  -0.020  -0.256
    1UNL    H24   51  -0.034   0.158  -0.249
    1UNL    H25   52  -0.173   0.245  -0.224
    1UNL    H26   53   0.029   0.263  -0.040
   0.00000   0.00000   0.00000   0.00000   0.00000   0.00000   0.00000   0.00000   0.00000
Generated with MDTraj, t= 15.0
 53
    1UNL     C1    1  -0.373  -0.002  -0.299
    1UNL     O1    2  -0.289  -0.103  -0.239
    1UNL     C2    3  -0.166  -0.068  -0.171
    1UNL     O2    4  -0.134  -0.174  -0.078
    1UNL     C3    5  -0.162  -0.119   0.047
    1UNL     C4    6  -0.087  -0.186   0.157
    1UNL     C5    7  -0.313  -0.131   0.077
    1UNL     C6    8  -0.383  -0.010   0.019
    1UNL     O3    9  -0.498  -0.016  -0.019
    1UNL     C7   10  -0.298   0.113  -0.014
    1UNL     C8   11  -0.211   0.133   0.108
    1UNL     C9   12  -0.112   0.031   0.041
    1UNL     O4   13   0.031   0.055   0.045
    1UNL    C10   14   0.111  -0.036  -0.021
    1UNL     O5   15   0.188  -0.130   0.060
    1UNL    C11   16   0.326  -0.104   0.072
    1UNL    C12   17   0.383  -0.199   0.185
    1UNL     O6   18   0.358  -0.151   0.316
    1UNL    C13   19   0.340   0.049   0.111
    1UNL     O7   20   0.250   0.093   0.206
    1UNL    C14   21   0.308   0.124  -0.025
    1UNL     O8   22   0.245   0.251  -0.004
    1UNL    C15   23   0.204   0.049  -0.118
    1UNL     O9   24   0.270  -0.041  -0.213
    1UNL    C16   25  -0.177   0.080  -0.098
    1UNL    C17   26  -0.109   0.206  -0.160
    1UNL    O10   27  -0.043   0.292  -0.081
    1UNL     H1   28  -0.456  -0.049  -0.361
    1UNL     H2   29  -0.414   0.065  -0.217
    1UNL     H3   30  -0.314   0.064  -0.365
    1UNL     H4   31  -0.094  -0.068  -0.248
    1UNL     H5   32   0.021  -0.186   0.142
    1UNL     H6   33  -0.108  -0.287   0.160
    1UNL     H7   34  -0.104  -0.142   0.255
    1UNL     H8   35  -0.332  -0.138   0.184
    1UNL     H9   36  -0.355  -0.228   0.037
    1UNL    H10   37  -0.363   0.197  -0.052
    1UNL    H11   38  -0.238   0.095   0.210
    1UNL    H12   39  -0.169   0.234   0.113
    1UNL    H13   40   0.061  -0.116  -0.078
    1UNL    H14   41   0.384  -0.124  -0.023
    1UNL    H15   42   0.343  -0.306   0.182
    1UNL    H16   43   0.498  -0.207   0.189
    1UNL    H17   44   0.270  -0.108   0.334
    1UNL    H18   45   0.444   0.073   0.148
    1UNL    H19   46   0.164   0.079   0.173
    1UNL    H20   47   0.393   0.150  -0.092
    1UNL    H21   48   0.284   0.310   0.071
    1UNL    H22   49   0.151   0.125  -0.173
    1UNL    H23   50   0.331   0.013  -0.265
    1UNL    H24   51  -0.045   0.173  -0.240
    1UNL    H25   52  -0.185   0.259  -0.213
    1UNL    H26   53   0.046   0.261  -0.050
   0.00000   0.00000   0.00000   0.00000   0.00000   0.00000   0.00000   0.00000   0.00000
Generated with MDTraj, t= 16.0
 53
    1UNL     C1    1  -0.341   0.001  -0.332
    1UNL     O1    2  -0.320  -0.085  -0.231
    1UNL     C2    3  -0.195  -0.069  -0.172
    1UNL     O2    4  -0.155  -0.171  -0.083
    1UNL     C3    5  -0.160  -0.132   0.057
    1UNL     C4    6  -0.073  -0.201   0.154
    1UNL     C5    7  -0.315  -0.137   0.088
    1UNL     C6    8  -0.389  -0.018   0.026
    1UNL     O3    9  -0.510  -0.009   0.005
    1UNL     C7   10  -0.296   0.104  -0.001
    1UNL     C8   11  -0.196   0.122   0.113
    1UNL     C9   12  -0.107   0.026   0.039
    1UNL     O4   13   0.029   0.066   0.043
    1UNL    C10   14   0.119  -0.025  -0.029
    1UNL     O5   15   0.189  -0.113   0.054
    1UNL    C11   16   0.334  -0.094   0.073
    1UNL    C12   17   0.374  -0.187   0.187
    1UNL     O6   18   0.308  -0.162   0.303
    1UNL    C13   19   0.362   0.052   0.098
    1UNL     O7   20   0.278   0.096   0.203
    1UNL    C14   21   0.315   0.135  -0.026
    1UNL     O8   22   0.257   0.254   0.016
    1UNL    C15   23   0.219   0.057  -0.113
    1UNL     O9   24   0.292  -0.045  -0.192
    1UNL    C16   25  -0.182   0.067  -0.096
    1UNL    C17   26  -0.113   0.180  -0.175
    1UNL    O10   27  -0.062   0.291  -0.100
    1UNL     H1   28  -0.428  -0.043  -0.396
    1UNL     H2   29  -0.362   0.104  -0.289
    1UNL     H3   30  -0.250   0.008  -0.401
    1UNL     H4   31  -0.132  -0.065  -0.257
    1UNL     H5   32   0.031  -0.211   0.123
    1UNL     H6   33  -0.102  -0.298   0.172
    1UNL     H7   34  -0.068  -0.148   0.248
    1UNL     H8   35  -0.345  -0.157   0.193
    1UNL     H9   36  -0.358  -0.226   0.038
    1UNL    H10   37  -0.342   0.208  -0.014
    1UNL    H11   38  -0.225   0.088   0.218
    1UNL    H12   39  -0.144   0.217   0.111
    1UNL    H13   40   0.060  -0.085  -0.099
    1UNL    H14   41   0.373  -0.139  -0.023
    1UNL    H15   42   0.348  -0.299   0.174
    1UNL    H16   43   0.487  -0.173   0.208
    1UNL    H17   44   0.269  -0.073   0.311
    1UNL    H18   45   0.470   0.074   0.119
    1UNL    H19   46   0.178   0.083   0.177
    1UNL    H20   47   0.405   0.149  -0.083
    1UNL    H21   48   0.260   0.259   0.110
    1UNL    H22   49   0.156   0.115  -0.176
    1UNL    H23   50   0.365   0.005  -0.238
    1UNL    H24   51  -0.037   0.141  -0.241
    1UNL    H25   52  -0.180   0.227  -0.246
    1UNL    H26   53   0.024   0.264  -0.056
   0.00000   0.00000   0.00000   0.00000   0.00000   0.00000   0.00000   0.00000   0.00000
Generated with MDTraj, t= 17.0
 53
    1UNL     C1    1  -0.344  -0.021  -0.354
    1UNL     O1    2  -0.329  -0.091  -0.237
    1UNL     C2    3  -0.198  -0.067  -0.174
    1UNL     O2    4  -0.165  -0.178  -0.083
    1UNL     C3    5  -0.153  -0.123   0.050
    1UNL     C4    6  -0.056  -0.214   0.130
    1UNL     C5    7  -0.302  -0.121   0.101
    1UNL     C6    8  -0.384  -0.002   0.048
    1UNL     O3    9  -0.502  -0.003   0.053
    1UNL     C7   10  -0.296   0.107  -0.004
    1UNL     C8   11  -0.185   0.134   0.105
    1UNL     C9   12  -0.105   0.023   0.028
    1UNL     O4   13   0.035   0.052   0.038
    1UNL    C10   14   0.130  -0.036  -0.049
    1UNL     O5   15   0.192  -0.132   0.042
    1UNL    C11   16   0.324  -0.099   0.084
    1UNL    C12   17   0.376  -0.180   0.209
    1UNL     O6   18   0.277  -0.169   0.311
    1UNL    C13   19   0.341   0.049   0.107
    1UNL     O7   20   0.255   0.095   0.209
    1UNL    C14   21   0.313   0.142  -0.018
    1UNL     O8   22   0.243   0.263   0.018
    1UNL    C15   23   0.226   0.057  -0.121
    1UNL     O9   24   0.299  -0.019  -0.221
    1UNL    C16   25  -0.180   0.064  -0.105
    1UNL    C17   26  -0.104   0.181  -0.173
    1UNL    O10   27  -0.048   0.292  -0.094
    1UNL     H1   28  -0.450  -0.028  -0.401
    1UNL     H2   29  -0.310   0.084  -0.333
    1UNL     H3   30  -0.270  -0.066  -0.429
    1UNL     H4   31  -0.121  -0.081  -0.247
    1UNL     H5   32   0.044  -0.212   0.098
    1UNL     H6   33  -0.087  -0.316   0.135
    1UNL     H7   34  -0.048  -0.173   0.230
    1UNL     H8   35  -0.300  -0.118   0.214
    1UNL     H9   36  -0.350  -0.215   0.082
    1UNL    H10   37  -0.357   0.200  -0.026
    1UNL    H11   38  -0.202   0.096   0.210
    1UNL    H12   39  -0.143   0.233   0.097
    1UNL    H13   40   0.074  -0.098  -0.118
    1UNL    H14   41   0.379  -0.139  -0.006
    1UNL    H15   42   0.377  -0.284   0.166
    1UNL    H16   43   0.478  -0.152   0.248
    1UNL    H17   44   0.274  -0.070   0.327
    1UNL    H18   45   0.443   0.066   0.148
    1UNL    H19   46   0.166   0.070   0.189
    1UNL    H20   47   0.399   0.175  -0.072
    1UNL    H21   48   0.269   0.285   0.111
    1UNL    H22   49   0.163   0.130  -0.167
    1UNL    H23   50   0.376   0.041  -0.245
    1UNL    H24   51  -0.023   0.153  -0.240
    1UNL    H25   52  -0.173   0.235  -0.239
    1UNL    H26   53   0.041   0.264  -0.056
   0.00000   0.00000   0.00000   0.00000   0.00000   0.00000   0.00000   0.00000   0.00000
Generated with MDTraj, t= 18.0
 53
    1UNL     C1    1  -0.348  -0.030  -0.337
    1UNL     O1    2  -0.326  -0.090  -0.207
    1UNL     C2    3  -0.192  -0.073  -0.169
    1UNL     O2    4  -0.144  -0.179  -0.088
    1UNL     C3    5  -0.154  -0.126   0.052
    1UNL     C4    6  -0.066  -0.209   0.142
    1UNL     C5    7  -0.303  -0.131   0.083
    1UNL     C6    8  -0.373  -0.000   0.046
    1UNL     O3    9  -0.493   0.009   0.049
    1UNL     C7   10  -0.279   0.111   0.005
    1UNL     C8   11  -0.178   0.127   0.119
    1UNL     C9   12  -0.093   0.026   0.039
    1UNL     O4   13   0.046   0.047   0.030
    1UNL    C10   14   0.126  -0.042  -0.057
    1UNL     O5   15   0.185  -0.146   0.024
    1UNL    C11   16   0.306  -0.099   0.071
    1UNL    C12   17   0.354  -0.186   0.191
    1UNL     O6   18   0.271  -0.160   0.310
    1UNL    C13   19   0.321   0.058   0.107
    1UNL     O7   20   0.234   0.095   0.209
    1UNL    C14   21   0.301   0.147  -0.019
    1UNL     O8   22   0.226   0.257   0.017
    1UNL    C15   23   0.230   0.053  -0.128
    1UNL     O9   24   0.337  -0.013  -0.200
    1UNL    C16   25  -0.172   0.068  -0.093
    1UNL    C17   26  -0.108   0.190  -0.176
    1UNL    O10   27  -0.045   0.295  -0.105
    1UNL     H1   28  -0.456  -0.032  -0.365
    1UNL     H2   29  -0.306   0.072  -0.339
    1UNL     H3   30  -0.293  -0.087  -0.418
    1UNL     H4   31  -0.123  -0.068  -0.253
    1UNL     H5   32   0.032  -0.193   0.107
    1UNL     H6   33  -0.101  -0.309   0.112
    1UNL     H7   34  -0.069  -0.181   0.243
    1UNL     H8   35  -0.318  -0.154   0.193
    1UNL     H9   36  -0.354  -0.212   0.036
    1UNL    H10   37  -0.325   0.211  -0.021
    1UNL    H11   38  -0.221   0.100   0.219
    1UNL    H12   39  -0.124   0.222   0.127
    1UNL    H13   40   0.072  -0.089  -0.139
    1UNL    H14   41   0.386  -0.112  -0.005
    1UNL    H15   42   0.362  -0.293   0.177
    1UNL    H16   43   0.453  -0.145   0.208
    1UNL    H17   44   0.253  -0.065   0.297
    1UNL    H18   45   0.424   0.080   0.139
    1UNL    H19   46   0.147   0.078   0.171
    1UNL    H20   47   0.393   0.189  -0.058
    1UNL    H21   48   0.254   0.286   0.111
    1UNL    H22   49   0.178   0.111  -0.200
    1UNL    H23   50   0.396   0.043  -0.254
    1UNL    H24   51  -0.031   0.151  -0.243
    1UNL    H25   52  -0.188   0.234  -0.240
    1UNL    H26   53   0.045   0.270  -0.070
   0.00000   0.00000   0.00000   0.00000   0.00000   0.00000   0.00000   0.00000   0.00000
Generated with MDTraj, t= 19.0
 53
    1UNL     C1    1  -0.374  -0.012  -0.315
    1UNL     O1    2  -0.329  -0.101  -0.211
    1UNL     C2    3  -0.199  -0.073  -0.181
    1UNL     O2    4  -0.149  -0.171  -0.089
    1UNL     C3    5  -0.147  -0.124   0.043
    1UNL     C4    6  -0.042  -0.197   0.146
    1UNL     C5    7  -0.296  -0.133   0.091
    1UNL     C6    8  -0.378  -0.016   0.037
    1UNL     O3    9  -0.500  -0.007   0.032
    1UNL     C7   10  -0.290   0.111  -0.007
    1UNL     C8   11  -0.186   0.138   0.097
    1UNL     C9   12  -0.100   0.030   0.026
    1UNL     O4   13   0.040   0.060   0.034
    1UNL    C10   14   0.124  -0.023  -0.039
    1UNL     O5   15   0.185  -0.123   0.044
    1UNL    C11   16   0.327  -0.103   0.081
    1UNL    C12   17   0.364  -0.182   0.199
    1UNL     O6   18   0.258  -0.174   0.287
    1UNL    C13   19   0.349   0.051   0.110
    1UNL     O7   20   0.259   0.096   0.216
    1UNL    C14   21   0.318   0.138  -0.021
    1UNL     O8   22   0.248   0.252   0.025
    1UNL    C15   23   0.229   0.056  -0.122
    1UNL     O9   24   0.320  -0.030  -0.194
    1UNL    C16   25  -0.179   0.067  -0.110
    1UNL    C17   26  -0.108   0.189  -0.183
    1UNL    O10   27  -0.066   0.282  -0.097
    1UNL     H1   28  -0.467  -0.052  -0.348
    1UNL     H2   29  -0.384   0.087  -0.277
    1UNL     H3   30  -0.306  -0.008  -0.399
    1UNL     H4   31  -0.128  -0.065  -0.264
    1UNL     H5   32   0.048  -0.225   0.095
    1UNL     H6   33  -0.094  -0.288   0.178
    1UNL     H7   34  -0.016  -0.129   0.219
    1UNL     H8   35  -0.315  -0.147   0.201
    1UNL     H9   36  -0.334  -0.225   0.052
    1UNL    H10   37  -0.352   0.197  -0.041
    1UNL    H11   38  -0.213   0.114   0.200
    1UNL    H12   39  -0.142   0.240   0.095
    1UNL    H13   40   0.061  -0.077  -0.111
    1UNL    H14   41   0.383  -0.135  -0.006
    1UNL    H15   42   0.366  -0.282   0.168
    1UNL    H16   43   0.449  -0.167   0.263
    1UNL    H17   44   0.215  -0.084   0.302
    1UNL    H18   45   0.450   0.071   0.142
    1UNL    H19   46   0.170   0.101   0.167
    1UNL    H20   47   0.413   0.175  -0.058
    1UNL    H21   48   0.297   0.282   0.101
    1UNL    H22   49   0.176   0.132  -0.179
    1UNL    H23   50   0.362   0.015  -0.267
    1UNL    H24   51  -0.033   0.151  -0.253
    1UNL    H25   52  -0.188   0.250  -0.236
    1UNL    H26   53   0.014   0.257  -0.044
   0.00000   0.00000   0.00000   0.00000   0.00000   0.00000   0.00000   0.00000   0.00000
Generated with MDTraj, t= 20.0
 53
    1UNL     C1    1  -0.379   0.012  -0.291
    1UNL     O1    2  -0.316  -0.099  -0.240
    1UNL     C2    3  -0.187  -0.076  -0.174
    1UNL     O2    4  -0.136  -0.179  -0.081
    1UNL     C3    5  -0.147  -0.118   0.056
    1UNL     C4    6  -0.060  -0.203   0.143
    1UNL     C5    7  -0.295  -0.131   0.088
    1UNL     C6    8  -0.379  -0.019   0.031
    1UNL     O3    9  -0.494  -0.029   0.005
    1UNL     C7   10  -0.298   0.101  -0.002
    1UNL     C8   11  -0.196   0.136   0.112
    1UNL     C9   12  -0.105   0.035   0.038
    1UNL     O4   13   0.033   0.070   0.038
    1UNL    C10   14   0.117  -0.015  -0.036
    1UNL     O5   15   0.180  -0.121   0.043
    1UNL    C11   16   0.320  -0.099   0.086
    1UNL    C12   17   0.352  -0.196   0.191
    1UNL     O6   18   0.286  -0.160   0.315
    1UNL    C13   19   0.339   0.047   0.117
    1UNL     O7   20   0.244   0.089   0.206
    1UNL    C14   21   0.341   0.124  -0.007
    1UNL     O8   22   0.309   0.257   0.009
    1UNL    C15   23   0.226   0.068  -0.109
    1UNL     O9   24   0.286  -0.009  -0.216
    1UNL    C16   25  -0.177   0.066  -0.097
    1UNL    C17   26  -0.123   0.178  -0.189
    1UNL    O10   27  -0.062   0.278  -0.118
    1UNL     H1   28  -0.459  -0.022  -0.346
    1UNL     H2   29  -0.416   0.069  -0.210
    1UNL     H3   30  -0.315   0.067  -0.353
    1UNL     H4   31  -0.108  -0.090  -0.251
    1UNL     H5   32  -0.089  -0.308   0.146
    1UNL     H6   33  -0.079  -0.173   0.246
    1UNL     H7   34   0.043  -0.199   0.118
    1UNL     H8   35  -0.306  -0.140   0.196
    1UNL     H9   36  -0.338  -0.224   0.050
    1UNL    H10   37  -0.356   0.189  -0.032
    1UNL    H11   38  -0.213   0.085   0.206
    1UNL    H12   39  -0.167   0.245   0.112
    1UNL    H13   40   0.050  -0.070  -0.103
    1UNL    H14   41   0.382  -0.111  -0.002
    1UNL    H15   42   0.317  -0.295   0.176
    1UNL    H16   43   0.456  -0.196   0.202
    1UNL    H17   44   0.257  -0.068   0.305
    1UNL    H18   45   0.426   0.060   0.176
    1UNL    H19   46   0.161   0.085   0.151
    1UNL    H20   47   0.432   0.110  -0.070
    1UNL    H21   48   0.221   0.266   0.065
    1UNL    H22   49   0.180   0.154  -0.156
    1UNL    H23   50   0.325   0.043  -0.289
    1UNL    H24   51  -0.052   0.143  -0.267
    1UNL    H25   52  -0.214   0.217  -0.242
    1UNL    H26   53   0.017   0.239  -0.073
   0.00000   0.00000   0.00000   0.00000   0.00000   0.00000   0.00000   0.00000   0.00000
Generated with MDTraj, t= 21.0
 53
    1UNL     C1    1  -0.370  -0.028  -0.321
    1UNL     O1    2  -0.319  -0.110  -0.225
    1UNL     C2    3  -0.188  -0.071  -0.174
    1UNL     O2    4  -0.130  -0.165  -0.085
    1UNL     C3    5  -0.149  -0.121   0.050
    1UNL     C4    6  -0.067  -0.196   0.150
    1UNL     C5    7  -0.307  -0.134   0.075
    1UNL     C6    8  -0.392  -0.019   0.022
    1UNL     O3    9  -0.510  -0.025   0.006
    1UNL     C7   10  -0.315   0.104  -0.012
    1UNL     C8   11  -0.217   0.140   0.105
    1UNL     C9   12  -0.116   0.035   0.048
    1UNL     O4   13   0.026   0.073   0.043
    1UNL    C10   14   0.129  -0.003  -0.025
    1UNL     O5   15   0.182  -0.120   0.038
    1UNL    C11   16   0.324  -0.117   0.083
    1UNL    C12   17   0.351  -0.211   0.198
    1UNL     O6   18   0.294  -0.154   0.320
    1UNL    C13   19   0.360   0.036   0.112
    1UNL     O7   20   0.273   0.099   0.211
    1UNL    C14   21   0.350   0.119  -0.023
    1UNL     O8   22   0.322   0.254   0.004
    1UNL    C15   23   0.231   0.074  -0.112
    1UNL     O9   24   0.276   0.003  -0.225
    1UNL    C16   25  -0.186   0.066  -0.098
    1UNL    C17   26  -0.115   0.179  -0.173
    1UNL    O10   27  -0.077   0.288  -0.080
    1UNL     H1   28  -0.443  -0.081  -0.369
    1UNL     H2   29  -0.415   0.053  -0.271
    1UNL     H3   30  -0.298   0.002  -0.389
    1UNL     H4   31  -0.128  -0.076  -0.269
    1UNL     H5   32  -0.061  -0.154   0.246
    1UNL     H6   33   0.038  -0.213   0.135
    1UNL     H7   34  -0.108  -0.299   0.162
    1UNL     H8   35  -0.333  -0.151   0.175
    1UNL     H9   36  -0.336  -0.229   0.026
    1UNL    H10   37  -0.374   0.189  -0.044
    1UNL    H11   38  -0.265   0.117   0.197
    1UNL    H12   39  -0.177   0.245   0.107
    1UNL    H13   40   0.066  -0.049  -0.104
    1UNL    H14   41   0.367  -0.154  -0.008
    1UNL    H15   42   0.309  -0.305   0.168
    1UNL    H16   43   0.456  -0.215   0.214
    1UNL    H17   44   0.283  -0.060   0.287
    1UNL    H18   45   0.455   0.039   0.163
    1UNL    H19   46   0.192   0.104   0.157
    1UNL    H20   47   0.443   0.115  -0.086
    1UNL    H21   48   0.340   0.269   0.093
    1UNL    H22   49   0.184   0.170  -0.142
    1UNL    H23   50   0.308   0.073  -0.290
    1UNL    H24   51  -0.020   0.137  -0.206
    1UNL    H25   52  -0.161   0.234  -0.260
    1UNL    H26   53  -0.006   0.259  -0.019
   0.00000   0.00000   0.00000   0.00000   0.00000   0.00000   0.00000   0.00000   0.00000
Generated with MDTraj, t= 22.0
 53
    1UNL     C1    1  -0.334  -0.027  -0.346
    1UNL     O1    2  -0.309  -0.106  -0.229
    1UNL     C2    3  -0.180  -0.066  -0.169
    1UNL     O2    4  -0.129  -0.158  -0.081
    1UNL     C3    5  -0.144  -0.117   0.060
    1UNL     C4    6  -0.058  -0.199   0.156
    1UNL     C5    7  -0.297  -0.138   0.083
    1UNL     C6    8  -0.384  -0.029   0.028
    1UNL     O3    9  -0.506  -0.020   0.014
    1UNL     C7   10  -0.307   0.097  -0.011
    1UNL     C8   11  -0.212   0.142   0.106
    1UNL     C9   12  -0.107   0.045   0.044
    1UNL     O4   13   0.026   0.089   0.057
    1UNL    C10   14   0.110  -0.006  -0.014
    1UNL     O5   15   0.179  -0.115   0.062
    1UNL    C11   16   0.320  -0.108   0.079
    1UNL    C12   17   0.360  -0.201   0.186
    1UNL     O6   18   0.286  -0.185   0.307
    1UNL    C13   19   0.359   0.036   0.113
    1UNL     O7   20   0.272   0.087   0.206
    1UNL    C14   21   0.342   0.115  -0.025
    1UNL     O8   22   0.324   0.254   0.003
    1UNL    C15   23   0.217   0.072  -0.103
    1UNL     O9   24   0.243  -0.002  -0.216
    1UNL    C16   25  -0.182   0.072  -0.098
    1UNL    C17   26  -0.134   0.181  -0.186
    1UNL    O10   27  -0.081   0.288  -0.107
    1UNL     H1   28  -0.436  -0.002  -0.361
    1UNL     H2   29  -0.283   0.065  -0.332
    1UNL     H3   30  -0.295  -0.076  -0.431
    1UNL     H4   31  -0.115  -0.056  -0.260
    1UNL     H5   32  -0.006  -0.147   0.230
    1UNL     H6   33   0.029  -0.231   0.101
    1UNL     H7   34  -0.098  -0.296   0.196
    1UNL     H8   35  -0.306  -0.158   0.185
    1UNL     H9   36  -0.336  -0.230   0.034
    1UNL    H10   37  -0.373   0.178  -0.038
    1UNL    H11   38  -0.247   0.101   0.199
    1UNL    H12   39  -0.182   0.247   0.127
    1UNL    H13   40   0.048  -0.053  -0.094
    1UNL    H14   41   0.370  -0.134  -0.014
    1UNL    H15   42   0.336  -0.302   0.148
    1UNL    H16   43   0.469  -0.184   0.203
    1UNL    H17   44   0.248  -0.096   0.305
    1UNL    H18   45   0.462   0.048   0.148
    1UNL    H19   46   0.179   0.104   0.162
    1UNL    H20   47   0.437   0.109  -0.084
    1UNL    H21   48   0.278   0.266   0.097
    1UNL    H22   49   0.163   0.162  -0.144
    1UNL    H23   50   0.281   0.054  -0.290
    1UNL    H24   51  -0.060   0.166  -0.265
    1UNL    H25   52  -0.227   0.224  -0.226
    1UNL    H26   53  -0.022   0.248  -0.039
   0.00000   0.00000   0.00000   0.00000   0.00000   0.00000   0.00000   0.00000   0.00000
Generated with MDTraj, t= 23.0
 53
    1UNL     C1    1  -0.314  -0.049  -0.371
    1UNL     O1    2  -0.315  -0.091  -0.231
    1UNL     C2    3  -0.191  -0.079  -0.159
    1UNL     O2    4  -0.152  -0.177  -0.057
    1UNL     C3    5  -0.154  -0.112   0.070
    1UNL     C4    6  -0.070  -0.187   0.173
    1UNL     C5    7  -0.312  -0.123   0.101
    1UNL     C6    8  -0.390  -0.015   0.030
    1UNL     O3    9  -0.505  -0.028   0.002
    1UNL     C7   10  -0.305   0.104  -0.007
    1UNL     C8   11  -0.211   0.144   0.113
    1UNL     C9   12  -0.112   0.036   0.044
    1UNL     O4   13   0.025   0.074   0.045
    1UNL    C10   14   0.116  -0.003  -0.033
    1UNL     O5   15   0.170  -0.119   0.037
    1UNL    C11   16   0.310  -0.114   0.059
    1UNL    C12   17   0.363  -0.205   0.173
    1UNL     O6   18   0.305  -0.162   0.294
    1UNL    C13   19   0.349   0.035   0.108
    1UNL     O7   20   0.259   0.079   0.206
    1UNL    C14   21   0.334   0.125  -0.018
    1UNL     O8   22   0.320   0.261   0.017
    1UNL    C15   23   0.227   0.078  -0.115
    1UNL     O9   24   0.279   0.003  -0.223
    1UNL    C16   25  -0.184   0.065  -0.096
    1UNL    C17   26  -0.118   0.184  -0.166
    1UNL    O10   27  -0.066   0.281  -0.080
    1UNL     H1   28  -0.412  -0.076  -0.417
    1UNL     H2   29  -0.307   0.060  -0.380
    1UNL     H3   30  -0.235  -0.099  -0.429
    1UNL     H4   31  -0.114  -0.094  -0.241
    1UNL     H5   32  -0.088  -0.149   0.271
    1UNL     H6   33   0.039  -0.190   0.151
    1UNL     H7   34  -0.113  -0.287   0.163
    1UNL     H8   35  -0.341  -0.122   0.204
    1UNL     H9   36  -0.344  -0.220   0.063
    1UNL    H10   37  -0.368   0.181  -0.049
    1UNL    H11   38  -0.257   0.108   0.205
    1UNL    H12   39  -0.174   0.245   0.125
    1UNL    H13   40   0.054  -0.053  -0.111
    1UNL    H14   41   0.374  -0.137  -0.027
    1UNL    H15   42   0.338  -0.317   0.176
    1UNL    H16   43   0.477  -0.199   0.186
    1UNL    H17   44   0.288  -0.064   0.304
    1UNL    H18   45   0.450   0.041   0.156
    1UNL    H19   46   0.164   0.099   0.173
    1UNL    H20   47   0.433   0.125  -0.071
    1UNL    H21   48   0.268   0.273   0.094
    1UNL    H22   49   0.176   0.165  -0.167
    1UNL    H23   50   0.321   0.060  -0.290
    1UNL    H24   51  -0.045   0.152  -0.242
    1UNL    H25   52  -0.192   0.242  -0.220
    1UNL    H26   53  -0.004   0.231  -0.023
   0.00000   0.00000   0.00000   0.00000   0.00000   0.00000   0.00000   0.00000   0.00000
Generated with MDTraj, t= 24.0
 53
    1UNL     C1    1  -0.324  -0.055  -0.354
    1UNL     O1    2  -0.305  -0.106  -0.228
    1UNL     C2    3  -0.176  -0.074  -0.168
    1UNL     O2    4  -0.147  -0.175  -0.065
    1UNL     C3    5  -0.159  -0.120   0.070
    1UNL     C4    6  -0.084  -0.197   0.176
    1UNL     C5    7  -0.308  -0.122   0.090
    1UNL     C6    8  -0.384  -0.004   0.028
    1UNL     O3    9  -0.504   0.001   0.026
    1UNL     C7   10  -0.293   0.110  -0.015
    1UNL     C8   11  -0.194   0.146   0.100
    1UNL     C9   12  -0.105   0.032   0.054
    1UNL     O4   13   0.039   0.061   0.058
    1UNL    C10   14   0.115  -0.020  -0.027
    1UNL     O5   15   0.182  -0.128   0.038
    1UNL    C11   16   0.317  -0.099   0.066
    1UNL    C12   17   0.370  -0.199   0.165
    1UNL     O6   18   0.307  -0.189   0.288
    1UNL    C13   19   0.338   0.041   0.111
    1UNL     O7   20   0.263   0.074   0.227
    1UNL    C14   21   0.317   0.133  -0.016
    1UNL     O8   22   0.278   0.264   0.021
    1UNL    C15   23   0.212   0.076  -0.110
    1UNL     O9   24   0.268   0.016  -0.221
    1UNL    C16   25  -0.168   0.060  -0.093
    1UNL    C17   26  -0.115   0.184  -0.185
    1UNL    O10   27  -0.072   0.294  -0.118
    1UNL     H1   28  -0.433  -0.081  -0.381
    1UNL     H2   29  -0.317   0.058  -0.352
    1UNL     H3   30  -0.247  -0.103  -0.422
    1UNL     H4   31  -0.104  -0.088  -0.255
    1UNL     H5   32  -0.114  -0.145   0.269
    1UNL     H6   33   0.023  -0.187   0.149
    1UNL     H7   34  -0.122  -0.295   0.167
    1UNL     H8   35  -0.334  -0.124   0.196
    1UNL     H9   36  -0.351  -0.208   0.044
    1UNL    H10   37  -0.342   0.191  -0.068
    1UNL    H11   38  -0.231   0.129   0.204
    1UNL    H12   39  -0.157   0.243   0.081
    1UNL    H13   40   0.043  -0.078  -0.087
    1UNL    H14   41   0.349  -0.119  -0.042
    1UNL    H15   42   0.350  -0.303   0.122
    1UNL    H16   43   0.480  -0.185   0.195
    1UNL    H17   44   0.275  -0.100   0.313
    1UNL    H18   45   0.441   0.047   0.159
    1UNL    H19   46   0.179   0.096   0.190
    1UNL    H20   47   0.415   0.146  -0.067
    1UNL    H21   48   0.277   0.266   0.124
    1UNL    H22   49   0.146   0.159  -0.150
    1UNL    H23   50   0.302   0.085  -0.277
    1UNL    H24   51  -0.028   0.149  -0.243
    1UNL    H25   52  -0.188   0.212  -0.258
    1UNL    H26   53   0.018   0.277  -0.078
   0.00000   0.00000   0.00000   0.00000   0.00000   0.00000   0.00000   0.00000   0.00000
Generated with MDTraj, t= 25.0
 53
    1UNL     C1    1  -0.366  -0.038  -0.328
    1UNL     O1    2  -0.316  -0.116  -0.222
    1UNL     C2    3  -0.187  -0.081  -0.174
    1UNL     O2    4  -0.138  -0.172  -0.072
    1UNL     C3    5  -0.164  -0.110   0.058
    1UNL     C4    6  -0.078  -0.186   0.169
    1UNL     C5    7  -0.318  -0.130   0.088
    1UNL     C6    8  -0.391  -0.006   0.032
    1UNL     O3    9  -0.514   0.005   0.030
    1UNL     C7   10  -0.298   0.110  -0.020
    1UNL     C8   11  -0.202   0.154   0.084
    1UNL     C9   12  -0.111   0.036   0.032
    1UNL     O4   13   0.028   0.065   0.057
    1UNL    C10   14   0.117  -0.008  -0.031
    1UNL     O5   15   0.190  -0.115   0.041
    1UNL    C11   16   0.331  -0.094   0.062
    1UNL    C12   17   0.385  -0.198   0.166
    1UNL     O6   18   0.310  -0.200   0.282
    1UNL    C13   19   0.354   0.048   0.116
    1UNL     O7   20   0.272   0.074   0.231
    1UNL    C14   21   0.310   0.144  -0.003
    1UNL     O8   22   0.243   0.254   0.045
    1UNL    C15   23   0.228   0.077  -0.114
    1UNL     O9   24   0.301  -0.014  -0.206
    1UNL    C16   25  -0.176   0.061  -0.106
    1UNL    C17   26  -0.104   0.175  -0.194
    1UNL    O10   27  -0.042   0.281  -0.120
    1UNL     H1   28  -0.478  -0.070  -0.336
    1UNL     H2   29  -0.370   0.074  -0.305
    1UNL     H3   30  -0.302  -0.062  -0.421
    1UNL     H4   31  -0.115  -0.088  -0.262
    1UNL     H5   32  -0.074  -0.116   0.258
    1UNL     H6   33   0.020  -0.195   0.125
    1UNL     H7   34  -0.119  -0.279   0.192
    1UNL     H8   35  -0.338  -0.134   0.198
    1UNL     H9   36  -0.354  -0.218   0.045
    1UNL    H10   37  -0.359   0.192  -0.059
    1UNL    H11   38  -0.217   0.123   0.191
    1UNL    H12   39  -0.181   0.259   0.078
    1UNL    H13   40   0.058  -0.068  -0.102
    1UNL    H14   41   0.371  -0.108  -0.045
    1UNL    H15   42   0.364  -0.306   0.134
    1UNL    H16   43   0.494  -0.167   0.170
    1UNL    H17   44   0.286  -0.102   0.288
    1UNL    H18   45   0.464   0.066   0.135
    1UNL    H19   46   0.171   0.065   0.202
    1UNL    H20   47   0.398   0.182  -0.057
    1UNL    H21   48   0.268   0.275   0.138
    1UNL    H22   49   0.178   0.149  -0.186
    1UNL    H23   50   0.345   0.036  -0.276
    1UNL    H24   51  -0.034   0.130  -0.269
    1UNL    H25   52  -0.189   0.215  -0.246
    1UNL    H26   53   0.016   0.245  -0.051
   0.00000   0.00000   0.00000   0.00000   0.00000   0.00000   0.00000   0.00000   0.00000
Generated with MDTraj, t= 26.0
 53
    1UNL     C1    1  -0.391  -0.003  -0.290
    1UNL     O1    2  -0.325  -0.106  -0.212
    1UNL     C2    3  -0.192  -0.084  -0.168
    1UNL     O2    4  -0.153  -0.184  -0.072
    1UNL     C3    5  -0.150  -0.118   0.061
    1UNL     C4    6  -0.062  -0.189   0.157
    1UNL     C5    7  -0.306  -0.118   0.097
    1UNL     C6    8  -0.378  -0.006   0.024
    1UNL     O3    9  -0.495  -0.005  -0.006
    1UNL     C7   10  -0.287   0.111  -0.018
    1UNL     C8   11  -0.189   0.141   0.100
    1UNL     C9   12  -0.103   0.036   0.034
    1UNL     O4   13   0.041   0.063   0.036
    1UNL    C10   14   0.127  -0.015  -0.047
    1UNL     O5   15   0.192  -0.118   0.026
    1UNL    C11   16   0.321  -0.098   0.068
    1UNL    C12   17   0.361  -0.202   0.176
    1UNL     O6   18   0.328  -0.176   0.310
    1UNL    C13   19   0.341   0.048   0.123
    1UNL     O7   20   0.238   0.065   0.216
    1UNL    C14   21   0.316   0.149  -0.002
    1UNL     O8   22   0.221   0.247   0.038
    1UNL    C15   23   0.241   0.070  -0.115
    1UNL     O9   24   0.316  -0.010  -0.208
    1UNL    C16   25  -0.172   0.059  -0.103
    1UNL    C17   26  -0.102   0.163  -0.192
    1UNL    O10   27  -0.060   0.287  -0.125
    1UNL     H1   28  -0.469  -0.046  -0.360
    1UNL     H2   29  -0.450   0.070  -0.228
    1UNL     H3   30  -0.307   0.050  -0.344
    1UNL     H4   31  -0.112  -0.091  -0.250
    1UNL     H5   32  -0.089  -0.153   0.260
    1UNL     H6   33   0.041  -0.176   0.135
    1UNL     H7   34  -0.084  -0.294   0.155
    1UNL     H8   35  -0.335  -0.106   0.204
    1UNL     H9   36  -0.353  -0.204   0.058
    1UNL    H10   37  -0.345   0.193  -0.062
    1UNL    H11   38  -0.240   0.123   0.199
    1UNL    H12   39  -0.126   0.228   0.103
    1UNL    H13   40   0.068  -0.065  -0.127
    1UNL    H14   41   0.383  -0.117  -0.025
    1UNL    H15   42   0.313  -0.294   0.139
    1UNL    H16   43   0.470  -0.214   0.174
    1UNL    H17   44   0.288  -0.089   0.307
    1UNL    H18   45   0.448   0.050   0.159
    1UNL    H19   46   0.156   0.041   0.171
    1UNL    H20   47   0.405   0.200  -0.037
    1UNL    H21   48   0.232   0.264   0.130
    1UNL    H22   49   0.194   0.154  -0.175
    1UNL    H23   50   0.367   0.056  -0.266
    1UNL    H24   51  -0.013   0.113  -0.239
    1UNL    H25   52  -0.169   0.200  -0.268
    1UNL    H26   53   0.016   0.282  -0.065
   0.00000   0.00000   0.00000   0.00000   0.00000   0.00000   0.00000   0.00000   0.00000
Generated with MDTraj, t= 27.0
 53
    1UNL     C1    1  -0.381  -0.002  -0.298
    1UNL     O1    2  -0.318  -0.106  -0.233
    1UNL     C2    3  -0.192  -0.074  -0.180
    1UNL     O2    4  -0.155  -0.177  -0.081
    1UNL     C3    5  -0.151  -0.126   0.051
    1UNL     C4    6  -0.054  -0.205   0.140
    1UNL     C5    7  -0.304  -0.127   0.087
    1UNL     C6    8  -0.380  -0.003   0.036
    1UNL     O3    9  -0.499   0.004   0.037
    1UNL     C7   10  -0.290   0.106  -0.013
    1UNL     C8   11  -0.191   0.129   0.103
    1UNL     C9   12  -0.103   0.022   0.026
    1UNL     O4   13   0.037   0.055   0.036
    1UNL    C10   14   0.126  -0.030  -0.040
    1UNL     O5   15   0.199  -0.124   0.046
    1UNL    C11   16   0.330  -0.094   0.080
    1UNL    C12   17   0.386  -0.192   0.196
    1UNL     O6   18   0.293  -0.182   0.309
    1UNL    C13   19   0.334   0.057   0.116
    1UNL     O7   20   0.239   0.081   0.218
    1UNL    C14   21   0.307   0.139  -0.010
    1UNL     O8   22   0.239   0.256   0.021
    1UNL    C15   23   0.229   0.062  -0.113
    1UNL     O9   24   0.303  -0.012  -0.209
    1UNL    C16   25  -0.173   0.067  -0.106
    1UNL    C17   26  -0.118   0.183  -0.192
    1UNL    O10   27  -0.048   0.288  -0.122
    1UNL     H1   28  -0.477  -0.030  -0.342
    1UNL     H2   29  -0.409   0.079  -0.229
    1UNL     H3   30  -0.307   0.036  -0.371
    1UNL     H4   31  -0.105  -0.074  -0.257
    1UNL     H5   32  -0.019  -0.153   0.227
    1UNL     H6   33   0.036  -0.220   0.082
    1UNL     H7   34  -0.068  -0.308   0.182
    1UNL     H8   35  -0.318  -0.119   0.195
    1UNL     H9   36  -0.351  -0.213   0.044
    1UNL    H10   37  -0.349   0.197  -0.038
    1UNL    H11   38  -0.245   0.093   0.195
    1UNL    H12   39  -0.138   0.226   0.093
    1UNL    H13   40   0.059  -0.073  -0.119
    1UNL    H14   41   0.396  -0.108  -0.008
    1UNL    H15   42   0.394  -0.295   0.169
    1UNL    H16   43   0.486  -0.169   0.225
    1UNL    H17   44   0.257  -0.090   0.320
    1UNL    H18   45   0.437   0.083   0.156
    1UNL    H19   46   0.145   0.080   0.181
    1UNL    H20   47   0.402   0.174  -0.052
    1UNL    H21   48   0.292   0.313   0.091
    1UNL    H22   49   0.163   0.138  -0.166
    1UNL    H23   50   0.353   0.040  -0.278
    1UNL    H24   51  -0.032   0.149  -0.257
    1UNL    H25   52  -0.191   0.232  -0.257
    1UNL    H26   53   0.034   0.262  -0.069
   0.00000   0.00000   0.00000   0.00000   0.00000   0.00000   0.00000   0.00000   0.00000
Generated with MDTraj, t= 28.0
 53
    1UNL     C1    1  -0.360  -0.008  -0.339
    1UNL     O1    2  -0.329  -0.077  -0.221
    1UNL     C2    3  -0.198  -0.071  -0.178
    1UNL     O2    4  -0.146  -0.179  -0.096
    1UNL     C3    5  -0.155  -0.129   0.045
    1UNL     C4    6  -0.071  -0.219   0.132
    1UNL     C5    7  -0.314  -0.146   0.076
    1UNL     C6    8  -0.387  -0.019   0.038
    1UNL     O3    9  -0.507   0.001   0.049
    1UNL     C7   10  -0.300   0.098  -0.005
    1UNL     C8   11  -0.196   0.119   0.111
    1UNL     C9   12  -0.101   0.025   0.033
    1UNL     O4   13   0.039   0.063   0.039
    1UNL    C10   14   0.122  -0.027  -0.036
    1UNL     O5   15   0.194  -0.125   0.046
    1UNL    C11   16   0.329  -0.097   0.076
    1UNL    C12   17   0.365  -0.176   0.202
    1UNL     O6   18   0.273  -0.156   0.305
    1UNL    C13   19   0.358   0.053   0.090
    1UNL     O7   20   0.278   0.099   0.205
    1UNL    C14   21   0.311   0.145  -0.032
    1UNL     O8   22   0.237   0.262   0.010
    1UNL    C15   23   0.225   0.048  -0.122
    1UNL     O9   24   0.324  -0.038  -0.182
    1UNL    C16   25  -0.169   0.067  -0.096
    1UNL    C17   26  -0.105   0.190  -0.167
    1UNL    O10   27  -0.053   0.291  -0.083
    1UNL     H1   28  -0.464  -0.026  -0.345
    1UNL     H2   29  -0.356   0.097  -0.322
    1UNL     H3   30  -0.304  -0.042  -0.421
    1UNL     H4   31  -0.136  -0.078  -0.277
    1UNL     H5   32  -0.092  -0.223   0.234
    1UNL     H6   33   0.039  -0.203   0.128
    1UNL     H7   34  -0.078  -0.327   0.106
    1UNL     H8   35  -0.325  -0.162   0.180
    1UNL     H9   36  -0.359  -0.226   0.015
    1UNL    H10   37  -0.364   0.187  -0.029
    1UNL    H11   38  -0.213   0.068   0.209
    1UNL    H12   39  -0.158   0.225   0.112
    1UNL    H13   40   0.055  -0.088  -0.104
    1UNL    H14   41   0.393  -0.133  -0.006
    1UNL    H15   42   0.375  -0.281   0.195
    1UNL    H16   43   0.459  -0.147   0.239
    1UNL    H17   44   0.230  -0.069   0.303
    1UNL    H18   45   0.462   0.073   0.120
    1UNL    H19   46   0.188   0.115   0.185
    1UNL    H20   47   0.396   0.182  -0.089
    1UNL    H21   48   0.287   0.312   0.073
    1UNL    H22   49   0.171   0.100  -0.208
    1UNL    H23   50   0.379   0.014  -0.243
    1UNL    H24   51  -0.023   0.172  -0.243
    1UNL    H25   52  -0.187   0.247  -0.213
    1UNL    H26   53   0.035   0.272  -0.036
   0.00000   0.00000   0.00000   0.00000   0.00000   0.00000   0.00000   0.00000   0.00000
Generated with MDTraj, t= 29.0
 53
    1UNL     C1    1  -0.341   0.005  -0.349
    1UNL     O1    2  -0.314  -0.069  -0.230
    1UNL     C2    3  -0.180  -0.051  -0.176
    1UNL     O2    4  -0.141  -0.169  -0.094
    1UNL     C3    5  -0.144  -0.136   0.042
    1UNL     C4    6  -0.053  -0.218   0.136
    1UNL     C5    7  -0.293  -0.148   0.085
    1UNL     C6    8  -0.375  -0.025   0.034
    1UNL     O3    9  -0.495  -0.014   0.016
    1UNL     C7   10  -0.285   0.105   0.012
    1UNL     C8   11  -0.182   0.117   0.126
    1UNL     C9   12  -0.095   0.023   0.044
    1UNL     O4   13   0.042   0.048   0.028
    1UNL    C10   14   0.121  -0.043  -0.042
    1UNL     O5   15   0.182  -0.144   0.049
    1UNL    C11   16   0.319  -0.106   0.089
    1UNL    C12   17   0.365  -0.173   0.224
    1UNL     O6   18   0.299  -0.128   0.340
    1UNL    C13   19   0.328   0.053   0.101
    1UNL     O7   20   0.227   0.096   0.190
    1UNL    C14   21   0.304   0.129  -0.036
    1UNL     O8   22   0.246   0.258  -0.025
    1UNL    C15   23   0.211   0.044  -0.131
    1UNL     O9   24   0.281  -0.042  -0.224
    1UNL    C16   25  -0.168   0.078  -0.083
    1UNL    C17   26  -0.123   0.209  -0.146
    1UNL    O10   27  -0.055   0.297  -0.058
    1UNL     H1   28  -0.442   0.025  -0.351
    1UNL     H2   29  -0.296   0.100  -0.342
    1UNL     H3   30  -0.307  -0.051  -0.430
    1UNL     H4   31  -0.115  -0.065  -0.274
    1UNL     H5   32  -0.047  -0.163   0.226
    1UNL     H6   33   0.046  -0.243   0.094
    1UNL     H7   34  -0.104  -0.311   0.172
    1UNL     H8   35  -0.306  -0.153   0.189
    1UNL     H9   36  -0.333  -0.239   0.034
    1UNL    H10   37  -0.347   0.193  -0.020
    1UNL    H11   38  -0.214   0.086   0.226
    1UNL    H12   39  -0.140   0.221   0.142
    1UNL    H13   40   0.050  -0.108  -0.101
    1UNL    H14   41   0.375  -0.137   0.004
    1UNL    H15   42   0.359  -0.280   0.209
    1UNL    H16   43   0.467  -0.159   0.249
    1UNL    H17   44   0.254  -0.048   0.305
    1UNL    H18   45   0.422   0.087   0.141
    1UNL    H19   46   0.138   0.074   0.146
    1UNL    H20   47   0.401   0.134  -0.089
    1UNL    H21   48   0.212   0.266   0.066
    1UNL    H22   49   0.151   0.108  -0.200
    1UNL    H23   50   0.313   0.018  -0.291
    1UNL    H24   51  -0.044   0.178  -0.222
    1UNL    H25   52  -0.203   0.267  -0.191
    1UNL    H26   53   0.039   0.273  -0.028
   0.00000   0.00000   0.00000   0.00000   0.00000   0.00000   0.00000   0.00000   0.00000
Generated with MDTraj, t= 30.0
 53
    1UNL     C1    1  -0.339   0.036  -0.354
    1UNL     O1    2  -0.314  -0.067  -0.255
    1UNL     C2    3  -0.191  -0.055  -0.178
    1UNL     O2    4  -0.161  -0.174  -0.097
    1UNL     C3    5  -0.166  -0.141   0.046
    1UNL     C4    6  -0.065  -0.233   0.127
    1UNL     C5    7  -0.312  -0.144   0.094
    1UNL     C6    8  -0.387  -0.026   0.036
    1UNL     O3    9  -0.504  -0.025   0.020
    1UNL     C7   10  -0.304   0.097   0.009
    1UNL     C8   11  -0.206   0.109   0.127
    1UNL     C9   12  -0.114   0.010   0.041
    1UNL     O4   13   0.025   0.049   0.056
    1UNL    C10   14   0.122  -0.032  -0.019
    1UNL     O5   15   0.197  -0.130   0.056
    1UNL    C11   16   0.335  -0.090   0.084
    1UNL    C12   17   0.373  -0.165   0.210
    1UNL     O6   18   0.294  -0.130   0.319
    1UNL    C13   19   0.355   0.060   0.090
    1UNL     O7   20   0.287   0.124   0.185
    1UNL    C14   21   0.322   0.130  -0.042
    1UNL     O8   22   0.266   0.261  -0.022
    1UNL    C15   23   0.215   0.044  -0.119
    1UNL     O9   24   0.284  -0.056  -0.187
    1UNL    C16   25  -0.188   0.072  -0.085
    1UNL    C17   26  -0.118   0.192  -0.157
    1UNL    O10   27  -0.045   0.273  -0.061
    1UNL     H1   28  -0.417  -0.002  -0.414
    1UNL     H2   29  -0.384   0.121  -0.305
    1UNL     H3   30  -0.252   0.056  -0.410
    1UNL     H4   31  -0.113  -0.048  -0.265
    1UNL     H5   32  -0.070  -0.216   0.236
    1UNL     H6   33   0.025  -0.202   0.082
    1UNL     H7   34  -0.097  -0.335   0.105
    1UNL     H8   35  -0.322  -0.148   0.199
    1UNL     H9   36  -0.365  -0.228   0.043
    1UNL    H10   37  -0.375   0.181  -0.018
    1UNL    H11   38  -0.248   0.078   0.221
    1UNL    H12   39  -0.155   0.210   0.134
    1UNL    H13   40   0.047  -0.091  -0.080
    1UNL    H14   41   0.389  -0.126   0.001
    1UNL    H15   42   0.361  -0.276   0.210
    1UNL    H16   43   0.481  -0.149   0.225
    1UNL    H17   44   0.223  -0.068   0.286
    1UNL    H18   45   0.459   0.080   0.107
    1UNL    H19   46   0.196   0.104   0.157
    1UNL    H20   47   0.414   0.146  -0.103
    1UNL    H21   48   0.299   0.304   0.067
    1UNL    H22   49   0.154   0.100  -0.193
    1UNL    H23   50   0.318  -0.025  -0.274
    1UNL    H24   51  -0.054   0.156  -0.244
    1UNL    H25   52  -0.189   0.263  -0.198
    1UNL    H26   53   0.053   0.262  -0.050
   0.00000   0.00000   0.00000   0.00000   0.00000   0.00000   0.00000   0.00000   0.00000
Generated with MDTraj, t= 31.0
 53
    1UNL     C1    1  -0.351   0.038  -0.313
    1UNL     O1    2  -0.307  -0.077  -0.242
    1UNL     C2    3  -0.175  -0.058  -0.179
    1UNL     O2    4  -0.132  -0.167  -0.099
    1UNL     C3    5  -0.158  -0.132   0.036
    1UNL     C4    6  -0.083  -0.223   0.137
    1UNL     C5    7  -0.318  -0.144   0.054
    1UNL     C6    8  -0.391  -0.014   0.026
    1UNL     O3    9  -0.512  -0.005   0.013
    1UNL     C7   10  -0.301   0.103   0.002
    1UNL     C8   11  -0.204   0.114   0.121
    1UNL     C9   12  -0.107   0.016   0.041
    1UNL     O4   13   0.033   0.040   0.054
    1UNL    C10   14   0.125  -0.047  -0.019
    1UNL     O5   15   0.203  -0.122   0.074
    1UNL    C11   16   0.345  -0.089   0.089
    1UNL    C12   17   0.399  -0.151   0.215
    1UNL     O6   18   0.314  -0.149   0.329
    1UNL    C13   19   0.357   0.067   0.091
    1UNL     O7   20   0.277   0.123   0.193
    1UNL    C14   21   0.297   0.116  -0.045
    1UNL     O8   22   0.234   0.242  -0.018
    1UNL    C15   23   0.205   0.028  -0.124
    1UNL     O9   24   0.271  -0.053  -0.214
    1UNL    C16   25  -0.171   0.067  -0.090
    1UNL    C17   26  -0.112   0.186  -0.157
    1UNL    O10   27  -0.063   0.288  -0.065
    1UNL     H1   28  -0.447   0.008  -0.359
    1UNL     H2   29  -0.384   0.116  -0.240
    1UNL     H3   30  -0.277   0.068  -0.389
    1UNL     H4   31  -0.101  -0.042  -0.270
    1UNL     H5   32  -0.074  -0.185   0.244
    1UNL     H6   33   0.011  -0.242   0.095
    1UNL     H7   34  -0.153  -0.305   0.142
    1UNL     H8   35  -0.337  -0.166   0.159
    1UNL     H9   36  -0.364  -0.220  -0.010
    1UNL    H10   37  -0.360   0.193  -0.031
    1UNL    H11   38  -0.257   0.072   0.206
    1UNL    H12   39  -0.169   0.221   0.129
    1UNL    H13   40   0.067  -0.124  -0.076
    1UNL    H14   41   0.388  -0.145   0.009
    1UNL    H15   42   0.429  -0.258   0.185
    1UNL    H16   43   0.495  -0.111   0.258
    1UNL    H17   44   0.225  -0.126   0.301
    1UNL    H18   45   0.458   0.095   0.118
    1UNL    H19   46   0.187   0.080   0.161
    1UNL    H20   47   0.379   0.142  -0.115
    1UNL    H21   48   0.263   0.272   0.064
    1UNL    H22   49   0.138   0.097  -0.180
    1UNL    H23   50   0.302  -0.000  -0.294
    1UNL    H24   51  -0.025   0.165  -0.225
    1UNL    H25   52  -0.193   0.225  -0.215
    1UNL    H26   53   0.032   0.271  -0.048
   0.00000   0.00000   0.00000   0.00000   0.00000   0.00000   0.00000   0.00000   0.00000
Generated with MDTraj, t= 32.0
 53
    1UNL     C1    1  -0.368   0.011  -0.307
    1UNL     O1    2  -0.313  -0.085  -0.225
    1UNL     C2    3  -0.179  -0.053  -0.183
    1UNL     O2    4  -0.138  -0.163  -0.102
    1UNL     C3    5  -0.161  -0.134   0.041
    1UNL     C4    6  -0.088  -0.233   0.124
    1UNL     C5    7  -0.316  -0.136   0.065
    1UNL     C6    8  -0.390  -0.006   0.013
    1UNL     O3    9  -0.508  -0.003  -0.016
    1UNL     C7   10  -0.300   0.117  -0.005
    1UNL     C8   11  -0.202   0.124   0.119
    1UNL     C9   12  -0.106   0.022   0.047
    1UNL     O4   13   0.038   0.040   0.072
    1UNL    C10   14   0.114  -0.050  -0.019
    1UNL     O5   15   0.202  -0.137   0.062
    1UNL    C11   16   0.333  -0.090   0.076
    1UNL    C12   17   0.405  -0.159   0.194
    1UNL     O6   18   0.343  -0.127   0.319
    1UNL    C13   19   0.333   0.061   0.103
    1UNL     O7   20   0.248   0.103   0.206
    1UNL    C14   21   0.296   0.131  -0.033
    1UNL     O8   22   0.235   0.263  -0.017
    1UNL    C15   23   0.210   0.027  -0.120
    1UNL     O9   24   0.285  -0.069  -0.204
    1UNL    C16   25  -0.170   0.072  -0.087
    1UNL    C17   26  -0.102   0.194  -0.158
    1UNL    O10   27  -0.045   0.284  -0.061
    1UNL     H1   28  -0.480  -0.015  -0.300
    1UNL     H2   29  -0.364   0.116  -0.267
    1UNL     H3   30  -0.329  -0.002  -0.413
    1UNL     H4   31  -0.106  -0.047  -0.275
    1UNL     H5   32  -0.124  -0.230   0.230
    1UNL     H6   33   0.019  -0.217   0.137
    1UNL     H7   34  -0.108  -0.334   0.101
    1UNL     H8   35  -0.351  -0.157   0.170
    1UNL     H9   36  -0.343  -0.216  -0.003
    1UNL    H10   37  -0.352   0.212  -0.036
    1UNL    H11   38  -0.237   0.075   0.210
    1UNL    H12   39  -0.145   0.215   0.142
    1UNL    H13   40   0.063  -0.133  -0.075
    1UNL    H14   41   0.396  -0.099  -0.014
    1UNL    H15   42   0.409  -0.273   0.194
    1UNL    H16   43   0.513  -0.124   0.180
    1UNL    H17   44   0.306  -0.034   0.319
    1UNL    H18   45   0.430   0.100   0.135
    1UNL    H19   46   0.169   0.052   0.194
    1UNL    H20   47   0.386   0.152  -0.094
    1UNL    H21   48   0.274   0.306   0.060
    1UNL    H22   49   0.153   0.084  -0.196
    1UNL    H23   50   0.338  -0.035  -0.282
    1UNL    H24   51  -0.020   0.154  -0.225
    1UNL    H25   52  -0.174   0.254  -0.211
    1UNL    H26   53   0.019   0.235  -0.004
   0.00000   0.00000   0.00000   0.00000   0.00000   0.00000   0.00000   0.00000   0.00000
Generated with MDTraj, t= 33.0
 53
    1UNL     C1    1  -0.353   0.040  -0.331
    1UNL     O1    2  -0.324  -0.075  -0.257
    1UNL     C2    3  -0.200  -0.063  -0.186
    1UNL     O2    4  -0.166  -0.174  -0.096
    1UNL     C3    5  -0.169  -0.134   0.044
    1UNL     C4    6  -0.089  -0.218   0.133
    1UNL     C5    7  -0.326  -0.134   0.084
    1UNL     C6    8  -0.394  -0.016   0.027
    1UNL     O3    9  -0.512  -0.022   0.018
    1UNL     C7   10  -0.296   0.098   0.000
    1UNL     C8   11  -0.204   0.115   0.111
    1UNL     C9   12  -0.109   0.019   0.025
    1UNL     O4   13   0.033   0.047   0.043
    1UNL    C10   14   0.127  -0.043  -0.020
    1UNL     O5   15   0.189  -0.118   0.079
    1UNL    C11   16   0.328  -0.095   0.082
    1UNL    C12   17   0.395  -0.176   0.199
    1UNL     O6   18   0.362  -0.127   0.326
    1UNL    C13   19   0.362   0.055   0.103
    1UNL     O7   20   0.288   0.107   0.214
    1UNL    C14   21   0.316   0.133  -0.028
    1UNL     O8   22   0.252   0.254   0.001
    1UNL    C15   23   0.225   0.043  -0.110
    1UNL     O9   24   0.291  -0.046  -0.203
    1UNL    C16   25  -0.181   0.064  -0.101
    1UNL    C17   26  -0.123   0.186  -0.176
    1UNL    O10   27  -0.069   0.270  -0.080
    1UNL     H1   28  -0.438   0.003  -0.404
    1UNL     H2   29  -0.407   0.121  -0.274
    1UNL     H3   30  -0.263   0.077  -0.392
    1UNL     H4   31  -0.110  -0.073  -0.262
    1UNL     H5   32  -0.073  -0.174   0.231
    1UNL     H6   33   0.018  -0.230   0.103
    1UNL     H7   34  -0.126  -0.313   0.163
    1UNL     H8   35  -0.350  -0.151   0.194
    1UNL     H9   36  -0.371  -0.212   0.025
    1UNL    H10   37  -0.349   0.188  -0.036
    1UNL    H11   38  -0.244   0.074   0.205
    1UNL    H12   39  -0.174   0.216   0.130
    1UNL    H13   40   0.068  -0.115  -0.080
    1UNL    H14   41   0.363  -0.133  -0.019
    1UNL    H15   42   0.354  -0.277   0.174
    1UNL    H16   43   0.506  -0.181   0.196
    1UNL    H17   44   0.344  -0.031   0.315
    1UNL    H18   45   0.467   0.078   0.130
    1UNL    H19   46   0.187   0.114   0.190
    1UNL    H20   47   0.408   0.159  -0.082
    1UNL    H21   48   0.291   0.273   0.097
    1UNL    H22   49   0.157   0.114  -0.162
    1UNL    H23   50   0.354   0.000  -0.260
    1UNL    H24   51  -0.033   0.159  -0.239
    1UNL    H25   52  -0.203   0.236  -0.229
    1UNL    H26   53   0.029   0.253  -0.062
   0.00000   0.00000   0.00000   0.00000   0.00000   0.00000   0.00000   0.00000   0.00000
Generated with MDTraj, t= 34.0
 53
    1UNL     C1    1  -0.351   0.011  -0.353
    1UNL     O1    2  -0.312  -0.078  -0.247
    1UNL     C2    3  -0.184  -0.065  -0.184
    1UNL     O2    4  -0.146  -0.178  -0.099
    1UNL     C3    5  -0.153  -0.127   0.040
    1UNL     C4    6  -0.070  -0.214   0.140
    1UNL     C5    7  -0.304  -0.132   0.087
    1UNL     C6    8  -0.386  -0.016   0.042
    1UNL     O3    9  -0.506  -0.026   0.034
    1UNL     C7   10  -0.308   0.107   0.003
    1UNL     C8   11  -0.191   0.127   0.108
    1UNL     C9   12  -0.105   0.026   0.033
    1UNL     O4   13   0.035   0.063   0.047
    1UNL    C10   14   0.117  -0.037  -0.021
    1UNL     O5   15   0.188  -0.118   0.075
    1UNL    C11   16   0.327  -0.099   0.082
    1UNL    C12   17   0.392  -0.186   0.189
    1UNL     O6   18   0.339  -0.151   0.307
    1UNL    C13   19   0.342   0.051   0.110
    1UNL     O7   20   0.257   0.097   0.217
    1UNL    C14   21   0.314   0.129  -0.024
    1UNL     O8   22   0.254   0.250   0.002
    1UNL    C15   23   0.211   0.049  -0.110
    1UNL     O9   24   0.278  -0.042  -0.195
    1UNL    C16   25  -0.184   0.072  -0.096
    1UNL    C17   26  -0.122   0.194  -0.181
    1UNL    O10   27  -0.072   0.293  -0.098
    1UNL     H1   28  -0.446  -0.033  -0.401
    1UNL     H2   29  -0.379   0.115  -0.328
    1UNL     H3   30  -0.270   0.010  -0.432
    1UNL     H4   31  -0.097  -0.055  -0.264
    1UNL     H5   32  -0.043  -0.168   0.233
    1UNL     H6   33   0.031  -0.237   0.097
    1UNL     H7   34  -0.130  -0.302   0.168
    1UNL     H8   35  -0.302  -0.126   0.201
    1UNL     H9   36  -0.342  -0.228   0.056
    1UNL    H10   37  -0.370   0.190  -0.033
    1UNL    H11   38  -0.219   0.104   0.214
    1UNL    H12   39  -0.143   0.221   0.097
    1UNL    H13   40   0.051  -0.101  -0.079
    1UNL    H14   41   0.371  -0.126  -0.022
    1UNL    H15   42   0.378  -0.294   0.183
    1UNL    H16   43   0.497  -0.168   0.187
    1UNL    H17   44   0.298  -0.063   0.299
    1UNL    H18   45   0.449   0.060   0.143
    1UNL    H19   46   0.164   0.096   0.178
    1UNL    H20   47   0.396   0.146  -0.095
    1UNL    H21   48   0.245   0.271   0.093
    1UNL    H22   49   0.155   0.122  -0.174
    1UNL    H23   50   0.346   0.006  -0.242
    1UNL    H24   51  -0.045   0.158  -0.256
    1UNL    H25   52  -0.203   0.249  -0.226
    1UNL    H26   53   0.007   0.254  -0.056
   0.00000   0.00000   0.00000   0.00000   0.00000   0.00000   0.00000   0.00000   0.00000
Generated with MDTraj, t= 35.0
 53
    1UNL     C1    1  -0.341  -0.042  -0.335
    1UNL     O1    2  -0.308  -0.102  -0.212
    1UNL     C2    3  -0.180  -0.064  -0.166
    1UNL     O2    4  -0.129  -0.165  -0.081
    1UNL     C3    5  -0.155  -0.125   0.057
    1UNL     C4    6  -0.083  -0.211   0.160
    1UNL     C5    7  -0.311  -0.132   0.091
    1UNL     C6    8  -0.384  -0.013   0.026
    1UNL     O3    9  -0.506  -0.013   0.010
    1UNL     C7   10  -0.293   0.114  -0.004
    1UNL     C8   11  -0.195   0.134   0.118
    1UNL     C9   12  -0.101   0.031   0.049
    1UNL     O4   13   0.032   0.058   0.036
    1UNL    C10   14   0.117  -0.031  -0.043
    1UNL     O5   15   0.189  -0.133   0.024
    1UNL    C11   16   0.329  -0.095   0.062
    1UNL    C12   17   0.366  -0.186   0.183
    1UNL     O6   18   0.278  -0.156   0.290
    1UNL    C13   19   0.345   0.057   0.106
    1UNL     O7   20   0.250   0.093   0.203
    1UNL    C14   21   0.309   0.142  -0.022
    1UNL     O8   22   0.236   0.255   0.010
    1UNL    C15   23   0.221   0.059  -0.122
    1UNL     O9   24   0.301  -0.021  -0.213
    1UNL    C16   25  -0.170   0.077  -0.090
    1UNL    C17   26  -0.100   0.189  -0.158
    1UNL    O10   27  -0.046   0.283  -0.064
    1UNL     H1   28  -0.450  -0.040  -0.345
    1UNL     H2   29  -0.309   0.061  -0.347
    1UNL     H3   30  -0.299  -0.103  -0.415
    1UNL     H4   31  -0.104  -0.061  -0.255
    1UNL     H5   32  -0.108  -0.170   0.254
    1UNL     H6   33   0.021  -0.185   0.144
    1UNL     H7   34  -0.124  -0.316   0.154
    1UNL     H8   35  -0.318  -0.118   0.202
    1UNL     H9   36  -0.354  -0.228   0.062
    1UNL    H10   37  -0.343   0.203  -0.043
    1UNL    H11   38  -0.256   0.103   0.206
    1UNL    H12   39  -0.162   0.235   0.117
    1UNL    H13   40   0.058  -0.076  -0.122
    1UNL    H14   41   0.382  -0.118  -0.039
    1UNL    H15   42   0.361  -0.291   0.161
    1UNL    H16   43   0.464  -0.175   0.221
    1UNL    H17   44   0.250  -0.060   0.292
    1UNL    H18   45   0.452   0.066   0.144
    1UNL    H19   46   0.164   0.083   0.159
    1UNL    H20   47   0.402   0.179  -0.068
    1UNL    H21   48   0.258   0.286   0.107
    1UNL    H22   49   0.172   0.139  -0.184
    1UNL    H23   50   0.381   0.033  -0.237
    1UNL    H24   51  -0.019   0.142  -0.221
    1UNL    H25   52  -0.176   0.234  -0.220
    1UNL    H26   53   0.047   0.259  -0.048
   0.00000   0.00000   0.00000   0.00000   0.00000   0.00000   0.00000   0.00000   0.00000
Generated with MDTraj, t= 36.0
 53
    1UNL     C1    1  -0.336  -0.033  -0.334
    1UNL     O1    2  -0.317  -0.099  -0.215
    1UNL     C2    3  -0.188  -0.072  -0.162
    1UNL     O2    4  -0.130  -0.173  -0.072
    1UNL     C3    5  -0.137  -0.118   0.058
    1UNL     C4    6  -0.057  -0.204   0.158
    1UNL     C5    7  -0.294  -0.126   0.104
    1UNL     C6    8  -0.376  -0.016   0.037
    1UNL     O3    9  -0.494  -0.006   0.030
    1UNL     C7   10  -0.298   0.103  -0.003
    1UNL     C8   11  -0.194   0.128   0.114
    1UNL     C9   12  -0.099   0.033   0.040
    1UNL     O4   13   0.035   0.058   0.045
    1UNL    C10   14   0.124  -0.015  -0.045
    1UNL     O5   15   0.194  -0.127   0.018
    1UNL    C11   16   0.323  -0.099   0.079
    1UNL    C12   17   0.344  -0.196   0.195
    1UNL     O6   18   0.234  -0.187   0.278
    1UNL    C13   19   0.344   0.052   0.109
    1UNL     O7   20   0.266   0.093   0.221
    1UNL    C14   21   0.313   0.147  -0.017
    1UNL     O8   22   0.243   0.269   0.027
    1UNL    C15   23   0.223   0.072  -0.120
    1UNL     O9   24   0.288   0.004  -0.230
    1UNL    C16   25  -0.179   0.071  -0.096
    1UNL    C17   26  -0.106   0.173  -0.190
    1UNL    O10   27  -0.055   0.280  -0.115
    1UNL     H1   28  -0.430  -0.057  -0.374
    1UNL     H2   29  -0.341   0.071  -0.316
    1UNL     H3   30  -0.259  -0.057  -0.401
    1UNL     H4   31  -0.113  -0.084  -0.253
    1UNL     H5   32  -0.033  -0.146   0.245
    1UNL     H6   33   0.032  -0.214   0.105
    1UNL     H7   34  -0.114  -0.300   0.177
    1UNL     H8   35  -0.317  -0.128   0.211
    1UNL     H9   36  -0.327  -0.224   0.061
    1UNL    H10   37  -0.362   0.184  -0.036
    1UNL    H11   38  -0.209   0.089   0.217
    1UNL    H12   39  -0.156   0.228   0.112
    1UNL    H13   40   0.064  -0.067  -0.119
    1UNL    H14   41   0.395  -0.111  -0.010
    1UNL    H15   42   0.353  -0.298   0.160
    1UNL    H16   43   0.434  -0.186   0.255
    1UNL    H17   44   0.227  -0.097   0.314
    1UNL    H18   45   0.452   0.068   0.141
    1UNL    H19   46   0.176   0.057   0.192
    1UNL    H20   47   0.408   0.181  -0.060
    1UNL    H21   48   0.262   0.277   0.119
    1UNL    H22   49   0.157   0.147  -0.172
    1UNL    H23   50   0.381   0.036  -0.254
    1UNL    H24   51  -0.039   0.107  -0.255
    1UNL    H25   52  -0.177   0.216  -0.260
    1UNL    H26   53   0.023   0.247  -0.069
   0.00000   0.00000   0.00000   0.00000   0.00000   0.00000   0.00000   0.00000   0.00000
Generated with MDTraj, t= 37.0
 53
    1UNL     C1    1  -0.362  -0.012  -0.315
    1UNL     O1    2  -0.319  -0.114  -0.230
    1UNL     C2    3  -0.192  -0.090  -0.170
    1UNL     O2    4  -0.141  -0.180  -0.069
    1UNL     C3    5  -0.132  -0.118   0.058
    1UNL     C4    6  -0.039  -0.183   0.154
    1UNL     C5    7  -0.288  -0.116   0.108
    1UNL     C6    8  -0.378  -0.013   0.048
    1UNL     O3    9  -0.498  -0.019   0.050
    1UNL     C7   10  -0.297   0.100  -0.011
    1UNL     C8   11  -0.189   0.134   0.093
    1UNL     C9   12  -0.095   0.031   0.030
    1UNL     O4   13   0.040   0.073   0.017
    1UNL    C10   14   0.128  -0.000  -0.063
    1UNL     O5   15   0.185  -0.120   0.008
    1UNL    C11   16   0.311  -0.096   0.072
    1UNL    C12   17   0.323  -0.208   0.180
    1UNL     O6   18   0.252  -0.182   0.294
    1UNL    C13   19   0.327   0.049   0.120
    1UNL     O7   20   0.229   0.078   0.217
    1UNL    C14   21   0.325   0.143  -0.004
    1UNL     O8   22   0.288   0.272   0.046
    1UNL    C15   23   0.242   0.086  -0.120
    1UNL     O9   24   0.326   0.004  -0.202
    1UNL    C16   25  -0.178   0.051  -0.103
    1UNL    C17   26  -0.127   0.164  -0.189
    1UNL    O10   27  -0.070   0.270  -0.117
    1UNL     H1   28  -0.441  -0.042  -0.374
    1UNL     H2   29  -0.403   0.064  -0.254
    1UNL     H3   30  -0.282   0.022  -0.371
    1UNL     H4   31  -0.122  -0.120  -0.262
    1UNL     H5   32  -0.047  -0.134   0.252
    1UNL     H6   33   0.065  -0.159   0.130
    1UNL     H7   34  -0.059  -0.290   0.161
    1UNL     H8   35  -0.271  -0.085   0.209
    1UNL     H9   36  -0.338  -0.218   0.108
    1UNL    H10   37  -0.348   0.181  -0.062
    1UNL    H11   38  -0.226   0.135   0.197
    1UNL    H12   39  -0.154   0.237   0.075
    1UNL    H13   40   0.075  -0.049  -0.144
    1UNL    H14   41   0.402  -0.104   0.005
    1UNL    H15   42   0.295  -0.309   0.142
    1UNL    H16   43   0.429  -0.227   0.210
    1UNL    H17   44   0.251  -0.085   0.304
    1UNL    H18   45   0.422   0.066   0.179
    1UNL    H19   46   0.143   0.057   0.178
    1UNL    H20   47   0.428   0.151  -0.045
    1UNL    H21   48   0.293   0.271   0.144
    1UNL    H22   49   0.195   0.171  -0.175
    1UNL    H23   50   0.377   0.051  -0.274
    1UNL    H24   51  -0.056   0.123  -0.266
    1UNL    H25   52  -0.210   0.201  -0.248
    1UNL    H26   53  -0.011   0.228  -0.046
   0.00000   0.00000   0.00000   0.00000   0.00000   0.00000   0.00000   0.00000   0.00000
Generated with MDTraj, t= 38.0
 53
    1UNL     C1    1  -0.401  -0.050  -0.286
    1UNL     O1    2  -0.318  -0.121  -0.193
    1UNL     C2    3  -0.184  -0.080  -0.172
    1UNL     O2    4  -0.123  -0.172  -0.083
    1UNL     C3    5  -0.138  -0.112   0.057
    1UNL     C4    6  -0.045  -0.185   0.156
    1UNL     C5    7  -0.290  -0.125   0.101
    1UNL     C6    8  -0.376  -0.012   0.038
    1UNL     O3    9  -0.496  -0.021   0.027
    1UNL     C7   10  -0.296   0.110  -0.008
    1UNL     C8   11  -0.184   0.143   0.098
    1UNL     C9   12  -0.096   0.040   0.020
    1UNL     O4   13   0.034   0.091   0.005
    1UNL    C10   14   0.130   0.002  -0.047
    1UNL     O5   15   0.176  -0.107   0.030
    1UNL    C11   16   0.315  -0.101   0.069
    1UNL    C12   17   0.333  -0.214   0.180
    1UNL     O6   18   0.243  -0.199   0.283
    1UNL    C13   19   0.338   0.038   0.127
    1UNL     O7   20   0.233   0.062   0.216
    1UNL    C14   21   0.341   0.142   0.003
    1UNL     O8   22   0.304   0.267   0.060
    1UNL    C15   23   0.251   0.088  -0.113
    1UNL     O9   24   0.335   0.012  -0.200
    1UNL    C16   25  -0.178   0.066  -0.108
    1UNL    C17   26  -0.134   0.171  -0.204
    1UNL    O10   27  -0.092   0.286  -0.146
    1UNL     H1   28  -0.495  -0.094  -0.302
    1UNL     H2   29  -0.424   0.046  -0.240
    1UNL     H3   30  -0.346  -0.036  -0.374
    1UNL     H4   31  -0.142  -0.082  -0.282
    1UNL     H5   32  -0.013  -0.147   0.256
    1UNL     H6   33   0.058  -0.195   0.108
    1UNL     H7   34  -0.073  -0.286   0.173
    1UNL     H8   35  -0.300  -0.139   0.206
    1UNL     H9   36  -0.304  -0.229   0.051
    1UNL    H10   37  -0.358   0.189  -0.050
    1UNL    H11   38  -0.207   0.115   0.201
    1UNL    H12   39  -0.139   0.246   0.093
    1UNL    H13   40   0.086  -0.041  -0.136
    1UNL    H14   41   0.372  -0.119  -0.021
    1UNL    H15   42   0.324  -0.313   0.126
    1UNL    H16   43   0.436  -0.219   0.227
    1UNL    H17   44   0.228  -0.101   0.299
    1UNL    H18   45   0.428   0.041   0.193
    1UNL    H19   46   0.146   0.069   0.164
    1UNL    H20   47   0.447   0.144  -0.032
    1UNL    H21   48   0.232   0.245   0.132
    1UNL    H22   49   0.205   0.173  -0.165
    1UNL    H23   50   0.356   0.060  -0.280
    1UNL    H24   51  -0.055   0.137  -0.275
    1UNL    H25   52  -0.212   0.198  -0.273
    1UNL    H26   53  -0.011   0.288  -0.095
   0.00000   0.00000   0.00000   0.00000   0.00000   0.00000   0.00000   0.00000   0.00000
Generated with MDTraj, t= 39.0
 53
    1UNL     C1    1  -0.405  -0.059  -0.283
    1UNL     O1    2  -0.311  -0.126  -0.200
    1UNL     C2    3  -0.181  -0.086  -0.173
    1UNL     O2    4  -0.129  -0.163  -0.073
    1UNL     C3    5  -0.143  -0.105   0.057
    1UNL     C4    6  -0.049  -0.169   0.155
    1UNL     C5    7  -0.293  -0.129   0.103
    1UNL     C6    8  -0.378  -0.019   0.044
    1UNL     O3    9  -0.496  -0.017   0.039
    1UNL     C7   10  -0.300   0.095  -0.019
    1UNL     C8   11  -0.205   0.150   0.086
    1UNL     C9   12  -0.106   0.048   0.020
    1UNL     O4   13   0.036   0.078   0.031
    1UNL    C10   14   0.126  -0.001  -0.057
    1UNL     O5   15   0.175  -0.111   0.023
    1UNL    C11   16   0.317  -0.109   0.066
    1UNL    C12   17   0.328  -0.223   0.174
    1UNL     O6   18   0.238  -0.206   0.273
    1UNL    C13   19   0.351   0.028   0.127
    1UNL     O7   20   0.258   0.065   0.222
    1UNL    C14   21   0.344   0.145   0.011
    1UNL     O8   22   0.299   0.275   0.056
    1UNL    C15   23   0.246   0.101  -0.105
    1UNL     O9   24   0.317   0.031  -0.197
    1UNL    C16   25  -0.175   0.061  -0.117
    1UNL    C17   26  -0.119   0.170  -0.216
    1UNL    O10   27  -0.074   0.284  -0.149
    1UNL     H1   28  -0.504  -0.088  -0.246
    1UNL     H2   29  -0.397   0.051  -0.271
    1UNL     H3   30  -0.383  -0.093  -0.385
    1UNL     H4   31  -0.118  -0.097  -0.272
    1UNL     H5   32  -0.041  -0.098   0.241
    1UNL     H6   33   0.052  -0.192   0.134
    1UNL     H7   34  -0.098  -0.256   0.197
    1UNL     H8   35  -0.291  -0.140   0.209
    1UNL     H9   36  -0.331  -0.226   0.057
    1UNL    H10   37  -0.362   0.172  -0.067
    1UNL    H11   38  -0.233   0.125   0.188
    1UNL    H12   39  -0.174   0.258   0.070
    1UNL    H13   40   0.072  -0.035  -0.146
    1UNL    H14   41   0.377  -0.127  -0.020
    1UNL    H15   42   0.311  -0.328   0.137
    1UNL    H16   43   0.437  -0.221   0.206
    1UNL    H17   44   0.239  -0.115   0.307
    1UNL    H18   45   0.450   0.034   0.172
    1UNL    H19   46   0.177   0.067   0.175
    1UNL    H20   47   0.439   0.159  -0.044
    1UNL    H21   48   0.282   0.277   0.150
    1UNL    H22   49   0.206   0.192  -0.147
    1UNL    H23   50   0.405   0.071  -0.202
    1UNL    H24   51  -0.035   0.134  -0.278
    1UNL    H25   52  -0.190   0.192  -0.293
    1UNL    H26   53  -0.012   0.259  -0.072
   0.00000   0.00000   0.00000   0.00000   0.00000   0.00000   0.00000   0.00000   0.00000
Generated with MDTraj, t= 40.0
 53
    1UNL     C1    1  -0.349  -0.050  -0.321
    1UNL     O1    2  -0.314  -0.116  -0.205
    1UNL     C2    3  -0.179  -0.093  -0.159
    1UNL     O2    4  -0.138  -0.186  -0.049
    1UNL     C3    5  -0.147  -0.119   0.077
    1UNL     C4    6  -0.051  -0.179   0.185
    1UNL     C5    7  -0.298  -0.103   0.120
    1UNL     C6    8  -0.379  -0.007   0.037
    1UNL     O3    9  -0.498  -0.011   0.021
    1UNL     C7   10  -0.294   0.103  -0.015
    1UNL     C8   11  -0.196   0.147   0.090
    1UNL     C9   12  -0.104   0.033   0.038
    1UNL     O4   13   0.040   0.082   0.037
    1UNL    C10   14   0.124   0.002  -0.054
    1UNL     O5   15   0.174  -0.120   0.003
    1UNL    C11   16   0.309  -0.104   0.053
    1UNL    C12   17   0.332  -0.221   0.155
    1UNL     O6   18   0.263  -0.208   0.275
    1UNL    C13   19   0.327   0.037   0.118
    1UNL     O7   20   0.229   0.062   0.214
    1UNL    C14   21   0.331   0.149   0.008
    1UNL     O8   22   0.299   0.279   0.056
    1UNL    C15   23   0.237   0.094  -0.106
    1UNL     O9   24   0.303   0.044  -0.214
    1UNL    C16   25  -0.165   0.048  -0.102
    1UNL    C17   26  -0.119   0.163  -0.203
    1UNL    O10   27  -0.064   0.278  -0.147
    1UNL     H1   28  -0.424  -0.116  -0.377
    1UNL     H2   29  -0.396   0.046  -0.287
    1UNL     H3   30  -0.250  -0.030  -0.374
    1UNL     H4   31  -0.094  -0.111  -0.238
    1UNL     H5   32  -0.052  -0.119   0.280
    1UNL     H6   33   0.046  -0.175   0.145
    1UNL     H7   34  -0.084  -0.282   0.198
    1UNL     H8   35  -0.318  -0.078   0.225
    1UNL     H9   36  -0.337  -0.206   0.103
    1UNL    H10   37  -0.353   0.188  -0.056
    1UNL    H11   38  -0.223   0.130   0.195
    1UNL    H12   39  -0.151   0.248   0.075
    1UNL    H13   40   0.061  -0.032  -0.137
    1UNL    H14   41   0.370  -0.119  -0.032
    1UNL    H15   42   0.304  -0.311   0.098
    1UNL    H16   43   0.436  -0.243   0.186
    1UNL    H17   44   0.264  -0.111   0.304
    1UNL    H18   45   0.419   0.033   0.175
    1UNL    H19   46   0.149   0.085   0.155
    1UNL    H20   47   0.425   0.151  -0.049
    1UNL    H21   48   0.255   0.267   0.142
    1UNL    H22   49   0.191   0.185  -0.142
    1UNL    H23   50   0.381   0.105  -0.231
    1UNL    H24   51  -0.051   0.121  -0.277
    1UNL    H25   52  -0.202   0.189  -0.263
    1UNL    H26   53  -0.006   0.239  -0.081
   0.00000   0.00000   0.00000   0.00000   0.00000   0.00000   0.00000   0.00000   0.00000
Generated with MDTraj, t= 41.0
 53
    1UNL     C1    1  -0.321  -0.060  -0.354
    1UNL     O1    2  -0.308  -0.119  -0.225
    1UNL     C2    3  -0.187  -0.088  -0.157
    1UNL     O2    4  -0.141  -0.178  -0.048
    1UNL     C3    5  -0.145  -0.105   0.084
    1UNL     C4    6  -0.047  -0.161   0.189
    1UNL     C5    7  -0.296  -0.098   0.127
    1UNL     C6    8  -0.385  -0.009   0.038
    1UNL     O3    9  -0.507  -0.016   0.029
    1UNL     C7   10  -0.303   0.101  -0.027
    1UNL     C8   11  -0.208   0.153   0.088
    1UNL     C9   12  -0.105   0.041   0.030
    1UNL     O4   13   0.035   0.081   0.036
    1UNL    C10   14   0.120   0.004  -0.040
    1UNL     O5   15   0.186  -0.107   0.030
    1UNL    C11   16   0.325  -0.105   0.052
    1UNL    C12   17   0.350  -0.220   0.159
    1UNL     O6   18   0.258  -0.213   0.265
    1UNL    C13   19   0.349   0.028   0.105
    1UNL     O7   20   0.257   0.054   0.215
    1UNL    C14   21   0.329   0.142  -0.002
    1UNL     O8   22   0.280   0.260   0.065
    1UNL    C15   23   0.224   0.093  -0.111
    1UNL     O9   24   0.282   0.024  -0.217
    1UNL    C16   25  -0.179   0.056  -0.104
    1UNL    C17   26  -0.126   0.172  -0.195
    1UNL    O10   27  -0.070   0.282  -0.125
    1UNL     H1   28  -0.395  -0.127  -0.414
    1UNL     H2   29  -0.372   0.038  -0.328
    1UNL     H3   30  -0.220  -0.038  -0.407
    1UNL     H4   31  -0.092  -0.097  -0.225
    1UNL     H5   32  -0.048  -0.096   0.274
    1UNL     H6   33   0.052  -0.164   0.137
    1UNL     H7   34  -0.087  -0.261   0.205
    1UNL     H8   35  -0.297  -0.069   0.236
    1UNL     H9   36  -0.339  -0.197   0.130
    1UNL    H10   37  -0.361   0.180  -0.081
    1UNL    H11   38  -0.254   0.136   0.189
    1UNL    H12   39  -0.171   0.256   0.090
    1UNL    H13   40   0.067  -0.048  -0.122
    1UNL    H14   41   0.376  -0.112  -0.043
    1UNL    H15   42   0.346  -0.324   0.131
    1UNL    H16   43   0.450  -0.205   0.193
    1UNL    H17   44   0.235  -0.119   0.268
    1UNL    H18   45   0.441   0.034   0.157
    1UNL    H19   46   0.178   0.068   0.162
    1UNL    H20   47   0.423   0.178  -0.046
    1UNL    H21   48   0.286   0.244   0.166
    1UNL    H22   49   0.171   0.177  -0.153
    1UNL    H23   50   0.362   0.070  -0.260
    1UNL    H24   51  -0.048   0.129  -0.257
    1UNL    H25   52  -0.201   0.205  -0.263
    1UNL    H26   53   0.010   0.266  -0.064
   0.00000   0.00000   0.00000   0.00000   0.00000   0.00000   0.00000   0.00000   0.00000
Generated with MDTraj, t= 42.0
 53
    1UNL     C1    1  -0.332  -0.066  -0.343
    1UNL     O1    2  -0.299  -0.121  -0.208
    1UNL     C2    3  -0.177  -0.082  -0.158
    1UNL     O2    4  -0.125  -0.168  -0.055
    1UNL     C3    5  -0.150  -0.110   0.066
    1UNL     C4    6  -0.070  -0.170   0.183
    1UNL     C5    7  -0.305  -0.132   0.098
    1UNL     C6    8  -0.385  -0.013   0.031
    1UNL     O3    9  -0.503   0.001   0.017
    1UNL     C7   10  -0.308   0.104  -0.015
    1UNL     C8   11  -0.208   0.141   0.103
    1UNL     C9   12  -0.106   0.045   0.041
    1UNL     O4   13   0.028   0.089   0.039
    1UNL    C10   14   0.108   0.012  -0.044
    1UNL     O5   15   0.168  -0.110   0.037
    1UNL    C11   16   0.310  -0.105   0.050
    1UNL    C12   17   0.335  -0.223   0.147
    1UNL     O6   18   0.298  -0.204   0.280
    1UNL    C13   19   0.353   0.032   0.107
    1UNL     O7   20   0.270   0.072   0.224
    1UNL    C14   21   0.322   0.142  -0.005
    1UNL     O8   22   0.277   0.265   0.047
    1UNL    C15   23   0.226   0.089  -0.113
    1UNL     O9   24   0.293  -0.002  -0.207
    1UNL    C16   25  -0.180   0.067  -0.100
    1UNL    C17   26  -0.118   0.175  -0.192
    1UNL    O10   27  -0.065   0.286  -0.124
    1UNL     H1   28  -0.444  -0.048  -0.348
    1UNL     H2   29  -0.286   0.035  -0.346
    1UNL     H3   30  -0.298  -0.125  -0.435
    1UNL     H4   31  -0.089  -0.088  -0.236
    1UNL     H5   32  -0.100  -0.127   0.275
    1UNL     H6   33   0.042  -0.157   0.170
    1UNL     H7   34  -0.092  -0.277   0.179
    1UNL     H8   35  -0.320  -0.138   0.211
    1UNL     H9   36  -0.334  -0.231   0.069
    1UNL    H10   37  -0.377   0.182  -0.059
    1UNL    H11   38  -0.243   0.102   0.202
    1UNL    H12   39  -0.174   0.243   0.109
    1UNL    H13   40   0.050  -0.034  -0.124
    1UNL    H14   41   0.354  -0.122  -0.050
    1UNL    H15   42   0.292  -0.310   0.105
    1UNL    H16   43   0.436  -0.247   0.167
    1UNL    H17   44   0.299  -0.108   0.307
    1UNL    H18   45   0.455   0.029   0.140
    1UNL    H19   46   0.184   0.073   0.176
    1UNL    H20   47   0.418   0.169  -0.047
    1UNL    H21   48   0.311   0.273   0.133
    1UNL    H22   49   0.183   0.175  -0.163
    1UNL    H23   50   0.343   0.043  -0.278
    1UNL    H24   51  -0.034   0.137  -0.253
    1UNL    H25   52  -0.196   0.208  -0.259
    1UNL    H26   53  -0.002   0.270  -0.052
   0.00000   0.00000   0.00000   0.00000   0.00000   0.00000   0.00000   0.00000   0.00000
Generated with MDTraj, t= 43.0
 53
    1UNL     C1    1  -0.368  -0.064  -0.326
    1UNL     O1    2  -0.314  -0.114  -0.209
    1UNL     C2    3  -0.182  -0.067  -0.171
    1UNL     O2    4  -0.137  -0.164  -0.076
    1UNL     C3    5  -0.157  -0.114   0.062
    1UNL     C4    6  -0.067  -0.174   0.159
    1UNL     C5    7  -0.309  -0.116   0.093
    1UNL     C6    8  -0.387  -0.012   0.022
    1UNL     O3    9  -0.505  -0.015   0.009
    1UNL     C7   10  -0.306   0.112  -0.018
    1UNL     C8   11  -0.207   0.146   0.099
    1UNL     C9   12  -0.114   0.038   0.041
    1UNL     O4   13   0.029   0.064   0.044
    1UNL    C10   14   0.119  -0.014  -0.034
    1UNL     O5   15   0.191  -0.130   0.025
    1UNL    C11   16   0.325  -0.103   0.070
    1UNL    C12   17   0.371  -0.206   0.175
    1UNL     O6   18   0.311  -0.189   0.301
    1UNL    C13   19   0.346   0.032   0.119
    1UNL     O7   20   0.258   0.069   0.218
    1UNL    C14   21   0.322   0.132  -0.003
    1UNL     O8   22   0.288   0.265   0.030
    1UNL    C15   23   0.221   0.072  -0.102
    1UNL     O9   24   0.283   0.006  -0.221
    1UNL    C16   25  -0.175   0.076  -0.100
    1UNL    C17   26  -0.105   0.183  -0.184
    1UNL    O10   27  -0.067   0.297  -0.113
    1UNL     H1   28  -0.466  -0.110  -0.339
    1UNL     H2   29  -0.387   0.040  -0.307
    1UNL     H3   30  -0.310  -0.084  -0.417
    1UNL     H4   31  -0.115  -0.069  -0.267
    1UNL     H5   32  -0.057  -0.116   0.250
    1UNL     H6   33   0.032  -0.183   0.127
    1UNL     H7   34  -0.091  -0.279   0.184
    1UNL     H8   35  -0.324  -0.105   0.206
    1UNL     H9   36  -0.354  -0.211   0.069
    1UNL    H10   37  -0.358   0.202  -0.062
    1UNL    H11   38  -0.251   0.126   0.200
    1UNL    H12   39  -0.186   0.251   0.090
    1UNL    H13   40   0.057  -0.058  -0.114
    1UNL    H14   41   0.397  -0.109  -0.017
    1UNL    H15   42   0.349  -0.306   0.146
    1UNL    H16   43   0.477  -0.202   0.189
    1UNL    H17   44   0.272  -0.098   0.311
    1UNL    H18   45   0.450   0.028   0.150
    1UNL    H19   46   0.166   0.061   0.168
    1UNL    H20   47   0.411   0.140  -0.064
    1UNL    H21   48   0.284   0.286   0.132
    1UNL    H22   49   0.161   0.154  -0.141
    1UNL    H23   50   0.299   0.075  -0.285
    1UNL    H24   51  -0.021   0.130  -0.234
    1UNL    H25   52  -0.173   0.225  -0.260
    1UNL    H26   53  -0.003   0.264  -0.043
   0.00000   0.00000   0.00000   0.00000   0.00000   0.00000   0.00000   0.00000   0.00000
Generated with MDTraj, t= 44.0
 53
    1UNL     C1    1  -0.358   0.015  -0.310
    1UNL     O1    2  -0.319  -0.095  -0.236
    1UNL     C2    3  -0.189  -0.084  -0.167
    1UNL     O2    4  -0.156  -0.189  -0.070
    1UNL     C3    5  -0.157  -0.127   0.057
    1UNL     C4    6  -0.081  -0.217   0.154
    1UNL     C5    7  -0.317  -0.122   0.094
    1UNL     C6    8  -0.396  -0.009   0.032
    1UNL     O3    9  -0.517  -0.008   0.023
    1UNL     C7   10  -0.299   0.100  -0.008
    1UNL     C8   11  -0.194   0.126   0.101
    1UNL     C9   12  -0.107   0.020   0.036
    1UNL     O4   13   0.033   0.065   0.034
    1UNL    C10   14   0.126  -0.013  -0.035
    1UNL     O5   15   0.184  -0.109   0.057
    1UNL    C11   16   0.329  -0.093   0.070
    1UNL    C12   17   0.376  -0.190   0.182
    1UNL     O6   18   0.292  -0.174   0.296
    1UNL    C13   19   0.355   0.048   0.115
    1UNL     O7   20   0.271   0.090   0.217
    1UNL    C14   21   0.323   0.139  -0.014
    1UNL     O8   22   0.291   0.267   0.019
    1UNL    C15   23   0.229   0.079  -0.115
    1UNL     O9   24   0.300  -0.010  -0.205
    1UNL    C16   25  -0.180   0.058  -0.100
    1UNL    C17   26  -0.111   0.159  -0.190
    1UNL    O10   27  -0.064   0.273  -0.123
    1UNL     H1   28  -0.441  -0.022  -0.364
    1UNL     H2   29  -0.400   0.094  -0.254
    1UNL     H3   30  -0.287   0.037  -0.383
    1UNL     H4   31  -0.117  -0.104  -0.258
    1UNL     H5   32  -0.086  -0.185   0.260
    1UNL     H6   33   0.022  -0.218   0.138
    1UNL     H7   34  -0.105  -0.322   0.143
    1UNL     H8   35  -0.329  -0.115   0.203
    1UNL     H9   36  -0.358  -0.221   0.071
    1UNL    H10   37  -0.339   0.194  -0.055
    1UNL    H11   38  -0.230   0.091   0.199
    1UNL    H12   39  -0.156   0.227   0.113
    1UNL    H13   40   0.067  -0.060  -0.117
    1UNL    H14   41   0.366  -0.109  -0.036
    1UNL    H15   42   0.384  -0.294   0.150
    1UNL    H16   43   0.476  -0.160   0.216
    1UNL    H17   44   0.280  -0.079   0.300
    1UNL    H18   45   0.459   0.057   0.151
    1UNL    H19   46   0.179   0.075   0.195
    1UNL    H20   47   0.418   0.152  -0.065
    1UNL    H21   48   0.242   0.276   0.097
    1UNL    H22   49   0.175   0.157  -0.170
    1UNL    H23   50   0.326   0.041  -0.284
    1UNL    H24   51  -0.030   0.107  -0.249
    1UNL    H25   52  -0.191   0.193  -0.258
    1UNL    H26   53   0.024   0.259  -0.091
   0.00000   0.00000   0.00000   0.00000   0.00000   0.00000   0.00000   0.00000   0.00000
Generated with MDTraj, t= 45.0
 53
    1UNL     C1    1  -0.374   0.003  -0.326
    1UNL     O1    2  -0.335  -0.088  -0.223
    1UNL     C2    3  -0.194  -0.072  -0.182
    1UNL     O2    4  -0.144  -0.174  -0.095
    1UNL     C3    5  -0.147  -0.121   0.045
    1UNL     C4    6  -0.057  -0.205   0.139
    1UNL     C5    7  -0.298  -0.129   0.095
    1UNL     C6    8  -0.380  -0.014   0.037
    1UNL     O3    9  -0.498  -0.017   0.024
    1UNL     C7   10  -0.295   0.107  -0.008
    1UNL     C8   11  -0.185   0.132   0.102
    1UNL     C9   12  -0.096   0.033   0.028
    1UNL     O4   13   0.039   0.057   0.038
    1UNL    C10   14   0.122  -0.038  -0.036
    1UNL     O5   15   0.191  -0.142   0.044
    1UNL    C11   16   0.321  -0.099   0.082
    1UNL    C12   17   0.367  -0.172   0.199
    1UNL     O6   18   0.299  -0.148   0.314
    1UNL    C13   19   0.335   0.049   0.122
    1UNL     O7   20   0.244   0.092   0.220
    1UNL    C14   21   0.318   0.131  -0.022
    1UNL     O8   22   0.269   0.257   0.012
    1UNL    C15   23   0.223   0.053  -0.121
    1UNL     O9   24   0.287  -0.028  -0.213
    1UNL    C16   25  -0.177   0.065  -0.107
    1UNL    C17   26  -0.119   0.190  -0.177
    1UNL    O10   27  -0.053   0.276  -0.086
    1UNL     H1   28  -0.465  -0.029  -0.365
    1UNL     H2   29  -0.392   0.103  -0.302
    1UNL     H3   30  -0.306  -0.007  -0.403
    1UNL     H4   31  -0.136  -0.071  -0.283
    1UNL     H5   32  -0.021  -0.136   0.216
    1UNL     H6   33   0.031  -0.238   0.078
    1UNL     H7   34  -0.104  -0.293   0.173
    1UNL     H8   35  -0.299  -0.135   0.201
    1UNL     H9   36  -0.350  -0.222   0.061
    1UNL    H10   37  -0.347   0.197  -0.046
    1UNL    H11   38  -0.225   0.104   0.198
    1UNL    H12   39  -0.135   0.229   0.113
    1UNL    H13   40   0.059  -0.097  -0.109
    1UNL    H14   41   0.394  -0.115  -0.003
    1UNL    H15   42   0.356  -0.283   0.178
    1UNL    H16   43   0.475  -0.154   0.232
    1UNL    H17   44   0.295  -0.048   0.319
    1UNL    H18   45   0.437   0.060   0.169
    1UNL    H19   46   0.151   0.096   0.182
    1UNL    H20   47   0.416   0.144  -0.070
    1UNL    H21   48   0.314   0.295   0.096
    1UNL    H22   49   0.165   0.123  -0.184
    1UNL    H23   50   0.352   0.029  -0.266
    1UNL    H24   51  -0.049   0.160  -0.259
    1UNL    H25   52  -0.203   0.256  -0.212
    1UNL    H26   53   0.030   0.235  -0.045
   0.00000   0.00000   0.00000   0.00000   0.00000   0.00000   0.00000   0.00000   0.00000
Generated with MDTraj, t= 46.0
 53
    1UNL     C1    1  -0.365  -0.007  -0.327
    1UNL     O1    2  -0.321  -0.080  -0.215
    1UNL     C2    3  -0.187  -0.052  -0.180
    1UNL     O2    4  -0.140  -0.160  -0.105
    1UNL     C3    5  -0.147  -0.128   0.040
    1UNL     C4    6  -0.069  -0.227   0.137
    1UNL     C5    7  -0.300  -0.142   0.073
    1UNL     C6    8  -0.374  -0.013   0.040
    1UNL     O3    9  -0.492  -0.011   0.026
    1UNL     C7   10  -0.290   0.106   0.014
    1UNL     C8   11  -0.189   0.124   0.128
    1UNL     C9   12  -0.093   0.026   0.039
    1UNL     O4   13   0.040   0.056   0.035
    1UNL    C10   14   0.125  -0.033  -0.045
    1UNL     O5   15   0.179  -0.125   0.045
    1UNL    C11   16   0.318  -0.092   0.081
    1UNL    C12   17   0.364  -0.180   0.203
    1UNL     O6   18   0.280  -0.141   0.309
    1UNL    C13   19   0.339   0.063   0.108
    1UNL     O7   20   0.258   0.106   0.209
    1UNL    C14   21   0.306   0.134  -0.036
    1UNL     O8   22   0.233   0.250  -0.013
    1UNL    C15   23   0.238   0.032  -0.131
    1UNL     O9   24   0.323  -0.058  -0.198
    1UNL    C16   25  -0.174   0.075  -0.091
    1UNL    C17   26  -0.118   0.196  -0.166
    1UNL    O10   27  -0.067   0.289  -0.074
    1UNL     H1   28  -0.471  -0.015  -0.340
    1UNL     H2   29  -0.350   0.100  -0.331
    1UNL     H3   30  -0.315  -0.047  -0.413
    1UNL     H4   31  -0.117  -0.037  -0.273
    1UNL     H5   32  -0.093  -0.188   0.235
    1UNL     H6   33   0.040  -0.211   0.119
    1UNL     H7   34  -0.095  -0.327   0.115
    1UNL     H8   35  -0.329  -0.173   0.168
    1UNL     H9   36  -0.333  -0.224   0.004
    1UNL    H10   37  -0.352   0.196  -0.000
    1UNL    H11   38  -0.229   0.092   0.222
    1UNL    H12   39  -0.147   0.226   0.136
    1UNL    H13   40   0.064  -0.103  -0.111
    1UNL    H14   41   0.389  -0.105  -0.002
    1UNL    H15   42   0.338  -0.292   0.199
    1UNL    H16   43   0.474  -0.173   0.238
    1UNL    H17   44   0.299  -0.052   0.340
    1UNL    H18   45   0.443   0.084   0.147
    1UNL    H19   46   0.168   0.109   0.165
    1UNL    H20   47   0.402   0.164  -0.084
    1UNL    H21   48   0.256   0.279   0.081
    1UNL    H22   49   0.196   0.093  -0.215
    1UNL    H23   50   0.280  -0.148  -0.189
    1UNL    H24   51  -0.031   0.173  -0.230
    1UNL    H25   52  -0.205   0.238  -0.224
    1UNL    H26   53   0.031   0.273  -0.051
   0.00000   0.00000   0.00000   0.00000   0.00000   0.00000   0.00000   0.00000   0.00000
Generated with MDTraj, t= 47.0
 53
    1UNL     C1    1  -0.358   0.029  -0.325
    1UNL     O1    2  -0.307  -0.075  -0.253
    1UNL     C2    3  -0.184  -0.060  -0.185
    1UNL     O2    4  -0.138  -0.170  -0.100
    1UNL     C3    5  -0.151  -0.131   0.044
    1UNL     C4    6  -0.069  -0.224   0.127
    1UNL     C5    7  -0.301  -0.138   0.079
    1UNL     C6    8  -0.382  -0.015   0.049
    1UNL     O3    9  -0.504  -0.016   0.059
    1UNL     C7   10  -0.301   0.104   0.012
    1UNL     C8   11  -0.193   0.123   0.121
    1UNL     C9   12  -0.105   0.020   0.039
    1UNL     O4   13   0.040   0.038   0.044
    1UNL    C10   14   0.122  -0.056  -0.038
    1UNL     O5   15   0.197  -0.130   0.052
    1UNL    C11   16   0.331  -0.084   0.096
    1UNL    C12   17   0.364  -0.157   0.226
    1UNL     O6   18   0.262  -0.135   0.313
    1UNL    C13   19   0.341   0.065   0.105
    1UNL     O7   20   0.250   0.110   0.194
    1UNL    C14   21   0.315   0.125  -0.044
    1UNL     O8   22   0.244   0.244  -0.033
    1UNL    C15   23   0.225   0.029  -0.130
    1UNL     O9   24   0.308  -0.035  -0.221
    1UNL    C16   25  -0.176   0.068  -0.090
    1UNL    C17   26  -0.104   0.187  -0.158
    1UNL    O10   27  -0.050   0.280  -0.065
    1UNL     H1   28  -0.456   0.000  -0.373
    1UNL     H2   29  -0.384   0.121  -0.268
    1UNL     H3   30  -0.290   0.063  -0.408
    1UNL     H4   31  -0.098  -0.053  -0.265
    1UNL     H5   32  -0.056  -0.179   0.225
    1UNL     H6   33   0.028  -0.239   0.090
    1UNL     H7   34  -0.116  -0.323   0.123
    1UNL     H8   35  -0.311  -0.164   0.182
    1UNL     H9   36  -0.353  -0.222   0.027
    1UNL    H10   37  -0.361   0.187  -0.024
    1UNL    H11   38  -0.212   0.081   0.218
    1UNL    H12   39  -0.146   0.225   0.126
    1UNL    H13   40   0.054  -0.123  -0.097
    1UNL    H14   41   0.397  -0.111   0.014
    1UNL    H15   42   0.371  -0.269   0.210
    1UNL    H16   43   0.454  -0.115   0.285
    1UNL    H17   44   0.230  -0.041   0.305
    1UNL    H18   45   0.429   0.108   0.162
    1UNL    H19   46   0.164   0.091   0.149
    1UNL    H20   47   0.415   0.144  -0.094
    1UNL    H21   48   0.258   0.272   0.056
    1UNL    H22   49   0.167   0.104  -0.191
    1UNL    H23   50   0.255  -0.086  -0.282
    1UNL    H24   51  -0.021   0.147  -0.217
    1UNL    H25   52  -0.176   0.246  -0.220
    1UNL    H26   53   0.046   0.258  -0.044
   0.00000   0.00000   0.00000   0.00000   0.00000   0.00000   0.00000   0.00000   0.00000
Generated with MDTraj, t= 48.0
 53
    1UNL     C1    1  -0.357   0.040  -0.311
    1UNL     O1    2  -0.319  -0.068  -0.235
    1UNL     C2    3  -0.196  -0.058  -0.174
    1UNL     O2    4  -0.142  -0.175  -0.100
    1UNL     C3    5  -0.153  -0.148   0.040
    1UNL     C4    6  -0.060  -0.240   0.120
    1UNL     C5    7  -0.307  -0.147   0.082
    1UNL     C6    8  -0.379  -0.018   0.034
    1UNL     O3    9  -0.499  -0.009   0.020
    1UNL     C7   10  -0.288   0.107   0.014
    1UNL     C8   11  -0.185   0.110   0.124
    1UNL     C9   12  -0.104   0.007   0.042
    1UNL     O4   13   0.042   0.038   0.055
    1UNL    C10   14   0.126  -0.041  -0.029
    1UNL     O5   15   0.198  -0.142   0.031
    1UNL    C11   16   0.331  -0.095   0.088
    1UNL    C12   17   0.350  -0.161   0.225
    1UNL     O6   18   0.268  -0.107   0.321
    1UNL    C13   19   0.339   0.060   0.098
    1UNL     O7   20   0.251   0.121   0.197
    1UNL    C14   21   0.318   0.132  -0.047
    1UNL     O8   22   0.259   0.254  -0.028
    1UNL    C15   23   0.221   0.044  -0.121
    1UNL     O9   24   0.291  -0.038  -0.211
    1UNL    C16   25  -0.169   0.065  -0.083
    1UNL    C17   26  -0.106   0.180  -0.161
    1UNL    O10   27  -0.053   0.277  -0.076
    1UNL     H1   28  -0.449   0.021  -0.378
    1UNL     H2   29  -0.388   0.128  -0.246
    1UNL     H3   30  -0.272   0.079  -0.377
    1UNL     H4   31  -0.124  -0.055  -0.267
    1UNL     H5   32  -0.059  -0.233   0.227
    1UNL     H6   33   0.043  -0.235   0.102
    1UNL     H7   34  -0.079  -0.343   0.083
    1UNL     H8   35  -0.316  -0.147   0.192
    1UNL     H9   36  -0.362  -0.235   0.051
    1UNL    H10   37  -0.332   0.199  -0.022
    1UNL    H11   38  -0.228   0.068   0.214
    1UNL    H12   39  -0.140   0.212   0.141
    1UNL    H13   40   0.050  -0.087  -0.098
    1UNL    H14   41   0.411  -0.128   0.023
    1UNL    H15   42   0.315  -0.266   0.224
    1UNL    H16   43   0.459  -0.147   0.253
    1UNL    H17   44   0.260  -0.010   0.304
    1UNL    H18   45   0.436   0.098   0.135
    1UNL    H19   46   0.169   0.121   0.154
    1UNL    H20   47   0.404   0.131  -0.125
    1UNL    H21   48   0.271   0.282   0.070
    1UNL    H22   49   0.162   0.118  -0.184
    1UNL    H23   50   0.235  -0.111  -0.242
    1UNL    H24   51  -0.026   0.133  -0.217
    1UNL    H25   52  -0.183   0.229  -0.224
    1UNL    H26   53   0.041   0.259  -0.054
   0.00000   0.00000   0.00000   0.00000   0.00000   0.00000   0.00000   0.00000   0.00000
Generated with MDTraj, t= 49.0
 53
    1UNL     C1    1  -0.377   0.015  -0.310
    1UNL     O1    2  -0.320  -0.086  -0.223
    1UNL     C2    3  -0.193  -0.055  -0.178
    1UNL     O2    4  -0.141  -0.166  -0.101
    1UNL     C3    5  -0.148  -0.130   0.037
    1UNL     C4    6  -0.059  -0.213   0.127
    1UNL     C5    7  -0.298  -0.142   0.070
    1UNL     C6    8  -0.379  -0.021   0.020
    1UNL     O3    9  -0.494  -0.003   0.004
    1UNL     C7   10  -0.296   0.103   0.005
    1UNL     C8   11  -0.191   0.112   0.122
    1UNL     C9   12  -0.097   0.024   0.035
    1UNL     O4   13   0.046   0.059   0.031
    1UNL    C10   14   0.120  -0.040  -0.035
    1UNL     O5   15   0.196  -0.134   0.057
    1UNL    C11   16   0.332  -0.095   0.086
    1UNL    C12   17   0.380  -0.161   0.221
    1UNL     O6   18   0.274  -0.139   0.315
    1UNL    C13   19   0.345   0.057   0.098
    1UNL     O7   20   0.263   0.113   0.194
    1UNL    C14   21   0.313   0.133  -0.042
    1UNL     O8   22   0.229   0.243  -0.020
    1UNL    C15   23   0.227   0.034  -0.130
    1UNL     O9   24   0.305  -0.066  -0.195
    1UNL    C16   25  -0.178   0.078  -0.086
    1UNL    C17   26  -0.122   0.204  -0.152
    1UNL    O10   27  -0.058   0.273  -0.048
    1UNL     H1   28  -0.484   0.049  -0.286
    1UNL     H2   29  -0.311   0.108  -0.302
    1UNL     H3   30  -0.368  -0.016  -0.418
    1UNL     H4   31  -0.125  -0.045  -0.274
    1UNL     H5   32  -0.042  -0.157   0.216
    1UNL     H6   33   0.047  -0.233   0.095
    1UNL     H7   34  -0.102  -0.312   0.142
    1UNL     H8   35  -0.322  -0.161   0.179
    1UNL     H9   36  -0.338  -0.226   0.017
    1UNL    H10   37  -0.363   0.186  -0.018
    1UNL    H11   38  -0.225   0.061   0.215
    1UNL    H12   39  -0.148   0.212   0.139
    1UNL    H13   40   0.047  -0.104  -0.091
    1UNL    H14   41   0.397  -0.135   0.007
    1UNL    H15   42   0.414  -0.260   0.198
    1UNL    H16   43   0.459  -0.100   0.264
    1UNL    H17   44   0.236  -0.053   0.292
    1UNL    H18   45   0.442   0.084   0.138
    1UNL    H19   46   0.168   0.104   0.151
    1UNL    H20   47   0.409   0.169  -0.090
    1UNL    H21   48   0.272   0.289   0.057
    1UNL    H22   49   0.170   0.105  -0.200
    1UNL    H23   50   0.245  -0.143  -0.213
    1UNL    H24   51  -0.053   0.179  -0.232
    1UNL    H25   52  -0.210   0.260  -0.189
    1UNL    H26   53   0.038   0.263  -0.039
   0.00000   0.00000   0.00000   0.00000   0.00000   0.00000   0.00000   0.00000   0.00000
Generated with MDTraj, t= 50.0
 53
    1UNL     C1    1  -0.374   0.029  -0.311
    1UNL     O1    2  -0.310  -0.083  -0.243
    1UNL     C2    3  -0.187  -0.063  -0.179
    1UNL     O2    4  -0.132  -0.168  -0.096
    1UNL     C3    5  -0.149  -0.128   0.040
    1UNL     C4    6  -0.066  -0.221   0.129
    1UNL     C5    7  -0.302  -0.144   0.070
    1UNL     C6    8  -0.381  -0.022   0.037
    1UNL     O3    9  -0.504  -0.017   0.046
    1UNL     C7   10  -0.297   0.100  -0.001
    1UNL     C8   11  -0.195   0.122   0.112
    1UNL     C9   12  -0.097   0.027   0.032
    1UNL     O4   13   0.034   0.057   0.041
    1UNL    C10   14   0.115  -0.029  -0.029
    1UNL     O5   15   0.183  -0.134   0.051
    1UNL    C11   16   0.322  -0.095   0.087
    1UNL    C12   17   0.382  -0.178   0.205
    1UNL     O6   18   0.317  -0.150   0.327
    1UNL    C13   19   0.341   0.053   0.106
    1UNL     O7   20   0.249   0.112   0.201
    1UNL    C14   21   0.302   0.126  -0.030
    1UNL     O8   22   0.241   0.250  -0.009
    1UNL    C15   23   0.222   0.034  -0.117
    1UNL     O9   24   0.313  -0.054  -0.193
    1UNL    C16   25  -0.173   0.073  -0.103
    1UNL    C17   26  -0.118   0.198  -0.174
    1UNL    O10   27  -0.065   0.306  -0.092
    1UNL     H1   28  -0.422   0.093  -0.233
    1UNL     H2   29  -0.304   0.087  -0.375
    1UNL     H3   30  -0.452  -0.019  -0.371
    1UNL     H4   31  -0.118  -0.058  -0.275
    1UNL     H5   32  -0.076  -0.193   0.230
    1UNL     H6   33   0.044  -0.212   0.104
    1UNL     H7   34  -0.104  -0.318   0.106
    1UNL     H8   35  -0.323  -0.166   0.179
    1UNL     H9   36  -0.345  -0.223   0.013
    1UNL    H10   37  -0.361   0.183  -0.027
    1UNL    H11   38  -0.238   0.089   0.211
    1UNL    H12   39  -0.154   0.221   0.121
    1UNL    H13   40   0.060  -0.088  -0.106
    1UNL    H14   41   0.389  -0.128   0.004
    1UNL    H15   42   0.370  -0.281   0.197
    1UNL    H16   43   0.485  -0.154   0.204
    1UNL    H17   44   0.294  -0.053   0.332
    1UNL    H18   45   0.442   0.077   0.135
    1UNL    H19   46   0.170   0.083   0.162
    1UNL    H20   47   0.387   0.146  -0.099
    1UNL    H21   48   0.271   0.282   0.074
    1UNL    H22   49   0.169   0.097  -0.197
    1UNL    H23   50   0.264  -0.137  -0.221
    1UNL    H24   51  -0.038   0.165  -0.238
    1UNL    H25   52  -0.200   0.245  -0.231
    1UNL    H26   53   0.031   0.298  -0.075
   0.00000   0.00000   0.00000   0.00000   0.00000   0.00000   0.00000   0.00000   0.00000
Generated with MDTraj, t= 51.0
 53
    1UNL     C1    1  -0.380   0.002  -0.325
    1UNL     O1    2  -0.339  -0.087  -0.228
    1UNL     C2    3  -0.196  -0.064  -0.179
    1UNL     O2    4  -0.164  -0.181  -0.098
    1UNL     C3    5  -0.165  -0.136   0.042
    1UNL     C4    6  -0.078  -0.222   0.140
    1UNL     C5    7  -0.317  -0.134   0.079
    1UNL     C6    8  -0.387  -0.004   0.030
    1UNL     O3    9  -0.509   0.002   0.021
    1UNL     C7   10  -0.297   0.110  -0.012
    1UNL     C8   11  -0.196   0.121   0.108
    1UNL     C9   12  -0.107   0.014   0.040
    1UNL     O4   13   0.033   0.037   0.051
    1UNL    C10   14   0.121  -0.036  -0.037
    1UNL     O5   15   0.200  -0.131   0.050
    1UNL    C11   16   0.332  -0.088   0.080
    1UNL    C12   17   0.388  -0.172   0.198
    1UNL     O6   18   0.335  -0.142   0.323
    1UNL    C13   19   0.342   0.054   0.105
    1UNL     O7   20   0.259   0.096   0.207
    1UNL    C14   21   0.307   0.138  -0.020
    1UNL     O8   22   0.236   0.254   0.018
    1UNL    C15   23   0.226   0.055  -0.122
    1UNL     O9   24   0.313  -0.014  -0.210
    1UNL    C16   25  -0.168   0.067  -0.092
    1UNL    C17   26  -0.088   0.177  -0.169
    1UNL    O10   27  -0.037   0.286  -0.096
    1UNL     H1   28  -0.385   0.097  -0.270
    1UNL     H2   29  -0.310   0.002  -0.404
    1UNL     H3   30  -0.474  -0.034  -0.358
    1UNL     H4   31  -0.132  -0.068  -0.278
    1UNL     H5   32  -0.064  -0.184   0.242
    1UNL     H6   33   0.018  -0.216   0.097
    1UNL     H7   34  -0.113  -0.324   0.140
    1UNL     H8   35  -0.342  -0.145   0.188
    1UNL     H9   36  -0.361  -0.218   0.030
    1UNL    H10   37  -0.340   0.207  -0.041
    1UNL    H11   38  -0.230   0.090   0.212
    1UNL    H12   39  -0.132   0.207   0.126
    1UNL    H13   40   0.065  -0.093  -0.113
    1UNL    H14   41   0.384  -0.128  -0.011
    1UNL    H15   42   0.384  -0.274   0.175
    1UNL    H16   43   0.489  -0.150   0.227
    1UNL    H17   44   0.286  -0.055   0.317
    1UNL    H18   45   0.444   0.070   0.135
    1UNL    H19   46   0.165   0.093   0.160
    1UNL    H20   47   0.394   0.178  -0.073
    1UNL    H21   48   0.282   0.295   0.102
    1UNL    H22   49   0.164   0.128  -0.183
    1UNL    H23   50   0.254  -0.076  -0.260
    1UNL    H24   51  -0.003   0.135  -0.220
    1UNL    H25   52  -0.155   0.223  -0.244
    1UNL    H26   53   0.049   0.269  -0.047
   0.00000   0.00000   0.00000   0.00000   0.00000   0.00000   0.00000   0.00000   0.00000
Generated with MDTraj, t= 52.0
 53
    1UNL     C1    1  -0.360  -0.007  -0.334
    1UNL     O1    2  -0.328  -0.093  -0.225
    1UNL     C2    3  -0.193  -0.075  -0.172
    1UNL     O2    4  -0.160  -0.181  -0.083
    1UNL     C3    5  -0.166  -0.128   0.051
    1UNL     C4    6  -0.078  -0.205   0.149
    1UNL     C5    7  -0.318  -0.130   0.088
    1UNL     C6    8  -0.384  -0.001   0.033
    1UNL     O3    9  -0.496   0.013   0.003
    1UNL     C7   10  -0.287   0.110  -0.004
    1UNL     C8   11  -0.191   0.133   0.107
    1UNL     C9   12  -0.110   0.016   0.035
    1UNL     O4   13   0.038   0.035   0.055
    1UNL    C10   14   0.132  -0.035  -0.023
    1UNL     O5   15   0.205  -0.130   0.056
    1UNL    C11   16   0.342  -0.082   0.066
    1UNL    C12   17   0.408  -0.173   0.183
    1UNL     O6   18   0.324  -0.188   0.295
    1UNL    C13   19   0.347   0.062   0.109
    1UNL     O7   20   0.248   0.091   0.212
    1UNL    C14   21   0.302   0.150  -0.018
    1UNL     O8   22   0.220   0.254   0.025
    1UNL    C15   23   0.220   0.055  -0.119
    1UNL     O9   24   0.297  -0.028  -0.196
    1UNL    C16   25  -0.169   0.063  -0.102
    1UNL    C17   26  -0.107   0.184  -0.180
    1UNL    O10   27  -0.057   0.299  -0.106
    1UNL     H1   28  -0.353   0.094  -0.299
    1UNL     H2   29  -0.315  -0.034  -0.422
    1UNL     H3   30  -0.461  -0.035  -0.337
    1UNL     H4   31  -0.123  -0.089  -0.266
    1UNL     H5   32  -0.108  -0.157   0.245
    1UNL     H6   33   0.023  -0.181   0.143
    1UNL     H7   34  -0.095  -0.310   0.165
    1UNL     H8   35  -0.335  -0.146   0.195
    1UNL     H9   36  -0.378  -0.208   0.040
    1UNL    H10   37  -0.330   0.203  -0.045
    1UNL    H11   38  -0.241   0.111   0.205
    1UNL    H12   39  -0.147   0.231   0.112
    1UNL    H13   40   0.071  -0.096  -0.090
    1UNL    H14   41   0.390  -0.102  -0.032
    1UNL    H15   42   0.431  -0.278   0.168
    1UNL    H16   43   0.501  -0.127   0.217
    1UNL    H17   44   0.279  -0.104   0.302
    1UNL    H18   45   0.450   0.085   0.137
    1UNL    H19   46   0.166   0.080   0.166
    1UNL    H20   47   0.384   0.195  -0.071
    1UNL    H21   48   0.245   0.274   0.122
    1UNL    H22   49   0.155   0.119  -0.189
    1UNL    H23   50   0.249  -0.091  -0.251
    1UNL    H24   51  -0.034   0.151  -0.253
    1UNL    H25   52  -0.189   0.225  -0.245
    1UNL    H26   53   0.021   0.284  -0.043
   0.00000   0.00000   0.00000   0.00000   0.00000   0.00000   0.00000   0.00000   0.00000
Generated with MDTraj, t= 53.0
 53
    1UNL     C1    1  -0.339   0.000  -0.327
    1UNL     O1    2  -0.307  -0.107  -0.233
    1UNL     C2    3  -0.174  -0.082  -0.174
    1UNL     O2    4  -0.139  -0.181  -0.075
    1UNL     C3    5  -0.157  -0.120   0.059
    1UNL     C4    6  -0.065  -0.192   0.161
    1UNL     C5    7  -0.311  -0.133   0.091
    1UNL     C6    8  -0.386  -0.009   0.033
    1UNL     O3    9  -0.506   0.000   0.026
    1UNL     C7   10  -0.299   0.100  -0.016
    1UNL     C8   11  -0.198   0.137   0.095
    1UNL     C9   12  -0.109   0.032   0.036
    1UNL     O4   13   0.032   0.062   0.053
    1UNL    C10   14   0.109  -0.021  -0.036
    1UNL     O5   15   0.188  -0.122   0.038
    1UNL    C11   16   0.322  -0.092   0.060
    1UNL    C12   17   0.371  -0.195   0.171
    1UNL     O6   18   0.324  -0.166   0.297
    1UNL    C13   19   0.349   0.049   0.101
    1UNL     O7   20   0.263   0.083   0.209
    1UNL    C14   21   0.303   0.148  -0.012
    1UNL     O8   22   0.218   0.246   0.040
    1UNL    C15   23   0.216   0.060  -0.114
    1UNL     O9   24   0.288  -0.024  -0.192
    1UNL    C16   25  -0.168   0.064  -0.104
    1UNL    C17   26  -0.116   0.194  -0.182
    1UNL    O10   27  -0.040   0.281  -0.103
    1UNL     H1   28  -0.388   0.076  -0.269
    1UNL     H2   29  -0.252   0.033  -0.374
    1UNL     H3   30  -0.405  -0.042  -0.399
    1UNL     H4   31  -0.092  -0.062  -0.257
    1UNL     H5   32  -0.043  -0.140   0.257
    1UNL     H6   33   0.031  -0.214   0.123
    1UNL     H7   34  -0.106  -0.285   0.195
    1UNL     H8   35  -0.356  -0.157   0.184
    1UNL     H9   36  -0.341  -0.216   0.022
    1UNL    H10   37  -0.352   0.190  -0.055
    1UNL    H11   38  -0.229   0.114   0.198
    1UNL    H12   39  -0.157   0.237   0.078
    1UNL    H13   40   0.045  -0.083  -0.099
    1UNL    H14   41   0.376  -0.107  -0.034
    1UNL    H15   42   0.345  -0.300   0.145
    1UNL    H16   43   0.483  -0.191   0.195
    1UNL    H17   44   0.300  -0.069   0.284
    1UNL    H18   45   0.453   0.066   0.135
    1UNL    H19   46   0.165   0.082   0.172
    1UNL    H20   47   0.388   0.187  -0.063
    1UNL    H21   48   0.254   0.275   0.121
    1UNL    H22   49   0.164   0.123  -0.194
    1UNL    H23   50   0.238  -0.092  -0.237
    1UNL    H24   51  -0.057   0.170  -0.271
    1UNL    H25   52  -0.202   0.255  -0.221
    1UNL    H26   53   0.033   0.240  -0.045
   0.00000   0.00000   0.00000   0.00000   0.00000   0.00000   0.00000   0.00000   0.00000
Generated with MDTraj, t= 54.0
 53
    1UNL     C1    1  -0.357  -0.018  -0.323
    1UNL     O1    2  -0.313  -0.108  -0.222
    1UNL     C2    3  -0.189  -0.074  -0.167
    1UNL     O2    4  -0.143  -0.174  -0.074
    1UNL     C3    5  -0.147  -0.119   0.059
    1UNL     C4    6  -0.069  -0.203   0.161
    1UNL     C5    7  -0.299  -0.127   0.089
    1UNL     C6    8  -0.385  -0.015   0.026
    1UNL     O3    9  -0.507  -0.031   0.002
    1UNL     C7   10  -0.300   0.103  -0.013
    1UNL     C8   11  -0.207   0.141   0.103
    1UNL     C9   12  -0.105   0.036   0.038
    1UNL     O4   13   0.033   0.076   0.038
    1UNL    C10   14   0.119  -0.011  -0.041
    1UNL     O5   15   0.181  -0.115   0.044
    1UNL    C11   16   0.324  -0.102   0.076
    1UNL    C12   17   0.372  -0.209   0.185
    1UNL     O6   18   0.308  -0.181   0.308
    1UNL    C13   19   0.349   0.042   0.116
    1UNL     O7   20   0.244   0.083   0.211
    1UNL    C14   21   0.326   0.127  -0.014
    1UNL     O8   22   0.300   0.267   0.010
    1UNL    C15   23   0.233   0.067  -0.114
    1UNL     O9   24   0.291   0.001  -0.220
    1UNL    C16   25  -0.178   0.068  -0.098
    1UNL    C17   26  -0.126   0.189  -0.176
    1UNL    O10   27  -0.075   0.296  -0.094
    1UNL     H1   28  -0.425   0.055  -0.275
    1UNL     H2   29  -0.275   0.025  -0.379
    1UNL     H3   30  -0.413  -0.084  -0.392
    1UNL     H4   31  -0.101  -0.069  -0.245
    1UNL     H5   32  -0.089  -0.182   0.264
    1UNL     H6   33   0.041  -0.183   0.146
    1UNL     H7   34  -0.090  -0.307   0.150
    1UNL     H8   35  -0.308  -0.106   0.190
    1UNL     H9   36  -0.349  -0.223   0.059
    1UNL    H10   37  -0.346   0.191  -0.067
    1UNL    H11   38  -0.243   0.118   0.202
    1UNL    H12   39  -0.174   0.247   0.105
    1UNL    H13   40   0.063  -0.061  -0.121
    1UNL    H14   41   0.380  -0.119  -0.015
    1UNL    H15   42   0.326  -0.312   0.165
    1UNL    H16   43   0.485  -0.227   0.207
    1UNL    H17   44   0.279  -0.088   0.295
    1UNL    H18   45   0.446   0.061   0.170
    1UNL    H19   46   0.162   0.059   0.176
    1UNL    H20   47   0.422   0.129  -0.062
    1UNL    H21   48   0.257   0.280   0.105
    1UNL    H22   49   0.180   0.158  -0.157
    1UNL    H23   50   0.220  -0.020  -0.285
    1UNL    H24   51  -0.046   0.165  -0.246
    1UNL    H25   52  -0.210   0.232  -0.238
    1UNL    H26   53   0.002   0.270  -0.043
   0.00000   0.00000   0.00000   0.00000   0.00000   0.00000   0.00000   0.00000   0.00000
Generated with MDTraj, t= 55.0
 53
    1UNL     C1    1  -0.391  -0.018  -0.308
    1UNL     O1    2  -0.317  -0.113  -0.235
    1UNL     C2    3  -0.192  -0.068  -0.173
    1UNL     O2    4  -0.122  -0.165  -0.080
    1UNL     C3    5  -0.145  -0.116   0.053
    1UNL     C4    6  -0.065  -0.192   0.151
    1UNL     C5    7  -0.298  -0.147   0.084
    1UNL     C6    8  -0.385  -0.030   0.022
    1UNL     O3    9  -0.502  -0.040   0.021
    1UNL     C7   10  -0.314   0.098  -0.008
    1UNL     C8   11  -0.215   0.129   0.108
    1UNL     C9   12  -0.108   0.040   0.038
    1UNL     O4   13   0.028   0.086   0.051
    1UNL    C10   14   0.124   0.000  -0.023
    1UNL     O5   15   0.190  -0.114   0.035
    1UNL    C11   16   0.322  -0.103   0.074
    1UNL    C12   17   0.341  -0.208   0.187
    1UNL     O6   18   0.256  -0.173   0.297
    1UNL    C13   19   0.360   0.040   0.113
    1UNL     O7   20   0.276   0.086   0.215
    1UNL    C14   21   0.354   0.129  -0.021
    1UNL     O8   22   0.339   0.268   0.020
    1UNL    C15   23   0.233   0.083  -0.107
    1UNL     O9   24   0.291  -0.001  -0.209
    1UNL    C16   25  -0.187   0.068  -0.102
    1UNL    C17   26  -0.123   0.180  -0.185
    1UNL    O10   27  -0.077   0.288  -0.111
    1UNL     H1   28  -0.364   0.082  -0.273
    1UNL     H2   29  -0.371  -0.028  -0.419
    1UNL     H3   30  -0.504  -0.035  -0.294
    1UNL     H4   31  -0.111  -0.074  -0.257
    1UNL     H5   32  -0.067  -0.148   0.248
    1UNL     H6   33   0.037  -0.199   0.114
    1UNL     H7   34  -0.116  -0.288   0.159
    1UNL     H8   35  -0.331  -0.154   0.185
    1UNL     H9   36  -0.328  -0.238   0.028
    1UNL    H10   37  -0.380   0.184  -0.040
    1UNL    H11   38  -0.245   0.095   0.204
    1UNL    H12   39  -0.179   0.234   0.123
    1UNL    H13   40   0.068  -0.050  -0.103
    1UNL    H14   41   0.389  -0.126  -0.010
    1UNL    H15   42   0.319  -0.319   0.172
    1UNL    H16   43   0.445  -0.193   0.233
    1UNL    H17   44   0.246  -0.076   0.305
    1UNL    H18   45   0.465   0.034   0.153
    1UNL    H19   46   0.180   0.099   0.172
    1UNL    H20   47   0.440   0.119  -0.090
    1UNL    H21   48   0.310   0.284   0.106
    1UNL    H22   49   0.184   0.174  -0.151
    1UNL    H23   50   0.224  -0.050  -0.265
    1UNL    H24   51  -0.044   0.133  -0.247
    1UNL    H25   52  -0.203   0.223  -0.250
    1UNL    H26   53  -0.015   0.257  -0.037
   0.00000   0.00000   0.00000   0.00000   0.00000   0.00000   0.00000   0.00000   0.00000
Generated with MDTraj, t= 56.0
 53
    1UNL     C1    1  -0.382  -0.038  -0.300
    1UNL     O1    2  -0.311  -0.116  -0.212
    1UNL     C2    3  -0.181  -0.071  -0.170
    1UNL     O2    4  -0.116  -0.162  -0.087
    1UNL     C3    5  -0.133  -0.126   0.049
    1UNL     C4    6  -0.049  -0.204   0.155
    1UNL     C5    7  -0.284  -0.142   0.073
    1UNL     C6    8  -0.374  -0.019   0.034
    1UNL     O3    9  -0.492  -0.017   0.034
    1UNL     C7   10  -0.296   0.103   0.001
    1UNL     C8   11  -0.183   0.134   0.109
    1UNL     C9   12  -0.091   0.032   0.037
    1UNL     O4   13   0.039   0.077   0.030
    1UNL    C10   14   0.124  -0.002  -0.050
    1UNL     O5   15   0.172  -0.120   0.020
    1UNL    C11   16   0.311  -0.111   0.076
    1UNL    C12   17   0.325  -0.201   0.199
    1UNL     O6   18   0.232  -0.168   0.300
    1UNL    C13   19   0.336   0.039   0.120
    1UNL     O7   20   0.234   0.087   0.207
    1UNL    C14   21   0.347   0.128  -0.012
    1UNL     O8   22   0.324   0.261   0.025
    1UNL    C15   23   0.237   0.095  -0.112
    1UNL     O9   24   0.290   0.021  -0.231
    1UNL    C16   25  -0.178   0.066  -0.095
    1UNL    C17   26  -0.122   0.177  -0.180
    1UNL    O10   27  -0.078   0.283  -0.106
    1UNL     H1   28  -0.408   0.056  -0.250
    1UNL     H2   29  -0.326  -0.014  -0.398
    1UNL     H3   30  -0.483  -0.086  -0.335
    1UNL     H4   31  -0.128  -0.074  -0.274
    1UNL     H5   32  -0.038  -0.147   0.244
    1UNL     H6   33   0.046  -0.221   0.118
    1UNL     H7   34  -0.097  -0.299   0.185
    1UNL     H8   35  -0.305  -0.164   0.178
    1UNL     H9   36  -0.329  -0.215   0.005
    1UNL    H10   37  -0.361   0.187  -0.040
    1UNL    H11   38  -0.217   0.106   0.207
    1UNL    H12   39  -0.159   0.243   0.106
    1UNL    H13   40   0.068  -0.043  -0.134
    1UNL    H14   41   0.367  -0.141  -0.017
    1UNL    H15   42   0.297  -0.302   0.161
    1UNL    H16   43   0.422  -0.192   0.255
    1UNL    H17   44   0.216  -0.069   0.304
    1UNL    H18   45   0.435   0.047   0.170
    1UNL    H19   46   0.157   0.079   0.157
    1UNL    H20   47   0.446   0.104  -0.060
    1UNL    H21   48   0.292   0.267   0.124
    1UNL    H22   49   0.198   0.197  -0.133
    1UNL    H23   50   0.212  -0.012  -0.284
    1UNL    H24   51  -0.034   0.126  -0.223
    1UNL    H25   52  -0.197   0.203  -0.258
    1UNL    H26   53  -0.014   0.246  -0.045
   0.00000   0.00000   0.00000   0.00000   0.00000   0.00000   0.00000   0.00000   0.00000
Generated with MDTraj, t= 57.0
 53
    1UNL     C1    1  -0.365  -0.010  -0.317
    1UNL     O1    2  -0.319  -0.097  -0.221
    1UNL     C2    3  -0.188  -0.086  -0.168
    1UNL     O2    4  -0.141  -0.178  -0.075
    1UNL     C3    5  -0.139  -0.114   0.059
    1UNL     C4    6  -0.041  -0.196   0.147
    1UNL     C5    7  -0.281  -0.128   0.113
    1UNL     C6    8  -0.369  -0.021   0.052
    1UNL     O3    9  -0.492  -0.032   0.045
    1UNL     C7   10  -0.297   0.098  -0.001
    1UNL     C8   11  -0.184   0.146   0.098
    1UNL     C9   12  -0.095   0.036   0.036
    1UNL     O4   13   0.044   0.075   0.031
    1UNL    C10   14   0.129  -0.004  -0.055
    1UNL     O5   15   0.188  -0.122   0.001
    1UNL    C11   16   0.317  -0.103   0.075
    1UNL    C12   17   0.316  -0.200   0.194
    1UNL     O6   18   0.209  -0.178   0.277
    1UNL    C13   19   0.347   0.039   0.120
    1UNL     O7   20   0.250   0.083   0.211
    1UNL    C14   21   0.340   0.141  -0.003
    1UNL     O8   22   0.292   0.272   0.030
    1UNL    C15   23   0.244   0.080  -0.113
    1UNL     O9   24   0.328   0.010  -0.212
    1UNL    C16   25  -0.179   0.059  -0.100
    1UNL    C17   26  -0.135   0.170  -0.191
    1UNL    O10   27  -0.089   0.271  -0.111
    1UNL     H1   28  -0.398   0.084  -0.272
    1UNL     H2   29  -0.290   0.015  -0.399
    1UNL     H3   30  -0.458  -0.052  -0.369
    1UNL     H4   31  -0.133  -0.099  -0.270
    1UNL     H5   32  -0.032  -0.180   0.252
    1UNL     H6   33   0.062  -0.194   0.110
    1UNL     H7   34  -0.067  -0.301   0.142
    1UNL     H8   35  -0.289  -0.113   0.223
    1UNL     H9   36  -0.319  -0.223   0.081
    1UNL    H10   37  -0.366   0.175  -0.046
    1UNL    H11   38  -0.216   0.128   0.200
    1UNL    H12   39  -0.146   0.249   0.089
    1UNL    H13   40   0.068  -0.048  -0.134
    1UNL    H14   41   0.398  -0.135   0.003
    1UNL    H15   42   0.291  -0.298   0.159
    1UNL    H16   43   0.416  -0.179   0.235
    1UNL    H17   44   0.212  -0.082   0.284
    1UNL    H18   45   0.444   0.040   0.173
    1UNL    H19   46   0.160   0.071   0.164
    1UNL    H20   47   0.444   0.143  -0.049
    1UNL    H21   48   0.253   0.275   0.117
    1UNL    H22   49   0.211   0.177  -0.148
    1UNL    H23   50   0.273  -0.052  -0.264
    1UNL    H24   51  -0.063   0.139  -0.268
    1UNL    H25   52  -0.229   0.208  -0.235
    1UNL    H26   53   0.002   0.250  -0.069
   0.00000   0.00000   0.00000   0.00000   0.00000   0.00000   0.00000   0.00000   0.00000
Generated with MDTraj, t= 58.0
 53
    1UNL     C1    1  -0.370  -0.015  -0.315
    1UNL     O1    2  -0.324  -0.099  -0.217
    1UNL     C2    3  -0.187  -0.074  -0.170
    1UNL     O2    4  -0.140  -0.171  -0.076
    1UNL     C3    5  -0.136  -0.114   0.058
    1UNL     C4    6  -0.042  -0.202   0.141
    1UNL     C5    7  -0.282  -0.129   0.111
    1UNL     C6    8  -0.372  -0.018   0.054
    1UNL     O3    9  -0.492  -0.026   0.045
    1UNL     C7   10  -0.291   0.104   0.002
    1UNL     C8   11  -0.190   0.146   0.105
    1UNL     C9   12  -0.095   0.041   0.033
    1UNL     O4   13   0.042   0.075   0.024
    1UNL    C10   14   0.126  -0.006  -0.057
    1UNL     O5   15   0.181  -0.122   0.010
    1UNL    C11   16   0.311  -0.101   0.070
    1UNL    C12   17   0.339  -0.216   0.178
    1UNL     O6   18   0.250  -0.185   0.286
    1UNL    C13   19   0.328   0.045   0.121
    1UNL     O7   20   0.239   0.084   0.219
    1UNL    C14   21   0.317   0.143  -0.002
    1UNL     O8   22   0.256   0.266   0.032
    1UNL    C15   23   0.239   0.075  -0.119
    1UNL     O9   24   0.339   0.000  -0.194
    1UNL    C16   25  -0.175   0.067  -0.102
    1UNL    C17   26  -0.126   0.172  -0.198
    1UNL    O10   27  -0.064   0.271  -0.126
    1UNL     H1   28  -0.382   0.086  -0.275
    1UNL     H2   29  -0.288   0.001  -0.386
    1UNL     H3   30  -0.464  -0.041  -0.365
    1UNL     H4   31  -0.118  -0.086  -0.263
    1UNL     H5   32  -0.023  -0.155   0.236
    1UNL     H6   33   0.056  -0.231   0.095
    1UNL     H7   34  -0.085  -0.294   0.166
    1UNL     H8   35  -0.296  -0.117   0.223
    1UNL     H9   36  -0.329  -0.217   0.077
    1UNL    H10   37  -0.347   0.190  -0.040
    1UNL    H11   38  -0.225   0.118   0.206
    1UNL    H12   39  -0.151   0.247   0.106
    1UNL    H13   40   0.067  -0.049  -0.139
    1UNL    H14   41   0.381  -0.117  -0.017
    1UNL    H15   42   0.319  -0.308   0.127
    1UNL    H16   43   0.434  -0.207   0.224
    1UNL    H17   44   0.252  -0.086   0.298
    1UNL    H18   45   0.424   0.061   0.172
    1UNL    H19   46   0.161   0.108   0.168
    1UNL    H20   47   0.421   0.160  -0.048
    1UNL    H21   48   0.254   0.288   0.128
    1UNL    H22   49   0.202   0.150  -0.186
    1UNL    H23   50   0.287  -0.044  -0.261
    1UNL    H24   51  -0.054   0.131  -0.269
    1UNL    H25   52  -0.206   0.222  -0.251
    1UNL    H26   53  -0.006   0.242  -0.057
   0.00000   0.00000   0.00000   0.00000   0.00000   0.00000   0.00000   0.00000   0.00000
Generated with MDTraj, t= 59.0
 53
    1UNL     C1    1  -0.388  -0.025  -0.297
    1UNL     O1    2  -0.318  -0.113  -0.213
    1UNL     C2    3  -0.192  -0.074  -0.177
    1UNL     O2    4  -0.128  -0.169  -0.087
    1UNL     C3    5  -0.143  -0.115   0.051
    1UNL     C4    6  -0.062  -0.193   0.161
    1UNL     C5    7  -0.295  -0.123   0.082
    1UNL     C6    8  -0.382   0.001   0.033
    1UNL     O3    9  -0.499   0.008   0.036
    1UNL     C7   10  -0.295   0.114  -0.009
    1UNL     C8   11  -0.189   0.140   0.106
    1UNL     C9   12  -0.100   0.032   0.029
    1UNL     O4   13   0.042   0.057   0.022
    1UNL    C10   14   0.128  -0.032  -0.058
    1UNL     O5   15   0.190  -0.135   0.028
    1UNL    C11   16   0.324  -0.094   0.066
    1UNL    C12   17   0.376  -0.189   0.176
    1UNL     O6   18   0.299  -0.183   0.293
    1UNL    C13   19   0.329   0.048   0.118
    1UNL     O7   20   0.231   0.068   0.222
    1UNL    C14   21   0.312   0.148  -0.007
    1UNL     O8   22   0.226   0.247   0.047
    1UNL    C15   23   0.231   0.066  -0.124
    1UNL     O9   24   0.325   0.000  -0.200
    1UNL    C16   25  -0.180   0.064  -0.107
    1UNL    C17   26  -0.102   0.177  -0.189
    1UNL    O10   27  -0.062   0.288  -0.107
    1UNL     H1   28  -0.396   0.076  -0.257
    1UNL     H2   29  -0.335  -0.011  -0.387
    1UNL     H3   30  -0.484  -0.065  -0.306
    1UNL     H4   31  -0.117  -0.071  -0.264
    1UNL     H5   32  -0.077  -0.140   0.256
    1UNL     H6   33   0.037  -0.183   0.126
    1UNL     H7   34  -0.077  -0.296   0.172
    1UNL     H8   35  -0.333  -0.133   0.188
    1UNL     H9   36  -0.334  -0.205   0.026
    1UNL    H10   37  -0.344   0.206  -0.043
    1UNL    H11   38  -0.213   0.110   0.212
    1UNL    H12   39  -0.145   0.238   0.106
    1UNL    H13   40   0.074  -0.080  -0.140
    1UNL    H14   41   0.399  -0.103  -0.016
    1UNL    H15   42   0.355  -0.290   0.149
    1UNL    H16   43   0.480  -0.173   0.199
    1UNL    H17   44   0.236  -0.109   0.295
    1UNL    H18   45   0.423   0.072   0.169
    1UNL    H19   46   0.153   0.095   0.174
    1UNL    H20   47   0.413   0.196  -0.027
    1UNL    H21   48   0.252   0.258   0.147
    1UNL    H22   49   0.188   0.137  -0.190
    1UNL    H23   50   0.277  -0.063  -0.256
    1UNL    H24   51  -0.011   0.136  -0.232
    1UNL    H25   52  -0.164   0.212  -0.271
    1UNL    H26   53   0.017   0.268  -0.046
   0.00000   0.00000   0.00000   0.00000   0.00000   0.00000   0.00000   0.00000   0.00000
Generated with MDTraj, t= 60.0
 53
    1UNL     C1    1  -0.380   0.005  -0.312
    1UNL     O1    2  -0.331  -0.095  -0.221
    1UNL     C2    3  -0.192  -0.081  -0.179
    1UNL     O2    4  -0.140  -0.179  -0.088
    1UNL     C3    5  -0.160  -0.127   0.053
    1UNL     C4    6  -0.079  -0.209   0.151
    1UNL     C5    7  -0.317  -0.133   0.084
    1UNL     C6    8  -0.383   0.002   0.027
    1UNL     O3    9  -0.506   0.000   0.012
    1UNL     C7   10  -0.292   0.111  -0.005
    1UNL     C8   11  -0.193   0.128   0.106
    1UNL     C9   12  -0.110   0.019   0.033
    1UNL     O4   13   0.027   0.046   0.048
    1UNL    C10   14   0.124  -0.028  -0.037
    1UNL     O5   15   0.193  -0.125   0.044
    1UNL    C11   16   0.331  -0.091   0.069
    1UNL    C12   17   0.391  -0.187   0.174
    1UNL     O6   18   0.319  -0.183   0.291
    1UNL    C13   19   0.348   0.062   0.110
    1UNL     O7   20   0.275   0.097   0.225
    1UNL    C14   21   0.304   0.155  -0.012
    1UNL     O8   22   0.234   0.262   0.046
    1UNL    C15   23   0.220   0.060  -0.115
    1UNL     O9   24   0.299  -0.014  -0.206
    1UNL    C16   25  -0.171   0.057  -0.100
    1UNL    C17   26  -0.103   0.173  -0.181
    1UNL    O10   27  -0.040   0.282  -0.119
    1UNL     H1   28  -0.374   0.103  -0.265
    1UNL     H2   29  -0.310   0.010  -0.388
    1UNL     H3   30  -0.476  -0.017  -0.341
    1UNL     H4   31  -0.118  -0.068  -0.266
    1UNL     H5   32  -0.104  -0.167   0.250
    1UNL     H6   33   0.021  -0.208   0.125
    1UNL     H7   34  -0.109  -0.311   0.140
    1UNL     H8   35  -0.330  -0.115   0.192
    1UNL     H9   36  -0.382  -0.215   0.059
    1UNL    H10   37  -0.340   0.204  -0.035
    1UNL    H11   38  -0.223   0.099   0.210
    1UNL    H12   39  -0.150   0.227   0.111
    1UNL    H13   40   0.061  -0.085  -0.106
    1UNL    H14   41   0.392  -0.112  -0.019
    1UNL    H15   42   0.397  -0.289   0.134
    1UNL    H16   43   0.492  -0.157   0.208
    1UNL    H17   44   0.262  -0.100   0.295
    1UNL    H18   45   0.452   0.089   0.130
    1UNL    H19   46   0.182   0.105   0.191
    1UNL    H20   47   0.388   0.196  -0.072
    1UNL    H21   48   0.274   0.283   0.131
    1UNL    H22   49   0.166   0.119  -0.185
    1UNL    H23   50   0.258  -0.103  -0.225
    1UNL    H24   51  -0.024   0.121  -0.234
    1UNL    H25   52  -0.176   0.209  -0.251
    1UNL    H26   53   0.038   0.260  -0.057
   0.00000   0.00000   0.00000   0.00000   0.00000   0.00000   0.00000   0.00000   0.00000
Generated with MDTraj, t= 61.0
 53
    1UNL     C1    1  -0.334   0.018  -0.331
    1UNL     O1    2  -0.306  -0.082  -0.236
    1UNL     C2    3  -0.182  -0.069  -0.179
    1UNL     O2    4  -0.169  -0.174  -0.083
    1UNL     C3    5  -0.165  -0.127   0.052
    1UNL     C4    6  -0.079  -0.212   0.148
    1UNL     C5    7  -0.307  -0.125   0.103
    1UNL     C6    8  -0.386  -0.017   0.026
    1UNL     O3    9  -0.506  -0.012   0.003
    1UNL     C7   10  -0.296   0.101  -0.009
    1UNL     C8   11  -0.196   0.129   0.109
    1UNL     C9   12  -0.109   0.022   0.037
    1UNL     O4   13   0.034   0.036   0.055
    1UNL    C10   14   0.117  -0.046  -0.034
    1UNL     O5   15   0.194  -0.135   0.047
    1UNL    C11   16   0.335  -0.093   0.073
    1UNL    C12   17   0.396  -0.182   0.185
    1UNL     O6   18   0.345  -0.152   0.316
    1UNL    C13   19   0.343   0.055   0.100
    1UNL     O7   20   0.259   0.095   0.201
    1UNL    C14   21   0.302   0.138  -0.025
    1UNL     O8   22   0.241   0.259   0.014
    1UNL    C15   23   0.206   0.045  -0.117
    1UNL     O9   24   0.276  -0.021  -0.214
    1UNL    C16   25  -0.174   0.067  -0.099
    1UNL    C17   26  -0.107   0.193  -0.164
    1UNL    O10   27  -0.061   0.293  -0.077
    1UNL     H1   28  -0.372   0.108  -0.279
    1UNL     H2   29  -0.245   0.039  -0.383
    1UNL     H3   30  -0.407  -0.023  -0.390
    1UNL     H4   31  -0.101  -0.069  -0.261
    1UNL     H5   32  -0.069  -0.162   0.243
    1UNL     H6   33   0.011  -0.244   0.101
    1UNL     H7   34  -0.124  -0.308   0.170
    1UNL     H8   35  -0.323  -0.096   0.205
    1UNL     H9   36  -0.354  -0.222   0.085
    1UNL    H10   37  -0.344   0.188  -0.052
    1UNL    H11   38  -0.223   0.100   0.212
    1UNL    H12   39  -0.151   0.229   0.114
    1UNL    H13   40   0.046  -0.100  -0.096
    1UNL    H14   41   0.382  -0.126  -0.017
    1UNL    H15   42   0.376  -0.290   0.160
    1UNL    H16   43   0.510  -0.172   0.183
    1UNL    H17   44   0.269  -0.096   0.292
    1UNL    H18   45   0.438   0.087   0.146
    1UNL    H19   46   0.171   0.049   0.179
    1UNL    H20   47   0.391   0.171  -0.077
    1UNL    H21   48   0.261   0.272   0.108
    1UNL    H22   49   0.142   0.108  -0.171
    1UNL    H23   50   0.220  -0.090  -0.263
    1UNL    H24   51  -0.026   0.171  -0.235
    1UNL    H25   52  -0.188   0.244  -0.214
    1UNL    H26   53   0.031   0.269  -0.037
   0.00000   0.00000   0.00000   0.00000   0.00000   0.00000   0.00000   0.00000   0.00000
Generated with MDTraj, t= 62.0
 53
    1UNL     C1    1  -0.308   0.030  -0.340
    1UNL     O1    2  -0.291  -0.070  -0.240
    1UNL     C2    3  -0.170  -0.052  -0.173
    1UNL     O2    4  -0.139  -0.168  -0.088
    1UNL     C3    5  -0.168  -0.131   0.048
    1UNL     C4    6  -0.082  -0.213   0.143
    1UNL     C5    7  -0.321  -0.141   0.070
    1UNL     C6    8  -0.397  -0.021   0.023
    1UNL     O3    9  -0.514  -0.019   0.019
    1UNL     C7   10  -0.300   0.103   0.008
    1UNL     C8   11  -0.204   0.109   0.130
    1UNL     C9   12  -0.110   0.017   0.048
    1UNL     O4   13   0.024   0.055   0.046
    1UNL    C10   14   0.110  -0.038  -0.026
    1UNL     O5   15   0.191  -0.126   0.066
    1UNL    C11   16   0.335  -0.095   0.069
    1UNL    C12   17   0.390  -0.178   0.184
    1UNL     O6   18   0.353  -0.136   0.320
    1UNL    C13   19   0.344   0.055   0.082
    1UNL     O7   20   0.257   0.098   0.189
    1UNL    C14   21   0.295   0.130  -0.050
    1UNL     O8   22   0.228   0.249  -0.019
    1UNL    C15   23   0.203   0.031  -0.126
    1UNL     O9   24   0.280  -0.067  -0.189
    1UNL    C16   25  -0.177   0.083  -0.088
    1UNL    C17   26  -0.120   0.212  -0.148
    1UNL    O10   27  -0.051   0.289  -0.054
    1UNL     H1   28  -0.344   0.123  -0.288
    1UNL     H2   29  -0.214   0.043  -0.390
    1UNL     H3   30  -0.384  -0.008  -0.405
    1UNL     H4   31  -0.089  -0.056  -0.254
    1UNL     H5   32  -0.118  -0.207   0.240
    1UNL     H6   33   0.027  -0.194   0.139
    1UNL     H7   34  -0.082  -0.319   0.122
    1UNL     H8   35  -0.346  -0.158   0.170
    1UNL     H9   36  -0.366  -0.219   0.004
    1UNL    H10   37  -0.338   0.202  -0.006
    1UNL    H11   38  -0.246   0.058   0.216
    1UNL    H12   39  -0.162   0.209   0.159
    1UNL    H13   40   0.047  -0.110  -0.079
    1UNL    H14   41   0.376  -0.129  -0.024
    1UNL    H15   42   0.349  -0.284   0.182
    1UNL    H16   43   0.503  -0.192   0.181
    1UNL    H17   44   0.285  -0.064   0.308
    1UNL    H18   45   0.443   0.098   0.106
    1UNL    H19   46   0.174   0.123   0.147
    1UNL    H20   47   0.375   0.160  -0.114
    1UNL    H21   48   0.260   0.277   0.076
    1UNL    H22   49   0.147   0.076  -0.203
    1UNL    H23   50   0.229  -0.121  -0.254
    1UNL    H24   51  -0.046   0.182  -0.225
    1UNL    H25   52  -0.194   0.281  -0.188
    1UNL    H26   53   0.044   0.260  -0.038
   0.00000   0.00000   0.00000   0.00000   0.00000   0.00000   0.00000   0.00000   0.00000
Generated with MDTraj, t= 63.0
 53
    1UNL     C1    1  -0.344   0.036  -0.343
    1UNL     O1    2  -0.308  -0.065  -0.250
    1UNL     C2    3  -0.178  -0.046  -0.184
    1UNL     O2    4  -0.142  -0.171  -0.114
    1UNL     C3    5  -0.158  -0.135   0.023
    1UNL     C4    6  -0.080  -0.223   0.120
    1UNL     C5    7  -0.314  -0.142   0.059
    1UNL     C6    8  -0.395  -0.014   0.023
    1UNL     O3    9  -0.515  -0.014   0.011
    1UNL     C7   10  -0.306   0.100   0.011
    1UNL     C8   11  -0.199   0.101   0.130
    1UNL     C9   12  -0.105   0.017   0.045
    1UNL     O4   13   0.032   0.041   0.064
    1UNL    C10   14   0.122  -0.041  -0.005
    1UNL     O5   15   0.208  -0.130   0.080
    1UNL    C11   16   0.343  -0.104   0.086
    1UNL    C12   17   0.396  -0.162   0.216
    1UNL     O6   18   0.335  -0.115   0.336
    1UNL    C13   19   0.361   0.053   0.077
    1UNL     O7   20   0.289   0.114   0.181
    1UNL    C14   21   0.304   0.122  -0.060
    1UNL     O8   22   0.243   0.247  -0.026
    1UNL    C15   23   0.193   0.030  -0.120
    1UNL     O9   24   0.247  -0.076  -0.201
    1UNL    C16   25  -0.175   0.080  -0.086
    1UNL    C17   26  -0.117   0.209  -0.141
    1UNL    O10   27  -0.064   0.295  -0.036
    1UNL     H1   28  -0.346   0.132  -0.288
    1UNL     H2   29  -0.269   0.029  -0.427
    1UNL     H3   30  -0.448   0.010  -0.377
    1UNL     H4   31  -0.102  -0.047  -0.270
    1UNL     H5   32  -0.088  -0.195   0.221
    1UNL     H6   33   0.023  -0.252   0.090
    1UNL     H7   34  -0.127  -0.320   0.121
    1UNL     H8   35  -0.320  -0.150   0.162
    1UNL     H9   36  -0.363  -0.231   0.012
    1UNL    H10   37  -0.361   0.191  -0.005
    1UNL    H11   38  -0.231   0.047   0.218
    1UNL    H12   39  -0.162   0.197   0.176
    1UNL    H13   40   0.060  -0.122  -0.047
    1UNL    H14   41   0.393  -0.164   0.008
    1UNL    H15   42   0.400  -0.273   0.218
    1UNL    H16   43   0.502  -0.136   0.248
    1UNL    H17   44   0.263  -0.051   0.320
    1UNL    H18   45   0.469   0.069   0.082
    1UNL    H19   46   0.187   0.113   0.157
    1UNL    H20   47   0.382   0.134  -0.130
    1UNL    H21   48   0.300   0.291   0.038
    1UNL    H22   49   0.120   0.084  -0.173
    1UNL    H23   50   0.180  -0.139  -0.229
    1UNL    H24   51  -0.040   0.195  -0.222
    1UNL    H25   52  -0.203   0.264  -0.179
    1UNL    H26   53   0.027   0.277  -0.013
   0.00000   0.00000   0.00000   0.00000   0.00000   0.00000   0.00000   0.00000   0.00000
Generated with MDTraj, t= 64.0
 53
    1UNL     C1    1  -0.356   0.057  -0.303
    1UNL     O1    2  -0.319  -0.059  -0.239
    1UNL     C2    3  -0.188  -0.045  -0.185
    1UNL     O2    4  -0.148  -0.158  -0.116
    1UNL     C3    5  -0.164  -0.141   0.029
    1UNL     C4    6  -0.096  -0.239   0.124
    1UNL     C5    7  -0.320  -0.149   0.061
    1UNL     C6    8  -0.393  -0.022   0.018
    1UNL     O3    9  -0.515  -0.012  -0.009
    1UNL     C7   10  -0.296   0.098   0.010
    1UNL     C8   11  -0.195   0.096   0.136
    1UNL     C9   12  -0.107   0.006   0.046
    1UNL     O4   13   0.035   0.029   0.065
    1UNL    C10   14   0.120  -0.052  -0.012
    1UNL     O5   15   0.199  -0.140   0.069
    1UNL    C11   16   0.333  -0.087   0.085
    1UNL    C12   17   0.399  -0.149   0.215
    1UNL     O6   18   0.342  -0.107   0.343
    1UNL    C13   19   0.342   0.067   0.087
    1UNL     O7   20   0.258   0.121   0.179
    1UNL    C14   21   0.305   0.123  -0.050
    1UNL     O8   22   0.250   0.256  -0.051
    1UNL    C15   23   0.204   0.027  -0.119
    1UNL     O9   24   0.273  -0.074  -0.203
    1UNL    C16   25  -0.170   0.074  -0.084
    1UNL    C17   26  -0.094   0.192  -0.145
    1UNL    O10   27  -0.034   0.279  -0.043
    1UNL     H1   28  -0.371   0.132  -0.225
    1UNL     H2   29  -0.279   0.078  -0.387
    1UNL     H3   30  -0.461   0.032  -0.348
    1UNL     H4   31  -0.123  -0.018  -0.275
    1UNL     H5   32  -0.137  -0.226   0.224
    1UNL     H6   33   0.007  -0.214   0.116
    1UNL     H7   34  -0.114  -0.341   0.100
    1UNL     H8   35  -0.331  -0.166   0.164
    1UNL     H9   36  -0.367  -0.230   0.000
    1UNL    H10   37  -0.348   0.194   0.006
    1UNL    H11   38  -0.244   0.056   0.223
    1UNL    H12   39  -0.156   0.192   0.182
    1UNL    H13   40   0.054  -0.118  -0.069
    1UNL    H14   41   0.390  -0.128  -0.003
    1UNL    H15   42   0.386  -0.256   0.226
    1UNL    H16   43   0.508  -0.135   0.211
    1UNL    H17   44   0.296  -0.023   0.323
    1UNL    H18   45   0.444   0.098   0.112
    1UNL    H19   46   0.176   0.081   0.167
    1UNL    H20   47   0.390   0.139  -0.110
    1UNL    H21   48   0.305   0.327  -0.009
    1UNL    H22   49   0.142   0.092  -0.172
    1UNL    H23   50   0.216  -0.144  -0.235
    1UNL    H24   51  -0.017   0.162  -0.221
    1UNL    H25   52  -0.169   0.257  -0.192
    1UNL    H26   53   0.063   0.262  -0.032
   0.00000   0.00000   0.00000   0.00000   0.00000   0.00000   0.00000   0.00000   0.00000
Generated with MDTraj, t= 65.0
 53
    1UNL     C1    1  -0.366   0.054  -0.301
    1UNL     O1    2  -0.311  -0.068  -0.252
    1UNL     C2    3  -0.181  -0.050  -0.186
    1UNL     O2    4  -0.147  -0.169  -0.110
    1UNL     C3    5  -0.161  -0.137   0.029
    1UNL     C4    6  -0.097  -0.243   0.114
    1UNL     C5    7  -0.316  -0.134   0.072
    1UNL     C6    8  -0.385  -0.007   0.033
    1UNL     O3    9  -0.500  -0.010   0.009
    1UNL     C7   10  -0.293   0.108   0.018
    1UNL     C8   11  -0.189   0.102   0.128
    1UNL     C9   12  -0.109   0.010   0.037
    1UNL     O4   13   0.032   0.040   0.042
    1UNL    C10   14   0.120  -0.054  -0.027
    1UNL     O5   15   0.197  -0.135   0.067
    1UNL    C11   16   0.337  -0.096   0.092
    1UNL    C12   17   0.397  -0.149   0.223
    1UNL     O6   18   0.336  -0.103   0.337
    1UNL    C13   19   0.347   0.058   0.090
    1UNL     O7   20   0.256   0.113   0.181
    1UNL    C14   21   0.302   0.116  -0.048
    1UNL     O8   22   0.226   0.238  -0.024
    1UNL    C15   23   0.218   0.021  -0.127
    1UNL     O9   24   0.302  -0.073  -0.205
    1UNL    C16   25  -0.176   0.080  -0.089
    1UNL    C17   26  -0.112   0.204  -0.147
    1UNL    O10   27  -0.059   0.283  -0.047
    1UNL     H1   28  -0.433   0.093  -0.226
    1UNL     H2   29  -0.284   0.125  -0.338
    1UNL     H3   30  -0.435   0.032  -0.395
    1UNL     H4   31  -0.100  -0.033  -0.264
    1UNL     H5   32  -0.096  -0.220   0.223
    1UNL     H6   33  -0.002  -0.257   0.076
    1UNL     H7   34  -0.152  -0.334   0.110
    1UNL     H8   35  -0.340  -0.148   0.177
    1UNL     H9   36  -0.366  -0.212   0.013
    1UNL    H10   37  -0.344   0.205   0.011
    1UNL    H11   38  -0.220   0.042   0.212
    1UNL    H12   39  -0.135   0.196   0.150
    1UNL    H13   40   0.055  -0.119  -0.085
    1UNL    H14   41   0.385  -0.155   0.005
    1UNL    H15   42   0.388  -0.255   0.217
    1UNL    H16   43   0.496  -0.111   0.231
    1UNL    H17   44   0.324  -0.005   0.316
    1UNL    H18   45   0.446   0.092   0.121
    1UNL    H19   46   0.170   0.085   0.156
    1UNL    H20   47   0.391   0.138  -0.105
    1UNL    H21   48   0.264   0.289   0.057
    1UNL    H22   49   0.161   0.073  -0.199
    1UNL    H23   50   0.244  -0.139  -0.246
    1UNL    H24   51  -0.025   0.164  -0.206
    1UNL    H25   52  -0.180   0.261  -0.210
    1UNL    H26   53   0.042   0.272  -0.033
   0.00000   0.00000   0.00000   0.00000   0.00000   0.00000   0.00000   0.00000   0.00000
Generated with MDTraj, t= 66.0
 53
    1UNL     C1    1  -0.362   0.038  -0.316
    1UNL     O1    2  -0.328  -0.066  -0.228
    1UNL     C2    3  -0.199  -0.050  -0.191
    1UNL     O2    4  -0.144  -0.161  -0.118
    1UNL     C3    5  -0.150  -0.130   0.027
    1UNL     C4    6  -0.076  -0.225   0.119
    1UNL     C5    7  -0.298  -0.137   0.065
    1UNL     C6    8  -0.383  -0.017   0.034
    1UNL     O3    9  -0.500  -0.027   0.037
    1UNL     C7   10  -0.303   0.105   0.004
    1UNL     C8   11  -0.197   0.120   0.115
    1UNL     C9   12  -0.107   0.025   0.032
    1UNL     O4   13   0.039   0.050   0.049
    1UNL    C10   14   0.120  -0.040  -0.024
    1UNL     O5   15   0.195  -0.128   0.062
    1UNL    C11   16   0.329  -0.094   0.083
    1UNL    C12   17   0.385  -0.171   0.204
    1UNL     O6   18   0.313  -0.136   0.322
    1UNL    C13   19   0.357   0.059   0.099
    1UNL     O7   20   0.274   0.110   0.202
    1UNL    C14   21   0.318   0.120  -0.042
    1UNL     O8   22   0.247   0.239  -0.011
    1UNL    C15   23   0.216   0.031  -0.120
    1UNL     O9   24   0.297  -0.068  -0.174
    1UNL    C16   25  -0.183   0.071  -0.094
    1UNL    C17   26  -0.122   0.196  -0.165
    1UNL    O10   27  -0.071   0.291  -0.078
    1UNL     H1   28  -0.372   0.136  -0.272
    1UNL     H2   29  -0.308   0.038  -0.414
    1UNL     H3   30  -0.471   0.014  -0.341
    1UNL     H4   31  -0.130  -0.044  -0.281
    1UNL     H5   32  -0.069  -0.182   0.221
    1UNL     H6   33   0.025  -0.247   0.093
    1UNL     H7   34  -0.130  -0.313   0.143
    1UNL     H8   35  -0.300  -0.147   0.177
    1UNL     H9   36  -0.346  -0.223   0.020
    1UNL    H10   37  -0.347   0.201  -0.034
    1UNL    H11   38  -0.229   0.076   0.209
    1UNL    H12   39  -0.140   0.213   0.127
    1UNL    H13   40   0.062  -0.121  -0.072
    1UNL    H14   41   0.388  -0.116  -0.011
    1UNL    H15   42   0.360  -0.275   0.193
    1UNL    H16   43   0.487  -0.139   0.214
    1UNL    H17   44   0.301  -0.040   0.325
    1UNL    H18   45   0.462   0.080   0.122
    1UNL    H19   46   0.186   0.112   0.160
    1UNL    H20   47   0.408   0.141  -0.102
    1UNL    H21   48   0.299   0.284   0.052
    1UNL    H22   49   0.174   0.085  -0.199
    1UNL    H23   50   0.245  -0.149  -0.202
    1UNL    H24   51  -0.048   0.168  -0.245
    1UNL    H25   52  -0.205   0.253  -0.205
    1UNL    H26   53   0.021   0.264  -0.050
   0.00000   0.00000   0.00000   0.00000   0.00000   0.00000   0.00000   0.00000   0.00000
Generated with MDTraj, t= 67.0
 53
    1UNL     C1    1  -0.373  -0.004  -0.313
    1UNL     O1    2  -0.328  -0.097  -0.221
    1UNL     C2    3  -0.195  -0.062  -0.181
    1UNL     O2    4  -0.133  -0.169  -0.098
    1UNL     C3    5  -0.155  -0.128   0.042
    1UNL     C4    6  -0.075  -0.216   0.141
    1UNL     C5    7  -0.307  -0.133   0.085
    1UNL     C6    8  -0.379  -0.008   0.035
    1UNL     O3    9  -0.501  -0.005   0.020
    1UNL     C7   10  -0.291   0.118   0.011
    1UNL     C8   11  -0.180   0.128   0.113
    1UNL     C9   12  -0.101   0.025   0.026
    1UNL     O4   13   0.035   0.060   0.034
    1UNL    C10   14   0.125  -0.031  -0.037
    1UNL     O5   15   0.187  -0.130   0.050
    1UNL    C11   16   0.321  -0.099   0.082
    1UNL    C12   17   0.374  -0.191   0.197
    1UNL     O6   18   0.292  -0.160   0.312
    1UNL    C13   19   0.339   0.056   0.113
    1UNL     O7   20   0.246   0.100   0.208
    1UNL    C14   21   0.324   0.127  -0.024
    1UNL     O8   22   0.277   0.262  -0.002
    1UNL    C15   23   0.230   0.055  -0.126
    1UNL     O9   24   0.301  -0.021  -0.223
    1UNL    C16   25  -0.181   0.070  -0.099
    1UNL    C17   26  -0.119   0.190  -0.170
    1UNL    O10   27  -0.057   0.269  -0.077
    1UNL     H1   28  -0.378   0.092  -0.259
    1UNL     H2   29  -0.308   0.003  -0.396
    1UNL     H3   30  -0.475  -0.012  -0.349
    1UNL     H4   31  -0.127  -0.043  -0.269
    1UNL     H5   32  -0.080  -0.181   0.242
    1UNL     H6   33   0.035  -0.215   0.118
    1UNL     H7   34  -0.117  -0.313   0.156
    1UNL     H8   35  -0.319  -0.141   0.199
    1UNL     H9   36  -0.341  -0.225   0.040
    1UNL    H10   37  -0.342   0.217  -0.015
    1UNL    H11   38  -0.207   0.100   0.217
    1UNL    H12   39  -0.138   0.228   0.118
    1UNL    H13   40   0.061  -0.094  -0.100
    1UNL    H14   41   0.378  -0.117  -0.011
    1UNL    H15   42   0.346  -0.295   0.173
    1UNL    H16   43   0.477  -0.166   0.225
    1UNL    H17   44   0.292  -0.065   0.345
    1UNL    H18   45   0.433   0.065   0.170
    1UNL    H19   46   0.153   0.092   0.164
    1UNL    H20   47   0.428   0.137  -0.065
    1UNL    H21   48   0.280   0.288   0.098
    1UNL    H22   49   0.174   0.131  -0.174
    1UNL    H23   50   0.227  -0.069  -0.271
    1UNL    H24   51  -0.032   0.158  -0.230
    1UNL    H25   52  -0.195   0.240  -0.227
    1UNL    H26   53   0.022   0.223  -0.042
   0.00000   0.00000   0.00000   0.00000   0.00000   0.00000   0.00000   0.00000   0.00000
Generated with MDTraj, t= 68.0
 53
    1UNL     C1    1  -0.366  -0.005  -0.299
    1UNL     O1    2  -0.312  -0.106  -0.219
    1UNL     C2    3  -0.186  -0.081  -0.165
    1UNL     O2    4  -0.135  -0.173  -0.073
    1UNL     C3    5  -0.147  -0.116   0.061
    1UNL     C4    6  -0.069  -0.196   0.155
    1UNL     C5    7  -0.301  -0.124   0.094
    1UNL     C6    8  -0.379  -0.005   0.035
    1UNL     O3    9  -0.500  -0.010   0.028
    1UNL     C7   10  -0.295   0.109  -0.003
    1UNL     C8   11  -0.193   0.144   0.110
    1UNL     C9   12  -0.095   0.036   0.041
    1UNL     O4   13   0.046   0.054   0.047
    1UNL    C10   14   0.122  -0.023  -0.048
    1UNL     O5   15   0.187  -0.129   0.014
    1UNL    C11   16   0.321  -0.109   0.065
    1UNL    C12   17   0.340  -0.198   0.180
    1UNL     O6   18   0.254  -0.164   0.281
    1UNL    C13   19   0.349   0.045   0.104
    1UNL     O7   20   0.261   0.081   0.208
    1UNL    C14   21   0.318   0.143  -0.008
    1UNL     O8   22   0.253   0.261   0.038
    1UNL    C15   23   0.233   0.073  -0.114
    1UNL     O9   24   0.298   0.002  -0.219
    1UNL    C16   25  -0.175   0.063  -0.096
    1UNL    C17   26  -0.098   0.161  -0.194
    1UNL    O10   27  -0.054   0.278  -0.116
    1UNL     H1   28  -0.409   0.073  -0.236
    1UNL     H2   29  -0.297   0.033  -0.366
    1UNL     H3   30  -0.447  -0.038  -0.355
    1UNL     H4   31  -0.122  -0.079  -0.256
    1UNL     H5   32  -0.081  -0.163   0.254
    1UNL     H6   33   0.039  -0.183   0.129
    1UNL     H7   34  -0.113  -0.296   0.152
    1UNL     H8   35  -0.310  -0.114   0.208
    1UNL     H9   36  -0.337  -0.218   0.057
    1UNL    H10   37  -0.356   0.191  -0.052
    1UNL    H11   38  -0.212   0.123   0.218
    1UNL    H12   39  -0.145   0.239   0.100
    1UNL    H13   40   0.056  -0.054  -0.128
    1UNL    H14   41   0.385  -0.144  -0.014
    1UNL    H15   42   0.294  -0.298   0.150
    1UNL    H16   43   0.445  -0.191   0.223
    1UNL    H17   44   0.286  -0.085   0.328
    1UNL    H18   45   0.449   0.058   0.150
    1UNL    H19   46   0.173   0.048   0.172
    1UNL    H20   47   0.410   0.175  -0.069
    1UNL    H21   48   0.280   0.291   0.124
    1UNL    H22   49   0.188   0.153  -0.170
    1UNL    H23   50   0.260  -0.087  -0.234
    1UNL    H24   51  -0.016   0.104  -0.237
    1UNL    H25   52  -0.166   0.192  -0.271
    1UNL    H26   53   0.030   0.266  -0.068
   0.00000   0.00000   0.00000   0.00000   0.00000   0.00000   0.00000   0.00000   0.00000
Generated with MDTraj, t= 69.0
 53
    1UNL     C1    1  -0.365  -0.035  -0.310
    1UNL     O1    2  -0.313  -0.113  -0.206
    1UNL     C2    3  -0.184  -0.074  -0.159
    1UNL     O2    4  -0.137  -0.169  -0.059
    1UNL     C3    5  -0.135  -0.108   0.065
    1UNL     C4    6  -0.042  -0.178   0.168
    1UNL     C5    7  -0.294  -0.111   0.106
    1UNL     C6    8  -0.381  -0.005   0.040
    1UNL     O3    9  -0.496  -0.025   0.034
    1UNL     C7   10  -0.297   0.118  -0.008
    1UNL     C8   11  -0.187   0.155   0.095
    1UNL     C9   12  -0.095   0.043   0.036
    1UNL     O4   13   0.046   0.071   0.036
    1UNL    C10   14   0.126  -0.010  -0.050
    1UNL     O5   15   0.193  -0.120   0.006
    1UNL    C11   16   0.323  -0.106   0.064
    1UNL    C12   17   0.339  -0.216   0.171
    1UNL     O6   18   0.226  -0.213   0.263
    1UNL    C13   19   0.338   0.045   0.111
    1UNL     O7   20   0.250   0.074   0.217
    1UNL    C14   21   0.314   0.144  -0.004
    1UNL     O8   22   0.247   0.256   0.042
    1UNL    C15   23   0.233   0.078  -0.122
    1UNL     O9   24   0.318   0.004  -0.209
    1UNL    C16   25  -0.174   0.071  -0.102
    1UNL    C17   26  -0.111   0.170  -0.196
    1UNL    O10   27  -0.062   0.281  -0.121
    1UNL     H1   28  -0.388   0.066  -0.276
    1UNL     H2   29  -0.290  -0.030  -0.381
    1UNL     H3   30  -0.451  -0.068  -0.354
    1UNL     H4   31  -0.124  -0.097  -0.249
    1UNL     H5   32  -0.006  -0.114   0.245
    1UNL     H6   33   0.043  -0.198   0.109
    1UNL     H7   34  -0.092  -0.266   0.213
    1UNL     H8   35  -0.298  -0.084   0.216
    1UNL     H9   36  -0.344  -0.206   0.089
    1UNL    H10   37  -0.358   0.200  -0.058
    1UNL    H11   38  -0.213   0.137   0.202
    1UNL    H12   39  -0.154   0.257   0.079
    1UNL    H13   40   0.048  -0.051  -0.113
    1UNL    H14   41   0.395  -0.117  -0.014
    1UNL    H15   42   0.324  -0.321   0.126
    1UNL    H16   43   0.435  -0.190   0.228
    1UNL    H17   44   0.225  -0.120   0.298
    1UNL    H18   45   0.440   0.061   0.151
    1UNL    H19   46   0.165   0.067   0.161
    1UNL    H20   47   0.413   0.185  -0.043
    1UNL    H21   48   0.286   0.272   0.131
    1UNL    H22   49   0.176   0.153  -0.175
    1UNL    H23   50   0.287  -0.082  -0.239
    1UNL    H24   51  -0.030   0.125  -0.253
    1UNL    H25   52  -0.184   0.205  -0.266
    1UNL    H26   53   0.027   0.274  -0.079
   0.00000   0.00000   0.00000   0.00000   0.00000   0.00000   0.00000   0.00000   0.00000
Generated with MDTraj, t= 70.0
 53
    1UNL     C1    1  -0.361  -0.060  -0.321
    1UNL     O1    2  -0.321  -0.120  -0.201
    1UNL     C2    3  -0.190  -0.085  -0.159
    1UNL     O2    4  -0.129  -0.176  -0.064
    1UNL     C3    5  -0.142  -0.108   0.066
    1UNL     C4    6  -0.053  -0.181   0.165
    1UNL     C5    7  -0.297  -0.122   0.111
    1UNL     C6    8  -0.372  -0.006   0.048
    1UNL     O3    9  -0.493  -0.003   0.046
    1UNL     C7   10  -0.291   0.113  -0.007
    1UNL     C8   11  -0.177   0.152   0.099
    1UNL     C9   12  -0.095   0.046   0.029
    1UNL     O4   13   0.043   0.094   0.011
    1UNL    C10   14   0.126   0.011  -0.066
    1UNL     O5   15   0.173  -0.108   0.006
    1UNL    C11   16   0.303  -0.109   0.060
    1UNL    C12   17   0.327  -0.226   0.157
    1UNL     O6   18   0.260  -0.213   0.290
    1UNL    C13   19   0.329   0.031   0.121
    1UNL     O7   20   0.226   0.069   0.218
    1UNL    C14   21   0.332   0.137   0.007
    1UNL     O8   22   0.294   0.262   0.054
    1UNL    C15   23   0.249   0.094  -0.121
    1UNL     O9   24   0.329   0.017  -0.209
    1UNL    C16   25  -0.177   0.068  -0.099
    1UNL    C17   26  -0.132   0.172  -0.194
    1UNL    O10   27  -0.074   0.279  -0.134
    1UNL     H1   28  -0.339   0.050  -0.325
    1UNL     H2   29  -0.306  -0.110  -0.396
    1UNL     H3   30  -0.464  -0.069  -0.333
    1UNL     H4   31  -0.138  -0.106  -0.255
    1UNL     H5   32  -0.063  -0.155   0.270
    1UNL     H6   33   0.043  -0.150   0.138
    1UNL     H7   34  -0.068  -0.289   0.160
    1UNL     H8   35  -0.313  -0.131   0.221
    1UNL     H9   36  -0.330  -0.209   0.053
    1UNL    H10   37  -0.348   0.204  -0.042
    1UNL    H11   38  -0.220   0.130   0.198
    1UNL    H12   39  -0.138   0.256   0.102
    1UNL    H13   40   0.066  -0.028  -0.149
    1UNL    H14   41   0.370  -0.127  -0.022
    1UNL    H15   42   0.280  -0.309   0.094
    1UNL    H16   43   0.435  -0.237   0.184
    1UNL    H17   44   0.222  -0.123   0.291
    1UNL    H18   45   0.421   0.026   0.182
    1UNL    H19   46   0.137   0.050   0.169
    1UNL    H20   47   0.441   0.156  -0.021
    1UNL    H21   48   0.243   0.241   0.140
    1UNL    H22   49   0.209   0.178  -0.181
    1UNL    H23   50   0.288  -0.068  -0.241
    1UNL    H24   51  -0.066   0.128  -0.269
    1UNL    H25   52  -0.212   0.215  -0.253
    1UNL    H26   53  -0.009   0.242  -0.072
   0.00000   0.00000   0.00000   0.00000   0.00000   0.00000   0.00000   0.00000   0.00000
Generated with MDTraj, t= 71.0
 53
    1UNL     C1    1  -0.377  -0.071  -0.325
    1UNL     O1    2  -0.328  -0.119  -0.203
    1UNL     C2    3  -0.198  -0.084  -0.169
    1UNL     O2    4  -0.136  -0.165  -0.073
    1UNL     C3    5  -0.137  -0.100   0.056
    1UNL     C4    6  -0.040  -0.158   0.162
    1UNL     C5    7  -0.285  -0.121   0.103
    1UNL     C6    8  -0.369  -0.009   0.054
    1UNL     O3    9  -0.492  -0.005   0.062
    1UNL     C7   10  -0.306   0.101  -0.021
    1UNL     C8   11  -0.202   0.155   0.077
    1UNL     C9   12  -0.103   0.055   0.022
    1UNL     O4   13   0.038   0.090   0.032
    1UNL    C10   14   0.127   0.011  -0.052
    1UNL     O5   15   0.176  -0.118   0.005
    1UNL    C11   16   0.310  -0.121   0.064
    1UNL    C12   17   0.332  -0.226   0.170
    1UNL     O6   18   0.252  -0.211   0.289
    1UNL    C13   19   0.348   0.017   0.119
    1UNL     O7   20   0.255   0.060   0.224
    1UNL    C14   21   0.348   0.129   0.014
    1UNL     O8   22   0.318   0.256   0.077
    1UNL    C15   23   0.250   0.097  -0.102
    1UNL     O9   24   0.300   0.035  -0.219
    1UNL    C16   25  -0.186   0.067  -0.117
    1UNL    C17   26  -0.134   0.171  -0.206
    1UNL    O10   27  -0.090   0.290  -0.146
    1UNL     H1   28  -0.391   0.039  -0.331
    1UNL     H2   29  -0.310  -0.111  -0.404
    1UNL     H3   30  -0.476  -0.118  -0.326
    1UNL     H4   31  -0.140  -0.097  -0.260
    1UNL     H5   32  -0.024  -0.087   0.242
    1UNL     H6   33   0.065  -0.184   0.129
    1UNL     H7   34  -0.082  -0.238   0.218
    1UNL     H8   35  -0.279  -0.120   0.213
    1UNL     H9   36  -0.319  -0.214   0.052
    1UNL    H10   37  -0.386   0.163  -0.068
    1UNL    H11   38  -0.239   0.145   0.180
    1UNL    H12   39  -0.167   0.260   0.058
    1UNL    H13   40   0.086  -0.015  -0.150
    1UNL    H14   41   0.387  -0.149  -0.007
    1UNL    H15   42   0.296  -0.323   0.132
    1UNL    H16   43   0.438  -0.224   0.194
    1UNL    H17   44   0.261  -0.122   0.325
    1UNL    H18   45   0.447   0.018   0.166
    1UNL    H19   46   0.164   0.046   0.190
    1UNL    H20   47   0.444   0.162  -0.033
    1UNL    H21   48   0.315   0.245   0.172
    1UNL    H22   49   0.206   0.190  -0.149
    1UNL    H23   50   0.297  -0.065  -0.208
    1UNL    H24   51  -0.053   0.128  -0.268
    1UNL    H25   52  -0.210   0.193  -0.280
    1UNL    H26   53  -0.008   0.267  -0.095
   0.00000   0.00000   0.00000   0.00000   0.00000   0.00000   0.00000   0.00000   0.00000
Generated with MDTraj, t= 72.0
 53
    1UNL     C1    1  -0.369  -0.045  -0.301
    1UNL     O1    2  -0.317  -0.133  -0.206
    1UNL     C2    3  -0.179  -0.093  -0.154
    1UNL     O2    4  -0.130  -0.179  -0.046
    1UNL     C3    5  -0.148  -0.113   0.083
    1UNL     C4    6  -0.059  -0.184   0.187
    1UNL     C5    7  -0.304  -0.113   0.112
    1UNL     C6    8  -0.383  -0.008   0.034
    1UNL     O3    9  -0.499  -0.010   0.016
    1UNL     C7   10  -0.299   0.107  -0.015
    1UNL     C8   11  -0.200   0.149   0.093
    1UNL     C9   12  -0.101   0.037   0.043
    1UNL     O4   13   0.036   0.080   0.040
    1UNL    C10   14   0.123   0.011  -0.048
    1UNL     O5   15   0.171  -0.108  -0.001
    1UNL    C11   16   0.304  -0.104   0.056
    1UNL    C12   17   0.324  -0.218   0.158
    1UNL     O6   18   0.221  -0.225   0.263
    1UNL    C13   19   0.341   0.033   0.119
    1UNL     O7   20   0.248   0.074   0.210
    1UNL    C14   21   0.352   0.134   0.002
    1UNL     O8   22   0.353   0.268   0.044
    1UNL    C15   23   0.245   0.103  -0.103
    1UNL     O9   24   0.304   0.059  -0.223
    1UNL    C16   25  -0.170   0.055  -0.096
    1UNL    C17   26  -0.123   0.160  -0.201
    1UNL    O10   27  -0.069   0.281  -0.149
    1UNL     H1   28  -0.387   0.051  -0.251
    1UNL     H2   29  -0.283  -0.035  -0.379
    1UNL     H3   30  -0.469  -0.090  -0.333
    1UNL     H4   31  -0.104  -0.090  -0.232
    1UNL     H5   32  -0.046  -0.138   0.286
    1UNL     H6   33   0.040  -0.194   0.141
    1UNL     H7   34  -0.094  -0.282   0.206
    1UNL     H8   35  -0.327  -0.100   0.218
    1UNL     H9   36  -0.337  -0.206   0.056
    1UNL    H10   37  -0.351   0.196  -0.052
    1UNL    H11   38  -0.231   0.127   0.196
    1UNL    H12   39  -0.155   0.252   0.072
    1UNL    H13   40   0.059  -0.028  -0.128
    1UNL    H14   41   0.376  -0.129  -0.025
    1UNL    H15   42   0.329  -0.309   0.101
    1UNL    H16   43   0.409  -0.202   0.218
    1UNL    H17   44   0.219  -0.132   0.300
    1UNL    H18   45   0.436   0.019   0.172
    1UNL    H19   46   0.162   0.060   0.161
    1UNL    H20   47   0.449   0.126  -0.046
    1UNL    H21   48   0.339   0.264   0.140
    1UNL    H22   49   0.180   0.195  -0.125
    1UNL    H23   50   0.332  -0.038  -0.217
    1UNL    H24   51  -0.049   0.115  -0.273
    1UNL    H25   52  -0.206   0.182  -0.268
    1UNL    H26   53  -0.002   0.264  -0.077
   0.00000   0.00000   0.00000   0.00000   0.00000   0.00000   0.00000   0.00000   0.00000
Generated with MDTraj, t= 73.0
 53
    1UNL     C1    1  -0.369  -0.036  -0.309
    1UNL     O1    2  -0.302  -0.126  -0.217
    1UNL     C2    3  -0.179  -0.087  -0.154
    1UNL     O2    4  -0.135  -0.178  -0.049
    1UNL     C3    5  -0.143  -0.110   0.079
    1UNL     C4    6  -0.047  -0.171   0.180
    1UNL     C5    7  -0.294  -0.119   0.120
    1UNL     C6    8  -0.378  -0.015   0.031
    1UNL     O3    9  -0.495  -0.032   0.010
    1UNL     C7   10  -0.293   0.106  -0.021
    1UNL     C8   11  -0.208   0.158   0.090
    1UNL     C9   12  -0.105   0.043   0.041
    1UNL     O4   13   0.039   0.075   0.049
    1UNL    C10   14   0.117   0.007  -0.045
    1UNL     O5   15   0.171  -0.117  -0.001
    1UNL    C11   16   0.311  -0.122   0.056
    1UNL    C12   17   0.303  -0.220   0.174
    1UNL     O6   18   0.217  -0.175   0.275
    1UNL    C13   19   0.351   0.021   0.100
    1UNL     O7   20   0.272   0.062   0.203
    1UNL    C14   21   0.344   0.128  -0.012
    1UNL     O8   22   0.329   0.254   0.047
    1UNL    C15   23   0.225   0.106  -0.108
    1UNL     O9   24   0.282   0.055  -0.226
    1UNL    C16   25  -0.171   0.055  -0.102
    1UNL    C17   26  -0.110   0.172  -0.195
    1UNL    O10   27  -0.058   0.286  -0.115
    1UNL     H1   28  -0.425   0.038  -0.250
    1UNL     H2   29  -0.301   0.013  -0.391
    1UNL     H3   30  -0.450  -0.113  -0.338
    1UNL     H4   31  -0.097  -0.100  -0.224
    1UNL     H5   32  -0.055  -0.114   0.275
    1UNL     H6   33   0.050  -0.167   0.141
    1UNL     H7   34  -0.074  -0.275   0.197
    1UNL     H8   35  -0.305  -0.089   0.223
    1UNL     H9   36  -0.328  -0.223   0.089
    1UNL    H10   37  -0.343   0.180  -0.081
    1UNL    H11   38  -0.248   0.141   0.190
    1UNL    H12   39  -0.170   0.264   0.085
    1UNL    H13   40   0.048  -0.031  -0.122
    1UNL    H14   41   0.381  -0.165  -0.023
    1UNL    H15   42   0.255  -0.314   0.153
    1UNL    H16   43   0.400  -0.237   0.212
    1UNL    H17   44   0.269  -0.121   0.336
    1UNL    H18   45   0.454   0.017   0.138
    1UNL    H19   46   0.183   0.064   0.173
    1UNL    H20   47   0.438   0.136  -0.064
    1UNL    H21   48   0.259   0.246   0.119
    1UNL    H22   49   0.180   0.208  -0.139
    1UNL    H23   50   0.306  -0.040  -0.225
    1UNL    H24   51  -0.031   0.123  -0.257
    1UNL    H25   52  -0.190   0.200  -0.264
    1UNL    H26   53  -0.016   0.252  -0.033
   0.00000   0.00000   0.00000   0.00000   0.00000   0.00000   0.00000   0.00000   0.00000
Generated with MDTraj, t= 74.0
 53
    1UNL     C1    1  -0.350  -0.034  -0.328
    1UNL     O1    2  -0.307  -0.108  -0.206
    1UNL     C2    3  -0.172  -0.068  -0.166
    1UNL     O2    4  -0.123  -0.170  -0.072
    1UNL     C3    5  -0.138  -0.112   0.062
    1UNL     C4    6  -0.053  -0.176   0.173
    1UNL     C5    7  -0.293  -0.144   0.089
    1UNL     C6    8  -0.371  -0.024   0.033
    1UNL     O3    9  -0.494  -0.013   0.029
    1UNL     C7   10  -0.300   0.099  -0.010
    1UNL     C8   11  -0.201   0.140   0.108
    1UNL     C9   12  -0.101   0.047   0.041
    1UNL     O4   13   0.037   0.087   0.041
    1UNL    C10   14   0.117  -0.003  -0.038
    1UNL     O5   15   0.175  -0.121   0.034
    1UNL    C11   16   0.318  -0.116   0.073
    1UNL    C12   17   0.326  -0.221   0.180
    1UNL     O6   18   0.236  -0.196   0.279
    1UNL    C13   19   0.346   0.032   0.117
    1UNL     O7   20   0.248   0.087   0.203
    1UNL    C14   21   0.342   0.119  -0.013
    1UNL     O8   22   0.332   0.262   0.020
    1UNL    C15   23   0.224   0.078  -0.112
    1UNL     O9   24   0.276   0.008  -0.226
    1UNL    C16   25  -0.170   0.072  -0.096
    1UNL    C17   26  -0.133   0.194  -0.189
    1UNL    O10   27  -0.088   0.294  -0.114
    1UNL     H1   28  -0.364   0.068  -0.296
    1UNL     H2   29  -0.265  -0.038  -0.403
    1UNL     H3   30  -0.450  -0.076  -0.361
    1UNL     H4   31  -0.101  -0.063  -0.247
    1UNL     H5   32  -0.070  -0.119   0.264
    1UNL     H6   33   0.054  -0.189   0.154
    1UNL     H7   34  -0.093  -0.276   0.190
    1UNL     H8   35  -0.315  -0.157   0.192
    1UNL     H9   36  -0.316  -0.230   0.016
    1UNL    H10   37  -0.368   0.173  -0.050
    1UNL    H11   38  -0.221   0.118   0.213
    1UNL    H12   39  -0.176   0.249   0.106
    1UNL    H13   40   0.049  -0.042  -0.115
    1UNL    H14   41   0.368  -0.153  -0.022
    1UNL    H15   42   0.291  -0.318   0.141
    1UNL    H16   43   0.420  -0.228   0.231
    1UNL    H17   44   0.257  -0.107   0.317
    1UNL    H18   45   0.443   0.043   0.167
    1UNL    H19   46   0.154   0.091   0.161
    1UNL    H20   47   0.430   0.107  -0.072
    1UNL    H21   48   0.366   0.270   0.108
    1UNL    H22   49   0.185   0.175  -0.162
    1UNL    H23   50   0.250  -0.082  -0.208
    1UNL    H24   51  -0.055   0.167  -0.265
    1UNL    H25   52  -0.225   0.229  -0.238
    1UNL    H26   53  -0.001   0.275  -0.073
   0.00000   0.00000   0.00000   0.00000   0.00000   0.00000   0.00000   0.00000   0.00000
Generated with MDTraj, t= 75.0
 53
    1UNL     C1    1  -0.363  -0.018  -0.340
    1UNL     O1    2  -0.316  -0.102  -0.234
    1UNL     C2    3  -0.193  -0.072  -0.176
    1UNL     O2    4  -0.134  -0.169  -0.082
    1UNL     C3    5  -0.150  -0.123   0.053
    1UNL     C4    6  -0.060  -0.205   0.147
    1UNL     C5    7  -0.304  -0.133   0.088
    1UNL     C6    8  -0.388  -0.013   0.043
    1UNL     O3    9  -0.508  -0.007   0.040
    1UNL     C7   10  -0.300   0.100  -0.004
    1UNL     C8   11  -0.199   0.135   0.108
    1UNL     C9   12  -0.106   0.027   0.036
    1UNL     O4   13   0.033   0.067   0.028
    1UNL    C10   14   0.130  -0.012  -0.040
    1UNL     O5   15   0.184  -0.119   0.040
    1UNL    C11   16   0.321  -0.106   0.075
    1UNL    C12   17   0.338  -0.208   0.190
    1UNL     O6   18   0.261  -0.156   0.310
    1UNL    C13   19   0.356   0.039   0.111
    1UNL     O7   20   0.261   0.088   0.199
    1UNL    C14   21   0.348   0.125  -0.015
    1UNL     O8   22   0.305   0.262   0.013
    1UNL    C15   23   0.238   0.060  -0.113
    1UNL     O9   24   0.305  -0.020  -0.215
    1UNL    C16   25  -0.181   0.069  -0.100
    1UNL    C17   26  -0.126   0.195  -0.167
    1UNL    O10   27  -0.079   0.297  -0.082
    1UNL     H1   28  -0.378   0.079  -0.300
    1UNL     H2   29  -0.301  -0.027  -0.429
    1UNL     H3   30  -0.463  -0.056  -0.356
    1UNL     H4   31  -0.129  -0.070  -0.261
    1UNL     H5   32  -0.060  -0.172   0.248
    1UNL     H6   33   0.047  -0.195   0.112
    1UNL     H7   34  -0.075  -0.313   0.142
    1UNL     H8   35  -0.304  -0.129   0.195
    1UNL     H9   36  -0.348  -0.219   0.026
    1UNL    H10   37  -0.353   0.189  -0.032
    1UNL    H11   38  -0.250   0.117   0.204
    1UNL    H12   39  -0.169   0.239   0.101
    1UNL    H13   40   0.073  -0.068  -0.116
    1UNL    H14   41   0.372  -0.133  -0.020
    1UNL    H15   42   0.298  -0.313   0.170
    1UNL    H16   43   0.442  -0.216   0.222
    1UNL    H17   44   0.264  -0.058   0.319
    1UNL    H18   45   0.455   0.038   0.158
    1UNL    H19   46   0.183   0.087   0.146
    1UNL    H20   47   0.438   0.130  -0.075
    1UNL    H21   48   0.340   0.276   0.104
    1UNL    H22   49   0.196   0.148  -0.173
    1UNL    H23   50   0.236  -0.075  -0.260
    1UNL    H24   51  -0.034   0.174  -0.227
    1UNL    H25   52  -0.200   0.245  -0.230
    1UNL    H26   53   0.002   0.268  -0.032
   0.00000   0.00000   0.00000   0.00000   0.00000   0.00000   0.00000   0.00000   0.00000
Generated with MDTraj, t= 76.0
 53
    1UNL     C1    1  -0.374   0.031  -0.315
    1UNL     O1    2  -0.331  -0.068  -0.229
    1UNL     C2    3  -0.194  -0.055  -0.178
    1UNL     O2    4  -0.152  -0.168  -0.097
    1UNL     C3    5  -0.147  -0.132   0.044
    1UNL     C4    6  -0.053  -0.227   0.120
    1UNL     C5    7  -0.299  -0.135   0.092
    1UNL     C6    8  -0.382  -0.013   0.036
    1UNL     O3    9  -0.499  -0.014   0.022
    1UNL     C7   10  -0.299   0.107   0.002
    1UNL     C8   11  -0.191   0.123   0.115
    1UNL     C9   12  -0.105   0.021   0.042
    1UNL     O4   13   0.036   0.045   0.041
    1UNL    C10   14   0.129  -0.038  -0.042
    1UNL     O5   15   0.204  -0.136   0.046
    1UNL    C11   16   0.330  -0.094   0.090
    1UNL    C12   17   0.367  -0.177   0.211
    1UNL     O6   18   0.285  -0.151   0.325
    1UNL    C13   19   0.337   0.055   0.112
    1UNL     O7   20   0.249   0.097   0.214
    1UNL    C14   21   0.314   0.126  -0.022
    1UNL     O8   22   0.243   0.253  -0.002
    1UNL    C15   23   0.224   0.044  -0.121
    1UNL     O9   24   0.297  -0.035  -0.213
    1UNL    C16   25  -0.176   0.075  -0.093
    1UNL    C17   26  -0.102   0.176  -0.171
    1UNL    O10   27  -0.041   0.293  -0.114
    1UNL     H1   28  -0.400   0.113  -0.255
    1UNL     H2   29  -0.293   0.042  -0.380
    1UNL     H3   30  -0.460   0.003  -0.369
    1UNL     H4   31  -0.140  -0.059  -0.268
    1UNL     H5   32  -0.019  -0.191   0.217
    1UNL     H6   33   0.035  -0.244   0.062
    1UNL     H7   34  -0.099  -0.326   0.128
    1UNL     H8   35  -0.308  -0.135   0.200
    1UNL     H9   36  -0.347  -0.216   0.027
    1UNL    H10   37  -0.352   0.197  -0.019
    1UNL    H11   38  -0.214   0.075   0.211
    1UNL    H12   39  -0.129   0.211   0.124
    1UNL    H13   40   0.060  -0.094  -0.110
    1UNL    H14   41   0.400  -0.120   0.009
    1UNL    H15   42   0.346  -0.289   0.193
    1UNL    H16   43   0.474  -0.166   0.248
    1UNL    H17   44   0.249  -0.060   0.319
    1UNL    H18   45   0.437   0.081   0.151
    1UNL    H19   46   0.158   0.088   0.165
    1UNL    H20   47   0.407   0.152  -0.074
    1UNL    H21   48   0.307   0.303   0.055
    1UNL    H22   49   0.176   0.126  -0.183
    1UNL    H23   50   0.256  -0.126  -0.220
    1UNL    H24   51  -0.027   0.127  -0.237
    1UNL    H25   52  -0.174   0.228  -0.234
    1UNL    H26   53   0.052   0.280  -0.080
   0.00000   0.00000   0.00000   0.00000   0.00000   0.00000   0.00000   0.00000   0.00000
Generated with MDTraj, t= 77.0
 53
    1UNL     C1    1  -0.379   0.048  -0.295
    1UNL     O1    2  -0.325  -0.069  -0.238
    1UNL     C2    3  -0.193  -0.061  -0.187
    1UNL     O2    4  -0.162  -0.172  -0.106
    1UNL     C3    5  -0.163  -0.136   0.032
    1UNL     C4    6  -0.087  -0.233   0.121
    1UNL     C5    7  -0.321  -0.138   0.071
    1UNL     C6    8  -0.380  -0.002   0.034
    1UNL     O3    9  -0.499   0.025   0.015
    1UNL     C7   10  -0.280   0.107   0.003
    1UNL     C8   11  -0.182   0.108   0.121
    1UNL     C9   12  -0.097   0.009   0.035
    1UNL     O4   13   0.044   0.033   0.042
    1UNL    C10   14   0.138  -0.058  -0.027
    1UNL     O5   15   0.222  -0.138   0.056
    1UNL    C11   16   0.350  -0.087   0.083
    1UNL    C12   17   0.394  -0.139   0.227
    1UNL     O6   18   0.289  -0.145   0.312
    1UNL    C13   19   0.342   0.066   0.098
    1UNL     O7   20   0.254   0.110   0.207
    1UNL    C14   21   0.295   0.130  -0.040
    1UNL     O8   22   0.211   0.242  -0.008
    1UNL    C15   23   0.221   0.026  -0.127
    1UNL     O9   24   0.322  -0.057  -0.193
    1UNL    C16   25  -0.167   0.065  -0.097
    1UNL    C17   26  -0.102   0.178  -0.163
    1UNL    O10   27  -0.060   0.286  -0.071
    1UNL     H1   28  -0.389   0.127  -0.222
    1UNL     H2   29  -0.311   0.071  -0.369
    1UNL     H3   30  -0.476   0.039  -0.335
    1UNL     H4   31  -0.138  -0.067  -0.276
    1UNL     H5   32  -0.105  -0.201   0.225
    1UNL     H6   33   0.017  -0.239   0.106
    1UNL     H7   34  -0.138  -0.330   0.108
    1UNL     H8   35  -0.330  -0.147   0.180
    1UNL     H9   36  -0.372  -0.214   0.006
    1UNL    H10   37  -0.322   0.206  -0.007
    1UNL    H11   38  -0.226   0.066   0.213
    1UNL    H12   39  -0.146   0.202   0.156
    1UNL    H13   40   0.071  -0.126  -0.088
    1UNL    H14   41   0.419  -0.127   0.010
    1UNL    H15   42   0.424  -0.250   0.216
    1UNL    H16   43   0.476  -0.081   0.280
    1UNL    H17   44   0.219  -0.092   0.264
    1UNL    H18   45   0.438   0.111   0.128
    1UNL    H19   46   0.163   0.094   0.168
    1UNL    H20   47   0.383   0.164  -0.102
    1UNL    H21   48   0.269   0.299   0.041
    1UNL    H22   49   0.153   0.058  -0.212
    1UNL    H23   50   0.294  -0.086  -0.283
    1UNL    H24   51  -0.020   0.138  -0.226
    1UNL    H25   52  -0.171   0.223  -0.233
    1UNL    H26   53   0.026   0.272  -0.031
   0.00000   0.00000   0.00000   0.00000   0.00000   0.00000   0.00000   0.00000   0.00000
Generated with MDTraj, t= 78.0
 53
    1UNL     C1    1  -0.370   0.035  -0.324
    1UNL     O1    2  -0.325  -0.060  -0.230
    1UNL     C2    3  -0.193  -0.054  -0.191
    1UNL     O2    4  -0.149  -0.172  -0.116
    1UNL     C3    5  -0.163  -0.139   0.031
    1UNL     C4    6  -0.095  -0.246   0.119
    1UNL     C5    7  -0.315  -0.141   0.060
    1UNL     C6    8  -0.383  -0.007   0.026
    1UNL     O3    9  -0.505   0.006   0.028
    1UNL     C7   10  -0.286   0.105   0.008
    1UNL     C8   11  -0.182   0.104   0.127
    1UNL     C9   12  -0.098   0.012   0.039
    1UNL     O4   13   0.042   0.037   0.056
    1UNL    C10   14   0.125  -0.058  -0.020
    1UNL     O5   15   0.212  -0.149   0.051
    1UNL    C11   16   0.337  -0.092   0.081
    1UNL    C12   17   0.393  -0.155   0.228
    1UNL     O6   18   0.310  -0.122   0.333
    1UNL    C13   19   0.339   0.066   0.100
    1UNL     O7   20   0.259   0.113   0.199
    1UNL    C14   21   0.309   0.125  -0.038
    1UNL     O8   22   0.250   0.255  -0.032
    1UNL    C15   23   0.211   0.024  -0.117
    1UNL     O9   24   0.286  -0.068  -0.194
    1UNL    C16   25  -0.172   0.071  -0.097
    1UNL    C17   26  -0.115   0.206  -0.161
    1UNL    O10   27  -0.056   0.288  -0.060
    1UNL     H1   28  -0.417   0.127  -0.283
    1UNL     H2   29  -0.285   0.063  -0.379
    1UNL     H3   30  -0.442  -0.001  -0.395
    1UNL     H4   31  -0.136  -0.047  -0.278
    1UNL     H5   32  -0.105  -0.234   0.229
    1UNL     H6   33   0.009  -0.236   0.093
    1UNL     H7   34  -0.132  -0.343   0.090
    1UNL     H8   35  -0.332  -0.167   0.167
    1UNL     H9   36  -0.357  -0.207  -0.019
    1UNL    H10   37  -0.340   0.200  -0.006
    1UNL    H11   38  -0.208   0.064   0.226
    1UNL    H12   39  -0.140   0.199   0.149
    1UNL    H13   40   0.051  -0.122  -0.078
    1UNL    H14   41   0.403  -0.119   0.001
    1UNL    H15   42   0.405  -0.266   0.231
    1UNL    H16   43   0.491  -0.107   0.249
    1UNL    H17   44   0.283  -0.029   0.314
    1UNL    H18   45   0.436   0.108   0.135
    1UNL    H19   46   0.165   0.109   0.174
    1UNL    H20   47   0.401   0.145  -0.102
    1UNL    H21   48   0.291   0.299   0.049
    1UNL    H22   49   0.148   0.087  -0.187
    1UNL    H23   50   0.353  -0.019  -0.243
    1UNL    H24   51  -0.036   0.199  -0.240
    1UNL    H25   52  -0.198   0.262  -0.200
    1UNL    H26   53   0.038   0.251  -0.044
   0.00000   0.00000   0.00000   0.00000   0.00000   0.00000   0.00000   0.00000   0.00000
Generated with MDTraj, t= 79.0
 53
    1UNL     C1    1  -0.345   0.052  -0.327
    1UNL     O1    2  -0.308  -0.060  -0.252
    1UNL     C2    3  -0.181  -0.050  -0.187
    1UNL     O2    4  -0.148  -0.167  -0.102
    1UNL     C3    5  -0.154  -0.137   0.036
    1UNL     C4    6  -0.079  -0.234   0.130
    1UNL     C5    7  -0.309  -0.146   0.069
    1UNL     C6    8  -0.397  -0.025   0.025
    1UNL     O3    9  -0.515  -0.041   0.024
    1UNL     C7   10  -0.300   0.096   0.004
    1UNL     C8   11  -0.204   0.118   0.120
    1UNL     C9   12  -0.106   0.022   0.037
    1UNL     O4   13   0.027   0.056   0.040
    1UNL    C10   14   0.111  -0.038  -0.033
    1UNL     O5   15   0.168  -0.119   0.072
    1UNL    C11   16   0.312  -0.105   0.096
    1UNL    C12   17   0.377  -0.176   0.218
    1UNL     O6   18   0.361  -0.108   0.339
    1UNL    C13   19   0.351   0.046   0.102
    1UNL     O7   20   0.271   0.111   0.193
    1UNL    C14   21   0.321   0.113  -0.041
    1UNL     O8   22   0.267   0.248  -0.029
    1UNL    C15   23   0.214   0.032  -0.120
    1UNL     O9   24   0.268  -0.059  -0.209
    1UNL    C16   25  -0.176   0.073  -0.093
    1UNL    C17   26  -0.120   0.212  -0.148
    1UNL    O10   27  -0.046   0.275  -0.058
    1UNL     H1   28  -0.326   0.156  -0.283
    1UNL     H2   29  -0.279   0.049  -0.413
    1UNL     H3   30  -0.451   0.060  -0.363
    1UNL     H4   31  -0.102  -0.043  -0.254
    1UNL     H5   32  -0.049  -0.186   0.225
    1UNL     H6   33   0.011  -0.285   0.087
    1UNL     H7   34  -0.147  -0.309   0.161
    1UNL     H8   35  -0.312  -0.127   0.182
    1UNL     H9   36  -0.356  -0.236   0.027
    1UNL    H10   37  -0.350   0.193  -0.020
    1UNL    H11   38  -0.231   0.072   0.216
    1UNL    H12   39  -0.159   0.216   0.121
    1UNL    H13   40   0.044  -0.101  -0.098
    1UNL    H14   41   0.345  -0.161   0.006
    1UNL    H15   42   0.317  -0.265   0.237
    1UNL    H16   43   0.483  -0.195   0.211
    1UNL    H17   44   0.325  -0.017   0.325
    1UNL    H18   45   0.457   0.049   0.132
    1UNL    H19   46   0.171   0.098   0.173
    1UNL    H20   47   0.416   0.109  -0.104
    1UNL    H21   48   0.271   0.258   0.069
    1UNL    H22   49   0.161   0.112  -0.182
    1UNL    H23   50   0.263  -0.026  -0.301
    1UNL    H24   51  -0.057   0.183  -0.237
    1UNL    H25   52  -0.196   0.285  -0.175
    1UNL    H26   53   0.050   0.244  -0.059
   0.00000   0.00000   0.00000   0.00000   0.00000   0.00000   0.00000   0.00000   0.00000
Generated with MDTraj, t= 80.0
 53
    1UNL     C1    1  -0.347   0.016  -0.341
    1UNL     O1    2  -0.309  -0.069  -0.237
    1UNL     C2    3  -0.187  -0.053  -0.178
    1UNL     O2    4  -0.142  -0.163  -0.097
    1UNL     C3    5  -0.166  -0.128   0.045
    1UNL     C4    6  -0.099  -0.220   0.138
    1UNL     C5    7  -0.318  -0.141   0.077
    1UNL     C6    8  -0.387  -0.025   0.016
    1UNL     O3    9  -0.502  -0.027  -0.017
    1UNL     C7   10  -0.305   0.109   0.006
    1UNL     C8   11  -0.211   0.126   0.130
    1UNL     C9   12  -0.120   0.028   0.051
    1UNL     O4   13   0.028   0.066   0.056
    1UNL    C10   14   0.121  -0.029  -0.016
    1UNL     O5   15   0.189  -0.125   0.080
    1UNL    C11   16   0.333  -0.107   0.081
    1UNL    C12   17   0.400  -0.182   0.191
    1UNL     O6   18   0.350  -0.143   0.321
    1UNL    C13   19   0.358   0.050   0.093
    1UNL     O7   20   0.281   0.098   0.198
    1UNL    C14   21   0.329   0.118  -0.045
    1UNL     O8   22   0.279   0.248  -0.021
    1UNL    C15   23   0.223   0.032  -0.116
    1UNL     O9   24   0.273  -0.073  -0.199
    1UNL    C16   25  -0.187   0.076  -0.089
    1UNL    C17   26  -0.124   0.209  -0.153
    1UNL    O10   27  -0.103   0.309  -0.062
    1UNL     H1   28  -0.448   0.071  -0.329
    1UNL     H2   29  -0.268   0.090  -0.375
    1UNL     H3   30  -0.370  -0.055  -0.427
    1UNL     H4   31  -0.112  -0.043  -0.247
    1UNL     H5   32  -0.109  -0.191   0.242
    1UNL     H6   33   0.009  -0.232   0.119
    1UNL     H7   34  -0.141  -0.320   0.137
    1UNL     H8   35  -0.342  -0.127   0.189
    1UNL     H9   36  -0.358  -0.228   0.027
    1UNL    H10   37  -0.365   0.200  -0.020
    1UNL    H11   38  -0.232   0.074   0.224
    1UNL    H12   39  -0.152   0.219   0.140
    1UNL    H13   40   0.054  -0.095  -0.077
    1UNL    H14   41   0.364  -0.143  -0.020
    1UNL    H15   42   0.395  -0.289   0.200
    1UNL    H16   43   0.498  -0.144   0.188
    1UNL    H17   44   0.327  -0.047   0.325
    1UNL    H18   45   0.463   0.075   0.115
    1UNL    H19   46   0.185   0.082   0.175
    1UNL    H20   47   0.413   0.129  -0.122
    1UNL    H21   48   0.278   0.260   0.075
    1UNL    H22   49   0.170   0.108  -0.180
    1UNL    H23   50   0.333  -0.048  -0.276
    1UNL    H24   51  -0.030   0.188  -0.209
    1UNL    H25   52  -0.200   0.238  -0.223
    1UNL    H26   53  -0.022   0.287  -0.008
   0.00000   0.00000   0.00000   0.00000   0.00000   0.00000   0.00000   0.00000   0.00000
Generated with MDTraj, t= 81.0
 53
    1UNL     C1    1  -0.345  -0.010  -0.340
    1UNL     O1    2  -0.301  -0.098  -0.242
    1UNL     C2    3  -0.176  -0.059  -0.179
    1UNL     O2    4  -0.130  -0.158  -0.088
    1UNL     C3    5  -0.163  -0.119   0.048
    1UNL     C4    6  -0.093  -0.202   0.157
    1UNL     C5    7  -0.315  -0.137   0.062
    1UNL     C6    8  -0.387  -0.010   0.017
    1UNL     O3    9  -0.511   0.002   0.015
    1UNL     C7   10  -0.296   0.103  -0.005
    1UNL     C8   11  -0.206   0.128   0.116
    1UNL     C9   12  -0.110   0.032   0.045
    1UNL     O4   13   0.030   0.052   0.069
    1UNL    C10   14   0.116  -0.026  -0.007
    1UNL     O5   15   0.197  -0.124   0.062
    1UNL    C11   16   0.338  -0.098   0.075
    1UNL    C12   17   0.398  -0.191   0.180
    1UNL     O6   18   0.332  -0.170   0.313
    1UNL    C13   19   0.352   0.050   0.096
    1UNL     O7   20   0.276   0.092   0.207
    1UNL    C14   21   0.312   0.127  -0.040
    1UNL     O8   22   0.264   0.252  -0.001
    1UNL    C15   23   0.196   0.050  -0.114
    1UNL     O9   24   0.257  -0.041  -0.209
    1UNL    C16   25  -0.174   0.069  -0.091
    1UNL    C17   26  -0.121   0.194  -0.165
    1UNL    O10   27  -0.078   0.296  -0.082
    1UNL     H1   28  -0.458   0.014  -0.335
    1UNL     H2   29  -0.290   0.089  -0.323
    1UNL     H3   30  -0.323  -0.046  -0.445
    1UNL     H4   31  -0.102  -0.044  -0.249
    1UNL     H5   32  -0.119  -0.170   0.257
    1UNL     H6   33   0.011  -0.195   0.146
    1UNL     H7   34  -0.130  -0.306   0.156
    1UNL     H8   35  -0.333  -0.145   0.175
    1UNL     H9   36  -0.349  -0.219   0.001
    1UNL    H10   37  -0.355   0.197  -0.026
    1UNL    H11   38  -0.244   0.091   0.210
    1UNL    H12   39  -0.180   0.237   0.133
    1UNL    H13   40   0.050  -0.096  -0.065
    1UNL    H14   41   0.381  -0.123  -0.027
    1UNL    H15   42   0.371  -0.289   0.151
    1UNL    H16   43   0.501  -0.181   0.200
    1UNL    H17   44   0.279  -0.087   0.308
    1UNL    H18   45   0.450   0.065   0.147
    1UNL    H19   46   0.191   0.080   0.172
    1UNL    H20   47   0.402   0.145  -0.103
    1UNL    H21   48   0.312   0.279   0.083
    1UNL    H22   49   0.132   0.131  -0.162
    1UNL    H23   50   0.338  -0.009  -0.258
    1UNL    H24   51  -0.035   0.155  -0.227
    1UNL    H25   52  -0.194   0.235  -0.234
    1UNL    H26   53   0.009   0.279  -0.046
   0.00000   0.00000   0.00000   0.00000   0.00000   0.00000   0.00000   0.00000   0.00000
Generated with MDTraj, t= 82.0
 53
    1UNL     C1    1  -0.338  -0.011  -0.341
    1UNL     O1    2  -0.314  -0.089  -0.227
    1UNL     C2    3  -0.184  -0.073  -0.171
    1UNL     O2    4  -0.146  -0.175  -0.074
    1UNL     C3    5  -0.150  -0.118   0.061
    1UNL     C4    6  -0.065  -0.201   0.165
    1UNL     C5    7  -0.305  -0.122   0.085
    1UNL     C6    8  -0.390  -0.004   0.027
    1UNL     O3    9  -0.509  -0.003   0.027
    1UNL     C7   10  -0.303   0.112  -0.014
    1UNL     C8   11  -0.203   0.130   0.110
    1UNL     C9   12  -0.113   0.032   0.047
    1UNL     O4   13   0.027   0.059   0.055
    1UNL    C10   14   0.108  -0.014  -0.031
    1UNL     O5   15   0.184  -0.117   0.042
    1UNL    C11   16   0.327  -0.104   0.068
    1UNL    C12   17   0.366  -0.207   0.173
    1UNL     O6   18   0.331  -0.171   0.305
    1UNL    C13   19   0.346   0.050   0.103
    1UNL     O7   20   0.259   0.080   0.205
    1UNL    C14   21   0.304   0.145  -0.019
    1UNL     O8   22   0.232   0.256   0.026
    1UNL    C15   23   0.212   0.070  -0.117
    1UNL     O9   24   0.288  -0.006  -0.223
    1UNL    C16   25  -0.179   0.065  -0.101
    1UNL    C17   26  -0.098   0.166  -0.182
    1UNL    O10   27  -0.025   0.259  -0.097
    1UNL     H1   28  -0.422  -0.055  -0.397
    1UNL     H2   29  -0.388   0.079  -0.295
    1UNL     H3   30  -0.252   0.015  -0.404
    1UNL     H4   31  -0.115  -0.085  -0.247
    1UNL     H5   32  -0.081  -0.175   0.267
    1UNL     H6   33   0.039  -0.194   0.140
    1UNL     H7   34  -0.109  -0.303   0.156
    1UNL     H8   35  -0.324  -0.119   0.196
    1UNL     H9   36  -0.346  -0.209   0.031
    1UNL    H10   37  -0.372   0.198  -0.047
    1UNL    H11   38  -0.239   0.094   0.206
    1UNL    H12   39  -0.154   0.231   0.123
    1UNL    H13   40   0.049  -0.068  -0.109
    1UNL    H14   41   0.391  -0.117  -0.022
    1UNL    H15   42   0.309  -0.298   0.156
    1UNL    H16   43   0.472  -0.219   0.176
    1UNL    H17   44   0.301  -0.077   0.300
    1UNL    H18   45   0.444   0.080   0.142
    1UNL    H19   46   0.162   0.071   0.166
    1UNL    H20   47   0.394   0.177  -0.071
    1UNL    H21   48   0.241   0.269   0.122
    1UNL    H22   49   0.153   0.149  -0.175
    1UNL    H23   50   0.372   0.033  -0.251
    1UNL    H24   51  -0.022   0.130  -0.259
    1UNL    H25   52  -0.168   0.229  -0.235
    1UNL    H26   53   0.018   0.216  -0.016
   0.00000   0.00000   0.00000   0.00000   0.00000   0.00000   0.00000   0.00000   0.00000
Generated with MDTraj, t= 83.0
 53
    1UNL     C1    1  -0.360  -0.003  -0.315
    1UNL     O1    2  -0.321  -0.103  -0.225
    1UNL     C2    3  -0.189  -0.087  -0.166
    1UNL     O2    4  -0.160  -0.179  -0.056
    1UNL     C3    5  -0.160  -0.115   0.067
    1UNL     C4    6  -0.069  -0.196   0.155
    1UNL     C5    7  -0.311  -0.106   0.117
    1UNL     C6    8  -0.384  -0.001   0.035
    1UNL     O3    9  -0.500  -0.003   0.010
    1UNL     C7   10  -0.286   0.111  -0.018
    1UNL     C8   11  -0.186   0.154   0.098
    1UNL     C9   12  -0.101   0.031   0.038
    1UNL     O4   13   0.037   0.049   0.035
    1UNL    C10   14   0.132  -0.028  -0.043
    1UNL     O5   15   0.204  -0.131   0.027
    1UNL    C11   16   0.339  -0.103   0.067
    1UNL    C12   17   0.385  -0.197   0.172
    1UNL     O6   18   0.302  -0.200   0.281
    1UNL    C13   19   0.344   0.050   0.121
    1UNL     O7   20   0.238   0.064   0.209
    1UNL    C14   21   0.313   0.154  -0.000
    1UNL     O8   22   0.233   0.262   0.041
    1UNL    C15   23   0.236   0.072  -0.108
    1UNL     O9   24   0.323   0.001  -0.201
    1UNL    C16   25  -0.168   0.060  -0.102
    1UNL    C17   26  -0.122   0.165  -0.196
    1UNL    O10   27  -0.090   0.284  -0.130
    1UNL     H1   28  -0.456  -0.023  -0.353
    1UNL     H2   29  -0.384   0.082  -0.253
    1UNL     H3   30  -0.282   0.017  -0.386
    1UNL     H4   31  -0.126  -0.117  -0.245
    1UNL     H5   32  -0.048  -0.139   0.242
    1UNL     H6   33   0.027  -0.208   0.100
    1UNL     H7   34  -0.119  -0.287   0.186
    1UNL     H8   35  -0.311  -0.076   0.222
    1UNL     H9   36  -0.368  -0.199   0.095
    1UNL    H10   37  -0.331   0.209  -0.055
    1UNL    H11   38  -0.230   0.125   0.194
    1UNL    H12   39  -0.143   0.258   0.089
    1UNL    H13   40   0.073  -0.078  -0.123
    1UNL    H14   41   0.408  -0.108  -0.018
    1UNL    H15   42   0.379  -0.299   0.125
    1UNL    H16   43   0.481  -0.159   0.212
    1UNL    H17   44   0.259  -0.112   0.282
    1UNL    H18   45   0.437   0.083   0.172
    1UNL    H19   46   0.162   0.055   0.159
    1UNL    H20   47   0.407   0.188  -0.040
    1UNL    H21   48   0.207   0.260   0.137
    1UNL    H22   49   0.167   0.146  -0.162
    1UNL    H23   50   0.379   0.075  -0.228
    1UNL    H24   51  -0.036   0.128  -0.262
    1UNL    H25   52  -0.197   0.202  -0.267
    1UNL    H26   53  -0.005   0.277  -0.085
   0.00000   0.00000   0.00000   0.00000   0.00000   0.00000   0.00000   0.00000   0.00000
Generated with MDTraj, t= 84.0
 53
    1UNL     C1    1  -0.397  -0.037  -0.295
    1UNL     O1    2  -0.324  -0.109  -0.198
    1UNL     C2    3  -0.190  -0.076  -0.178
    1UNL     O2    4  -0.137  -0.177  -0.085
    1UNL     C3    5  -0.144  -0.118   0.048
    1UNL     C4    6  -0.060  -0.194   0.152
    1UNL     C5    7  -0.294  -0.126   0.093
    1UNL     C6    8  -0.377  -0.010   0.041
    1UNL     O3    9  -0.500   0.009   0.046
    1UNL     C7   10  -0.294   0.106  -0.014
    1UNL     C8   11  -0.183   0.153   0.080
    1UNL     C9   12  -0.099   0.041   0.025
    1UNL     O4   13   0.039   0.074   0.034
    1UNL    C10   14   0.132  -0.009  -0.042
    1UNL     O5   15   0.187  -0.122   0.035
    1UNL    C11   16   0.325  -0.104   0.068
    1UNL    C12   17   0.369  -0.215   0.167
    1UNL     O6   18   0.277  -0.209   0.284
    1UNL    C13   19   0.334   0.043   0.123
    1UNL     O7   20   0.252   0.073   0.231
    1UNL    C14   21   0.317   0.152   0.007
    1UNL     O8   22   0.253   0.260   0.061
    1UNL    C15   23   0.235   0.090  -0.111
    1UNL     O9   24   0.322   0.008  -0.189
    1UNL    C16   25  -0.178   0.066  -0.115
    1UNL    C17   26  -0.114   0.170  -0.212
    1UNL    O10   27  -0.067   0.280  -0.153
    1UNL     H1   28  -0.489  -0.085  -0.300
    1UNL     H2   29  -0.433   0.058  -0.268
    1UNL     H3   30  -0.335  -0.038  -0.380
    1UNL     H4   31  -0.147  -0.083  -0.274
    1UNL     H5   32  -0.047  -0.154   0.251
    1UNL     H6   33   0.043  -0.200   0.113
    1UNL     H7   34  -0.096  -0.291   0.169
    1UNL     H8   35  -0.306  -0.135   0.199
    1UNL     H9   36  -0.336  -0.217   0.043
    1UNL    H10   37  -0.365   0.185  -0.049
    1UNL    H11   38  -0.197   0.145   0.190
    1UNL    H12   39  -0.145   0.254   0.056
    1UNL    H13   40   0.076  -0.050  -0.128
    1UNL    H14   41   0.376  -0.116  -0.027
    1UNL    H15   42   0.343  -0.313   0.113
    1UNL    H16   43   0.478  -0.196   0.195
    1UNL    H17   44   0.240  -0.118   0.283
    1UNL    H18   45   0.434   0.043   0.170
    1UNL    H19   46   0.150   0.058   0.208
    1UNL    H20   47   0.417   0.177  -0.022
    1UNL    H21   48   0.166   0.240   0.102
    1UNL    H22   49   0.174   0.160  -0.179
    1UNL    H23   50   0.370   0.063  -0.258
    1UNL    H24   51  -0.030   0.123  -0.272
    1UNL    H25   52  -0.187   0.200  -0.288
    1UNL    H26   53   0.018   0.261  -0.103
   0.00000   0.00000   0.00000   0.00000   0.00000   0.00000   0.00000   0.00000   0.00000
Generated with MDTraj, t= 85.0
 53
    1UNL     C1    1  -0.401  -0.047  -0.300
    1UNL     O1    2  -0.323  -0.126  -0.203
    1UNL     C2    3  -0.189  -0.086  -0.171
    1UNL     O2    4  -0.121  -0.170  -0.078
    1UNL     C3    5  -0.140  -0.109   0.056
    1UNL     C4    6  -0.055  -0.168   0.165
    1UNL     C5    7  -0.297  -0.131   0.081
    1UNL     C6    8  -0.376  -0.010   0.043
    1UNL     O3    9  -0.496  -0.013   0.062
    1UNL     C7   10  -0.293   0.104  -0.021
    1UNL     C8   11  -0.193   0.142   0.093
    1UNL     C9   12  -0.097   0.040   0.026
    1UNL     O4   13   0.037   0.083   0.011
    1UNL    C10   14   0.130   0.002  -0.066
    1UNL     O5   15   0.173  -0.115   0.008
    1UNL    C11   16   0.303  -0.107   0.063
    1UNL    C12   17   0.329  -0.215   0.164
    1UNL     O6   18   0.265  -0.198   0.294
    1UNL    C13   19   0.330   0.035   0.127
    1UNL     O7   20   0.233   0.077   0.217
    1UNL    C14   21   0.336   0.135   0.013
    1UNL     O8   22   0.290   0.257   0.071
    1UNL    C15   23   0.246   0.086  -0.107
    1UNL     O9   24   0.327   0.021  -0.204
    1UNL    C16   25  -0.176   0.059  -0.111
    1UNL    C17   26  -0.113   0.174  -0.202
    1UNL    O10   27  -0.056   0.282  -0.136
    1UNL     H1   28  -0.504  -0.066  -0.287
    1UNL     H2   29  -0.403   0.058  -0.293
    1UNL     H3   30  -0.352  -0.076  -0.391
    1UNL     H4   31  -0.137  -0.089  -0.264
    1UNL     H5   32  -0.067  -0.107   0.256
    1UNL     H6   33   0.048  -0.173   0.147
    1UNL     H7   34  -0.086  -0.263   0.196
    1UNL     H8   35  -0.301  -0.125   0.187
    1UNL     H9   36  -0.345  -0.225   0.038
    1UNL    H10   37  -0.356   0.189  -0.056
    1UNL    H11   38  -0.228   0.116   0.197
    1UNL    H12   39  -0.148   0.241   0.090
    1UNL    H13   40   0.086  -0.044  -0.156
    1UNL    H14   41   0.370  -0.116  -0.022
    1UNL    H15   42   0.293  -0.316   0.124
    1UNL    H16   43   0.442  -0.211   0.184
    1UNL    H17   44   0.218  -0.112   0.302
    1UNL    H18   45   0.426   0.037   0.180
    1UNL    H19   46   0.156   0.088   0.165
    1UNL    H20   47   0.434   0.159  -0.028
    1UNL    H21   48   0.319   0.277   0.164
    1UNL    H22   49   0.208   0.181  -0.153
    1UNL    H23   50   0.374   0.090  -0.259
    1UNL    H24   51  -0.039   0.122  -0.268
    1UNL    H25   52  -0.189   0.211  -0.269
    1UNL    H26   53  -0.008   0.250  -0.057
   0.00000   0.00000   0.00000   0.00000   0.00000   0.00000   0.00000   0.00000   0.00000
Generated with MDTraj, t= 86.0
 53
    1UNL     C1    1  -0.359  -0.042  -0.316
    1UNL     O1    2  -0.303  -0.125  -0.216
    1UNL     C2    3  -0.183  -0.079  -0.159
    1UNL     O2    4  -0.138  -0.177  -0.054
    1UNL     C3    5  -0.131  -0.109   0.072
    1UNL     C4    6  -0.042  -0.189   0.171
    1UNL     C5    7  -0.280  -0.114   0.122
    1UNL     C6    8  -0.372  -0.015   0.039
    1UNL     O3    9  -0.488  -0.028   0.024
    1UNL     C7   10  -0.297   0.111  -0.011
    1UNL     C8   11  -0.197   0.142   0.103
    1UNL     C9   12  -0.095   0.047   0.029
    1UNL     O4   13   0.040   0.087   0.028
    1UNL    C10   14   0.129   0.012  -0.055
    1UNL     O5   15   0.178  -0.112  -0.000
    1UNL    C11   16   0.309  -0.117   0.064
    1UNL    C12   17   0.319  -0.217   0.182
    1UNL     O6   18   0.210  -0.206   0.267
    1UNL    C13   19   0.341   0.029   0.123
    1UNL     O7   20   0.247   0.075   0.220
    1UNL    C14   21   0.344   0.130   0.007
    1UNL     O8   22   0.329   0.268   0.059
    1UNL    C15   23   0.244   0.090  -0.109
    1UNL     O9   24   0.305   0.022  -0.227
    1UNL    C16   25  -0.179   0.062  -0.104
    1UNL    C17   26  -0.137   0.171  -0.201
    1UNL    O10   27  -0.104   0.294  -0.140
    1UNL     H1   28  -0.433  -0.095  -0.375
    1UNL     H2   29  -0.414   0.040  -0.272
    1UNL     H3   30  -0.271  -0.004  -0.374
    1UNL     H4   31  -0.110  -0.086  -0.238
    1UNL     H5   32  -0.027  -0.130   0.260
    1UNL     H6   33   0.051  -0.205   0.119
    1UNL     H7   34  -0.082  -0.283   0.203
    1UNL     H8   35  -0.301  -0.089   0.223
    1UNL     H9   36  -0.312  -0.219   0.095
    1UNL    H10   37  -0.356   0.200  -0.039
    1UNL    H11   38  -0.228   0.098   0.202
    1UNL    H12   39  -0.162   0.243   0.108
    1UNL    H13   40   0.063  -0.024  -0.134
    1UNL    H14   41   0.375  -0.148  -0.017
    1UNL    H15   42   0.317  -0.321   0.141
    1UNL    H16   43   0.409  -0.203   0.249
    1UNL    H17   44   0.202  -0.113   0.301
    1UNL    H18   45   0.436   0.029   0.179
    1UNL    H19   46   0.154   0.079   0.169
    1UNL    H20   47   0.448   0.115  -0.027
    1UNL    H21   48   0.233   0.276   0.056
    1UNL    H22   49   0.202   0.182  -0.153
    1UNL    H23   50   0.348   0.077  -0.294
    1UNL    H24   51  -0.050   0.145  -0.263
    1UNL    H25   52  -0.218   0.189  -0.268
    1UNL    H26   53  -0.036   0.286  -0.068
   0.00000   0.00000   0.00000   0.00000   0.00000   0.00000   0.00000   0.00000   0.00000
Generated with MDTraj, t= 87.0
 53
    1UNL     C1    1  -0.333  -0.039  -0.319
    1UNL     O1    2  -0.302  -0.119  -0.211
    1UNL     C2    3  -0.179  -0.086  -0.163
    1UNL     O2    4  -0.123  -0.170  -0.057
    1UNL     C3    5  -0.144  -0.103   0.075
    1UNL     C4    6  -0.056  -0.170   0.176
    1UNL     C5    7  -0.296  -0.129   0.112
    1UNL     C6    8  -0.385  -0.028   0.034
    1UNL     O3    9  -0.506  -0.034   0.022
    1UNL     C7   10  -0.306   0.088  -0.021
    1UNL     C8   11  -0.220   0.144   0.087
    1UNL     C9   12  -0.106   0.048   0.041
    1UNL     O4   13   0.035   0.096   0.037
    1UNL    C10   14   0.117   0.016  -0.051
    1UNL     O5   15   0.165  -0.110   0.009
    1UNL    C11   16   0.298  -0.109   0.057
    1UNL    C12   17   0.314  -0.218   0.168
    1UNL     O6   18   0.241  -0.197   0.288
    1UNL    C13   19   0.342   0.025   0.110
    1UNL     O7   20   0.260   0.065   0.217
    1UNL    C14   21   0.352   0.121  -0.004
    1UNL     O8   22   0.343   0.262   0.036
    1UNL    C15   23   0.233   0.102  -0.110
    1UNL     O9   24   0.289   0.028  -0.222
    1UNL    C16   25  -0.179   0.056  -0.099
    1UNL    C17   26  -0.125   0.170  -0.189
    1UNL    O10   27  -0.075   0.288  -0.114
    1UNL     H1   28  -0.428  -0.080  -0.362
    1UNL     H2   29  -0.351   0.064  -0.279
    1UNL     H3   30  -0.244  -0.033  -0.393
    1UNL     H4   31  -0.113  -0.096  -0.249
    1UNL     H5   32  -0.082  -0.124   0.265
    1UNL     H6   33   0.047  -0.140   0.147
    1UNL     H7   34  -0.065  -0.276   0.187
    1UNL     H8   35  -0.314  -0.118   0.217
    1UNL     H9   36  -0.330  -0.229   0.075
    1UNL    H10   37  -0.368   0.161  -0.074
    1UNL    H11   38  -0.236   0.128   0.197
    1UNL    H12   39  -0.200   0.248   0.069
    1UNL    H13   40   0.049  -0.023  -0.127
    1UNL    H14   41   0.366  -0.130  -0.029
    1UNL    H15   42   0.275  -0.316   0.141
    1UNL    H16   43   0.421  -0.230   0.187
    1UNL    H17   44   0.246  -0.101   0.306
    1UNL    H18   45   0.439   0.025   0.162
    1UNL    H19   46   0.185   0.106   0.177
    1UNL    H20   47   0.456   0.118  -0.048
    1UNL    H21   48   0.409   0.288   0.104
    1UNL    H22   49   0.204   0.203  -0.135
    1UNL    H23   50   0.342   0.080  -0.283
    1UNL    H24   51  -0.041   0.132  -0.246
    1UNL    H25   52  -0.190   0.212  -0.262
    1UNL    H26   53  -0.037   0.265  -0.025
   0.00000   0.00000   0.00000   0.00000   0.00000   0.00000   0.00000   0.00000   0.00000
Generated with MDTraj, t= 88.0
 53
    1UNL     C1    1  -0.356  -0.070  -0.328
    1UNL     O1    2  -0.297  -0.125  -0.209
    1UNL     C2    3  -0.169  -0.077  -0.167
    1UNL     O2    4  -0.113  -0.168  -0.064
    1UNL     C3    5  -0.148  -0.113   0.064
    1UNL     C4    6  -0.063  -0.174   0.178
    1UNL     C5    7  -0.310  -0.129   0.082
    1UNL     C6    8  -0.383  -0.010   0.027
    1UNL     O3    9  -0.505  -0.013   0.002
    1UNL     C7   10  -0.304   0.111  -0.019
    1UNL     C8   11  -0.213   0.140   0.100
    1UNL     C9   12  -0.115   0.041   0.043
    1UNL     O4   13   0.022   0.085   0.050
    1UNL    C10   14   0.117   0.004  -0.021
    1UNL     O5   15   0.168  -0.109   0.040
    1UNL    C11   16   0.308  -0.115   0.064
    1UNL    C12   17   0.344  -0.221   0.169
    1UNL     O6   18   0.286  -0.196   0.296
    1UNL    C13   19   0.353   0.027   0.109
    1UNL     O7   20   0.256   0.056   0.220
    1UNL    C14   21   0.342   0.120  -0.013
    1UNL     O8   22   0.345   0.258   0.023
    1UNL    C15   23   0.215   0.094  -0.094
    1UNL     O9   24   0.249   0.043  -0.228
    1UNL    C16   25  -0.176   0.071  -0.100
    1UNL    C17   26  -0.118   0.185  -0.190
    1UNL    O10   27  -0.068   0.289  -0.115
    1UNL     H1   28  -0.467  -0.091  -0.333
    1UNL     H2   29  -0.332   0.041  -0.322
    1UNL     H3   30  -0.305  -0.111  -0.425
    1UNL     H4   31  -0.103  -0.072  -0.256
    1UNL     H5   32  -0.073  -0.126   0.270
    1UNL     H6   33   0.039  -0.184   0.153
    1UNL     H7   34  -0.093  -0.276   0.194
    1UNL     H8   35  -0.341  -0.124   0.186
    1UNL     H9   36  -0.346  -0.220   0.032
    1UNL    H10   37  -0.362   0.190  -0.064
    1UNL    H11   38  -0.250   0.119   0.200
    1UNL    H12   39  -0.176   0.242   0.095
    1UNL    H13   40   0.058  -0.041  -0.103
    1UNL    H14   41   0.346  -0.155  -0.034
    1UNL    H15   42   0.316  -0.317   0.133
    1UNL    H16   43   0.448  -0.226   0.193
    1UNL    H17   44   0.282  -0.098   0.300
    1UNL    H18   45   0.452   0.023   0.158
    1UNL    H19   46   0.170   0.076   0.164
    1UNL    H20   47   0.421   0.095  -0.091
    1UNL    H21   48   0.278   0.276   0.095
    1UNL    H22   49   0.167   0.184  -0.124
    1UNL    H23   50   0.287   0.114  -0.286
    1UNL    H24   51  -0.031   0.159  -0.250
    1UNL    H25   52  -0.184   0.227  -0.261
    1UNL    H26   53   0.005   0.259  -0.057
   0.00000   0.00000   0.00000   0.00000   0.00000   0.00000   0.00000   0.00000   0.00000
Generated with MDTraj, t= 89.0
 53
    1UNL     C1    1  -0.354  -0.040  -0.348
    1UNL     O1    2  -0.305  -0.117  -0.234
    1UNL     C2    3  -0.187  -0.083  -0.164
    1UNL     O2    4  -0.156  -0.183  -0.065
    1UNL     C3    5  -0.166  -0.117   0.066
    1UNL     C4    6  -0.082  -0.181   0.175
    1UNL     C5    7  -0.319  -0.121   0.098
    1UNL     C6    8  -0.399  -0.007   0.020
    1UNL     O3    9  -0.515  -0.008  -0.007
    1UNL     C7   10  -0.304   0.109  -0.021
    1UNL     C8   11  -0.214   0.138   0.103
    1UNL     C9   12  -0.114   0.036   0.042
    1UNL     O4   13   0.025   0.069   0.063
    1UNL    C10   14   0.116  -0.014  -0.021
    1UNL     O5   15   0.185  -0.106   0.066
    1UNL    C11   16   0.326  -0.105   0.068
    1UNL    C12   17   0.373  -0.214   0.163
    1UNL     O6   18   0.299  -0.192   0.281
    1UNL    C13   19   0.368   0.034   0.110
    1UNL     O7   20   0.289   0.075   0.214
    1UNL    C14   21   0.348   0.128  -0.013
    1UNL     O8   22   0.338   0.269   0.023
    1UNL    C15   23   0.219   0.093  -0.095
    1UNL     O9   24   0.258   0.022  -0.210
    1UNL    C16   25  -0.177   0.065  -0.100
    1UNL    C17   26  -0.106   0.168  -0.183
    1UNL    O10   27  -0.081   0.287  -0.118
    1UNL     H1   28  -0.456  -0.084  -0.358
    1UNL     H2   29  -0.358   0.066  -0.313
    1UNL     H3   30  -0.300  -0.050  -0.449
    1UNL     H4   31  -0.107  -0.094  -0.242
    1UNL     H5   32  -0.104  -0.132   0.267
    1UNL     H6   33   0.018  -0.169   0.150
    1UNL     H7   34  -0.089  -0.287   0.198
    1UNL     H8   35  -0.340  -0.116   0.206
    1UNL     H9   36  -0.366  -0.208   0.050
    1UNL    H10   37  -0.361   0.192  -0.054
    1UNL    H11   38  -0.273   0.104   0.184
    1UNL    H12   39  -0.175   0.242   0.109
    1UNL    H13   40   0.054  -0.070  -0.091
    1UNL    H14   41   0.360  -0.118  -0.038
    1UNL    H15   42   0.332  -0.309   0.139
    1UNL    H16   43   0.479  -0.224   0.174
    1UNL    H17   44   0.277  -0.096   0.285
    1UNL    H18   45   0.477   0.040   0.133
    1UNL    H19   46   0.202   0.072   0.178
    1UNL    H20   47   0.440   0.127  -0.078
    1UNL    H21   48   0.323   0.273   0.120
    1UNL    H22   49   0.164   0.182  -0.112
    1UNL    H23   50   0.286   0.098  -0.270
    1UNL    H24   51  -0.018   0.131  -0.238
    1UNL    H25   52  -0.176   0.206  -0.255
    1UNL    H26   53  -0.025   0.259  -0.039
   0.00000   0.00000   0.00000   0.00000   0.00000   0.00000   0.00000   0.00000   0.00000
Generated with MDTraj, t= 90.0
 53
    1UNL     C1    1  -0.336  -0.006  -0.337
    1UNL     O1    2  -0.311  -0.099  -0.235
    1UNL     C2    3  -0.179  -0.074  -0.166
    1UNL     O2    4  -0.151  -0.172  -0.062
    1UNL     C3    5  -0.166  -0.113   0.067
    1UNL     C4    6  -0.078  -0.186   0.167
    1UNL     C5    7  -0.319  -0.119   0.111
    1UNL     C6    8  -0.397  -0.014   0.030
    1UNL     O3    9  -0.514  -0.026   0.004
    1UNL     C7   10  -0.307   0.099  -0.026
    1UNL     C8   11  -0.216   0.145   0.093
    1UNL     C9   12  -0.109   0.039   0.044
    1UNL     O4   13   0.029   0.068   0.057
    1UNL    C10   14   0.114  -0.021  -0.022
    1UNL     O5   15   0.177  -0.123   0.054
    1UNL    C11   16   0.319  -0.105   0.068
    1UNL    C12   17   0.371  -0.217   0.165
    1UNL     O6   18   0.343  -0.177   0.300
    1UNL    C13   19   0.352   0.044   0.115
    1UNL     O7   20   0.258   0.076   0.217
    1UNL    C14   21   0.323   0.130  -0.012
    1UNL     O8   22   0.299   0.264   0.027
    1UNL    C15   23   0.215   0.068  -0.108
    1UNL     O9   24   0.273   0.004  -0.223
    1UNL    C16   25  -0.177   0.066  -0.103
    1UNL    C17   26  -0.111   0.178  -0.191
    1UNL    O10   27  -0.047   0.282  -0.119
    1UNL     H1   28  -0.362  -0.066  -0.423
    1UNL     H2   29  -0.412   0.062  -0.296
    1UNL     H3   30  -0.251   0.057  -0.361
    1UNL     H4   31  -0.096  -0.101  -0.239
    1UNL     H5   32  -0.085  -0.144   0.266
    1UNL     H6   33   0.023  -0.187   0.130
    1UNL     H7   34  -0.103  -0.287   0.180
    1UNL     H8   35  -0.338  -0.110   0.221
    1UNL     H9   36  -0.366  -0.208   0.073
    1UNL    H10   37  -0.372   0.172  -0.067
    1UNL    H11   38  -0.264   0.122   0.184
    1UNL    H12   39  -0.176   0.248   0.090
    1UNL    H13   40   0.054  -0.080  -0.091
    1UNL    H14   41   0.353  -0.130  -0.034
    1UNL    H15   42   0.318  -0.310   0.147
    1UNL    H16   43   0.476  -0.247   0.161
    1UNL    H17   44   0.307  -0.086   0.300
    1UNL    H18   45   0.454   0.050   0.161
    1UNL    H19   46   0.176   0.056   0.162
    1UNL    H20   47   0.418   0.127  -0.066
    1UNL    H21   48   0.321   0.275   0.123
    1UNL    H22   49   0.142   0.129  -0.156
    1UNL    H23   50   0.316   0.070  -0.280
    1UNL    H24   51  -0.034   0.133  -0.258
    1UNL    H25   52  -0.184   0.227  -0.254
    1UNL    H26   53   0.014   0.245  -0.054
   0.00000   0.00000   0.00000   0.00000   0.00000   0.00000   0.00000   0.00000   0.00000
Generated with MDTraj, t= 91.0
 53
    1UNL     C1    1  -0.349  -0.025  -0.323
    1UNL     O1    2  -0.311  -0.101  -0.215
    1UNL     C2    3  -0.176  -0.066  -0.165
    1UNL     O2    4  -0.136  -0.169  -0.075
    1UNL     C3    5  -0.162  -0.117   0.059
    1UNL     C4    6  -0.072  -0.199   0.161
    1UNL     C5    7  -0.318  -0.120   0.080
    1UNL     C6    8  -0.388  -0.002   0.023
    1UNL     O3    9  -0.508   0.009  -0.005
    1UNL     C7   10  -0.302   0.115  -0.017
    1UNL     C8   11  -0.203   0.141   0.099
    1UNL     C9   12  -0.102   0.037   0.044
    1UNL     O4   13   0.040   0.058   0.044
    1UNL    C10   14   0.120  -0.026  -0.043
    1UNL     O5   15   0.184  -0.127   0.043
    1UNL    C11   16   0.319  -0.103   0.076
    1UNL    C12   17   0.372  -0.204   0.176
    1UNL     O6   18   0.336  -0.167   0.297
    1UNL    C13   19   0.341   0.047   0.102
    1UNL     O7   20   0.260   0.088   0.217
    1UNL    C14   21   0.306   0.133  -0.020
    1UNL     O8   22   0.230   0.247   0.028
    1UNL    C15   23   0.224   0.050  -0.121
    1UNL     O9   24   0.297  -0.037  -0.210
    1UNL    C16   25  -0.175   0.069  -0.096
    1UNL    C17   26  -0.112   0.190  -0.174
    1UNL    O10   27  -0.057   0.295  -0.084
    1UNL     H1   28  -0.435  -0.080  -0.354
    1UNL     H2   29  -0.357   0.075  -0.289
    1UNL     H3   30  -0.278  -0.030  -0.399
    1UNL     H4   31  -0.099  -0.075  -0.250
    1UNL     H5   32  -0.072  -0.166   0.263
    1UNL     H6   33   0.030  -0.221   0.122
    1UNL     H7   34  -0.122  -0.290   0.171
    1UNL     H8   35  -0.346  -0.125   0.190
    1UNL     H9   36  -0.364  -0.201   0.030
    1UNL    H10   37  -0.355   0.205  -0.047
    1UNL    H11   38  -0.236   0.114   0.196
    1UNL    H12   39  -0.168   0.247   0.099
    1UNL    H13   40   0.073  -0.102  -0.107
    1UNL    H14   41   0.372  -0.129  -0.015
    1UNL    H15   42   0.340  -0.309   0.157
    1UNL    H16   43   0.485  -0.200   0.174
    1UNL    H17   44   0.305  -0.073   0.297
    1UNL    H18   45   0.440   0.070   0.145
    1UNL    H19   46   0.170   0.062   0.199
    1UNL    H20   47   0.388   0.184  -0.069
    1UNL    H21   48   0.227   0.259   0.128
    1UNL    H22   49   0.178   0.123  -0.185
    1UNL    H23   50   0.358   0.017  -0.261
    1UNL    H24   51  -0.033   0.151  -0.243
    1UNL    H25   52  -0.191   0.234  -0.234
    1UNL    H26   53   0.023   0.263  -0.035
   0.00000   0.00000   0.00000   0.00000   0.00000   0.00000   0.00000   0.00000   0.00000
Generated with MDTraj, t= 92.0
 53
    1UNL     C1    1  -0.374   0.014  -0.325
    1UNL     O1    2  -0.322  -0.084  -0.231
    1UNL     C2    3  -0.187  -0.069  -0.173
    1UNL     O2    4  -0.143  -0.173  -0.088
    1UNL     C3    5  -0.161  -0.128   0.049
    1UNL     C4    6  -0.073  -0.207   0.146
    1UNL     C5    7  -0.310  -0.135   0.072
    1UNL     C6    8  -0.382  -0.000   0.026
    1UNL     O3    9  -0.502   0.009   0.025
    1UNL     C7   10  -0.289   0.116  -0.006
    1UNL     C8   11  -0.192   0.133   0.108
    1UNL     C9   12  -0.104   0.021   0.035
    1UNL     O4   13   0.042   0.043   0.043
    1UNL    C10   14   0.123  -0.045  -0.033
    1UNL     O5   15   0.196  -0.137   0.049
    1UNL    C11   16   0.337  -0.087   0.079
    1UNL    C12   17   0.394  -0.164   0.198
    1UNL     O6   18   0.296  -0.174   0.301
    1UNL    C13   19   0.347   0.067   0.111
    1UNL     O7   20   0.261   0.103   0.214
    1UNL    C14   21   0.308   0.136  -0.024
    1UNL     O8   22   0.230   0.245   0.014
    1UNL    C15   23   0.219   0.045  -0.120
    1UNL     O9   24   0.294  -0.049  -0.195
    1UNL    C16   25  -0.176   0.065  -0.098
    1UNL    C17   26  -0.110   0.179  -0.176
    1UNL    O10   27  -0.050   0.283  -0.096
    1UNL     H1   28  -0.458   0.050  -0.273
    1UNL     H2   29  -0.298   0.081  -0.353
    1UNL     H3   30  -0.416  -0.033  -0.408
    1UNL     H4   31  -0.117  -0.062  -0.265
    1UNL     H5   32  -0.093  -0.182   0.249
    1UNL     H6   33   0.029  -0.186   0.126
    1UNL     H7   34  -0.091  -0.312   0.143
    1UNL     H8   35  -0.345  -0.156   0.178
    1UNL     H9   36  -0.350  -0.211   0.009
    1UNL    H10   37  -0.335   0.208  -0.043
    1UNL    H11   38  -0.235   0.085   0.197
    1UNL    H12   39  -0.152   0.237   0.113
    1UNL    H13   40   0.049  -0.097  -0.092
    1UNL    H14   41   0.397  -0.106  -0.008
    1UNL    H15   42   0.408  -0.271   0.167
    1UNL    H16   43   0.496  -0.120   0.226
    1UNL    H17   44   0.257  -0.084   0.306
    1UNL    H18   45   0.451   0.094   0.139
    1UNL    H19   46   0.174   0.093   0.177
    1UNL    H20   47   0.401   0.167  -0.067
    1UNL    H21   48   0.235   0.263   0.110
    1UNL    H22   49   0.162   0.103  -0.188
    1UNL    H23   50   0.363  -0.012  -0.253
    1UNL    H24   51  -0.033   0.136  -0.245
    1UNL    H25   52  -0.186   0.231  -0.238
    1UNL    H26   53   0.033   0.247  -0.050
   0.00000   0.00000   0.00000   0.00000   0.00000   0.00000   0.00000   0.00000   0.00000
Generated with MDTraj, t= 93.0
 53
    1UNL     C1    1  -0.387   0.043  -0.318
    1UNL     O1    2  -0.334  -0.069  -0.238
    1UNL     C2    3  -0.200  -0.063  -0.183
    1UNL     O2    4  -0.160  -0.176  -0.103
    1UNL     C3    5  -0.154  -0.142   0.041
    1UNL     C4    6  -0.066  -0.235   0.123
    1UNL     C5    7  -0.305  -0.143   0.091
    1UNL     C6    8  -0.377  -0.015   0.036
    1UNL     O3    9  -0.493  -0.009   0.030
    1UNL     C7   10  -0.289   0.104   0.000
    1UNL     C8   11  -0.183   0.120   0.109
    1UNL     C9   12  -0.104   0.011   0.030
    1UNL     O4   13   0.041   0.047   0.038
    1UNL    C10   14   0.123  -0.044  -0.034
    1UNL     O5   15   0.188  -0.137   0.050
    1UNL    C11   16   0.323  -0.101   0.100
    1UNL    C12   17   0.374  -0.170   0.220
    1UNL     O6   18   0.295  -0.130   0.332
    1UNL    C13   19   0.336   0.055   0.120
    1UNL     O7   20   0.249   0.113   0.207
    1UNL    C14   21   0.319   0.125  -0.028
    1UNL     O8   22   0.269   0.256  -0.008
    1UNL    C15   23   0.218   0.043  -0.126
    1UNL     O9   24   0.301  -0.027  -0.217
    1UNL    C16   25  -0.178   0.066  -0.099
    1UNL    C17   26  -0.097   0.178  -0.172
    1UNL    O10   27  -0.052   0.276  -0.093
    1UNL     H1   28  -0.334   0.132  -0.290
    1UNL     H2   29  -0.372   0.021  -0.423
    1UNL     H3   30  -0.488   0.067  -0.288
    1UNL     H4   31  -0.126  -0.052  -0.273
    1UNL     H5   32  -0.049  -0.193   0.221
    1UNL     H6   33   0.029  -0.254   0.085
    1UNL     H7   34  -0.119  -0.328   0.146
    1UNL     H8   35  -0.330  -0.146   0.200
    1UNL     H9   36  -0.364  -0.223   0.050
    1UNL    H10   37  -0.348   0.192  -0.030
    1UNL    H11   38  -0.207   0.083   0.211
    1UNL    H12   39  -0.126   0.213   0.105
    1UNL    H13   40   0.050  -0.093  -0.093
    1UNL    H14   41   0.385  -0.125   0.015
    1UNL    H15   42   0.379  -0.278   0.189
    1UNL    H16   43   0.480  -0.137   0.246
    1UNL    H17   44   0.278  -0.034   0.326
    1UNL    H18   45   0.438   0.080   0.152
    1UNL    H19   46   0.165   0.105   0.165
    1UNL    H20   47   0.417   0.132  -0.071
    1UNL    H21   48   0.305   0.293   0.075
    1UNL    H22   49   0.172   0.123  -0.182
    1UNL    H23   50   0.377   0.032  -0.248
    1UNL    H24   51  -0.003   0.141  -0.221
    1UNL    H25   52  -0.154   0.230  -0.252
    1UNL    H26   53   0.039   0.254  -0.060
   0.00000   0.00000   0.00000   0.00000   0.00000   0.00000   0.00000   0.00000   0.00000
Generated with MDTraj, t= 94.0
 53
    1UNL     C1    1  -0.397   0.008  -0.310
    1UNL     O1    2  -0.336  -0.080  -0.219
    1UNL     C2    3  -0.207  -0.048  -0.179
    1UNL     O2    4  -0.141  -0.156  -0.115
    1UNL     C3    5  -0.145  -0.129   0.026
    1UNL     C4    6  -0.072  -0.233   0.109
    1UNL     C5    7  -0.298  -0.145   0.062
    1UNL     C6    8  -0.378  -0.021   0.033
    1UNL     O3    9  -0.501  -0.014   0.025
    1UNL     C7   10  -0.294   0.102   0.009
    1UNL     C8   11  -0.192   0.118   0.122
    1UNL     C9   12  -0.097   0.025   0.036
    1UNL     O4   13   0.047   0.053   0.025
    1UNL    C10   14   0.129  -0.043  -0.049
    1UNL     O5   15   0.181  -0.134   0.051
    1UNL    C11   16   0.318  -0.101   0.101
    1UNL    C12   17   0.350  -0.172   0.225
    1UNL     O6   18   0.293  -0.114   0.341
    1UNL    C13   19   0.344   0.052   0.104
    1UNL     O7   20   0.252   0.110   0.192
    1UNL    C14   21   0.318   0.118  -0.030
    1UNL     O8   22   0.267   0.247  -0.021
    1UNL    C15   23   0.239   0.027  -0.124
    1UNL     O9   24   0.330  -0.052  -0.199
    1UNL    C16   25  -0.178   0.074  -0.088
    1UNL    C17   26  -0.120   0.205  -0.153
    1UNL    O10   27  -0.053   0.289  -0.067
    1UNL     H1   28  -0.387   0.111  -0.275
    1UNL     H2   29  -0.355  -0.002  -0.415
    1UNL     H3   30  -0.506  -0.013  -0.289
    1UNL     H4   31  -0.145  -0.036  -0.277
    1UNL     H5   32  -0.067  -0.210   0.211
    1UNL     H6   33   0.031  -0.239   0.077
    1UNL     H7   34  -0.124  -0.329   0.106
    1UNL     H8   35  -0.307  -0.148   0.171
    1UNL     H9   36  -0.348  -0.235   0.024
    1UNL    H10   37  -0.355   0.195  -0.005
    1UNL    H11   38  -0.219   0.084   0.227
    1UNL    H12   39  -0.160   0.220   0.137
    1UNL    H13   40   0.070  -0.092  -0.122
    1UNL    H14   41   0.394  -0.134   0.026
    1UNL    H15   42   0.316  -0.275   0.216
    1UNL    H16   43   0.461  -0.180   0.226
    1UNL    H17   44   0.257  -0.025   0.322
    1UNL    H18   45   0.439   0.080   0.149
    1UNL    H19   46   0.160   0.095   0.145
    1UNL    H20   47   0.416   0.122  -0.077
    1UNL    H21   48   0.314   0.290   0.056
    1UNL    H22   49   0.207   0.096  -0.203
    1UNL    H23   50   0.414  -0.006  -0.230
    1UNL    H24   51  -0.048   0.186  -0.237
    1UNL    H25   52  -0.194   0.275  -0.196
    1UNL    H26   53   0.042   0.264  -0.053
   0.00000   0.00000   0.00000   0.00000   0.00000   0.00000   0.00000   0.00000   0.00000
Generated with MDTraj, t= 95.0
 53
    1UNL     C1    1  -0.380   0.037  -0.304
    1UNL     O1    2  -0.329  -0.070  -0.234
    1UNL     C2    3  -0.189  -0.053  -0.189
    1UNL     O2    4  -0.126  -0.169  -0.118
    1UNL     C3    5  -0.143  -0.137   0.026
    1UNL     C4    6  -0.050  -0.231   0.108
    1UNL     C5    7  -0.293  -0.149   0.059
    1UNL     C6    8  -0.372  -0.014   0.040
    1UNL     O3    9  -0.492  -0.007   0.062
    1UNL     C7   10  -0.293   0.111   0.006
    1UNL     C8   11  -0.187   0.119   0.112
    1UNL     C9   12  -0.099   0.022   0.028
    1UNL     O4   13   0.037   0.058   0.023
    1UNL    C10   14   0.132  -0.040  -0.030
    1UNL     O5   15   0.189  -0.119   0.077
    1UNL    C11   16   0.325  -0.097   0.098
    1UNL    C12   17   0.369  -0.164   0.228
    1UNL     O6   18   0.269  -0.141   0.324
    1UNL    C13   19   0.345   0.055   0.097
    1UNL     O7   20   0.247   0.112   0.189
    1UNL    C14   21   0.311   0.130  -0.038
    1UNL     O8   22   0.226   0.243  -0.022
    1UNL    C15   23   0.233   0.018  -0.128
    1UNL     O9   24   0.314  -0.088  -0.181
    1UNL    C16   25  -0.179   0.078  -0.100
    1UNL    C17   26  -0.126   0.205  -0.166
    1UNL    O10   27  -0.062   0.287  -0.068
    1UNL     H1   28  -0.433   0.107  -0.232
    1UNL     H2   29  -0.285   0.091  -0.339
    1UNL     H3   30  -0.460   0.013  -0.384
    1UNL     H4   31  -0.116  -0.047  -0.280
    1UNL     H5   32  -0.029  -0.198   0.205
    1UNL     H6   33   0.047  -0.232   0.055
    1UNL     H7   34  -0.085  -0.331   0.120
    1UNL     H8   35  -0.312  -0.189   0.155
    1UNL     H9   36  -0.341  -0.216  -0.015
    1UNL    H10   37  -0.359   0.204   0.000
    1UNL    H11   38  -0.213   0.072   0.212
    1UNL    H12   39  -0.132   0.211   0.124
    1UNL    H13   40   0.069  -0.108  -0.082
    1UNL    H14   41   0.373  -0.135   0.004
    1UNL    H15   42   0.395  -0.265   0.205
    1UNL    H16   43   0.458  -0.121   0.270
    1UNL    H17   44   0.228  -0.054   0.306
    1UNL    H18   45   0.436   0.091   0.144
    1UNL    H19   46   0.165   0.090   0.152
    1UNL    H20   47   0.404   0.167  -0.083
    1UNL    H21   48   0.261   0.286   0.057
    1UNL    H22   49   0.169   0.062  -0.208
    1UNL    H23   50   0.382  -0.054  -0.242
    1UNL    H24   51  -0.055   0.188  -0.249
    1UNL    H25   52  -0.206   0.259  -0.216
    1UNL    H26   53   0.033   0.270  -0.045
   0.00000   0.00000   0.00000   0.00000   0.00000   0.00000   0.00000   0.00000   0.00000
Generated with MDTraj, t= 96.0
 53
    1UNL     C1    1  -0.367   0.053  -0.314
    1UNL     O1    2  -0.319  -0.066  -0.260
    1UNL     C2    3  -0.200  -0.065  -0.186
    1UNL     O2    4  -0.176  -0.175  -0.105
    1UNL     C3    5  -0.159  -0.141   0.035
    1UNL     C4    6  -0.061  -0.235   0.115
    1UNL     C5    7  -0.311  -0.142   0.090
    1UNL     C6    8  -0.386  -0.014   0.050
    1UNL     O3    9  -0.502   0.000   0.037
    1UNL     C7   10  -0.284   0.098   0.013
    1UNL     C8   11  -0.176   0.106   0.126
    1UNL     C9   12  -0.092   0.009   0.034
    1UNL     O4   13   0.046   0.038   0.033
    1UNL    C10   14   0.136  -0.049  -0.040
    1UNL     O5   15   0.208  -0.140   0.047
    1UNL    C11   16   0.341  -0.091   0.089
    1UNL    C12   17   0.354  -0.164   0.229
    1UNL     O6   18   0.272  -0.117   0.334
    1UNL    C13   19   0.349   0.066   0.106
    1UNL     O7   20   0.246   0.117   0.194
    1UNL    C14   21   0.322   0.133  -0.030
    1UNL     O8   22   0.248   0.245  -0.017
    1UNL    C15   23   0.227   0.043  -0.129
    1UNL     O9   24   0.310  -0.048  -0.200
    1UNL    C16   25  -0.179   0.063  -0.093
    1UNL    C17   26  -0.117   0.176  -0.167
    1UNL    O10   27  -0.054   0.282  -0.078
    1UNL     H1   28  -0.386   0.135  -0.236
    1UNL     H2   29  -0.287   0.091  -0.383
    1UNL     H3   30  -0.471   0.040  -0.360
    1UNL     H4   31  -0.115  -0.069  -0.267
    1UNL     H5   32  -0.068  -0.212   0.220
    1UNL     H6   33   0.045  -0.240   0.086
    1UNL     H7   34  -0.095  -0.335   0.112
    1UNL     H8   35  -0.321  -0.153   0.195
    1UNL     H9   36  -0.372  -0.218   0.037
    1UNL    H10   37  -0.333   0.198  -0.010
    1UNL    H11   38  -0.215   0.060   0.220
    1UNL    H12   39  -0.126   0.203   0.133
    1UNL    H13   40   0.076  -0.114  -0.100
    1UNL    H14   41   0.418  -0.122   0.011
    1UNL    H15   42   0.324  -0.266   0.223
    1UNL    H16   43   0.457  -0.173   0.255
    1UNL    H17   44   0.242  -0.027   0.312
    1UNL    H18   45   0.453   0.088   0.135
    1UNL    H19   46   0.161   0.093   0.139
    1UNL    H20   47   0.411   0.159  -0.091
    1UNL    H21   48   0.273   0.286   0.071
    1UNL    H22   49   0.160   0.109  -0.192
    1UNL    H23   50   0.359  -0.003  -0.268
    1UNL    H24   51  -0.049   0.143  -0.246
    1UNL    H25   52  -0.190   0.235  -0.220
    1UNL    H26   53   0.034   0.255  -0.047
   0.00000   0.00000   0.00000   0.00000   0.00000   0.00000   0.00000   0.00000   0.00000
Generated with MDTraj, t= 97.0
 53
    1UNL     C1    1  -0.372   0.019  -0.323
    1UNL     O1    2  -0.321  -0.070  -0.225
    1UNL     C2    3  -0.184  -0.061  -0.182
    1UNL     O2    4  -0.155  -0.174  -0.097
    1UNL     C3    5  -0.162  -0.131   0.045
    1UNL     C4    6  -0.081  -0.225   0.134
    1UNL     C5    7  -0.310  -0.139   0.084
    1UNL     C6    8  -0.377  -0.013   0.035
    1UNL     O3    9  -0.496  -0.010   0.012
    1UNL     C7   10  -0.287   0.106   0.007
    1UNL     C8   11  -0.186   0.112   0.121
    1UNL     C9   12  -0.100   0.018   0.041
    1UNL     O4   13   0.042   0.042   0.047
    1UNL    C10   14   0.122  -0.043  -0.039
    1UNL     O5   15   0.205  -0.134   0.039
    1UNL    C11   16   0.332  -0.096   0.093
    1UNL    C12   17   0.363  -0.178   0.223
    1UNL     O6   18   0.285  -0.140   0.326
    1UNL    C13   19   0.334   0.060   0.106
    1UNL     O7   20   0.239   0.115   0.200
    1UNL    C14   21   0.310   0.129  -0.029
    1UNL     O8   22   0.248   0.256  -0.019
    1UNL    C15   23   0.221   0.044  -0.128
    1UNL     O9   24   0.298  -0.031  -0.224
    1UNL    C16   25  -0.171   0.071  -0.093
    1UNL    C17   26  -0.093   0.186  -0.159
    1UNL    O10   27  -0.032   0.280  -0.074
    1UNL     H1   28  -0.395   0.120  -0.280
    1UNL     H2   29  -0.290   0.033  -0.393
    1UNL     H3   30  -0.467  -0.017  -0.366
    1UNL     H4   31  -0.123  -0.066  -0.283
    1UNL     H5   32  -0.070  -0.191   0.239
    1UNL     H6   33   0.013  -0.235   0.089
    1UNL     H7   34  -0.117  -0.325   0.133
    1UNL     H8   35  -0.336  -0.152   0.185
    1UNL     H9   36  -0.361  -0.218   0.024
    1UNL    H10   37  -0.352   0.198  -0.012
    1UNL    H11   38  -0.217   0.075   0.221
    1UNL    H12   39  -0.149   0.216   0.129
    1UNL    H13   40   0.069  -0.104  -0.112
    1UNL    H14   41   0.394  -0.146   0.015
    1UNL    H15   42   0.353  -0.284   0.202
    1UNL    H16   43   0.466  -0.167   0.257
    1UNL    H17   44   0.254  -0.048   0.307
    1UNL    H18   45   0.434   0.078   0.150
    1UNL    H19   46   0.151   0.101   0.167
    1UNL    H20   47   0.401   0.147  -0.094
    1UNL    H21   48   0.270   0.287   0.071
    1UNL    H22   49   0.165   0.124  -0.184
    1UNL    H23   50   0.336   0.030  -0.290
    1UNL    H24   51  -0.019   0.159  -0.235
    1UNL    H25   52  -0.161   0.250  -0.214
    1UNL    H26   53   0.059   0.255  -0.052
   0.00000   0.00000   0.00000   0.00000   0.00000   0.00000   0.00000   0.00000   0.00000
Generated with MDTraj, t= 98.0
 53
    1UNL     C1    1  -0.357  -0.001  -0.315
    1UNL     O1    2  -0.304  -0.095  -0.228
    1UNL     C2    3  -0.174  -0.060  -0.181
    1UNL     O2    4  -0.123  -0.162  -0.089
    1UNL     C3    5  -0.150  -0.118   0.051
    1UNL     C4    6  -0.080  -0.208   0.154
    1UNL     C5    7  -0.305  -0.140   0.065
    1UNL     C6    8  -0.384  -0.010   0.022
    1UNL     O3    9  -0.508  -0.017   0.035
    1UNL     C7   10  -0.295   0.108  -0.016
    1UNL     C8   11  -0.206   0.132   0.105
    1UNL     C9   12  -0.107   0.034   0.037
    1UNL     O4   13   0.035   0.070   0.041
    1UNL    C10   14   0.119  -0.022  -0.027
    1UNL     O5   15   0.182  -0.116   0.059
    1UNL    C11   16   0.322  -0.099   0.073
    1UNL    C12   17   0.372  -0.185   0.198
    1UNL     O6   18   0.284  -0.178   0.310
    1UNL    C13   19   0.360   0.045   0.092
    1UNL     O7   20   0.284   0.091   0.199
    1UNL    C14   21   0.319   0.128  -0.029
    1UNL     O8   22   0.245   0.248   0.015
    1UNL    C15   23   0.230   0.043  -0.115
    1UNL     O9   24   0.292  -0.057  -0.198
    1UNL    C16   25  -0.173   0.072  -0.099
    1UNL    C17   26  -0.118   0.201  -0.166
    1UNL    O10   27  -0.082   0.302  -0.087
    1UNL     H1   28  -0.381   0.092  -0.262
    1UNL     H2   29  -0.288   0.020  -0.392
    1UNL     H3   30  -0.449  -0.034  -0.352
    1UNL     H4   31  -0.121  -0.070  -0.285
    1UNL     H5   32  -0.109  -0.176   0.255
    1UNL     H6   33   0.024  -0.193   0.139
    1UNL     H7   34  -0.096  -0.312   0.137
    1UNL     H8   35  -0.334  -0.156   0.165
    1UNL     H9   36  -0.350  -0.221   0.005
    1UNL    H10   37  -0.354   0.198  -0.053
    1UNL    H11   38  -0.249   0.098   0.199
    1UNL    H12   39  -0.181   0.242   0.108
    1UNL    H13   40   0.062  -0.089  -0.092
    1UNL    H14   41   0.350  -0.139  -0.024
    1UNL    H15   42   0.380  -0.293   0.169
    1UNL    H16   43   0.478  -0.155   0.219
    1UNL    H17   44   0.246  -0.087   0.314
    1UNL    H18   45   0.469   0.061   0.117
    1UNL    H19   46   0.191   0.101   0.160
    1UNL    H20   47   0.402   0.166  -0.098
    1UNL    H21   48   0.299   0.272   0.093
    1UNL    H22   49   0.161   0.114  -0.171
    1UNL    H23   50   0.333  -0.020  -0.281
    1UNL    H24   51  -0.035   0.175  -0.231
    1UNL    H25   52  -0.191   0.245  -0.235
    1UNL    H26   53   0.008   0.291  -0.043
   0.00000   0.00000   0.00000   0.00000   0.00000   0.00000   0.00000   0.00000   0.00000
Generated with MDTraj, t= 99.0
 53
    1UNL     C1    1  -0.354  -0.013  -0.332
    1UNL     O1    2  -0.309  -0.107  -0.236
    1UNL     C2    3  -0.190  -0.072  -0.172
    1UNL     O2    4  -0.139  -0.173  -0.077
    1UNL     C3    5  -0.148  -0.117   0.055
    1UNL     C4    6  -0.069  -0.197   0.164
    1UNL     C5    7  -0.303  -0.123   0.096
    1UNL     C6    8  -0.388  -0.016   0.022
    1UNL     O3    9  -0.506  -0.017   0.007
    1UNL     C7   10  -0.307   0.111  -0.012
    1UNL     C8   11  -0.201   0.140   0.103
    1UNL     C9   12  -0.110   0.039   0.034
    1UNL     O4   13   0.033   0.077   0.043
    1UNL    C10   14   0.110  -0.009  -0.035
    1UNL     O5   15   0.174  -0.120   0.053
    1UNL    C11   16   0.310  -0.108   0.065
    1UNL    C12   17   0.368  -0.209   0.175
    1UNL     O6   18   0.332  -0.174   0.310
    1UNL    C13   19   0.346   0.038   0.107
    1UNL     O7   20   0.264   0.080   0.214
    1UNL    C14   21   0.329   0.130  -0.015
    1UNL     O8   22   0.283   0.262   0.032
    1UNL    C15   23   0.224   0.071  -0.118
    1UNL     O9   24   0.285  -0.030  -0.198
    1UNL    C16   25  -0.190   0.070  -0.102
    1UNL    C17   26  -0.133   0.196  -0.180
    1UNL    O10   27  -0.058   0.285  -0.102
    1UNL     H1   28  -0.403   0.068  -0.281
    1UNL     H2   29  -0.270   0.021  -0.384
    1UNL     H3   30  -0.427  -0.054  -0.394
    1UNL     H4   31  -0.120  -0.075  -0.264
    1UNL     H5   32  -0.051  -0.128   0.242
    1UNL     H6   33   0.024  -0.249   0.126
    1UNL     H7   34  -0.130  -0.275   0.204
    1UNL     H8   35  -0.333  -0.095   0.196
    1UNL     H9   36  -0.354  -0.217   0.073
    1UNL    H10   37  -0.370   0.197  -0.050
    1UNL    H11   38  -0.216   0.097   0.202
    1UNL    H12   39  -0.151   0.241   0.087
    1UNL    H13   40   0.058  -0.080  -0.100
    1UNL    H14   41   0.349  -0.128  -0.033
    1UNL    H15   42   0.341  -0.318   0.158
    1UNL    H16   43   0.482  -0.213   0.169
    1UNL    H17   44   0.316  -0.077   0.311
    1UNL    H18   45   0.452   0.030   0.142
    1UNL    H19   46   0.176   0.045   0.190
    1UNL    H20   47   0.424   0.140  -0.075
    1UNL    H21   48   0.301   0.254   0.130
    1UNL    H22   49   0.177   0.151  -0.185
    1UNL    H23   50   0.327   0.005  -0.283
    1UNL    H24   51  -0.075   0.167  -0.268
    1UNL    H25   52  -0.215   0.254  -0.227
    1UNL    H26   53   0.011   0.248  -0.047
   0.00000   0.00000   0.00000   0.00000   0.00000   0.00000   0.00000   0.00000   0.00000
