[ moleculetype ]
; name        nrexcl
res           1

[ atoms ]
;    nr  type  resnr resid  atom  cgnr     charge       mass
      1 N4a       1 res   C1        1      0.000     72.000
      2 TN1       1 res   C2        2      0.000     36.000
      3 TC5       1 res   C3        3      0.000     36.000
      4 TC5       1 res   C4        4      0.000     36.000
      5 TC5       1 res   C5        5      0.000     36.000
      6 SN6       1 res   C6        6      0.000     54.000
      7 TN2a      1 res   C7        7      0.000     36.000
      8 TC3       1 res   C8        8      0.000     36.000
      9 SC3       1 res   C9        9      0.000     54.000
     10 TN1       1 res   C10      10      0.000     36.000
     11 SC3       1 res   C11      11      0.000     54.000
     12 TC3       1 res   C12      12      0.000     36.000
     13 SN6       1 res   C13      13      0.000     54.000
     14 N4a       1 res   C14      14      0.000     72.000

[ constraints ]
;  ai    aj   funct      b0(nm)
    1     2     1      0.29387
   10    11     1      0.24630
    3     5     1      0.20855
    2     3     1      0.17947
   11    12     1      0.38794
    4     5     1      0.25186
    3     8     1      0.19328
    5     7     1      0.25861
    9    11     1      0.39808
   13    14     1      0.34913
    3     4     1      0.24831
    2     8     1      0.18159
    8    13     1      0.26769
    9    10     1      0.26479
    8    12     1      0.24576
   11    13     1      0.40718
    8     9     1      0.22721

[ bonds ]
;  ai    aj   funct      b0(nm)          k(kJ/mol/nm^2)
    5     6     1      0.21276          18496.0

[ angles ]
;  ai    aj    ak  funct     th0(deg)        k(kJ/mol/rad^2)
    1     2     3     1    154.97914           247.66
    1     2     8     1    129.53383           313.28
    2     3     4     1    172.36120           794.77
    2     3     5     1    108.73391          1615.41
    2     3     8     1     58.16291          4641.78
    2     8     3     1     57.10823          5820.96
    2     8     9     1    132.96881           804.67
    2     8    12     1    107.09906          1772.71
    2     8    13     1     91.99094          1343.15
    3     2     8     1     64.72886          4862.21
    3     4     5     1     49.27294          9161.63
    3     5     4     1     64.47720          4583.41
    3     5     6     1    153.77966           108.47
    3     5     7     1    114.62619           105.04
    3     8     9     1     97.35269           709.22
    3     8    12     1    161.74535          1172.11
    3     8    13     1    115.38500           893.06
    4     3     5     1     66.24985          4138.79
    4     3     8     1    125.78656          1245.14
    4     5     6     1     90.28876            95.90
    4     5     7     1    157.26682           208.21
    5     3     8     1    163.46303           666.64
    6     5     7     1     89.04559           164.24
    8     9    10     1    117.34955          1772.05
    8     9    11     1     80.92398          3150.52
    8    12    11     1     81.15159          2512.02
    8    13    11     1     75.13634          3830.40
    8    13    14     1     81.39744           776.78
    9     8    12     1     87.98107           835.56
    9     8    13     1    134.58151          1391.54
    9    10    11     1    102.34681           660.34
    9    11    10     1     40.51928          1357.90
    9    11    12     1     49.41210          2645.74
    9    11    13     1     69.09712          5228.34
   10     9    11     1     37.13441          4336.14
   10    11    12     1     81.70273           386.97
   10    11    13     1    109.10623          1150.78
   11    13    14     1    119.11562           294.24
   12     8    13     1     70.68306          2433.14
   12    11    13     1     43.85450          6095.47

[ dihedrals ]
;  ai    aj    ak    al  funct   phi0(deg)        k(kJ/mol)   mult
    1     2     3     4     1   -105.74344       27.939      1
    1     2     3     5     1   -130.19010       23.381      1
    1     2     3     8     1     39.18284       22.260      1
    1     2     8     3     1    -20.82594       17.083      1
    1     2     8     9     1    -89.27266       18.374      1
    1     2     8    12     1    168.79789       19.795      1
    1     2     8    13     1     97.37597       18.433      1
    2     3     4     5     1    164.50787       30.969      1
    2     3     5     4     1     -2.05878       12.171      1
    2     3     5     6     1     -9.52741       20.668      1
    2     3     5     7     1    163.32912       17.192      1
    2     3     8     9     1    -43.27803        8.515      1
    2     3     8    12     1   -150.51656       16.252      1
    2     3     8    13     1    105.00206        8.467      1
    2     8     3     4     1     -3.06719       14.286      1
    2     8     3     5     1   -148.80684       23.793      1
    2     8     9    10     1      4.10182       15.013      1
    2     8     9    11     1      6.41419        6.293      1
    2     8    12    11     1     20.01866        7.738      1
    2     8    13    11     1     -3.45235        6.960      1
    2     8    13    14     1    119.99565       10.759      1
    3     2     8     9     1    113.01451       10.076      1
    3     2     8    12     1      9.03561        8.452      1
    3     2     8    13     1    -60.03663        7.799      1
    3     4     5     6     1     -0.04850       12.195      1
    3     4     5     7     1     72.17010       22.740      1
    3     8     9    10     1    -47.99177       16.437      1
    3     8     9    11     1    -45.02792        7.076      1
    3     8    12    11     1     -7.78426       14.968      1
    3     8    13    11     1     49.82225        6.260      1
    3     8    13    14     1    174.92311       11.461      1
    4     3     2     8     1     28.33247       26.842      1
    4     3     5     6     1    173.02650       23.515      1
    4     3     5     7     1    -12.48243       18.368      1
    4     3     8     9     1    132.91139       12.913      1
    4     3     8    12     1     23.70793       17.748      1
    4     3     8    13     1    -79.09270       12.913      1
    4     5     3     8     1    -30.13675       25.416      1
    5     3     2     8     1     10.00376       10.765      1
    5     3     8     9     1     -7.66947       23.657      1
    5     3     8    12     1   -117.09354       24.652      1
    5     3     8    13     1    139.87788       22.429      1
    5     4     3     8     1     12.05456       12.234      1
    6     5     3     8     1    -38.48865       26.324      1
    7     5     3     8     1    130.20571       27.292      1
    8     9    10    11     1   -174.70047       18.392      1
    8     9    11    10     1      3.21257       17.095      1
    8     9    11    12     1   -132.03138        4.791      1
    8     9    11    13     1   -178.75287        5.527      1
    8    12    11     9     1    137.00454        4.002      1
    8    12    11    10     1    110.01661        7.818      1
    8    12    11    13     1   -120.04537        4.717      1
    8    13    11     9     1    178.07469        4.774      1
    8    13    11    10     1   -178.07871       10.793      1
    8    13    11    12     1    126.03170        3.238      1
    9     8    12    11     1   -114.94854        4.020      1
    9     8    13    11     1   -176.91970       10.018      1
    9     8    13    14     1    -53.07276       12.920      1
    9    10    11    12     1   -148.82259       12.914      1
    9    10    11    13     1    176.07972       15.017      1
    9    11    13    14     1    106.10368        7.823      1
   10     9     8    12     1    113.60921       15.027      1
   10     9     8    13     1    175.52537       17.727      1
   10     9    11    12     1     43.12277       15.736      1
   10     9    11    13     1     -3.82339       16.413      1
   10    11    13    14     1    110.55880       12.182      1
   11     9     8    12     1    117.04935        5.517      1
   11     9     8    13     1    176.91936       10.017      1
   11    12     8    13     1    106.01321        3.263      1
   11    13     8    12     1   -110.99512        5.484      1
   12     8    13    14     1     12.04728       10.738      1
   12    11    13    14     1     54.08707        7.796      1
