[ moleculetype ]
; name        nrexcl
res           1

[ atoms ]
;    nr  type  resnr resid  atom  cgnr     charge       mass
      1 TC3       1 res   C1        1      0.000     36.000
      2 TC5       1 res   C2        2      0.000     36.000
      3 TC3       1 res   C3        3      0.000     36.000
      4 N4a       1 res   C4        4      0.000     72.000
      5 TC5       1 res   C5        5      0.000     36.000
      6 TN6d      1 res   C6        6      0.000     36.000
      7 TC5       1 res   C7        7      0.000     36.000
      8 TC5       1 res   C8        8      0.000     36.000
      9 TC5       1 res   C9        9      0.000     36.000
     10 TC3       1 res   C10      10      0.000     36.000
     11 TN6d      1 res   C11      11      0.000     36.000
     12 TX3       1 res   C12      12      0.000     36.000
     13 TN6       1 res   C13      13      0.000     36.000

[ constraints ]
;  ai    aj   funct      b0(nm)
    1     2     1      0.24555
    2    13     1      0.27498
    3     5     1      0.26045
    2     3     1      0.27508
   10    11     1      0.31992
   11    12     1      0.22447
    5    10     1      0.26141
    7     9     1      0.24825
    5     7     1      0.19142
    2     5     1      0.22650
    3     4     1      0.39075
    7     8     1      0.24855
    5     6     1      0.22057
   12    13     1      0.21843
    6     7     1      0.22040
    2    11     1      0.26799
    8     9     1      0.29019

[ bonds ]
;  ai    aj   funct      b0(nm)          k(kJ/mol/nm^2)

[ angles ]
;  ai    aj    ak  funct     th0(deg)        k(kJ/mol/rad^2)
    1     2     3     1     90.60679          1918.11
    1     2     5     1    102.39306           551.04
    1     2    11     1    137.58809           448.46
    1     2    13     1     72.33352           873.23
    2     3     4     1    122.94601           831.55
    2     3     5     1     49.95642          4693.58
    2     5     3     1     68.37824          5372.77
    2     5     6     1    137.13275           268.38
    2     5     7     1    104.45511           981.80
    2     5    10     1     81.46540          2998.34
    2    11    10     1     65.10954          3758.43
    2    11    12     1     89.86304          1680.58
    2    13    12     1     89.34826           960.66
    3     2     5     1     61.66534          4683.18
    3     2    11     1    100.20941           708.88
    3     2    13     1     83.52617           931.17
    3     5     6     1    106.08103           877.68
    3     5     7     1    158.03411           483.94
    3     5    10     1     91.16065           504.34
    4     3     5     1     84.01347          1579.96
    5     2    11     1    118.70418          1121.53
    5     2    13     1    144.82785           835.67
    5     6     7     1     51.45901          5568.99
    5     7     6     1     64.31437          5581.31
    5     7     8     1    159.38047          1410.61
    5     7     9     1    128.11950          1416.96
    5    10    11     1     93.65407          2752.19
    6     5     7     1     64.22660          4718.31
    6     5    10     1    140.91151           262.53
    6     7     8     1     95.66350          1444.77
    6     7     9     1    165.45573           923.36
    7     5    10     1    108.44305           538.52
    7     8     9     1     54.21118          7571.59
    7     9     8     1     54.30423          9503.64
    8     7     9     1     71.48456          4976.19
   10    11    12     1    113.91420           194.24
   11     2    13     1     68.72337          1693.91
   11    12    13     1     87.62062           721.96

[ dihedrals ]
;  ai    aj    ak    al  funct   phi0(deg)        k(kJ/mol)   mult
    1     2     3     4     1   -120.91902       11.481      1
    1     2     3     5     1    -75.38300        8.543      1
    1     2     5     3     1     96.03434        6.315      1
    1     2     5     6     1   -172.15835       10.718      1
    1     2     5     7     1   -106.12911        9.275      1
    1     2     5    10     1     -1.84344        9.943      1
    1     2    11    10     1     -6.86608       11.450      1
    1     2    11    12     1   -123.51589       14.300      1
    1     2    13    12     1    -17.13862       10.059      1
    2     3     5     6     1     45.24975       11.433      1
    2     3     5     7     1    105.81125       12.226      1
    2     3     5    10     1   -102.83330        6.932      1
    2     5     3     4     1    -36.97605        8.589      1
    2     5     6     7     1    -95.85616        7.823      1
    2     5     7     6     1     46.00409       10.745      1
    2     5     7     8     1     48.31437       20.380      1
    2     5     7     9     1   -140.04541       15.124      1
    2     5    10    11     1   -170.82837        8.433      1
    2    11    10     5     1    171.59464        7.700      1
    2    11    12    13     1    140.96684        8.492      1
    2    13    12    11     1   -142.02070        7.784      1
    3     2     5     6     1    -88.98587        9.937      1
    3     2     5     7     1    -21.35739        8.505      1
    3     2     5    10     1     82.40855        9.920      1
    3     2    11    10     1   -105.26040        9.136      1
    3     2    11    12     1    133.88619       12.098      1
    3     2    13    12     1   -110.13564        9.307      1
    3     5     2    11     1    -93.02451        7.094      1
    3     5     2    13     1    172.99909       11.405      1
    3     5     6     7     1    -22.29120        7.786      1
    3     5     7     6     1    113.47157       12.911      1
    3     5     7     8     1    113.46303       22.125      1
    3     5     7     9     1    -74.86841       17.155      1
    3     5    10    11     1    121.58572        9.145      1
    4     3     2     5     1    134.97916       10.006      1
    4     3     2    11     1     17.96451        9.302      1
    4     3     2    13     1    -49.92640        9.328      1
    4     3     5     6     1   -170.87989       10.035      1
    4     3     5     7     1   -111.62678       13.566      1
    4     3     5    10     1     42.75470        8.555      1
    5     2    11    10     1   -170.22542        9.885      1
    5     2    11    12     1     69.67435       10.691      1
    5     2    13    12     1   -103.18283       11.520      1
    5     3     2    11     1     62.95258        5.508      1
    5     3     2    13     1     -3.08138        7.038      1
    5     6     7     8     1      1.92732        9.330      1
    5     6     7     9     1     11.82475       27.967      1
    5     7     8     9     1     -4.14007       21.723      1
    5     7     9     8     1      2.04151       12.236      1
    5    10    11    12     1   -110.46760       12.651      1
    6     5     2    11     1     -2.96105       11.402      1
    6     5     2    13     1    -94.54040       12.779      1
    6     5     7     8     1   -175.77638       19.646      1
    6     5     7     9     1     -7.83929       13.658      1
    6     5    10    11     1     -1.20515        9.981      1
    6     7     5    10     1    -40.73347       10.010      1
    6     7     8     9     1     -5.90647       12.164      1
    6     7     9     8     1    164.47264       29.560      1
    7     5     2    11     1     63.91443       10.724      1
    7     5     2    13     1    -29.37488       12.050      1
    7     5    10    11     1    -68.00647        9.200      1
    7     6     5    10     1     94.88741       12.816      1
    8     7     5    10     1    -33.37257       21.038      1
    9     7     5    10     1    133.98806       16.453      1
   10     5     2    11     1    169.44319       10.614      1
   10     5     2    13     1     74.64740       11.965      1
   10    11     2    13     1    -26.45285       10.552      1
   10    11    12    13     1     79.69150       11.326      1
   11     2    13    12     1    146.01590        7.756      1
   12    11     2    13     1   -148.89122        7.061      1
