1TPCN03098
15
    1res  C1    1    0.088   0.074   0.244
    1res  C2    2    0.047   0.004  -0.039
    1res  C3    3    0.298   0.009   0.028
    1res  C4    4    0.503  -0.067   0.105
    1res  C5    5    0.664   0.005   0.234
    1res  C6    6    0.704  -0.093  -0.039
    1res  C7    7    0.554  -0.003  -0.212
    1res  C8    8    0.351  -0.156  -0.147
    1res  C9    9   -0.052   0.245  -0.011
    1res  C10   10   -0.290   0.062  -0.208
    1res  C11   11   -0.455   0.163   0.059
    1res  C12   12   -0.607  -0.060  -0.041
    1res  C13   13   -0.490  -0.286   0.107
    1res  C14   14   -0.235  -0.234  -0.120
    1res  C15   15   -0.132  -0.216   0.078
  10.00000  10.00000  10.00000
