[ moleculetype ]
; name        nrexcl
res           1

[ atoms ]
;    nr  type  resnr resid  atom  cgnr     charge       mass
      1 TP1       1 res   C1        1      0.000     36.000
      2 TN4a      1 res   C2        2      0.000     36.000
      3 SP4       1 res   C3        3      0.000     54.000
      4 TN4a      1 res   C4        4      0.000     36.000
      5 TC5       1 res   C5        5      0.000     36.000
      6 TC5       1 res   C6        6      0.000     36.000
      7 TC3       1 res   C7        7      0.000     36.000
      8 TN4a      1 res   C8        8      0.000     36.000
      9 TP1       1 res   C9        9      0.000     36.000
     10 SP4       1 res   C10      10      0.000     54.000

[ constraints ]
;  ai    aj   funct      b0(nm)
    1     2     1      0.22998
    4     5     1      0.28898
    6     8     1      0.25554
    3    10     1      0.29158
    5     6     1      0.28555
    7     8     1      0.21542
    6     7     1      0.25667
    8     9     1      0.21190
    2    10     1      0.25911
    4     6     1      0.26123

[ bonds ]
;  ai    aj   funct      b0(nm)          k(kJ/mol/nm^2)
    2     3     1      0.25804           6093.0
    3     4     1      0.32559           1443.7

[ angles ]
;  ai    aj    ak  funct     th0(deg)        k(kJ/mol/rad^2)
    1     2     3     1    159.77755            80.82
    1     2    10     1     96.85142           329.72
    2     3     4     1     75.88210           186.43
    2     3    10     1     55.83032           758.28
    2    10     3     1     55.54711           329.00
    3     2    10     1     68.61825           577.98
    3     4     5     1    114.39309            43.19
    3     4     6     1    101.95395            36.30
    4     3    10     1     77.02551            37.12
    4     5     6     1     54.07223          3556.62
    4     6     5     1     63.60606          1770.39
    4     6     7     1    104.24575           134.85
    4     6     8     1     65.47453           530.51
    5     4     6     1     62.32179          1696.39
    5     6     7     1     89.10322           552.04
    5     6     8     1     96.58388            97.62
    6     7     8     1     64.85476          2656.75
    6     8     7     1     65.41814          1956.75
    6     8     9     1    106.61680           370.43
    7     6     8     1     49.72713          5740.57
    7     8     9     1    123.75110           195.65

[ dihedrals ]
;  ai    aj    ak    al  funct   phi0(deg)        k(kJ/mol)   mult
    1     2     3     4     1    108.00436       27.876      1
    1     2     3    10     1   -161.57359       29.176      1
    1     2    10     3     1     14.62972       19.454      1
    2     3     4     5     1    -24.62314       30.287      1
    2     3     4     6     1     46.65441       27.640      1
    2    10     3     4     1    -96.70076       16.257      1
    3     4     5     6     1    -85.67540       25.261      1
    3     4     6     5     1     72.00477       22.382      1
    3     4     6     7     1    -14.24108       24.300      1
    3     4     6     8     1    -47.91670       26.382      1
    4     3     2    10     1     94.06346       23.026      1
    4     5     6     7     1    -74.07078       15.088      1
    4     5     6     8     1   -124.11023       13.678      1
    4     6     7     8     1    141.37068       17.067      1
    4     6     8     7     1    -40.09837       19.140      1
    4     6     8     9     1     79.71995       17.662      1
    5     4     3    10     1    -73.86146       28.522      1
    5     4     6     7     1     96.96008       12.864      1
    5     4     6     8     1     66.78305       20.932      1
    5     6     7     8     1     80.16068       17.739      1
    5     6     8     7     1    -96.04306       12.241      1
    5     6     8     9     1     23.36924       14.255      1
    6     4     3    10     1     -8.11850       28.791      1
    6     7     8     9     1     86.00037       10.727      1
    7     6     8     9     1    -59.03258       12.925      1
