[ moleculetype ]
; name        nrexcl
res           1

[ atoms ]
;    nr  type  resnr resid  atom  cgnr     charge       mass
      1 P1        1 res   C1        1      0.000     72.000
      2 TC5       1 res   C2        2      0.000     36.000
      3 TC5       1 res   C3        3      0.000     36.000
      4 TN2a      1 res   C4        4      0.000     36.000
      5 SN4a      1 res   C5        5      0.000     54.000
      6 TP1       1 res   C6        6      0.000     36.000
      7 SP4       1 res   C7        7      0.000     54.000
      8 TN6       1 res   C8        8      0.000     36.000
      9 TC5       1 res   C9        9      0.000     36.000

[ constraints ]
;  ai    aj   funct      b0(nm)
    1     2     1      0.25360
    2     3     1      0.22144
    2     9     1      0.29741
    3     4     1      0.23916
    3     9     1      0.29706

[ bonds ]
;  ai    aj   funct      b0(nm)          k(kJ/mol/nm^2)
    4     5     1      0.30447           5358.6
    5     7     1      0.26056           5375.4
    7     8     1      0.28866          16138.7
    5     6     1      0.31211          17786.1
    5     8     1      0.27433           8871.8

[ angles ]
;  ai    aj    ak  funct     th0(deg)        k(kJ/mol/rad^2)
    1     2     3     1    158.04976           810.05
    1     2     9     1     91.17333          1229.74
    2     3     4     1    151.73132          1364.45
    2     3     9     1     68.21345          8342.31
    2     9     3     1     43.74112          8740.63
    3     2     9     1     68.04541          9649.32
    3     4     5     1     90.60308            13.72
    4     3     9     1     84.28634          1705.52
    4     5     6     1    117.34112            40.54
    4     5     7     1    101.76142            19.41
    4     5     8     1     72.10145            39.65
    5     7     8     1     59.89465           218.01
    5     8     7     1     55.09751           255.62
    6     5     7     1     74.48136           567.60
    6     5     8     1    129.24544            21.23
    7     5     8     1     65.00626           651.38

[ dihedrals ]
;  ai    aj    ak    al  funct   phi0(deg)        k(kJ/mol)   mult
    1     2     3     4     1   -177.71665       28.261      1
    1     2     3     9     1   -178.42570       24.586      1
    1     2     9     3     1      1.06367       12.946      1
    2     3     4     5     1     -4.87258       11.784      1
    2     9     3     4     1      0.05583       12.235      1
    3     4     5     6     1    -85.92440       29.915      1
    3     4     5     7     1     -2.34437       24.768      1
    3     4     5     8     1     33.57148       28.931      1
    4     3     2     9     1   -179.38644       21.038      1
    4     5     7     8     1   -135.62820       26.562      1
    4     5     8     7     1     49.32474       24.434      1
    5     4     3     9     1     -4.52831       15.190      1
    6     5     7     8     1    -27.19637       22.854      1
    6     5     8     7     1    164.17179       27.603      1
