[ moleculetype ]
; name        nrexcl
res           1

[ atoms ]
;    nr  type  resnr resid  atom  cgnr     charge       mass
      1 TC4       1 res   C1        1      0.000     36.000
      2 SN4a      1 res   C2        2      0.000     54.000
      3 SC3       1 res   C3        3      0.000     54.000
      4 TN6       1 res   C4        4      0.000     36.000
      5 TN6       1 res   C5        5      0.000     36.000
      6 TN6       1 res   C6        6      0.000     36.000
      7 TN6       1 res   C7        7      0.000     36.000

[ constraints ]
;  ai    aj   funct      b0(nm)
    1     2     1      0.28954
    2     3     1      0.21257
    3     7     1      0.26393
    3     6     1      0.19615

[ bonds ]
;  ai    aj   funct      b0(nm)          k(kJ/mol/nm^2)
    3     5     1      0.25615          12501.7
    2     4     1      0.26858          18070.7

[ angles ]
;  ai    aj    ak  funct     th0(deg)        k(kJ/mol/rad^2)
    1     2     3     1     89.06525           164.43
    1     2     4     1    127.24604           104.83
    2     3     5     1     89.82280            80.53
    2     3     6     1    149.80590            69.01
    2     3     7     1     99.79059           640.25
    3     2     4     1     93.15969           166.87
    5     3     6     1     76.64316           174.64
    5     3     7     1    137.68181            73.63
    6     3     7     1     77.70344            85.34

[ dihedrals ]
;  ai    aj    ak    al  funct   phi0(deg)        k(kJ/mol)   mult
    1     2     3     5     1      0.07722       25.289      1
    1     2     3     6     1    -57.06317       25.087      1
    1     2     3     7     1   -151.24788       23.463      1
    4     2     3     5     1    125.89918       25.025      1
    4     2     3     6     1     68.45135       26.305      1
    4     2     3     7     1    -22.52503       21.416      1
