1TPCN04393
14
    1res  C1    1   -0.219   0.484   0.085
    1res  C2    2   -0.121   0.208  -0.095
    1res  C3    3   -0.168  -0.034  -0.303
    1res  C4    4    0.084   0.130  -0.366
    1res  C5    5    0.213  -0.059  -0.163
    1res  C6    6    0.230   0.176   0.032
    1res  C7    7    0.400  -0.021   0.024
    1res  C8    8    0.340  -0.014   0.331
    1res  C9    9    0.526  -0.176   0.269
    1res  C10   10    0.383  -0.313   0.116
    1res  C11   11    0.019  -0.240  -0.165
    1res  C12   12   -0.301  -0.010  -0.075
    1res  C13   13   -0.316  -0.235   0.211
    1res  C14   14   -0.369   0.047   0.173
  10.00000  10.00000  10.00000
