1TPCN06118
18
    1res  C1    1    0.267  -0.500   0.284
    1res  C2    2    0.386  -0.359   0.058
    1res  C3    3    0.116  -0.319   0.135
    1res  C4    4    0.272  -0.067   0.042
    1res  C5    5    0.542   0.135   0.023
    1res  C6    6    0.603   0.272   0.207
    1res  C7    7    0.617   0.349  -0.123
    1res  C8    8    0.378   0.367  -0.114
    1res  C9    9    0.280   0.180  -0.132
    1res  C10   10    0.124  -0.212  -0.224
    1res  C11   11   -0.128  -0.286  -0.118
    1res  C12   12   -0.202  -0.154   0.190
    1res  C13   13   -0.264  -0.061  -0.172
    1res  C14   14   -0.425   0.092   0.095
    1res  C15   15   -0.635   0.087  -0.097
    1res  C16   16   -0.610   0.340  -0.092
    1res  C17   17   -0.410   0.408   0.031
    1res  C18   18   -0.107   0.180   0.007
  10.00000  10.00000  10.00000
