[ moleculetype ]
; name        nrexcl
res           1

[ atoms ]
;    nr  type  resnr resid  atom  cgnr     charge       mass
      1 SN1       1 res   C1        1      0.000     54.000
      2 SN5       1 res   C2        2      0.000     54.000
      3 P3        1 res   C3        3      0.000     72.000
      4 C1        1 res   C4        4      0.000     72.000
      5 SN4a      1 res   C5        5      0.000     54.000
      6 C1        1 res   C6        6      0.000     72.000

[ constraints ]
;  ai    aj   funct      b0(nm)
    1     2     1      0.27389

[ bonds ]
;  ai    aj   funct      b0(nm)          k(kJ/mol/nm^2)
    2     3     1      0.36877          19623.1
    2     5     1      0.35923          18772.9
    3     4     1      0.38713           1500.3
    5     6     1      0.36882          16598.3

[ angles ]
;  ai    aj    ak  funct     th0(deg)        k(kJ/mol/rad^2)
    1     2     3     1    157.56968            67.49
    1     2     5     1    105.25266           109.87
    2     3     4     1    123.64963            26.23
    2     5     6     1    106.07249            29.73
    3     2     5     1     78.06524           133.03

[ dihedrals ]
;  ai    aj    ak    al  funct   phi0(deg)        k(kJ/mol)   mult
    1     2     3     4     1   -158.21849       29.216      1
    1     2     5     6     1    -57.21779       11.636      1
    3     2     5     6     1    109.46934       12.304      1
    4     3     2     5     1    107.26538       27.331      1
