1TPCN00253
11
    1res  C1    1    0.514   0.044   0.060
    1res  C2    2    0.272   0.122  -0.151
    1res  C3    3    0.060   0.170  -0.070
    1res  C4    4    0.170   0.007   0.086
    1res  C5    5    0.077  -0.238   0.121
    1res  C6    6   -0.017  -0.105  -0.181
    1res  C7    7   -0.132   0.061  -0.042
    1res  C8    8   -0.196   0.231   0.081
    1res  C9    9   -0.302   0.055   0.006
    1res  C10   10   -0.519   0.118   0.110
    1res  C11   11   -0.502  -0.151  -0.057
  10.00000  10.00000  10.00000
