1TPCN00500
19
    1res  C1    1    0.091   0.002   0.358
    1res  C2    2   -0.016  -0.041   0.098
    1res  C3    3    0.181  -0.133   0.053
    1res  C4    4    0.338  -0.013   0.036
    1res  C5    5    0.535   0.150  -0.034
    1res  C6    6    0.567   0.081  -0.263
    1res  C7    7    0.721  -0.032  -0.001
    1res  C8    8    0.651   0.011   0.231
    1res  C9    9    0.431   0.019   0.260
    1res  C10   10   -0.012  -0.167  -0.127
    1res  C11   11   -0.214  -0.236  -0.117
    1res  C12   12   -0.341  -0.104  -0.118
    1res  C13   13   -0.445   0.028  -0.071
    1res  C14   14   -0.509  -0.108  -0.164
    1res  C15   15   -0.747  -0.140  -0.238
    1res  C16   16   -0.525  -0.324  -0.292
    1res  C17   17   -0.544   0.198   0.054
    1res  C18   18   -0.278   0.372   0.129
    1res  C19   19   -0.231   0.068   0.083
  10.00000  10.00000  10.00000
