[ moleculetype ]
; name        nrexcl
res           1

[ atoms ]
;    nr  type resnr resid  atom  cgnr     charge       mass
      1 SC4       1 res   C1        1      0.000     54.000
      2 TC3       1 res   C2        2      0.000     36.000
      3 SC5       1 res   C3        3      0.000     54.000
      4 SN4a      1 res   C4        4      0.000     54.000
      5 SN4a      1 res   C5        5      0.000     54.000
      6 TN3r      1 res   C6        6      0.000     36.000
      7 SN4a      1 res   C7        7      0.000     54.000
      8 TN6       1 res   C8        8      0.000     36.000
      9 TN6       1 res   C9        9      0.000     36.000
     10 TN6       1 res   C10      10      0.000     36.000
     11 TN6       1 res   C11      11      0.000     36.000
     12 TN6       1 res   C12      12      0.000     36.000
     13 TN6       1 res   C13      13      0.000     36.000
     14 SN4a      1 res   C14      14      0.000     54.000
     15 TP1       1 res   C15      15      0.000     36.000
     16 TN6       1 res   C16      16      0.000     36.000
     17 TN6       1 res   C17      17      0.000     36.000
     18 TN6       1 res   C18      18      0.000     36.000
     19 TC3       1 res   C19      19      0.000     36.000
     20 SC4       1 res   C20      20      0.000     54.000
     21 TC3       1 res   C21      21      0.000     36.000
     22 SC4       1 res   C22      22      0.000     54.000
     23 SC4       1 res   C23      23      0.000     54.000
     24 TC3       1 res   C24      24      0.000     36.000
     25 TN6       1 res   C25      25      0.000     36.000
     26 SN4a      1 res   C26      26      0.000     54.000
     27 TP1       1 res   C27      27      0.000     36.000
     28 TN6       1 res   C28      28      0.000     36.000
     29 TN6       1 res   C29      29      0.000     36.000
     30 TN6       1 res   C30      30      0.000     36.000
     31 TC4       1 res   C31      31      0.000     36.000
     32 TP1       1 res   C32      32      0.000     36.000
     33 TC3       1 res   C33      33      0.000     36.000

[ bonds ]
;  ai    aj   funct      b0(nm)        k
    1     2     1      0.29238    20000
    1     3     1      0.30284    20000
    2     3     1      0.29887    20000
    3     4     1      0.28518    20000
    3    19     1      0.37658    20000
    3    20     1      0.35798    20000
    4     5     1      0.32672    20000
    5     6     1      0.28999    20000
    5    11     1      0.29078    20000
    5    13     1      0.26372    20000
    6     7     1      0.34766    20000
    7     8     1      0.28743    20000
    7    10     1      0.29135    20000
    8     9     1      0.21706    20000
    9    10     1      0.23897    20000
   11    12     1      0.27952    20000
   12    13     1      0.22818    20000
   13    14     1      0.28881    20000
   14    15     1      0.24425    20000
   14    16     1      0.26841    20000
   14    18     1      0.30587    20000
   16    17     1      0.24102    20000
   17    18     1      0.21302    20000
   19    20     1      0.26859    20000
   20    21     1      0.36243    20000
   20    22     1      0.31480    20000
   21    22     1      0.27585    20000
   22    23     1      0.37331    20000
   22    33     1      0.25511    20000
   23    24     1      0.28678    20000
   23    31     1      0.40406    20000
   23    33     1      0.36366    20000
   24    25     1      0.25258    20000
   25    26     1      0.26167    20000
   25    31     1      0.24882    20000
   26    27     1      0.29845    20000
   26    28     1      0.27384    20000
   26    30     1      0.25817    20000
   28    29     1      0.24013    20000
   29    30     1      0.24551    20000
   31    32     1      0.27842    20000
