[ moleculetype ]
; name        nrexcl
res           1

[ atoms ]
;    nr  type  resnr resid  atom  cgnr     charge       mass
      1 SP2       1 res   C1        1      0.000     54.000
      2 TC3       1 res   C2        2      0.000     36.000
      3 TC5       1 res   C3        3      0.000     36.000
      4 TC3       1 res   C4        4      0.000     36.000
      5 TN6d      1 res   C5        5      0.000     36.000
      6 SN6       1 res   C6        6      0.000     54.000
      7 TC5       1 res   C7        7      0.000     36.000
      8 TC5       1 res   C8        8      0.000     36.000
      9 TC5       1 res   C9        9      0.000     36.000
     10 TC5       1 res   C10      10      0.000     36.000
     11 TN6d      1 res   C11      11      0.000     36.000
     12 TC3       1 res   C12      12      0.000     36.000

[ constraints ]
;  ai    aj   funct      b0(nm)
    1     2     1      0.26990
    3     5     1      0.27027
    2     3     1      0.23502
    4     5     1      0.25490
    7    12     1      0.24658
    8    11     1      0.21834
    3     4     1      0.25810
    7     8     1      0.19191
    5     6     1      0.31890
    8    10     1      0.24900
    3     7     1      0.21791
    6     7     1      0.27039
    7    11     1      0.22063
    9    10     1      0.28997
    2     7     1      0.26027
    3    12     1      0.30411
    8     9     1      0.24876

[ bonds ]
;  ai    aj   funct      b0(nm)          k(kJ/mol/nm^2)

[ angles ]
;  ai    aj    ak  funct     th0(deg)        k(kJ/mol/rad^2)
    1     2     3     1    144.72358           426.92
    1     2     7     1     95.02605           599.97
    2     3     4     1    102.85275          1895.95
    2     3     5     1    157.03696           981.73
    2     3     7     1     70.04567          2852.73
    2     3    12     1     70.28837          3120.02
    2     7     3     1     58.06240          3093.32
    2     7     6     1    138.11034          1881.77
    2     7     8     1    110.89183          1020.94
    2     7    11     1     94.81935          1199.11
    2     7    12     1     76.92419          3053.50
    3     2     7     1     51.89194          5560.73
    3     4     5     1     63.58687          2802.09
    3     5     4     1     58.77716          3761.36
    3     5     6     1     65.94301          3821.70
    3     7     6     1     82.14350          3414.05
    3     7     8     1    115.35831          1326.69
    3     7    11     1    151.48637           831.67
    3     7    12     1     81.55013          3608.88
    3    12     7     1     45.13373          6368.66
    4     3     5     1     57.63596          3197.57
    4     3     7     1    148.04425          1235.17
    4     3    12     1     94.82614          1469.50
    4     5     6     1    118.08761           917.86
    5     3     7     1    119.43906          1056.61
    5     3    12     1     98.24585           425.91
    5     6     7     1     91.16932          4332.91
    6     7     8     1     96.54419          1476.43
    6     7    11     1    126.06934           768.92
    6     7    12     1     85.78302          1186.80
    7     3    12     1     53.31607          7588.39
    7     8     9     1    127.11243          1753.15
    7     8    10     1    158.99714          1242.72
    7     8    11     1     64.69471          3173.81
    7    11     8     1     51.84342          6238.19
    8     7    11     1     63.46188          4140.97
    8     7    12     1    162.83457          1421.32
    8     9    10     1     54.40893         10576.48
    8    10     9     1     54.33038         11695.58
    9     8    10     1     71.26070          7079.60
    9     8    11     1    163.20978           806.50
   10     8    11     1     95.42038          2316.27
   11     7    12     1    101.66540          1350.43

[ dihedrals ]
;  ai    aj    ak    al  funct   phi0(deg)        k(kJ/mol)   mult
    1     2     3     4     1     48.41232       19.124      1
    1     2     3     5     1     78.17014       24.556      1
    1     2     3     7     1   -161.65071       18.447      1
    1     2     3    12     1    139.92073       19.126      1
    1     2     7     3     1     10.98159       12.993      1
    1     2     7     6     1     29.77240       13.672      1
    1     2     7     8     1    -96.97179       14.367      1
    1     2     7    11     1   -160.92481       14.370      1
    1     2     7    12     1     98.08954       12.269      1
    2     3     4     5     1    -12.96446        8.623      1
    2     3     5     4     1    148.96069       18.518      1
    2     3     5     6     1    -59.96355       14.994      1
    2     3     7     6     1     13.96130        6.341      1
    2     3     7     8     1    -80.94453        7.058      1
    2     3     7    11     1   -163.01457       11.483      1
    2     3     7    12     1     99.09967        3.994      1
    2     3    12     7     1   -100.98724        5.481      1
    2     7     3     4     1    -97.05955        8.561      1
    2     7     3     5     1    -22.02723        7.848      1
    2     7     3    12     1    -99.09967        3.994      1
    2     7     6     5     1    169.92912       13.604      1
    2     7     8     9     1    -97.90679       13.659      1
    2     7     8    10     1    107.90514       20.230      1
    2     7     8    11     1     95.93715        6.320      1
    2     7    11     8     1    -69.92071        6.321      1
    2     7    12     3     1    121.02663        3.998      1
    3     2     7     6     1   -159.07061        8.594      1
    3     2     7     8     1     71.09700        5.551      1
    3     2     7    11     1      8.05846        6.311      1
    3     2     7    12     1    -91.96739        4.747      1
    3     4     5     6     1    152.82372       10.050      1
    3     5     6     7     1    173.98359        7.783      1
    3     7     6     5     1   -173.00464        8.544      1
    3     7     8     9     1   -160.03873       13.646      1
    3     7     8    10     1     42.96691       21.581      1
    3     7     8    11     1     31.02481        7.079      1
    3     7    11     8     1    -83.12984       11.463      1
    3    12     7     6     1    -97.96065        3.255      1
    3    12     7     8     1      5.13921       15.689      1
    3    12     7    11     1     28.03881        6.332      1
    4     3     2     7     1     33.86930        6.258      1
    4     3     5     6     1    -28.05012       12.197      1
    4     3     7     6     1     95.98410       10.718      1
    4     3     7     8     1      2.94158        8.572      1
    4     3     7    11     1    -81.00320       12.893      1
    4     3     7    12     1   -177.03381        8.578      1
    4     3    12     7     1      1.02907        5.550      1
    4     5     3     7     1     37.02680        7.040      1
    4     5     3    12     1     90.88315        7.041      1
    4     5     6     7     1   -158.89653       14.338      1
    5     3     2     7     1     59.12511       15.824      1
    5     3     7     6     1    170.97829       11.436      1
    5     3     7     8     1     77.03974       10.025      1
    5     3     7    11     1     -4.90310       12.949      1
    5     3     7    12     1   -103.76039        9.261      1
    5     3    12     7     1     59.94210        4.760      1
    5     4     3     7     1    -85.27861       10.051      1
    5     4     3    12     1    -83.95013        9.340      1
    5     6     7     8     1    -58.02408       10.749      1
    5     6     7    11     1      3.04213       10.065      1
    5     6     7    12     1    105.01857       10.018      1
    6     5     3     7     1   -171.03937       10.006      1
    6     5     3    12     1   -118.79799        7.076      1
    6     7     3    12     1     92.06952        6.270      1
    6     7     8     9     1    115.94968       13.641      1
    6     7     8    10     1    -39.26352       21.535      1
    6     7     8    11     1    -53.00827        7.056      1
    6     7    11     8     1    102.00736        7.764      1
    7     2     3    12     1    123.00081        3.925      1
    7     8     9    10     1      8.98446       14.328      1
    7     8    10     9     1    -17.07669       23.584      1
    7    11     8     9     1     30.31392       23.589      1
    7    11     8    10     1      5.88813       10.788      1
    8     7     3    12     1     -1.14826        7.024      1
    8    11     7    12     1      7.11279        7.017      1
    9     8     7    11     1    -11.78073       12.235      1
    9     8     7    12     1     14.29685       16.951      1
    9    10     8    11     1     -8.08381       10.770      1
   10     8     7    11     1   -171.91453       20.953      1
   10     8     7    12     1   -136.75736       22.142      1
   10     9     8    11     1    149.73924       22.395      1
   11     7     3    12     1    -83.04274       11.447      1
   11     8     7    12     1   -150.86694       16.343      1
