1TPCN00713
8
    1res  C1    1   -0.390  -0.082   0.093
    1res  C2    2   -0.193   0.099  -0.129
    1res  C3    3   -0.028   0.051   0.147
    1res  C4    4    0.250   0.018  -0.110
    1res  C5    5    0.375   0.218  -0.116
    1res  C6    6    0.512  -0.082  -0.078
    1res  C7    7    0.350  -0.257   0.049
    1res  C8    8    0.246  -0.064   0.165
  10.00000  10.00000  10.00000
