1TPCN04046
13
    1res  C1    1   -0.290   0.422  -0.201
    1res  C2    2   -0.316   0.149   0.023
    1res  C3    3   -0.393  -0.187  -0.101
    1res  C4    4   -0.671  -0.033   0.028
    1res  C5    5   -0.591  -0.069   0.250
    1res  C6    6   -0.377  -0.202   0.213
    1res  C7    7   -0.191  -0.031  -0.165
    1res  C8    8   -0.004  -0.233  -0.013
    1res  C9    9    0.075   0.045   0.084
    1res  C10   10    0.167   0.107  -0.174
    1res  C11   11    0.429  -0.004  -0.041
    1res  C12   12    0.774  -0.010  -0.055
    1res  C13   13    0.596  -0.002   0.203
  10.00000  10.00000  10.00000
