1TPCN03810
23
    1res  C1    1   -0.843  -0.223   0.298
    1res  C2    2   -0.983  -0.095   0.072
    1res  C3    3   -0.712  -0.047   0.129
    1res  C4    4   -0.905   0.225   0.044
    1res  C5    5   -0.730   0.002  -0.227
    1res  C6    6   -0.548   0.175  -0.127
    1res  C7    7   -0.379   0.106   0.119
    1res  C8    8   -0.369  -0.118  -0.157
    1res  C9    9   -0.100  -0.090  -0.102
    1res  C10   10    0.030  -0.002   0.102
    1res  C11   11    0.181   0.137  -0.041
    1res  C12   12    0.395   0.084   0.077
    1res  C13   13    0.481  -0.115   0.275
    1res  C14   14    0.662   0.015   0.067
    1res  C15   15    0.973   0.021   0.119
    1res  C16   16    1.130   0.152  -0.028
    1res  C17   17    1.165  -0.143   0.016
    1res  C18   18    1.039  -0.262   0.196
    1res  C19   19    0.834  -0.217   0.082
    1res  C20   20    0.686   0.230   0.060
    1res  C21   21    0.504   0.257  -0.107
    1res  C22   22    0.125   0.082  -0.270
    1res  C23   23   -0.238   0.079  -0.315
  10.00000  10.00000  10.00000
