[ moleculetype ]
; name        nrexcl
res           1

[ atoms ]
;    nr  type resnr resid  atom  cgnr     charge       mass
      1 SN6       1 res   C1        1      0.000     54.000
      2 TC3       1 res   C2        2      0.000     36.000
      3 SC5       1 res   C3        3      0.000     54.000
      4 SP2       1 res   C4        4      0.000     54.000
      5 TC3       1 res   C5        5      0.000     36.000
      6 SC4       1 res   C6        6      0.000     54.000
      7 TC3       1 res   C7        7      0.000     36.000
      8 SC4       1 res   C8        8      0.000     54.000
      9 SC4       1 res   C9        9      0.000     54.000
     10 TC3       1 res   C10      10      0.000     36.000
     11 TN6       1 res   C11      11      0.000     36.000
     12 TC4       1 res   C12      12      0.000     36.000
     13 TN3r      1 res   C13      13      0.000     36.000
     14 SN4a      1 res   C14      14      0.000     54.000
     15 TN3r      1 res   C15      15      0.000     36.000
     16 TN4a      1 res   C16      16      0.000     36.000
     17 TC5       1 res   C17      17      0.000     36.000
     18 TC5       1 res   C18      18      0.000     36.000
     19 SN6       1 res   C19      19      0.000     54.000
     20 SN6       1 res   C20      20      0.000     54.000
     21 TN6       1 res   C21      21      0.000     36.000
     22 TN6       1 res   C22      22      0.000     36.000
     23 TN6       1 res   C23      23      0.000     36.000
     24 TC3       1 res   C24      24      0.000     36.000

[ bonds ]
;  ai    aj   funct      b0(nm)        k
    1     2     1      0.27511    20000
    1     3     1      0.25818    20000
    2     3     1      0.28191    20000
    3     4     1      0.34483    20000
    3     5     1      0.36131    20000
    3     6     1      0.37572    20000
    5     6     1      0.27085    20000
    6     7     1      0.30642    20000
    6     8     1      0.27347    20000
    7     8     1      0.32146    20000
    8     9     1      0.26127    20000
    8    24     1      0.26241    20000
    9    10     1      0.31332    20000
    9    12     1      0.29053    20000
    9    24     1      0.37304    20000
   10    11     1      0.27134    20000
   11    12     1      0.31520    20000
   12    13     1      0.26721    20000
   13    14     1      0.27861    20000
   14    15     1      0.29552    20000
   14    21     1      0.30993    20000
   14    23     1      0.26736    20000
   15    16     1      0.25044    20000
   16    17     1      0.26702    20000
   17    18     1      0.27638    20000
   18    19     1      0.30757    20000
   18    20     1      0.34399    20000
   19    20     1      0.28455    20000
   21    22     1      0.24386    20000
   22    23     1      0.21524    20000
