1TPCN05727
12
    1res  C1    1    0.161  -0.296  -0.243
    1res  C2    2    0.169  -0.212   0.116
    1res  C3    3    0.405  -0.046  -0.043
    1res  C4    4    0.552   0.279  -0.069
    1res  C5    5    0.645   0.145   0.212
    1res  C6    6   -0.066  -0.359   0.053
    1res  C7    7   -0.160  -0.146  -0.069
    1res  C8    8   -0.287  -0.034   0.203
    1res  C9    9   -0.375  -0.026  -0.163
    1res  C10   10   -0.186   0.213  -0.082
    1res  C11   11   -0.373   0.371   0.048
    1res  C12   12   -0.566   0.198  -0.002
  10.00000  10.00000  10.00000
