1TPCN00721
6
    1res  C1    1    0.852   0.152   0.010
    1res  C2    2    0.497  -0.022  -0.021
    1res  C3    3    0.101  -0.074   0.037
    1res  C4    4   -0.283  -0.181  -0.009
    1res  C5    5   -0.727  -0.067  -0.066
    1res  C6    6   -0.847   0.287   0.048
  10.00000  10.00000  10.00000
