1TPCN00435
16
    1res  C1    1    0.938  -0.431   0.283
    1res  C2    2    0.701  -0.281   0.123
    1res  C3    3    0.583  -0.041   0.178
    1res  C4    4    0.418  -0.096   0.028
    1res  C5    5    0.204  -0.075   0.045
    1res  C6    6    0.048  -0.028  -0.104
    1res  C7    7   -0.144   0.056  -0.213
    1res  C8    8   -0.425   0.146  -0.282
    1res  C9    9   -0.460   0.176  -0.064
    1res  C10   10   -0.430   0.211   0.207
    1res  C11   11   -0.694   0.274   0.096
    1res  C12   12   -0.600  -0.079  -0.005
    1res  C13   13   -0.170  -0.194  -0.391
    1res  C14   14   -0.034   0.051  -0.446
    1res  C15   15    0.692   0.141   0.384
    1res  C16   16    0.883  -0.142   0.382
  10.00000  10.00000  10.00000
