1TPCN04176
38
    1res  C1    1    1.392   0.165  -0.237
    1res  C2    2    1.234   0.094  -0.048
    1res  C3    3    1.066   0.192  -0.027
    1res  C4    4    0.818   0.284   0.044
    1res  C5    5    1.039   0.398   0.206
    1res  C6    6    0.602   0.286   0.174
    1res  C7    7    0.378   0.191   0.009
    1res  C8    8    0.205  -0.004  -0.094
    1res  C9    9    0.155  -0.309   0.078
    1res  C10   10    0.430  -0.283   0.000
    1res  C11   11    0.354  -0.390   0.257
    1res  C12   12    0.028  -0.464  -0.126
    1res  C13   13   -0.180  -0.133  -0.026
    1res  C14   14   -0.175  -0.350  -0.338
    1res  C15   15   -0.440  -0.289  -0.342
    1res  C16   16   -0.530  -0.047  -0.262
    1res  C17   17   -0.682  -0.097  -0.081
    1res  C18   18   -0.826   0.072   0.103
    1res  C19   19   -1.002   0.220   0.140
    1res  C20   20   -1.239   0.378   0.261
    1res  C21   21   -1.522   0.372   0.281
    1res  C22   22   -1.330   0.605   0.202
    1res  C23   23   -1.101   0.627   0.266
    1res  C24   24   -0.988   0.423   0.332
    1res  C25   25   -1.150   0.082   0.011
    1res  C26   26   -1.011   0.054  -0.162
    1res  C27   27   -0.591  -0.281   0.069
    1res  C28   28   -0.767  -0.396  -0.089
    1res  C29   29   -0.322  -0.467  -0.087
    1res  C30   30    0.166  -0.279  -0.274
    1res  C31   31    0.142   0.296  -0.054
    1res  C32   32    0.182   0.430   0.137
    1res  C33   33    0.326   0.303   0.287
    1res  C34   34    0.763   0.072  -0.113
    1res  C35   35    0.931   0.229  -0.199
    1res  C36   36    1.230  -0.103   0.118
    1res  C37   37    1.407  -0.188   0.021
    1res  C38   38    1.502   0.024  -0.063
  10.00000  10.00000  10.00000
