[ moleculetype ]
; name        nrexcl
res           1

[ atoms ]
;    nr  type  resnr resid  atom  cgnr     charge       mass
      1 TC3       1 res   C1        1      0.000     36.000
      2 TC3       1 res   C2        2      0.000     36.000
      3 TN6d      1 res   C3        3      0.000     36.000
      4 TC3       1 res   C4        4      0.000     36.000
      5 TC5       1 res   C5        5      0.000     36.000
      6 TN6d      1 res   C6        6      0.000     36.000
      7 TC5       1 res   C7        7      0.000     36.000
      8 TC5       1 res   C8        8      0.000     36.000
      9 TC5       1 res   C9        9      0.000     36.000
     10 SC3       1 res   C10      10      0.000     54.000
     11 TN4a      1 res   C11      11      0.000     36.000
     12 N4a       1 res   C12      12      0.000     72.000

[ constraints ]
;  ai    aj   funct      b0(nm)
    1     2     1      0.26636
   10    11     1      0.27324
    3     5     1      0.22704
    2     3     1      0.26307
    4     5     1      0.23343
    5    10     1      0.26111
    7     9     1      0.24863
    5     7     1      0.18406
    3     4     1      0.28816
    3    10     1      0.25399
    5     6     1      0.17362
    7     8     1      0.24791
    6     7     1      0.17957
    2    10     1      0.28945
    8     9     1      0.28997

[ bonds ]
;  ai    aj   funct      b0(nm)          k(kJ/mol/nm^2)
   10    12     1      0.45108          14433.4

[ angles ]
;  ai    aj    ak  funct     th0(deg)        k(kJ/mol/rad^2)
    1     2     3     1    149.02665           386.35
    1     2    10     1    100.24713          1181.33
    2     3     4     1     69.67600          1287.62
    2     3     5     1     98.33461          1275.08
    2     3    10     1     68.05702          3048.18
    2    10     3     1     57.45894          3051.37
    2    10     5     1     84.72099          2089.94
    2    10    11     1    139.59911           448.53
    2    10    12     1     87.76066           226.41
    3     2    10     1     54.48408          4269.90
    3     4     5     1     50.27230          6243.44
    3     5     4     1     77.47187          2984.36
    3     5     6     1     87.98508          1733.41
    3     5     7     1    146.80983          1452.91
    3     5    10     1     62.24392          4643.13
    3    10     5     1     52.27925          5980.89
    3    10    11     1    117.63270           722.24
    3    10    12     1    119.20805           476.84
    4     3     5     1     52.25591          5030.91
    4     3    10     1     94.28536          2280.30
    4     5     6     1    120.66007           321.67
    4     5     7     1    109.78202           771.34
    4     5    10     1    107.08580          2118.51
    5     3    10     1     65.47683          3792.95
    5     6     7     1     62.79954          3915.34
    5     7     6     1     57.02229          4201.35
    5     7     8     1    158.27049          1488.65
    5     7     9     1    129.44448          1358.85
    5    10    11     1     68.82115          1175.60
    5    10    12     1     79.36865           583.04
    6     5     7     1     60.17816          5111.59
    6     5    10     1    115.74122           513.58
    6     7     8     1    101.75688          1595.71
    6     7     9     1    171.63829          1060.45
    7     5    10     1    137.27880           599.64
    7     8     9     1     54.38362          7484.08
    7     9     8     1     54.15165          7805.92
    8     7     9     1     71.46472          4902.58
   11    10    12     1     58.84685           519.11

[ dihedrals ]
;  ai    aj    ak    al  funct   phi0(deg)        k(kJ/mol)   mult
    1     2     3     4     1    105.65215       26.487      1
    1     2     3     5     1    152.79866       26.402      1
    1     2     3    10     1   -150.60147       26.624      1
    1     2    10     3     1     16.05927       19.154      1
    1     2    10     5     1     64.44738       17.126      1
    1     2    10    11     1    113.07951       17.140      1
    1     2    10    12     1    142.07811       16.485      1
    2     3     4     5     1    -61.00855        6.981      1
    2     3     5     4     1    124.90742        5.543      1
    2     3     5     6     1      2.01085       10.739      1
    2     3     5     7     1     17.10154       11.534      1
    2     3     5    10     1   -118.98975        5.481      1
    2     3    10     5     1     69.97257        6.311      1
    2     3    10    11     1     46.07328        9.310      1
    2     3    10    12     1    114.02016       10.851      1
    2    10     3     4     1   -114.00252        6.271      1
    2    10     3     5     1    -69.97257        6.311      1
    2    10     5     3     1    127.97096        4.807      1
    2    10     5     4     1   -167.01389        7.066      1
    2    10     5     6     1     55.01339        8.578      1
    2    10     5     7     1    -17.05676        7.105      1
    3     2    10     5     1   -132.91812        3.982      1
    3     2    10    11     1    -85.00642       11.493      1
    3     2    10    12     1    -52.51006        9.227      1
    3     4     5     6     1   -100.02104        4.783      1
    3     4     5     7     1    -33.98181        4.821      1
    3     4     5    10     1    124.95770        4.004      1
    3     5     6     7     1     -9.02290        7.038      1
    3     5     7     6     1    163.93237       10.803      1
    3     5     7     8     1    161.60015       20.275      1
    3     5     7     9     1    -16.21921       14.955      1
    3     5    10    11     1    -20.07430        7.867      1
    3     5    10    12     1     39.03164       10.065      1
    3    10     5     4     1   -115.92764        4.790      1
    3    10     5     6     1    109.86617        9.236      1
    3    10     5     7     1     34.03227        6.333      1
    4     3     2    10     1     77.19071        5.530      1
    4     3     5     6     1     57.82406        9.316      1
    4     3     5     7     1     72.95779       12.880      1
    4     3     5    10     1    -62.96749        5.519      1
    4     3    10     5     1    135.01781        3.984      1
    4     3    10    11     1    113.00901        9.968      1
    4     3    10    12     1   -179.98490       10.849      1
    4     5     3    10     1     62.96749        5.519      1
    4     5     6     7     1    -83.05158        7.055      1
    4     5     7     6     1     64.04663        9.336      1
    4     5     7     8     1     63.47326       20.899      1
    4     5     7     9     1   -113.18439       12.892      1
    4     5    10    11     1     43.98806        7.831      1
    4     5    10    12     1    104.02810        9.373      1
    5     3     2    10     1    120.07996        4.744      1
    5     3    10    11     1    157.80455        7.840      1
    5     3    10    12     1   -134.07276       10.820      1
    5     4     3    10     1   -125.96677        4.753      1
    5     6     7     8     1     -0.72856       10.015      1
    5     6     7     9     1     -3.84002       29.600      1
    5     7     8     9     1      1.58725       21.436      1
    5     7     9     8     1     -0.60553       12.878      1
    6     5     3    10     1    -59.78340        9.314      1
    6     5     7     8     1    179.24145       20.151      1
    6     5     7     9     1      0.93696       11.538      1
    6     5    10    11     1    -93.04738       10.029      1
    6     5    10    12     1    -33.03242       11.471      1
    6     7     5    10     1    -83.02327       11.470      1
    6     7     8     9     1      0.07042        9.345      1
    6     7     9     8     1   -173.97457       28.647      1
    7     5     3    10     1    -43.80460       12.177      1
    7     5    10    11     1   -165.96698       10.766      1
    7     5    10    12     1   -106.96990       11.558      1
    7     6     5    10     1     46.86502        7.072      1
    8     7     5    10     1    -84.65885       20.704      1
    9     7     5    10     1     99.83186       12.211      1
