[ moleculetype ]
; name        nrexcl
res           1

[ atoms ]
;    nr  type  resnr resid  atom  cgnr     charge       mass
      1 SN2a      1 res   C1        1      0.000     54.000
      2 TX3       1 res   C2        2      0.000     36.000
      3 TX3       1 res   C3        3      0.000     36.000
      4 TX3       1 res   C4        4      0.000     36.000
      5 TX3       1 res   C5        5      0.000     36.000
      6 TX3       1 res   C6        6      0.000     36.000

[ bonds ]
;  ai    aj   funct      b0(nm)          k(kJ/mol/nm^2)
    1     2     1      0.29170           3536.8
    1     6     1      0.28851           3329.2
    2     3     1      0.22593          54503.2
    3     4     1      0.22614          92191.4
    4     5     1      0.22596          74336.6
    5     6     1      0.22609          84678.2

[ angles ]
;  ai    aj    ak  funct     th0(deg)        k(kJ/mol/rad^2)
    1     2     3     1    131.06718           197.42
    1     6     5     1    131.51022           178.77
    2     1     6     1     84.01921          1469.46
    2     3     4     1    119.47762          1464.67
    3     4     5     1    119.60136          2097.20
    4     5     6     1    119.56476          1252.25

[ dihedrals ]
;  ai    aj    ak    al  funct   phi0(deg)        k(kJ/mol)   mult
    1     2     3     4     1    151.10434       23.484      1
    1     2     3     4     1    122.28560       19.480      2
    1     2     3     4     1     93.70306       13.773      3
    1     6     5     4     1   -154.03367       22.749      1
    1     6     5     4     1   -128.22732       18.826      2
    1     6     5     4     1   -102.79694       13.314      3
    2     1     6     5     1    144.78349       18.458      1
    2     1     6     5     1    109.63691       16.683      2
    2     1     6     5     1     74.65757       13.963      3
    2     3     4     5     1    179.86323       16.462      1
    2     3     4     5     1    179.78787       15.232      2
    2     3     4     5     1    179.84840       13.315      3
    3     2     1     6     1   -143.97550       16.506      1
    3     2     1     6     1   -107.98091       15.298      2
    3     2     1     6     1    -72.05326       13.407      3
    3     4     5     6     1    179.99466       15.044      1
    3     4     5     6     1    179.98750       14.161      2
    3     4     5     6     1    179.97623       12.760      3
