[ moleculetype ]
; name        nrexcl
res           1

[ atoms ]
;    nr  type resnr resid  atom  cgnr     charge       mass
      1 TC3       1 res   C1        1      0.000     36.000
      2 TC3       1 res   C2        2      0.000     36.000
      3 TN6d      1 res   C3        3      0.000     36.000
      4 SC5       1 res   C4        4      0.000     54.000
      5 SC4       1 res   C5        5      0.000     54.000
      6 TC3       1 res   C6        6      0.000     36.000
      7 TN6d      1 res   C7        7      0.000     36.000
      8 TC5       1 res   C8        8      0.000     36.000
      9 TC5       1 res   C9        9      0.000     36.000
     10 TC5       1 res   C10      10      0.000     36.000
     11 TN2a      1 res   C11      11      0.000     36.000
     12 SN4a      1 res   C12      12      0.000     54.000

[ bonds ]
;  ai    aj   funct      b0(nm)        k
    1     2     1      0.26452    20000
    2     3     1      0.22427    20000
    2     5     1      0.34548    20000
    3     4     1      0.29908    20000
    3     5     1      0.26097    20000
    3     6     1      0.21408    20000
    4     5     1      0.26663    20000
    4     6     1      0.36040    20000
    4     7     1      0.26351    20000
    5     6     1      0.31561    20000
    5    12     1      0.42038    20000
    6     8     1      0.27068    20000
    7     8     1      0.18005    20000
    8     9     1      0.25010    20000
    8    10     1      0.22170    20000
    9    10     1      0.30430    20000
   10    11     1      0.33192    20000
