[ moleculetype ]
; name        nrexcl
res           1

[ atoms ]
;    nr  type  resnr resid  atom  cgnr     charge       mass
      1 X1        1 res   C1        1      0.000     72.000
      2 SN6       1 res   C2        2      0.000     54.000
      3 TC5       1 res   C3        3      0.000     36.000

[ bonds ]
;  ai    aj   funct      b0(nm)          k(kJ/mol/nm^2)
    1     2     1      0.32096         225342.7
    1     3     1      0.31322         104143.7
    2     3     1      0.32947         165060.6

[ angles ]
;  ai    aj    ak  funct     th0(deg)        k(kJ/mol/rad^2)
    1     2     3     1     57.56149          5506.53
    1     3     2     1     59.84868         12419.12
    2     1     3     1     62.58983          6456.89

[ dihedrals ]
;  ai    aj    ak    al  funct   phi0(deg)        k(kJ/mol)   mult
