1TPCN05638
18
    1res  C1    1    0.470  -0.036  -0.124
    1res  C2    2    0.549   0.055   0.117
    1res  C3    3    0.651   0.211   0.266
    1res  C4    4    0.848   0.239   0.125
    1res  C5    5    0.316  -0.097   0.203
    1res  C6    6    0.072  -0.155   0.177
    1res  C7    7    0.167  -0.273  -0.179
    1res  C8    8   -0.025  -0.027  -0.073
    1res  C9    9   -0.200  -0.106  -0.269
    1res  C10   10   -0.249  -0.374  -0.323
    1res  C11   11   -0.484  -0.277  -0.395
    1res  C12   12   -0.532  -0.109  -0.219
    1res  C13   13   -0.264  -0.030   0.028
    1res  C14   14   -0.428   0.180   0.184
    1res  C15   15   -0.270   0.342   0.381
    1res  C16   16   -0.510   0.435   0.201
    1res  C17   17   -0.693   0.331   0.133
    1res  C18   18   -0.657   0.094   0.086
  10.00000  10.00000  10.00000
