1TPCN06288
17
    1res  C1    1   -0.332   0.105   0.047
    1res  C2    2   -0.370  -0.195  -0.020
    1res  C3    3   -0.537  -0.298   0.138
    1res  C4    4   -0.733  -0.226  -0.020
    1res  C5    5   -0.700  -0.337   0.146
    1res  C6    6   -0.302  -0.078  -0.258
    1res  C7    7   -0.076   0.163  -0.175
    1res  C8    8   -0.016  -0.091  -0.065
    1res  C9    9   -0.105   0.035   0.249
    1res  C10   10    0.102   0.213   0.166
    1res  C11   11    0.181   0.055   0.039
    1res  C12   12    0.444   0.013   0.056
    1res  C13   13    0.400  -0.219  -0.070
    1res  C14   14    0.474   0.071  -0.225
    1res  C15   15    0.579   0.258  -0.098
    1res  C16   16    0.417   0.290   0.075
    1res  C17   17    0.099  -0.121   0.241
  10.00000  10.00000  10.00000
