[ moleculetype ]
; name        nrexcl
res           1

[ atoms ]
;    nr  type  resnr resid  atom  cgnr     charge       mass
      1 TN4a      1 res   C1        1      0.000     36.000
      2 SN6       1 res   C2        2      0.000     54.000
      3 SP2       1 res   C3        3      0.000     54.000
      4 SN4a      1 res   C4        4      0.000     54.000
      5 TP1       1 res   C5        5      0.000     36.000
      6 TN6       1 res   C6        6      0.000     36.000
      7 TN6       1 res   C7        7      0.000     36.000
      8 TN6       1 res   C8        8      0.000     36.000
      9 TC3       1 res   C9        9      0.000     36.000
     10 TC3       1 res   C10      10      0.000     36.000
     11 N4a       1 res   C11      11      0.000     72.000
     12 TC5       1 res   C12      12      0.000     36.000
     13 TC5       1 res   C13      13      0.000     36.000
     14 SN6       1 res   C14      14      0.000     54.000
     15 TC5       1 res   C15      15      0.000     36.000

[ bonds ]
;  ai    aj   funct      b0(nm)          k(kJ/mol/nm^2)
    1     2     1      0.30793          31189.0
    2     3     1      0.26069          15755.9
    2     9     1      0.31531           5331.6
    2    10     1      0.25961          49492.0
    3     4     1      0.31619           6715.1
    4     5     1      0.26233           9945.2
    4     6     1      0.27033          43963.9
    4     8     1      0.28835          20726.8
    6     7     1      0.22032          16671.2
    7     8     1      0.23539          48911.6
    9    10     1      0.28187          30565.6
   10    11     1      0.26836           4524.7
   12    13     1      0.27079          65465.2
   13    14     1      0.29442         176005.2
   13    15     1      0.29818         229141.4
   14    15     1      0.31024         184037.5

[ angles ]
;  ai    aj    ak  funct     th0(deg)        k(kJ/mol/rad^2)
    1     2     3     1     67.81444           633.60
    1     2     9     1     67.61974           258.94
    1     2    10     1     76.64128           215.98
    2     3     4     1     84.00901           124.90
    2     9    10     1     51.00077           766.17
    2    10     9     1     71.34363           160.98
    2    10    11     1    152.84808            16.88
    3     2     9     1     93.80172           314.75
    3     2    10     1    139.39714           447.85
    3     4     5     1    131.63462            70.62
    3     4     6     1    155.63477            95.91
    3     4     8     1     76.12196           273.65
    4     6     7     1     77.58869          1119.71
    4     8     7     1     71.73221          1189.73
    5     4     6     1     66.59290           719.22
    5     4     8     1    141.44177            79.22
    6     4     8     1     85.14594           271.18
    6     7     8     1    112.08280           256.02
    9     2    10     1     57.64639           437.56
    9    10    11     1     97.99699           226.59
   12    13    14     1    153.12796           537.73
   12    13    15     1     92.22362          1032.43
   13    14    15     1     59.02413         10643.59
   13    15    14     1     57.84188          7757.61
   14    13    15     1     63.13397          8269.19
