1TPCN03072
16
    1res  C1    1    0.350  -0.446   0.110
    1res  C2    2    0.194  -0.148   0.147
    1res  C3    3    0.025  -0.210  -0.053
    1res  C4    4    0.121   0.006  -0.175
    1res  C5    5   -0.056   0.131  -0.125
    1res  C6    6   -0.087   0.318   0.114
    1res  C7    7   -0.423   0.379   0.307
    1res  C8    8   -0.227   0.026   0.024
    1res  C9    9   -0.395   0.226  -0.277
    1res  C10   10   -0.472  -0.075   0.006
    1res  C11   11   -0.279  -0.414  -0.142
    1res  C12   12    0.164   0.106   0.215
    1res  C13   13    0.450  -0.090   0.068
    1res  C14   14    0.514  -0.007  -0.155
    1res  C15   15    0.701   0.032  -0.328
    1res  C16   16    0.795  -0.089  -0.081
  10.00000  10.00000  10.00000
