[ moleculetype ]
; name        nrexcl
res           1

[ atoms ]
;    nr  type resnr resid  atom  cgnr     charge       mass
      1 TC4       1 res   C1        1      0.000     36.000
      2 SN4a      1 res   C2        2      0.000     54.000
      3 SC3       1 res   C3        3      0.000     54.000
      4 TN6       1 res   C4        4      0.000     36.000
      5 TN6       1 res   C5        5      0.000     36.000
      6 TN6       1 res   C6        6      0.000     36.000
      7 TN6       1 res   C7        7      0.000     36.000

[ bonds ]
;  ai    aj   funct      b0(nm)        k
    1     2     1      0.29288    20000
    2     3     1      0.20582    20000
    2     4     1      0.19017    20000
    3     5     1      0.26321    20000
    3     6     1      0.18369    20000
    3     7     1      0.26317    20000
