[ moleculetype ]
; name        nrexcl
res           1

[ atoms ]
;    nr  type  resnr resid  atom  cgnr     charge       mass
      1 N4a       1 res   C1        1      0.000     72.000
      2 TC5       1 res   C2        2      0.000     36.000
      3 TN4a      1 res   C3        3      0.000     36.000
      4 SP4       1 res   C4        4      0.000     54.000
      5 TN4a      1 res   C5        5      0.000     36.000
      6 TP1       1 res   C6        6      0.000     36.000
      7 SP4       1 res   C7        7      0.000     54.000
      8 SC3       1 res   C8        8      0.000     54.000
      9 TC5       1 res   C9        9      0.000     36.000
     10 TN2a      1 res   C10      10      0.000     36.000

[ constraints ]
;  ai    aj   funct      b0(nm)
    1     2     1      0.32783
    2     3     1      0.25853
    4     5     1      0.23912
    3     8     1      0.30174
    5     7     1      0.26526
    3     4     1      0.30557
    2     8     1      0.29550
    5     6     1      0.20684
    9    10     1      0.26193
    4     7     1      0.30559
    8     9     1      0.20512

[ bonds ]
;  ai    aj   funct      b0(nm)          k(kJ/mol/nm^2)

[ angles ]
;  ai    aj    ak  funct     th0(deg)        k(kJ/mol/rad^2)
    1     2     3     1    153.65061           518.24
    1     2     8     1     89.81035           889.86
    2     3     4     1    123.11170            61.14
    2     3     8     1     63.12475          2439.84
    2     8     3     1     51.28833          2788.12
    2     8     9     1    151.73110          1320.19
    3     2     8     1     65.58671          2949.61
    3     4     5     1     83.71070           106.21
    3     4     7     1    130.58571           259.24
    3     8     9     1    103.48391          1179.38
    4     3     8     1    131.30709           419.15
    4     5     6     1    166.66394           365.54
    4     5     7     1     74.42633           711.00
    4     7     5     1     48.87274          1679.10
    5     4     7     1     56.70166          1249.87
    6     5     7     1    116.83418           701.44
    8     9    10     1    108.93966          1781.55

[ dihedrals ]
;  ai    aj    ak    al  funct   phi0(deg)        k(kJ/mol)   mult
    1     2     3     4     1     47.05111       27.460      1
    1     2     3     8     1    174.78936       25.327      1
    1     2     8     3     1     -3.25768       15.667      1
    1     2     8     9     1     25.96838       22.879      1
    2     3     4     5     1      9.06935       17.096      1
    2     3     4     7     1     39.60171       21.568      1
    2     3     8     9     1     12.09488       10.786      1
    2     8     3     4     1    -64.85878       22.216      1
    2     8     9    10     1    170.73554       21.071      1
    3     2     8     9     1   -152.99128       19.765      1
    3     4     5     6     1    149.40011       28.623      1
    3     4     5     7     1    -29.01853       17.121      1
    3     4     7     5     1    139.25715       22.792      1
    3     8     9    10     1   -168.09424       13.631      1
    4     3     2     8     1     51.50388       10.730      1
    4     3     8     9     1    130.44741       23.993      1
    4     7     5     6     1      0.20710       14.281      1
    5     4     3     8     1    -76.09156       17.849      1
    6     5     4     7     1     -0.00898       31.210      1
    7     4     3     8     1    -42.93030       19.823      1
