1TPCN00126
24
    1res  C1    1   -0.498   0.490   0.036
    1res  C2    2   -0.576   0.258   0.100
    1res  C3    3   -0.708   0.035   0.256
    1res  C4    4   -0.475   0.001   0.195
    1res  C5    5   -0.446  -0.186   0.055
    1res  C6    6   -0.212  -0.222  -0.230
    1res  C7    7   -0.366  -0.334  -0.131
    1res  C8    8   -0.376  -0.504  -0.314
    1res  C9    9   -0.557  -0.489  -0.084
    1res  C10   10   -0.218   0.115  -0.122
    1res  C11   11    0.016  -0.040  -0.096
    1res  C12   12   -0.025   0.029   0.198
    1res  C13   13    0.175  -0.015   0.055
    1res  C14   14    0.314   0.031   0.216
    1res  C15   15    0.346  -0.023   0.006
    1res  C16   16    0.397  -0.128  -0.224
    1res  C17   17    0.567  -0.268  -0.020
    1res  C18   18    0.618  -0.150   0.205
    1res  C19   19    0.817  -0.120   0.014
    1res  C20   20    0.866   0.147   0.055
    1res  C21   21    0.580   0.010  -0.040
    1res  C22   22    0.559   0.324   0.066
    1res  C23   23   -0.364   0.104   0.068
    1res  C24   24   -0.663   0.001  -0.192
  10.00000  10.00000  10.00000
