1TPCN00443
12
    1res  C1    1   -0.248  -0.284   0.215
    1res  C2    2   -0.348  -0.317  -0.063
    1res  C3    3   -0.096  -0.104  -0.058
    1res  C4    4    0.001   0.085  -0.089
    1res  C5    5    0.219   0.069  -0.103
    1res  C6    6    0.202  -0.109  -0.230
    1res  C7    7    0.370   0.020  -0.179
    1res  C8    8    0.532  -0.105  -0.323
    1res  C9    9    0.591   0.137  -0.167
    1res  C10   10    0.181   0.249   0.057
    1res  C11   11   -0.170   0.151   0.079
    1res  C12   12   -0.485   0.166   0.185
  10.00000  10.00000  10.00000
