[ moleculetype ]
; name        nrexcl
res           1

[ atoms ]
;    nr  type resnr resid  atom  cgnr     charge       mass
      1 C4        1 res   C1        1      0.000     72.000
      2 SN4a      1 res   C2        2      0.000     54.000
      3 TC3       1 res   C3        3      0.000     36.000
      4 SN4a      1 res   C4        4      0.000     54.000
      5 SC4       1 res   C5        5      0.000     54.000
      6 SC5       1 res   C6        6      0.000     54.000
      7 SC4       1 res   C7        7      0.000     54.000
      8 TC3       1 res   C8        8      0.000     36.000
      9 SC4       1 res   C9        9      0.000     54.000
     10 SC4       1 res   C10      10      0.000     54.000
     11 TC3       1 res   C11      11      0.000     36.000
     12 TN6       1 res   C12      12      0.000     36.000
     13 SN4a      1 res   C13      13      0.000     54.000
     14 SP2       1 res   C14      14      0.000     54.000
     15 TN6       1 res   C15      15      0.000     36.000
     16 TN6       1 res   C16      16      0.000     36.000
     17 SN4a      1 res   C17      17      0.000     54.000
     18 TP1       1 res   C18      18      0.000     36.000
     19 TN6       1 res   C19      19      0.000     36.000
     20 TN6       1 res   C20      20      0.000     36.000
     21 TN6       1 res   C21      21      0.000     36.000
     22 SN4a      1 res   C22      22      0.000     54.000
     23 TN6       1 res   C23      23      0.000     36.000
     24 TN6       1 res   C24      24      0.000     36.000
     25 TN6       1 res   C25      25      0.000     36.000
     26 TN6       1 res   C26      26      0.000     36.000
     27 SN4a      1 res   C27      27      0.000     54.000
     28 TP1       1 res   C28      28      0.000     36.000
     29 TN6       1 res   C29      29      0.000     36.000
     30 TN6       1 res   C30      30      0.000     36.000
     31 TN6       1 res   C31      31      0.000     36.000
     32 SC4       1 res   C32      32      0.000     54.000
     33 TC3       1 res   C33      33      0.000     36.000
     34 TN6       1 res   C34      34      0.000     36.000
     35 TN6       1 res   C35      35      0.000     36.000
     36 TP1       1 res   C36      36      0.000     36.000

[ bonds ]
;  ai    aj   funct      b0(nm)        k
    1     2     1      0.25974    20000
    2     3     1      0.25208    20000
    3     4     1      0.36272    20000
    3     5     1      0.28410    20000
    3     6     1      0.24838    20000
    5     6     1      0.27738    20000
    6     7     1      0.30757    20000
    6    35     1      0.38751    20000
    6    36     1      0.33436    20000
    7     8     1      0.36305    20000
    7     9     1      0.29652    20000
    7    34     1      0.29677    20000
    8     9     1      0.31139    20000
    9    10     1      0.37388    20000
    9    33     1      0.30641    20000
   10    11     1      0.26469    20000
   10    32     1      0.34052    20000
   10    33     1      0.30452    20000
   11    12     1      0.24850    20000
   12    13     1      0.27621    20000
   12    32     1      0.24866    20000
   13    14     1      0.32797    20000
   13    15     1      0.27595    20000
   13    26     1      0.24356    20000
   15    16     1      0.21630    20000
   16    17     1      0.27845    20000
   16    26     1      0.20853    20000
   17    18     1      0.29647    20000
   17    19     1      0.29907    20000
   17    21     1      0.23272    20000
   19    20     1      0.23668    20000
   20    21     1      0.24250    20000
   21    22     1      0.33559    20000
   22    23     1      0.24753    20000
   22    25     1      0.29853    20000
   23    24     1      0.25730    20000
   24    25     1      0.23109    20000
   26    27     1      0.30316    20000
   27    28     1      0.28711    20000
   27    29     1      0.28894    20000
   27    31     1      0.24662    20000
   29    30     1      0.22783    20000
   30    31     1      0.25243    20000
   34    35     1      0.21895    20000
