1TPCN04034
32
    1res  C1    1    0.942   0.164   0.390
    1res  C2    2    0.910   0.114   0.082
    1res  C3    3    0.707   0.182   0.038
    1res  C4    4    0.601   0.023   0.137
    1res  C5    5    0.519  -0.195   0.018
    1res  C6    6    0.326  -0.146   0.240
    1res  C7    7    0.173  -0.139   0.005
    1res  C8    8   -0.097  -0.010   0.002
    1res  C9    9   -0.279  -0.041   0.225
    1res  C10   10   -0.435  -0.259  -0.024
    1res  C11   11   -0.465  -0.014  -0.088
    1res  C12   12   -0.512   0.225   0.064
    1res  C13   13   -0.745  -0.060   0.055
    1res  C14   14   -0.901   0.247   0.015
    1res  C15   15   -0.830   0.526  -0.082
    1res  C16   16   -0.897   0.317  -0.279
    1res  C17   17   -1.142   0.142  -0.156
    1res  C18   18   -0.846  -0.073  -0.203
    1res  C19   19   -0.103  -0.327   0.175
    1res  C20   20    0.305  -0.286  -0.052
    1res  C21   21    0.428  -0.450  -0.269
    1res  C22   22    0.589  -0.500  -0.512
    1res  C23   23    0.386  -0.689  -0.383
    1res  C24   24    0.161  -0.606  -0.364
    1res  C25   25    0.149  -0.446  -0.219
    1res  C26   26    0.583   0.228   0.295
    1res  C27   27    0.439   0.248   0.476
    1res  C28   28    0.399   0.345   0.150
    1res  C29   29    0.555   0.353  -0.010
    1res  C30   30    0.978   0.281  -0.070
    1res  C31   31    1.183   0.327   0.111
    1res  C32   32    0.999   0.385   0.288
  10.00000  10.00000  10.00000
