[ moleculetype ]
; name        nrexcl
res           1

[ atoms ]
;    nr  type  resnr resid  atom  cgnr     charge       mass
      1 TN6a      1 res   C1        1      0.000     36.000
      2 TC5       1 res   C2        2      0.000     36.000
      3 TN4a      1 res   C3        3      0.000     36.000
      4 SN6       1 res   C4        4      0.000     54.000
      5 SN4a      1 res   C5        5      0.000     54.000
      6 TP1       1 res   C6        6      0.000     36.000
      7 SP4       1 res   C7        7      0.000     54.000
      8 TN6       1 res   C8        8      0.000     36.000
      9 P4        1 res   C9        9      0.000     72.000
     10 SN6d      1 res   C10      10      0.000     54.000
     11 TC5       1 res   C11      11      0.000     36.000
     12 TN6d      1 res   C12      12      0.000     36.000
     13 TC5       1 res   C13      13      0.000     36.000
     14 TC5       1 res   C14      14      0.000     36.000
     15 TC5       1 res   C15      15      0.000     36.000
     16 TC3       1 res   C16      16      0.000     36.000

[ constraints ]
;  ai    aj   funct      b0(nm)
    4     5     1      0.38750
    5     7     1      0.26627
   13    14     1      0.25040
   11    13     1      0.18329
    2     4     1      0.26909
    2    10     1      0.21210
   11    16     1      0.24549
   14    15     1      0.29087
    5     6     1      0.27544
    1     2     1      0.26999
   10    11     1      0.24681
    2     3     1      0.25804
   11    12     1      0.21896
    7     8     1      0.28213
    5     8     1      0.27850
   13    15     1      0.25001
    4     9     1      0.31350
    1    10     1      0.31706
   10    16     1      0.36134
    3     4     1      0.28411
   12    13     1      0.21822

[ bonds ]
;  ai    aj   funct      b0(nm)          k(kJ/mol/nm^2)

[ angles ]
;  ai    aj    ak  funct     th0(deg)        k(kJ/mol/rad^2)
    1     2     3     1     66.77576          2305.10
    1     2     4     1    121.35088           430.67
    1     2    10     1     81.32250          1236.85
    1    10     2     1     57.31889          1737.84
    1    10    11     1     93.12073           352.87
    1    10    16     1     53.89646          1388.11
    2     1    10     1     41.35847          5953.49
    2     3     4     1     59.27910          5277.85
    2     4     3     1     55.52741          4192.64
    2     4     5     1    134.92304           300.34
    2     4     9     1     66.08272          1049.13
    2    10    11     1    149.76383           226.81
    2    10    16     1    109.54204           618.81
    3     2     4     1     65.19351          4013.23
    3     2    10     1    134.48384           638.09
    3     4     5     1     82.21583           434.31
    3     4     9     1     96.23496           393.43
    4     2    10     1    111.69936           783.64
    4     5     6     1    141.21376           334.71
    4     5     7     1    104.45021           117.96
    4     5     8     1     52.02327           646.37
    5     4     9     1    109.58328           373.23
    5     7     8     1     60.98522           772.11
    5     8     7     1     56.72182           954.81
    6     5     7     1     81.81972           304.22
    6     5     8     1    138.53120            71.54
    7     5     8     1     62.29376          1366.38
   10    11    12     1     72.87371          1083.23
   10    11    13     1    135.92136           904.47
   10    11    16     1     94.45437          2684.88
   10    16    11     1     42.91664          6067.00
   11    10    16     1     42.62900          6392.98
   11    12    13     1     49.57761          4537.25
   11    13    12     1     65.42058          3961.47
   11    13    14     1    161.46267          1925.19
   11    13    15     1    126.68818          1811.05
   12    11    13     1     65.00178          3534.74
   12    11    16     1    162.61135           574.70
   12    13    14     1     96.52761          2037.04
   12    13    15     1    166.43873          1341.93
   13    11    16     1    128.54904          1302.83
   13    14    15     1     54.39733         11820.87
   13    15    14     1     54.52339          9470.08
   14    13    15     1     71.07927          7354.06

[ dihedrals ]
;  ai    aj    ak    al  funct   phi0(deg)        k(kJ/mol)   mult
    1     2     3     4     1     35.06851       12.868      1
    1     2     4     3     1   -142.97807       10.036      1
    1     2     4     5     1   -122.13295       14.994      1
    1     2     4     9     1    -25.97813       13.720      1
    1     2    10    11     1   -177.55853       20.333      1
    1     2    10    16     1    167.87177       12.147      1
    1    10     2     3     1    136.01720       12.207      1
    1    10     2     4     1     60.10055       10.735      1
    1    10    11    12     1     -7.68709       17.619      1
    1    10    11    13     1    -23.15807       17.671      1
    1    10    11    16     1    160.79185       15.637      1
    1    10    16    11     1    -25.47935       18.272      1
    2     1    10    11     1      4.49502       12.145      1
    2     1    10    16     1    -14.42160       13.543      1
    2     3     4     5     1     14.35982       10.707      1
    2     3     4     9     1    126.89604        8.490      1
    2     4     5     6     1    -63.89115       29.644      1
    2     4     5     7     1     30.90165       29.486      1
    2     4     5     8     1     55.18752       18.478      1
    2    10    11    12     1     -9.20578       21.512      1
    2    10    11    13     1    -24.15749       23.381      1
    2    10    11    16     1    159.72601       24.055      1
    2    10    16    11     1    -13.56133       15.693      1
    3     2     1    10     1    -32.03948        9.328      1
    3     2     4     5     1   -159.92410       12.167      1
    3     2     4     9     1    -60.97542       10.068      1
    3     2    10    11     1    137.72787       20.875      1
    3     2    10    16     1    124.07006       13.638      1
    3     4     2    10     1    -50.75399        8.485      1
    3     4     5     6     1    -46.57045       30.472      1
    3     4     5     7     1     47.97854       28.221      1
    3     4     5     8     1     72.76615       19.800      1
    4     2     1    10     1    -67.16475        8.528      1
    4     2    10    11     1     63.52170       20.906      1
    4     2    10    16     1     49.17700       12.916      1
    4     3     2    10     1     80.95539        8.559      1
    4     5     7     8     1   -158.18409       20.824      1
    4     5     8     7     1     32.44967       27.748      1
    5     4     2    10     1    -29.68329       12.875      1
    6     5     4     9     1   -140.75862       29.421      1
    6     5     7     8     1    -13.10069       24.601      1
    6     5     8     7     1    169.69477       28.874      1
    7     5     4     9     1    -43.47677       29.387      1
    8     5     4     9     1    -19.89345       21.720      1
    9     4     2    10     1     68.69428       14.345      1
   10    11    12    13     1     12.11964       10.801      1
   10    11    13    12     1   -164.88514       14.378      1
   10    11    13    14     1   -166.07176       19.653      1
   10    11    13    15     1     13.95867       19.141      1
   10    16    11    12     1   -148.72744       26.381      1
   10    16    11    13     1      7.06469       15.709      1
   11    12    13    14     1     -0.94992        8.593      1
   11    12    13    15     1      0.71985       28.844      1
   11    13    14    15     1      0.73277       23.451      1
   11    13    15    14     1     -0.10290       12.188      1
   12    11    10    16     1     11.68913       13.604      1
   12    11    13    14     1    178.37871       20.277      1
   12    11    13    15     1     -0.15799       13.592      1
   12    13    11    16     1     10.65499       15.725      1
   12    13    14    15     1     -0.99270       11.465      1
   12    13    15    14     1    176.22796       27.858      1
   13    11    10    16     1     -5.01392       17.095      1
   13    12    11    16     1    -19.13383       27.370      1
   14    13    11    16     1      8.19722       24.018      1
   15    13    11    16     1   -170.68194       17.021      1
