[ moleculetype ]
; name        nrexcl
res           1

[ atoms ]
;    nr  type  resnr resid  atom  cgnr     charge       mass
      1 SX4e      1 res   C1        1      0.000     54.000
      2 SN6d      1 res   C2        2      0.000     54.000
      3 TC5       1 res   C3        3      0.000     36.000

[ bonds ]
;  ai    aj   funct      b0(nm)          k(kJ/mol/nm^2)
    1     2     1      0.30612          92832.6
    1     3     1      0.29560         147381.2
    2     3     1      0.35659         121803.1

[ angles ]
;  ai    aj    ak  funct     th0(deg)        k(kJ/mol/rad^2)
    1     2     3     1     52.30585         10102.40
    1     3     2     1     55.03163          6658.37
    2     1     3     1     72.66254          6061.13

[ dihedrals ]
;  ai    aj    ak    al  funct   phi0(deg)        k(kJ/mol)   mult
