[ moleculetype ]
; name        nrexcl
res           1

[ atoms ]
;    nr  type  resnr resid  atom  cgnr     charge       mass
      1 SC4       1 res   C1        1      0.000     54.000
      2 TN6a      1 res   C2        2      0.000     36.000
      3 TC5       1 res   C3        3      0.000     36.000
      4 SN4a      1 res   C4        4      0.000     54.000
      5 TC3       1 res   C5        5      0.000     36.000
      6 TC3       1 res   C6        6      0.000     36.000
      7 SC4       1 res   C7        7      0.000     54.000
      8 TC3       1 res   C8        8      0.000     36.000
      9 TC5       1 res   C9        9      0.000     36.000
     10 TC5       1 res   C10      10      0.000     36.000
     11 TC5       1 res   C11      11      0.000     36.000
     12 SC4       1 res   C12      12      0.000     54.000
     13 TN6a      1 res   C13      13      0.000     36.000

[ constraints ]
;  ai    aj   funct      b0(nm)
    1     2     1      0.23390
   10    11     1      0.28758
    2     3     1      0.23889
    4     5     1      0.27410
    3     8     1      0.25441
    4     8     1      0.27649
    5     7     1      0.31008
    9    11     1      0.29761
    3     4     1      0.32892
    1    13     1      0.23523
    5     6     1      0.27602
    9    10     1      0.25603
   12    13     1      0.23695
    6     7     1      0.29185
    3    12     1      0.27522
    4     6     1      0.28479

[ bonds ]
;  ai    aj   funct      b0(nm)          k(kJ/mol/nm^2)
    8     9     1      0.26004           7957.0

[ angles ]
;  ai    aj    ak  funct     th0(deg)        k(kJ/mol/rad^2)
    1     2     3     1     99.47400          1436.28
    1    13    12     1    129.58896           408.78
    2     1    13     1    100.43854          1177.35
    2     3     4     1    146.25608           724.60
    2     3     8     1     93.09121           693.37
    2     3    12     1    120.15115           896.26
    3     4     5     1    125.98158           638.34
    3     4     6     1     67.42334           663.27
    3     4     8     1     48.73199          4603.03
    3     8     4     1     76.48240          1495.18
    3     8     9     1     94.43974            76.94
    3    12    13     1     77.67692          1905.47
    4     3     8     1     54.78564          2373.16
    4     3    12     1     92.16130           562.85
    4     5     6     1     62.37152          1844.66
    4     5     7     1     85.32960          1180.14
    4     6     5     1     58.48855          3295.59
    4     6     7     1     87.00181           751.85
    4     8     9     1    150.04363            24.63
    5     4     6     1     59.13982          4269.97
    5     4     8     1    122.07886           217.06
    5     6     7     1     66.12503          2437.11
    5     7     6     1     54.48680          3951.25
    6     4     8     1     86.08554           646.72
    6     5     7     1     59.38815          3179.93
    8     3    12     1    145.49131           414.26
    8     9    10     1    139.98446           241.58
    8     9    11     1     84.48842           213.55
    9    10    11     1     66.09406          7856.02
    9    11    10     1     51.85551         10153.01
   10     9    11     1     62.05043          7633.37

[ dihedrals ]
;  ai    aj    ak    al  funct   phi0(deg)        k(kJ/mol)   mult
    1     2     3     4     1     12.91667       20.915      1
    1     2     3     8     1      5.87504       21.263      1
    1     2     3    12     1   -176.53586       27.636      1
    1    13    12     3     1    176.30163       27.770      1
    2     1    13    12     1   -172.02760       29.940      1
    2     3     4     5     1    -90.02943       23.191      1
    2     3     4     6     1    -89.18624       20.131      1
    2     3     4     8     1    167.49267       19.683      1
    2     3     8     4     1     -8.95304       14.320      1
    2     3     8     9     1    143.01532       24.823      1
    2     3    12    13     1   -179.61200       26.192      1
    3     2     1    13     1    170.12794       20.979      1
    3     4     5     6     1   -177.98835       15.094      1
    3     4     5     7     1    125.29696       15.767      1
    3     4     6     5     1      1.98291       13.698      1
    3     4     6     7     1     65.98053       10.789      1
    3     4     8     9     1    100.84383       29.464      1
    3     8     4     5     1     67.16097       11.423      1
    3     8     4     6     1    114.91885        7.073      1
    3     8     9    10     1     88.06855       20.395      1
    3     8     9    11     1    118.48320       20.637      1
    4     3     8     9     1    -30.64153       20.899      1
    4     3    12    13     1     -6.82327       25.026      1
    4     5     6     7     1     76.12942        9.258      1
    4     5     7     6     1   -119.05273        7.066      1
    4     6     5     7     1    -76.12942        9.258      1
    4     6     7     5     1    124.86290        3.935      1
    4     8     3    12     1    169.37609       20.765      1
    4     8     9    10     1    160.06953       32.416      1
    4     8     9    11     1   -171.18761       31.386      1
    5     4     3     8     1    -74.30241       16.354      1
    5     4     3    12     1     93.87272       19.046      1
    5     4     6     7     1   -116.93487        7.051      1
    5     4     8     9     1    -12.21916       25.070      1
    5     6     4     8     1     48.94817       14.350      1
    6     4     3     8     1    -74.22463        7.792      1
    6     4     3    12     1     99.98206       13.706      1
    6     4     5     7     1    122.02443        4.781      1
    6     4     8     9     1     35.89866       27.266      1
    6     5     4     8     1   -119.89782       12.230      1
    7     5     4     8     1   -175.05045       14.361      1
    7     6     4     8     1    112.80016       11.453      1
    8     3    12    13     1      4.09419       23.475      1
    8     4     3    12     1     -5.85459       13.632      1
    8     9    10    11     1   -141.92506       15.000      1
    8     9    11    10     1     22.96057       11.415      1
    9     8     3    12     1    -41.85890       23.847      1
