[ moleculetype ]
; name        nrexcl
res           1

[ atoms ]
;    nr  type  resnr resid  atom  cgnr     charge       mass
      1 TC5       1 res   C1        1      0.000     36.000
      2 SN6       1 res   C2        2      0.000     54.000
      3 SN4a      1 res   C3        3      0.000     54.000
      4 TP1       1 res   C4        4      0.000     36.000
      5 SP4       1 res   C5        5      0.000     54.000
      6 TN6       1 res   C6        6      0.000     36.000
      7 TN4a      1 res   C7        7      0.000     36.000
      8 TC5       1 res   C8        8      0.000     36.000
      9 TN6a      1 res   C9        9      0.000     36.000
     10 SN6d      1 res   C10      10      0.000     54.000
     11 TC3       1 res   C11      11      0.000     36.000
     12 TC5       1 res   C12      12      0.000     36.000
     13 SN6       1 res   C13      13      0.000     54.000
     14 SN6       1 res   C14      14      0.000     54.000

[ constraints ]
;  ai    aj   funct      b0(nm)
   10    11     1      0.35343
    3     5     1      0.27168
    2     3     1      0.35324
   11    12     1      0.24458
   12    14     1      0.29142
   10    12     1      0.25072
   13    14     1      0.29631
    3     4     1      0.29307
    7     8     1      0.25840
    2     8     1      0.23606
    5     6     1      0.30219
    8    10     1      0.21164
    9    10     1      0.31433
   12    13     1      0.28905
    2     7     1      0.25679
    8     9     1      0.27564

[ bonds ]
;  ai    aj   funct      b0(nm)          k(kJ/mol/nm^2)
    1     2     1      0.26531          10764.1
    3     6     1      0.24791           5773.1

[ angles ]
;  ai    aj    ak  funct     th0(deg)        k(kJ/mol/rad^2)
    1     2     3     1    117.26725           105.33
    1     2     7     1    150.07541           147.59
    1     2     8     1     89.99067           169.34
    2     3     4     1    113.20920           190.30
    2     3     5     1    109.99240            47.12
    2     3     6     1     95.68933           198.32
    2     7     8     1     54.51013          2837.34
    2     8     7     1     62.38915          2319.61
    2     8     9     1    126.32635           814.33
    2     8    10     1    134.23750           777.29
    3     2     7     1     81.50702           216.25
    3     2     8     1    116.90924           167.31
    3     5     6     1     50.90304           307.53
    3     6     5     1     58.12023           883.72
    4     3     5     1     73.48904           296.92
    4     3     6     1    137.50229           225.73
    5     3     6     1     70.97241           459.37
    7     2     8     1     63.10068          1903.43
    7     8     9     1     65.64338          1425.65
    7     8    10     1    133.35958           324.35
    8     9    10     1     41.34142          4195.23
    8    10     9     1     59.48860           938.94
    8    10    11     1    112.73118           261.98
    8    10    12     1    152.44010           108.17
    9     8    10     1     79.16978           905.98
    9    10    11     1     55.48899           639.32
    9    10    12     1     96.68518           170.28
   10    11    12     1     45.16869          3085.97
   10    12    11     1     91.04978          1285.04
   10    12    13     1    148.26130           427.01
   10    12    14     1     89.87819           600.32
   11    10    12     1     43.78171          3034.44
   11    12    13     1    118.25800          1148.79
   11    12    14     1    169.05105           225.42
   12    13    14     1     59.69936          8656.27
   12    14    13     1     58.91424          8299.35
   13    12    14     1     61.38639          6416.70

[ dihedrals ]
;  ai    aj    ak    al  funct   phi0(deg)        k(kJ/mol)   mult
    1     2     3     4     1   -112.22391       22.157      1
    1     2     3     5     1    162.39127       23.694      1
    1     2     3     6     1     96.52294       23.447      1
    1     2     7     8     1   -164.30659       26.995      1
    1     2     8     7     1      5.49036       20.300      1
    1     2     8     9     1     16.54170       25.311      1
    1     2     8    10     1    129.76568       22.658      1
    2     3     5     6     1    103.43973       20.438      1
    2     3     6     5     1    -63.26486       24.159      1
    2     7     8     9     1      6.87059       15.654      1
    2     7     8    10     1     51.01110       10.027      1
    2     8     9    10     1    -41.96303        7.840      1
    2     8    10     9     1     49.01229       11.515      1
    2     8    10    11     1     35.54867       19.651      1
    2     8    10    12     1     33.25069       28.930      1
    3     2     7     8     1     51.14005       14.273      1
    3     2     8     7     1   -118.87960       12.886      1
    3     2     8     9     1   -108.61527       20.309      1
    3     2     8    10     1      6.62119       19.035      1
    4     3     2     7     1     41.64366       17.591      1
    4     3     2     8     1    -11.51555       16.972      1
    4     3     5     6     1     -9.45961       19.237      1
    4     3     6     5     1    160.61446       25.032      1
    5     3     2     7     1    -41.23732       17.968      1
    5     3     2     8     1    -92.97573       19.285      1
    6     3     2     7     1   -104.94814       17.028      1
    6     3     2     8     1   -157.31052       19.681      1
    7     2     8     9     1   -170.40811       15.603      1
    7     2     8    10     1    -54.06888       14.984      1
    7     8     9    10     1    -30.18457       16.404      1
    7     8    10     9     1    143.06267       17.108      1
    7     8    10    11     1    129.89470       20.124      1
    7     8    10    12     1    128.78333       27.345      1
    8     9    10    11     1    -14.71790       17.108      1
    8     9    10    12     1      0.24241       19.643      1
    8    10    11    12     1     -8.21009       26.372      1
    8    10    12    11     1   -178.06860       32.126      1
    8    10    12    13     1    -14.92211       32.383      1
    8    10    12    14     1      3.53325       29.884      1
    9     8    10    11     1    168.20333       15.087      1
    9     8    10    12     1    165.04174       29.794      1
    9    10    11    12     1    -15.58403       22.771      1
    9    10    12    11     1    168.22837       20.473      1
    9    10    12    13     1    -21.79357       25.283      1
    9    10    12    14     1     -3.47443       24.411      1
   10    11    12    13     1      8.92968       15.668      1
   10    11    12    14     1    -40.46236        3.895      1
   10    12    13    14     1   -158.85351       25.846      1
   10    12    14    13     1     14.05847       15.028      1
   11    10    12    13     1    -13.31500       20.685      1
   11    10    12    14     1      2.03057       17.818      1
   11    12    13    14     1      3.04887       21.091      1
   11    12    14    13     1    -67.47419        4.308      1
