[ moleculetype ]
; name        nrexcl
res           1

[ atoms ]
;    nr  type  resnr resid  atom  cgnr     charge       mass
      1 P1        1 res   C1        1      0.000     72.000
      2 SP1       1 res   C2        2      0.000     54.000
      3 TN4a      1 res   C3        3      0.000     36.000
      4 SN6a      1 res   C4        4      0.000     54.000
      5 SN6       1 res   C5        5      0.000     54.000

[ constraints ]
;  ai    aj   funct      b0(nm)
    1     2     1      0.25804
    3     5     1      0.26642
    2     3     1      0.24116
    4     5     1      0.28829
    3     4     1      0.25124

[ bonds ]
;  ai    aj   funct      b0(nm)          k(kJ/mol/nm^2)

[ angles ]
;  ai    aj    ak  funct     th0(deg)        k(kJ/mol/rad^2)
    1     2     3     1    161.43143           197.73
    2     3     4     1    140.29116           387.04
    2     3     5     1     73.49189           324.99
    3     4     5     1     58.69080          2596.90
    3     5     4     1     53.69420          2355.15
    4     3     5     1     67.61492          1624.35

[ dihedrals ]
;  ai    aj    ak    al  funct   phi0(deg)        k(kJ/mol)   mult
    1     2     3     4     1    -87.48349       28.538      1
    1     2     3     5     1    -77.11002       29.915      1
    2     3     4     5     1   -171.36541       18.349      1
    2     3     5     4     1      4.92552       12.901      1
