[ moleculetype ]
; name        nrexcl
res           1

[ atoms ]
;    nr  type  resnr resid  atom  cgnr     charge       mass
      1 N4a       1 res   C1        1      0.000     72.000
      2 TC5       1 res   C2        2      0.000     36.000
      3 TC3       1 res   C3        3      0.000     36.000
      4 TC5       1 res   C4        4      0.000     36.000
      5 TC3       1 res   C5        5      0.000     36.000
      6 TN6d      1 res   C6        6      0.000     36.000
      7 TC3       1 res   C7        7      0.000     36.000
      8 SN6a      1 res   C8        8      0.000     54.000
      9 TC5       1 res   C9        9      0.000     36.000
     10 TC5       1 res   C10      10      0.000     36.000
     11 TC5       1 res   C11      11      0.000     36.000
     12 TN6d      1 res   C12      12      0.000     36.000

[ constraints ]
;  ai    aj   funct      b0(nm)
    1     2     1      0.34683
   10    11     1      0.28930
    2     3     1      0.25739
    4     5     1      0.26798
    2    12     1      0.21974
    4     8     1      0.30733
    2     9     1      0.19666
    9    11     1      0.24995
    3     4     1      0.25038
    7     8     1      0.28590
    5     6     1      0.25049
    9    10     1      0.24835
    6     7     1      0.31059
    9    12     1      0.21614
    2     7     1      0.29760
    2     4     1      0.22005
    4     6     1      0.26477

[ bonds ]
;  ai    aj   funct      b0(nm)          k(kJ/mol/nm^2)

[ angles ]
;  ai    aj    ak  funct     th0(deg)        k(kJ/mol/rad^2)
    1     2     3     1     81.03235           561.12
    1     2     4     1    122.12674           432.63
    1     2     7     1     99.89808           688.47
    1     2     9     1    130.28558           474.85
    1     2    12     1     80.90323           630.52
    2     3     4     1     51.33353          4050.39
    2     4     3     1     65.99519          2575.45
    2     4     5     1    148.87923           464.15
    2     4     6     1    128.19633          1983.01
    2     4     8     1     73.11384          1231.44
    2     7     6     1     91.73118          1568.55
    2     7     8     1     66.92324          1271.41
    2     9    10     1    128.33722          1680.82
    2     9    11     1    159.66599          1495.38
    2     9    12     1     64.11943          3068.77
    2    12     9     1     53.63535          4052.81
    3     2     4     1     62.67115          3547.82
    3     2     7     1    124.16003          1256.34
    3     2     9     1    131.08094           507.08
    3     2    12     1     95.53058           683.13
    3     4     5     1    106.86322          1268.01
    3     4     6     1    162.40434          1193.45
    3     4     8     1     82.12820          1168.12
    4     2     7     1     71.18174          3079.64
    4     2     9     1    107.09588           829.13
    4     2    12     1    141.38147           326.29
    4     5     6     1     61.30071          3166.09
    4     6     5     1     62.60607          2900.91
    4     6     7     1     64.08270          5251.95
    4     8     7     1     62.38481          4306.14
    5     4     6     1     56.09315          2755.30
    5     4     8     1     76.07696          1242.26
    5     6     7     1    101.63327           720.27
    6     4     8     1     92.86047           701.90
    6     7     8     1     88.19343           902.08
    7     2     9     1     90.28254          1346.03
    7     2    12     1    139.96587           411.67
    9     2    12     1     62.24516          3169.71
    9    10    11     1     54.76679          9718.62
    9    11    10     1     54.24913         11650.99
   10     9    11     1     70.98408          6243.19
   10     9    12     1    165.25607           674.30
   11     9    12     1     96.28673          1323.94

[ dihedrals ]
;  ai    aj    ak    al  funct   phi0(deg)        k(kJ/mol)   mult
    1     2     3     4     1     45.23464        8.549      1
    1     2     4     3     1   -121.72621        9.299      1
    1     2     4     5     1    156.34593       13.562      1
    1     2     4     6     1     69.71845       13.600      1
    1     2     4     8     1    150.90922        9.972      1
    1     2     7     6     1    -44.89450       10.060      1
    1     2     7     8     1   -132.07241        9.333      1
    1     2     9    10     1    -52.24043       14.991      1
    1     2     9    11     1    128.10327       22.588      1
    1     2     9    12     1    133.93799       13.621      1
    1     2    12     9     1    -33.87680       10.772      1
    2     3     4     5     1    -33.31396        8.581      1
    2     3     4     6     1    -28.46466       19.642      1
    2     3     4     8     1   -105.00947        5.576      1
    2     4     5     6     1     69.86140        9.269      1
    2     4     6     5     1    -40.33871       10.731      1
    2     4     6     7     1   -156.29988       10.693      1
    2     4     8     7     1    107.04104        5.507      1
    2     7     6     4     1    167.97126        6.284      1
    2     7     6     5     1    118.85543       10.033      1
    2     7     8     4     1   -133.00398        3.997      1
    2     9    10    11     1     -0.88721       14.320      1
    2     9    11    10     1      0.61885       23.320      1
    2    12     9    10     1      9.78663       27.760      1
    2    12     9    11     1     -1.17033       11.443      1
    3     2     4     5     1     98.40658       13.564      1
    3     2     4     6     1     10.06734       10.689      1
    3     2     4     8     1     91.01864        5.591      1
    3     2     7     6     1   -131.93253       10.762      1
    3     2     7     8     1    141.95957        9.324      1
    3     2     9    10     1     66.90263       14.346      1
    3     2     9    11     1   -112.59358       22.026      1
    3     2     9    12     1   -109.97998       12.176      1
    3     2    12     9     1     46.89921       10.002      1
    3     4     2     7     1    -31.08393        7.095      1
    3     4     2     9     1     51.07698        8.554      1
    3     4     2    12     1    118.03807       10.737      1
    3     4     5     6     1      0.26168        9.272      1
    3     4     6     5     1    178.98952       20.923      1
    3     4     6     7     1     56.43610       19.661      1
    3     4     8     7     1     39.07404        5.585      1
    4     2     7     6     1   -165.97944        6.305      1
    4     2     7     8     1    105.10481        5.524      1
    4     2     9    10     1    132.75186       12.941      1
    4     2     9    11     1    -45.07338       21.957      1
    4     2     9    12     1    -41.93321       10.750      1
    4     2    12     9     1     98.88942       11.521      1
    4     3     2     7     1    143.86249        7.801      1
    4     3     2     9     1    -91.90071        7.800      1
    4     3     2    12     1    -33.99665        9.310      1
    4     5     6     7     1   -128.95659        7.032      1
    4     6     7     8     1   -125.92617        6.241      1
    4     8     7     6     1    134.95530        5.536      1
    5     4     2     7     1   -112.72012       11.419      1
    5     4     2     9     1    -29.77419       12.183      1
    5     4     2    12     1     34.99575       11.492      1
    5     4     6     7     1     57.12909       10.043      1
    5     4     8     7     1    -69.94637        7.819      1
    5     6     4     8     1   -109.00032        8.542      1
    5     6     7     8     1   -174.17198       10.727      1
    6     4     2     7     1    158.46857        8.561      1
    6     4     2     9     1   -118.18642       10.808      1
    6     4     2    12     1    -51.88165       10.783      1
    6     4     8     7     1   -123.00408        5.539      1
    6     5     4     8     1     78.08967        9.303      1
    6     7     2     9     1     85.99129        7.847      1
    6     7     2    12     1     45.82404       13.584      1
    7     2     4     8     1   -120.74476        5.505      1
    7     2     9    10     1   -156.08398       14.999      1
    7     2     9    11     1     25.26204       23.209      1
    7     2     9    12     1     29.03047       11.478      1
    7     2    12     9     1   -132.91312       14.268      1
    7     6     4     8     1    130.96197        5.513      1
    8     4     2     9     1    -37.90983        9.211      1
    8     4     2    12     1     29.97017        9.269      1
    8     7     2     9     1     -0.71175        8.505      1
    8     7     2    12     1    -42.21317       12.121      1
   10     9     2    12     1     -5.18428       15.704      1
   10    11     9    12     1     -5.13908       12.913      1
   11     9     2    12     1    175.20349       23.391      1
   11    10     9    12     1    172.19475       27.212      1
