[ moleculetype ]
; name        nrexcl
res           1

[ atoms ]
;    nr  type resnr resid  atom  cgnr     charge       mass
      1 SC4       1 res   C1        1      0.000     54.000
      2 TC3       1 res   C2        2      0.000     36.000
      3 TC5       1 res   C3        3      0.000     36.000
      4 N4a       1 res   C4        4      0.000     72.000
      5 SN6       1 res   C5        5      0.000     54.000
      6 SC4       1 res   C6        6      0.000     54.000
      7 TC3       1 res   C7        7      0.000     36.000
      8 SC4       1 res   C8        8      0.000     54.000
      9 SC4       1 res   C9        9      0.000     54.000
     10 TC3       1 res   C10      10      0.000     36.000
     11 TN6       1 res   C11      11      0.000     36.000
     12 SN4a      1 res   C12      12      0.000     54.000
     13 TN6       1 res   C13      13      0.000     36.000
     14 SN4a      1 res   C14      14      0.000     54.000
     15 TP1       1 res   C15      15      0.000     36.000
     16 TN6       1 res   C16      16      0.000     36.000
     17 SN4a      1 res   C17      17      0.000     54.000
     18 TP1       1 res   C18      18      0.000     36.000
     19 TN6       1 res   C19      19      0.000     36.000
     20 TN6       1 res   C20      20      0.000     36.000
     21 TN6       1 res   C21      21      0.000     36.000
     22 TN6       1 res   C22      22      0.000     36.000
     23 TN6       1 res   C23      23      0.000     36.000
     24 SN4a      1 res   C24      24      0.000     54.000
     25 TN6       1 res   C25      25      0.000     36.000
     26 TN6       1 res   C26      26      0.000     36.000
     27 TN6       1 res   C27      27      0.000     36.000
     28 TN6       1 res   C28      28      0.000     36.000
     29 TN6       1 res   C29      29      0.000     36.000
     30 SN4a      1 res   C30      30      0.000     54.000
     31 TP1       1 res   C31      31      0.000     36.000
     32 TN6       1 res   C32      32      0.000     36.000
     33 TN6       1 res   C33      33      0.000     36.000
     34 TN6       1 res   C34      34      0.000     36.000
     35 SC4       1 res   C35      35      0.000     54.000
     36 TC3       1 res   C36      36      0.000     36.000

[ bonds ]
;  ai    aj   funct      b0(nm)        k
    1     2     1      0.31257    20000
    1     3     1      0.31663    20000
    1     4     1      0.32815    20000
    2     3     1      0.25231    20000
    3     4     1      0.29499    20000
    3     5     1      0.27949    20000
    3     6     1      0.27853    20000
    5     6     1      0.27997    20000
    6     7     1      0.38203    20000
    6     8     1      0.31564    20000
    7     8     1      0.37932    20000
    8     9     1      0.26218    20000
    8    36     1      0.28054    20000
    9    10     1      0.27211    20000
    9    35     1      0.34337    20000
    9    36     1      0.31405    20000
   10    11     1      0.25823    20000
   11    12     1      0.29465    20000
   11    35     1      0.24920    20000
   12    13     1      0.25230    20000
   12    29     1      0.27579    20000
   13    14     1      0.29796    20000
   13    28     1      0.20873    20000
   14    15     1      0.28641    20000
   14    16     1      0.26329    20000
   14    23     1      0.26304    20000
   16    17     1      0.22399    20000
   16    22     1      0.23664    20000
   17    18     1      0.29293    20000
   17    19     1      0.29555    20000
   17    21     1      0.27939    20000
   19    20     1      0.26202    20000
   20    21     1      0.26015    20000
   22    23     1      0.22044    20000
   23    24     1      0.30343    20000
   24    25     1      0.28691    20000
   24    27     1      0.27593    20000
   25    26     1      0.24827    20000
   26    27     1      0.25028    20000
   28    29     1      0.21161    20000
   29    30     1      0.29929    20000
   30    31     1      0.28820    20000
   30    32     1      0.27285    20000
   30    34     1      0.29025    20000
   32    33     1      0.23931    20000
   33    34     1      0.23716    20000
