[ moleculetype ]
; name        nrexcl
res           1

[ atoms ]
;    nr  type  resnr resid  atom  cgnr     charge       mass
      1 TN3r      1 res   C1        1      0.000     36.000
      2 TN4a      1 res   C2        2      0.000     36.000
      3 SC3       1 res   C3        3      0.000     54.000
      4 SN6a      1 res   C4        4      0.000     54.000
      5 TC3       1 res   C5        5      0.000     36.000
      6 SP4       1 res   C6        6      0.000     54.000
      7 TN4a      1 res   C7        7      0.000     36.000
      8 TP1       1 res   C8        8      0.000     36.000
      9 SP4       1 res   C9        9      0.000     54.000
     10 N4a       1 res   C10      10      0.000     72.000
     11 TC5       1 res   C11      11      0.000     36.000
     12 SN6       1 res   C12      12      0.000     54.000
     13 TC5       1 res   C13      13      0.000     36.000

[ constraints ]
;  ai    aj   funct      b0(nm)
    1     2     1      0.24910
   10    11     1      0.34445
    3     5     1      0.32781
    2     3     1      0.27323
   11    12     1      0.29658
    4     5     1      0.28423
    6     9     1      0.26736
    7     9     1      0.26638
    3     4     1      0.28294
    7     8     1      0.22757
   12    13     1      0.30979
    6     7     1      0.26763
   11    13     1      0.29790

[ bonds ]
;  ai    aj   funct      b0(nm)          k(kJ/mol/nm^2)
    3    10     1      0.48837          10532.3
    3     6     1      0.35683          12998.9

[ angles ]
;  ai    aj    ak  funct     th0(deg)        k(kJ/mol/rad^2)
    1     2     3     1     94.50526            50.73
    2     3     4     1     62.14358          1799.62
    2     3     5     1     70.79154          2842.12
    2     3     6     1    109.96010           528.64
    2     3    10     1     52.96799           998.47
    3     4     5     1     70.62590          2402.40
    3     5     4     1     54.49720          4716.30
    3     6     7     1     69.24929           239.13
    3     6     9     1    122.18669           120.32
    3    10    11     1    132.23254            28.64
    4     3     5     1     54.87694          3169.41
    4     3     6     1    115.92344           238.41
    4     3    10     1     80.60376           400.83
    5     3     6     1     62.96154           348.48
    5     3    10     1     39.37570           572.59
    6     3    10     1     58.22104           414.78
    6     7     8     1     98.19524           422.08
    6     7     9     1     60.06015          1970.20
    6     9     7     1     60.19259          1599.45
    7     6     9     1     59.74750          1101.61
    8     7     9     1     79.44831          1498.11
   10    11    12     1    146.51221           654.95
   10    11    13     1     84.77138           780.40
   11    12    13     1     58.79882          7912.03
   11    13    12     1     58.38765          5436.07
   12    11    13     1     62.81346          5534.36

[ dihedrals ]
;  ai    aj    ak    al  funct   phi0(deg)        k(kJ/mol)   mult
    1     2     3     4     1      7.82474       16.373      1
    1     2     3     5     1    -52.18462       16.355      1
    1     2     3     6     1   -103.02574       16.271      1
    1     2     3    10     1    -95.38335       17.009      1
    2     3     4     5     1     95.90431        4.757      1
    2     3     5     4     1   -110.10101        6.253      1
    2     3     6     7     1     -5.23843       25.507      1
    2     3     6     9     1     14.48871       20.034      1
    2     3    10    11     1    -37.62317       27.601      1
    3     6     7     8     1     49.37822       22.100      1
    3     6     7     9     1    -24.17640       22.802      1
    3     6     9     7     1    152.17168       23.296      1
    3    10    11    12     1   -152.03864       16.284      1
    3    10    11    13     1   -151.61030       18.508      1
    4     3     6     7     1    -78.18185       25.494      1
    4     3     6     9     1    -53.14164       20.179      1
    4     3    10    11     1    -98.97493       25.335      1
    4     5     3     6     1     14.99861       12.947      1
    4     5     3    10     1    -57.76541       10.724      1
    5     3     6     7     1    -67.49681       26.026      1
    5     3     6     9     1    -41.02446       21.046      1
    5     3    10    11     1   -140.73498       28.252      1
    5     4     3     6     1   -166.91757       11.541      1
    5     4     3    10     1    147.03736        5.522      1
    6     3    10    11     1    132.23199       25.352      1
    6     9     7     8     1     71.50141        9.193      1
    7     6     3    10     1    -20.32146       28.602      1
    8     7     6     9     1   -107.01610        5.535      1
    9     6     3    10     1      2.58379       22.476      1
   10    11    12    13     1   -179.61951       24.077      1
   10    11    13    12     1      1.85381       16.403      1
