[ moleculetype ]
; name        nrexcl
res           1

[ atoms ]
;    nr  type resnr resid  atom  cgnr     charge       mass
      1 N4a       1 res   C1        1      0.000     72.000
      2 TC4       1 res   C2        2      0.000     36.000
      3 SC3       1 res   C3        3      0.000     54.000
      4 SC4       1 res   C4        4      0.000     54.000
      5 TC5       1 res   C5        5      0.000     36.000
      6 SC3       1 res   C6        6      0.000     54.000
      7 SN4a      1 res   C7        7      0.000     54.000
      8 SN4a      1 res   C8        8      0.000     54.000
      9 TP1       1 res   C9        9      0.000     36.000
     10 TN6       1 res   C10      10      0.000     36.000
     11 TN6       1 res   C11      11      0.000     36.000
     12 TN6       1 res   C12      12      0.000     36.000
     13 TC4       1 res   C13      13      0.000     36.000
     14 TN6a      1 res   C14      14      0.000     36.000
     15 TN6       1 res   C15      15      0.000     36.000

[ bonds ]
;  ai    aj   funct      b0(nm)        k
    1     2     1      0.41589    20000
    2     3     1      0.29230    20000
    2     4     1      0.41083    20000
    3     4     1      0.28027    20000
    4     5     1      0.28964    20000
    4    15     1      0.36188    20000
    5     6     1      0.25143    20000
    5    13     1      0.30565    20000
    5    14     1      0.23278    20000
    6     7     1      0.40266    20000
    6    13     1      0.37312    20000
    7     8     1      0.30552    20000
    8     9     1      0.29438    20000
    8    10     1      0.29857    20000
    8    12     1      0.24514    20000
   10    11     1      0.26139    20000
   11    12     1      0.24859    20000
   14    15     1      0.21322    20000
