Generated with MDTraj, t= 0.0
 52
    1UNL     C1    1  -0.444  -0.180  -0.145
    1UNL     C2    2  -0.380  -0.156  -0.010
    1UNL     C3    3  -0.228  -0.133  -0.017
    1UNL     C4    4  -0.161  -0.144   0.122
    1UNL     N1    5  -0.029  -0.078   0.128
    1UNL     C5    6   0.055  -0.118   0.244
    1UNL     C6    7  -0.034   0.071   0.106
    1UNL     C7    8   0.098   0.124   0.044
    1UNL     C8    9   0.186   0.018  -0.014
    1UNL     C9   10   0.152  -0.085  -0.101
    1UNL     N2   11   0.262  -0.164  -0.122
    1UNL    C10   12   0.369  -0.114  -0.052
    1UNL    C11   13   0.502  -0.157  -0.039
    1UNL    C12   14   0.587  -0.085   0.040
    1UNL    C13   15   0.543   0.030   0.108
    1UNL    C14   16   0.414   0.074   0.098
    1UNL    C15   17   0.324   0.001   0.016
    1UNL    C16   18   0.022  -0.118  -0.162
    1UNL     O1   19  -0.003  -0.233  -0.189
    1UNL    C17   20  -0.080  -0.012  -0.192
    1UNL    C18   21  -0.191   0.003  -0.086
    1UNL    C19   22  -0.160   0.110   0.022
    1UNL    C20   23  -0.152   0.250  -0.035
    1UNL     O2   24  -0.088   0.271  -0.136
    1UNL     O3   25  -0.218   0.346   0.036
    1UNL    C21   26  -0.201   0.469  -0.026
    1UNL     H1   27  -0.432  -0.094  -0.212
    1UNL     H2   28  -0.551  -0.199  -0.137
    1UNL     H3   29  -0.399  -0.266  -0.196
    1UNL     H4   30  -0.399  -0.242   0.056
    1UNL     H5   31  -0.426  -0.070   0.040
    1UNL     H6   32  -0.185  -0.213  -0.080
    1UNL     H7   33  -0.226  -0.099   0.198
    1UNL     H8   34  -0.149  -0.249   0.150
    1UNL     H9   35   0.153  -0.070   0.238
    1UNL    H10   36   0.070  -0.225   0.244
    1UNL    H11   37   0.007  -0.089   0.337
    1UNL    H12   38  -0.046   0.116   0.206
    1UNL    H13   39   0.155   0.178   0.120
    1UNL    H14   40   0.077   0.198  -0.033
    1UNL    H15   41   0.261  -0.249  -0.178
    1UNL    H16   42   0.535  -0.244  -0.092
    1UNL    H17   43   0.689  -0.116   0.051
    1UNL    H18   44   0.612   0.085   0.170
    1UNL    H19   45   0.380   0.161   0.150
    1UNL    H20   46  -0.030   0.084  -0.209
    1UNL    H21   47  -0.125  -0.039  -0.289
    1UNL    H22   48  -0.281   0.040  -0.138
    1UNL    H23   49  -0.245   0.112   0.091
    1UNL    H24   50  -0.255   0.545   0.031
    1UNL    H25   51  -0.095   0.493  -0.029
    1UNL    H26   52  -0.241   0.463  -0.128
   0.00000   0.00000   0.00000   0.00000   0.00000   0.00000   0.00000   0.00000   0.00000
Generated with MDTraj, t= 1.0
 52
    1UNL     C1    1  -0.485  -0.191  -0.103
    1UNL     C2    2  -0.390  -0.133   0.009
    1UNL     C3    3  -0.233  -0.140  -0.016
    1UNL     C4    4  -0.161  -0.160   0.120
    1UNL     N1    5  -0.037  -0.083   0.123
    1UNL     C5    6   0.058  -0.129   0.234
    1UNL     C6    7  -0.041   0.072   0.110
    1UNL     C7    8   0.093   0.117   0.054
    1UNL     C8    9   0.181   0.022  -0.023
    1UNL     C9   10   0.156  -0.081  -0.115
    1UNL     N2   11   0.272  -0.154  -0.133
    1UNL    C10   12   0.375  -0.107  -0.059
    1UNL    C11   13   0.515  -0.127  -0.047
    1UNL    C12   14   0.585  -0.069   0.054
    1UNL    C13   15   0.520   0.019   0.142
    1UNL    C14   16   0.397   0.071   0.108
    1UNL    C15   17   0.319   0.005   0.011
    1UNL    C16   18   0.026  -0.118  -0.171
    1UNL     O1   19   0.013  -0.230  -0.213
    1UNL    C17   20  -0.082  -0.020  -0.187
    1UNL    C18   21  -0.192  -0.005  -0.080
    1UNL    C19   22  -0.165   0.106   0.017
    1UNL    C20   23  -0.140   0.245  -0.049
    1UNL     O2   24  -0.073   0.269  -0.146
    1UNL     O3   25  -0.202   0.348   0.021
    1UNL    C21   26  -0.175   0.468  -0.026
    1UNL     H1   27  -0.475  -0.144  -0.192
    1UNL     H2   28  -0.595  -0.195  -0.078
    1UNL     H3   29  -0.449  -0.292  -0.120
    1UNL     H4   30  -0.396  -0.193   0.101
    1UNL     H5   31  -0.422  -0.031   0.036
    1UNL     H6   32  -0.198  -0.221  -0.080
    1UNL     H7   33  -0.217  -0.121   0.201
    1UNL     H8   34  -0.141  -0.269   0.144
    1UNL     H9   35   0.152  -0.157   0.187
    1UNL    H10   36   0.007  -0.214   0.283
    1UNL    H11   37   0.081  -0.054   0.304
    1UNL    H12   38  -0.033   0.103   0.218
    1UNL    H13   39   0.149   0.154   0.131
    1UNL    H14   40   0.074   0.219  -0.004
    1UNL    H15   41   0.286  -0.223  -0.205
    1UNL    H16   42   0.562  -0.183  -0.117
    1UNL    H17   43   0.690  -0.097   0.075
    1UNL    H18   44   0.573   0.044   0.225
    1UNL    H19   45   0.355   0.152   0.161
    1UNL    H20   46  -0.038   0.077  -0.191
    1UNL    H21   47  -0.126  -0.037  -0.286
    1UNL    H22   48  -0.280   0.029  -0.135
    1UNL    H23   49  -0.248   0.103   0.087
    1UNL    H24   50  -0.236   0.536   0.036
    1UNL    H25   51  -0.067   0.476  -0.001
    1UNL    H26   52  -0.200   0.483  -0.130
   0.00000   0.00000   0.00000   0.00000   0.00000   0.00000   0.00000   0.00000   0.00000
Generated with MDTraj, t= 2.0
 52
    1UNL     C1    1  -0.472  -0.176  -0.126
    1UNL     C2    2  -0.395  -0.154   0.002
    1UNL     C3    3  -0.243  -0.140  -0.013
    1UNL     C4    4  -0.164  -0.166   0.120
    1UNL     N1    5  -0.036  -0.085   0.109
    1UNL     C5    6   0.069  -0.140   0.211
    1UNL     C6    7  -0.041   0.065   0.107
    1UNL     C7    8   0.096   0.128   0.059
    1UNL     C8    9   0.191   0.036  -0.016
    1UNL     C9   10   0.161  -0.053  -0.117
    1UNL     N2   11   0.267  -0.141  -0.136
    1UNL    C10   12   0.367  -0.106  -0.052
    1UNL    C11   13   0.505  -0.139  -0.046
    1UNL    C12   14   0.584  -0.082   0.045
    1UNL    C13   15   0.534   0.022   0.123
    1UNL    C14   16   0.405   0.067   0.122
    1UNL    C15   17   0.319   0.001   0.029
    1UNL    C16   18   0.027  -0.104  -0.159
    1UNL     O1   19   0.014  -0.226  -0.160
    1UNL    C17   20  -0.087  -0.018  -0.188
    1UNL    C18   21  -0.196  -0.007  -0.082
    1UNL    C19   22  -0.165   0.100   0.024
    1UNL    C20   23  -0.148   0.238  -0.048
    1UNL     O2   24  -0.094   0.253  -0.154
    1UNL     O3   25  -0.189   0.348   0.030
    1UNL    C21   26  -0.172   0.472  -0.039
    1UNL     H1   27  -0.458  -0.096  -0.190
    1UNL     H2   28  -0.583  -0.179  -0.102
    1UNL     H3   29  -0.441  -0.266  -0.177
    1UNL     H4   30  -0.431  -0.221   0.081
    1UNL     H5   31  -0.413  -0.051   0.040
    1UNL     H6   32  -0.214  -0.219  -0.081
    1UNL     H7   33  -0.218  -0.139   0.205
    1UNL     H8   34  -0.124  -0.274   0.131
    1UNL     H9   35   0.163  -0.108   0.168
    1UNL    H10   36   0.051  -0.249   0.218
    1UNL    H11   37   0.060  -0.088   0.299
    1UNL    H12   38  -0.050   0.130   0.199
    1UNL    H13   39   0.151   0.174   0.133
    1UNL    H14   40   0.079   0.222  -0.007
    1UNL    H15   41   0.252  -0.231  -0.178
    1UNL    H16   42   0.551  -0.211  -0.126
    1UNL    H17   43   0.685  -0.110   0.048
    1UNL    H18   44   0.604   0.076   0.201
    1UNL    H19   45   0.378   0.163   0.173
    1UNL    H20   46  -0.056   0.075  -0.222
    1UNL    H21   47  -0.132  -0.068  -0.274
    1UNL    H22   48  -0.287   0.018  -0.134
    1UNL    H23   49  -0.248   0.104   0.094
    1UNL    H24   50  -0.213   0.562   0.012
    1UNL    H25   51  -0.060   0.470  -0.044
    1UNL    H26   52  -0.214   0.475  -0.137
   0.00000   0.00000   0.00000   0.00000   0.00000   0.00000   0.00000   0.00000   0.00000
Generated with MDTraj, t= 3.0
 52
    1UNL     C1    1  -0.443  -0.151  -0.154
    1UNL     C2    2  -0.393  -0.159  -0.008
    1UNL     C3    3  -0.240  -0.139  -0.017
    1UNL     C4    4  -0.173  -0.151   0.121
    1UNL     N1    5  -0.043  -0.081   0.132
    1UNL     C5    6   0.058  -0.140   0.224
    1UNL     C6    7  -0.035   0.070   0.101
    1UNL     C7    8   0.098   0.120   0.056
    1UNL     C8    9   0.186   0.023  -0.011
    1UNL     C9   10   0.156  -0.084  -0.099
    1UNL     N2   11   0.266  -0.161  -0.128
    1UNL    C10   12   0.371  -0.094  -0.070
    1UNL    C11   13   0.499  -0.146  -0.046
    1UNL    C12   14   0.577  -0.078   0.042
    1UNL    C13   15   0.535   0.037   0.112
    1UNL    C14   16   0.407   0.087   0.094
    1UNL    C15   17   0.325   0.018   0.004
    1UNL    C16   18   0.027  -0.126  -0.144
    1UNL     O1   19   0.006  -0.246  -0.147
    1UNL    C17   20  -0.072  -0.022  -0.187
    1UNL    C18   21  -0.194  -0.006  -0.091
    1UNL    C19   22  -0.162   0.108   0.023
    1UNL    C20   23  -0.150   0.243  -0.042
    1UNL     O2   24  -0.106   0.256  -0.151
    1UNL     O3   25  -0.182   0.348   0.039
    1UNL    C21   26  -0.182   0.474  -0.020
    1UNL     H1   27  -0.458  -0.048  -0.197
    1UNL     H2   28  -0.536  -0.207  -0.164
    1UNL     H3   29  -0.371  -0.199  -0.215
    1UNL     H4   30  -0.404  -0.254   0.043
    1UNL     H5   31  -0.454  -0.089   0.055
    1UNL     H6   32  -0.201  -0.223  -0.075
    1UNL     H7   33  -0.229  -0.109   0.199
    1UNL     H8   34  -0.167  -0.266   0.140
    1UNL     H9   35   0.104  -0.051   0.264
    1UNL    H10   36   0.112  -0.206   0.152
    1UNL    H11   37   0.013  -0.198   0.298
    1UNL    H12   38  -0.043   0.112   0.205
    1UNL    H13   39   0.134   0.181   0.136
    1UNL    H14   40   0.088   0.192  -0.026
    1UNL    H15   41   0.277  -0.246  -0.181
    1UNL    H16   42   0.533  -0.239  -0.087
    1UNL    H17   43   0.684  -0.111   0.066
    1UNL    H18   44   0.610   0.081   0.173
    1UNL    H19   45   0.380   0.169   0.152
    1UNL    H20   46  -0.028   0.071  -0.199
    1UNL    H21   47  -0.094  -0.046  -0.291
    1UNL    H22   48  -0.279   0.032  -0.143
    1UNL    H23   49  -0.242   0.117   0.095
    1UNL    H24   50  -0.192   0.549   0.062
    1UNL    H25   51  -0.082   0.490  -0.070
    1UNL    H26   52  -0.264   0.491  -0.085
   0.00000   0.00000   0.00000   0.00000   0.00000   0.00000   0.00000   0.00000   0.00000
Generated with MDTraj, t= 4.0
 52
    1UNL     C1    1  -0.449  -0.168  -0.153
    1UNL     C2    2  -0.383  -0.142  -0.017
    1UNL     C3    3  -0.231  -0.122  -0.027
    1UNL     C4    4  -0.177  -0.140   0.120
    1UNL     N1    5  -0.035  -0.091   0.123
    1UNL     C5    6   0.040  -0.123   0.243
    1UNL     C6    7  -0.045   0.070   0.102
    1UNL     C7    8   0.088   0.120   0.032
    1UNL     C8    9   0.185  -0.000   0.004
    1UNL     C9   10   0.150  -0.109  -0.070
    1UNL     N2   11   0.268  -0.182  -0.104
    1UNL    C10   12   0.375  -0.122  -0.042
    1UNL    C11   13   0.513  -0.144  -0.038
    1UNL    C12   14   0.595  -0.046   0.013
    1UNL    C13   15   0.541   0.062   0.079
    1UNL    C14   16   0.409   0.080   0.090
    1UNL    C15   17   0.325  -0.007   0.023
    1UNL    C16   18   0.028  -0.132  -0.148
    1UNL     O1   19   0.002  -0.244  -0.192
    1UNL    C17   20  -0.063  -0.016  -0.180
    1UNL    C18   21  -0.186   0.006  -0.094
    1UNL    C19   22  -0.169   0.112   0.019
    1UNL    C20   23  -0.154   0.249  -0.038
    1UNL     O2   24  -0.115   0.267  -0.150
    1UNL     O3   25  -0.192   0.340   0.052
    1UNL    C21   26  -0.171   0.470  -0.002
    1UNL     H1   27  -0.393  -0.112  -0.239
    1UNL     H2   28  -0.553  -0.144  -0.159
    1UNL     H3   29  -0.441  -0.270  -0.178
    1UNL     H4   30  -0.417  -0.221   0.049
    1UNL     H5   31  -0.419  -0.052   0.043
    1UNL     H6   32  -0.191  -0.199  -0.092
    1UNL     H7   33  -0.244  -0.093   0.183
    1UNL     H8   34  -0.188  -0.254   0.145
    1UNL     H9   35   0.121  -0.053   0.246
    1UNL    H10   36   0.052  -0.230   0.232
    1UNL    H11   37  -0.025  -0.106   0.329
    1UNL    H12   38  -0.055   0.112   0.203
    1UNL    H13   39   0.152   0.171   0.105
    1UNL    H14   40   0.059   0.183  -0.044
    1UNL    H15   41   0.267  -0.267  -0.159
    1UNL    H16   42   0.543  -0.235  -0.073
    1UNL    H17   43   0.695  -0.058   0.001
    1UNL    H18   44   0.602   0.139   0.116
    1UNL    H19   45   0.366   0.163   0.148
    1UNL    H20   46  -0.016   0.076  -0.206
    1UNL    H21   47  -0.100  -0.041  -0.279
    1UNL    H22   48  -0.264   0.047  -0.155
    1UNL    H23   49  -0.259   0.114   0.081
    1UNL    H24   50  -0.219   0.551   0.055
    1UNL    H25   51  -0.061   0.495  -0.015
    1UNL    H26   52  -0.213   0.474  -0.098
   0.00000   0.00000   0.00000   0.00000   0.00000   0.00000   0.00000   0.00000   0.00000
Generated with MDTraj, t= 5.0
 52
    1UNL     C1    1  -0.456  -0.196  -0.155
    1UNL     C2    2  -0.386  -0.150  -0.031
    1UNL     C3    3  -0.232  -0.133  -0.043
    1UNL     C4    4  -0.169  -0.150   0.101
    1UNL     N1    5  -0.042  -0.081   0.135
    1UNL     C5    6   0.016  -0.111   0.274
    1UNL     C6    7  -0.047   0.068   0.116
    1UNL     C7    8   0.085   0.118   0.068
    1UNL     C8    9   0.177   0.009   0.005
    1UNL     C9   10   0.147  -0.095  -0.086
    1UNL     N2   11   0.259  -0.167  -0.109
    1UNL    C10   12   0.374  -0.111  -0.047
    1UNL    C11   13   0.508  -0.151  -0.039
    1UNL    C12   14   0.596  -0.068   0.013
    1UNL    C13   15   0.557   0.060   0.063
    1UNL    C14   16   0.423   0.091   0.076
    1UNL    C15   17   0.324   0.008   0.015
    1UNL    C16   18   0.023  -0.126  -0.152
    1UNL     O1   19   0.009  -0.243  -0.173
    1UNL    C17   20  -0.073  -0.021  -0.192
    1UNL    C18   21  -0.192   0.006  -0.096
    1UNL    C19   22  -0.169   0.112   0.017
    1UNL    C20   23  -0.144   0.247  -0.039
    1UNL     O2   24  -0.089   0.275  -0.146
    1UNL     O3   25  -0.183   0.337   0.054
    1UNL    C21   26  -0.168   0.465   0.000
    1UNL     H1   27  -0.448  -0.121  -0.242
    1UNL     H2   28  -0.557  -0.218  -0.137
    1UNL     H3   29  -0.406  -0.287  -0.188
    1UNL     H4   30  -0.404  -0.217   0.051
    1UNL     H5   31  -0.440  -0.057   0.008
    1UNL     H6   32  -0.199  -0.214  -0.106
    1UNL     H7   33  -0.238  -0.117   0.176
    1UNL     H8   34  -0.158  -0.263   0.121
    1UNL     H9   35   0.120  -0.102   0.257
    1UNL    H10   36  -0.025  -0.207   0.292
    1UNL    H11   37  -0.017  -0.047   0.360
    1UNL    H12   38  -0.075   0.104   0.214
    1UNL    H13   39   0.128   0.170   0.158
    1UNL    H14   40   0.063   0.191   0.001
    1UNL    H15   41   0.262  -0.251  -0.168
    1UNL    H16   42   0.534  -0.262  -0.062
    1UNL    H17   43   0.702  -0.100   0.025
    1UNL    H18   44   0.640   0.130   0.106
    1UNL    H19   45   0.388   0.176   0.132
    1UNL    H20   46  -0.014   0.074  -0.211
    1UNL    H21   47  -0.117  -0.030  -0.289
    1UNL    H22   48  -0.275   0.049  -0.150
    1UNL    H23   49  -0.268   0.131   0.065
    1UNL    H24   50  -0.217   0.535   0.067
    1UNL    H25   51  -0.063   0.498  -0.031
    1UNL    H26   52  -0.224   0.467  -0.087
   0.00000   0.00000   0.00000   0.00000   0.00000   0.00000   0.00000   0.00000   0.00000
Generated with MDTraj, t= 6.0
 52
    1UNL     C1    1  -0.431  -0.187  -0.185
    1UNL     C2    2  -0.391  -0.164  -0.035
    1UNL     C3    3  -0.242  -0.130  -0.009
    1UNL     C4    4  -0.180  -0.138   0.135
    1UNL     N1    5  -0.046  -0.075   0.144
    1UNL     C5    6   0.040  -0.134   0.261
    1UNL     C6    7  -0.038   0.068   0.111
    1UNL     C7    8   0.099   0.115   0.057
    1UNL     C8    9   0.189   0.014  -0.011
    1UNL     C9   10   0.150  -0.088  -0.095
    1UNL     N2   11   0.270  -0.158  -0.136
    1UNL    C10   12   0.374  -0.106  -0.062
    1UNL    C11   13   0.509  -0.132  -0.060
    1UNL    C12   14   0.591  -0.063   0.027
    1UNL    C13   15   0.536   0.045   0.100
    1UNL    C14   16   0.409   0.082   0.092
    1UNL    C15   17   0.328   0.003   0.009
    1UNL    C16   18   0.017  -0.130  -0.153
    1UNL     O1   19  -0.008  -0.249  -0.157
    1UNL    C17   20  -0.089  -0.029  -0.193
    1UNL    C18   21  -0.197   0.003  -0.082
    1UNL    C19   22  -0.159   0.115   0.026
    1UNL    C20   23  -0.149   0.253  -0.033
    1UNL     O2   24  -0.088   0.259  -0.140
    1UNL     O3   25  -0.196   0.350   0.041
    1UNL    C21   26  -0.155   0.473  -0.014
    1UNL     H1   27  -0.418  -0.098  -0.242
    1UNL     H2   28  -0.534  -0.215  -0.189
    1UNL     H3   29  -0.365  -0.267  -0.231
    1UNL     H4   30  -0.427  -0.248   0.021
    1UNL     H5   31  -0.451  -0.078   0.013
    1UNL     H6   32  -0.200  -0.216  -0.062
    1UNL     H7   33  -0.245  -0.091   0.211
    1UNL     H8   34  -0.164  -0.244   0.170
    1UNL     H9   35   0.117  -0.063   0.274
    1UNL    H10   36   0.077  -0.227   0.231
    1UNL    H11   37  -0.022  -0.157   0.354
    1UNL    H12   38  -0.060   0.118   0.206
    1UNL    H13   39   0.155   0.156   0.145
    1UNL    H14   40   0.090   0.199  -0.012
    1UNL    H15   41   0.254  -0.251  -0.179
    1UNL    H16   42   0.539  -0.204  -0.132
    1UNL    H17   43   0.693  -0.100   0.043
    1UNL    H18   44   0.602   0.099   0.154
    1UNL    H19   45   0.370   0.172   0.137
    1UNL    H20   46  -0.056   0.073  -0.242
    1UNL    H21   47  -0.132  -0.067  -0.283
    1UNL    H22   48  -0.285   0.040  -0.133
    1UNL    H23   49  -0.251   0.120   0.087
    1UNL    H24   50  -0.177   0.555   0.056
    1UNL    H25   51  -0.050   0.473  -0.060
    1UNL    H26   52  -0.216   0.489  -0.095
   0.00000   0.00000   0.00000   0.00000   0.00000   0.00000   0.00000   0.00000   0.00000
Generated with MDTraj, t= 7.0
 52
    1UNL     C1    1  -0.439  -0.187  -0.160
    1UNL     C2    2  -0.391  -0.173  -0.013
    1UNL     C3    3  -0.240  -0.139  -0.013
    1UNL     C4    4  -0.179  -0.138   0.127
    1UNL     N1    5  -0.038  -0.075   0.144
    1UNL     C5    6   0.058  -0.148   0.232
    1UNL     C6    7  -0.032   0.072   0.114
    1UNL     C7    8   0.109   0.121   0.061
    1UNL     C8    9   0.186   0.011   0.002
    1UNL     C9   10   0.142  -0.082  -0.093
    1UNL     N2   11   0.252  -0.156  -0.119
    1UNL    C10   12   0.369  -0.106  -0.050
    1UNL    C11   13   0.510  -0.118  -0.075
    1UNL    C12   14   0.592  -0.059   0.019
    1UNL    C13   15   0.543   0.028   0.122
    1UNL    C14   16   0.408   0.066   0.121
    1UNL    C15   17   0.323  -0.001   0.031
    1UNL    C16   18   0.013  -0.115  -0.157
    1UNL     O1   19  -0.012  -0.229  -0.183
    1UNL    C17   20  -0.094  -0.020  -0.195
    1UNL    C18   21  -0.200  -0.006  -0.087
    1UNL    C19   22  -0.153   0.108   0.025
    1UNL    C20   23  -0.138   0.245  -0.040
    1UNL     O2   24  -0.093   0.256  -0.156
    1UNL     O3   25  -0.189   0.357   0.034
    1UNL    C21   26  -0.168   0.475  -0.035
    1UNL     H1   27  -0.416  -0.105  -0.214
    1UNL     H2   28  -0.546  -0.196  -0.170
    1UNL     H3   29  -0.387  -0.273  -0.216
    1UNL     H4   30  -0.410  -0.261   0.048
    1UNL     H5   31  -0.450  -0.089   0.039
    1UNL     H6   32  -0.200  -0.229  -0.060
    1UNL     H7   33  -0.250  -0.065   0.185
    1UNL     H8   34  -0.182  -0.236   0.176
    1UNL     H9   35   0.155  -0.141   0.189
    1UNL    H10   36   0.033  -0.248   0.254
    1UNL    H11   37   0.029  -0.089   0.324
    1UNL    H12   38  -0.051   0.115   0.213
    1UNL    H13   39   0.174   0.164   0.142
    1UNL    H14   40   0.100   0.214  -0.009
    1UNL    H15   41   0.270  -0.211  -0.205
    1UNL    H16   42   0.558  -0.173  -0.150
    1UNL    H17   43   0.692  -0.079   0.025
    1UNL    H18   44   0.608   0.080   0.193
    1UNL    H19   45   0.371   0.155   0.171
    1UNL    H20   46  -0.053   0.084  -0.230
    1UNL    H21   47  -0.141  -0.039  -0.291
    1UNL    H22   48  -0.289   0.030  -0.134
    1UNL    H23   49  -0.239   0.120   0.094
    1UNL    H24   50  -0.240   0.550  -0.005
    1UNL    H25   51  -0.058   0.504  -0.023
    1UNL    H26   52  -0.179   0.456  -0.136
   0.00000   0.00000   0.00000   0.00000   0.00000   0.00000   0.00000   0.00000   0.00000
Generated with MDTraj, t= 8.0
 52
    1UNL     C1    1  -0.464  -0.198  -0.129
    1UNL     C2    2  -0.384  -0.147  -0.014
    1UNL     C3    3  -0.228  -0.137  -0.021
    1UNL     C4    4  -0.167  -0.162   0.120
    1UNL     N1    5  -0.044  -0.080   0.133
    1UNL     C5    6   0.042  -0.122   0.248
    1UNL     C6    7  -0.047   0.067   0.111
    1UNL     C7    8   0.094   0.112   0.065
    1UNL     C8    9   0.182   0.021  -0.004
    1UNL     C9   10   0.153  -0.072  -0.104
    1UNL     N2   11   0.270  -0.143  -0.136
    1UNL    C10   12   0.371  -0.101  -0.062
    1UNL    C11   13   0.501  -0.144  -0.051
    1UNL    C12   14   0.586  -0.085   0.049
    1UNL    C13   15   0.547   0.029   0.115
    1UNL    C14   16   0.421   0.079   0.092
    1UNL    C15   17   0.324   0.008   0.016
    1UNL    C16   18   0.021  -0.115  -0.166
    1UNL     O1   19   0.002  -0.230  -0.196
    1UNL    C17   20  -0.082  -0.021  -0.197
    1UNL    C18   21  -0.191  -0.002  -0.087
    1UNL    C19   22  -0.162   0.107   0.017
    1UNL    C20   23  -0.149   0.250  -0.033
    1UNL     O2   24  -0.072   0.259  -0.125
    1UNL     O3   25  -0.205   0.354   0.031
    1UNL    C21   26  -0.179   0.471  -0.033
    1UNL     H1   27  -0.453  -0.138  -0.214
    1UNL     H2   28  -0.572  -0.196  -0.113
    1UNL     H3   29  -0.430  -0.300  -0.161
    1UNL     H4   30  -0.404  -0.217   0.067
    1UNL     H5   31  -0.427  -0.047   0.022
    1UNL     H6   32  -0.186  -0.217  -0.079
    1UNL     H7   33  -0.238  -0.119   0.205
    1UNL     H8   34  -0.140  -0.266   0.136
    1UNL     H9   35   0.123  -0.053   0.259
    1UNL    H10   36   0.093  -0.216   0.239
    1UNL    H11   37  -0.031  -0.126   0.333
    1UNL    H12   38  -0.058   0.103   0.216
    1UNL    H13   39   0.145   0.166   0.150
    1UNL    H14   40   0.084   0.204  -0.011
    1UNL    H15   41   0.262  -0.236  -0.183
    1UNL    H16   42   0.526  -0.245  -0.103
    1UNL    H17   43   0.687  -0.136   0.072
    1UNL    H18   44   0.622   0.090   0.172
    1UNL    H19   45   0.397   0.177   0.126
    1UNL    H20   46  -0.041   0.074  -0.243
    1UNL    H21   47  -0.128  -0.057  -0.291
    1UNL    H22   48  -0.275   0.040  -0.144
    1UNL    H23   49  -0.251   0.102   0.081
    1UNL    H24   50  -0.199   0.552   0.037
    1UNL    H25   51  -0.067   0.464  -0.064
    1UNL    H26   52  -0.235   0.479  -0.121
   0.00000   0.00000   0.00000   0.00000   0.00000   0.00000   0.00000   0.00000   0.00000
Generated with MDTraj, t= 9.0
 52
    1UNL     C1    1  -0.441  -0.173  -0.134
    1UNL     C2    2  -0.368  -0.141  -0.007
    1UNL     C3    3  -0.218  -0.136  -0.025
    1UNL     C4    4  -0.156  -0.145   0.112
    1UNL     N1    5  -0.029  -0.080   0.117
    1UNL     C5    6   0.055  -0.112   0.240
    1UNL     C6    7  -0.035   0.066   0.109
    1UNL     C7    8   0.090   0.117   0.035
    1UNL     C8    9   0.182   0.011  -0.017
    1UNL     C9   10   0.156  -0.086  -0.114
    1UNL     N2   11   0.267  -0.165  -0.124
    1UNL    C10   12   0.371  -0.114  -0.049
    1UNL    C11   13   0.504  -0.157  -0.026
    1UNL    C12   14   0.594  -0.086   0.049
    1UNL    C13   15   0.540   0.029   0.109
    1UNL    C14   16   0.406   0.074   0.096
    1UNL    C15   17   0.320   0.003   0.012
    1UNL    C16   18   0.018  -0.118  -0.167
    1UNL     O1   19  -0.009  -0.237  -0.178
    1UNL    C17   20  -0.085  -0.016  -0.200
    1UNL    C18   21  -0.189   0.002  -0.091
    1UNL    C19   22  -0.160   0.103   0.016
    1UNL    C20   23  -0.150   0.247  -0.032
    1UNL     O2   24  -0.076   0.284  -0.120
    1UNL     O3   25  -0.229   0.339   0.038
    1UNL    C21   26  -0.211   0.470  -0.017
    1UNL     H1   27  -0.453  -0.078  -0.194
    1UNL     H2   28  -0.545  -0.202  -0.118
    1UNL     H3   29  -0.387  -0.240  -0.195
    1UNL     H4   30  -0.405  -0.217   0.063
    1UNL     H5   31  -0.405  -0.040   0.031
    1UNL     H6   32  -0.182  -0.219  -0.083
    1UNL     H7   33  -0.222  -0.088   0.191
    1UNL     H8   34  -0.131  -0.249   0.137
    1UNL     H9   35   0.156  -0.080   0.224
    1UNL    H10   36   0.065  -0.221   0.246
    1UNL    H11   37   0.021  -0.075   0.335
    1UNL    H12   38  -0.033   0.119   0.209
    1UNL    H13   39   0.143   0.197   0.101
    1UNL    H14   40   0.068   0.189  -0.050
    1UNL    H15   41   0.288  -0.238  -0.193
    1UNL    H16   42   0.537  -0.251  -0.049
    1UNL    H17   43   0.690  -0.125   0.069
    1UNL    H18   44   0.599   0.095   0.159
    1UNL    H19   45   0.365   0.162   0.146
    1UNL    H20   46  -0.038   0.072  -0.244
    1UNL    H21   47  -0.137  -0.047  -0.295
    1UNL    H22   48  -0.282   0.042  -0.138
    1UNL    H23   49  -0.251   0.106   0.079
    1UNL    H24   50  -0.273   0.543   0.036
    1UNL    H25   51  -0.102   0.496   0.015
    1UNL    H26   52  -0.220   0.469  -0.122
   0.00000   0.00000   0.00000   0.00000   0.00000   0.00000   0.00000   0.00000   0.00000
Generated with MDTraj, t= 10.0
 52
    1UNL     C1    1  -0.434  -0.151  -0.149
    1UNL     C2    2  -0.367  -0.151  -0.009
    1UNL     C3    3  -0.218  -0.119  -0.014
    1UNL     C4    4  -0.161  -0.136   0.127
    1UNL     N1    5  -0.027  -0.075   0.127
    1UNL     C5    6   0.070  -0.120   0.227
    1UNL     C6    7  -0.028   0.073   0.098
    1UNL     C7    8   0.105   0.124   0.030
    1UNL     C8    9   0.197   0.018  -0.021
    1UNL     C9   10   0.152  -0.094  -0.088
    1UNL     N2   11   0.258  -0.183  -0.102
    1UNL    C10   12   0.372  -0.128  -0.047
    1UNL    C11   13   0.504  -0.171  -0.031
    1UNL    C12   14   0.596  -0.100   0.047
    1UNL    C13   15   0.551   0.020   0.110
    1UNL    C14   16   0.425   0.068   0.098
    1UNL    C15   17   0.339   0.001   0.003
    1UNL    C16   18   0.027  -0.115  -0.158
    1UNL     O1   19  -0.002  -0.227  -0.193
    1UNL    C17   20  -0.073  -0.013  -0.195
    1UNL    C18   21  -0.186   0.011  -0.095
    1UNL    C19   22  -0.156   0.113   0.017
    1UNL    C20   23  -0.168   0.255  -0.035
    1UNL     O2   24  -0.116   0.281  -0.138
    1UNL     O3   25  -0.243   0.336   0.041
    1UNL    C21   26  -0.257   0.468  -0.012
    1UNL     H1   27  -0.425  -0.049  -0.203
    1UNL     H2   28  -0.542  -0.163  -0.142
    1UNL     H3   29  -0.397  -0.218  -0.217
    1UNL     H4   30  -0.374  -0.254   0.032
    1UNL     H5   31  -0.429  -0.085   0.058
    1UNL     H6   32  -0.181  -0.204  -0.070
    1UNL     H7   33  -0.223  -0.084   0.205
    1UNL     H8   34  -0.152  -0.245   0.150
    1UNL     H9   35   0.171  -0.139   0.190
    1UNL    H10   36   0.036  -0.220   0.252
    1UNL    H11   37   0.090  -0.059   0.310
    1UNL    H12   38  -0.025   0.130   0.194
    1UNL    H13   39   0.174   0.198   0.090
    1UNL    H14   40   0.080   0.194  -0.046
    1UNL    H15   41   0.245  -0.280  -0.129
    1UNL    H16   42   0.534  -0.264  -0.080
    1UNL    H17   43   0.694  -0.130   0.063
    1UNL    H18   44   0.629   0.078   0.168
    1UNL    H19   45   0.394   0.155   0.150
    1UNL    H20   46  -0.018   0.073  -0.214
    1UNL    H21   47  -0.106  -0.034  -0.303
    1UNL    H22   48  -0.280   0.043  -0.142
    1UNL    H23   49  -0.239   0.103   0.090
    1UNL    H24   50  -0.345   0.515   0.028
    1UNL    H25   51  -0.176   0.529   0.045
    1UNL    H26   52  -0.243   0.468  -0.119
   0.00000   0.00000   0.00000   0.00000   0.00000   0.00000   0.00000   0.00000   0.00000
Generated with MDTraj, t= 11.0
 52
    1UNL     C1    1  -0.440  -0.182  -0.139
    1UNL     C2    2  -0.384  -0.151  -0.007
    1UNL     C3    3  -0.229  -0.126  -0.028
    1UNL     C4    4  -0.150  -0.144   0.110
    1UNL     N1    5  -0.014  -0.075   0.135
    1UNL     C5    6   0.065  -0.104   0.249
    1UNL     C6    7  -0.023   0.081   0.098
    1UNL     C7    8   0.109   0.127   0.037
    1UNL     C8    9   0.200   0.021  -0.022
    1UNL     C9   10   0.157  -0.079  -0.110
    1UNL     N2   11   0.258  -0.177  -0.110
    1UNL    C10   12   0.368  -0.127  -0.045
    1UNL    C11   13   0.494  -0.182  -0.025
    1UNL    C12   14   0.576  -0.110   0.051
    1UNL    C13   15   0.547   0.018   0.108
    1UNL    C14   16   0.426   0.065   0.087
    1UNL    C15   17   0.337  -0.003   0.003
    1UNL    C16   18   0.027  -0.110  -0.171
    1UNL     O1   19   0.006  -0.227  -0.197
    1UNL    C17   20  -0.075   0.002  -0.196
    1UNL    C18   21  -0.191   0.013  -0.093
    1UNL    C19   22  -0.152   0.112   0.027
    1UNL    C20   23  -0.157   0.255  -0.023
    1UNL     O2   24  -0.088   0.285  -0.116
    1UNL     O3   25  -0.244   0.343   0.042
    1UNL    C21   26  -0.269   0.462  -0.033
    1UNL     H1   27  -0.415  -0.100  -0.212
    1UNL     H2   28  -0.548  -0.183  -0.133
    1UNL     H3   29  -0.408  -0.271  -0.187
    1UNL     H4   30  -0.398  -0.242   0.059
    1UNL     H5   31  -0.430  -0.070   0.052
    1UNL     H6   32  -0.203  -0.207  -0.095
    1UNL     H7   33  -0.214  -0.128   0.193
    1UNL     H8   34  -0.117  -0.253   0.115
    1UNL     H9   35   0.126  -0.021   0.288
    1UNL    H10   36   0.134  -0.189   0.241
    1UNL    H11   37   0.005  -0.113   0.332
    1UNL    H12   38  -0.025   0.126   0.200
    1UNL    H13   39   0.166   0.194   0.115
    1UNL    H14   40   0.098   0.194  -0.042
    1UNL    H15   41   0.256  -0.259  -0.169
    1UNL    H16   42   0.520  -0.281  -0.069
    1UNL    H17   43   0.679  -0.155   0.087
    1UNL    H18   44   0.622   0.068   0.159
    1UNL    H19   45   0.385   0.160   0.126
    1UNL    H20   46  -0.038   0.096  -0.219
    1UNL    H21   47  -0.106  -0.025  -0.304
    1UNL    H22   48  -0.279   0.060  -0.142
    1UNL    H23   49  -0.234   0.109   0.101
    1UNL    H24   50  -0.288   0.541   0.039
    1UNL    H25   51  -0.171   0.500  -0.078
    1UNL    H26   52  -0.344   0.439  -0.107
   0.00000   0.00000   0.00000   0.00000   0.00000   0.00000   0.00000   0.00000   0.00000
Generated with MDTraj, t= 12.0
 52
    1UNL     C1    1  -0.436  -0.201  -0.131
    1UNL     C2    2  -0.367  -0.157   0.001
    1UNL     C3    3  -0.214  -0.124  -0.011
    1UNL     C4    4  -0.138  -0.140   0.129
    1UNL     N1    5  -0.010  -0.065   0.138
    1UNL     C5    6   0.075  -0.110   0.252
    1UNL     C6    7  -0.027   0.082   0.102
    1UNL     C7    8   0.105   0.134   0.045
    1UNL     C8    9   0.183   0.016  -0.024
    1UNL     C9   10   0.156  -0.077  -0.124
    1UNL     N2   11   0.263  -0.166  -0.143
    1UNL    C10   12   0.361  -0.137  -0.046
    1UNL    C11   13   0.499  -0.174  -0.032
    1UNL    C12   14   0.579  -0.104   0.048
    1UNL    C13   15   0.528   0.008   0.120
    1UNL    C14   16   0.400   0.051   0.106
    1UNL    C15   17   0.314  -0.019   0.022
    1UNL    C16   18   0.027  -0.103  -0.181
    1UNL     O1   19   0.005  -0.216  -0.213
    1UNL    C17   20  -0.081   0.003  -0.198
    1UNL    C18   21  -0.189   0.011  -0.083
    1UNL    C19   22  -0.155   0.120   0.028
    1UNL    C20   23  -0.159   0.259  -0.037
    1UNL     O2   24  -0.069   0.282  -0.114
    1UNL     O3   25  -0.260   0.335   0.008
    1UNL    C21   26  -0.245   0.470  -0.025
    1UNL     H1   27  -0.452  -0.109  -0.183
    1UNL     H2   28  -0.536  -0.235  -0.104
    1UNL     H3   29  -0.377  -0.268  -0.197
    1UNL     H4   30  -0.389  -0.229   0.085
    1UNL     H5   31  -0.416  -0.067   0.040
    1UNL     H6   32  -0.170  -0.203  -0.068
    1UNL     H7   33  -0.199  -0.105   0.205
    1UNL     H8   34  -0.117  -0.252   0.146
    1UNL     H9   35   0.181  -0.077   0.245
    1UNL    H10   36   0.085  -0.217   0.260
    1UNL    H11   37   0.054  -0.066   0.346
    1UNL    H12   38  -0.045   0.131   0.199
    1UNL    H13   39   0.170   0.171   0.130
    1UNL    H14   40   0.082   0.212  -0.025
    1UNL    H15   41   0.253  -0.254  -0.190
    1UNL    H16   42   0.531  -0.255  -0.086
    1UNL    H17   43   0.678  -0.128   0.065
    1UNL    H18   44   0.592   0.077   0.182
    1UNL    H19   45   0.374   0.146   0.144
    1UNL    H20   46  -0.031   0.097  -0.218
    1UNL    H21   47  -0.138  -0.008  -0.296
    1UNL    H22   48  -0.282   0.041  -0.136
    1UNL    H23   49  -0.243   0.136   0.094
    1UNL    H24   50  -0.260   0.537   0.058
    1UNL    H25   51  -0.137   0.494  -0.052
    1UNL    H26   52  -0.304   0.486  -0.115
   0.00000   0.00000   0.00000   0.00000   0.00000   0.00000   0.00000   0.00000   0.00000
Generated with MDTraj, t= 13.0
 52
    1UNL     C1    1  -0.423  -0.204  -0.142
    1UNL     C2    2  -0.362  -0.180  -0.003
    1UNL     C3    3  -0.209  -0.140  -0.007
    1UNL     C4    4  -0.156  -0.131   0.137
    1UNL     N1    5  -0.024  -0.059   0.138
    1UNL     C5    6   0.070  -0.098   0.250
    1UNL     C6    7  -0.028   0.089   0.114
    1UNL     C7    8   0.103   0.139   0.041
    1UNL     C8    9   0.189   0.024  -0.023
    1UNL     C9   10   0.153  -0.074  -0.113
    1UNL     N2   11   0.259  -0.162  -0.142
    1UNL    C10   12   0.368  -0.117  -0.069
    1UNL    C11   13   0.500  -0.161  -0.054
    1UNL    C12   14   0.575  -0.118   0.053
    1UNL    C13   15   0.526  -0.022   0.134
    1UNL    C14   16   0.406   0.046   0.111
    1UNL    C15   17   0.330  -0.006   0.010
    1UNL    C16   18   0.024  -0.102  -0.177
    1UNL     O1   19   0.013  -0.213  -0.223
    1UNL    C17   20  -0.092  -0.001  -0.185
    1UNL    C18   21  -0.196   0.004  -0.063
    1UNL    C19   22  -0.162   0.118   0.036
    1UNL    C20   23  -0.155   0.260  -0.027
    1UNL     O2   24  -0.081   0.273  -0.124
    1UNL     O3   25  -0.241   0.352   0.023
    1UNL    C21   26  -0.240   0.471  -0.049
    1UNL     H1   27  -0.407  -0.124  -0.203
    1UNL     H2   28  -0.530  -0.215  -0.140
    1UNL     H3   29  -0.365  -0.288  -0.194
    1UNL     H4   30  -0.360  -0.280   0.052
    1UNL     H5   31  -0.423  -0.122   0.066
    1UNL     H6   32  -0.153  -0.210  -0.065
    1UNL     H7   33  -0.228  -0.070   0.180
    1UNL     H8   34  -0.157  -0.231   0.194
    1UNL     H9   35   0.173  -0.106   0.219
    1UNL    H10   36   0.049  -0.193   0.296
    1UNL    H11   37   0.076  -0.019   0.325
    1UNL    H12   38  -0.036   0.125   0.216
    1UNL    H13   39   0.159   0.184   0.125
    1UNL    H14   40   0.071   0.212  -0.040
    1UNL    H15   41   0.242  -0.236  -0.209
    1UNL    H16   42   0.526  -0.251  -0.115
    1UNL    H17   43   0.671  -0.163   0.069
    1UNL    H18   44   0.593   0.007   0.209
    1UNL    H19   45   0.377   0.131   0.171
    1UNL    H20   46  -0.058   0.107  -0.210
    1UNL    H21   47  -0.144  -0.029  -0.279
    1UNL    H22   48  -0.292   0.024  -0.115
    1UNL    H23   49  -0.257   0.132   0.093
    1UNL    H24   50  -0.333   0.521  -0.059
    1UNL    H25   51  -0.157   0.535  -0.007
    1UNL    H26   52  -0.208   0.441  -0.149
   0.00000   0.00000   0.00000   0.00000   0.00000   0.00000   0.00000   0.00000   0.00000
Generated with MDTraj, t= 14.0
 52
    1UNL     C1    1  -0.394  -0.218  -0.145
    1UNL     C2    2  -0.344  -0.179  -0.014
    1UNL     C3    3  -0.199  -0.134  -0.004
    1UNL     C4    4  -0.152  -0.135   0.139
    1UNL     N1    5  -0.025  -0.059   0.136
    1UNL     C5    6   0.053  -0.095   0.261
    1UNL     C6    7  -0.024   0.087   0.112
    1UNL     C7    8   0.107   0.138   0.045
    1UNL     C8    9   0.185   0.021  -0.013
    1UNL     C9   10   0.147  -0.071  -0.110
    1UNL     N2   11   0.249  -0.156  -0.134
    1UNL    C10   12   0.362  -0.118  -0.066
    1UNL    C11   13   0.485  -0.176  -0.052
    1UNL    C12   14   0.560  -0.118   0.042
    1UNL    C13   15   0.531  -0.009   0.122
    1UNL    C14   16   0.405   0.051   0.106
    1UNL    C15   17   0.324  -0.007   0.012
    1UNL    C16   18   0.017  -0.098  -0.176
    1UNL     O1   19  -0.008  -0.211  -0.206
    1UNL    C17   20  -0.089   0.006  -0.199
    1UNL    C18   21  -0.184   0.013  -0.072
    1UNL    C19   22  -0.153   0.120   0.031
    1UNL    C20   23  -0.154   0.255  -0.036
    1UNL     O2   24  -0.088   0.268  -0.138
    1UNL     O3   25  -0.229   0.348   0.031
    1UNL    C21   26  -0.235   0.467  -0.032
    1UNL     H1   27  -0.379  -0.134  -0.206
    1UNL     H2   28  -0.500  -0.235  -0.156
    1UNL     H3   29  -0.328  -0.298  -0.193
    1UNL     H4   30  -0.363  -0.254   0.069
    1UNL     H5   31  -0.404  -0.096   0.020
    1UNL     H6   32  -0.146  -0.209  -0.059
    1UNL     H7   33  -0.229  -0.098   0.202
    1UNL     H8   34  -0.135  -0.244   0.167
    1UNL     H9   35   0.103  -0.006   0.294
    1UNL    H10   36   0.121  -0.176   0.254
    1UNL    H11   37  -0.020  -0.115   0.344
    1UNL    H12   38  -0.027   0.117   0.217
    1UNL    H13   39   0.180   0.200   0.097
    1UNL    H14   40   0.070   0.206  -0.038
    1UNL    H15   41   0.236  -0.245  -0.182
    1UNL    H16   42   0.514  -0.265  -0.100
    1UNL    H17   43   0.662  -0.172   0.059
    1UNL    H18   44   0.605   0.038   0.191
    1UNL    H19   45   0.379   0.136   0.174
    1UNL    H20   46  -0.027   0.103  -0.221
    1UNL    H21   47  -0.147  -0.013  -0.292
    1UNL    H22   48  -0.286   0.030  -0.119
    1UNL    H23   49  -0.240   0.134   0.097
    1UNL    H24   50  -0.340   0.488  -0.036
    1UNL    H25   51  -0.165   0.530   0.028
    1UNL    H26   52  -0.199   0.454  -0.135
   0.00000   0.00000   0.00000   0.00000   0.00000   0.00000   0.00000   0.00000   0.00000
Generated with MDTraj, t= 15.0
 52
    1UNL     C1    1  -0.388  -0.227  -0.147
    1UNL     C2    2  -0.349  -0.175  -0.010
    1UNL     C3    3  -0.210  -0.131  -0.010
    1UNL     C4    4  -0.154  -0.131   0.132
    1UNL     N1    5  -0.029  -0.052   0.140
    1UNL     C5    6   0.057  -0.079   0.258
    1UNL     C6    7  -0.032   0.090   0.106
    1UNL     C7    8   0.098   0.125   0.020
    1UNL     C8    9   0.183   0.001  -0.018
    1UNL     C9   10   0.147  -0.096  -0.109
    1UNL     N2   11   0.259  -0.175  -0.133
    1UNL    C10   12   0.356  -0.137  -0.046
    1UNL    C11   13   0.489  -0.186  -0.021
    1UNL    C12   14   0.578  -0.107   0.049
    1UNL    C13   15   0.537   0.018   0.096
    1UNL    C14   16   0.409   0.058   0.095
    1UNL    C15   17   0.317  -0.019   0.019
    1UNL    C16   18   0.022  -0.107  -0.181
    1UNL     O1   19   0.001  -0.216  -0.232
    1UNL    C17   20  -0.086   0.000  -0.195
    1UNL    C18   21  -0.191   0.010  -0.080
    1UNL    C19   22  -0.161   0.117   0.027
    1UNL    C20   23  -0.164   0.263  -0.031
    1UNL     O2   24  -0.082   0.290  -0.116
    1UNL     O3   25  -0.249   0.348   0.031
    1UNL    C21   26  -0.220   0.487   0.002
    1UNL     H1   27  -0.401  -0.137  -0.207
    1UNL     H2   28  -0.484  -0.275  -0.150
    1UNL     H3   29  -0.300  -0.280  -0.190
    1UNL     H4   30  -0.356  -0.264   0.062
    1UNL     H5   31  -0.412  -0.098   0.032
    1UNL     H6   32  -0.156  -0.206  -0.063
    1UNL     H7   33  -0.232  -0.073   0.182
    1UNL     H8   34  -0.151  -0.229   0.184
    1UNL     H9   35   0.153  -0.050   0.223
    1UNL    H10   36   0.046  -0.178   0.294
    1UNL    H11   37   0.024  -0.007   0.339
    1UNL    H12   38  -0.025   0.145   0.201
    1UNL    H13   39   0.155   0.205   0.059
    1UNL    H14   40   0.083   0.169  -0.085
    1UNL    H15   41   0.262  -0.250  -0.203
    1UNL    H16   42   0.522  -0.278  -0.070
    1UNL    H17   43   0.671  -0.141   0.065
    1UNL    H18   44   0.616   0.080   0.142
    1UNL    H19   45   0.387   0.149   0.140
    1UNL    H20   46  -0.045   0.101  -0.214
    1UNL    H21   47  -0.130  -0.030  -0.295
    1UNL    H22   48  -0.289   0.035  -0.133
    1UNL    H23   49  -0.249   0.125   0.094
    1UNL    H24   50  -0.264   0.554   0.073
    1UNL    H25   51  -0.110   0.483  -0.017
    1UNL    H26   52  -0.273   0.506  -0.094
   0.00000   0.00000   0.00000   0.00000   0.00000   0.00000   0.00000   0.00000   0.00000
Generated with MDTraj, t= 16.0
 52
    1UNL     C1    1  -0.398  -0.216  -0.159
    1UNL     C2    2  -0.350  -0.169  -0.018
    1UNL     C3    3  -0.208  -0.127  -0.014
    1UNL     C4    4  -0.144  -0.131   0.131
    1UNL     N1    5  -0.014  -0.056   0.141
    1UNL     C5    6   0.058  -0.083   0.272
    1UNL     C6    7  -0.034   0.086   0.106
    1UNL     C7    8   0.097   0.136   0.029
    1UNL     C8    9   0.182   0.021  -0.019
    1UNL     C9   10   0.143  -0.093  -0.100
    1UNL     N2   11   0.244  -0.180  -0.118
    1UNL    C10   12   0.352  -0.127  -0.046
    1UNL    C11   13   0.483  -0.184  -0.024
    1UNL    C12   14   0.574  -0.118   0.051
    1UNL    C13   15   0.536   0.010   0.100
    1UNL    C14   16   0.414   0.066   0.079
    1UNL    C15   17   0.316  -0.001   0.007
    1UNL    C16   18   0.017  -0.110  -0.175
    1UNL     O1   19   0.005  -0.220  -0.227
    1UNL    C17   20  -0.083   0.002  -0.196
    1UNL    C18   21  -0.192   0.010  -0.089
    1UNL    C19   22  -0.158   0.116   0.022
    1UNL    C20   23  -0.155   0.257  -0.032
    1UNL     O2   24  -0.093   0.281  -0.130
    1UNL     O3   25  -0.217   0.346   0.052
    1UNL    C21   26  -0.240   0.470  -0.006
    1UNL     H1   27  -0.371  -0.133  -0.234
    1UNL     H2   28  -0.504  -0.220  -0.170
    1UNL     H3   29  -0.339  -0.299  -0.194
    1UNL     H4   30  -0.347  -0.261   0.052
    1UNL     H5   31  -0.412  -0.095   0.030
    1UNL     H6   32  -0.147  -0.207  -0.051
    1UNL     H7   33  -0.217  -0.110   0.212
    1UNL     H8   34  -0.115  -0.232   0.147
    1UNL     H9   35   0.148  -0.022   0.274
    1UNL    H10   36   0.072  -0.189   0.280
    1UNL    H11   37  -0.016  -0.054   0.347
    1UNL    H12   38  -0.031   0.148   0.199
    1UNL    H13   39   0.156   0.196   0.090
    1UNL    H14   40   0.080   0.205  -0.060
    1UNL    H15   41   0.248  -0.264  -0.175
    1UNL    H16   42   0.505  -0.279  -0.070
    1UNL    H17   43   0.676  -0.156   0.081
    1UNL    H18   44   0.604   0.054   0.159
    1UNL    H19   45   0.395   0.166   0.121
    1UNL    H20   46  -0.033   0.092  -0.205
    1UNL    H21   47  -0.131  -0.024  -0.297
    1UNL    H22   48  -0.291   0.042  -0.136
    1UNL    H23   49  -0.242   0.131   0.093
    1UNL    H24   50  -0.258   0.542   0.069
    1UNL    H25   51  -0.160   0.485  -0.084
    1UNL    H26   52  -0.342   0.460  -0.056
   0.00000   0.00000   0.00000   0.00000   0.00000   0.00000   0.00000   0.00000   0.00000
Generated with MDTraj, t= 17.0
 52
    1UNL     C1    1  -0.415  -0.206  -0.145
    1UNL     C2    2  -0.360  -0.183  -0.010
    1UNL     C3    3  -0.215  -0.125  -0.012
    1UNL     C4    4  -0.142  -0.124   0.127
    1UNL     N1    5  -0.008  -0.062   0.145
    1UNL     C5    6   0.068  -0.112   0.259
    1UNL     C6    7  -0.024   0.087   0.104
    1UNL     C7    8   0.106   0.135   0.032
    1UNL     C8    9   0.191   0.023  -0.019
    1UNL     C9   10   0.155  -0.071  -0.113
    1UNL     N2   11   0.256  -0.168  -0.121
    1UNL    C10   12   0.367  -0.125  -0.056
    1UNL    C11   13   0.495  -0.183  -0.036
    1UNL    C12   14   0.574  -0.118   0.056
    1UNL    C13   15   0.537  -0.002   0.126
    1UNL    C14   16   0.420   0.055   0.099
    1UNL    C15   17   0.324  -0.005   0.012
    1UNL    C16   18   0.022  -0.096  -0.175
    1UNL     O1   19  -0.007  -0.209  -0.211
    1UNL    C17   20  -0.077   0.010  -0.188
    1UNL    C18   21  -0.194   0.013  -0.084
    1UNL    C19   22  -0.162   0.116   0.023
    1UNL    C20   23  -0.172   0.250  -0.040
    1UNL     O2   24  -0.146   0.268  -0.153
    1UNL     O3   25  -0.218   0.348   0.042
    1UNL    C21   26  -0.222   0.477  -0.021
    1UNL     H1   27  -0.418  -0.101  -0.195
    1UNL     H2   28  -0.521  -0.226  -0.149
    1UNL     H3   29  -0.357  -0.260  -0.214
    1UNL     H4   30  -0.362  -0.287   0.042
    1UNL     H5   31  -0.415  -0.112   0.049
    1UNL     H6   32  -0.163  -0.199  -0.067
    1UNL     H7   33  -0.209  -0.079   0.205
    1UNL     H8   34  -0.133  -0.223   0.157
    1UNL     H9   35   0.170  -0.069   0.254
    1UNL    H10   36   0.062  -0.221   0.248
    1UNL    H11   37   0.008  -0.096   0.346
    1UNL    H12   38  -0.014   0.133   0.206
    1UNL    H13   39   0.166   0.199   0.089
    1UNL    H14   40   0.070   0.195  -0.054
    1UNL    H15   41   0.245  -0.258  -0.170
    1UNL    H16   42   0.518  -0.277  -0.084
    1UNL    H17   43   0.671  -0.170   0.074
    1UNL    H18   44   0.612   0.048   0.202
    1UNL    H19   45   0.389   0.146   0.147
    1UNL    H20   46  -0.022   0.097  -0.188
    1UNL    H21   47  -0.121  -0.002  -0.294
    1UNL    H22   48  -0.294   0.037  -0.134
    1UNL    H23   49  -0.235   0.113   0.105
    1UNL    H24   50  -0.282   0.546   0.031
    1UNL    H25   51  -0.119   0.507  -0.048
    1UNL    H26   52  -0.279   0.466  -0.120
   0.00000   0.00000   0.00000   0.00000   0.00000   0.00000   0.00000   0.00000   0.00000
Generated with MDTraj, t= 18.0
 52
    1UNL     C1    1  -0.439  -0.205  -0.137
    1UNL     C2    2  -0.374  -0.164  -0.000
    1UNL     C3    3  -0.221  -0.135  -0.007
    1UNL     C4    4  -0.146  -0.141   0.131
    1UNL     N1    5  -0.018  -0.064   0.134
    1UNL     C5    6   0.087  -0.089   0.242
    1UNL     C6    7  -0.026   0.083   0.099
    1UNL     C7    8   0.097   0.134   0.016
    1UNL     C8    9   0.186   0.028  -0.030
    1UNL     C9   10   0.154  -0.071  -0.123
    1UNL     N2   11   0.261  -0.156  -0.142
    1UNL    C10   12   0.364  -0.117  -0.056
    1UNL    C11   13   0.492  -0.162  -0.035
    1UNL    C12   14   0.569  -0.102   0.064
    1UNL    C13   15   0.519   0.005   0.143
    1UNL    C14   16   0.392   0.053   0.117
    1UNL    C15   17   0.314  -0.009   0.017
    1UNL    C16   18   0.026  -0.112  -0.180
    1UNL     O1   19   0.016  -0.228  -0.216
    1UNL    C17   20  -0.094  -0.017  -0.201
    1UNL    C18   21  -0.192   0.004  -0.079
    1UNL    C19   22  -0.159   0.112   0.021
    1UNL    C20   23  -0.154   0.248  -0.035
    1UNL     O2   24  -0.120   0.269  -0.144
    1UNL     O3   25  -0.198   0.346   0.051
    1UNL    C21   26  -0.196   0.476  -0.007
    1UNL     H1   27  -0.429  -0.125  -0.215
    1UNL     H2   28  -0.548  -0.212  -0.123
    1UNL     H3   29  -0.393  -0.289  -0.181
    1UNL     H4   30  -0.375  -0.259   0.065
    1UNL     H5   31  -0.438  -0.086   0.039
    1UNL     H6   32  -0.187  -0.211  -0.072
    1UNL     H7   33  -0.211  -0.101   0.215
    1UNL     H8   34  -0.125  -0.238   0.157
    1UNL     H9   35   0.188  -0.062   0.206
    1UNL    H10   36   0.082  -0.197   0.270
    1UNL    H11   37   0.062  -0.048   0.335
    1UNL    H12   38  -0.026   0.146   0.190
    1UNL    H13   39   0.152   0.196   0.083
    1UNL    H14   40   0.062   0.198  -0.064
    1UNL    H15   41   0.274  -0.233  -0.209
    1UNL    H16   42   0.532  -0.247  -0.089
    1UNL    H17   43   0.667  -0.129   0.075
    1UNL    H18   44   0.592   0.055   0.209
    1UNL    H19   45   0.358   0.142   0.169
    1UNL    H20   46  -0.072   0.082  -0.243
    1UNL    H21   47  -0.148  -0.066  -0.287
    1UNL    H22   48  -0.291   0.032  -0.124
    1UNL    H23   49  -0.242   0.120   0.094
    1UNL    H24   50  -0.244   0.548   0.050
    1UNL    H25   51  -0.094   0.502  -0.036
    1UNL    H26   52  -0.256   0.472  -0.104
   0.00000   0.00000   0.00000   0.00000   0.00000   0.00000   0.00000   0.00000   0.00000
Generated with MDTraj, t= 19.0
 52
    1UNL     C1    1  -0.452  -0.210  -0.120
    1UNL     C2    2  -0.364  -0.163  -0.001
    1UNL     C3    3  -0.211  -0.146  -0.029
    1UNL     C4    4  -0.143  -0.159   0.111
    1UNL     N1    5  -0.030  -0.074   0.134
    1UNL     C5    6   0.051  -0.099   0.257
    1UNL     C6    7  -0.033   0.073   0.108
    1UNL     C7    8   0.095   0.125   0.037
    1UNL     C8    9   0.182   0.020  -0.031
    1UNL     C9   10   0.153  -0.081  -0.119
    1UNL     N2   11   0.265  -0.163  -0.143
    1UNL    C10   12   0.366  -0.112  -0.061
    1UNL    C11   13   0.490  -0.164  -0.022
    1UNL    C12   14   0.566  -0.095   0.074
    1UNL    C13   15   0.520   0.027   0.128
    1UNL    C14   16   0.398   0.086   0.090
    1UNL    C15   17   0.316   0.007  -0.003
    1UNL    C16   18   0.023  -0.111  -0.180
    1UNL     O1   19  -0.002  -0.223  -0.208
    1UNL    C17   20  -0.083  -0.002  -0.202
    1UNL    C18   21  -0.182  -0.004  -0.083
    1UNL    C19   22  -0.156   0.111   0.027
    1UNL    C20   23  -0.152   0.253  -0.036
    1UNL     O2   24  -0.111   0.272  -0.145
    1UNL     O3   25  -0.195   0.350   0.046
    1UNL    C21   26  -0.168   0.473  -0.002
    1UNL     H1   27  -0.473  -0.133  -0.187
    1UNL     H2   28  -0.555  -0.230  -0.079
    1UNL     H3   29  -0.409  -0.287  -0.183
    1UNL     H4   30  -0.382  -0.242   0.081
    1UNL     H5   31  -0.396  -0.067   0.037
    1UNL     H6   32  -0.177  -0.213  -0.103
    1UNL     H7   33  -0.215  -0.149   0.199
    1UNL     H8   34  -0.109  -0.256   0.117
    1UNL     H9   35   0.138  -0.034   0.264
    1UNL    H10   36   0.090  -0.204   0.260
    1UNL    H11   37  -0.001  -0.099   0.350
    1UNL    H12   38  -0.051   0.136   0.196
    1UNL    H13   39   0.160   0.157   0.116
    1UNL    H14   40   0.079   0.206  -0.025
    1UNL    H15   41   0.249  -0.261  -0.172
    1UNL    H16   42   0.526  -0.255  -0.062
    1UNL    H17   43   0.669  -0.143   0.099
    1UNL    H18   44   0.574   0.071   0.197
    1UNL    H19   45   0.369   0.182   0.134
    1UNL    H20   46  -0.039   0.104  -0.223
    1UNL    H21   47  -0.148  -0.018  -0.290
    1UNL    H22   48  -0.278   0.030  -0.133
    1UNL    H23   49  -0.238   0.118   0.100
    1UNL    H24   50  -0.165   0.547   0.071
    1UNL    H25   51  -0.072   0.472  -0.052
    1UNL    H26   52  -0.242   0.499  -0.086
   0.00000   0.00000   0.00000   0.00000   0.00000   0.00000   0.00000   0.00000   0.00000
Generated with MDTraj, t= 20.0
 52
    1UNL     C1    1  -0.435  -0.188  -0.151
    1UNL     C2    2  -0.375  -0.171  -0.017
    1UNL     C3    3  -0.221  -0.141  -0.019
    1UNL     C4    4  -0.159  -0.140   0.125
    1UNL     N1    5  -0.026  -0.078   0.115
    1UNL     C5    6   0.064  -0.114   0.220
    1UNL     C6    7  -0.036   0.076   0.095
    1UNL     C7    8   0.092   0.133   0.031
    1UNL     C8    9   0.190   0.031  -0.016
    1UNL     C9   10   0.149  -0.078  -0.092
    1UNL     N2   11   0.244  -0.173  -0.084
    1UNL    C10   12   0.363  -0.121  -0.031
    1UNL    C11   13   0.494  -0.167  -0.035
    1UNL    C12   14   0.585  -0.084   0.031
    1UNL    C13   15   0.550   0.038   0.099
    1UNL    C14   16   0.417   0.075   0.097
    1UNL    C15   17   0.323   0.002   0.027
    1UNL    C16   18   0.023  -0.107  -0.168
    1UNL     O1   19   0.002  -0.219  -0.200
    1UNL    C17   20  -0.085  -0.011  -0.195
    1UNL    C18   21  -0.190  -0.004  -0.083
    1UNL    C19   22  -0.167   0.108   0.023
    1UNL    C20   23  -0.160   0.246  -0.036
    1UNL     O2   24  -0.132   0.266  -0.155
    1UNL     O3   25  -0.187   0.347   0.057
    1UNL    C21   26  -0.176   0.467  -0.000
    1UNL     H1   27  -0.423  -0.112  -0.218
    1UNL     H2   28  -0.546  -0.185  -0.142
    1UNL     H3   29  -0.397  -0.274  -0.207
    1UNL     H4   30  -0.389  -0.255   0.058
    1UNL     H5   31  -0.424  -0.086   0.029
    1UNL     H6   32  -0.170  -0.210  -0.079
    1UNL     H7   33  -0.225  -0.079   0.191
    1UNL     H8   34  -0.160  -0.233   0.174
    1UNL     H9   35   0.165  -0.079   0.219
    1UNL    H10   36   0.068  -0.225   0.223
    1UNL    H11   37   0.024  -0.105   0.322
    1UNL    H12   38  -0.056   0.102   0.199
    1UNL    H13   39   0.132   0.212   0.093
    1UNL    H14   40   0.064   0.181  -0.056
    1UNL    H15   41   0.240  -0.255  -0.146
    1UNL    H16   42   0.525  -0.260  -0.086
    1UNL    H17   43   0.679  -0.127   0.043
    1UNL    H18   44   0.631   0.089   0.164
    1UNL    H19   45   0.382   0.158   0.153
    1UNL    H20   46  -0.057   0.101  -0.222
    1UNL    H21   47  -0.138  -0.044  -0.285
    1UNL    H22   48  -0.278   0.041  -0.136
    1UNL    H23   49  -0.245   0.107   0.100
    1UNL    H24   50  -0.215   0.550   0.048
    1UNL    H25   51  -0.068   0.490   0.002
    1UNL    H26   52  -0.202   0.459  -0.112
   0.00000   0.00000   0.00000   0.00000   0.00000   0.00000   0.00000   0.00000   0.00000
Generated with MDTraj, t= 21.0
 52
    1UNL     C1    1  -0.422  -0.184  -0.168
    1UNL     C2    2  -0.384  -0.151  -0.019
    1UNL     C3    3  -0.228  -0.134  -0.019
    1UNL     C4    4  -0.171  -0.141   0.126
    1UNL     N1    5  -0.044  -0.077   0.144
    1UNL     C5    6   0.061  -0.136   0.236
    1UNL     C6    7  -0.043   0.074   0.106
    1UNL     C7    8   0.097   0.110   0.043
    1UNL     C8    9   0.185   0.005  -0.014
    1UNL     C9   10   0.152  -0.100  -0.095
    1UNL     N2   11   0.266  -0.174  -0.118
    1UNL    C10   12   0.374  -0.119  -0.050
    1UNL    C11   13   0.506  -0.159  -0.031
    1UNL    C12   14   0.589  -0.073   0.045
    1UNL    C13   15   0.541   0.049   0.094
    1UNL    C14   16   0.415   0.085   0.073
    1UNL    C15   17   0.325   0.001   0.008
    1UNL    C16   18   0.022  -0.130  -0.155
    1UNL     O1   19  -0.007  -0.244  -0.182
    1UNL    C17   20  -0.070  -0.015  -0.193
    1UNL    C18   21  -0.186   0.006  -0.094
    1UNL    C19   22  -0.166   0.116   0.020
    1UNL    C20   23  -0.160   0.260  -0.027
    1UNL     O2   24  -0.135   0.275  -0.148
    1UNL     O3   25  -0.178   0.364   0.059
    1UNL    C21   26  -0.195   0.482  -0.005
    1UNL     H1   27  -0.420  -0.106  -0.240
    1UNL     H2   28  -0.522  -0.225  -0.171
    1UNL     H3   29  -0.339  -0.251  -0.193
    1UNL     H4   30  -0.417  -0.236   0.048
    1UNL     H5   31  -0.435  -0.063   0.024
    1UNL     H6   32  -0.182  -0.211  -0.074
    1UNL     H7   33  -0.239  -0.093   0.199
    1UNL     H8   34  -0.169  -0.243   0.164
    1UNL     H9   35   0.134  -0.062   0.260
    1UNL    H10   36   0.116  -0.226   0.208
    1UNL    H11   37   0.021  -0.173   0.334
    1UNL    H12   38  -0.064   0.129   0.198
    1UNL    H13   39   0.159   0.147   0.123
    1UNL    H14   40   0.077   0.193  -0.016
    1UNL    H15   41   0.260  -0.269  -0.154
    1UNL    H16   42   0.530  -0.247  -0.084
    1UNL    H17   43   0.695  -0.099   0.061
    1UNL    H18   44   0.603   0.115   0.160
    1UNL    H19   45   0.374   0.182   0.112
    1UNL    H20   46  -0.015   0.084  -0.201
    1UNL    H21   47  -0.107  -0.036  -0.294
    1UNL    H22   48  -0.283   0.035  -0.143
    1UNL    H23   49  -0.251   0.104   0.089
    1UNL    H24   50  -0.201   0.572   0.049
    1UNL    H25   51  -0.101   0.500  -0.060
    1UNL    H26   52  -0.274   0.473  -0.089
   0.00000   0.00000   0.00000   0.00000   0.00000   0.00000   0.00000   0.00000   0.00000
Generated with MDTraj, t= 22.0
 52
    1UNL     C1    1  -0.437  -0.177  -0.160
    1UNL     C2    2  -0.386  -0.159  -0.020
    1UNL     C3    3  -0.237  -0.133  -0.021
    1UNL     C4    4  -0.170  -0.150   0.114
    1UNL     N1    5  -0.036  -0.081   0.135
    1UNL     C5    6   0.050  -0.113   0.253
    1UNL     C6    7  -0.047   0.065   0.103
    1UNL     C7    8   0.088   0.116   0.046
    1UNL     C8    9   0.182   0.015  -0.010
    1UNL     C9   10   0.149  -0.088  -0.095
    1UNL     N2   11   0.264  -0.162  -0.121
    1UNL    C10   12   0.371  -0.104  -0.048
    1UNL    C11   13   0.509  -0.146  -0.048
    1UNL    C12   14   0.598  -0.076   0.023
    1UNL    C13   15   0.551   0.037   0.097
    1UNL    C14   16   0.419   0.082   0.099
    1UNL    C15   17   0.320   0.005   0.024
    1UNL    C16   18   0.022  -0.120  -0.153
    1UNL     O1   19  -0.005  -0.239  -0.162
    1UNL    C17   20  -0.078  -0.020  -0.200
    1UNL    C18   21  -0.194   0.004  -0.099
    1UNL    C19   22  -0.175   0.109   0.011
    1UNL    C20   23  -0.155   0.245  -0.037
    1UNL     O2   24  -0.097   0.265  -0.144
    1UNL     O3   25  -0.191   0.348   0.051
    1UNL    C21   26  -0.174   0.471  -0.001
    1UNL     H1   27  -0.411  -0.103  -0.238
    1UNL     H2   28  -0.542  -0.174  -0.152
    1UNL     H3   29  -0.397  -0.275  -0.187
    1UNL     H4   30  -0.420  -0.238   0.053
    1UNL     H5   31  -0.431  -0.066   0.021
    1UNL     H6   32  -0.192  -0.208  -0.082
    1UNL     H7   33  -0.239  -0.122   0.191
    1UNL     H8   34  -0.155  -0.258   0.140
    1UNL     H9   35   0.158  -0.108   0.243
    1UNL    H10   36   0.031  -0.212   0.290
    1UNL    H11   37   0.022  -0.050   0.342
    1UNL    H12   38  -0.071   0.121   0.195
    1UNL    H13   39   0.127   0.173   0.126
    1UNL    H14   40   0.070   0.190  -0.030
    1UNL    H15   41   0.268  -0.224  -0.202
    1UNL    H16   42   0.547  -0.229  -0.109
    1UNL    H17   43   0.705  -0.095   0.010
    1UNL    H18   44   0.617   0.095   0.142
    1UNL    H19   45   0.387   0.166   0.150
    1UNL    H20   46  -0.028   0.069  -0.221
    1UNL    H21   47  -0.117  -0.064  -0.296
    1UNL    H22   48  -0.292   0.035  -0.148
    1UNL    H23   49  -0.266   0.116   0.074
    1UNL    H24   50  -0.146   0.550   0.063
    1UNL    H25   51  -0.093   0.468  -0.077
    1UNL    H26   52  -0.266   0.503  -0.060
   0.00000   0.00000   0.00000   0.00000   0.00000   0.00000   0.00000   0.00000   0.00000
Generated with MDTraj, t= 23.0
 52
    1UNL     C1    1  -0.464  -0.180  -0.133
    1UNL     C2    2  -0.391  -0.155  -0.006
    1UNL     C3    3  -0.240  -0.131  -0.022
    1UNL     C4    4  -0.174  -0.149   0.111
    1UNL     N1    5  -0.039  -0.090   0.133
    1UNL     C5    6   0.031  -0.139   0.249
    1UNL     C6    7  -0.043   0.055   0.116
    1UNL     C7    8   0.090   0.118   0.053
    1UNL     C8    9   0.184   0.018  -0.004
    1UNL     C9   10   0.150  -0.078  -0.100
    1UNL     N2   11   0.270  -0.156  -0.117
    1UNL    C10   12   0.378  -0.095  -0.061
    1UNL    C11   13   0.510  -0.126  -0.053
    1UNL    C12   14   0.596  -0.061   0.028
    1UNL    C13   15   0.545   0.040   0.111
    1UNL    C14   16   0.415   0.077   0.103
    1UNL    C15   17   0.327   0.006   0.019
    1UNL    C16   18   0.021  -0.119  -0.163
    1UNL     O1   19  -0.005  -0.237  -0.190
    1UNL    C17   20  -0.083  -0.021  -0.199
    1UNL    C18   21  -0.194   0.005  -0.089
    1UNL    C19   22  -0.167   0.107   0.020
    1UNL    C20   23  -0.141   0.244  -0.041
    1UNL     O2   24  -0.076   0.260  -0.143
    1UNL     O3   25  -0.193   0.343   0.031
    1UNL    C21   26  -0.164   0.466  -0.019
    1UNL     H1   27  -0.461  -0.109  -0.224
    1UNL     H2   28  -0.564  -0.197  -0.116
    1UNL     H3   29  -0.423  -0.276  -0.162
    1UNL     H4   30  -0.403  -0.236   0.069
    1UNL     H5   31  -0.435  -0.069   0.052
    1UNL     H6   32  -0.202  -0.206  -0.088
    1UNL     H7   33  -0.232  -0.112   0.191
    1UNL     H8   34  -0.174  -0.261   0.137
    1UNL     H9   35   0.120  -0.199   0.224
    1UNL    H10   36  -0.031  -0.200   0.312
    1UNL    H11   37   0.075  -0.052   0.306
    1UNL    H12   38  -0.059   0.094   0.218
    1UNL    H13   39   0.139   0.183   0.119
    1UNL    H14   40   0.072   0.189  -0.033
    1UNL    H15   41   0.262  -0.250  -0.156
    1UNL    H16   42   0.547  -0.206  -0.112
    1UNL    H17   43   0.697  -0.080   0.036
    1UNL    H18   44   0.619   0.091   0.183
    1UNL    H19   45   0.383   0.156   0.171
    1UNL    H20   46  -0.037   0.068  -0.222
    1UNL    H21   47  -0.141  -0.062  -0.286
    1UNL    H22   48  -0.280   0.062  -0.140
    1UNL    H23   49  -0.250   0.123   0.091
    1UNL    H24   50  -0.233   0.548  -0.008
    1UNL    H25   51  -0.067   0.498   0.016
    1UNL    H26   52  -0.149   0.454  -0.130
   0.00000   0.00000   0.00000   0.00000   0.00000   0.00000   0.00000   0.00000   0.00000
Generated with MDTraj, t= 24.0
 52
    1UNL     C1    1  -0.462  -0.159  -0.147
    1UNL     C2    2  -0.382  -0.141  -0.014
    1UNL     C3    3  -0.235  -0.135  -0.016
    1UNL     C4    4  -0.178  -0.156   0.124
    1UNL     N1    5  -0.045  -0.089   0.132
    1UNL     C5    6   0.064  -0.145   0.219
    1UNL     C6    7  -0.042   0.059   0.121
    1UNL     C7    8   0.100   0.111   0.073
    1UNL     C8    9   0.179   0.009  -0.005
    1UNL     C9   10   0.148  -0.092  -0.093
    1UNL     N2   11   0.265  -0.154  -0.128
    1UNL    C10   12   0.369  -0.095  -0.064
    1UNL    C11   13   0.506  -0.132  -0.050
    1UNL    C12   14   0.584  -0.055   0.031
    1UNL    C13   15   0.541   0.047   0.107
    1UNL    C14   16   0.405   0.080   0.105
    1UNL    C15   17   0.323   0.007   0.016
    1UNL    C16   18   0.024  -0.127  -0.158
    1UNL     O1   19   0.003  -0.244  -0.184
    1UNL    C17   20  -0.084  -0.026  -0.189
    1UNL    C18   21  -0.190   0.007  -0.082
    1UNL    C19   22  -0.158   0.108   0.025
    1UNL    C20   23  -0.141   0.242  -0.036
    1UNL     O2   24  -0.078   0.260  -0.136
    1UNL     O3   25  -0.201   0.347   0.025
    1UNL    C21   26  -0.179   0.470  -0.036
    1UNL     H1   27  -0.453  -0.080  -0.229
    1UNL     H2   28  -0.565  -0.173  -0.131
    1UNL     H3   29  -0.427  -0.254  -0.181
    1UNL     H4   30  -0.420  -0.223   0.051
    1UNL     H5   31  -0.415  -0.045   0.039
    1UNL     H6   32  -0.201  -0.207  -0.086
    1UNL     H7   33  -0.248  -0.123   0.193
    1UNL     H8   34  -0.157  -0.267   0.152
    1UNL     H9   35   0.037  -0.248   0.254
    1UNL    H10   36   0.075  -0.090   0.312
    1UNL    H11   37   0.153  -0.152   0.155
    1UNL    H12   38  -0.058   0.090   0.227
    1UNL    H13   39   0.158   0.135   0.158
    1UNL    H14   40   0.093   0.215   0.022
    1UNL    H15   41   0.285  -0.225  -0.197
    1UNL    H16   42   0.555  -0.217  -0.096
    1UNL    H17   43   0.695  -0.087   0.041
    1UNL    H18   44   0.601   0.089   0.188
    1UNL    H19   45   0.360   0.157   0.167
    1UNL    H20   46  -0.038   0.067  -0.207
    1UNL    H21   47  -0.146  -0.059  -0.276
    1UNL    H22   48  -0.276   0.062  -0.137
    1UNL    H23   49  -0.237   0.121   0.103
    1UNL    H24   50  -0.274   0.521  -0.054
    1UNL    H25   51  -0.121   0.531   0.030
    1UNL    H26   52  -0.122   0.455  -0.131
   0.00000   0.00000   0.00000   0.00000   0.00000   0.00000   0.00000   0.00000   0.00000
Generated with MDTraj, t= 25.0
 52
    1UNL     C1    1  -0.468  -0.151  -0.161
    1UNL     C2    2  -0.396  -0.162  -0.022
    1UNL     C3    3  -0.246  -0.138  -0.025
    1UNL     C4    4  -0.178  -0.149   0.110
    1UNL     N1    5  -0.040  -0.087   0.113
    1UNL     C5    6   0.052  -0.143   0.219
    1UNL     C6    7  -0.034   0.060   0.110
    1UNL     C7    8   0.108   0.122   0.067
    1UNL     C8    9   0.190   0.021   0.001
    1UNL     C9   10   0.158  -0.081  -0.094
    1UNL     N2   11   0.272  -0.154  -0.133
    1UNL    C10   12   0.377  -0.112  -0.054
    1UNL    C11   13   0.512  -0.149  -0.041
    1UNL    C12   14   0.598  -0.067   0.026
    1UNL    C13   15   0.554   0.046   0.090
    1UNL    C14   16   0.421   0.083   0.099
    1UNL    C15   17   0.331   0.003   0.026
    1UNL    C16   18   0.017  -0.117  -0.140
    1UNL     O1   19  -0.001  -0.236  -0.144
    1UNL    C17   20  -0.083  -0.020  -0.189
    1UNL    C18   21  -0.194   0.005  -0.086
    1UNL    C19   22  -0.158   0.102   0.030
    1UNL    C20   23  -0.145   0.241  -0.029
    1UNL     O2   24  -0.071   0.268  -0.118
    1UNL     O3   25  -0.227   0.338   0.021
    1UNL    C21   26  -0.197   0.470  -0.032
    1UNL     H1   27  -0.472  -0.047  -0.206
    1UNL     H2   28  -0.574  -0.179  -0.159
    1UNL     H3   29  -0.423  -0.223  -0.224
    1UNL     H4   30  -0.418  -0.261   0.019
    1UNL     H5   31  -0.454  -0.086   0.041
    1UNL     H6   32  -0.209  -0.211  -0.092
    1UNL     H7   33  -0.231  -0.105   0.189
    1UNL     H8   34  -0.167  -0.261   0.139
    1UNL     H9   35   0.054  -0.064   0.301
    1UNL    H10   36   0.154  -0.142   0.180
    1UNL    H11   37   0.016  -0.241   0.247
    1UNL    H12   38  -0.059   0.094   0.214
    1UNL    H13   39   0.160   0.158   0.155
    1UNL    H14   40   0.093   0.210  -0.003
    1UNL    H15   41   0.258  -0.242  -0.181
    1UNL    H16   42   0.546  -0.231  -0.106
    1UNL    H17   43   0.699  -0.084   0.028
    1UNL    H18   44   0.619   0.109   0.140
    1UNL    H19   45   0.396   0.168   0.158
    1UNL    H20   46  -0.028   0.076  -0.203
    1UNL    H21   47  -0.118  -0.067  -0.282
    1UNL    H22   48  -0.280   0.048  -0.145
    1UNL    H23   49  -0.241   0.090   0.103
    1UNL    H24   50  -0.277   0.539   0.003
    1UNL    H25   51  -0.100   0.500  -0.005
    1UNL    H26   52  -0.202   0.458  -0.141
   0.00000   0.00000   0.00000   0.00000   0.00000   0.00000   0.00000   0.00000   0.00000
Generated with MDTraj, t= 26.0
 52
    1UNL     C1    1  -0.453  -0.154  -0.157
    1UNL     C2    2  -0.389  -0.127  -0.024
    1UNL     C3    3  -0.236  -0.120  -0.023
    1UNL     C4    4  -0.166  -0.148   0.110
    1UNL     N1    5  -0.031  -0.082   0.127
    1UNL     C5    6   0.036  -0.150   0.243
    1UNL     C6    7  -0.031   0.070   0.114
    1UNL     C7    8   0.104   0.119   0.064
    1UNL     C8    9   0.188   0.010   0.002
    1UNL     C9   10   0.157  -0.097  -0.079
    1UNL     N2   11   0.266  -0.171  -0.115
    1UNL    C10   12   0.373  -0.104  -0.060
    1UNL    C11   13   0.514  -0.140  -0.061
    1UNL    C12   14   0.591  -0.070   0.025
    1UNL    C13   15   0.546   0.045   0.095
    1UNL    C14   16   0.420   0.081   0.089
    1UNL    C15   17   0.330   0.005   0.018
    1UNL    C16   18   0.030  -0.136  -0.149
    1UNL     O1   19  -0.006  -0.249  -0.175
    1UNL    C17   20  -0.060  -0.015  -0.183
    1UNL    C18   21  -0.183   0.008  -0.091
    1UNL    C19   22  -0.154   0.106   0.023
    1UNL    C20   23  -0.145   0.247  -0.033
    1UNL     O2   24  -0.069   0.279  -0.118
    1UNL     O3   25  -0.240   0.331   0.023
    1UNL    C21   26  -0.229   0.461  -0.025
    1UNL     H1   27  -0.432  -0.080  -0.234
    1UNL     H2   28  -0.566  -0.143  -0.158
    1UNL     H3   29  -0.444  -0.253  -0.191
    1UNL     H4   30  -0.418  -0.209   0.041
    1UNL     H5   31  -0.431  -0.032   0.025
    1UNL     H6   32  -0.203  -0.198  -0.087
    1UNL     H7   33  -0.222  -0.111   0.196
    1UNL     H8   34  -0.151  -0.259   0.130
    1UNL     H9   35   0.147  -0.136   0.225
    1UNL    H10   36   0.013  -0.257   0.233
    1UNL    H11   37  -0.013  -0.112   0.331
    1UNL    H12   38  -0.060   0.121   0.208
    1UNL    H13   39   0.156   0.156   0.156
    1UNL    H14   40   0.099   0.197  -0.011
    1UNL    H15   41   0.268  -0.242  -0.188
    1UNL    H16   42   0.557  -0.215  -0.119
    1UNL    H17   43   0.698  -0.087   0.029
    1UNL    H18   44   0.624   0.104   0.151
    1UNL    H19   45   0.370   0.159   0.147
    1UNL    H20   46   0.007   0.078  -0.182
    1UNL    H21   47  -0.098  -0.040  -0.280
    1UNL    H22   48  -0.266   0.046  -0.157
    1UNL    H23   49  -0.246   0.098   0.085
    1UNL    H24   50  -0.273   0.526   0.056
    1UNL    H25   51  -0.136   0.481  -0.071
    1UNL    H26   52  -0.311   0.454  -0.100
   0.00000   0.00000   0.00000   0.00000   0.00000   0.00000   0.00000   0.00000   0.00000
Generated with MDTraj, t= 27.0
 52
    1UNL     C1    1  -0.452  -0.158  -0.163
    1UNL     C2    2  -0.391  -0.141  -0.021
    1UNL     C3    3  -0.235  -0.127  -0.026
    1UNL     C4    4  -0.176  -0.140   0.116
    1UNL     N1    5  -0.041  -0.077   0.137
    1UNL     C5    6   0.041  -0.128   0.256
    1UNL     C6    7  -0.038   0.073   0.106
    1UNL     C7    8   0.096   0.114   0.046
    1UNL     C8    9   0.186   0.003   0.005
    1UNL     C9   10   0.158  -0.095  -0.092
    1UNL     N2   11   0.276  -0.165  -0.122
    1UNL    C10   12   0.380  -0.120  -0.046
    1UNL    C11   13   0.515  -0.147  -0.052
    1UNL    C12   14   0.603  -0.069   0.015
    1UNL    C13   15   0.556   0.043   0.094
    1UNL    C14   16   0.426   0.073   0.092
    1UNL    C15   17   0.326  -0.011   0.030
    1UNL    C16   18   0.031  -0.129  -0.153
    1UNL     O1   19   0.006  -0.237  -0.195
    1UNL    C17   20  -0.069  -0.011  -0.181
    1UNL    C18   21  -0.191   0.000  -0.086
    1UNL    C19   22  -0.168   0.109   0.028
    1UNL    C20   23  -0.149   0.250  -0.027
    1UNL     O2   24  -0.071   0.275  -0.116
    1UNL     O3   25  -0.232   0.339   0.037
    1UNL    C21   26  -0.234   0.461  -0.032
    1UNL     H1   27  -0.440  -0.063  -0.205
    1UNL     H2   28  -0.564  -0.182  -0.173
    1UNL     H3   29  -0.414  -0.239  -0.220
    1UNL     H4   30  -0.418  -0.227   0.041
    1UNL     H5   31  -0.433  -0.048   0.031
    1UNL     H6   32  -0.183  -0.203  -0.076
    1UNL     H7   33  -0.246  -0.100   0.196
    1UNL     H8   34  -0.154  -0.248   0.133
    1UNL     H9   35   0.146  -0.104   0.228
    1UNL    H10   36   0.027  -0.239   0.256
    1UNL    H11   37   0.001  -0.085   0.346
    1UNL    H12   38  -0.052   0.123   0.202
    1UNL    H13   39   0.170   0.170   0.116
    1UNL    H14   40   0.082   0.171  -0.040
    1UNL    H15   41   0.282  -0.237  -0.193
    1UNL    H16   42   0.546  -0.230  -0.121
    1UNL    H17   43   0.717  -0.065   0.007
    1UNL    H18   44   0.620   0.104   0.150
    1UNL    H19   45   0.394   0.159   0.144
    1UNL    H20   46  -0.007   0.087  -0.170
    1UNL    H21   47  -0.105  -0.027  -0.280
    1UNL    H22   48  -0.270   0.053  -0.147
    1UNL    H23   49  -0.258   0.111   0.096
    1UNL    H24   50  -0.332   0.508   0.001
    1UNL    H25   51  -0.142   0.513  -0.033
    1UNL    H26   52  -0.251   0.423  -0.135
   0.00000   0.00000   0.00000   0.00000   0.00000   0.00000   0.00000   0.00000   0.00000
Generated with MDTraj, t= 28.0
 52
    1UNL     C1    1  -0.430  -0.174  -0.157
    1UNL     C2    2  -0.373  -0.164  -0.017
    1UNL     C3    3  -0.220  -0.139  -0.025
    1UNL     C4    4  -0.162  -0.164   0.123
    1UNL     N1    5  -0.040  -0.079   0.142
    1UNL     C5    6   0.048  -0.121   0.259
    1UNL     C6    7  -0.043   0.076   0.113
    1UNL     C7    8   0.093   0.118   0.057
    1UNL     C8    9   0.182   0.027  -0.014
    1UNL     C9   10   0.151  -0.075  -0.099
    1UNL     N2   11   0.258  -0.154  -0.134
    1UNL    C10   12   0.365  -0.107  -0.056
    1UNL    C11   13   0.499  -0.156  -0.045
    1UNL    C12   14   0.594  -0.088   0.030
    1UNL    C13   15   0.550   0.028   0.098
    1UNL    C14   16   0.420   0.075   0.095
    1UNL    C15   17   0.322   0.001   0.021
    1UNL    C16   18   0.023  -0.110  -0.162
    1UNL     O1   19  -0.008  -0.226  -0.177
    1UNL    C17   20  -0.078  -0.003  -0.197
    1UNL    C18   21  -0.187   0.002  -0.086
    1UNL    C19   22  -0.162   0.111   0.024
    1UNL    C20   23  -0.147   0.247  -0.034
    1UNL     O2   24  -0.065   0.269  -0.122
    1UNL     O3   25  -0.235   0.335   0.021
    1UNL    C21   26  -0.204   0.470  -0.024
    1UNL     H1   27  -0.443  -0.076  -0.183
    1UNL     H2   28  -0.533  -0.225  -0.167
    1UNL     H3   29  -0.373  -0.235  -0.224
    1UNL     H4   30  -0.387  -0.261   0.034
    1UNL     H5   31  -0.435  -0.088   0.041
    1UNL     H6   32  -0.179  -0.212  -0.089
    1UNL     H7   33  -0.239  -0.125   0.204
    1UNL     H8   34  -0.138  -0.271   0.138
    1UNL     H9   35   0.131  -0.050   0.263
    1UNL    H10   36   0.083  -0.223   0.229
    1UNL    H11   37  -0.012  -0.128   0.351
    1UNL    H12   38  -0.060   0.120   0.212
    1UNL    H13   39   0.150   0.146   0.155
    1UNL    H14   40   0.081   0.203  -0.004
    1UNL    H15   41   0.249  -0.236  -0.196
    1UNL    H16   42   0.535  -0.237  -0.099
    1UNL    H17   43   0.684  -0.129   0.036
    1UNL    H18   44   0.629   0.080   0.156
    1UNL    H19   45   0.375   0.165   0.141
    1UNL    H20   46  -0.029   0.103  -0.203
    1UNL    H21   47  -0.123  -0.041  -0.284
    1UNL    H22   48  -0.282   0.044  -0.127
    1UNL    H23   49  -0.258   0.112   0.081
    1UNL    H24   50  -0.295   0.532   0.010
    1UNL    H25   51  -0.110   0.502   0.011
    1UNL    H26   52  -0.201   0.464  -0.135
   0.00000   0.00000   0.00000   0.00000   0.00000   0.00000   0.00000   0.00000   0.00000
Generated with MDTraj, t= 29.0
 52
    1UNL     C1    1  -0.424  -0.214  -0.140
    1UNL     C2    2  -0.379  -0.163  -0.002
    1UNL     C3    3  -0.224  -0.138  -0.017
    1UNL     C4    4  -0.170  -0.145   0.130
    1UNL     N1    5  -0.038  -0.084   0.128
    1UNL     C5    6   0.054  -0.129   0.234
    1UNL     C6    7  -0.038   0.068   0.109
    1UNL     C7    8   0.100   0.116   0.047
    1UNL     C8    9   0.187   0.022  -0.020
    1UNL     C9   10   0.152  -0.078  -0.110
    1UNL     N2   11   0.262  -0.159  -0.118
    1UNL    C10   12   0.376  -0.103  -0.065
    1UNL    C11   13   0.501  -0.150  -0.052
    1UNL    C12   14   0.583  -0.085   0.042
    1UNL    C13   15   0.536   0.018   0.126
    1UNL    C14   16   0.405   0.070   0.114
    1UNL    C15   17   0.327   0.013   0.011
    1UNL    C16   18   0.020  -0.109  -0.171
    1UNL     O1   19  -0.001  -0.223  -0.213
    1UNL    C17   20  -0.088  -0.003  -0.195
    1UNL    C18   21  -0.187   0.002  -0.081
    1UNL    C19   22  -0.161   0.118   0.031
    1UNL    C20   23  -0.149   0.256  -0.028
    1UNL     O2   24  -0.076   0.271  -0.127
    1UNL     O3   25  -0.218   0.353   0.034
    1UNL    C21   26  -0.200   0.477  -0.034
    1UNL     H1   27  -0.391  -0.141  -0.206
    1UNL     H2   28  -0.535  -0.213  -0.155
    1UNL     H3   29  -0.400  -0.314  -0.171
    1UNL     H4   30  -0.401  -0.241   0.074
    1UNL     H5   31  -0.432  -0.072   0.034
    1UNL     H6   32  -0.197  -0.214  -0.086
    1UNL     H7   33  -0.239  -0.088   0.209
    1UNL     H8   34  -0.156  -0.251   0.156
    1UNL     H9   35   0.148  -0.104   0.193
    1UNL    H10   36   0.046  -0.240   0.237
    1UNL    H11   37   0.040  -0.082   0.336
    1UNL    H12   38  -0.048   0.117   0.207
    1UNL    H13   39   0.167   0.156   0.133
    1UNL    H14   40   0.076   0.197  -0.018
    1UNL    H15   41   0.254  -0.253  -0.159
    1UNL    H16   42   0.526  -0.239  -0.110
    1UNL    H17   43   0.684  -0.128   0.059
    1UNL    H18   44   0.580   0.048   0.216
    1UNL    H19   45   0.368   0.139   0.184
    1UNL    H20   46  -0.040   0.098  -0.206
    1UNL    H21   47  -0.142  -0.039  -0.278
    1UNL    H22   48  -0.292   0.024  -0.119
    1UNL    H23   49  -0.255   0.120   0.091
    1UNL    H24   50  -0.259   0.549   0.035
    1UNL    H25   51  -0.096   0.496  -0.032
    1UNL    H26   52  -0.244   0.474  -0.136
   0.00000   0.00000   0.00000   0.00000   0.00000   0.00000   0.00000   0.00000   0.00000
Generated with MDTraj, t= 30.0
 52
    1UNL     C1    1  -0.422  -0.219  -0.141
    1UNL     C2    2  -0.372  -0.162  -0.008
    1UNL     C3    3  -0.221  -0.132  -0.016
    1UNL     C4    4  -0.163  -0.139   0.125
    1UNL     N1    5  -0.027  -0.070   0.128
    1UNL     C5    6   0.072  -0.115   0.228
    1UNL     C6    7  -0.038   0.074   0.107
    1UNL     C7    8   0.093   0.121   0.045
    1UNL     C8    9   0.191   0.027  -0.025
    1UNL     C9   10   0.155  -0.075  -0.111
    1UNL     N2   11   0.259  -0.156  -0.130
    1UNL    C10   12   0.366  -0.117  -0.050
    1UNL    C11   13   0.501  -0.163  -0.038
    1UNL    C12   14   0.586  -0.087   0.046
    1UNL    C13   15   0.538   0.017   0.128
    1UNL    C14   16   0.405   0.048   0.118
    1UNL    C15   17   0.323  -0.010   0.023
    1UNL    C16   18   0.026  -0.105  -0.173
    1UNL     O1   19  -0.001  -0.222  -0.206
    1UNL    C17   20  -0.085  -0.005  -0.201
    1UNL    C18   21  -0.189   0.004  -0.085
    1UNL    C19   22  -0.165   0.116   0.023
    1UNL    C20   23  -0.162   0.256  -0.033
    1UNL     O2   24  -0.111   0.273  -0.144
    1UNL     O3   25  -0.207   0.352   0.051
    1UNL    C21   26  -0.206   0.478  -0.024
    1UNL     H1   27  -0.410  -0.139  -0.214
    1UNL     H2   28  -0.525  -0.240  -0.130
    1UNL     H3   29  -0.380  -0.314  -0.175
    1UNL     H4   30  -0.381  -0.232   0.081
    1UNL     H5   31  -0.432  -0.075   0.023
    1UNL     H6   32  -0.172  -0.200  -0.082
    1UNL     H7   33  -0.227  -0.081   0.202
    1UNL     H8   34  -0.151  -0.244   0.158
    1UNL     H9   35   0.133  -0.038   0.271
    1UNL    H10   36   0.128  -0.191   0.171
    1UNL    H11   37   0.027  -0.172   0.316
    1UNL    H12   38  -0.049   0.120   0.208
    1UNL    H13   39   0.147   0.174   0.131
    1UNL    H14   40   0.073   0.205  -0.027
    1UNL    H15   41   0.246  -0.243  -0.183
    1UNL    H16   42   0.545  -0.247  -0.098
    1UNL    H17   43   0.699  -0.111   0.042
    1UNL    H18   44   0.603   0.071   0.202
    1UNL    H19   45   0.354   0.124   0.181
    1UNL    H20   46  -0.050   0.092  -0.226
    1UNL    H21   47  -0.133  -0.050  -0.284
    1UNL    H22   48  -0.287   0.044  -0.128
    1UNL    H23   49  -0.259   0.116   0.081
    1UNL    H24   50  -0.236   0.557   0.054
    1UNL    H25   51  -0.104   0.493  -0.039
    1UNL    H26   52  -0.269   0.477  -0.114
   0.00000   0.00000   0.00000   0.00000   0.00000   0.00000   0.00000   0.00000   0.00000
Generated with MDTraj, t= 31.0
 52
    1UNL     C1    1  -0.427  -0.192  -0.156
    1UNL     C2    2  -0.366  -0.170  -0.015
    1UNL     C3    3  -0.212  -0.138  -0.021
    1UNL     C4    4  -0.143  -0.138   0.118
    1UNL     N1    5  -0.018  -0.062   0.136
    1UNL     C5    6   0.069  -0.098   0.249
    1UNL     C6    7  -0.036   0.080   0.097
    1UNL     C7    8   0.096   0.129   0.036
    1UNL     C8    9   0.184   0.024  -0.032
    1UNL     C9   10   0.153  -0.078  -0.121
    1UNL     N2   11   0.261  -0.161  -0.130
    1UNL    C10   12   0.367  -0.117  -0.050
    1UNL    C11   13   0.490  -0.174  -0.017
    1UNL    C12   14   0.582  -0.108   0.065
    1UNL    C13   15   0.533   0.017   0.121
    1UNL    C14   16   0.410   0.072   0.093
    1UNL    C15   17   0.318   0.002   0.008
    1UNL    C16   18   0.019  -0.110  -0.173
    1UNL     O1   19   0.002  -0.229  -0.195
    1UNL    C17   20  -0.082  -0.004  -0.203
    1UNL    C18   21  -0.192  -0.004  -0.092
    1UNL    C19   22  -0.167   0.107   0.019
    1UNL    C20   23  -0.169   0.249  -0.029
    1UNL     O2   24  -0.132   0.271  -0.142
    1UNL     O3   25  -0.207   0.344   0.060
    1UNL    C21   26  -0.197   0.474  -0.003
    1UNL     H1   27  -0.436  -0.094  -0.205
    1UNL     H2   28  -0.513  -0.244  -0.145
    1UNL     H3   29  -0.357  -0.254  -0.213
    1UNL     H4   30  -0.370  -0.267   0.046
    1UNL     H5   31  -0.415  -0.097   0.049
    1UNL     H6   32  -0.153  -0.197  -0.085
    1UNL     H7   33  -0.212  -0.099   0.196
    1UNL     H8   34  -0.110  -0.242   0.152
    1UNL     H9   35   0.141  -0.017   0.262
    1UNL    H10   36   0.117  -0.197   0.237
    1UNL    H11   37   0.023  -0.098   0.350
    1UNL    H12   38  -0.042   0.127   0.199
    1UNL    H13   39   0.171   0.168   0.110
    1UNL    H14   40   0.088   0.221  -0.035
    1UNL    H15   41   0.237  -0.249  -0.178
    1UNL    H16   42   0.510  -0.265  -0.058
    1UNL    H17   43   0.674  -0.139   0.084
    1UNL    H18   44   0.599   0.071   0.182
    1UNL    H19   45   0.380   0.159   0.146
    1UNL    H20   46  -0.033   0.085  -0.217
    1UNL    H21   47  -0.133  -0.025  -0.295
    1UNL    H22   48  -0.289   0.030  -0.142
    1UNL    H23   49  -0.252   0.100   0.090
    1UNL    H24   50  -0.213   0.548   0.082
    1UNL    H25   51  -0.095   0.481  -0.019
    1UNL    H26   52  -0.263   0.487  -0.090
   0.00000   0.00000   0.00000   0.00000   0.00000   0.00000   0.00000   0.00000   0.00000
Generated with MDTraj, t= 32.0
 52
    1UNL     C1    1  -0.438  -0.185  -0.144
    1UNL     C2    2  -0.364  -0.177  -0.015
    1UNL     C3    3  -0.216  -0.137  -0.018
    1UNL     C4    4  -0.147  -0.139   0.117
    1UNL     N1    5  -0.013  -0.061   0.131
    1UNL     C5    6   0.067  -0.105   0.251
    1UNL     C6    7  -0.028   0.084   0.094
    1UNL     C7    8   0.095   0.133   0.012
    1UNL     C8    9   0.187   0.019  -0.031
    1UNL     C9   10   0.151  -0.087  -0.114
    1UNL     N2   11   0.255  -0.175  -0.109
    1UNL    C10   12   0.364  -0.117  -0.045
    1UNL    C11   13   0.494  -0.163  -0.018
    1UNL    C12   14   0.570  -0.098   0.071
    1UNL    C13   15   0.528   0.027   0.126
    1UNL    C14   16   0.408   0.080   0.093
    1UNL    C15   17   0.322   0.004   0.009
    1UNL    C16   18   0.024  -0.117  -0.180
    1UNL     O1   19   0.001  -0.223  -0.235
    1UNL    C17   20  -0.086  -0.017  -0.202
    1UNL    C18   21  -0.191   0.006  -0.091
    1UNL    C19   22  -0.157   0.107   0.021
    1UNL    C20   23  -0.162   0.247  -0.026
    1UNL     O2   24  -0.127   0.269  -0.138
    1UNL     O3   25  -0.193   0.344   0.066
    1UNL    C21   26  -0.201   0.471   0.005
    1UNL     H1   27  -0.416  -0.094  -0.203
    1UNL     H2   28  -0.541  -0.197  -0.130
    1UNL     H3   29  -0.400  -0.266  -0.205
    1UNL     H4   30  -0.373  -0.273   0.049
    1UNL     H5   31  -0.408  -0.102   0.050
    1UNL     H6   32  -0.167  -0.197  -0.089
    1UNL     H7   33  -0.208  -0.100   0.195
    1UNL     H8   34  -0.117  -0.247   0.148
    1UNL     H9   35   0.178  -0.105   0.251
    1UNL    H10   36   0.030  -0.201   0.289
    1UNL    H11   37   0.058  -0.034   0.335
    1UNL    H12   38  -0.029   0.142   0.190
    1UNL    H13   39   0.158   0.205   0.070
    1UNL    H14   40   0.064   0.201  -0.080
    1UNL    H15   41   0.256  -0.267  -0.155
    1UNL    H16   42   0.531  -0.262  -0.059
    1UNL    H17   43   0.669  -0.142   0.094
    1UNL    H18   44   0.591   0.071   0.203
    1UNL    H19   45   0.368   0.175   0.126
    1UNL    H20   46  -0.054   0.075  -0.233
    1UNL    H21   47  -0.135  -0.053  -0.290
    1UNL    H22   48  -0.292   0.037  -0.134
    1UNL    H23   49  -0.237   0.085   0.093
    1UNL    H24   50  -0.241   0.539   0.086
    1UNL    H25   51  -0.103   0.499  -0.014
    1UNL    H26   52  -0.268   0.468  -0.081
   0.00000   0.00000   0.00000   0.00000   0.00000   0.00000   0.00000   0.00000   0.00000
Generated with MDTraj, t= 33.0
 52
    1UNL     C1    1  -0.435  -0.211  -0.128
    1UNL     C2    2  -0.361  -0.161  -0.003
    1UNL     C3    3  -0.213  -0.133  -0.019
    1UNL     C4    4  -0.144  -0.143   0.112
    1UNL     N1    5  -0.024  -0.065   0.128
    1UNL     C5    6   0.069  -0.112   0.228
    1UNL     C6    7  -0.029   0.079   0.103
    1UNL     C7    8   0.101   0.136   0.025
    1UNL     C8    9   0.181   0.021  -0.019
    1UNL     C9   10   0.143  -0.078  -0.110
    1UNL     N2   11   0.256  -0.160  -0.121
    1UNL    C10   12   0.363  -0.124  -0.041
    1UNL    C11   13   0.492  -0.166  -0.017
    1UNL    C12   14   0.577  -0.097   0.067
    1UNL    C13   15   0.535   0.020   0.127
    1UNL    C14   16   0.411   0.067   0.105
    1UNL    C15   17   0.318  -0.008   0.023
    1UNL    C16   18   0.021  -0.108  -0.184
    1UNL     O1   19  -0.005  -0.217  -0.221
    1UNL    C17   20  -0.081  -0.003  -0.206
    1UNL    C18   21  -0.186   0.010  -0.093
    1UNL    C19   22  -0.155   0.108   0.024
    1UNL    C20   23  -0.161   0.249  -0.037
    1UNL     O2   24  -0.124   0.271  -0.150
    1UNL     O3   25  -0.215   0.345   0.050
    1UNL    C21   26  -0.194   0.471   0.002
    1UNL     H1   27  -0.421  -0.143  -0.213
    1UNL     H2   28  -0.541  -0.237  -0.113
    1UNL     H3   29  -0.390  -0.298  -0.163
    1UNL     H4   30  -0.363  -0.243   0.079
    1UNL     H5   31  -0.416  -0.079   0.040
    1UNL     H6   32  -0.171  -0.203  -0.088
    1UNL     H7   33  -0.205  -0.108   0.190
    1UNL     H8   34  -0.111  -0.255   0.129
    1UNL     H9   35   0.134  -0.032   0.272
    1UNL    H10   36   0.133  -0.191   0.187
    1UNL    H11   37   0.028  -0.149   0.320
    1UNL    H12   38  -0.031   0.136   0.198
    1UNL    H13   39   0.149   0.212   0.092
    1UNL    H14   40   0.067   0.195  -0.067
    1UNL    H15   41   0.268  -0.232  -0.195
    1UNL    H16   42   0.521  -0.245  -0.081
    1UNL    H17   43   0.684  -0.139   0.085
    1UNL    H18   44   0.613   0.075   0.184
    1UNL    H19   45   0.387   0.167   0.145
    1UNL    H20   46  -0.042   0.094  -0.229
    1UNL    H21   47  -0.129  -0.032  -0.295
    1UNL    H22   48  -0.290   0.039  -0.128
    1UNL    H23   49  -0.242   0.095   0.091
    1UNL    H24   50  -0.217   0.543   0.087
    1UNL    H25   51  -0.094   0.481  -0.030
    1UNL    H26   52  -0.267   0.484  -0.078
   0.00000   0.00000   0.00000   0.00000   0.00000   0.00000   0.00000   0.00000   0.00000
Generated with MDTraj, t= 34.0
 52
    1UNL     C1    1  -0.421  -0.207  -0.144
    1UNL     C2    2  -0.364  -0.170  -0.009
    1UNL     C3    3  -0.222  -0.134  -0.014
    1UNL     C4    4  -0.154  -0.139   0.120
    1UNL     N1    5  -0.022  -0.071   0.111
    1UNL     C5    6   0.079  -0.112   0.211
    1UNL     C6    7  -0.034   0.076   0.105
    1UNL     C7    8   0.100   0.127   0.043
    1UNL     C8    9   0.189   0.021  -0.014
    1UNL     C9   10   0.150  -0.073  -0.110
    1UNL     N2   11   0.266  -0.145  -0.148
    1UNL    C10   12   0.366  -0.102  -0.057
    1UNL    C11   13   0.488  -0.164  -0.029
    1UNL    C12   14   0.566  -0.113   0.067
    1UNL    C13   15   0.530   0.005   0.130
    1UNL    C14   16   0.410   0.070   0.108
    1UNL    C15   17   0.322   0.008   0.019
    1UNL    C16   18   0.016  -0.115  -0.169
    1UNL     O1   19   0.001  -0.230  -0.189
    1UNL    C17   20  -0.094  -0.015  -0.196
    1UNL    C18   21  -0.198   0.007  -0.080
    1UNL    C19   22  -0.156   0.114   0.031
    1UNL    C20   23  -0.156   0.254  -0.030
    1UNL     O2   24  -0.107   0.270  -0.137
    1UNL     O3   25  -0.212   0.353   0.044
    1UNL    C21   26  -0.206   0.476  -0.019
    1UNL     H1   27  -0.414  -0.126  -0.215
    1UNL     H2   28  -0.523  -0.258  -0.140
    1UNL     H3   29  -0.359  -0.278  -0.186
    1UNL     H4   30  -0.387  -0.265   0.052
    1UNL     H5   31  -0.416  -0.086   0.035
    1UNL     H6   32  -0.167  -0.197  -0.078
    1UNL     H7   33  -0.221  -0.091   0.185
    1UNL     H8   34  -0.133  -0.251   0.146
    1UNL     H9   35   0.173  -0.050   0.214
    1UNL    H10   36   0.107  -0.216   0.228
    1UNL    H11   37   0.038  -0.090   0.307
    1UNL    H12   38  -0.037   0.115   0.209
    1UNL    H13   39   0.154   0.186   0.123
    1UNL    H14   40   0.074   0.199  -0.035
    1UNL    H15   41   0.276  -0.234  -0.199
    1UNL    H16   42   0.525  -0.249  -0.081
    1UNL    H17   43   0.654  -0.153   0.087
    1UNL    H18   44   0.595   0.049   0.195
    1UNL    H19   45   0.388   0.160   0.154
    1UNL    H20   46  -0.041   0.081  -0.220
    1UNL    H21   47  -0.148  -0.043  -0.278
    1UNL    H22   48  -0.293   0.060  -0.109
    1UNL    H23   49  -0.235   0.122   0.109
    1UNL    H24   50  -0.281   0.544   0.033
    1UNL    H25   51  -0.111   0.525  -0.030
    1UNL    H26   52  -0.243   0.454  -0.121
   0.00000   0.00000   0.00000   0.00000   0.00000   0.00000   0.00000   0.00000   0.00000
Generated with MDTraj, t= 35.0
 52
    1UNL     C1    1  -0.429  -0.187  -0.149
    1UNL     C2    2  -0.368  -0.171  -0.010
    1UNL     C3    3  -0.223  -0.131  -0.009
    1UNL     C4    4  -0.157  -0.136   0.131
    1UNL     N1    5  -0.020  -0.074   0.131
    1UNL     C5    6   0.056  -0.116   0.242
    1UNL     C6    7  -0.031   0.076   0.113
    1UNL     C7    8   0.099   0.133   0.045
    1UNL     C8    9   0.184   0.020  -0.018
    1UNL     C9   10   0.151  -0.079  -0.112
    1UNL     N2   11   0.265  -0.156  -0.141
    1UNL    C10   12   0.371  -0.106  -0.066
    1UNL    C11   13   0.504  -0.156  -0.049
    1UNL    C12   14   0.576  -0.097   0.054
    1UNL    C13   15   0.531   0.014   0.125
    1UNL    C14   16   0.406   0.061   0.109
    1UNL    C15   17   0.325   0.000   0.011
    1UNL    C16   18   0.019  -0.112  -0.171
    1UNL     O1   19  -0.000  -0.225  -0.200
    1UNL    C17   20  -0.082  -0.009  -0.196
    1UNL    C18   21  -0.192   0.007  -0.081
    1UNL    C19   22  -0.161   0.111   0.030
    1UNL    C20   23  -0.154   0.249  -0.031
    1UNL     O2   24  -0.082   0.270  -0.129
    1UNL     O3   25  -0.234   0.342   0.033
    1UNL    C21   26  -0.210   0.466  -0.023
    1UNL     H1   27  -0.403  -0.115  -0.223
    1UNL     H2   28  -0.542  -0.206  -0.147
    1UNL     H3   29  -0.391  -0.275  -0.195
    1UNL     H4   30  -0.376  -0.268   0.050
    1UNL     H5   31  -0.429  -0.094   0.038
    1UNL     H6   32  -0.168  -0.201  -0.065
    1UNL     H7   33  -0.218  -0.083   0.199
    1UNL     H8   34  -0.149  -0.245   0.162
    1UNL     H9   35   0.164  -0.094   0.225
    1UNL    H10   36   0.038  -0.220   0.272
    1UNL    H11   37   0.026  -0.070   0.333
    1UNL    H12   38  -0.042   0.105   0.219
    1UNL    H13   39   0.164   0.192   0.118
    1UNL    H14   40   0.076   0.202  -0.028
    1UNL    H15   41   0.264  -0.230  -0.212
    1UNL    H16   42   0.533  -0.253  -0.095
    1UNL    H17   43   0.674  -0.135   0.086
    1UNL    H18   44   0.602   0.054   0.205
    1UNL    H19   45   0.382   0.141   0.184
    1UNL    H20   46  -0.033   0.089  -0.223
    1UNL    H21   47  -0.132  -0.046  -0.279
    1UNL    H22   48  -0.280   0.059  -0.125
    1UNL    H23   49  -0.252   0.113   0.095
    1UNL    H24   50  -0.265   0.549   0.031
    1UNL    H25   51  -0.108   0.498  -0.043
    1UNL    H26   52  -0.254   0.451  -0.125
   0.00000   0.00000   0.00000   0.00000   0.00000   0.00000   0.00000   0.00000   0.00000
Generated with MDTraj, t= 36.0
 52
    1UNL     C1    1  -0.445  -0.187  -0.143
    1UNL     C2    2  -0.372  -0.160  -0.011
    1UNL     C3    3  -0.223  -0.130  -0.027
    1UNL     C4    4  -0.159  -0.142   0.113
    1UNL     N1    5  -0.025  -0.067   0.147
    1UNL     C5    6   0.038  -0.115   0.273
    1UNL     C6    7  -0.032   0.081   0.112
    1UNL     C7    8   0.104   0.126   0.045
    1UNL     C8    9   0.192   0.007  -0.004
    1UNL     C9   10   0.153  -0.089  -0.095
    1UNL     N2   11   0.259  -0.170  -0.116
    1UNL    C10   12   0.370  -0.130  -0.047
    1UNL    C11   13   0.510  -0.158  -0.049
    1UNL    C12   14   0.591  -0.076   0.017
    1UNL    C13   15   0.547   0.022   0.103
    1UNL    C14   16   0.414   0.055   0.101
    1UNL    C15   17   0.327  -0.016   0.025
    1UNL    C16   18   0.026  -0.107  -0.170
    1UNL     O1   19   0.009  -0.219  -0.217
    1UNL    C17   20  -0.075   0.004  -0.195
    1UNL    C18   21  -0.191   0.014  -0.090
    1UNL    C19   22  -0.159   0.117   0.021
    1UNL    C20   23  -0.158   0.252  -0.034
    1UNL     O2   24  -0.077   0.278  -0.122
    1UNL     O3   25  -0.242   0.336   0.026
    1UNL    C21   26  -0.228   0.461  -0.024
    1UNL     H1   27  -0.435  -0.117  -0.221
    1UNL     H2   28  -0.552  -0.212  -0.127
    1UNL     H3   29  -0.400  -0.277  -0.190
    1UNL     H4   30  -0.389  -0.249   0.055
    1UNL     H5   31  -0.411  -0.067   0.040
    1UNL     H6   32  -0.186  -0.202  -0.093
    1UNL     H7   33  -0.226  -0.094   0.183
    1UNL     H8   34  -0.148  -0.247   0.147
    1UNL     H9   35   0.107  -0.040   0.311
    1UNL    H10   36   0.089  -0.210   0.253
    1UNL    H11   37  -0.033  -0.152   0.346
    1UNL    H12   38  -0.056   0.134   0.205
    1UNL    H13   39   0.167   0.182   0.119
    1UNL    H14   40   0.089   0.195  -0.033
    1UNL    H15   41   0.254  -0.257  -0.169
    1UNL    H16   42   0.547  -0.241  -0.098
    1UNL    H17   43   0.707  -0.101   0.020
    1UNL    H18   44   0.616   0.078   0.158
    1UNL    H19   45   0.383   0.131   0.167
    1UNL    H20   46  -0.021   0.101  -0.187
    1UNL    H21   47  -0.110  -0.006  -0.295
    1UNL    H22   48  -0.283   0.030  -0.146
    1UNL    H23   49  -0.253   0.109   0.079
    1UNL    H24   50  -0.304   0.525   0.025
    1UNL    H25   51  -0.132   0.515  -0.014
    1UNL    H26   52  -0.245   0.454  -0.133
   0.00000   0.00000   0.00000   0.00000   0.00000   0.00000   0.00000   0.00000   0.00000
Generated with MDTraj, t= 37.0
 52
    1UNL     C1    1  -0.431  -0.171  -0.175
    1UNL     C2    2  -0.378  -0.151  -0.031
    1UNL     C3    3  -0.227  -0.130  -0.024
    1UNL     C4    4  -0.165  -0.148   0.121
    1UNL     N1    5  -0.039  -0.070   0.153
    1UNL     C5    6   0.054  -0.111   0.266
    1UNL     C6    7  -0.035   0.073   0.108
    1UNL     C7    8   0.108   0.118   0.054
    1UNL     C8    9   0.191   0.014  -0.017
    1UNL     C9   10   0.160  -0.094  -0.097
    1UNL     N2   11   0.263  -0.180  -0.117
    1UNL    C10   12   0.369  -0.125  -0.053
    1UNL    C11   13   0.505  -0.165  -0.042
    1UNL    C12   14   0.590  -0.089   0.027
    1UNL    C13   15   0.552   0.031   0.089
    1UNL    C14   16   0.422   0.074   0.089
    1UNL    C15   17   0.328  -0.002   0.008
    1UNL    C16   18   0.029  -0.115  -0.159
    1UNL     O1   19   0.005  -0.232  -0.196
    1UNL    C17   20  -0.073  -0.004  -0.187
    1UNL    C18   21  -0.190   0.009  -0.085
    1UNL    C19   22  -0.166   0.115   0.030
    1UNL    C20   23  -0.158   0.255  -0.021
    1UNL     O2   24  -0.069   0.278  -0.104
    1UNL     O3   25  -0.248   0.343   0.038
    1UNL    C21   26  -0.247   0.463  -0.034
    1UNL     H1   27  -0.412  -0.092  -0.245
    1UNL     H2   28  -0.533  -0.202  -0.169
    1UNL     H3   29  -0.369  -0.257  -0.217
    1UNL     H4   30  -0.404  -0.235   0.037
    1UNL     H5   31  -0.427  -0.057   0.012
    1UNL     H6   32  -0.179  -0.204  -0.079
    1UNL     H7   33  -0.230  -0.131   0.209
    1UNL     H8   34  -0.125  -0.247   0.132
    1UNL     H9   35   0.147  -0.114   0.213
    1UNL    H10   36   0.024  -0.206   0.313
    1UNL    H11   37   0.058  -0.037   0.347
    1UNL    H12   38  -0.055   0.131   0.199
    1UNL    H13   39   0.164   0.158   0.137
    1UNL    H14   40   0.087   0.202  -0.012
    1UNL    H15   41   0.252  -0.245  -0.194
    1UNL    H16   42   0.533  -0.261  -0.094
    1UNL    H17   43   0.685  -0.121   0.026
    1UNL    H18   44   0.635   0.089   0.132
    1UNL    H19   45   0.401   0.174   0.124
    1UNL    H20   46  -0.017   0.089  -0.198
    1UNL    H21   47  -0.111  -0.031  -0.289
    1UNL    H22   48  -0.275   0.037  -0.147
    1UNL    H23   49  -0.257   0.119   0.096
    1UNL    H24   50  -0.325   0.532  -0.008
    1UNL    H25   51  -0.152   0.518  -0.022
    1UNL    H26   52  -0.247   0.439  -0.141
   0.00000   0.00000   0.00000   0.00000   0.00000   0.00000   0.00000   0.00000   0.00000
Generated with MDTraj, t= 38.0
 52
    1UNL     C1    1  -0.417  -0.174  -0.163
    1UNL     C2    2  -0.382  -0.164  -0.018
    1UNL     C3    3  -0.231  -0.126  -0.013
    1UNL     C4    4  -0.176  -0.140   0.130
    1UNL     N1    5  -0.034  -0.085   0.127
    1UNL     C5    6   0.061  -0.145   0.227
    1UNL     C6    7  -0.029   0.073   0.110
    1UNL     C7    8   0.107   0.119   0.056
    1UNL     C8    9   0.194   0.019  -0.011
    1UNL     C9   10   0.157  -0.080  -0.103
    1UNL     N2   11   0.261  -0.170  -0.119
    1UNL    C10   12   0.370  -0.121  -0.051
    1UNL    C11   13   0.506  -0.159  -0.044
    1UNL    C12   14   0.594  -0.086   0.030
    1UNL    C13   15   0.547   0.029   0.099
    1UNL    C14   16   0.415   0.070   0.091
    1UNL    C15   17   0.329  -0.002   0.012
    1UNL    C16   18   0.029  -0.114  -0.155
    1UNL     O1   19  -0.014  -0.230  -0.167
    1UNL    C17   20  -0.078  -0.005  -0.191
    1UNL    C18   21  -0.186   0.007  -0.081
    1UNL    C19   22  -0.151   0.114   0.023
    1UNL    C20   23  -0.150   0.260  -0.029
    1UNL     O2   24  -0.064   0.287  -0.110
    1UNL     O3   25  -0.255   0.338   0.012
    1UNL    C21   26  -0.250   0.474  -0.026
    1UNL     H1   27  -0.416  -0.078  -0.216
    1UNL     H2   28  -0.505  -0.227  -0.175
    1UNL     H3   29  -0.335  -0.232  -0.220
    1UNL     H4   30  -0.412  -0.250   0.045
    1UNL     H5   31  -0.436  -0.076   0.034
    1UNL     H6   32  -0.178  -0.198  -0.066
    1UNL     H7   33  -0.234  -0.077   0.202
    1UNL     H8   34  -0.176  -0.240   0.163
    1UNL     H9   35   0.133  -0.194   0.166
    1UNL    H10   36   0.005  -0.223   0.281
    1UNL    H11   37   0.100  -0.069   0.298
    1UNL    H12   38  -0.040   0.101   0.217
    1UNL    H13   39   0.158   0.173   0.132
    1UNL    H14   40   0.084   0.200  -0.021
    1UNL    H15   41   0.237  -0.268  -0.132
    1UNL    H16   42   0.538  -0.241  -0.099
    1UNL    H17   43   0.696  -0.117   0.041
    1UNL    H18   44   0.624   0.086   0.148
    1UNL    H19   45   0.389   0.166   0.137
    1UNL    H20   46  -0.025   0.088  -0.194
    1UNL    H21   47  -0.116  -0.023  -0.299
    1UNL    H22   48  -0.265   0.060  -0.133
    1UNL    H23   49  -0.235   0.122   0.095
    1UNL    H24   50  -0.315   0.536   0.030
    1UNL    H25   51  -0.145   0.501  -0.011
    1UNL    H26   52  -0.271   0.499  -0.129
   0.00000   0.00000   0.00000   0.00000   0.00000   0.00000   0.00000   0.00000   0.00000
Generated with MDTraj, t= 39.0
 52
    1UNL     C1    1  -0.450  -0.190  -0.135
    1UNL     C2    2  -0.378  -0.141  -0.008
    1UNL     C3    3  -0.224  -0.133  -0.022
    1UNL     C4    4  -0.166  -0.154   0.123
    1UNL     N1    5  -0.043  -0.084   0.128
    1UNL     C5    6   0.069  -0.140   0.206
    1UNL     C6    7  -0.041   0.066   0.111
    1UNL     C7    8   0.094   0.119   0.056
    1UNL     C8    9   0.184   0.016  -0.007
    1UNL     C9   10   0.158  -0.077  -0.100
    1UNL     N2   11   0.268  -0.163  -0.121
    1UNL    C10   12   0.373  -0.107  -0.047
    1UNL    C11   13   0.509  -0.150  -0.056
    1UNL    C12   14   0.594  -0.085   0.032
    1UNL    C13   15   0.552   0.019   0.120
    1UNL    C14   16   0.420   0.064   0.109
    1UNL    C15   17   0.323   0.005   0.021
    1UNL    C16   18   0.026  -0.110  -0.160
    1UNL     O1   19   0.001  -0.227  -0.191
    1UNL    C17   20  -0.077  -0.001  -0.185
    1UNL    C18   21  -0.190   0.006  -0.086
    1UNL    C19   22  -0.164   0.110   0.028
    1UNL    C20   23  -0.150   0.259  -0.028
    1UNL     O2   24  -0.067   0.275  -0.113
    1UNL     O3   25  -0.238   0.350   0.021
    1UNL    C21   26  -0.231   0.466  -0.047
    1UNL     H1   27  -0.402  -0.159  -0.231
    1UNL     H2   28  -0.555  -0.178  -0.132
    1UNL     H3   29  -0.440  -0.302  -0.140
    1UNL     H4   30  -0.407  -0.202   0.079
    1UNL     H5   31  -0.423  -0.041   0.030
    1UNL     H6   32  -0.202  -0.213  -0.088
    1UNL     H7   33  -0.236  -0.112   0.202
    1UNL     H8   34  -0.145  -0.256   0.137
    1UNL     H9   35   0.104  -0.225   0.153
    1UNL    H10   36   0.023  -0.170   0.303
    1UNL    H11   37   0.141  -0.055   0.218
    1UNL    H12   38  -0.052   0.111   0.212
    1UNL    H13   39   0.157   0.164   0.126
    1UNL    H14   40   0.073   0.209  -0.013
    1UNL    H15   41   0.277  -0.223  -0.203
    1UNL    H16   42   0.534  -0.237  -0.117
    1UNL    H17   43   0.700  -0.133   0.044
    1UNL    H18   44   0.615   0.072   0.188
    1UNL    H19   45   0.390   0.140   0.174
    1UNL    H20   46  -0.031   0.094  -0.199
    1UNL    H21   47  -0.127  -0.022  -0.290
    1UNL    H22   48  -0.279   0.036  -0.140
    1UNL    H23   49  -0.247   0.123   0.098
    1UNL    H24   50  -0.320   0.522  -0.034
    1UNL    H25   51  -0.141   0.514  -0.003
    1UNL    H26   52  -0.223   0.466  -0.156
   0.00000   0.00000   0.00000   0.00000   0.00000   0.00000   0.00000   0.00000   0.00000
Generated with MDTraj, t= 40.0
 52
    1UNL     C1    1  -0.468  -0.168  -0.124
    1UNL     C2    2  -0.378  -0.151  -0.005
    1UNL     C3    3  -0.227  -0.139  -0.024
    1UNL     C4    4  -0.164  -0.156   0.118
    1UNL     N1    5  -0.039  -0.083   0.128
    1UNL     C5    6   0.062  -0.129   0.243
    1UNL     C6    7  -0.045   0.067   0.118
    1UNL     C7    8   0.088   0.115   0.056
    1UNL     C8    9   0.186   0.031  -0.013
    1UNL     C9   10   0.158  -0.066  -0.115
    1UNL     N2   11   0.273  -0.143  -0.149
    1UNL    C10   12   0.373  -0.102  -0.056
    1UNL    C11   13   0.507  -0.145  -0.049
    1UNL    C12   14   0.590  -0.087   0.052
    1UNL    C13   15   0.541   0.022   0.128
    1UNL    C14   16   0.410   0.066   0.107
    1UNL    C15   17   0.323   0.010   0.015
    1UNL    C16   18   0.027  -0.109  -0.171
    1UNL     O1   19   0.003  -0.221  -0.200
    1UNL    C17   20  -0.082  -0.011  -0.194
    1UNL    C18   21  -0.190  -0.000  -0.087
    1UNL    C19   22  -0.161   0.097   0.022
    1UNL    C20   23  -0.141   0.238  -0.033
    1UNL     O2   24  -0.062   0.263  -0.119
    1UNL     O3   25  -0.221   0.335   0.027
    1UNL    C21   26  -0.211   0.457  -0.041
    1UNL     H1   27  -0.489  -0.069  -0.174
    1UNL     H2   28  -0.559  -0.217  -0.086
    1UNL     H3   29  -0.427  -0.234  -0.195
    1UNL     H4   30  -0.400  -0.225   0.075
    1UNL     H5   31  -0.421  -0.056   0.047
    1UNL     H6   32  -0.203  -0.220  -0.087
    1UNL     H7   33  -0.225  -0.100   0.196
    1UNL     H8   34  -0.152  -0.258   0.141
    1UNL     H9   35   0.033  -0.230   0.265
    1UNL    H10   36   0.042  -0.068   0.333
    1UNL    H11   37   0.165  -0.113   0.209
    1UNL    H12   38  -0.067   0.112   0.218
    1UNL    H13   39   0.132   0.166   0.136
    1UNL    H14   40   0.079   0.196  -0.022
    1UNL    H15   41   0.267  -0.240  -0.179
    1UNL    H16   42   0.534  -0.233  -0.112
    1UNL    H17   43   0.684  -0.123   0.061
    1UNL    H18   44   0.609   0.073   0.201
    1UNL    H19   45   0.377   0.154   0.169
    1UNL    H20   46  -0.044   0.090  -0.207
    1UNL    H21   47  -0.127  -0.034  -0.299
    1UNL    H22   48  -0.281   0.024  -0.139
    1UNL    H23   49  -0.254   0.103   0.079
    1UNL    H24   50  -0.277   0.531  -0.002
    1UNL    H25   51  -0.104   0.493  -0.036
    1UNL    H26   52  -0.243   0.453  -0.146
   0.00000   0.00000   0.00000   0.00000   0.00000   0.00000   0.00000   0.00000   0.00000
Generated with MDTraj, t= 41.0
 52
    1UNL     C1    1  -0.450  -0.150  -0.142
    1UNL     C2    2  -0.378  -0.161  -0.008
    1UNL     C3    3  -0.221  -0.137  -0.020
    1UNL     C4    4  -0.151  -0.152   0.117
    1UNL     N1    5  -0.027  -0.081   0.135
    1UNL     C5    6   0.048  -0.133   0.257
    1UNL     C6    7  -0.032   0.068   0.106
    1UNL     C7    8   0.102   0.123   0.038
    1UNL     C8    9   0.186   0.021  -0.015
    1UNL     C9   10   0.150  -0.074  -0.105
    1UNL     N2   11   0.262  -0.152  -0.129
    1UNL    C10   12   0.372  -0.099  -0.059
    1UNL    C11   13   0.507  -0.145  -0.055
    1UNL    C12   14   0.591  -0.080   0.039
    1UNL    C13   15   0.536   0.025   0.123
    1UNL    C14   16   0.405   0.066   0.120
    1UNL    C15   17   0.321   0.007   0.019
    1UNL    C16   18   0.022  -0.118  -0.168
    1UNL     O1   19   0.003  -0.234  -0.186
    1UNL    C17   20  -0.083  -0.010  -0.199
    1UNL    C18   21  -0.191  -0.003  -0.089
    1UNL    C19   22  -0.158   0.099   0.020
    1UNL    C20   23  -0.156   0.246  -0.039
    1UNL     O2   24  -0.093   0.257  -0.139
    1UNL     O3   25  -0.223   0.342   0.033
    1UNL    C21   26  -0.198   0.470  -0.016
    1UNL     H1   27  -0.460  -0.048  -0.188
    1UNL     H2   28  -0.553  -0.196  -0.137
    1UNL     H3   29  -0.398  -0.206  -0.210
    1UNL     H4   30  -0.398  -0.263   0.034
    1UNL     H5   31  -0.410  -0.094   0.079
    1UNL     H6   32  -0.171  -0.216  -0.068
    1UNL     H7   33  -0.216  -0.124   0.206
    1UNL     H8   34  -0.109  -0.249   0.132
    1UNL     H9   35   0.071  -0.234   0.218
    1UNL    H10   36  -0.013  -0.146   0.347
    1UNL    H11   37   0.135  -0.070   0.273
    1UNL    H12   38  -0.038   0.118   0.204
    1UNL    H13   39   0.160   0.186   0.100
    1UNL    H14   40   0.073   0.184  -0.042
    1UNL    H15   41   0.287  -0.208  -0.211
    1UNL    H16   42   0.532  -0.229  -0.108
    1UNL    H17   43   0.688  -0.129   0.053
    1UNL    H18   44   0.603   0.078   0.181
    1UNL    H19   45   0.364   0.140   0.182
    1UNL    H20   46  -0.034   0.090  -0.218
    1UNL    H21   47  -0.130  -0.031  -0.302
    1UNL    H22   48  -0.278   0.027  -0.143
    1UNL    H23   49  -0.242   0.102   0.089
    1UNL    H24   50  -0.232   0.546   0.049
    1UNL    H25   51  -0.087   0.493  -0.033
    1UNL    H26   52  -0.254   0.477  -0.111
   0.00000   0.00000   0.00000   0.00000   0.00000   0.00000   0.00000   0.00000   0.00000
Generated with MDTraj, t= 42.0
 52
    1UNL     C1    1  -0.443  -0.185  -0.163
    1UNL     C2    2  -0.390  -0.163  -0.021
    1UNL     C3    3  -0.238  -0.130  -0.025
    1UNL     C4    4  -0.168  -0.144   0.113
    1UNL     N1    5  -0.023  -0.081   0.122
    1UNL     C5    6   0.062  -0.119   0.235
    1UNL     C6    7  -0.033   0.072   0.104
    1UNL     C7    8   0.105   0.119   0.042
    1UNL     C8    9   0.193   0.014  -0.008
    1UNL     C9   10   0.155  -0.096  -0.084
    1UNL     N2   11   0.266  -0.168  -0.121
    1UNL    C10   12   0.372  -0.113  -0.049
    1UNL    C11   13   0.504  -0.152  -0.037
    1UNL    C12   14   0.589  -0.078   0.036
    1UNL    C13   15   0.544   0.040   0.108
    1UNL    C14   16   0.413   0.078   0.099
    1UNL    C15   17   0.326   0.002   0.016
    1UNL    C16   18   0.026  -0.128  -0.153
    1UNL     O1   19   0.001  -0.236  -0.199
    1UNL    C17   20  -0.078  -0.024  -0.189
    1UNL    C18   21  -0.194   0.005  -0.093
    1UNL    C19   22  -0.156   0.110   0.017
    1UNL    C20   23  -0.159   0.256  -0.028
    1UNL     O2   24  -0.123   0.269  -0.141
    1UNL     O3   25  -0.201   0.358   0.059
    1UNL    C21   26  -0.207   0.484   0.002
    1UNL     H1   27  -0.404  -0.117  -0.240
    1UNL     H2   28  -0.558  -0.179  -0.165
    1UNL     H3   29  -0.413  -0.280  -0.197
    1UNL     H4   30  -0.413  -0.252   0.048
    1UNL     H5   31  -0.443  -0.074   0.024
    1UNL     H6   32  -0.195  -0.213  -0.078
    1UNL     H7   33  -0.219  -0.094   0.198
    1UNL     H8   34  -0.156  -0.249   0.135
    1UNL     H9   35   0.058  -0.232   0.242
    1UNL    H10   36   0.015  -0.084   0.326
    1UNL    H11   37   0.160  -0.074   0.236
    1UNL    H12   38  -0.043   0.111   0.205
    1UNL    H13   39   0.167   0.169   0.114
    1UNL    H14   40   0.095   0.192  -0.028
    1UNL    H15   41   0.267  -0.258  -0.168
    1UNL    H16   42   0.532  -0.248  -0.091
    1UNL    H17   43   0.698  -0.110   0.045
    1UNL    H18   44   0.620   0.105   0.164
    1UNL    H19   45   0.378   0.176   0.128
    1UNL    H20   46  -0.012   0.069  -0.211
    1UNL    H21   47  -0.112  -0.055  -0.290
    1UNL    H22   48  -0.269   0.047  -0.157
    1UNL    H23   49  -0.241   0.112   0.086
    1UNL    H24   50  -0.255   0.551   0.070
    1UNL    H25   51  -0.109   0.544  -0.016
    1UNL    H26   52  -0.270   0.465  -0.088
   0.00000   0.00000   0.00000   0.00000   0.00000   0.00000   0.00000   0.00000   0.00000
Generated with MDTraj, t= 43.0
 52
    1UNL     C1    1  -0.438  -0.210  -0.169
    1UNL     C2    2  -0.380  -0.157  -0.034
    1UNL     C3    3  -0.231  -0.131  -0.027
    1UNL     C4    4  -0.166  -0.136   0.116
    1UNL     N1    5  -0.028  -0.080   0.124
    1UNL     C5    6   0.051  -0.117   0.235
    1UNL     C6    7  -0.034   0.074   0.106
    1UNL     C7    8   0.100   0.125   0.049
    1UNL     C8    9   0.181   0.016  -0.016
    1UNL     C9   10   0.149  -0.088  -0.104
    1UNL     N2   11   0.261  -0.169  -0.110
    1UNL    C10   12   0.365  -0.118  -0.037
    1UNL    C11   13   0.500  -0.164  -0.015
    1UNL    C12   14   0.593  -0.079   0.046
    1UNL    C13   15   0.552   0.053   0.085
    1UNL    C14   16   0.421   0.084   0.073
    1UNL    C15   17   0.321   0.003   0.016
    1UNL    C16   18   0.019  -0.118  -0.162
    1UNL     O1   19  -0.010  -0.235  -0.185
    1UNL    C17   20  -0.074  -0.006  -0.196
    1UNL    C18   21  -0.190   0.011  -0.092
    1UNL    C19   22  -0.161   0.110   0.022
    1UNL    C20   23  -0.156   0.252  -0.032
    1UNL     O2   24  -0.120   0.270  -0.148
    1UNL     O3   25  -0.199   0.336   0.067
    1UNL    C21   26  -0.182   0.469   0.022
    1UNL     H1   27  -0.430  -0.145  -0.254
    1UNL     H2   28  -0.545  -0.242  -0.156
    1UNL     H3   29  -0.381  -0.303  -0.196
    1UNL     H4   30  -0.412  -0.242   0.042
    1UNL     H5   31  -0.436  -0.063  -0.011
    1UNL     H6   32  -0.204  -0.214  -0.091
    1UNL     H7   33  -0.229  -0.073   0.180
    1UNL     H8   34  -0.156  -0.238   0.155
    1UNL     H9   35   0.073  -0.228   0.249
    1UNL    H10   36   0.003  -0.091   0.328
    1UNL    H11   37   0.139  -0.055   0.235
    1UNL    H12   38  -0.046   0.118   0.204
    1UNL    H13   39   0.157   0.182   0.120
    1UNL    H14   40   0.085   0.199  -0.022
    1UNL    H15   41   0.264  -0.237  -0.187
    1UNL    H16   42   0.525  -0.264  -0.032
    1UNL    H17   43   0.687  -0.111   0.068
    1UNL    H18   44   0.629   0.114   0.122
    1UNL    H19   45   0.393   0.189   0.098
    1UNL    H20   46  -0.015   0.094  -0.210
    1UNL    H21   47  -0.107  -0.033  -0.299
    1UNL    H22   48  -0.273   0.046  -0.150
    1UNL    H23   49  -0.248   0.106   0.086
    1UNL    H24   50  -0.181   0.544   0.098
    1UNL    H25   51  -0.084   0.484  -0.037
    1UNL    H26   52  -0.263   0.485  -0.051
   0.00000   0.00000   0.00000   0.00000   0.00000   0.00000   0.00000   0.00000   0.00000
Generated with MDTraj, t= 44.0
 52
    1UNL     C1    1  -0.439  -0.198  -0.156
    1UNL     C2    2  -0.361  -0.172  -0.029
    1UNL     C3    3  -0.215  -0.140  -0.026
    1UNL     C4    4  -0.160  -0.142   0.113
    1UNL     N1    5  -0.026  -0.073   0.126
    1UNL     C5    6   0.045  -0.123   0.243
    1UNL     C6    7  -0.038   0.074   0.105
    1UNL     C7    8   0.083   0.131   0.034
    1UNL     C8    9   0.181   0.023  -0.017
    1UNL     C9   10   0.150  -0.087  -0.099
    1UNL     N2   11   0.257  -0.165  -0.110
    1UNL    C10   12   0.360  -0.109  -0.041
    1UNL    C11   13   0.496  -0.148  -0.037
    1UNL    C12   14   0.581  -0.077   0.039
    1UNL    C13   15   0.533   0.035   0.104
    1UNL    C14   16   0.406   0.089   0.096
    1UNL    C15   17   0.315   0.011   0.019
    1UNL    C16   18   0.022  -0.124  -0.168
    1UNL     O1   19  -0.003  -0.241  -0.202
    1UNL    C17   20  -0.086  -0.020  -0.198
    1UNL    C18   21  -0.187   0.005  -0.085
    1UNL    C19   22  -0.163   0.112   0.029
    1UNL    C20   23  -0.159   0.251  -0.029
    1UNL     O2   24  -0.108   0.269  -0.140
    1UNL     O3   25  -0.187   0.348   0.062
    1UNL    C21   26  -0.158   0.469   0.006
    1UNL     H1   27  -0.448  -0.118  -0.227
    1UNL     H2   28  -0.540  -0.236  -0.140
    1UNL     H3   29  -0.390  -0.282  -0.222
    1UNL     H4   30  -0.384  -0.267   0.040
    1UNL     H5   31  -0.414  -0.085   0.017
    1UNL     H6   32  -0.172  -0.219  -0.090
    1UNL     H7   33  -0.227  -0.090   0.178
    1UNL     H8   34  -0.153  -0.248   0.146
    1UNL     H9   35   0.055  -0.235   0.251
    1UNL    H10   36  -0.002  -0.101   0.340
    1UNL    H11   37   0.143  -0.078   0.258
    1UNL    H12   38  -0.041   0.121   0.202
    1UNL    H13   39   0.132   0.210   0.083
    1UNL    H14   40   0.044   0.182  -0.054
    1UNL    H15   41   0.253  -0.261  -0.146
    1UNL    H16   42   0.527  -0.237  -0.090
    1UNL    H17   43   0.691  -0.104   0.050
    1UNL    H18   44   0.598   0.102   0.160
    1UNL    H19   45   0.382   0.171   0.150
    1UNL    H20   46  -0.033   0.078  -0.226
    1UNL    H21   47  -0.145  -0.043  -0.290
    1UNL    H22   48  -0.274   0.048  -0.131
    1UNL    H23   49  -0.252   0.123   0.091
    1UNL    H24   50  -0.196   0.541   0.072
    1UNL    H25   51  -0.046   0.475  -0.018
    1UNL    H26   52  -0.208   0.485  -0.090
   0.00000   0.00000   0.00000   0.00000   0.00000   0.00000   0.00000   0.00000   0.00000
Generated with MDTraj, t= 45.0
 52
    1UNL     C1    1  -0.444  -0.184  -0.143
    1UNL     C2    2  -0.373  -0.168  -0.009
    1UNL     C3    3  -0.223  -0.144  -0.016
    1UNL     C4    4  -0.167  -0.149   0.126
    1UNL     N1    5  -0.036  -0.074   0.142
    1UNL     C5    6   0.049  -0.112   0.253
    1UNL     C6    7  -0.044   0.073   0.113
    1UNL     C7    8   0.093   0.123   0.041
    1UNL     C8    9   0.180   0.013  -0.007
    1UNL     C9   10   0.150  -0.090  -0.102
    1UNL     N2   11   0.267  -0.150  -0.141
    1UNL    C10   12   0.371  -0.099  -0.062
    1UNL    C11   13   0.504  -0.133  -0.050
    1UNL    C12   14   0.580  -0.079   0.050
    1UNL    C13   15   0.537   0.020   0.131
    1UNL    C14   16   0.407   0.067   0.116
    1UNL    C15   17   0.324   0.008   0.020
    1UNL    C16   18   0.024  -0.115  -0.180
    1UNL     O1   19   0.006  -0.229  -0.224
    1UNL    C17   20  -0.076  -0.012  -0.195
    1UNL    C18   21  -0.190  -0.008  -0.086
    1UNL    C19   22  -0.171   0.102   0.026
    1UNL    C20   23  -0.156   0.249  -0.033
    1UNL     O2   24  -0.131   0.258  -0.154
    1UNL     O3   25  -0.175   0.352   0.049
    1UNL    C21   26  -0.168   0.474  -0.016
    1UNL     H1   27  -0.425  -0.111  -0.220
    1UNL     H2   28  -0.550  -0.201  -0.137
    1UNL     H3   29  -0.398  -0.277  -0.198
    1UNL     H4   30  -0.401  -0.263   0.054
    1UNL     H5   31  -0.425  -0.084   0.046
    1UNL     H6   32  -0.164  -0.222  -0.068
    1UNL     H7   33  -0.241  -0.113   0.190
    1UNL     H8   34  -0.148  -0.255   0.159
    1UNL     H9   35   0.061  -0.220   0.259
    1UNL    H10   36   0.030  -0.086   0.359
    1UNL    H11   37   0.149  -0.069   0.233
    1UNL    H12   38  -0.049   0.114   0.214
    1UNL    H13   39   0.140   0.178   0.117
    1UNL    H14   40   0.070   0.198  -0.039
    1UNL    H15   41   0.267  -0.222  -0.215
    1UNL    H16   42   0.556  -0.208  -0.117
    1UNL    H17   43   0.682  -0.110   0.051
    1UNL    H18   44   0.612   0.059   0.203
    1UNL    H19   45   0.370   0.145   0.190
    1UNL    H20   46  -0.036   0.088  -0.209
    1UNL    H21   47  -0.122  -0.032  -0.297
    1UNL    H22   48  -0.277   0.030  -0.139
    1UNL    H23   49  -0.264   0.105   0.082
    1UNL    H24   50  -0.223   0.546   0.037
    1UNL    H25   51  -0.055   0.489  -0.036
    1UNL    H26   52  -0.204   0.476  -0.118
   0.00000   0.00000   0.00000   0.00000   0.00000   0.00000   0.00000   0.00000   0.00000
Generated with MDTraj, t= 46.0
 52
    1UNL     C1    1  -0.433  -0.192  -0.140
    1UNL     C2    2  -0.379  -0.167  -0.002
    1UNL     C3    3  -0.228  -0.143  -0.016
    1UNL     C4    4  -0.160  -0.163   0.122
    1UNL     N1    5  -0.028  -0.079   0.128
    1UNL     C5    6   0.050  -0.104   0.255
    1UNL     C6    7  -0.038   0.068   0.096
    1UNL     C7    8   0.097   0.127   0.052
    1UNL     C8    9   0.185   0.023  -0.014
    1UNL     C9   10   0.155  -0.062  -0.118
    1UNL     N2   11   0.276  -0.132  -0.147
    1UNL    C10   12   0.375  -0.103  -0.058
    1UNL    C11   13   0.505  -0.150  -0.045
    1UNL    C12   14   0.583  -0.086   0.049
    1UNL    C13   15   0.537   0.015   0.126
    1UNL    C14   16   0.406   0.053   0.125
    1UNL    C15   17   0.322  -0.005   0.029
    1UNL    C16   18   0.021  -0.102  -0.173
    1UNL     O1   19  -0.009  -0.217  -0.185
    1UNL    C17   20  -0.088  -0.002  -0.208
    1UNL    C18   21  -0.196  -0.002  -0.096
    1UNL    C19   22  -0.164   0.100   0.015
    1UNL    C20   23  -0.157   0.237  -0.038
    1UNL     O2   24  -0.135   0.256  -0.156
    1UNL     O3   25  -0.174   0.346   0.047
    1UNL    C21   26  -0.180   0.475  -0.015
    1UNL     H1   27  -0.430  -0.106  -0.209
    1UNL     H2   28  -0.534  -0.228  -0.132
    1UNL     H3   29  -0.366  -0.265  -0.196
    1UNL     H4   30  -0.414  -0.254   0.065
    1UNL     H5   31  -0.434  -0.076   0.043
    1UNL     H6   32  -0.181  -0.220  -0.078
    1UNL     H7   33  -0.226  -0.120   0.190
    1UNL     H8   34  -0.149  -0.271   0.156
    1UNL     H9   35   0.085  -0.204   0.270
    1UNL    H10   36  -0.001  -0.082   0.351
    1UNL    H11   37   0.141  -0.038   0.256
    1UNL    H12   38  -0.055   0.104   0.198
    1UNL    H13   39   0.153   0.159   0.136
    1UNL    H14   40   0.076   0.217  -0.014
    1UNL    H15   41   0.290  -0.221  -0.198
    1UNL    H16   42   0.544  -0.216  -0.111
    1UNL    H17   43   0.685  -0.117   0.064
    1UNL    H18   44   0.600   0.061   0.196
    1UNL    H19   45   0.378   0.133   0.196
    1UNL    H20   46  -0.046   0.092  -0.220
    1UNL    H21   47  -0.132  -0.018  -0.312
    1UNL    H22   48  -0.296   0.021  -0.134
    1UNL    H23   49  -0.250   0.098   0.080
    1UNL    H24   50  -0.158   0.542   0.060
    1UNL    H25   51  -0.107   0.474  -0.105
    1UNL    H26   52  -0.276   0.506  -0.051
   0.00000   0.00000   0.00000   0.00000   0.00000   0.00000   0.00000   0.00000   0.00000
Generated with MDTraj, t= 47.0
 52
    1UNL     C1    1  -0.426  -0.196  -0.154
    1UNL     C2    2  -0.380  -0.168  -0.012
    1UNL     C3    3  -0.224  -0.138  -0.017
    1UNL     C4    4  -0.162  -0.142   0.122
    1UNL     N1    5  -0.027  -0.081   0.117
    1UNL     C5    6   0.058  -0.123   0.228
    1UNL     C6    7  -0.035   0.068   0.098
    1UNL     C7    8   0.088   0.128   0.039
    1UNL     C8    9   0.187   0.032  -0.031
    1UNL     C9   10   0.156  -0.079  -0.113
    1UNL     N2   11   0.260  -0.171  -0.115
    1UNL    C10   12   0.371  -0.102  -0.059
    1UNL    C11   13   0.502  -0.152  -0.033
    1UNL    C12   14   0.579  -0.085   0.050
    1UNL    C13   15   0.531   0.022   0.130
    1UNL    C14   16   0.410   0.079   0.106
    1UNL    C15   17   0.326   0.019   0.004
    1UNL    C16   18   0.027  -0.124  -0.170
    1UNL     O1   19   0.008  -0.239  -0.191
    1UNL    C17   20  -0.085  -0.025  -0.195
    1UNL    C18   21  -0.195  -0.001  -0.088
    1UNL    C19   22  -0.167   0.106   0.021
    1UNL    C20   23  -0.163   0.254  -0.030
    1UNL     O2   24  -0.138   0.280  -0.145
    1UNL     O3   25  -0.183   0.354   0.061
    1UNL    C21   26  -0.174   0.484   0.003
    1UNL     H1   27  -0.419  -0.109  -0.228
    1UNL     H2   28  -0.532  -0.223  -0.150
    1UNL     H3   29  -0.367  -0.269  -0.203
    1UNL     H4   30  -0.399  -0.253   0.061
    1UNL     H5   31  -0.443  -0.082   0.038
    1UNL     H6   32  -0.173  -0.214  -0.078
    1UNL     H7   33  -0.222  -0.102   0.198
    1UNL     H8   34  -0.142  -0.248   0.154
    1UNL     H9   35   0.078  -0.227   0.244
    1UNL    H10   36   0.011  -0.084   0.322
    1UNL    H11   37   0.150  -0.063   0.213
    1UNL    H12   38  -0.049   0.114   0.199
    1UNL    H13   39   0.145   0.182   0.113
    1UNL    H14   40   0.055   0.202  -0.040
    1UNL    H15   41   0.258  -0.258  -0.170
    1UNL    H16   42   0.536  -0.250  -0.076
    1UNL    H17   43   0.677  -0.124   0.079
    1UNL    H18   44   0.590   0.049   0.221
    1UNL    H19   45   0.376   0.155   0.163
    1UNL    H20   46  -0.056   0.062  -0.244
    1UNL    H21   47  -0.139  -0.073  -0.283
    1UNL    H22   48  -0.292   0.022  -0.133
    1UNL    H23   49  -0.252   0.093   0.086
    1UNL    H24   50  -0.187   0.555   0.081
    1UNL    H25   51  -0.068   0.496  -0.037
    1UNL    H26   52  -0.249   0.501  -0.074
   0.00000   0.00000   0.00000   0.00000   0.00000   0.00000   0.00000   0.00000   0.00000
Generated with MDTraj, t= 48.0
 52
    1UNL     C1    1  -0.438  -0.197  -0.152
    1UNL     C2    2  -0.365  -0.163  -0.022
    1UNL     C3    3  -0.212  -0.134  -0.028
    1UNL     C4    4  -0.161  -0.149   0.117
    1UNL     N1    5  -0.028  -0.077   0.127
    1UNL     C5    6   0.071  -0.121   0.226
    1UNL     C6    7  -0.039   0.070   0.103
    1UNL     C7    8   0.087   0.123   0.033
    1UNL     C8    9   0.184   0.028  -0.036
    1UNL     C9   10   0.150  -0.088  -0.106
    1UNL     N2   11   0.254  -0.182  -0.093
    1UNL    C10   12   0.360  -0.122  -0.035
    1UNL    C11   13   0.496  -0.155  -0.009
    1UNL    C12   14   0.582  -0.072   0.053
    1UNL    C13   15   0.531   0.049   0.104
    1UNL    C14   16   0.406   0.084   0.079
    1UNL    C15   17   0.318   0.004   0.008
    1UNL    C16   18   0.022  -0.120  -0.175
    1UNL     O1   19  -0.004  -0.230  -0.207
    1UNL    C17   20  -0.076  -0.010  -0.197
    1UNL    C18   21  -0.187  -0.000  -0.092
    1UNL    C19   22  -0.168   0.106   0.024
    1UNL    C20   23  -0.155   0.251  -0.030
    1UNL     O2   24  -0.124   0.278  -0.143
    1UNL     O3   25  -0.189   0.346   0.066
    1UNL    C21   26  -0.174   0.471   0.012
    1UNL     H1   27  -0.419  -0.118  -0.232
    1UNL     H2   28  -0.544  -0.189  -0.118
    1UNL     H3   29  -0.418  -0.288  -0.196
    1UNL     H4   30  -0.380  -0.250   0.048
    1UNL     H5   31  -0.416  -0.074   0.038
    1UNL     H6   32  -0.166  -0.205  -0.098
    1UNL     H7   33  -0.228  -0.115   0.194
    1UNL     H8   34  -0.150  -0.257   0.144
    1UNL     H9   35   0.092  -0.224   0.201
    1UNL    H10   36   0.017  -0.122   0.324
    1UNL    H11   37   0.159  -0.055   0.224
    1UNL    H12   38  -0.047   0.127   0.200
    1UNL    H13   39   0.146   0.171   0.116
    1UNL    H14   40   0.061   0.201  -0.043
    1UNL    H15   41   0.231  -0.277  -0.126
    1UNL    H16   42   0.524  -0.253  -0.047
    1UNL    H17   43   0.687  -0.093   0.055
    1UNL    H18   44   0.603   0.105   0.154
    1UNL    H19   45   0.369   0.187   0.112
    1UNL    H20   46  -0.024   0.082  -0.201
    1UNL    H21   47  -0.119  -0.004  -0.301
    1UNL    H22   48  -0.272   0.042  -0.149
    1UNL    H23   49  -0.251   0.102   0.094
    1UNL    H24   50  -0.228   0.542   0.071
    1UNL    H25   51  -0.067   0.507   0.040
    1UNL    H26   52  -0.208   0.471  -0.094
   0.00000   0.00000   0.00000   0.00000   0.00000   0.00000   0.00000   0.00000   0.00000
Generated with MDTraj, t= 49.0
 52
    1UNL     C1    1  -0.451  -0.189  -0.150
    1UNL     C2    2  -0.380  -0.165  -0.013
    1UNL     C3    3  -0.225  -0.142  -0.025
    1UNL     C4    4  -0.162  -0.150   0.117
    1UNL     N1    5  -0.040  -0.078   0.134
    1UNL     C5    6   0.054  -0.111   0.252
    1UNL     C6    7  -0.039   0.070   0.105
    1UNL     C7    8   0.093   0.125   0.038
    1UNL     C8    9   0.186   0.025  -0.026
    1UNL     C9   10   0.161  -0.075  -0.117
    1UNL     N2   11   0.262  -0.161  -0.111
    1UNL    C10   12   0.365  -0.119  -0.031
    1UNL    C11   13   0.496  -0.168  -0.014
    1UNL    C12   14   0.588  -0.089   0.043
    1UNL    C13   15   0.550   0.039   0.092
    1UNL    C14   16   0.417   0.086   0.085
    1UNL    C15   17   0.321   0.004   0.022
    1UNL    C16   18   0.033  -0.105  -0.176
    1UNL     O1   19   0.009  -0.219  -0.204
    1UNL    C17   20  -0.077  -0.001  -0.197
    1UNL    C18   21  -0.193  -0.001  -0.100
    1UNL    C19   22  -0.167   0.103   0.020
    1UNL    C20   23  -0.158   0.245  -0.030
    1UNL     O2   24  -0.107   0.263  -0.136
    1UNL     O3   25  -0.207   0.338   0.056
    1UNL    C21   26  -0.188   0.465   0.001
    1UNL     H1   27  -0.460  -0.094  -0.204
    1UNL     H2   28  -0.555  -0.223  -0.125
    1UNL     H3   29  -0.407  -0.257  -0.218
    1UNL     H4   30  -0.392  -0.255   0.057
    1UNL     H5   31  -0.435  -0.080   0.044
    1UNL     H6   32  -0.193  -0.222  -0.093
    1UNL     H7   33  -0.238  -0.118   0.188
    1UNL     H8   34  -0.140  -0.256   0.146
    1UNL     H9   35   0.065  -0.222   0.246
    1UNL    H10   36   0.021  -0.077   0.351
    1UNL    H11   37   0.143  -0.059   0.219
    1UNL    H12   38  -0.043   0.126   0.202
    1UNL    H13   39   0.156   0.181   0.119
    1UNL    H14   40   0.065   0.196  -0.043
    1UNL    H15   41   0.273  -0.253  -0.156
    1UNL    H16   42   0.521  -0.259  -0.059
    1UNL    H17   43   0.696  -0.112   0.039
    1UNL    H18   44   0.621   0.113   0.138
    1UNL    H19   45   0.384   0.177   0.131
    1UNL    H20   46  -0.038   0.100  -0.208
    1UNL    H21   47  -0.115  -0.006  -0.302
    1UNL    H22   48  -0.277   0.049  -0.155
    1UNL    H23   49  -0.247   0.088   0.093
    1UNL    H24   50  -0.182   0.537   0.082
    1UNL    H25   51  -0.077   0.476  -0.035
    1UNL    H26   52  -0.269   0.485  -0.072
   0.00000   0.00000   0.00000   0.00000   0.00000   0.00000   0.00000   0.00000   0.00000
Generated with MDTraj, t= 50.0
 52
    1UNL     C1    1  -0.429  -0.178  -0.156
    1UNL     C2    2  -0.385  -0.157  -0.015
    1UNL     C3    3  -0.229  -0.134  -0.015
    1UNL     C4    4  -0.156  -0.159   0.122
    1UNL     N1    5  -0.030  -0.072   0.137
    1UNL     C5    6   0.051  -0.117   0.262
    1UNL     C6    7  -0.034   0.077   0.112
    1UNL     C7    8   0.096   0.121   0.039
    1UNL     C8    9   0.187   0.019  -0.017
    1UNL     C9   10   0.158  -0.084  -0.106
    1UNL     N2   11   0.269  -0.164  -0.135
    1UNL    C10   12   0.373  -0.103  -0.070
    1UNL    C11   13   0.505  -0.139  -0.066
    1UNL    C12   14   0.587  -0.082   0.036
    1UNL    C13   15   0.533   0.012   0.127
    1UNL    C14   16   0.401   0.063   0.116
    1UNL    C15   17   0.327   0.002   0.015
    1UNL    C16   18   0.027  -0.127  -0.159
    1UNL     O1   19   0.005  -0.245  -0.189
    1UNL    C17   20  -0.072  -0.020  -0.191
    1UNL    C18   21  -0.181   0.005  -0.091
    1UNL    C19   22  -0.155   0.118   0.020
    1UNL    C20   23  -0.158   0.255  -0.033
    1UNL     O2   24  -0.103   0.272  -0.139
    1UNL     O3   25  -0.211   0.354   0.052
    1UNL    C21   26  -0.223   0.481  -0.017
    1UNL     H1   27  -0.420  -0.089  -0.209
    1UNL     H2   28  -0.537  -0.206  -0.160
    1UNL     H3   29  -0.371  -0.250  -0.216
    1UNL     H4   30  -0.414  -0.254   0.040
    1UNL     H5   31  -0.438  -0.076   0.043
    1UNL     H6   32  -0.198  -0.215  -0.082
    1UNL     H7   33  -0.228  -0.147   0.205
    1UNL     H8   34  -0.130  -0.266   0.123
    1UNL     H9   35   0.062  -0.228   0.245
    1UNL    H10   36  -0.007  -0.098   0.352
    1UNL    H11   37   0.144  -0.064   0.259
    1UNL    H12   38  -0.037   0.135   0.207
    1UNL    H13   39   0.160   0.180   0.118
    1UNL    H14   40   0.069   0.191  -0.043
    1UNL    H15   41   0.264  -0.231  -0.212
    1UNL    H16   42   0.544  -0.206  -0.146
    1UNL    H17   43   0.685  -0.115   0.037
    1UNL    H18   44   0.586   0.040   0.212
    1UNL    H19   45   0.357   0.122   0.189
    1UNL    H20   46  -0.026   0.077  -0.222
    1UNL    H21   47  -0.112  -0.055  -0.286
    1UNL    H22   48  -0.266   0.047  -0.149
    1UNL    H23   49  -0.238   0.105   0.090
    1UNL    H24   50  -0.290   0.545   0.035
    1UNL    H25   51  -0.120   0.535  -0.013
    1UNL    H26   52  -0.262   0.461  -0.117
   0.00000   0.00000   0.00000   0.00000   0.00000   0.00000   0.00000   0.00000   0.00000
Generated with MDTraj, t= 51.0
 52
    1UNL     C1    1  -0.439  -0.185  -0.150
    1UNL     C2    2  -0.383  -0.162  -0.009
    1UNL     C3    3  -0.228  -0.134  -0.013
    1UNL     C4    4  -0.164  -0.138   0.127
    1UNL     N1    5  -0.029  -0.083   0.132
    1UNL     C5    6   0.046  -0.122   0.248
    1UNL     C6    7  -0.030   0.066   0.106
    1UNL     C7    8   0.106   0.119   0.052
    1UNL     C8    9   0.192   0.019  -0.009
    1UNL     C9   10   0.154  -0.076  -0.106
    1UNL     N2   11   0.269  -0.140  -0.147
    1UNL    C10   12   0.378  -0.103  -0.066
    1UNL    C11   13   0.513  -0.147  -0.062
    1UNL    C12   14   0.597  -0.086   0.033
    1UNL    C13   15   0.547   0.015   0.126
    1UNL    C14   16   0.412   0.049   0.119
    1UNL    C15   17   0.327  -0.008   0.024
    1UNL    C16   18   0.017  -0.105  -0.160
    1UNL     O1   19  -0.006  -0.223  -0.185
    1UNL    C17   20  -0.087  -0.005  -0.183
    1UNL    C18   21  -0.198   0.000  -0.082
    1UNL    C19   22  -0.163   0.116   0.020
    1UNL    C20   23  -0.149   0.250  -0.041
    1UNL     O2   24  -0.071   0.274  -0.134
    1UNL     O3   25  -0.245   0.329   0.014
    1UNL    C21   26  -0.218   0.467  -0.018
    1UNL     H1   27  -0.408  -0.108  -0.211
    1UNL     H2   28  -0.547  -0.184  -0.152
    1UNL     H3   29  -0.394  -0.275  -0.202
    1UNL     H4   30  -0.405  -0.254   0.060
    1UNL     H5   31  -0.438  -0.080   0.039
    1UNL     H6   32  -0.175  -0.223  -0.049
    1UNL     H7   33  -0.233  -0.082   0.199
    1UNL     H8   34  -0.166  -0.242   0.160
    1UNL     H9   35   0.050  -0.235   0.245
    1UNL    H10   36  -0.004  -0.082   0.334
    1UNL    H11   37   0.144  -0.077   0.234
    1UNL    H12   38  -0.038   0.116   0.203
    1UNL    H13   39   0.166   0.165   0.142
    1UNL    H14   40   0.096   0.202  -0.024
    1UNL    H15   41   0.266  -0.224  -0.204
    1UNL    H16   42   0.557  -0.205  -0.137
    1UNL    H17   43   0.707  -0.115   0.038
    1UNL    H18   44   0.610   0.053   0.211
    1UNL    H19   45   0.361   0.129   0.184
    1UNL    H20   46  -0.030   0.094  -0.182
    1UNL    H21   47  -0.131  -0.014  -0.278
    1UNL    H22   48  -0.297   0.024  -0.130
    1UNL    H23   49  -0.248   0.121   0.090
    1UNL    H24   50  -0.280   0.528   0.039
    1UNL    H25   51  -0.107   0.486   0.000
    1UNL    H26   52  -0.237   0.477  -0.124
   0.00000   0.00000   0.00000   0.00000   0.00000   0.00000   0.00000   0.00000   0.00000
Generated with MDTraj, t= 52.0
 52
    1UNL     C1    1  -0.445  -0.200  -0.144
    1UNL     C2    2  -0.380  -0.156  -0.018
    1UNL     C3    3  -0.228  -0.137  -0.023
    1UNL     C4    4  -0.161  -0.149   0.118
    1UNL     N1    5  -0.027  -0.079   0.119
    1UNL     C5    6   0.055  -0.120   0.235
    1UNL     C6    7  -0.037   0.063   0.120
    1UNL     C7    8   0.093   0.112   0.075
    1UNL     C8    9   0.186   0.020  -0.003
    1UNL     C9   10   0.149  -0.081  -0.093
    1UNL     N2   11   0.262  -0.153  -0.133
    1UNL    C10   12   0.368  -0.109  -0.059
    1UNL    C11   13   0.494  -0.166  -0.038
    1UNL    C12   14   0.591  -0.091   0.033
    1UNL    C13   15   0.545   0.035   0.096
    1UNL    C14   16   0.420   0.074   0.093
    1UNL    C15   17   0.321  -0.000   0.018
    1UNL    C16   18   0.022  -0.106  -0.166
    1UNL     O1   19   0.004  -0.222  -0.208
    1UNL    C17   20  -0.082   0.002  -0.189
    1UNL    C18   21  -0.196   0.007  -0.078
    1UNL    C19   22  -0.158   0.117   0.030
    1UNL    C20   23  -0.141   0.257  -0.017
    1UNL     O2   24  -0.042   0.284  -0.087
    1UNL     O3   25  -0.242   0.337   0.015
    1UNL    C21   26  -0.227   0.458  -0.057
    1UNL     H1   27  -0.430  -0.127  -0.221
    1UNL     H2   28  -0.547  -0.210  -0.131
    1UNL     H3   29  -0.401  -0.295  -0.189
    1UNL     H4   30  -0.411  -0.239   0.059
    1UNL     H5   31  -0.416  -0.063   0.026
    1UNL     H6   32  -0.184  -0.222  -0.072
    1UNL     H7   33  -0.236  -0.103   0.193
    1UNL     H8   34  -0.151  -0.252   0.148
    1UNL     H9   35   0.067  -0.228   0.237
    1UNL    H10   36   0.003  -0.087   0.324
    1UNL    H11   37   0.156  -0.074   0.239
    1UNL    H12   38  -0.052   0.098   0.223
    1UNL    H13   39   0.160   0.130   0.166
    1UNL    H14   40   0.087   0.214   0.027
    1UNL    H15   41   0.266  -0.234  -0.193
    1UNL    H16   42   0.515  -0.264  -0.086
    1UNL    H17   43   0.691  -0.117   0.042
    1UNL    H18   44   0.607   0.097   0.156
    1UNL    H19   45   0.384   0.156   0.141
    1UNL    H20   46  -0.042   0.110  -0.184
    1UNL    H21   47  -0.121  -0.015  -0.284
    1UNL    H22   48  -0.288   0.047  -0.127
    1UNL    H23   49  -0.245   0.122   0.100
    1UNL    H24   50  -0.310   0.516  -0.036
    1UNL    H25   51  -0.122   0.497  -0.041
    1UNL    H26   52  -0.223   0.423  -0.159
   0.00000   0.00000   0.00000   0.00000   0.00000   0.00000   0.00000   0.00000   0.00000
Generated with MDTraj, t= 53.0
 52
    1UNL     C1    1  -0.424  -0.171  -0.161
    1UNL     C2    2  -0.370  -0.149  -0.017
    1UNL     C3    3  -0.220  -0.121  -0.015
    1UNL     C4    4  -0.159  -0.144   0.125
    1UNL     N1    5  -0.033  -0.082   0.132
    1UNL     C5    6   0.052  -0.155   0.229
    1UNL     C6    7  -0.031   0.070   0.131
    1UNL     C7    8   0.103   0.122   0.067
    1UNL     C8    9   0.187   0.020  -0.000
    1UNL     C9   10   0.150  -0.089  -0.088
    1UNL     N2   11   0.256  -0.171  -0.115
    1UNL    C10   12   0.368  -0.116  -0.061
    1UNL    C11   13   0.497  -0.166  -0.050
    1UNL    C12   14   0.588  -0.089   0.025
    1UNL    C13   15   0.550   0.033   0.094
    1UNL    C14   16   0.421   0.079   0.091
    1UNL    C15   17   0.325  -0.002   0.018
    1UNL    C16   18   0.022  -0.116  -0.157
    1UNL     O1   19  -0.003  -0.224  -0.206
    1UNL    C17   20  -0.068   0.001  -0.183
    1UNL    C18   21  -0.173   0.015  -0.077
    1UNL    C19   22  -0.151   0.116   0.040
    1UNL    C20   23  -0.154   0.256  -0.015
    1UNL     O2   24  -0.066   0.287  -0.098
    1UNL     O3   25  -0.266   0.337   0.007
    1UNL    C21   26  -0.247   0.456  -0.065
    1UNL     H1   27  -0.413  -0.075  -0.215
    1UNL     H2   28  -0.525  -0.192  -0.165
    1UNL     H3   29  -0.369  -0.242  -0.222
    1UNL     H4   30  -0.389  -0.242   0.047
    1UNL     H5   31  -0.429  -0.067   0.026
    1UNL     H6   32  -0.189  -0.206  -0.072
    1UNL     H7   33  -0.230  -0.089   0.199
    1UNL     H8   34  -0.163  -0.248   0.157
    1UNL     H9   35   0.079  -0.255   0.204
    1UNL    H10   36   0.021  -0.152   0.334
    1UNL    H11   37   0.147  -0.098   0.233
    1UNL    H12   38  -0.041   0.092   0.238
    1UNL    H13   39   0.156   0.180   0.147
    1UNL    H14   40   0.079   0.201  -0.006
    1UNL    H15   41   0.255  -0.252  -0.176
    1UNL    H16   42   0.530  -0.261  -0.082
    1UNL    H17   43   0.694  -0.122   0.028
    1UNL    H18   44   0.632   0.079   0.151
    1UNL    H19   45   0.378   0.166   0.150
    1UNL    H20   46  -0.005   0.094  -0.197
    1UNL    H21   47  -0.121  -0.021  -0.271
    1UNL    H22   48  -0.258   0.058  -0.139
    1UNL    H23   49  -0.240   0.111   0.108
    1UNL    H24   50  -0.338   0.507  -0.060
    1UNL    H25   51  -0.151   0.504  -0.027
    1UNL    H26   52  -0.215   0.418  -0.162
   0.00000   0.00000   0.00000   0.00000   0.00000   0.00000   0.00000   0.00000   0.00000
Generated with MDTraj, t= 54.0
 52
    1UNL     C1    1  -0.441  -0.155  -0.162
    1UNL     C2    2  -0.376  -0.156  -0.025
    1UNL     C3    3  -0.229  -0.120  -0.023
    1UNL     C4    4  -0.173  -0.138   0.122
    1UNL     N1    5  -0.032  -0.075   0.131
    1UNL     C5    6   0.039  -0.119   0.259
    1UNL     C6    7  -0.016   0.069   0.106
    1UNL     C7    8   0.113   0.117   0.035
    1UNL     C8    9   0.196   0.010  -0.010
    1UNL     C9   10   0.161  -0.081  -0.104
    1UNL     N2   11   0.269  -0.167  -0.123
    1UNL    C10   12   0.380  -0.117  -0.052
    1UNL    C11   13   0.511  -0.154  -0.056
    1UNL    C12   14   0.603  -0.088   0.022
    1UNL    C13   15   0.565   0.014   0.104
    1UNL    C14   16   0.431   0.062   0.107
    1UNL    C15   17   0.332  -0.010   0.028
    1UNL    C16   18   0.021  -0.116  -0.160
    1UNL     O1   19  -0.002  -0.234  -0.171
    1UNL    C17   20  -0.082  -0.003  -0.188
    1UNL    C18   21  -0.193   0.017  -0.087
    1UNL    C19   22  -0.146   0.113   0.027
    1UNL    C20   23  -0.160   0.255  -0.028
    1UNL     O2   24  -0.070   0.298  -0.096
    1UNL     O3   25  -0.273   0.317   0.009
    1UNL    C21   26  -0.263   0.450  -0.029
    1UNL     H1   27  -0.440  -0.052  -0.202
    1UNL     H2   28  -0.544  -0.185  -0.160
    1UNL     H3   29  -0.390  -0.212  -0.229
    1UNL     H4   30  -0.388  -0.258   0.017
    1UNL     H5   31  -0.433  -0.088   0.041
    1UNL     H6   32  -0.189  -0.195  -0.087
    1UNL     H7   33  -0.258  -0.091   0.184
    1UNL     H8   34  -0.172  -0.240   0.161
    1UNL     H9   35   0.037  -0.223   0.277
    1UNL    H10   36  -0.004  -0.073   0.350
    1UNL    H11   37   0.146  -0.095   0.275
    1UNL    H12   38  -0.019   0.122   0.202
    1UNL    H13   39   0.172   0.180   0.104
    1UNL    H14   40   0.088   0.187  -0.044
    1UNL    H15   41   0.273  -0.246  -0.185
    1UNL    H16   42   0.547  -0.232  -0.124
    1UNL    H17   43   0.704  -0.120   0.010
    1UNL    H18   44   0.631   0.061   0.170
    1UNL    H19   45   0.396   0.139   0.176
    1UNL    H20   46  -0.028   0.091  -0.190
    1UNL    H21   47  -0.109  -0.023  -0.288
    1UNL    H22   48  -0.272   0.067  -0.151
    1UNL    H23   49  -0.224   0.109   0.109
    1UNL    H24   50  -0.329   0.501   0.036
    1UNL    H25   51  -0.151   0.477  -0.026
    1UNL    H26   52  -0.283   0.443  -0.137
   0.00000   0.00000   0.00000   0.00000   0.00000   0.00000   0.00000   0.00000   0.00000
Generated with MDTraj, t= 55.0
 52
    1UNL     C1    1  -0.459  -0.167  -0.145
    1UNL     C2    2  -0.385  -0.131  -0.017
    1UNL     C3    3  -0.228  -0.122  -0.030
    1UNL     C4    4  -0.143  -0.155   0.099
    1UNL     N1    5  -0.036  -0.071   0.154
    1UNL     C5    6   0.038  -0.098   0.279
    1UNL     C6    7  -0.031   0.072   0.115
    1UNL     C7    8   0.102   0.114   0.054
    1UNL     C8    9   0.190   0.013  -0.020
    1UNL     C9   10   0.162  -0.094  -0.106
    1UNL     N2   11   0.276  -0.163  -0.141
    1UNL    C10   12   0.378  -0.115  -0.060
    1UNL    C11   13   0.511  -0.156  -0.049
    1UNL    C12   14   0.591  -0.094   0.047
    1UNL    C13   15   0.545   0.016   0.112
    1UNL    C14   16   0.421   0.066   0.093
    1UNL    C15   17   0.332  -0.003   0.012
    1UNL    C16   18   0.035  -0.128  -0.167
    1UNL     O1   19   0.008  -0.238  -0.197
    1UNL    C17   20  -0.073  -0.015  -0.196
    1UNL    C18   21  -0.181   0.007  -0.098
    1UNL    C19   22  -0.158   0.109   0.016
    1UNL    C20   23  -0.155   0.254  -0.028
    1UNL     O2   24  -0.076   0.297  -0.106
    1UNL     O3   25  -0.252   0.329   0.037
    1UNL    C21   26  -0.256   0.456  -0.027
    1UNL     H1   27  -0.422  -0.112  -0.228
    1UNL     H2   28  -0.567  -0.150  -0.141
    1UNL     H3   29  -0.443  -0.266  -0.166
    1UNL     H4   30  -0.409  -0.207   0.058
    1UNL     H5   31  -0.426  -0.039   0.032
    1UNL     H6   32  -0.206  -0.199  -0.102
    1UNL     H7   33  -0.213  -0.185   0.184
    1UNL     H8   34  -0.093  -0.248   0.073
    1UNL     H9   35   0.086  -0.191   0.302
    1UNL    H10   36  -0.025  -0.066   0.363
    1UNL    H11   37   0.118  -0.026   0.293
    1UNL    H12   38  -0.054   0.128   0.208
    1UNL    H13   39   0.163   0.164   0.127
    1UNL    H14   40   0.084   0.195  -0.015
    1UNL    H15   41   0.286  -0.250  -0.194
    1UNL    H16   42   0.558  -0.213  -0.128
    1UNL    H17   43   0.695  -0.120   0.059
    1UNL    H18   44   0.612   0.065   0.183
    1UNL    H19   45   0.405   0.153   0.146
    1UNL    H20   46  -0.021   0.071  -0.218
    1UNL    H21   47  -0.117  -0.041  -0.290
    1UNL    H22   48  -0.265   0.045  -0.163
    1UNL    H23   49  -0.250   0.102   0.081
    1UNL    H24   50  -0.353   0.494  -0.006
    1UNL    H25   51  -0.167   0.516   0.017
    1UNL    H26   52  -0.230   0.433  -0.132
   0.00000   0.00000   0.00000   0.00000   0.00000   0.00000   0.00000   0.00000   0.00000
Generated with MDTraj, t= 56.0
 52
    1UNL     C1    1  -0.457  -0.163  -0.122
    1UNL     C2    2  -0.371  -0.167   0.002
    1UNL     C3    3  -0.225  -0.139  -0.019
    1UNL     C4    4  -0.149  -0.152   0.115
    1UNL     N1    5  -0.019  -0.077   0.124
    1UNL     C5    6   0.058  -0.120   0.245
    1UNL     C6    7  -0.029   0.068   0.102
    1UNL     C7    8   0.101   0.122   0.048
    1UNL     C8    9   0.189   0.017  -0.009
    1UNL     C9   10   0.154  -0.076  -0.107
    1UNL     N2   11   0.258  -0.175  -0.109
    1UNL    C10   12   0.369  -0.122  -0.037
    1UNL    C11   13   0.509  -0.161  -0.026
    1UNL    C12   14   0.586  -0.082   0.044
    1UNL    C13   15   0.540   0.029   0.111
    1UNL    C14   16   0.415   0.066   0.106
    1UNL    C15   17   0.325  -0.006   0.029
    1UNL    C16   18   0.027  -0.102  -0.185
    1UNL     O1   19   0.006  -0.209  -0.231
    1UNL    C17   20  -0.076   0.006  -0.201
    1UNL    C18   21  -0.189  -0.001  -0.094
    1UNL    C19   22  -0.161   0.107   0.016
    1UNL    C20   23  -0.164   0.247  -0.039
    1UNL     O2   24  -0.091   0.276  -0.127
    1UNL     O3   25  -0.243   0.335   0.029
    1UNL    C21   26  -0.211   0.466  -0.027
    1UNL     H1   27  -0.475  -0.070  -0.158
    1UNL     H2   28  -0.550  -0.209  -0.094
    1UNL     H3   29  -0.409  -0.224  -0.199
    1UNL     H4   30  -0.375  -0.258   0.061
    1UNL     H5   31  -0.416  -0.091   0.072
    1UNL     H6   32  -0.180  -0.211  -0.082
    1UNL     H7   33  -0.213  -0.110   0.198
    1UNL     H8   34  -0.140  -0.257   0.145
    1UNL     H9   35   0.057  -0.228   0.253
    1UNL    H10   36   0.005  -0.078   0.331
    1UNL    H11   37   0.160  -0.090   0.260
    1UNL    H12   38  -0.050   0.102   0.207
    1UNL    H13   39   0.152   0.180   0.119
    1UNL    H14   40   0.080   0.191  -0.030
    1UNL    H15   41   0.253  -0.250  -0.178
    1UNL    H16   42   0.539  -0.240  -0.087
    1UNL    H17   43   0.690  -0.109   0.056
    1UNL    H18   44   0.612   0.074   0.176
    1UNL    H19   45   0.377   0.160   0.161
    1UNL    H20   46  -0.031   0.098  -0.198
    1UNL    H21   47  -0.111   0.002  -0.304
    1UNL    H22   48  -0.280   0.027  -0.153
    1UNL    H23   49  -0.244   0.100   0.093
    1UNL    H24   50  -0.267   0.543   0.023
    1UNL    H25   51  -0.098   0.473  -0.003
    1UNL    H26   52  -0.225   0.455  -0.136
   0.00000   0.00000   0.00000   0.00000   0.00000   0.00000   0.00000   0.00000   0.00000
Generated with MDTraj, t= 57.0
 52
    1UNL     C1    1  -0.418  -0.168  -0.155
    1UNL     C2    2  -0.359  -0.173  -0.009
    1UNL     C3    3  -0.210  -0.147  -0.011
    1UNL     C4    4  -0.150  -0.152   0.129
    1UNL     N1    5  -0.024  -0.077   0.132
    1UNL     C5    6   0.088  -0.137   0.218
    1UNL     C6    7  -0.029   0.076   0.105
    1UNL     C7    8   0.099   0.136   0.032
    1UNL     C8    9   0.184   0.031  -0.031
    1UNL     C9   10   0.144  -0.072  -0.113
    1UNL     N2   11   0.251  -0.162  -0.120
    1UNL    C10   12   0.361  -0.113  -0.050
    1UNL    C11   13   0.490  -0.164  -0.016
    1UNL    C12   14   0.562  -0.095   0.064
    1UNL    C13   15   0.524   0.024   0.123
    1UNL    C14   16   0.404   0.079   0.101
    1UNL    C15   17   0.317   0.010   0.011
    1UNL    C16   18   0.018  -0.109  -0.171
    1UNL     O1   19   0.001  -0.224  -0.208
    1UNL    C17   20  -0.091  -0.015  -0.195
    1UNL    C18   21  -0.190  -0.006  -0.086
    1UNL    C19   22  -0.158   0.109   0.025
    1UNL    C20   23  -0.154   0.251  -0.024
    1UNL     O2   24  -0.114   0.270  -0.135
    1UNL     O3   25  -0.203   0.354   0.052
    1UNL    C21   26  -0.204   0.471  -0.032
    1UNL     H1   27  -0.423  -0.080  -0.209
    1UNL     H2   28  -0.513  -0.210  -0.150
    1UNL     H3   29  -0.360  -0.240  -0.217
    1UNL     H4   30  -0.385  -0.267   0.037
    1UNL     H5   31  -0.397  -0.093   0.061
    1UNL     H6   32  -0.159  -0.221  -0.065
    1UNL     H7   33  -0.222  -0.115   0.205
    1UNL     H8   34  -0.134  -0.256   0.168
    1UNL     H9   35   0.170  -0.173   0.151
    1UNL    H10   36   0.051  -0.212   0.287
    1UNL    H11   37   0.128  -0.059   0.277
    1UNL    H12   38  -0.039   0.121   0.207
    1UNL    H13   39   0.157   0.172   0.108
    1UNL    H14   40   0.073   0.222  -0.027
    1UNL    H15   41   0.240  -0.256  -0.159
    1UNL    H16   42   0.512  -0.269  -0.057
    1UNL    H17   43   0.659  -0.129   0.094
    1UNL    H18   44   0.595   0.077   0.189
    1UNL    H19   45   0.377   0.170   0.143
    1UNL    H20   46  -0.062   0.088  -0.218
    1UNL    H21   47  -0.144  -0.051  -0.281
    1UNL    H22   48  -0.289   0.021  -0.131
    1UNL    H23   49  -0.243   0.115   0.100
    1UNL    H24   50  -0.237   0.553   0.031
    1UNL    H25   51  -0.092   0.480  -0.054
    1UNL    H26   52  -0.273   0.455  -0.114
   0.00000   0.00000   0.00000   0.00000   0.00000   0.00000   0.00000   0.00000   0.00000
Generated with MDTraj, t= 58.0
 52
    1UNL     C1    1  -0.421  -0.240  -0.140
    1UNL     C2    2  -0.373  -0.176  -0.015
    1UNL     C3    3  -0.221  -0.140  -0.021
    1UNL     C4    4  -0.154  -0.146   0.119
    1UNL     N1    5  -0.033  -0.063   0.127
    1UNL     C5    6   0.075  -0.103   0.222
    1UNL     C6    7  -0.036   0.081   0.094
    1UNL     C7    8   0.088   0.132   0.020
    1UNL     C8    9   0.189   0.032  -0.035
    1UNL     C9   10   0.154  -0.078  -0.113
    1UNL     N2   11   0.267  -0.159  -0.130
    1UNL    C10   12   0.370  -0.113  -0.059
    1UNL    C11   13   0.494  -0.168  -0.020
    1UNL    C12   14   0.573  -0.108   0.075
    1UNL    C13   15   0.528   0.007   0.139
    1UNL    C14   16   0.411   0.067   0.098
    1UNL    C15   17   0.331   0.007  -0.001
    1UNL    C16   18   0.024  -0.108  -0.166
    1UNL     O1   19  -0.002  -0.227  -0.186
    1UNL    C17   20  -0.086  -0.012  -0.200
    1UNL    C18   21  -0.191   0.001  -0.094
    1UNL    C19   22  -0.166   0.114   0.015
    1UNL    C20   23  -0.163   0.264  -0.029
    1UNL     O2   24  -0.139   0.294  -0.145
    1UNL     O3   25  -0.183   0.355   0.066
    1UNL    C21   26  -0.191   0.484   0.007
    1UNL     H1   27  -0.395  -0.190  -0.235
    1UNL     H2   28  -0.521  -0.259  -0.137
    1UNL     H3   29  -0.374  -0.338  -0.146
    1UNL     H4   30  -0.396  -0.236   0.074
    1UNL     H5   31  -0.434  -0.082  -0.007
    1UNL     H6   32  -0.172  -0.218  -0.078
    1UNL     H7   33  -0.223  -0.119   0.198
    1UNL     H8   34  -0.132  -0.252   0.152
    1UNL     H9   35   0.092  -0.021   0.296
    1UNL    H10   36   0.159  -0.131   0.162
    1UNL    H11   37   0.035  -0.192   0.263
    1UNL    H12   38  -0.045   0.136   0.191
    1UNL    H13   39   0.133   0.196   0.087
    1UNL    H14   40   0.051   0.197  -0.056
    1UNL    H15   41   0.268  -0.242  -0.190
    1UNL    H16   42   0.518  -0.266  -0.044
    1UNL    H17   43   0.673  -0.149   0.099
    1UNL    H18   44   0.597   0.051   0.207
    1UNL    H19   45   0.384   0.154   0.152
    1UNL    H20   46  -0.044   0.095  -0.218
    1UNL    H21   47  -0.134  -0.043  -0.287
    1UNL    H22   48  -0.288   0.035  -0.136
    1UNL    H23   49  -0.253   0.101   0.086
    1UNL    H24   50  -0.216   0.564   0.079
    1UNL    H25   51  -0.087   0.497  -0.031
    1UNL    H26   52  -0.273   0.484  -0.061
   0.00000   0.00000   0.00000   0.00000   0.00000   0.00000   0.00000   0.00000   0.00000
Generated with MDTraj, t= 59.0
 52
    1UNL     C1    1  -0.413  -0.248  -0.119
    1UNL     C2    2  -0.367  -0.155  -0.006
    1UNL     C3    3  -0.214  -0.124  -0.023
    1UNL     C4    4  -0.151  -0.133   0.115
    1UNL     N1    5  -0.026  -0.060   0.131
    1UNL     C5    6   0.054  -0.089   0.261
    1UNL     C6    7  -0.031   0.082   0.087
    1UNL     C7    8   0.095   0.128   0.020
    1UNL     C8    9   0.190   0.019  -0.027
    1UNL     C9   10   0.155  -0.078  -0.118
    1UNL     N2   11   0.260  -0.169  -0.119
    1UNL    C10   12   0.364  -0.123  -0.040
    1UNL    C11   13   0.496  -0.165  -0.029
    1UNL    C12   14   0.579  -0.096   0.055
    1UNL    C13   15   0.533   0.015   0.128
    1UNL    C14   16   0.396   0.063   0.118
    1UNL    C15   17   0.318  -0.006   0.023
    1UNL    C16   18   0.021  -0.100  -0.192
    1UNL     O1   19  -0.003  -0.220  -0.220
    1UNL    C17   20  -0.081   0.002  -0.207
    1UNL    C18   21  -0.188   0.009  -0.098
    1UNL    C19   22  -0.166   0.113   0.009
    1UNL    C20   23  -0.168   0.247  -0.044
    1UNL     O2   24  -0.154   0.281  -0.163
    1UNL     O3   25  -0.185   0.334   0.062
    1UNL    C21   26  -0.168   0.466   0.026
    1UNL     H1   27  -0.409  -0.207  -0.223
    1UNL     H2   28  -0.513  -0.282  -0.100
    1UNL     H3   29  -0.353  -0.333  -0.117
    1UNL     H4   30  -0.392  -0.205   0.090
    1UNL     H5   31  -0.424  -0.059  -0.014
    1UNL     H6   32  -0.173  -0.197  -0.091
    1UNL     H7   33  -0.223  -0.109   0.190
    1UNL     H8   34  -0.136  -0.245   0.136
    1UNL     H9   35  -0.015  -0.150   0.319
    1UNL    H10   36   0.074   0.005   0.305
    1UNL    H11   37   0.143  -0.142   0.228
    1UNL    H12   38  -0.041   0.144   0.178
    1UNL    H13   39   0.151   0.198   0.075
    1UNL    H14   40   0.063   0.180  -0.066
    1UNL    H15   41   0.240  -0.265  -0.148
    1UNL    H16   42   0.529  -0.256  -0.077
    1UNL    H17   43   0.678  -0.126   0.066
    1UNL    H18   44   0.599   0.073   0.192
    1UNL    H19   45   0.363   0.152   0.183
    1UNL    H20   46  -0.033   0.108  -0.220
    1UNL    H21   47  -0.129  -0.024  -0.296
    1UNL    H22   48  -0.283   0.043  -0.146
    1UNL    H23   49  -0.253   0.106   0.080
    1UNL    H24   50  -0.184   0.529   0.115
    1UNL    H25   51  -0.063   0.472  -0.008
    1UNL    H26   52  -0.246   0.488  -0.041
   0.00000   0.00000   0.00000   0.00000   0.00000   0.00000   0.00000   0.00000   0.00000
Generated with MDTraj, t= 60.0
 52
    1UNL     C1    1  -0.404  -0.220  -0.154
    1UNL     C2    2  -0.362  -0.190  -0.005
    1UNL     C3    3  -0.218  -0.135  -0.009
    1UNL     C4    4  -0.150  -0.145   0.128
    1UNL     N1    5  -0.020  -0.073   0.139
    1UNL     C5    6   0.054  -0.099   0.272
    1UNL     C6    7  -0.033   0.076   0.112
    1UNL     C7    8   0.090   0.129   0.035
    1UNL     C8    9   0.179   0.025  -0.026
    1UNL     C9   10   0.146  -0.080  -0.113
    1UNL     N2   11   0.250  -0.163  -0.126
    1UNL    C10   12   0.350  -0.120  -0.048
    1UNL    C11   13   0.484  -0.171  -0.028
    1UNL    C12   14   0.569  -0.098   0.060
    1UNL    C13   15   0.524   0.025   0.119
    1UNL    C14   16   0.395   0.075   0.096
    1UNL    C15   17   0.316   0.005   0.009
    1UNL    C16   18   0.021  -0.108  -0.187
    1UNL     O1   19   0.015  -0.216  -0.242
    1UNL    C17   20  -0.089  -0.007  -0.198
    1UNL    C18   21  -0.195   0.005  -0.081
    1UNL    C19   22  -0.165   0.115   0.035
    1UNL    C20   23  -0.155   0.254  -0.029
    1UNL     O2   24  -0.137   0.267  -0.151
    1UNL     O3   25  -0.169   0.360   0.051
    1UNL    C21   26  -0.167   0.482  -0.017
    1UNL     H1   27  -0.392  -0.142  -0.231
    1UNL     H2   28  -0.513  -0.249  -0.160
    1UNL     H3   29  -0.354  -0.303  -0.187
    1UNL     H4   30  -0.358  -0.290   0.049
    1UNL     H5   31  -0.432  -0.122   0.048
    1UNL     H6   32  -0.165  -0.204  -0.074
    1UNL     H7   33  -0.221  -0.112   0.199
    1UNL     H8   34  -0.138  -0.257   0.158
    1UNL     H9   35   0.093  -0.200   0.280
    1UNL    H10   36  -0.023  -0.081   0.342
    1UNL    H11   37   0.127  -0.017   0.277
    1UNL    H12   38  -0.035   0.128   0.208
    1UNL    H13   39   0.149   0.174   0.115
    1UNL    H14   40   0.067   0.208  -0.029
    1UNL    H15   41   0.258  -0.237  -0.197
    1UNL    H16   42   0.522  -0.260  -0.085
    1UNL    H17   43   0.664  -0.148   0.097
    1UNL    H18   44   0.589   0.084   0.185
    1UNL    H19   45   0.370   0.166   0.138
    1UNL    H20   46  -0.038   0.090  -0.222
    1UNL    H21   47  -0.147  -0.038  -0.283
    1UNL    H22   48  -0.288   0.041  -0.126
    1UNL    H23   49  -0.251   0.103   0.107
    1UNL    H24   50  -0.177   0.566   0.055
    1UNL    H25   51  -0.073   0.490  -0.072
    1UNL    H26   52  -0.249   0.474  -0.083
   0.00000   0.00000   0.00000   0.00000   0.00000   0.00000   0.00000   0.00000   0.00000
Generated with MDTraj, t= 61.0
 52
    1UNL     C1    1  -0.398  -0.205  -0.171
    1UNL     C2    2  -0.346  -0.214  -0.032
    1UNL     C3    3  -0.214  -0.138  -0.004
    1UNL     C4    4  -0.160  -0.133   0.143
    1UNL     N1    5  -0.034  -0.058   0.151
    1UNL     C5    6   0.085  -0.100   0.240
    1UNL     C6    7  -0.044   0.087   0.113
    1UNL     C7    8   0.095   0.131   0.053
    1UNL     C8    9   0.172   0.019  -0.010
    1UNL     C9   10   0.140  -0.080  -0.103
    1UNL     N2   11   0.252  -0.152  -0.136
    1UNL    C10   12   0.351  -0.117  -0.053
    1UNL    C11   13   0.484  -0.170  -0.039
    1UNL    C12   14   0.572  -0.104   0.048
    1UNL    C13   15   0.530   0.015   0.120
    1UNL    C14   16   0.404   0.062   0.099
    1UNL    C15   17   0.312  -0.000   0.013
    1UNL    C16   18   0.014  -0.111  -0.172
    1UNL     O1   19   0.003  -0.224  -0.206
    1UNL    C17   20  -0.087  -0.002  -0.188
    1UNL    C18   21  -0.192   0.003  -0.078
    1UNL    C19   22  -0.172   0.119   0.027
    1UNL    C20   23  -0.165   0.251  -0.037
    1UNL     O2   24  -0.132   0.264  -0.154
    1UNL     O3   25  -0.184   0.362   0.045
    1UNL    C21   26  -0.162   0.481  -0.023
    1UNL     H1   27  -0.431  -0.107  -0.196
    1UNL     H2   28  -0.491  -0.267  -0.177
    1UNL     H3   29  -0.327  -0.243  -0.246
    1UNL     H4   30  -0.338  -0.324   0.000
    1UNL     H5   31  -0.421  -0.160   0.029
    1UNL     H6   32  -0.136  -0.198  -0.048
    1UNL     H7   33  -0.228  -0.081   0.205
    1UNL     H8   34  -0.154  -0.240   0.188
    1UNL     H9   35   0.175  -0.068   0.192
    1UNL    H10   36   0.092  -0.205   0.257
    1UNL    H11   37   0.075  -0.040   0.333
    1UNL    H12   38  -0.056   0.143   0.205
    1UNL    H13   39   0.155   0.175   0.136
    1UNL    H14   40   0.087   0.210  -0.015
    1UNL    H15   41   0.251  -0.246  -0.176
    1UNL    H16   42   0.498  -0.249  -0.102
    1UNL    H17   43   0.662  -0.150   0.065
    1UNL    H18   44   0.592   0.068   0.185
    1UNL    H19   45   0.373   0.157   0.140
    1UNL    H20   46  -0.041   0.091  -0.201
    1UNL    H21   47  -0.130  -0.035  -0.283
    1UNL    H22   48  -0.281   0.042  -0.130
    1UNL    H23   49  -0.265   0.115   0.091
    1UNL    H24   50  -0.175   0.563   0.054
    1UNL    H25   51  -0.062   0.489  -0.069
    1UNL    H26   52  -0.233   0.473  -0.104
   0.00000   0.00000   0.00000   0.00000   0.00000   0.00000   0.00000   0.00000   0.00000
Generated with MDTraj, t= 62.0
 52
    1UNL     C1    1  -0.406  -0.246  -0.146
    1UNL     C2    2  -0.372  -0.156  -0.026
    1UNL     C3    3  -0.220  -0.124  -0.017
    1UNL     C4    4  -0.163  -0.123   0.124
    1UNL     N1    5  -0.026  -0.067   0.135
    1UNL     C5    6   0.043  -0.103   0.265
    1UNL     C6    7  -0.023   0.079   0.101
    1UNL     C7    8   0.100   0.129   0.023
    1UNL     C8    9   0.187   0.018  -0.018
    1UNL     C9   10   0.152  -0.077  -0.113
    1UNL     N2   11   0.257  -0.168  -0.128
    1UNL    C10   12   0.367  -0.116  -0.054
    1UNL    C11   13   0.499  -0.156  -0.041
    1UNL    C12   14   0.580  -0.096   0.044
    1UNL    C13   15   0.530   0.021   0.121
    1UNL    C14   16   0.398   0.060   0.111
    1UNL    C15   17   0.315  -0.006   0.020
    1UNL    C16   18   0.017  -0.110  -0.173
    1UNL     O1   19  -0.009  -0.220  -0.206
    1UNL    C17   20  -0.087  -0.001  -0.194
    1UNL    C18   21  -0.192   0.012  -0.082
    1UNL    C19   22  -0.158   0.120   0.029
    1UNL    C20   23  -0.157   0.251  -0.037
    1UNL     O2   24  -0.123   0.266  -0.152
    1UNL     O3   25  -0.185   0.344   0.056
    1UNL    C21   26  -0.185   0.469  -0.004
    1UNL     H1   27  -0.385  -0.201  -0.239
    1UNL     H2   28  -0.508  -0.286  -0.147
    1UNL     H3   29  -0.336  -0.340  -0.136
    1UNL     H4   30  -0.401  -0.216   0.069
    1UNL     H5   31  -0.432  -0.064  -0.027
    1UNL     H6   32  -0.167  -0.205  -0.067
    1UNL     H7   33  -0.232  -0.063   0.181
    1UNL     H8   34  -0.162  -0.226   0.173
    1UNL     H9   35   0.090  -0.023   0.318
    1UNL    H10   36   0.125  -0.167   0.234
    1UNL    H11   37  -0.020  -0.153   0.341
    1UNL    H12   38  -0.016   0.131   0.195
    1UNL    H13   39   0.164   0.201   0.079
    1UNL    H14   40   0.076   0.184  -0.069
    1UNL    H15   41   0.266  -0.238  -0.202
    1UNL    H16   42   0.521  -0.255  -0.092
    1UNL    H17   43   0.685  -0.134   0.058
    1UNL    H18   44   0.608   0.083   0.174
    1UNL    H19   45   0.345   0.139   0.162
    1UNL    H20   46  -0.040   0.088  -0.217
    1UNL    H21   47  -0.141  -0.038  -0.282
    1UNL    H22   48  -0.288   0.043  -0.124
    1UNL    H23   49  -0.241   0.110   0.104
    1UNL    H24   50  -0.229   0.544   0.071
    1UNL    H25   51  -0.084   0.503  -0.037
    1UNL    H26   52  -0.236   0.450  -0.099
   0.00000   0.00000   0.00000   0.00000   0.00000   0.00000   0.00000   0.00000   0.00000
Generated with MDTraj, t= 63.0
 52
    1UNL     C1    1  -0.442  -0.265  -0.102
    1UNL     C2    2  -0.380  -0.149  -0.018
    1UNL     C3    3  -0.221  -0.130  -0.025
    1UNL     C4    4  -0.161  -0.150   0.107
    1UNL     N1    5  -0.035  -0.067   0.127
    1UNL     C5    6   0.031  -0.109   0.252
    1UNL     C6    7  -0.034   0.086   0.104
    1UNL     C7    8   0.099   0.127   0.034
    1UNL     C8    9   0.183   0.015  -0.005
    1UNL     C9   10   0.149  -0.087  -0.093
    1UNL     N2   11   0.259  -0.167  -0.128
    1UNL    C10   12   0.368  -0.117  -0.055
    1UNL    C11   13   0.499  -0.163  -0.037
    1UNL    C12   14   0.589  -0.097   0.053
    1UNL    C13   15   0.536   0.021   0.119
    1UNL    C14   16   0.416   0.072   0.095
    1UNL    C15   17   0.328  -0.002   0.009
    1UNL    C16   18   0.035  -0.115  -0.174
    1UNL     O1   19   0.010  -0.222  -0.220
    1UNL    C17   20  -0.073  -0.008  -0.203
    1UNL    C18   21  -0.185   0.009  -0.095
    1UNL    C19   22  -0.161   0.122   0.014
    1UNL    C20   23  -0.152   0.261  -0.040
    1UNL     O2   24  -0.101   0.292  -0.143
    1UNL     O3   25  -0.214   0.352   0.050
    1UNL    C21   26  -0.194   0.485   0.011
    1UNL     H1   27  -0.421  -0.250  -0.210
    1UNL     H2   28  -0.547  -0.282  -0.092
    1UNL     H3   29  -0.392  -0.365  -0.075
    1UNL     H4   30  -0.415  -0.160   0.092
    1UNL     H5   31  -0.426  -0.052  -0.047
    1UNL     H6   32  -0.184  -0.206  -0.092
    1UNL     H7   33  -0.232  -0.132   0.189
    1UNL     H8   34  -0.134  -0.260   0.108
    1UNL     H9   35   0.109  -0.045   0.290
    1UNL    H10   36   0.080  -0.206   0.242
    1UNL    H11   37  -0.036  -0.109   0.337
    1UNL    H12   38  -0.031   0.137   0.201
    1UNL    H13   39   0.159   0.196   0.097
    1UNL    H14   40   0.075   0.192  -0.059
    1UNL    H15   41   0.253  -0.258  -0.174
    1UNL    H16   42   0.523  -0.256  -0.079
    1UNL    H17   43   0.694  -0.130   0.057
    1UNL    H18   44   0.609   0.073   0.173
    1UNL    H19   45   0.384   0.162   0.146
    1UNL    H20   46  -0.034   0.087  -0.222
    1UNL    H21   47  -0.129  -0.041  -0.291
    1UNL    H22   48  -0.272   0.042  -0.150
    1UNL    H23   49  -0.253   0.117   0.076
    1UNL    H24   50  -0.200   0.547   0.108
    1UNL    H25   51  -0.098   0.499  -0.042
    1UNL    H26   52  -0.266   0.509  -0.066
   0.00000   0.00000   0.00000   0.00000   0.00000   0.00000   0.00000   0.00000   0.00000
Generated with MDTraj, t= 64.0
 52
    1UNL     C1    1  -0.442  -0.269  -0.077
    1UNL     C2    2  -0.383  -0.141  -0.034
    1UNL     C3    3  -0.227  -0.131  -0.042
    1UNL     C4    4  -0.160  -0.154   0.099
    1UNL     N1    5  -0.032  -0.075   0.120
    1UNL     C5    6   0.066  -0.127   0.213
    1UNL     C6    7  -0.036   0.074   0.101
    1UNL     C7    8   0.101   0.125   0.050
    1UNL     C8    9   0.186   0.018  -0.012
    1UNL     C9   10   0.149  -0.086  -0.100
    1UNL     N2   11   0.264  -0.165  -0.122
    1UNL    C10   12   0.370  -0.120  -0.040
    1UNL    C11   13   0.495  -0.167  -0.026
    1UNL    C12   14   0.578  -0.094   0.056
    1UNL    C13   15   0.542   0.030   0.107
    1UNL    C14   16   0.411   0.074   0.095
    1UNL    C15   17   0.318  -0.003   0.020
    1UNL    C16   18   0.019  -0.104  -0.164
    1UNL     O1   19  -0.008  -0.219  -0.196
    1UNL    C17   20  -0.073   0.009  -0.200
    1UNL    C18   21  -0.190   0.018  -0.100
    1UNL    C19   22  -0.161   0.116   0.017
    1UNL    C20   23  -0.146   0.262  -0.032
    1UNL     O2   24  -0.081   0.291  -0.127
    1UNL     O3   25  -0.210   0.350   0.046
    1UNL    C21   26  -0.209   0.475  -0.013
    1UNL     H1   27  -0.404  -0.297  -0.184
    1UNL     H2   28  -0.550  -0.261  -0.083
    1UNL     H3   29  -0.418  -0.350  -0.010
    1UNL     H4   30  -0.417  -0.116   0.073
    1UNL     H5   31  -0.432  -0.057  -0.089
    1UNL     H6   32  -0.190  -0.198  -0.116
    1UNL     H7   33  -0.229  -0.122   0.181
    1UNL     H8   34  -0.140  -0.262   0.114
    1UNL     H9   35   0.168  -0.115   0.178
    1UNL    H10   36   0.062  -0.238   0.224
    1UNL    H11   37   0.073  -0.078   0.307
    1UNL    H12   38  -0.050   0.124   0.199
    1UNL    H13   39   0.156   0.180   0.131
    1UNL    H14   40   0.081   0.208  -0.032
    1UNL    H15   41   0.281  -0.239  -0.189
    1UNL    H16   42   0.532  -0.259  -0.070
    1UNL    H17   43   0.666  -0.133   0.087
    1UNL    H18   44   0.607   0.104   0.153
    1UNL    H19   45   0.377   0.173   0.126
    1UNL    H20   46  -0.022   0.108  -0.201
    1UNL    H21   47  -0.118  -0.009  -0.296
    1UNL    H22   48  -0.269   0.062  -0.160
    1UNL    H23   49  -0.251   0.105   0.084
    1UNL    H24   50  -0.284   0.543   0.042
    1UNL    H25   51  -0.108   0.517  -0.009
    1UNL    H26   52  -0.226   0.470  -0.117
   0.00000   0.00000   0.00000   0.00000   0.00000   0.00000   0.00000   0.00000   0.00000
Generated with MDTraj, t= 65.0
 52
    1UNL     C1    1  -0.427  -0.280  -0.016
    1UNL     C2    2  -0.388  -0.137  -0.052
    1UNL     C3    3  -0.241  -0.111  -0.045
    1UNL     C4    4  -0.179  -0.127   0.100
    1UNL     N1    5  -0.034  -0.087   0.101
    1UNL     C5    6   0.037  -0.171   0.193
    1UNL     C6    7  -0.039   0.067   0.103
    1UNL     C7    8   0.097   0.122   0.050
    1UNL     C8    9   0.194   0.026  -0.015
    1UNL     C9   10   0.161  -0.070  -0.110
    1UNL     N2   11   0.265  -0.159  -0.129
    1UNL    C10   12   0.371  -0.117  -0.049
    1UNL    C11   13   0.502  -0.159  -0.033
    1UNL    C12   14   0.583  -0.088   0.057
    1UNL    C13   15   0.542   0.025   0.123
    1UNL    C14   16   0.420   0.075   0.103
    1UNL    C15   17   0.333   0.005   0.015
    1UNL    C16   18   0.024  -0.097  -0.173
    1UNL     O1   19  -0.001  -0.219  -0.185
    1UNL    C17   20  -0.076   0.008  -0.202
    1UNL    C18   21  -0.194   0.025  -0.105
    1UNL    C19   22  -0.160   0.112   0.018
    1UNL    C20   23  -0.147   0.254  -0.026
    1UNL     O2   24  -0.068   0.285  -0.112
    1UNL     O3   25  -0.222   0.350   0.039
    1UNL    C21   26  -0.204   0.472  -0.025
    1UNL     H1   27  -0.397  -0.358  -0.094
    1UNL     H2   28  -0.540  -0.280  -0.009
    1UNL     H3   29  -0.396  -0.309   0.080
    1UNL     H4   30  -0.443  -0.058   0.008
    1UNL     H5   31  -0.428  -0.109  -0.154
    1UNL     H6   32  -0.193  -0.182  -0.107
    1UNL     H7   33  -0.232  -0.066   0.181
    1UNL     H8   34  -0.187  -0.230   0.135
    1UNL     H9   35   0.117  -0.109   0.237
    1UNL    H10   36   0.089  -0.253   0.139
    1UNL    H11   37  -0.017  -0.203   0.279
    1UNL    H12   38  -0.058   0.099   0.209
    1UNL    H13   39   0.143   0.179   0.138
    1UNL    H14   40   0.073   0.205  -0.022
    1UNL    H15   41   0.244  -0.249  -0.172
    1UNL    H16   42   0.547  -0.249  -0.086
    1UNL    H17   43   0.682  -0.141   0.095
    1UNL    H18   44   0.613   0.068   0.192
    1UNL    H19   45   0.392   0.167   0.146
    1UNL    H20   46  -0.014   0.103  -0.205
    1UNL    H21   47  -0.118  -0.006  -0.299
    1UNL    H22   48  -0.268   0.076  -0.164
    1UNL    H23   49  -0.251   0.116   0.081
    1UNL    H24   50  -0.306   0.523  -0.041
    1UNL    H25   51  -0.137   0.527   0.038
    1UNL    H26   52  -0.157   0.466  -0.117
   0.00000   0.00000   0.00000   0.00000   0.00000   0.00000   0.00000   0.00000   0.00000
Generated with MDTraj, t= 66.0
 52
    1UNL     C1    1  -0.441  -0.250   0.029
    1UNL     C2    2  -0.383  -0.126  -0.048
    1UNL     C3    3  -0.232  -0.122  -0.059
    1UNL     C4    4  -0.167  -0.152   0.076
    1UNL     N1    5  -0.034  -0.089   0.103
    1UNL     C5    6   0.047  -0.143   0.217
    1UNL     C6    7  -0.045   0.061   0.101
    1UNL     C7    8   0.090   0.117   0.078
    1UNL     C8    9   0.183   0.022   0.002
    1UNL     C9   10   0.153  -0.077  -0.099
    1UNL     N2   11   0.263  -0.149  -0.130
    1UNL    C10   12   0.369  -0.104  -0.059
    1UNL    C11   13   0.510  -0.136  -0.063
    1UNL    C12   14   0.586  -0.083   0.036
    1UNL    C13   15   0.530   0.002   0.130
    1UNL    C14   16   0.406   0.053   0.130
    1UNL    C15   17   0.322   0.003   0.028
    1UNL    C16   18   0.031  -0.107  -0.172
    1UNL     O1   19   0.014  -0.222  -0.211
    1UNL    C17   20  -0.070   0.001  -0.214
    1UNL    C18   21  -0.186   0.016  -0.114
    1UNL    C19   22  -0.163   0.111   0.008
    1UNL    C20   23  -0.151   0.258  -0.033
    1UNL     O2   24  -0.056   0.287  -0.104
    1UNL     O3   25  -0.241   0.348   0.010
    1UNL    C21   26  -0.196   0.478  -0.016
    1UNL     H1   27  -0.395  -0.344  -0.007
    1UNL     H2   28  -0.555  -0.258   0.014
    1UNL     H3   29  -0.430  -0.240   0.135
    1UNL     H4   30  -0.428  -0.031  -0.016
    1UNL     H5   31  -0.418  -0.120  -0.157
    1UNL     H6   32  -0.199  -0.198  -0.125
    1UNL     H7   33  -0.236  -0.128   0.166
    1UNL     H8   34  -0.149  -0.259   0.079
    1UNL     H9   35   0.149  -0.099   0.217
    1UNL    H10   36   0.057  -0.251   0.202
    1UNL    H11   37   0.002  -0.116   0.311
    1UNL    H12   38  -0.081   0.078   0.206
    1UNL    H13   39   0.149   0.151   0.174
    1UNL    H14   40   0.075   0.206   0.024
    1UNL    H15   41   0.266  -0.225  -0.198
    1UNL    H16   42   0.555  -0.204  -0.122
    1UNL    H17   43   0.688  -0.111   0.051
    1UNL    H18   44   0.602   0.040   0.201
    1UNL    H19   45   0.382   0.134   0.202
    1UNL    H20   46  -0.014   0.101  -0.222
    1UNL    H21   47  -0.091  -0.022  -0.316
    1UNL    H22   48  -0.269   0.059  -0.167
    1UNL    H23   49  -0.257   0.108   0.066
    1UNL    H24   50  -0.256   0.558   0.040
    1UNL    H25   51  -0.091   0.470   0.003
    1UNL    H26   52  -0.209   0.506  -0.115
   0.00000   0.00000   0.00000   0.00000   0.00000   0.00000   0.00000   0.00000   0.00000
Generated with MDTraj, t= 67.0
 52
    1UNL     C1    1  -0.474  -0.250   0.007
    1UNL     C2    2  -0.405  -0.119  -0.031
    1UNL     C3    3  -0.245  -0.122  -0.043
    1UNL     C4    4  -0.182  -0.164   0.089
    1UNL     N1    5  -0.050  -0.099   0.122
    1UNL     C5    6   0.020  -0.142   0.251
    1UNL     C6    7  -0.033   0.054   0.104
    1UNL     C7    8   0.107   0.096   0.068
    1UNL     C8    9   0.190  -0.002  -0.009
    1UNL     C9   10   0.172  -0.072  -0.123
    1UNL     N2   11   0.289  -0.134  -0.157
    1UNL    C10   12   0.387  -0.101  -0.067
    1UNL    C11   13   0.522  -0.133  -0.041
    1UNL    C12   14   0.592  -0.074   0.054
    1UNL    C13   15   0.539   0.022   0.133
    1UNL    C14   16   0.407   0.049   0.122
    1UNL    C15   17   0.326  -0.013   0.022
    1UNL    C16   18   0.037  -0.094  -0.190
    1UNL     O1   19   0.006  -0.206  -0.223
    1UNL    C17   20  -0.072   0.010  -0.209
    1UNL    C18   21  -0.188   0.015  -0.102
    1UNL    C19   22  -0.145   0.112   0.015
    1UNL    C20   23  -0.135   0.255  -0.028
    1UNL     O2   24  -0.067   0.279  -0.128
    1UNL     O3   25  -0.211   0.350   0.035
    1UNL    C21   26  -0.225   0.468  -0.039
    1UNL     H1   27  -0.440  -0.329  -0.056
    1UNL     H2   28  -0.587  -0.244   0.009
    1UNL     H3   29  -0.435  -0.265   0.113
    1UNL     H4   30  -0.427  -0.041   0.041
    1UNL     H5   31  -0.460  -0.072  -0.122
    1UNL     H6   32  -0.221  -0.203  -0.106
    1UNL     H7   33  -0.261  -0.131   0.168
    1UNL     H8   34  -0.169  -0.272   0.105
    1UNL     H9   35   0.110  -0.080   0.261
    1UNL    H10   36   0.046  -0.246   0.236
    1UNL    H11   37  -0.048  -0.120   0.336
    1UNL    H12   38  -0.055   0.094   0.207
    1UNL    H13   39   0.172   0.118   0.162
    1UNL    H14   40   0.106   0.185   0.012
    1UNL    H15   41   0.300  -0.182  -0.247
    1UNL    H16   42   0.562  -0.223  -0.094
    1UNL    H17   43   0.689  -0.094   0.064
    1UNL    H18   44   0.609   0.085   0.188
    1UNL    H19   45   0.368   0.127   0.181
    1UNL    H20   46  -0.022   0.111  -0.228
    1UNL    H21   47  -0.109  -0.014  -0.306
    1UNL    H22   48  -0.279   0.052  -0.148
    1UNL    H23   49  -0.236   0.126   0.074
    1UNL    H24   50  -0.308   0.538   0.002
    1UNL    H25   51  -0.127   0.511  -0.048
    1UNL    H26   52  -0.264   0.458  -0.136
   0.00000   0.00000   0.00000   0.00000   0.00000   0.00000   0.00000   0.00000   0.00000
Generated with MDTraj, t= 68.0
 52
    1UNL     C1    1  -0.447  -0.266  -0.037
    1UNL     C2    2  -0.392  -0.130  -0.060
    1UNL     C3    3  -0.234  -0.120  -0.054
    1UNL     C4    4  -0.182  -0.145   0.093
    1UNL     N1    5  -0.045  -0.082   0.123
    1UNL     C5    6   0.041  -0.146   0.232
    1UNL     C6    7  -0.042   0.068   0.110
    1UNL     C7    8   0.100   0.123   0.058
    1UNL     C8    9   0.185   0.014   0.011
    1UNL     C9   10   0.150  -0.077  -0.091
    1UNL     N2   11   0.262  -0.153  -0.121
    1UNL    C10   12   0.371  -0.098  -0.059
    1UNL    C11   13   0.506  -0.134  -0.067
    1UNL    C12   14   0.590  -0.081   0.023
    1UNL    C13   15   0.549   0.012   0.118
    1UNL    C14   16   0.420   0.057   0.118
    1UNL    C15   17   0.330   0.006   0.027
    1UNL    C16   18   0.026  -0.110  -0.159
    1UNL     O1   19   0.004  -0.221  -0.195
    1UNL    C17   20  -0.063  -0.001  -0.205
    1UNL    C18   21  -0.182   0.020  -0.108
    1UNL    C19   22  -0.157   0.112   0.016
    1UNL    C20   23  -0.149   0.258  -0.032
    1UNL     O2   24  -0.076   0.278  -0.131
    1UNL     O3   25  -0.225   0.347   0.036
    1UNL    C21   26  -0.193   0.471  -0.012
    1UNL     H1   27  -0.422  -0.333  -0.114
    1UNL     H2   28  -0.558  -0.264  -0.024
    1UNL     H3   29  -0.403  -0.306   0.064
    1UNL     H4   30  -0.440  -0.063   0.008
    1UNL     H5   31  -0.414  -0.086  -0.165
    1UNL     H6   32  -0.191  -0.198  -0.109
    1UNL     H7   33  -0.248  -0.107   0.181
    1UNL     H8   34  -0.179  -0.253   0.110
    1UNL     H9   35   0.143  -0.115   0.218
    1UNL    H10   36   0.027  -0.252   0.213
    1UNL    H11   37  -0.003  -0.108   0.328
    1UNL    H12   38  -0.057   0.106   0.212
    1UNL    H13   39   0.151   0.177   0.143
    1UNL    H14   40   0.083   0.192  -0.021
    1UNL    H15   41   0.248  -0.241  -0.171
    1UNL    H16   42   0.538  -0.215  -0.133
    1UNL    H17   43   0.702  -0.118   0.014
    1UNL    H18   44   0.629   0.051   0.176
    1UNL    H19   45   0.394   0.137   0.189
    1UNL    H20   46  -0.013   0.096  -0.232
    1UNL    H21   47  -0.107  -0.036  -0.297
    1UNL    H22   48  -0.262   0.066  -0.166
    1UNL    H23   49  -0.253   0.117   0.067
    1UNL    H24   50  -0.239   0.564   0.042
    1UNL    H25   51  -0.085   0.475  -0.019
    1UNL    H26   52  -0.230   0.484  -0.112
   0.00000   0.00000   0.00000   0.00000   0.00000   0.00000   0.00000   0.00000   0.00000
Generated with MDTraj, t= 69.0
 52
    1UNL     C1    1  -0.409  -0.302  -0.041
    1UNL     C2    2  -0.395  -0.148  -0.058
    1UNL     C3    3  -0.245  -0.112  -0.061
    1UNL     C4    4  -0.186  -0.130   0.084
    1UNL     N1    5  -0.049  -0.084   0.111
    1UNL     C5    6   0.015  -0.160   0.224
    1UNL     C6    7  -0.046   0.068   0.100
    1UNL     C7    8   0.093   0.120   0.044
    1UNL     C8    9   0.185   0.015  -0.016
    1UNL     C9   10   0.147  -0.087  -0.094
    1UNL     N2   11   0.257  -0.168  -0.111
    1UNL    C10   12   0.370  -0.114  -0.043
    1UNL    C11   13   0.508  -0.153  -0.039
    1UNL    C12   14   0.591  -0.075   0.036
    1UNL    C13   15   0.545   0.043   0.096
    1UNL    C14   16   0.413   0.089   0.088
    1UNL    C15   17   0.325   0.007   0.013
    1UNL    C16   18   0.022  -0.116  -0.161
    1UNL     O1   19  -0.006  -0.231  -0.175
    1UNL    C17   20  -0.074  -0.009  -0.203
    1UNL    C18   21  -0.192   0.028  -0.109
    1UNL    C19   22  -0.159   0.122   0.011
    1UNL    C20   23  -0.142   0.266  -0.026
    1UNL     O2   24  -0.056   0.293  -0.108
    1UNL     O3   25  -0.207   0.360   0.049
    1UNL    C21   26  -0.166   0.480   0.010
    1UNL     H1   27  -0.348  -0.361  -0.113
    1UNL     H2   28  -0.512  -0.332  -0.058
    1UNL     H3   29  -0.386  -0.337   0.064
    1UNL     H4   30  -0.440  -0.084   0.014
    1UNL     H5   31  -0.437  -0.127  -0.165
    1UNL     H6   32  -0.200  -0.184  -0.123
    1UNL     H7   33  -0.257  -0.076   0.154
    1UNL     H8   34  -0.186  -0.234   0.124
    1UNL     H9   35   0.109  -0.113   0.245
    1UNL    H10   36   0.029  -0.262   0.187
    1UNL    H11   37  -0.057  -0.148   0.310
    1UNL    H12   38  -0.049   0.107   0.201
    1UNL    H13   39   0.146   0.176   0.117
    1UNL    H14   40   0.068   0.184  -0.045
    1UNL    H15   41   0.273  -0.230  -0.191
    1UNL    H16   42   0.532  -0.239  -0.093
    1UNL    H17   43   0.694  -0.107   0.073
    1UNL    H18   44   0.607   0.114   0.156
    1UNL    H19   45   0.384   0.183   0.131
    1UNL    H20   46  -0.022   0.088  -0.209
    1UNL    H21   47  -0.114  -0.024  -0.305
    1UNL    H22   48  -0.272   0.076  -0.167
    1UNL    H23   49  -0.253   0.125   0.065
    1UNL    H24   50  -0.220   0.564   0.073
    1UNL    H25   51  -0.058   0.492   0.022
    1UNL    H26   52  -0.192   0.493  -0.094
   0.00000   0.00000   0.00000   0.00000   0.00000   0.00000   0.00000   0.00000   0.00000
Generated with MDTraj, t= 70.0
 52
    1UNL     C1    1  -0.452  -0.274  -0.052
    1UNL     C2    2  -0.391  -0.134  -0.067
    1UNL     C3    3  -0.237  -0.131  -0.044
    1UNL     C4    4  -0.178  -0.145   0.105
    1UNL     N1    5  -0.047  -0.078   0.128
    1UNL     C5    6   0.039  -0.125   0.243
    1UNL     C6    7  -0.048   0.067   0.109
    1UNL     C7    8   0.100   0.110   0.070
    1UNL     C8    9   0.182   0.010  -0.008
    1UNL     C9   10   0.150  -0.087  -0.103
    1UNL     N2   11   0.268  -0.163  -0.128
    1UNL    C10   12   0.364  -0.122  -0.037
    1UNL    C11   13   0.499  -0.156  -0.023
    1UNL    C12   14   0.585  -0.070   0.046
    1UNL    C13   15   0.540   0.059   0.094
    1UNL    C14   16   0.404   0.087   0.078
    1UNL    C15   17   0.322  -0.004   0.019
    1UNL    C16   18   0.026  -0.109  -0.179
    1UNL     O1   19   0.002  -0.220  -0.219
    1UNL    C17   20  -0.063   0.011  -0.202
    1UNL    C18   21  -0.186   0.012  -0.104
    1UNL    C19   22  -0.160   0.110   0.014
    1UNL    C20   23  -0.144   0.253  -0.037
    1UNL     O2   24  -0.096   0.278  -0.144
    1UNL     O3   25  -0.180   0.344   0.063
    1UNL    C21   26  -0.164   0.472   0.012
    1UNL     H1   27  -0.391  -0.359  -0.106
    1UNL     H2   28  -0.552  -0.274  -0.095
    1UNL     H3   29  -0.469  -0.300   0.051
    1UNL     H4   30  -0.444  -0.066  -0.004
    1UNL     H5   31  -0.397  -0.108  -0.179
    1UNL     H6   32  -0.188  -0.199  -0.109
    1UNL     H7   33  -0.249  -0.121   0.187
    1UNL     H8   34  -0.152  -0.255   0.113
    1UNL     H9   35   0.143  -0.103   0.222
    1UNL    H10   36   0.030  -0.234   0.260
    1UNL    H11   37   0.007  -0.062   0.329
    1UNL    H12   38  -0.059   0.106   0.208
    1UNL    H13   39   0.150   0.132   0.157
    1UNL    H14   40   0.093   0.204   0.002
    1UNL    H15   41   0.257  -0.256  -0.171
    1UNL    H16   42   0.541  -0.248  -0.074
    1UNL    H17   43   0.675  -0.102   0.066
    1UNL    H18   44   0.605   0.124   0.141
    1UNL    H19   45   0.367   0.186   0.100
    1UNL    H20   46  -0.001   0.101  -0.207
    1UNL    H21   47  -0.102   0.002  -0.307
    1UNL    H22   48  -0.274   0.053  -0.157
    1UNL    H23   49  -0.250   0.106   0.071
    1UNL    H24   50  -0.229   0.558   0.060
    1UNL    H25   51  -0.065   0.514   0.029
    1UNL    H26   52  -0.175   0.463  -0.094
   0.00000   0.00000   0.00000   0.00000   0.00000   0.00000   0.00000   0.00000   0.00000
Generated with MDTraj, t= 71.0
 52
    1UNL     C1    1  -0.439  -0.280  -0.003
    1UNL     C2    2  -0.394  -0.136  -0.039
    1UNL     C3    3  -0.238  -0.126  -0.058
    1UNL     C4    4  -0.172  -0.159   0.073
    1UNL     N1    5  -0.046  -0.083   0.103
    1UNL     C5    6   0.009  -0.129   0.230
    1UNL     C6    7  -0.044   0.070   0.098
    1UNL     C7    8   0.098   0.127   0.047
    1UNL     C8    9   0.188   0.019  -0.003
    1UNL     C9   10   0.161  -0.082  -0.096
    1UNL     N2   11   0.268  -0.167  -0.113
    1UNL    C10   12   0.373  -0.109  -0.050
    1UNL    C11   13   0.511  -0.137  -0.058
    1UNL    C12   14   0.591  -0.072   0.034
    1UNL    C13   15   0.537   0.026   0.129
    1UNL    C14   16   0.402   0.057   0.128
    1UNL    C15   17   0.322  -0.007   0.033
    1UNL    C16   18   0.036  -0.106  -0.173
    1UNL     O1   19   0.020  -0.217  -0.220
    1UNL    C17   20  -0.067  -0.006  -0.203
    1UNL    C18   21  -0.193   0.015  -0.109
    1UNL    C19   22  -0.164   0.119   0.013
    1UNL    C20   23  -0.154   0.260  -0.040
    1UNL     O2   24  -0.135   0.288  -0.152
    1UNL     O3   25  -0.173   0.354   0.058
    1UNL    C21   26  -0.154   0.477   0.003
    1UNL     H1   27  -0.457  -0.357  -0.089
    1UNL     H2   28  -0.532  -0.278   0.057
    1UNL     H3   29  -0.373  -0.326   0.064
    1UNL     H4   30  -0.417  -0.078   0.048
    1UNL     H5   31  -0.456  -0.104  -0.128
    1UNL     H6   32  -0.204  -0.190  -0.134
    1UNL     H7   33  -0.251  -0.125   0.141
    1UNL     H8   34  -0.153  -0.272   0.084
    1UNL     H9   35   0.093  -0.069   0.272
    1UNL    H10   36   0.053  -0.231   0.215
    1UNL    H11   37  -0.070  -0.129   0.303
    1UNL    H12   38  -0.052   0.116   0.195
    1UNL    H13   39   0.149   0.174   0.124
    1UNL    H14   40   0.085   0.202  -0.038
    1UNL    H15   41   0.281  -0.217  -0.202
    1UNL    H16   42   0.539  -0.217  -0.116
    1UNL    H17   43   0.698  -0.103   0.036
    1UNL    H18   44   0.610   0.085   0.192
    1UNL    H19   45   0.359   0.135   0.189
    1UNL    H20   46  -0.011   0.084  -0.205
    1UNL    H21   47  -0.093  -0.020  -0.313
    1UNL    H22   48  -0.282   0.058  -0.161
    1UNL    H23   49  -0.251   0.120   0.074
    1UNL    H24   50  -0.109   0.548   0.083
    1UNL    H25   51  -0.079   0.486  -0.072
    1UNL    H26   52  -0.243   0.508  -0.047
   0.00000   0.00000   0.00000   0.00000   0.00000   0.00000   0.00000   0.00000   0.00000
Generated with MDTraj, t= 72.0
 52
    1UNL     C1    1  -0.435  -0.263   0.009
    1UNL     C2    2  -0.383  -0.135  -0.055
    1UNL     C3    3  -0.226  -0.129  -0.048
    1UNL     C4    4  -0.172  -0.153   0.091
    1UNL     N1    5  -0.038  -0.088   0.105
    1UNL     C5    6   0.041  -0.143   0.215
    1UNL     C6    7  -0.039   0.066   0.101
    1UNL     C7    8   0.093   0.136   0.049
    1UNL     C8    9   0.183   0.029  -0.017
    1UNL     C9   10   0.159  -0.060  -0.122
    1UNL     N2   11   0.264  -0.139  -0.150
    1UNL    C10   12   0.365  -0.097  -0.066
    1UNL    C11   13   0.497  -0.141  -0.038
    1UNL    C12   14   0.573  -0.082   0.062
    1UNL    C13   15   0.512   0.010   0.155
    1UNL    C14   16   0.389   0.064   0.129
    1UNL    C15   17   0.316   0.012   0.015
    1UNL    C16   18   0.028  -0.100  -0.178
    1UNL     O1   19   0.009  -0.223  -0.192
    1UNL    C17   20  -0.070   0.008  -0.211
    1UNL    C18   21  -0.187   0.013  -0.108
    1UNL    C19   22  -0.157   0.110   0.011
    1UNL    C20   23  -0.146   0.248  -0.040
    1UNL     O2   24  -0.145   0.272  -0.157
    1UNL     O3   25  -0.141   0.339   0.061
    1UNL    C21   26  -0.150   0.460   0.001
    1UNL     H1   27  -0.377  -0.354  -0.009
    1UNL     H2   28  -0.540  -0.290  -0.024
    1UNL     H3   29  -0.445  -0.259   0.115
    1UNL     H4   30  -0.429  -0.048  -0.008
    1UNL     H5   31  -0.410  -0.137  -0.160
    1UNL     H6   32  -0.190  -0.201  -0.116
    1UNL     H7   33  -0.236  -0.114   0.169
    1UNL     H8   34  -0.154  -0.267   0.099
    1UNL     H9   35   0.151  -0.121   0.221
    1UNL    H10   36   0.038  -0.254   0.214
    1UNL    H11   37  -0.001  -0.113   0.308
    1UNL    H12   38  -0.059   0.099   0.203
    1UNL    H13   39   0.147   0.179   0.129
    1UNL    H14   40   0.076   0.210  -0.031
    1UNL    H15   41   0.260  -0.240  -0.168
    1UNL    H16   42   0.525  -0.230  -0.099
    1UNL    H17   43   0.690  -0.104   0.065
    1UNL    H18   44   0.567   0.054   0.234
    1UNL    H19   45   0.340   0.139   0.187
    1UNL    H20   46  -0.035   0.102  -0.242
    1UNL    H21   47  -0.119  -0.031  -0.307
    1UNL    H22   48  -0.280   0.059  -0.154
    1UNL    H23   49  -0.247   0.105   0.068
    1UNL    H24   50  -0.117   0.545   0.070
    1UNL    H25   51  -0.082   0.474  -0.078
    1UNL    H26   52  -0.245   0.470  -0.047
   0.00000   0.00000   0.00000   0.00000   0.00000   0.00000   0.00000   0.00000   0.00000
Generated with MDTraj, t= 73.0
 52
    1UNL     C1    1  -0.434  -0.295   0.017
    1UNL     C2    2  -0.393  -0.149  -0.028
    1UNL     C3    3  -0.239  -0.132  -0.047
    1UNL     C4    4  -0.170  -0.155   0.088
    1UNL     N1    5  -0.045  -0.080   0.106
    1UNL     C5    6   0.061  -0.140   0.194
    1UNL     C6    7  -0.057   0.071   0.091
    1UNL     C7    8   0.084   0.129   0.049
    1UNL     C8    9   0.182   0.031  -0.019
    1UNL     C9   10   0.164  -0.064  -0.125
    1UNL     N2   11   0.283  -0.133  -0.151
    1UNL    C10   12   0.375  -0.094  -0.059
    1UNL    C11   13   0.495  -0.156  -0.018
    1UNL    C12   14   0.563  -0.107   0.094
    1UNL    C13   15   0.520   0.021   0.149
    1UNL    C14   16   0.398   0.069   0.116
    1UNL    C15   17   0.321   0.013   0.015
    1UNL    C16   18   0.029  -0.094  -0.182
    1UNL     O1   19   0.012  -0.208  -0.214
    1UNL    C17   20  -0.082   0.003  -0.203
    1UNL    C18   21  -0.200   0.003  -0.105
    1UNL    C19   22  -0.176   0.115   0.005
    1UNL    C20   23  -0.162   0.255  -0.046
    1UNL     O2   24  -0.149   0.287  -0.162
    1UNL     O3   25  -0.144   0.344   0.056
    1UNL    C21   26  -0.113   0.471   0.006
    1UNL     H1   27  -0.393  -0.369  -0.044
    1UNL     H2   28  -0.547  -0.303   0.011
    1UNL     H3   29  -0.407  -0.316   0.123
    1UNL     H4   30  -0.433  -0.085   0.053
    1UNL     H5   31  -0.438  -0.117  -0.118
    1UNL     H6   32  -0.214  -0.202  -0.120
    1UNL     H7   33  -0.234  -0.125   0.169
    1UNL     H8   34  -0.136  -0.266   0.103
    1UNL     H9   35   0.162  -0.094   0.190
    1UNL    H10   36   0.084  -0.245   0.167
    1UNL    H11   37   0.037  -0.149   0.299
    1UNL    H12   38  -0.078   0.104   0.194
    1UNL    H13   39   0.136   0.161   0.139
    1UNL    H14   40   0.063   0.208  -0.018
    1UNL    H15   41   0.298  -0.178  -0.243
    1UNL    H16   42   0.531  -0.247  -0.063
    1UNL    H17   43   0.643  -0.160   0.126
    1UNL    H18   44   0.592   0.066   0.217
    1UNL    H19   45   0.357   0.155   0.170
    1UNL    H20   46  -0.036   0.097  -0.194
    1UNL    H21   47  -0.117   0.000  -0.311
    1UNL    H22   48  -0.287   0.048  -0.162
    1UNL    H23   49  -0.263   0.113   0.065
    1UNL    H24   50  -0.138   0.554   0.078
    1UNL    H25   51  -0.010   0.481  -0.017
    1UNL    H26   52  -0.161   0.491  -0.086
   0.00000   0.00000   0.00000   0.00000   0.00000   0.00000   0.00000   0.00000   0.00000
Generated with MDTraj, t= 74.0
 52
    1UNL     C1    1  -0.421  -0.292   0.002
    1UNL     C2    2  -0.371  -0.157  -0.046
    1UNL     C3    3  -0.225  -0.132  -0.055
    1UNL     C4    4  -0.138  -0.164   0.076
    1UNL     N1    5  -0.023  -0.077   0.106
    1UNL     C5    6   0.065  -0.128   0.212
    1UNL     C6    7  -0.043   0.073   0.092
    1UNL     C7    8   0.081   0.141   0.027
    1UNL     C8    9   0.175   0.027  -0.017
    1UNL     C9   10   0.142  -0.071  -0.107
    1UNL     N2   11   0.247  -0.157  -0.118
    1UNL    C10   12   0.350  -0.118  -0.028
    1UNL    C11   13   0.483  -0.156  -0.019
    1UNL    C12   14   0.564  -0.079   0.062
    1UNL    C13   15   0.516   0.028   0.139
    1UNL    C14   16   0.385   0.069   0.126
    1UNL    C15   17   0.303   0.000   0.029
    1UNL    C16   18   0.022  -0.098  -0.191
    1UNL     O1   19   0.002  -0.208  -0.235
    1UNL    C17   20  -0.081   0.011  -0.212
    1UNL    C18   21  -0.200   0.014  -0.107
    1UNL    C19   22  -0.170   0.112   0.015
    1UNL    C20   23  -0.151   0.255  -0.030
    1UNL     O2   24  -0.147   0.283  -0.150
    1UNL     O3   25  -0.134   0.353   0.065
    1UNL    C21   26  -0.114   0.473   0.000
    1UNL     H1   27  -0.408  -0.361  -0.073
    1UNL     H2   28  -0.531  -0.283   0.019
    1UNL     H3   29  -0.370  -0.322   0.098
    1UNL     H4   30  -0.407  -0.066   0.010
    1UNL     H5   31  -0.420  -0.146  -0.138
    1UNL     H6   32  -0.193  -0.197  -0.130
    1UNL     H7   33  -0.197  -0.168   0.166
    1UNL     H8   34  -0.088  -0.268   0.061
    1UNL     H9   35   0.156  -0.069   0.227
    1UNL    H10   36   0.104  -0.229   0.190
    1UNL    H11   37   0.016  -0.141   0.311
    1UNL    H12   38  -0.051   0.107   0.198
    1UNL    H13   39   0.136   0.200   0.103
    1UNL    H14   40   0.051   0.187  -0.059
    1UNL    H15   41   0.229  -0.254  -0.144
    1UNL    H16   42   0.528  -0.220  -0.087
    1UNL    H17   43   0.664  -0.102   0.081
    1UNL    H18   44   0.574   0.078   0.215
    1UNL    H19   45   0.343   0.149   0.183
    1UNL    H20   46  -0.036   0.109  -0.227
    1UNL    H21   47  -0.124  -0.015  -0.313
    1UNL    H22   48  -0.289   0.055  -0.159
    1UNL    H23   49  -0.252   0.104   0.081
    1UNL    H24   50  -0.107   0.567   0.067
    1UNL    H25   51  -0.033   0.459  -0.068
    1UNL    H26   52  -0.199   0.498  -0.061
   0.00000   0.00000   0.00000   0.00000   0.00000   0.00000   0.00000   0.00000   0.00000
Generated with MDTraj, t= 75.0
 52
    1UNL     C1    1  -0.407  -0.301  -0.018
    1UNL     C2    2  -0.372  -0.157  -0.057
    1UNL     C3    3  -0.222  -0.121  -0.040
    1UNL     C4    4  -0.180  -0.125   0.111
    1UNL     N1    5  -0.035  -0.079   0.121
    1UNL     C5    6   0.019  -0.124   0.248
    1UNL     C6    7  -0.037   0.072   0.102
    1UNL     C7    8   0.098   0.127   0.041
    1UNL     C8    9   0.185   0.023  -0.024
    1UNL     C9   10   0.151  -0.080  -0.116
    1UNL     N2   11   0.261  -0.165  -0.123
    1UNL    C10   12   0.365  -0.111  -0.049
    1UNL    C11   13   0.488  -0.164  -0.015
    1UNL    C12   14   0.569  -0.101   0.075
    1UNL    C13   15   0.527   0.020   0.126
    1UNL    C14   16   0.411   0.080   0.092
    1UNL    C15   17   0.323   0.010   0.007
    1UNL    C16   18   0.027  -0.102  -0.194
    1UNL     O1   19   0.013  -0.206  -0.248
    1UNL    C17   20  -0.079   0.007  -0.213
    1UNL    C18   21  -0.184   0.015  -0.101
    1UNL    C19   22  -0.159   0.116   0.010
    1UNL    C20   23  -0.156   0.255  -0.037
    1UNL     O2   24  -0.175   0.293  -0.153
    1UNL     O3   25  -0.145   0.344   0.060
    1UNL    C21   26  -0.146   0.471   0.015
    1UNL     H1   27  -0.358  -0.367  -0.091
    1UNL     H2   28  -0.511  -0.329  -0.024
    1UNL     H3   29  -0.370  -0.333   0.083
    1UNL     H4   30  -0.436  -0.093   0.009
    1UNL     H5   31  -0.399  -0.118  -0.150
    1UNL     H6   32  -0.164  -0.191  -0.090
    1UNL     H7   33  -0.235  -0.053   0.171
    1UNL     H8   34  -0.194  -0.232   0.154
    1UNL     H9   35   0.121  -0.090   0.258
    1UNL    H10   36   0.020  -0.232   0.261
    1UNL    H11   37  -0.046  -0.084   0.332
    1UNL    H12   38  -0.054   0.123   0.200
    1UNL    H13   39   0.152   0.170   0.129
    1UNL    H14   40   0.068   0.191  -0.034
    1UNL    H15   41   0.272  -0.226  -0.205
    1UNL    H16   42   0.523  -0.267  -0.052
    1UNL    H17   43   0.665  -0.161   0.116
    1UNL    H18   44   0.593   0.063   0.198
    1UNL    H19   45   0.390   0.179   0.132
    1UNL    H20   46  -0.028   0.109  -0.218
    1UNL    H21   47  -0.126  -0.012  -0.312
    1UNL    H22   48  -0.276   0.049  -0.151
    1UNL    H23   49  -0.246   0.114   0.071
    1UNL    H24   50  -0.111   0.540   0.102
    1UNL    H25   51  -0.089   0.474  -0.078
    1UNL    H26   52  -0.247   0.511   0.001
   0.00000   0.00000   0.00000   0.00000   0.00000   0.00000   0.00000   0.00000   0.00000
Generated with MDTraj, t= 76.0
 52
    1UNL     C1    1  -0.391  -0.307  -0.040
    1UNL     C2    2  -0.364  -0.163  -0.061
    1UNL     C3    3  -0.217  -0.124  -0.047
    1UNL     C4    4  -0.152  -0.157   0.090
    1UNL     N1    5  -0.036  -0.068   0.127
    1UNL     C5    6   0.021  -0.078   0.265
    1UNL     C6    7  -0.044   0.077   0.095
    1UNL     C7    8   0.093   0.124   0.046
    1UNL     C8    9   0.179   0.010  -0.003
    1UNL     C9   10   0.151  -0.082  -0.104
    1UNL     N2   11   0.261  -0.152  -0.141
    1UNL    C10   12   0.366  -0.119  -0.054
    1UNL    C11   13   0.498  -0.167  -0.042
    1UNL    C12   14   0.577  -0.105   0.050
    1UNL    C13   15   0.538   0.006   0.120
    1UNL    C14   16   0.411   0.054   0.117
    1UNL    C15   17   0.315  -0.016   0.036
    1UNL    C16   18   0.022  -0.099  -0.174
    1UNL     O1   19  -0.013  -0.208  -0.210
    1UNL    C17   20  -0.068   0.015  -0.208
    1UNL    C18   21  -0.191   0.020  -0.109
    1UNL    C19   22  -0.169   0.118   0.005
    1UNL    C20   23  -0.166   0.265  -0.039
    1UNL     O2   24  -0.175   0.299  -0.158
    1UNL     O3   25  -0.150   0.354   0.061
    1UNL    C21   26  -0.158   0.485   0.010
    1UNL     H1   27  -0.300  -0.361  -0.090
    1UNL     H2   28  -0.475  -0.343  -0.093
    1UNL     H3   29  -0.393  -0.333   0.066
    1UNL     H4   30  -0.420  -0.090   0.006
    1UNL     H5   31  -0.409  -0.137  -0.151
    1UNL     H6   32  -0.163  -0.191  -0.104
    1UNL     H7   33  -0.233  -0.147   0.165
    1UNL     H8   34  -0.113  -0.264   0.095
    1UNL     H9   35   0.112  -0.018   0.264
    1UNL    H10   36   0.049  -0.181   0.282
    1UNL    H11   37  -0.055  -0.045   0.341
    1UNL    H12   38  -0.058   0.139   0.187
    1UNL    H13   39   0.148   0.168   0.133
    1UNL    H14   40   0.080   0.191  -0.036
    1UNL    H15   41   0.256  -0.237  -0.198
    1UNL    H16   42   0.527  -0.257  -0.086
    1UNL    H17   43   0.678  -0.136   0.053
    1UNL    H18   44   0.621   0.060   0.171
    1UNL    H19   45   0.390   0.151   0.158
    1UNL    H20   46  -0.015   0.119  -0.224
    1UNL    H21   47  -0.110  -0.013  -0.306
    1UNL    H22   48  -0.284   0.040  -0.162
    1UNL    H23   49  -0.250   0.115   0.074
    1UNL    H24   50  -0.171   0.565   0.092
    1UNL    H25   51  -0.068   0.498  -0.053
    1UNL    H26   52  -0.244   0.498  -0.056
   0.00000   0.00000   0.00000   0.00000   0.00000   0.00000   0.00000   0.00000   0.00000
Generated with MDTraj, t= 77.0
 52
    1UNL     C1    1  -0.407  -0.309  -0.028
    1UNL     C2    2  -0.371  -0.159  -0.058
    1UNL     C3    3  -0.226  -0.128  -0.030
    1UNL     C4    4  -0.183  -0.131   0.115
    1UNL     N1    5  -0.046  -0.075   0.130
    1UNL     C5    6   0.031  -0.115   0.259
    1UNL     C6    7  -0.038   0.077   0.097
    1UNL     C7    8   0.088   0.123   0.021
    1UNL     C8    9   0.186   0.016  -0.010
    1UNL     C9   10   0.149  -0.072  -0.111
    1UNL     N2   11   0.259  -0.151  -0.133
    1UNL    C10   12   0.367  -0.112  -0.055
    1UNL    C11   13   0.501  -0.151  -0.042
    1UNL    C12   14   0.577  -0.090   0.050
    1UNL    C13   15   0.532   0.003   0.137
    1UNL    C14   16   0.405   0.049   0.123
    1UNL    C15   17   0.319  -0.009   0.029
    1UNL    C16   18   0.023  -0.098  -0.190
    1UNL     O1   19   0.021  -0.204  -0.250
    1UNL    C17   20  -0.090  -0.002  -0.207
    1UNL    C18   21  -0.192   0.009  -0.092
    1UNL    C19   22  -0.165   0.119   0.015
    1UNL    C20   23  -0.154   0.265  -0.032
    1UNL     O2   24  -0.139   0.285  -0.152
    1UNL     O3   25  -0.161   0.364   0.061
    1UNL    C21   26  -0.153   0.486  -0.008
    1UNL     H1   27  -0.428  -0.355  -0.134
    1UNL     H2   28  -0.497  -0.325   0.026
    1UNL     H3   29  -0.324  -0.361   0.018
    1UNL     H4   30  -0.444  -0.103   0.008
    1UNL     H5   31  -0.395  -0.114  -0.150
    1UNL     H6   32  -0.165  -0.199  -0.078
    1UNL     H7   33  -0.248  -0.076   0.189
    1UNL     H8   34  -0.184  -0.240   0.145
    1UNL     H9   35   0.129  -0.068   0.246
    1UNL    H10   36   0.041  -0.223   0.258
    1UNL    H11   37  -0.029  -0.083   0.347
    1UNL    H12   38  -0.035   0.123   0.197
    1UNL    H13   39   0.152   0.192   0.081
    1UNL    H14   40   0.070   0.175  -0.074
    1UNL    H15   41   0.273  -0.214  -0.213
    1UNL    H16   42   0.534  -0.239  -0.093
    1UNL    H17   43   0.674  -0.117   0.055
    1UNL    H18   44   0.594   0.049   0.206
    1UNL    H19   45   0.368   0.122   0.192
    1UNL    H20   46  -0.050   0.106  -0.227
    1UNL    H21   47  -0.139  -0.026  -0.304
    1UNL    H22   48  -0.285   0.044  -0.132
    1UNL    H23   49  -0.240   0.125   0.090
    1UNL    H24   50  -0.160   0.571   0.066
    1UNL    H25   51  -0.054   0.487  -0.055
    1UNL    H26   52  -0.229   0.492  -0.088
   0.00000   0.00000   0.00000   0.00000   0.00000   0.00000   0.00000   0.00000   0.00000
Generated with MDTraj, t= 78.0
 52
    1UNL     C1    1  -0.410  -0.294   0.006
    1UNL     C2    2  -0.375  -0.148  -0.032
    1UNL     C3    3  -0.223  -0.126  -0.039
    1UNL     C4    4  -0.163  -0.150   0.101
    1UNL     N1    5  -0.035  -0.089   0.120
    1UNL     C5    6   0.048  -0.137   0.237
    1UNL     C6    7  -0.047   0.061   0.103
    1UNL     C7    8   0.084   0.117   0.058
    1UNL     C8    9   0.172   0.034  -0.024
    1UNL     C9   10   0.141  -0.072  -0.112
    1UNL     N2   11   0.253  -0.153  -0.127
    1UNL    C10   12   0.354  -0.100  -0.054
    1UNL    C11   13   0.484  -0.156  -0.032
    1UNL    C12   14   0.560  -0.097   0.064
    1UNL    C13   15   0.510   0.015   0.134
    1UNL    C14   16   0.391   0.074   0.114
    1UNL    C15   17   0.312   0.017   0.012
    1UNL    C16   18   0.025  -0.091  -0.194
    1UNL     O1   19   0.007  -0.196  -0.254
    1UNL    C17   20  -0.075   0.014  -0.211
    1UNL    C18   21  -0.185   0.016  -0.103
    1UNL    C19   22  -0.160   0.114   0.009
    1UNL    C20   23  -0.138   0.257  -0.042
    1UNL     O2   24  -0.084   0.280  -0.147
    1UNL     O3   25  -0.181   0.348   0.046
    1UNL    C21   26  -0.147   0.470  -0.009
    1UNL     H1   27  -0.324  -0.362  -0.023
    1UNL     H2   28  -0.489  -0.340  -0.057
    1UNL     H3   29  -0.428  -0.312   0.109
    1UNL     H4   30  -0.402  -0.067   0.042
    1UNL     H5   31  -0.435  -0.118  -0.113
    1UNL     H6   32  -0.189  -0.202  -0.104
    1UNL     H7   33  -0.235  -0.107   0.180
    1UNL     H8   34  -0.152  -0.255   0.135
    1UNL     H9   35   0.151  -0.098   0.221
    1UNL    H10   36   0.045  -0.244   0.215
    1UNL    H11   37  -0.004  -0.116   0.330
    1UNL    H12   38  -0.065   0.092   0.206
    1UNL    H13   39   0.140   0.152   0.148
    1UNL    H14   40   0.067   0.216   0.002
    1UNL    H15   41   0.261  -0.242  -0.176
    1UNL    H16   42   0.529  -0.236  -0.098
    1UNL    H17   43   0.669  -0.134   0.091
    1UNL    H18   44   0.582   0.043   0.217
    1UNL    H19   45   0.364   0.154   0.182
    1UNL    H20   46  -0.029   0.108  -0.231
    1UNL    H21   47  -0.123  -0.018  -0.308
    1UNL    H22   48  -0.276   0.045  -0.151
    1UNL    H23   49  -0.241   0.125   0.076
    1UNL    H24   50  -0.148   0.543   0.075
    1UNL    H25   51  -0.043   0.466  -0.038
    1UNL    H26   52  -0.211   0.487  -0.098
   0.00000   0.00000   0.00000   0.00000   0.00000   0.00000   0.00000   0.00000   0.00000
Generated with MDTraj, t= 79.0
 52
    1UNL     C1    1  -0.432  -0.277   0.034
    1UNL     C2    2  -0.391  -0.159  -0.051
    1UNL     C3    3  -0.238  -0.131  -0.059
    1UNL     C4    4  -0.165  -0.155   0.081
    1UNL     N1    5  -0.034  -0.085   0.093
    1UNL     C5    6   0.060  -0.126   0.200
    1UNL     C6    7  -0.054   0.061   0.088
    1UNL     C7    8   0.085   0.117   0.035
    1UNL     C8    9   0.190   0.025  -0.022
    1UNL     C9   10   0.160  -0.058  -0.125
    1UNL     N2   11   0.266  -0.148  -0.136
    1UNL    C10   12   0.365  -0.113  -0.047
    1UNL    C11   13   0.493  -0.167  -0.015
    1UNL    C12   14   0.577  -0.103   0.065
    1UNL    C13   15   0.538   0.019   0.127
    1UNL    C14   16   0.406   0.065   0.118
    1UNL    C15   17   0.320   0.003   0.023
    1UNL    C16   18   0.025  -0.088  -0.178
    1UNL     O1   19   0.002  -0.208  -0.192
    1UNL    C17   20  -0.068   0.017  -0.207
    1UNL    C18   21  -0.192   0.014  -0.117
    1UNL    C19   22  -0.173   0.110   0.002
    1UNL    C20   23  -0.150   0.260  -0.034
    1UNL     O2   24  -0.082   0.293  -0.126
    1UNL     O3   25  -0.209   0.349   0.052
    1UNL    C21   26  -0.167   0.479   0.006
    1UNL     H1   27  -0.435  -0.364  -0.026
    1UNL     H2   28  -0.539  -0.268   0.073
    1UNL     H3   29  -0.364  -0.290   0.118
    1UNL     H4   30  -0.446  -0.074  -0.005
    1UNL     H5   31  -0.429  -0.154  -0.150
    1UNL     H6   32  -0.204  -0.201  -0.131
    1UNL     H7   33  -0.220  -0.116   0.176
    1UNL     H8   34  -0.151  -0.262   0.107
    1UNL     H9   35   0.139  -0.047   0.208
    1UNL    H10   36   0.107  -0.223   0.173
    1UNL    H11   37  -0.002  -0.138   0.285
    1UNL    H12   38  -0.076   0.100   0.187
    1UNL    H13   39   0.133   0.161   0.127
    1UNL    H14   40   0.072   0.213  -0.029
    1UNL    H15   41   0.264  -0.234  -0.192
    1UNL    H16   42   0.527  -0.241  -0.076
    1UNL    H17   43   0.676  -0.144   0.089
    1UNL    H18   44   0.596   0.061   0.202
    1UNL    H19   45   0.370   0.149   0.175
    1UNL    H20   46  -0.021   0.107  -0.199
    1UNL    H21   47  -0.096   0.003  -0.317
    1UNL    H22   48  -0.272   0.049  -0.177
    1UNL    H23   49  -0.260   0.124   0.062
    1UNL    H24   50  -0.234   0.558   0.041
    1UNL    H25   51  -0.074   0.502   0.054
    1UNL    H26   52  -0.155   0.468  -0.103
   0.00000   0.00000   0.00000   0.00000   0.00000   0.00000   0.00000   0.00000   0.00000
Generated with MDTraj, t= 80.0
 52
    1UNL     C1    1  -0.456  -0.240  -0.019
    1UNL     C2    2  -0.390  -0.104  -0.031
    1UNL     C3    3  -0.237  -0.115  -0.042
    1UNL     C4    4  -0.172  -0.139   0.096
    1UNL     N1    5  -0.034  -0.088   0.107
    1UNL     C5    6   0.064  -0.154   0.200
    1UNL     C6    7  -0.025   0.064   0.090
    1UNL     C7    8   0.106   0.120   0.031
    1UNL     C8    9   0.194   0.024  -0.029
    1UNL     C9   10   0.162  -0.078  -0.114
    1UNL     N2   11   0.275  -0.154  -0.129
    1UNL    C10   12   0.377  -0.113  -0.056
    1UNL    C11   13   0.508  -0.162  -0.036
    1UNL    C12   14   0.581  -0.095   0.057
    1UNL    C13   15   0.528   0.015   0.136
    1UNL    C14   16   0.402   0.063   0.112
    1UNL    C15   17   0.327  -0.005   0.016
    1UNL    C16   18   0.038  -0.117  -0.168
    1UNL     O1   19   0.021  -0.235  -0.194
    1UNL    C17   20  -0.061  -0.012  -0.202
    1UNL    C18   21  -0.177   0.018  -0.105
    1UNL    C19   22  -0.150   0.116   0.009
    1UNL    C20   23  -0.155   0.267  -0.031
    1UNL     O2   24  -0.104   0.305  -0.132
    1UNL     O3   25  -0.229   0.341   0.053
    1UNL    C21   26  -0.233   0.474   0.003
    1UNL     H1   27  -0.414  -0.300  -0.091
    1UNL     H2   28  -0.567  -0.246  -0.047
    1UNL     H3   29  -0.437  -0.282   0.082
    1UNL     H4   30  -0.408  -0.026   0.044
    1UNL     H5   31  -0.429  -0.066  -0.124
    1UNL     H6   32  -0.212  -0.195  -0.107
    1UNL     H7   33  -0.235  -0.091   0.181
    1UNL     H8   34  -0.167  -0.247   0.119
    1UNL     H9   35   0.167  -0.121   0.178
    1UNL    H10   36   0.065  -0.265   0.203
    1UNL    H11   37   0.028  -0.123   0.295
    1UNL    H12   38  -0.035   0.094   0.194
    1UNL    H13   39   0.148   0.186   0.113
    1UNL    H14   40   0.071   0.202  -0.041
    1UNL    H15   41   0.278  -0.240  -0.184
    1UNL    H16   42   0.545  -0.247  -0.101
    1UNL    H17   43   0.673  -0.123   0.075
    1UNL    H18   44   0.586   0.059   0.220
    1UNL    H19   45   0.362   0.144   0.172
    1UNL    H20   46  -0.010   0.079  -0.219
    1UNL    H21   47  -0.107  -0.040  -0.301
    1UNL    H22   48  -0.255   0.061  -0.165
    1UNL    H23   49  -0.233   0.114   0.079
    1UNL    H24   50  -0.287   0.529   0.078
    1UNL    H25   51  -0.132   0.514  -0.000
    1UNL    H26   52  -0.281   0.462  -0.096
   0.00000   0.00000   0.00000   0.00000   0.00000   0.00000   0.00000   0.00000   0.00000
Generated with MDTraj, t= 81.0
 52
    1UNL     C1    1  -0.448  -0.244  -0.033
    1UNL     C2    2  -0.398  -0.099  -0.026
    1UNL     C3    3  -0.243  -0.104  -0.044
    1UNL     C4    4  -0.159  -0.158   0.071
    1UNL     N1    5  -0.030  -0.089   0.103
    1UNL     C5    6   0.032  -0.136   0.231
    1UNL     C6    7  -0.023   0.059   0.096
    1UNL     C7    8   0.109   0.116   0.038
    1UNL     C8    9   0.199   0.015  -0.016
    1UNL     C9   10   0.161  -0.088  -0.097
    1UNL     N2   11   0.265  -0.176  -0.120
    1UNL    C10   12   0.373  -0.115  -0.057
    1UNL    C11   13   0.506  -0.159  -0.041
    1UNL    C12   14   0.593  -0.093   0.047
    1UNL    C13   15   0.549   0.017   0.123
    1UNL    C14   16   0.421   0.073   0.096
    1UNL    C15   17   0.335  -0.002   0.019
    1UNL    C16   18   0.033  -0.105  -0.165
    1UNL     O1   19  -0.004  -0.213  -0.198
    1UNL    C17   20  -0.060   0.012  -0.196
    1UNL    C18   21  -0.181   0.025  -0.100
    1UNL    C19   22  -0.147   0.113   0.018
    1UNL    C20   23  -0.148   0.258  -0.029
    1UNL     O2   24  -0.073   0.301  -0.115
    1UNL     O3   25  -0.245   0.330   0.036
    1UNL    C21   26  -0.253   0.459  -0.020
    1UNL     H1   27  -0.424  -0.292  -0.124
    1UNL     H2   28  -0.557  -0.263  -0.019
    1UNL     H3   29  -0.400  -0.297   0.052
    1UNL     H4   30  -0.418  -0.058   0.070
    1UNL     H5   31  -0.443  -0.034  -0.101
    1UNL     H6   32  -0.222  -0.171  -0.127
    1UNL     H7   33  -0.225  -0.144   0.164
    1UNL     H8   34  -0.135  -0.266   0.052
    1UNL     H9   35   0.119  -0.080   0.266
    1UNL    H10   36   0.074  -0.237   0.224
    1UNL    H11   37  -0.045  -0.147   0.306
    1UNL    H12   38  -0.042   0.085   0.201
    1UNL    H13   39   0.168   0.169   0.123
    1UNL    H14   40   0.086   0.206  -0.027
    1UNL    H15   41   0.251  -0.266  -0.166
    1UNL    H16   42   0.529  -0.252  -0.085
    1UNL    H17   43   0.706  -0.118   0.040
    1UNL    H18   44   0.611   0.065   0.194
    1UNL    H19   45   0.386   0.161   0.148
    1UNL    H20   46  -0.009   0.112  -0.201
    1UNL    H21   47  -0.097  -0.007  -0.298
    1UNL    H22   48  -0.255   0.082  -0.153
    1UNL    H23   49  -0.226   0.106   0.092
    1UNL    H24   50  -0.271   0.524   0.063
    1UNL    H25   51  -0.159   0.485  -0.072
    1UNL    H26   52  -0.341   0.448  -0.089
   0.00000   0.00000   0.00000   0.00000   0.00000   0.00000   0.00000   0.00000   0.00000
Generated with MDTraj, t= 82.0
 52
    1UNL     C1    1  -0.433  -0.272  -0.006
    1UNL     C2    2  -0.384  -0.142  -0.067
    1UNL     C3    3  -0.230  -0.121  -0.061
    1UNL     C4    4  -0.168  -0.162   0.074
    1UNL     N1    5  -0.046  -0.085   0.121
    1UNL     C5    6   0.032  -0.115   0.246
    1UNL     C6    7  -0.045   0.062   0.110
    1UNL     C7    8   0.096   0.117   0.065
    1UNL     C8    9   0.187   0.014   0.001
    1UNL     C9   10   0.156  -0.073  -0.097
    1UNL     N2   11   0.258  -0.162  -0.121
    1UNL    C10   12   0.371  -0.118  -0.047
    1UNL    C11   13   0.502  -0.173  -0.046
    1UNL    C12   14   0.594  -0.104   0.027
    1UNL    C13   15   0.559   0.023   0.086
    1UNL    C14   16   0.425   0.070   0.091
    1UNL    C15   17   0.325  -0.011   0.035
    1UNL    C16   18   0.025  -0.096  -0.170
    1UNL     O1   19   0.006  -0.206  -0.213
    1UNL    C17   20  -0.067   0.024  -0.195
    1UNL    C18   21  -0.188   0.028  -0.104
    1UNL    C19   22  -0.163   0.118   0.023
    1UNL    C20   23  -0.144   0.263  -0.016
    1UNL     O2   24  -0.042   0.307  -0.072
    1UNL     O3   25  -0.255   0.338   0.006
    1UNL    C21   26  -0.223   0.469  -0.037
    1UNL     H1   27  -0.422  -0.360  -0.080
    1UNL     H2   28  -0.535  -0.269   0.021
    1UNL     H3   29  -0.381  -0.296   0.088
    1UNL     H4   30  -0.424  -0.066  -0.009
    1UNL     H5   31  -0.412  -0.132  -0.174
    1UNL     H6   32  -0.193  -0.187  -0.138
    1UNL     H7   33  -0.242  -0.146   0.158
    1UNL     H8   34  -0.147  -0.272   0.058
    1UNL     H9   35   0.134  -0.086   0.243
    1UNL    H10   36   0.042  -0.221   0.266
    1UNL    H11   37  -0.017  -0.079   0.338
    1UNL    H12   38  -0.081   0.095   0.209
    1UNL    H13   39   0.152   0.159   0.158
    1UNL    H14   40   0.094   0.207   0.005
    1UNL    H15   41   0.251  -0.225  -0.202
    1UNL    H16   42   0.519  -0.265  -0.096
    1UNL    H17   43   0.701  -0.140   0.018
    1UNL    H18   44   0.632   0.088   0.133
    1UNL    H19   45   0.397   0.162   0.140
    1UNL    H20   46  -0.006   0.124  -0.199
    1UNL    H21   47  -0.111   0.012  -0.293
    1UNL    H22   48  -0.273   0.077  -0.152
    1UNL    H23   49  -0.252   0.110   0.086
    1UNL    H24   50  -0.310   0.527  -0.021
    1UNL    H25   51  -0.131   0.507   0.017
    1UNL    H26   52  -0.203   0.457  -0.149
   0.00000   0.00000   0.00000   0.00000   0.00000   0.00000   0.00000   0.00000   0.00000
Generated with MDTraj, t= 83.0
 52
    1UNL     C1    1  -0.401  -0.289  -0.019
    1UNL     C2    2  -0.373  -0.144  -0.058
    1UNL     C3    3  -0.225  -0.111  -0.029
    1UNL     C4    4  -0.189  -0.135   0.120
    1UNL     N1    5  -0.055  -0.080   0.149
    1UNL     C5    6   0.028  -0.162   0.240
    1UNL     C6    7  -0.037   0.074   0.130
    1UNL     C7    8   0.100   0.104   0.067
    1UNL     C8    9   0.177  -0.003   0.005
    1UNL     C9   10   0.148  -0.085  -0.107
    1UNL     N2   11   0.264  -0.151  -0.145
    1UNL    C10   12   0.370  -0.117  -0.066
    1UNL    C11   13   0.503  -0.156  -0.063
    1UNL    C12   14   0.587  -0.083   0.025
    1UNL    C13   15   0.539   0.017   0.117
    1UNL    C14   16   0.409   0.048   0.106
    1UNL    C15   17   0.318  -0.020   0.021
    1UNL    C16   18   0.029  -0.102  -0.183
    1UNL     O1   19   0.008  -0.204  -0.239
    1UNL    C17   20  -0.076   0.009  -0.197
    1UNL    C18   21  -0.185   0.029  -0.083
    1UNL    C19   22  -0.151   0.134   0.033
    1UNL    C20   23  -0.133   0.273  -0.028
    1UNL     O2   24  -0.035   0.316  -0.090
    1UNL     O3   25  -0.246   0.345  -0.015
    1UNL    C21   26  -0.230   0.482  -0.048
    1UNL     H1   27  -0.313  -0.358  -0.057
    1UNL     H2   28  -0.486  -0.326  -0.068
    1UNL     H3   29  -0.419  -0.302   0.087
    1UNL     H4   30  -0.424  -0.075  -0.001
    1UNL     H5   31  -0.394  -0.137  -0.168
    1UNL     H6   32  -0.175  -0.186  -0.089
    1UNL     H7   33  -0.265  -0.077   0.177
    1UNL     H8   34  -0.187  -0.246   0.153
    1UNL     H9   35   0.130  -0.132   0.244
    1UNL    H10   36   0.037  -0.266   0.217
    1UNL    H11   37  -0.013  -0.160   0.343
    1UNL    H12   38  -0.062   0.131   0.224
    1UNL    H13   39   0.156   0.160   0.152
    1UNL    H14   40   0.085   0.176  -0.007
    1UNL    H15   41   0.258  -0.223  -0.218
    1UNL    H16   42   0.538  -0.210  -0.157
    1UNL    H17   43   0.683  -0.104   0.019
    1UNL    H18   44   0.605   0.048   0.196
    1UNL    H19   45   0.366   0.108   0.183
    1UNL    H20   46  -0.019   0.111  -0.187
    1UNL    H21   47  -0.122  -0.002  -0.294
    1UNL    H22   48  -0.274   0.076  -0.127
    1UNL    H23   49  -0.243   0.135   0.091
    1UNL    H24   50  -0.314   0.495  -0.111
    1UNL    H25   51  -0.225   0.543   0.045
    1UNL    H26   52  -0.134   0.498  -0.111
   0.00000   0.00000   0.00000   0.00000   0.00000   0.00000   0.00000   0.00000   0.00000
Generated with MDTraj, t= 84.0
 52
    1UNL     C1    1  -0.396  -0.306  -0.043
    1UNL     C2    2  -0.371  -0.158  -0.057
    1UNL     C3    3  -0.225  -0.119  -0.025
    1UNL     C4    4  -0.184  -0.134   0.129
    1UNL     N1    5  -0.047  -0.073   0.141
    1UNL     C5    6   0.046  -0.124   0.239
    1UNL     C6    7  -0.037   0.074   0.116
    1UNL     C7    8   0.104   0.122   0.067
    1UNL     C8    9   0.189   0.015   0.001
    1UNL     C9   10   0.152  -0.071  -0.100
    1UNL     N2   11   0.259  -0.145  -0.150
    1UNL    C10   12   0.369  -0.097  -0.075
    1UNL    C11   13   0.500  -0.143  -0.079
    1UNL    C12   14   0.585  -0.106   0.021
    1UNL    C13   15   0.538  -0.021   0.126
    1UNL    C14   16   0.409   0.021   0.135
    1UNL    C15   17   0.321  -0.011   0.026
    1UNL    C16   18   0.021  -0.085  -0.169
    1UNL     O1   19  -0.009  -0.196  -0.215
    1UNL    C17   20  -0.079   0.031  -0.189
    1UNL    C18   21  -0.195   0.024  -0.083
    1UNL    C19   22  -0.164   0.126   0.033
    1UNL    C20   23  -0.139   0.262  -0.026
    1UNL     O2   24  -0.042   0.289  -0.098
    1UNL     O3   25  -0.245   0.350  -0.002
    1UNL    C21   26  -0.221   0.471  -0.076
    1UNL     H1   27  -0.347  -0.361  -0.128
    1UNL     H2   28  -0.502  -0.325  -0.058
    1UNL     H3   29  -0.375  -0.349   0.056
    1UNL     H4   30  -0.437  -0.107   0.004
    1UNL     H5   31  -0.380  -0.129  -0.165
    1UNL     H6   32  -0.164  -0.192  -0.082
    1UNL     H7   33  -0.248  -0.087   0.206
    1UNL     H8   34  -0.171  -0.247   0.158
    1UNL     H9   35   0.115  -0.044   0.263
    1UNL    H10   36   0.109  -0.202   0.202
    1UNL    H11   37  -0.005  -0.163   0.328
    1UNL    H12   38  -0.058   0.116   0.218
    1UNL    H13   39   0.165   0.157   0.157
    1UNL    H14   40   0.098   0.207   0.002
    1UNL    H15   41   0.269  -0.200  -0.236
    1UNL    H16   42   0.534  -0.175  -0.170
    1UNL    H17   43   0.695  -0.140   0.017
    1UNL    H18   44   0.600  -0.010   0.213
    1UNL    H19   45   0.365   0.072   0.220
    1UNL    H20   46  -0.030   0.133  -0.188
    1UNL    H21   47  -0.132   0.015  -0.283
    1UNL    H22   48  -0.287   0.071  -0.122
    1UNL    H23   49  -0.250   0.126   0.099
    1UNL    H24   50  -0.312   0.499  -0.118
    1UNL    H25   51  -0.172   0.540  -0.004
    1UNL    H26   52  -0.147   0.451  -0.162
   0.00000   0.00000   0.00000   0.00000   0.00000   0.00000   0.00000   0.00000   0.00000
Generated with MDTraj, t= 85.0
 52
    1UNL     C1    1  -0.396  -0.307  -0.027
    1UNL     C2    2  -0.370  -0.158  -0.031
    1UNL     C3    3  -0.219  -0.127  -0.040
    1UNL     C4    4  -0.168  -0.149   0.106
    1UNL     N1    5  -0.037  -0.076   0.133
    1UNL     C5    6   0.041  -0.119   0.252
    1UNL     C6    7  -0.043   0.073   0.109
    1UNL     C7    8   0.101   0.124   0.074
    1UNL     C8    9   0.188   0.035  -0.008
    1UNL     C9   10   0.154  -0.040  -0.123
    1UNL     N2   11   0.257  -0.132  -0.158
    1UNL    C10   12   0.364  -0.106  -0.071
    1UNL    C11   13   0.484  -0.174  -0.053
    1UNL    C12   14   0.573  -0.128   0.043
    1UNL    C13   15   0.534  -0.018   0.124
    1UNL    C14   16   0.411   0.043   0.118
    1UNL    C15   17   0.319  -0.005   0.021
    1UNL    C16   18   0.024  -0.071  -0.184
    1UNL     O1   19   0.000  -0.190  -0.207
    1UNL    C17   20  -0.081   0.030  -0.204
    1UNL    C18   21  -0.190   0.013  -0.098
    1UNL    C19   22  -0.162   0.120   0.015
    1UNL    C20   23  -0.140   0.261  -0.027
    1UNL     O2   24  -0.041   0.293  -0.085
    1UNL     O3   25  -0.238   0.344   0.007
    1UNL    C21   26  -0.225   0.466  -0.065
    1UNL     H1   27  -0.371  -0.354  -0.120
    1UNL     H2   28  -0.505  -0.328  -0.002
    1UNL     H3   29  -0.348  -0.353   0.061
    1UNL     H4   30  -0.403  -0.107   0.055
    1UNL     H5   31  -0.428  -0.118  -0.118
    1UNL     H6   32  -0.169  -0.198  -0.107
    1UNL     H7   33  -0.247  -0.108   0.172
    1UNL     H8   34  -0.153  -0.261   0.137
    1UNL     H9   35   0.143  -0.084   0.229
    1UNL    H10   36   0.039  -0.226   0.252
    1UNL    H11   37  -0.003  -0.084   0.345
    1UNL    H12   38  -0.069   0.113   0.209
    1UNL    H13   39   0.160   0.151   0.165
    1UNL    H14   40   0.089   0.220   0.021
    1UNL    H15   41   0.237  -0.221  -0.205
    1UNL    H16   42   0.518  -0.263  -0.116
    1UNL    H17   43   0.677  -0.171   0.046
    1UNL    H18   44   0.610   0.005   0.201
    1UNL    H19   45   0.393   0.126   0.186
    1UNL    H20   46  -0.031   0.121  -0.190
    1UNL    H21   47  -0.122   0.017  -0.305
    1UNL    H22   48  -0.287   0.048  -0.141
    1UNL    H23   49  -0.248   0.115   0.084
    1UNL    H24   50  -0.280   0.530  -0.007
    1UNL    H25   51  -0.117   0.491  -0.070
    1UNL    H26   52  -0.271   0.467  -0.168
   0.00000   0.00000   0.00000   0.00000   0.00000   0.00000   0.00000   0.00000   0.00000
Generated with MDTraj, t= 86.0
 52
    1UNL     C1    1  -0.415  -0.279   0.011
    1UNL     C2    2  -0.356  -0.151  -0.051
    1UNL     C3    3  -0.205  -0.123  -0.039
    1UNL     C4    4  -0.170  -0.135   0.111
    1UNL     N1    5  -0.036  -0.075   0.133
    1UNL     C5    6   0.056  -0.148   0.232
    1UNL     C6    7  -0.034   0.075   0.108
    1UNL     C7    8   0.095   0.124   0.032
    1UNL     C8    9   0.185   0.021  -0.024
    1UNL     C9   10   0.157  -0.073  -0.122
    1UNL     N2   11   0.261  -0.162  -0.134
    1UNL    C10   12   0.368  -0.121  -0.058
    1UNL    C11   13   0.494  -0.176  -0.035
    1UNL    C12   14   0.568  -0.110   0.066
    1UNL    C13   15   0.523  -0.008   0.146
    1UNL    C14   16   0.410   0.055   0.105
    1UNL    C15   17   0.320  -0.008   0.012
    1UNL    C16   18   0.033  -0.085  -0.196
    1UNL     O1   19   0.007  -0.192  -0.249
    1UNL    C17   20  -0.065   0.026  -0.208
    1UNL    C18   21  -0.176   0.023  -0.097
    1UNL    C19   22  -0.159   0.123   0.019
    1UNL    C20   23  -0.152   0.265  -0.030
    1UNL     O2   24  -0.075   0.302  -0.115
    1UNL     O3   25  -0.247   0.347   0.037
    1UNL    C21   26  -0.240   0.479  -0.022
    1UNL     H1   27  -0.515  -0.268   0.036
    1UNL     H2   28  -0.357  -0.315   0.108
    1UNL     H3   29  -0.402  -0.366  -0.054
    1UNL     H4   30  -0.411  -0.067  -0.010
    1UNL     H5   31  -0.383  -0.148  -0.160
    1UNL     H6   32  -0.137  -0.188  -0.098
    1UNL     H7   33  -0.243  -0.087   0.181
    1UNL     H8   34  -0.168  -0.249   0.136
    1UNL     H9   35   0.153  -0.102   0.207
    1UNL    H10   36   0.057  -0.253   0.202
    1UNL    H11   37   0.023  -0.135   0.331
    1UNL    H12   38  -0.037   0.124   0.206
    1UNL    H13   39   0.149   0.176   0.107
    1UNL    H14   40   0.067   0.201  -0.049
    1UNL    H15   41   0.281  -0.224  -0.213
    1UNL    H16   42   0.528  -0.271  -0.070
    1UNL    H17   43   0.662  -0.143   0.078
    1UNL    H18   44   0.588   0.029   0.217
    1UNL    H19   45   0.375   0.138   0.163
    1UNL    H20   46  -0.021   0.118  -0.215
    1UNL    H21   47  -0.112  -0.002  -0.304
    1UNL    H22   48  -0.273   0.054  -0.145
    1UNL    H23   49  -0.246   0.117   0.088
    1UNL    H24   50  -0.321   0.528   0.017
    1UNL    H25   51  -0.146   0.523   0.012
    1UNL    H26   52  -0.245   0.480  -0.134
   0.00000   0.00000   0.00000   0.00000   0.00000   0.00000   0.00000   0.00000   0.00000
Generated with MDTraj, t= 87.0
 52
    1UNL     C1    1  -0.423  -0.271   0.007
    1UNL     C2    2  -0.376  -0.131  -0.022
    1UNL     C3    3  -0.226  -0.122  -0.049
    1UNL     C4    4  -0.140  -0.151   0.081
    1UNL     N1    5  -0.016  -0.072   0.097
    1UNL     C5    6   0.080  -0.114   0.210
    1UNL     C6    7  -0.032   0.076   0.082
    1UNL     C7    8   0.098   0.131   0.017
    1UNL     C8    9   0.194   0.020  -0.024
    1UNL     C9   10   0.158  -0.085  -0.108
    1UNL     N2   11   0.255  -0.178  -0.109
    1UNL    C10   12   0.362  -0.130  -0.036
    1UNL    C11   13   0.495  -0.170  -0.025
    1UNL    C12   14   0.573  -0.116   0.071
    1UNL    C13   15   0.531  -0.005   0.139
    1UNL    C14   16   0.409   0.051   0.123
    1UNL    C15   17   0.317  -0.012   0.033
    1UNL    C16   18   0.031  -0.092  -0.192
    1UNL     O1   19   0.020  -0.199  -0.246
    1UNL    C17   20  -0.072   0.012  -0.216
    1UNL    C18   21  -0.183   0.020  -0.110
    1UNL    C19   22  -0.159   0.118   0.002
    1UNL    C20   23  -0.164   0.271  -0.035
    1UNL     O2   24  -0.112   0.312  -0.136
    1UNL     O3   25  -0.235   0.342   0.055
    1UNL    C21   26  -0.239   0.481   0.022
    1UNL     H1   27  -0.526  -0.274   0.031
    1UNL     H2   28  -0.363  -0.320   0.089
    1UNL     H3   29  -0.409  -0.338  -0.080
    1UNL     H4   30  -0.411  -0.060   0.055
    1UNL     H5   31  -0.433  -0.091  -0.110
    1UNL     H6   32  -0.201  -0.192  -0.128
    1UNL     H7   33  -0.214  -0.128   0.166
    1UNL     H8   34  -0.117  -0.261   0.096
    1UNL     H9   35   0.105  -0.020   0.259
    1UNL    H10   36   0.171  -0.154   0.163
    1UNL    H11   37   0.031  -0.182   0.274
    1UNL    H12   38  -0.045   0.126   0.177
    1UNL    H13   39   0.148   0.193   0.084
    1UNL    H14   40   0.077   0.192  -0.079
    1UNL    H15   41   0.241  -0.275  -0.137
    1UNL    H16   42   0.527  -0.250  -0.086
    1UNL    H17   43   0.684  -0.150   0.081
    1UNL    H18   44   0.605   0.049   0.206
    1UNL    H19   45   0.384   0.138   0.184
    1UNL    H20   46  -0.028   0.108  -0.230
    1UNL    H21   47  -0.122  -0.018  -0.309
    1UNL    H22   48  -0.279   0.050  -0.161
    1UNL    H23   49  -0.237   0.102   0.083
    1UNL    H24   50  -0.323   0.520   0.070
    1UNL    H25   51  -0.152   0.525   0.069
    1UNL    H26   52  -0.240   0.507  -0.088
   0.00000   0.00000   0.00000   0.00000   0.00000   0.00000   0.00000   0.00000   0.00000
Generated with MDTraj, t= 88.0
 52
    1UNL     C1    1  -0.423  -0.269  -0.017
    1UNL     C2    2  -0.379  -0.128  -0.042
    1UNL     C3    3  -0.224  -0.124  -0.050
    1UNL     C4    4  -0.139  -0.162   0.077
    1UNL     N1    5  -0.014  -0.086   0.106
    1UNL     C5    6   0.058  -0.117   0.232
    1UNL     C6    7  -0.022   0.062   0.085
    1UNL     C7    8   0.105   0.125   0.031
    1UNL     C8    9   0.198   0.033  -0.043
    1UNL     C9   10   0.161  -0.063  -0.137
    1UNL     N2   11   0.266  -0.148  -0.150
    1UNL    C10   12   0.362  -0.117  -0.054
    1UNL    C11   13   0.476  -0.186   0.007
    1UNL    C12   14   0.543  -0.122   0.105
    1UNL    C13   15   0.516   0.015   0.132
    1UNL    C14   16   0.411   0.082   0.085
    1UNL    C15   17   0.330   0.008   0.000
    1UNL    C16   18   0.027  -0.094  -0.186
    1UNL     O1   19   0.002  -0.209  -0.193
    1UNL    C17   20  -0.071   0.011  -0.216
    1UNL    C18   21  -0.184   0.018  -0.106
    1UNL    C19   22  -0.155   0.105   0.013
    1UNL    C20   23  -0.156   0.255  -0.024
    1UNL     O2   24  -0.110   0.291  -0.132
    1UNL     O3   25  -0.216   0.344   0.068
    1UNL    C21   26  -0.216   0.472   0.018
    1UNL     H1   27  -0.532  -0.280  -0.004
    1UNL     H2   28  -0.381  -0.303   0.074
    1UNL     H3   29  -0.390  -0.336  -0.100
    1UNL     H4   30  -0.411  -0.050   0.033
    1UNL     H5   31  -0.427  -0.085  -0.132
    1UNL     H6   32  -0.193  -0.193  -0.127
    1UNL     H7   33  -0.202  -0.153   0.176
    1UNL     H8   34  -0.120  -0.272   0.072
    1UNL     H9   35   0.164  -0.097   0.219
    1UNL    H10   36   0.045  -0.224   0.250
    1UNL    H11   37   0.017  -0.058   0.312
    1UNL    H12   38  -0.027   0.096   0.188
    1UNL    H13   39   0.159   0.177   0.105
    1UNL    H14   40   0.075   0.201  -0.046
    1UNL    H15   41   0.259  -0.221  -0.222
    1UNL    H16   42   0.513  -0.289  -0.027
    1UNL    H17   43   0.617  -0.171   0.164
    1UNL    H18   44   0.580   0.049   0.206
    1UNL    H19   45   0.394   0.185   0.109
    1UNL    H20   46  -0.026   0.115  -0.217
    1UNL    H21   47  -0.109  -0.009  -0.314
    1UNL    H22   48  -0.273   0.069  -0.154
    1UNL    H23   49  -0.228   0.100   0.100
    1UNL    H24   50  -0.219   0.528   0.109
    1UNL    H25   51  -0.119   0.497  -0.027
    1UNL    H26   52  -0.301   0.490  -0.055
   0.00000   0.00000   0.00000   0.00000   0.00000   0.00000   0.00000   0.00000   0.00000
Generated with MDTraj, t= 89.0
 52
    1UNL     C1    1  -0.407  -0.301  -0.011
    1UNL     C2    2  -0.384  -0.153  -0.041
    1UNL     C3    3  -0.232  -0.118  -0.043
    1UNL     C4    4  -0.172  -0.130   0.096
    1UNL     N1    5  -0.034  -0.080   0.097
    1UNL     C5    6   0.074  -0.139   0.184
    1UNL     C6    7  -0.037   0.073   0.091
    1UNL     C7    8   0.092   0.128   0.026
    1UNL     C8    9   0.186   0.019  -0.021
    1UNL     C9   10   0.148  -0.075  -0.108
    1UNL     N2   11   0.261  -0.151  -0.127
    1UNL    C10   12   0.364  -0.115  -0.042
    1UNL    C11   13   0.492  -0.157  -0.018
    1UNL    C12   14   0.571  -0.094   0.069
    1UNL    C13   15   0.522   0.011   0.146
    1UNL    C14   16   0.397   0.060   0.120
    1UNL    C15   17   0.319  -0.005   0.024
    1UNL    C16   18   0.026  -0.105  -0.180
    1UNL     O1   19   0.013  -0.210  -0.233
    1UNL    C17   20  -0.085  -0.003  -0.209
    1UNL    C18   21  -0.195   0.021  -0.103
    1UNL    C19   22  -0.161   0.118   0.012
    1UNL    C20   23  -0.150   0.269  -0.033
    1UNL     O2   24  -0.103   0.297  -0.144
    1UNL     O3   25  -0.192   0.353   0.064
    1UNL    C21   26  -0.182   0.483   0.018
    1UNL     H1   27  -0.514  -0.334  -0.029
    1UNL     H2   28  -0.389  -0.315   0.088
    1UNL     H3   29  -0.338  -0.356  -0.078
    1UNL     H4   30  -0.435  -0.092   0.042
    1UNL     H5   31  -0.429  -0.107  -0.130
    1UNL     H6   32  -0.189  -0.193  -0.108
    1UNL     H7   33  -0.243  -0.083   0.177
    1UNL     H8   34  -0.164  -0.236   0.130
    1UNL     H9   35   0.160  -0.182   0.136
    1UNL    H10   36   0.036  -0.221   0.245
    1UNL    H11   37   0.110  -0.067   0.258
    1UNL    H12   38  -0.047   0.109   0.194
    1UNL    H13   39   0.147   0.185   0.097
    1UNL    H14   40   0.066   0.186  -0.058
    1UNL    H15   41   0.258  -0.228  -0.195
    1UNL    H16   42   0.526  -0.228  -0.082
    1UNL    H17   43   0.663  -0.133   0.101
    1UNL    H18   44   0.577   0.058   0.229
    1UNL    H19   45   0.367   0.152   0.167
    1UNL    H20   46  -0.040   0.095  -0.251
    1UNL    H21   47  -0.139  -0.045  -0.290
    1UNL    H22   48  -0.291   0.063  -0.145
    1UNL    H23   49  -0.237   0.114   0.098
    1UNL    H24   50  -0.202   0.553   0.098
    1UNL    H25   51  -0.079   0.512  -0.013
    1UNL    H26   52  -0.248   0.489  -0.075
   0.00000   0.00000   0.00000   0.00000   0.00000   0.00000   0.00000   0.00000   0.00000
Generated with MDTraj, t= 90.0
 52
    1UNL     C1    1  -0.410  -0.295  -0.007
    1UNL     C2    2  -0.370  -0.161  -0.070
    1UNL     C3    3  -0.217  -0.126  -0.045
    1UNL     C4    4  -0.174  -0.149   0.099
    1UNL     N1    5  -0.051  -0.073   0.136
    1UNL     C5    6   0.045  -0.146   0.222
    1UNL     C6    7  -0.049   0.076   0.111
    1UNL     C7    8   0.092   0.120   0.060
    1UNL     C8    9   0.169   0.012  -0.005
    1UNL     C9   10   0.142  -0.074  -0.107
    1UNL     N2   11   0.257  -0.151  -0.128
    1UNL    C10   12   0.365  -0.099  -0.059
    1UNL    C11   13   0.498  -0.143  -0.045
    1UNL    C12   14   0.576  -0.091   0.052
    1UNL    C13   15   0.530   0.014   0.131
    1UNL    C14   16   0.394   0.060   0.124
    1UNL    C15   17   0.314  -0.000   0.026
    1UNL    C16   18   0.026  -0.087  -0.185
    1UNL     O1   19   0.009  -0.190  -0.245
    1UNL    C17   20  -0.070   0.023  -0.203
    1UNL    C18   21  -0.184   0.018  -0.097
    1UNL    C19   22  -0.167   0.115   0.018
    1UNL    C20   23  -0.158   0.252  -0.038
    1UNL     O2   24  -0.114   0.273  -0.151
    1UNL     O3   25  -0.188   0.356   0.050
    1UNL    C21   26  -0.140   0.471  -0.008
    1UNL     H1   27  -0.519  -0.293   0.027
    1UNL     H2   28  -0.360  -0.309   0.084
    1UNL     H3   29  -0.397  -0.371  -0.085
    1UNL     H4   30  -0.426  -0.064  -0.037
    1UNL     H5   31  -0.385  -0.165  -0.178
    1UNL     H6   32  -0.163  -0.199  -0.102
    1UNL     H7   33  -0.253  -0.111   0.172
    1UNL     H8   34  -0.164  -0.259   0.124
    1UNL     H9   35   0.064  -0.245   0.188
    1UNL    H10   36   0.013  -0.161   0.325
    1UNL    H11   37   0.147  -0.101   0.235
    1UNL    H12   38  -0.079   0.126   0.206
    1UNL    H13   39   0.136   0.162   0.148
    1UNL    H14   40   0.076   0.191  -0.010
    1UNL    H15   41   0.263  -0.235  -0.186
    1UNL    H16   42   0.534  -0.233  -0.102
    1UNL    H17   43   0.679  -0.142   0.067
    1UNL    H18   44   0.599   0.061   0.200
    1UNL    H19   45   0.361   0.146   0.182
    1UNL    H20   46  -0.017   0.125  -0.207
    1UNL    H21   47  -0.102   0.008  -0.303
    1UNL    H22   48  -0.282   0.050  -0.141
    1UNL    H23   49  -0.262   0.123   0.083
    1UNL    H24   50  -0.193   0.552   0.043
    1UNL    H25   51  -0.033   0.499   0.004
    1UNL    H26   52  -0.169   0.469  -0.116
   0.00000   0.00000   0.00000   0.00000   0.00000   0.00000   0.00000   0.00000   0.00000
Generated with MDTraj, t= 91.0
 52
    1UNL     C1    1  -0.420  -0.315  -0.039
    1UNL     C2    2  -0.388  -0.162  -0.056
    1UNL     C3    3  -0.236  -0.126  -0.051
    1UNL     C4    4  -0.178  -0.149   0.092
    1UNL     N1    5  -0.051  -0.082   0.133
    1UNL     C5    6  -0.020  -0.112   0.271
    1UNL     C6    7  -0.046   0.067   0.103
    1UNL     C7    8   0.095   0.121   0.056
    1UNL     C8    9   0.188   0.031  -0.018
    1UNL     C9   10   0.156  -0.058  -0.121
    1UNL     N2   11   0.267  -0.137  -0.148
    1UNL    C10   12   0.371  -0.109  -0.063
    1UNL    C11   13   0.507  -0.144  -0.049
    1UNL    C12   14   0.586  -0.080   0.045
    1UNL    C13   15   0.530   0.020   0.126
    1UNL    C14   16   0.398   0.063   0.115
    1UNL    C15   17   0.325   0.001   0.018
    1UNL    C16   18   0.026  -0.094  -0.180
    1UNL     O1   19   0.010  -0.213  -0.208
    1UNL    C17   20  -0.084  -0.001  -0.212
    1UNL    C18   21  -0.195   0.013  -0.102
    1UNL    C19   22  -0.160   0.112   0.011
    1UNL    C20   23  -0.134   0.258  -0.035
    1UNL     O2   24  -0.101   0.285  -0.148
    1UNL     O3   25  -0.148   0.343   0.065
    1UNL    C21   26  -0.153   0.474   0.014
    1UNL     H1   27  -0.485  -0.347  -0.123
    1UNL     H2   28  -0.492  -0.331   0.051
    1UNL     H3   29  -0.331  -0.375  -0.049
    1UNL     H4   30  -0.440  -0.102   0.030
    1UNL     H5   31  -0.420  -0.119  -0.151
    1UNL     H6   32  -0.185  -0.196  -0.114
    1UNL     H7   33  -0.257  -0.134   0.167
    1UNL     H8   34  -0.149  -0.261   0.103
    1UNL     H9   35  -0.027  -0.217   0.293
    1UNL    H10   36  -0.085  -0.064   0.343
    1UNL    H11   37   0.085  -0.091   0.301
    1UNL    H12   38  -0.081   0.115   0.199
    1UNL    H13   39   0.145   0.143   0.148
    1UNL    H14   40   0.083   0.207  -0.001
    1UNL    H15   41   0.271  -0.207  -0.223
    1UNL    H16   42   0.531  -0.238  -0.100
    1UNL    H17   43   0.684  -0.105   0.047
    1UNL    H18   44   0.595   0.084   0.186
    1UNL    H19   45   0.357   0.144   0.175
    1UNL    H20   46  -0.043   0.097  -0.243
    1UNL    H21   47  -0.128  -0.041  -0.303
    1UNL    H22   48  -0.291   0.051  -0.143
    1UNL    H23   49  -0.256   0.113   0.076
    1UNL    H24   50  -0.149   0.547   0.096
    1UNL    H25   51  -0.081   0.500  -0.064
    1UNL    H26   52  -0.251   0.485  -0.032
   0.00000   0.00000   0.00000   0.00000   0.00000   0.00000   0.00000   0.00000   0.00000
Generated with MDTraj, t= 92.0
 52
    1UNL     C1    1  -0.430  -0.296  -0.066
    1UNL     C2    2  -0.382  -0.152  -0.078
    1UNL     C3    3  -0.230  -0.128  -0.055
    1UNL     C4    4  -0.180  -0.138   0.096
    1UNL     N1    5  -0.054  -0.069   0.129
    1UNL     C5    6   0.002  -0.101   0.263
    1UNL     C6    7  -0.050   0.077   0.100
    1UNL     C7    8   0.093   0.116   0.057
    1UNL     C8    9   0.183   0.008  -0.003
    1UNL     C9   10   0.156  -0.086  -0.102
    1UNL     N2   11   0.268  -0.151  -0.140
    1UNL    C10   12   0.373  -0.105  -0.063
    1UNL    C11   13   0.513  -0.128  -0.069
    1UNL    C12   14   0.591  -0.061   0.021
    1UNL    C13   15   0.535   0.026   0.125
    1UNL    C14   16   0.406   0.057   0.115
    1UNL    C15   17   0.324  -0.003   0.017
    1UNL    C16   18   0.030  -0.120  -0.164
    1UNL     O1   19   0.004  -0.240  -0.189
    1UNL    C17   20  -0.060  -0.005  -0.198
    1UNL    C18   21  -0.192   0.011  -0.109
    1UNL    C19   22  -0.172   0.112   0.008
    1UNL    C20   23  -0.158   0.254  -0.035
    1UNL     O2   24  -0.126   0.292  -0.145
    1UNL     O3   25  -0.184   0.351   0.066
    1UNL    C21   26  -0.123   0.474   0.032
    1UNL     H1   27  -0.358  -0.364  -0.106
    1UNL     H2   28  -0.532  -0.306  -0.129
    1UNL     H3   29  -0.436  -0.335   0.037
    1UNL     H4   30  -0.428  -0.081   0.004
    1UNL     H5   31  -0.403  -0.114  -0.178
    1UNL     H6   32  -0.171  -0.201  -0.108
    1UNL     H7   33  -0.258  -0.108   0.164
    1UNL     H8   34  -0.163  -0.252   0.117
    1UNL     H9   35   0.025  -0.208   0.269
    1UNL    H10   36  -0.065  -0.078   0.345
    1UNL    H11   37   0.100  -0.054   0.281
    1UNL    H12   38  -0.078   0.120   0.201
    1UNL    H13   39   0.152   0.149   0.138
    1UNL    H14   40   0.092   0.200  -0.016
    1UNL    H15   41   0.272  -0.236  -0.195
    1UNL    H16   42   0.548  -0.200  -0.133
    1UNL    H17   43   0.702  -0.079   0.027
    1UNL    H18   44   0.594   0.079   0.196
    1UNL    H19   45   0.353   0.119   0.182
    1UNL    H20   46  -0.004   0.085  -0.193
    1UNL    H21   47  -0.095  -0.008  -0.302
    1UNL    H22   48  -0.280   0.044  -0.166
    1UNL    H23   49  -0.267   0.113   0.074
    1UNL    H24   50  -0.052   0.498   0.115
    1UNL    H25   51  -0.072   0.479  -0.062
    1UNL    H26   52  -0.190   0.556   0.045
   0.00000   0.00000   0.00000   0.00000   0.00000   0.00000   0.00000   0.00000   0.00000
Generated with MDTraj, t= 93.0
 52
    1UNL     C1    1  -0.432  -0.291  -0.030
    1UNL     C2    2  -0.390  -0.150  -0.077
    1UNL     C3    3  -0.242  -0.117  -0.053
    1UNL     C4    4  -0.198  -0.138   0.095
    1UNL     N1    5  -0.062  -0.088   0.108
    1UNL     C5    6   0.009  -0.165   0.214
    1UNL     C6    7  -0.054   0.064   0.103
    1UNL     C7    8   0.091   0.118   0.070
    1UNL     C8    9   0.175   0.012   0.008
    1UNL     C9   10   0.151  -0.091  -0.089
    1UNL     N2   11   0.271  -0.168  -0.113
    1UNL    C10   12   0.370  -0.105  -0.043
    1UNL    C11   13   0.505  -0.133  -0.046
    1UNL    C12   14   0.593  -0.058   0.031
    1UNL    C13   15   0.541   0.065   0.092
    1UNL    C14   16   0.408   0.083   0.104
    1UNL    C15   17   0.315   0.005   0.029
    1UNL    C16   18   0.028  -0.110  -0.165
    1UNL     O1   19   0.000  -0.220  -0.213
    1UNL    C17   20  -0.059   0.009  -0.198
    1UNL    C18   21  -0.187   0.018  -0.106
    1UNL    C19   22  -0.162   0.111   0.010
    1UNL    C20   23  -0.134   0.257  -0.030
    1UNL     O2   24  -0.107   0.280  -0.143
    1UNL     O3   25  -0.139   0.344   0.068
    1UNL    C21   26  -0.158   0.473   0.009
    1UNL     H1   27  -0.378  -0.369  -0.080
    1UNL     H2   28  -0.544  -0.306  -0.058
    1UNL     H3   29  -0.406  -0.320   0.075
    1UNL     H4   30  -0.452  -0.073  -0.018
    1UNL     H5   31  -0.404  -0.145  -0.186
    1UNL     H6   32  -0.180  -0.182  -0.113
    1UNL     H7   33  -0.265  -0.077   0.153
    1UNL     H8   34  -0.217  -0.248   0.128
    1UNL     H9   35  -0.011  -0.274   0.196
    1UNL    H10   36  -0.025  -0.139   0.315
    1UNL    H11   37   0.115  -0.151   0.199
    1UNL    H12   38  -0.082   0.100   0.207
    1UNL    H13   39   0.140   0.150   0.156
    1UNL    H14   40   0.083   0.208  -0.004
    1UNL    H15   41   0.262  -0.233  -0.193
    1UNL    H16   42   0.548  -0.221  -0.107
    1UNL    H17   43   0.694  -0.088   0.057
    1UNL    H18   44   0.614   0.128   0.144
    1UNL    H19   45   0.360   0.173   0.148
    1UNL    H20   46  -0.006   0.097  -0.187
    1UNL    H21   47  -0.085  -0.002  -0.305
    1UNL    H22   48  -0.264   0.067  -0.166
    1UNL    H23   49  -0.260   0.117   0.070
    1UNL    H24   50  -0.056   0.520   0.003
    1UNL    H25   51  -0.192   0.468  -0.092
    1UNL    H26   52  -0.207   0.544   0.072
   0.00000   0.00000   0.00000   0.00000   0.00000   0.00000   0.00000   0.00000   0.00000
Generated with MDTraj, t= 94.0
 52
    1UNL     C1    1  -0.470  -0.251  -0.033
    1UNL     C2    2  -0.396  -0.119  -0.045
    1UNL     C3    3  -0.243  -0.130  -0.061
    1UNL     C4    4  -0.174  -0.173   0.070
    1UNL     N1    5  -0.042  -0.102   0.093
    1UNL     C5    6   0.045  -0.169   0.199
    1UNL     C6    7  -0.052   0.047   0.110
    1UNL     C7    8   0.087   0.121   0.081
    1UNL     C8    9   0.173   0.024   0.006
    1UNL     C9   10   0.153  -0.071  -0.094
    1UNL     N2   11   0.263  -0.144  -0.122
    1UNL    C10   12   0.362  -0.099  -0.036
    1UNL    C11   13   0.495  -0.140  -0.023
    1UNL    C12   14   0.586  -0.057   0.041
    1UNL    C13   15   0.540   0.063   0.102
    1UNL    C14   16   0.408   0.103   0.097
    1UNL    C15   17   0.313   0.021   0.022
    1UNL    C16   18   0.030  -0.112  -0.165
    1UNL     O1   19   0.004  -0.226  -0.198
    1UNL    C17   20  -0.076  -0.001  -0.206
    1UNL    C18   21  -0.189   0.008  -0.107
    1UNL    C19   22  -0.160   0.098   0.015
    1UNL    C20   23  -0.135   0.240  -0.031
    1UNL     O2   24  -0.078   0.263  -0.135
    1UNL     O3   25  -0.175   0.349   0.052
    1UNL    C21   26  -0.134   0.468   0.005
    1UNL     H1   27  -0.419  -0.333  -0.086
    1UNL     H2   28  -0.568  -0.241  -0.077
    1UNL     H3   29  -0.477  -0.303   0.069
    1UNL     H4   30  -0.407  -0.059   0.051
    1UNL     H5   31  -0.436  -0.071  -0.136
    1UNL     H6   32  -0.222  -0.195  -0.144
    1UNL     H7   33  -0.239  -0.165   0.157
    1UNL     H8   34  -0.152  -0.282   0.053
    1UNL     H9   35   0.088  -0.264   0.158
    1UNL    H10   36  -0.023  -0.194   0.283
    1UNL    H11   37   0.119  -0.097   0.226
    1UNL    H12   38  -0.077   0.067   0.216
    1UNL    H13   39   0.123   0.150   0.175
    1UNL    H14   40   0.073   0.214   0.010
    1UNL    H15   41   0.258  -0.234  -0.170
    1UNL    H16   42   0.539  -0.219  -0.076
    1UNL    H17   43   0.688  -0.080   0.058
    1UNL    H18   44   0.605   0.135   0.151
    1UNL    H19   45   0.369   0.200   0.125
    1UNL    H20   46  -0.031   0.092  -0.216
    1UNL    H21   47  -0.124  -0.029  -0.302
    1UNL    H22   48  -0.272   0.054  -0.161
    1UNL    H23   49  -0.258   0.114   0.076
    1UNL    H24   50  -0.130   0.473  -0.108
    1UNL    H25   51  -0.201   0.546   0.032
    1UNL    H26   52  -0.032   0.480   0.040
   0.00000   0.00000   0.00000   0.00000   0.00000   0.00000   0.00000   0.00000   0.00000
Generated with MDTraj, t= 95.0
 52
    1UNL     C1    1  -0.489  -0.247  -0.022
    1UNL     C2    2  -0.405  -0.117  -0.026
    1UNL     C3    3  -0.250  -0.126  -0.052
    1UNL     C4    4  -0.182  -0.162   0.082
    1UNL     N1    5  -0.049  -0.103   0.089
    1UNL     C5    6   0.039  -0.166   0.191
    1UNL     C6    7  -0.051   0.045   0.090
    1UNL     C7    8   0.095   0.103   0.068
    1UNL     C8    9   0.185   0.021  -0.009
    1UNL     C9   10   0.163  -0.077  -0.107
    1UNL     N2   11   0.285  -0.135  -0.140
    1UNL    C10   12   0.385  -0.081  -0.065
    1UNL    C11   13   0.519  -0.110  -0.050
    1UNL    C12   14   0.589  -0.051   0.060
    1UNL    C13   15   0.531   0.041   0.145
    1UNL    C14   16   0.403   0.080   0.120
    1UNL    C15   17   0.325   0.019   0.018
    1UNL    C16   18   0.032  -0.132  -0.160
    1UNL     O1   19  -0.002  -0.246  -0.164
    1UNL    C17   20  -0.074  -0.027  -0.210
    1UNL    C18   21  -0.196   0.010  -0.113
    1UNL    C19   22  -0.163   0.109  -0.004
    1UNL    C20   23  -0.137   0.257  -0.045
    1UNL     O2   24  -0.068   0.279  -0.143
    1UNL     O3   25  -0.189   0.345   0.041
    1UNL    C21   26  -0.152   0.477   0.032
    1UNL     H1   27  -0.544  -0.261  -0.118
    1UNL     H2   28  -0.565  -0.240   0.047
    1UNL     H3   29  -0.429  -0.347  -0.022
    1UNL     H4   30  -0.413  -0.080   0.078
    1UNL     H5   31  -0.453  -0.052  -0.101
    1UNL     H6   32  -0.235  -0.194  -0.132
    1UNL     H7   33  -0.243  -0.124   0.167
    1UNL     H8   34  -0.174  -0.266   0.100
    1UNL     H9   35   0.023  -0.275   0.180
    1UNL    H10   36   0.004  -0.133   0.290
    1UNL    H11   37   0.139  -0.134   0.163
    1UNL    H12   38  -0.074   0.077   0.192
    1UNL    H13   39   0.148   0.131   0.158
    1UNL    H14   40   0.078   0.196   0.006
    1UNL    H15   41   0.288  -0.192  -0.225
    1UNL    H16   42   0.570  -0.188  -0.101
    1UNL    H17   43   0.697  -0.082   0.074
    1UNL    H18   44   0.586   0.104   0.209
    1UNL    H19   45   0.356   0.158   0.175
    1UNL    H20   46  -0.024   0.069  -0.222
    1UNL    H21   47  -0.105  -0.064  -0.308
    1UNL    H22   48  -0.272   0.054  -0.176
    1UNL    H23   49  -0.257   0.108   0.064
    1UNL    H24   50  -0.240   0.553   0.038
    1UNL    H25   51  -0.087   0.501   0.113
    1UNL    H26   52  -0.102   0.486  -0.067
   0.00000   0.00000   0.00000   0.00000   0.00000   0.00000   0.00000   0.00000   0.00000
Generated with MDTraj, t= 96.0
 52
    1UNL     C1    1  -0.471  -0.235  -0.011
    1UNL     C2    2  -0.400  -0.120  -0.074
    1UNL     C3    3  -0.245  -0.132  -0.059
    1UNL     C4    4  -0.188  -0.156   0.083
    1UNL     N1    5  -0.049  -0.100   0.101
    1UNL     C5    6   0.021  -0.167   0.219
    1UNL     C6    7  -0.053   0.052   0.113
    1UNL     C7    8   0.094   0.110   0.077
    1UNL     C8    9   0.186   0.019   0.004
    1UNL     C9   10   0.165  -0.069  -0.104
    1UNL     N2   11   0.281  -0.133  -0.140
    1UNL    C10   12   0.384  -0.086  -0.055
    1UNL    C11   13   0.522  -0.105  -0.071
    1UNL    C12   14   0.600  -0.055   0.032
    1UNL    C13   15   0.545   0.027   0.129
    1UNL    C14   16   0.412   0.056   0.135
    1UNL    C15   17   0.328   0.003   0.037
    1UNL    C16   18   0.028  -0.110  -0.166
    1UNL     O1   19  -0.003  -0.224  -0.178
    1UNL    C17   20  -0.068  -0.003  -0.214
    1UNL    C18   21  -0.188   0.008  -0.112
    1UNL    C19   22  -0.166   0.102   0.011
    1UNL    C20   23  -0.141   0.241  -0.029
    1UNL     O2   24  -0.085   0.263  -0.135
    1UNL     O3   25  -0.183   0.350   0.054
    1UNL    C21   26  -0.180   0.471  -0.017
    1UNL     H1   27  -0.429  -0.334  -0.045
    1UNL     H2   28  -0.572  -0.230  -0.040
    1UNL     H3   29  -0.459  -0.244   0.100
    1UNL     H4   30  -0.432  -0.029  -0.027
    1UNL     H5   31  -0.423  -0.124  -0.182
    1UNL     H6   32  -0.207  -0.209  -0.120
    1UNL     H7   33  -0.250  -0.118   0.168
    1UNL     H8   34  -0.181  -0.257   0.104
    1UNL     H9   35   0.037  -0.272   0.196
    1UNL    H10   36  -0.049  -0.162   0.303
    1UNL    H11   37   0.116  -0.112   0.239
    1UNL    H12   38  -0.077   0.075   0.216
    1UNL    H13   39   0.158   0.146   0.162
    1UNL    H14   40   0.095   0.193   0.010
    1UNL    H15   41   0.287  -0.219  -0.194
    1UNL    H16   42   0.567  -0.194  -0.133
    1UNL    H17   43   0.702  -0.070   0.033
    1UNL    H18   44   0.619   0.079   0.198
    1UNL    H19   45   0.367   0.125   0.209
    1UNL    H20   46  -0.013   0.093  -0.229
    1UNL    H21   47  -0.106  -0.034  -0.310
    1UNL    H22   48  -0.266   0.057  -0.170
    1UNL    H23   49  -0.266   0.107   0.070
    1UNL    H24   50  -0.164   0.562   0.054
    1UNL    H25   51  -0.104   0.468  -0.091
    1UNL    H26   52  -0.282   0.478  -0.062
   0.00000   0.00000   0.00000   0.00000   0.00000   0.00000   0.00000   0.00000   0.00000
Generated with MDTraj, t= 97.0
 52
    1UNL     C1    1  -0.438  -0.265  -0.008
    1UNL     C2    2  -0.383  -0.132  -0.067
    1UNL     C3    3  -0.230  -0.123  -0.065
    1UNL     C4    4  -0.194  -0.151   0.086
    1UNL     N1    5  -0.066  -0.091   0.126
    1UNL     C5    6   0.001  -0.158   0.234
    1UNL     C6    7  -0.057   0.058   0.109
    1UNL     C7    8   0.093   0.103   0.083
    1UNL     C8    9   0.181   0.011   0.005
    1UNL     C9   10   0.151  -0.083  -0.092
    1UNL     N2   11   0.268  -0.152  -0.127
    1UNL    C10   12   0.373  -0.108  -0.048
    1UNL    C11   13   0.513  -0.131  -0.059
    1UNL    C12   14   0.600  -0.056   0.018
    1UNL    C13   15   0.549   0.035   0.110
    1UNL    C14   16   0.418   0.067   0.119
    1UNL    C15   17   0.323   0.003   0.033
    1UNL    C16   18   0.034  -0.106  -0.177
    1UNL     O1   19   0.020  -0.217  -0.220
    1UNL    C17   20  -0.063   0.004  -0.216
    1UNL    C18   21  -0.181   0.019  -0.119
    1UNL    C19   22  -0.164   0.113   0.009
    1UNL    C20   23  -0.147   0.259  -0.028
    1UNL     O2   24  -0.066   0.270  -0.118
    1UNL     O3   25  -0.210   0.353   0.046
    1UNL    C21   26  -0.184   0.480  -0.008
    1UNL     H1   27  -0.396  -0.292   0.092
    1UNL     H2   28  -0.425  -0.351  -0.075
    1UNL     H3   29  -0.546  -0.263   0.005
    1UNL     H4   30  -0.416  -0.052  -0.006
    1UNL     H5   31  -0.416  -0.124  -0.172
    1UNL     H6   32  -0.183  -0.202  -0.118
    1UNL     H7   33  -0.271  -0.095   0.146
    1UNL     H8   34  -0.203  -0.246   0.126
    1UNL     H9   35  -0.009  -0.263   0.214
    1UNL    H10   36  -0.050  -0.140   0.330
    1UNL    H11   37   0.111  -0.132   0.233
    1UNL    H12   38  -0.085   0.099   0.206
    1UNL    H13   39   0.152   0.109   0.182
    1UNL    H14   40   0.113   0.194   0.039
    1UNL    H15   41   0.281  -0.216  -0.207
    1UNL    H16   42   0.550  -0.210  -0.113
    1UNL    H17   43   0.708  -0.087   0.028
    1UNL    H18   44   0.612   0.089   0.170
    1UNL    H19   45   0.386   0.142   0.184
    1UNL    H20   46   0.005   0.099  -0.220
    1UNL    H21   47  -0.100  -0.009  -0.314
    1UNL    H22   48  -0.266   0.065  -0.172
    1UNL    H23   49  -0.267   0.106   0.062
    1UNL    H24   50  -0.084   0.518   0.036
    1UNL    H25   51  -0.185   0.469  -0.112
    1UNL    H26   52  -0.260   0.553   0.025
   0.00000   0.00000   0.00000   0.00000   0.00000   0.00000   0.00000   0.00000   0.00000
Generated with MDTraj, t= 98.0
 52
    1UNL     C1    1  -0.431  -0.296  -0.066
    1UNL     C2    2  -0.380  -0.148  -0.064
    1UNL     C3    3  -0.229  -0.132  -0.054
    1UNL     C4    4  -0.175  -0.141   0.095
    1UNL     N1    5  -0.047  -0.076   0.128
    1UNL     C5    6   0.034  -0.121   0.246
    1UNL     C6    7  -0.048   0.069   0.107
    1UNL     C7    8   0.098   0.111   0.052
    1UNL     C8    9   0.180   0.007  -0.007
    1UNL     C9   10   0.150  -0.091  -0.107
    1UNL     N2   11   0.266  -0.172  -0.123
    1UNL    C10   12   0.372  -0.119  -0.051
    1UNL    C11   13   0.509  -0.152  -0.030
    1UNL    C12   14   0.588  -0.070   0.043
    1UNL    C13   15   0.535   0.044   0.106
    1UNL    C14   16   0.405   0.070   0.097
    1UNL    C15   17   0.323  -0.005   0.010
    1UNL    C16   18   0.026  -0.110  -0.181
    1UNL     O1   19  -0.017  -0.218  -0.221
    1UNL    C17   20  -0.063   0.007  -0.203
    1UNL    C18   21  -0.181   0.014  -0.102
    1UNL    C19   22  -0.161   0.118   0.013
    1UNL    C20   23  -0.143   0.266  -0.024
    1UNL     O2   24  -0.047   0.287  -0.095
    1UNL     O3   25  -0.232   0.356   0.037
    1UNL    C21   26  -0.192   0.493   0.016
    1UNL     H1   27  -0.488  -0.315   0.024
    1UNL     H2   28  -0.350  -0.379  -0.070
    1UNL     H3   29  -0.491  -0.318  -0.152
    1UNL     H4   30  -0.425  -0.100   0.015
    1UNL     H5   31  -0.408  -0.097  -0.157
    1UNL     H6   32  -0.180  -0.209  -0.106
    1UNL     H7   33  -0.248  -0.109   0.171
    1UNL     H8   34  -0.163  -0.242   0.117
    1UNL     H9   35   0.055  -0.227   0.249
    1UNL    H10   36  -0.021  -0.103   0.338
    1UNL    H11   37   0.136  -0.073   0.254
    1UNL    H12   38  -0.064   0.124   0.201
    1UNL    H13   39   0.153   0.166   0.136
    1UNL    H14   40   0.078   0.187  -0.019
    1UNL    H15   41   0.278  -0.260  -0.175
    1UNL    H16   42   0.550  -0.236  -0.076
    1UNL    H17   43   0.682  -0.100   0.075
    1UNL    H18   44   0.604   0.112   0.165
    1UNL    H19   45   0.358   0.162   0.134
    1UNL    H20   46  -0.014   0.112  -0.212
    1UNL    H21   47  -0.102  -0.010  -0.301
    1UNL    H22   48  -0.268   0.058  -0.154
    1UNL    H23   49  -0.265   0.128   0.062
    1UNL    H24   50  -0.088   0.493  -0.030
    1UNL    H25   51  -0.272   0.537  -0.033
    1UNL    H26   52  -0.173   0.540   0.112
   0.00000   0.00000   0.00000   0.00000   0.00000   0.00000   0.00000   0.00000   0.00000
Generated with MDTraj, t= 99.0
 52
    1UNL     C1    1  -0.400  -0.311  -0.070
    1UNL     C2    2  -0.372  -0.159  -0.063
    1UNL     C3    3  -0.227  -0.116  -0.044
    1UNL     C4    4  -0.167  -0.128   0.096
    1UNL     N1    5  -0.035  -0.072   0.116
    1UNL     C5    6   0.029  -0.131   0.234
    1UNL     C6    7  -0.032   0.082   0.098
    1UNL     C7    8   0.105   0.131   0.046
    1UNL     C8    9   0.193   0.027  -0.008
    1UNL     C9   10   0.152  -0.066  -0.099
    1UNL     N2   11   0.256  -0.161  -0.112
    1UNL    C10   12   0.365  -0.121  -0.042
    1UNL    C11   13   0.492  -0.174  -0.034
    1UNL    C12   14   0.585  -0.116   0.044
    1UNL    C13   15   0.556   0.003   0.112
    1UNL    C14   16   0.427   0.055   0.115
    1UNL    C15   17   0.329   0.001   0.023
    1UNL    C16   18   0.026  -0.087  -0.171
    1UNL     O1   19  -0.002  -0.202  -0.207
    1UNL    C17   20  -0.076   0.012  -0.208
    1UNL    C18   21  -0.191   0.028  -0.101
    1UNL    C19   22  -0.154   0.127   0.015
    1UNL    C20   23  -0.154   0.269  -0.032
    1UNL     O2   24  -0.098   0.285  -0.137
    1UNL     O3   25  -0.216   0.350   0.061
    1UNL    C21   26  -0.238   0.481   0.004
    1UNL     H1   27  -0.307  -0.357  -0.040
    1UNL     H2   28  -0.426  -0.348  -0.179
    1UNL     H3   29  -0.483  -0.345  -0.011
    1UNL     H4   30  -0.431  -0.107   0.001
    1UNL     H5   31  -0.399  -0.120  -0.162
    1UNL     H6   32  -0.174  -0.186  -0.103
    1UNL     H7   33  -0.246  -0.092   0.160
    1UNL     H8   34  -0.164  -0.230   0.120
    1UNL     H9   35   0.032  -0.241   0.238
    1UNL    H10   36  -0.029  -0.106   0.323
    1UNL    H11   37   0.133  -0.104   0.254
    1UNL    H12   38  -0.046   0.116   0.204
    1UNL    H13   39   0.154   0.184   0.133
    1UNL    H14   40   0.092   0.211  -0.038
    1UNL    H15   41   0.244  -0.242  -0.173
    1UNL    H16   42   0.516  -0.272  -0.096
    1UNL    H17   43   0.692  -0.151   0.051
    1UNL    H18   44   0.636   0.057   0.156
    1UNL    H19   45   0.406   0.153   0.155
    1UNL    H20   46  -0.020   0.108  -0.226
    1UNL    H21   47  -0.125  -0.004  -0.302
    1UNL    H22   48  -0.284   0.059  -0.154
    1UNL    H23   49  -0.245   0.120   0.083
    1UNL    H24   50  -0.203   0.479  -0.101
    1UNL    H25   51  -0.338   0.498   0.023
    1UNL    H26   52  -0.169   0.549   0.051
   0.00000   0.00000   0.00000   0.00000   0.00000   0.00000   0.00000   0.00000   0.00000
