[ moleculetype ]
; name        nrexcl
res           1

[ atoms ]
;    nr  type  resnr resid  atom  cgnr     charge       mass
      1 SN3r      1 res   C1        1      0.000     54.000
      2 TN3r      1 res   C2        2      0.000     36.000
      3 TC5       1 res   C3        3      0.000     36.000
      4 TN6a      1 res   C4        4      0.000     36.000
      5 N4a       1 res   C5        5      0.000     72.000
      6 TC5       1 res   C6        6      0.000     36.000
      7 TC5       1 res   C7        7      0.000     36.000
      8 TC5       1 res   C8        8      0.000     36.000
      9 TC5       1 res   C9        9      0.000     36.000
     10 SC3       1 res   C10      10      0.000     54.000

[ constraints ]
;  ai    aj   funct      b0(nm)
    4     9     1      0.21872
    4     5     1      0.26278
    6     8     1      0.29738
    3     4     1      0.26902
    7     8     1      0.28718
    9    10     1      0.20430
    6     7     1      0.25566
    3     9     1      0.25353

[ bonds ]
;  ai    aj   funct      b0(nm)          k(kJ/mol/nm^2)
    1     2     1      0.28773           2632.8
    1     3     1      0.26875           6097.9
    5     6     1      0.30002           8444.6

[ angles ]
;  ai    aj    ak  funct     th0(deg)        k(kJ/mol/rad^2)
    1     3     4     1    129.84970           100.27
    1     3     9     1     92.37588           104.85
    2     1     3     1     80.39511            56.33
    3     4     5     1     70.37799           649.26
    3     4     9     1     61.62084          4592.05
    3     9     4     1     69.00092          4134.92
    3     9    10     1    166.77145           336.95
    4     3     9     1     49.37828          6843.95
    4     5     6     1    114.20578            43.48
    4     9    10     1    117.90967          1063.53
    5     4     9     1    130.99660           568.04
    5     6     7     1    128.64482           681.47
    5     6     8     1     70.35537           395.73
    6     7     8     1     66.14210          5212.17
    6     8     7     1     51.83111         11112.36
    7     6     8     1     62.02676          5799.30

[ dihedrals ]
;  ai    aj    ak    al  funct   phi0(deg)        k(kJ/mol)   mult
    1     3     4     5     1     51.15155       21.492      1
    1     3     4     9     1   -133.14391       17.161      1
    1     3     9     4     1     33.24891       14.956      1
    1     3     9    10     1   -110.65249       28.321      1
    2     1     3     4     1     26.20217       18.977      1
    2     1     3     9     1     58.21149       23.951      1
    3     4     5     6     1     54.40127       30.406      1
    3     4     9    10     1     -9.78956       13.627      1
    3     9     4     5     1   -175.05662       18.980      1
    4     3     9    10     1     36.15858       27.567      1
    4     5     6     7     1     41.32150       21.032      1
    4     5     6     8     1     23.97133       28.387      1
    5     4     3     9     1      4.21775       16.404      1
    5     4     9    10     1     -3.91697       20.332      1
    5     6     7     8     1    159.19079       19.751      1
    5     6     8     7     1    -15.09496       15.687      1
    6     5     4     9     1     50.67700       25.982      1
