[ moleculetype ]
; name        nrexcl
res           1

[ atoms ]
;    nr  type  resnr resid  atom  cgnr     charge       mass
      1 N6a       1 res   C1        1      0.000     72.000
      2 P1        1 res   C2        2      0.000     72.000
      3 SC4       1 res   C3        3      0.000     54.000
      4 TP1       1 res   C4        4      0.000     36.000
      5 SN3r      1 res   C5        5      0.000     54.000
      6 P1        1 res   C6        6      0.000     72.000
      7 C4        1 res   C7        7      0.000     72.000
      8 SN4a      1 res   C8        8      0.000     54.000
      9 SN4a      1 res   C9        9      0.000     54.000
     10 TP1       1 res   C10      10      0.000     36.000
     11 TN6       1 res   C11      11      0.000     36.000
     12 TN6       1 res   C12      12      0.000     36.000
     13 TN6       1 res   C13      13      0.000     36.000

[ bonds ]
;  ai    aj   funct      b0(nm)          k(kJ/mol/nm^2)
    8     9     1      0.27470          17176.4
    9    10     1      0.24615          25054.2
    9    11     1      0.24538          46277.2
    9    13     1      0.27360          26740.5
   11    12     1      0.21281          32289.1
   12    13     1      0.24061          25550.4

[ angles ]
;  ai    aj    ak  funct     th0(deg)        k(kJ/mol/rad^2)
    8     9    10     1    121.06321           128.39
    8     9    11     1    147.23046           287.98
    8     9    13     1     77.40142           498.47
    9    11    12     1     86.90301          1302.75
    9    13    12     1     75.51358          1442.10
   10     9    11     1     88.51995           473.18
   10     9    13     1    141.51727           143.42
   11     9    13     1     71.53909          1710.62
   11    12    13     1     84.10512           706.76
