[ moleculetype ]
; name        nrexcl
res           1

[ atoms ]
;    nr  type  resnr resid  atom  cgnr     charge       mass
      1 TX2       1 res   C1        1      0.000     36.000
      2 TC5       1 res   C2        2      0.000     36.000
      3 SX2       1 res   C3        3      0.000     54.000
      4 TN6       1 res   C4        4      0.000     36.000

[ constraints ]
;  ai    aj   funct      b0(nm)
    1     2     1      0.28586
    2     3     1      0.30908
    1     4     1      0.26174
    3     4     1      0.28017

[ bonds ]
;  ai    aj   funct      b0(nm)          k(kJ/mol/nm^2)

[ angles ]
;  ai    aj    ak  funct     th0(deg)        k(kJ/mol/rad^2)
    1     2     3     1     84.04597          4439.54
    1     4     3     1     94.68755          1554.09
    2     1     4     1     94.82927          2376.90
    2     3     4     1     86.27589          5071.65

[ dihedrals ]
;  ai    aj    ak    al  funct   phi0(deg)        k(kJ/mol)   mult
    1     2     3     4     1   -179.09430        5.549      1
    1     4     3     2     1   -179.95824        6.305      1
    2     1     4     3     1    179.98811        6.344      1
    3     2     1     4     1   -179.99445        6.276      1
