[ moleculetype ]
; name        nrexcl
res           1

[ atoms ]
;    nr  type  resnr resid  atom  cgnr     charge       mass
      1 TX2       1 res   C1        1      0.000     36.000
      2 TC5       1 res   C2        2      0.000     36.000
      3 SX2       1 res   C3        3      0.000     54.000
      4 TN6       1 res   C4        4      0.000     36.000

[ constraints ]
;  ai    aj   funct      b0(nm)
    1     2     1      0.28516
    2     3     1      0.30808
    1     4     1      0.26236
    3     4     1      0.28097

[ bonds ]
;  ai    aj   funct      b0(nm)          k(kJ/mol/nm^2)

[ angles ]
;  ai    aj    ak  funct     th0(deg)        k(kJ/mol/rad^2)
    1     2     3     1     84.26967          6649.68
    1     4     3     1     94.20397          3682.60
    2     1     4     1     94.88643          2952.58
    2     3     4     1     86.39657          3251.43

[ dihedrals ]
;  ai    aj    ak    al  funct   phi0(deg)        k(kJ/mol)   mult
    1     2     3     4     1    179.99615        6.355      1
    1     4     3     2     1   -179.99511        7.804      1
    2     1     4     3     1   -179.98684        7.819      1
    3     2     1     4     1   -179.07719        7.085      1
