[ moleculetype ]
; name        nrexcl
res           1

[ atoms ]
;    nr  type  resnr resid  atom  cgnr     charge       mass
      1 TN6d      1 res   C1        1      0.000     36.000
      2 TX4e      1 res   C2        2      0.000     36.000
      3 X1        1 res   C3        3      0.000     72.000

[ constraints ]
;  ai    aj   funct      b0(nm)
    1     3     1      0.29614

[ bonds ]
;  ai    aj   funct      b0(nm)          k(kJ/mol/nm^2)
    1     2     1      0.22250          14005.3

[ angles ]
;  ai    aj    ak  funct     th0(deg)        k(kJ/mol/rad^2)
    2     1     3     1    117.55536            15.57

[ dihedrals ]
;  ai    aj    ak    al  funct   phi0(deg)        k(kJ/mol)   mult
