1TPCN04918
35
    1res  C1    1    0.181  -0.568  -0.218
    1res  C2    2    0.358  -0.333  -0.243
    1res  C3    3    0.126  -0.323  -0.071
    1res  C4    4    0.324  -0.266   0.060
    1res  C5    5    0.550  -0.155   0.254
    1res  C6    6    0.807  -0.031   0.283
    1res  C7    7    1.024   0.060   0.098
    1res  C8    8    1.241   0.027   0.025
    1res  C9    9    1.497   0.182   0.024
    1res  C10   10    1.645   0.301  -0.150
    1res  C11   11    1.548   0.473  -0.010
    1res  C12   12    1.429   0.194  -0.211
    1res  C13   13    1.164  -0.159  -0.076
    1res  C14   14    1.070  -0.244   0.172
    1res  C15   15    0.584   0.015   0.464
    1res  C16   16    0.349  -0.032   0.470
    1res  C17   17    0.291  -0.012   0.252
    1res  C18   18    0.132  -0.045  -0.158
    1res  C19   19   -0.073  -0.210  -0.319
    1res  C20   20   -0.256  -0.321  -0.044
    1res  C21   21   -0.202  -0.054  -0.081
    1res  C22   22   -0.509  -0.084  -0.222
    1res  C23   23   -0.606  -0.015   0.009
    1res  C24   24   -0.789   0.208   0.064
    1res  C25   25   -0.757   0.447   0.188
    1res  C26   26   -0.922   0.399   0.374
    1res  C27   27   -1.055   0.386   0.190
    1res  C28   28   -0.995   0.211   0.067
    1res  C29   29   -1.182   0.106   0.106
    1res  C30   30   -1.407   0.157   0.219
    1res  C31   31   -1.481  -0.001   0.041
    1res  C32   32   -1.326  -0.173  -0.032
    1res  C33   33   -1.101  -0.089  -0.043
    1res  C34   34   -0.615   0.221  -0.253
    1res  C35   35   -0.268   0.103  -0.312
  10.00000  10.00000  10.00000
