1TPCN04827
29
    1res  C1    1    0.159   0.165   0.461
    1res  C2    2    0.143  -0.115   0.382
    1res  C3    3    0.210   0.085   0.171
    1res  C4    4    0.344  -0.168   0.138
    1res  C5    5    0.604  -0.170  -0.072
    1res  C6    6    0.797   0.010  -0.180
    1res  C7    7    1.066   0.044  -0.351
    1res  C8    8    1.123  -0.224  -0.328
    1res  C9    9    1.355   0.068  -0.284
    1res  C10   10    1.244   0.183  -0.138
    1res  C11   11    1.051   0.132  -0.062
    1res  C12   12    0.839  -0.263  -0.035
    1res  C13   13    0.792  -0.155   0.203
    1res  C14   14    0.587  -0.011   0.168
    1res  C15   15    0.044  -0.185  -0.014
    1res  C16   16   -0.014   0.107  -0.110
    1res  C17   17   -0.143   0.239   0.159
    1res  C18   18   -0.270   0.015  -0.120
    1res  C19   19   -0.479   0.135   0.132
    1res  C20   20   -0.607   0.237  -0.063
    1res  C21   21   -0.768   0.043  -0.058
    1res  C22   22   -1.006   0.072  -0.214
    1res  C23   23   -1.014  -0.036  -0.431
    1res  C24   24   -1.274   0.014  -0.274
    1res  C25   25   -1.260  -0.002  -0.037
    1res  C26   26   -1.086  -0.136  -0.016
    1res  C27   27   -0.702  -0.013   0.207
    1res  C28   28   -0.695  -0.216  -0.013
    1res  C29   29   -0.320  -0.130   0.135
  10.00000  10.00000  10.00000
