1TPCN01574
13
    1res  C1    1    0.218  -0.234   0.011
    1res  C2    2    0.085  -0.243   0.364
    1res  C3    3   -0.125  -0.115   0.240
    1res  C4    4   -0.413   0.075   0.114
    1res  C5    5   -0.703   0.078  -0.028
    1res  C6    6   -0.916   0.038  -0.246
    1res  C7    7   -0.682  -0.107  -0.318
    1res  C8    8   -0.034   0.115   0.094
    1res  C9    9    0.124   0.023   0.340
    1res  C10   10    0.320   0.177   0.046
    1res  C11   11    0.590   0.209  -0.127
    1res  C12   12    0.814   0.132  -0.322
    1res  C13   13    0.653  -0.114  -0.233
  10.00000  10.00000  10.00000
