[ moleculetype ]
; name        nrexcl
res           1

[ atoms ]
;    nr  type resnr resid  atom  cgnr     charge       mass
      1 SC4       1 res   C1        1      0.000     54.000
      2 TP1       1 res   C2        2      0.000     36.000
      3 SC4       1 res   C3        3      0.000     54.000
      4 SC4       1 res   C4        4      0.000     54.000
      5 TC5       1 res   C5        5      0.000     36.000
      6 SC4       1 res   C6        6      0.000     54.000
      7 SC4       1 res   C7        7      0.000     54.000
      8 TC3       1 res   C8        8      0.000     36.000
      9 TN6       1 res   C9        9      0.000     36.000
     10 SN4a      1 res   C10      10      0.000     54.000
     11 SP2       1 res   C11      11      0.000     54.000
     12 TN6       1 res   C12      12      0.000     36.000
     13 TN6       1 res   C13      13      0.000     36.000
     14 TN6       1 res   C14      14      0.000     36.000
     15 SN4a      1 res   C15      15      0.000     54.000
     16 SP2       1 res   C16      16      0.000     54.000
     17 TN6       1 res   C17      17      0.000     36.000
     18 TN6       1 res   C18      18      0.000     36.000
     19 TN6       1 res   C19      19      0.000     36.000
     20 SC4       1 res   C20      20      0.000     54.000
     21 TC3       1 res   C21      21      0.000     36.000
     22 TC3       1 res   C22      22      0.000     36.000
     23 SN6a      1 res   C23      23      0.000     54.000

[ bonds ]
;  ai    aj   funct      b0(nm)        k
    1     2     1      0.28866    20000
    1     3     1      0.35264    20000
    1    23     1      0.32838    20000
    3     4     1      0.38155    20000
    3    22     1      0.30489    20000
    3    23     1      0.27168    20000
    4     5     1      0.30895    20000
    4     6     1      0.34594    20000
    4    22     1      0.26835    20000
    5     6     1      0.34483    20000
    6     7     1      0.35513    20000
    6    21     1      0.28143    20000
    7     8     1      0.25891    20000
    7    20     1      0.32712    20000
    7    21     1      0.28800    20000
    8     9     1      0.25220    20000
    9    10     1      0.26334    20000
    9    20     1      0.24169    20000
   10    11     1      0.33705    20000
   10    12     1      0.27114    20000
   10    14     1      0.27472    20000
   12    13     1      0.22003    20000
   13    14     1      0.21717    20000
   14    15     1      0.22570    20000
   15    16     1      0.33222    20000
   15    17     1      0.30177    20000
   15    19     1      0.26654    20000
   17    18     1      0.24915    20000
   18    19     1      0.21584    20000
