[ moleculetype ]
; name        nrexcl
res           1

[ atoms ]
;    nr  type  resnr resid  atom  cgnr     charge       mass
      1 TC3       1 res   C1        1      0.000     36.000
      2 TC5       1 res   C2        2      0.000     36.000
      3 TC5       1 res   C3        3      0.000     36.000
      4 TN6d      1 res   C4        4      0.000     36.000
      5 SC3       1 res   C5        5      0.000     54.000
      6 TC5       1 res   C6        6      0.000     36.000
      7 TN6a      1 res   C7        7      0.000     36.000
      8 TC5       1 res   C8        8      0.000     36.000
      9 TC5       1 res   C9        9      0.000     36.000
     10 TC5       1 res   C10      10      0.000     36.000
     11 SN6       1 res   C11      11      0.000     54.000

[ constraints ]
;  ai    aj   funct      b0(nm)
    1     2     1      0.29930
    2     3     1      0.26926
    4     5     1      0.30000
    2     6     1      0.23835
    7    10     1      0.26693
    3     4     1      0.25970
    7     8     1      0.27042
    5     6     1      0.24561
    9    10     1      0.30353
    6     7     1      0.21297
    7    11     1      0.26572
    6    10     1      0.22366
    2     4     1      0.25929
    8     9     1      0.28836

[ bonds ]
;  ai    aj   funct      b0(nm)          k(kJ/mol/nm^2)
    2    11     1      0.26246           9034.0

[ angles ]
;  ai    aj    ak  funct     th0(deg)        k(kJ/mol/rad^2)
    1     2     3     1     73.76654           623.47
    1     2     4     1     85.59850           288.56
    1     2     6     1     84.21019           262.73
    1     2    11     1     97.43784           265.66
    2     3     4     1     58.66518          1742.06
    2     4     3     1     62.52114          1750.11
    2     4     5     1     74.85024          1664.02
    2     6     5     1     89.71456          2193.77
    2     6     7     1     92.37204          1445.69
    2     6    10     1    166.09647          1088.25
    2    11     7     1     76.35899           654.75
    3     2     4     1     58.81350          3189.28
    3     2     6     1    151.47888           318.51
    3     2    11     1    108.02729           776.37
    3     4     5     1    133.94767           867.34
    4     2     6     1    102.91320          1344.42
    4     2    11     1    163.29561           620.92
    4     5     6     1     90.51287          1875.26
    5     6     7     1    170.08067           207.54
    5     6    10     1    102.94652          1487.65
    6     2    11     1     91.92646           844.51
    6     7     8     1    156.84486           811.51
    6     7    10     1     54.15287          8022.78
    6     7    11     1     97.08348           830.59
    6    10     7     1     50.51571         11217.54
    6    10     9     1    127.74199          1153.76
    7     6    10     1     75.33142          5357.05
    7     8     9     1     81.51839          6552.27
    7    10     9     1     79.29099          5870.45
    8     7    10     1    105.81637          3434.67
    8     7    11     1    103.97395           651.37
    8     9    10     1     92.76245          4226.29
   10     7    11     1    148.28981           331.57

[ dihedrals ]
;  ai    aj    ak    al  funct   phi0(deg)        k(kJ/mol)   mult
    1     2     3     4     1    -84.90206       11.519      1
    1     2     4     3     1    106.96410        9.999      1
    1     2     4     5     1    -86.98732       12.952      1
    1     2     6     5     1     85.10169       12.873      1
    1     2     6     7     1    -89.55212       18.422      1
    1     2     6    10     1    -90.16360       28.156      1
    1     2    11     7     1     96.81163       15.726      1
    2     3     4     5     1    160.91513       19.787      1
    2     4     5     6     1    170.84211       11.478      1
    2     6     5     4     1   -169.88945       12.196      1
    2     6     7     8     1      0.39165       30.170      1
    2     6     7    10     1      1.94689       12.243      1
    2     6     7    11     1   -177.09497       18.357      1
    2     6    10     7     1   -179.70849       30.430      1
    2     6    10     9     1   -174.93876       29.451      1
    2    11     7     6     1    176.12449       17.727      1
    2    11     7     8     1     -1.62839       24.102      1
    2    11     7    10     1    173.92152       30.821      1
    3     2     4     5     1    -14.06211       15.080      1
    3     2     6     5     1    127.50202       16.996      1
    3     2     6     7     1    -49.05561       17.115      1
    3     2     6    10     1    -52.25981       30.183      1
    3     2    11     7     1     21.07532       15.723      1
    3     4     2     6     1     23.32621       12.865      1
    3     4     2    11     1   -162.29468       30.390      1
    3     4     5     6     1   -172.83734       23.519      1
    4     2     6     5     1    168.88368       14.301      1
    4     2     6     7     1     -5.35540       19.603      1
    4     2     6    10     1     -6.70813       29.793      1
    4     2    11     7     1      6.71477       29.014      1
    4     3     2     6     1   -126.95207       16.298      1
    4     3     2    11     1      5.21141       14.374      1
    4     5     6     7     1    -24.25256       14.755      1
    4     5     6    10     1      8.44462       15.004      1
    5     4     2     6     1   -169.87688       12.204      1
    5     4     2    11     1      7.94020       26.796      1
    5     6     2    11     1     -9.08806       14.258      1
    5     6     7     8     1   -142.83386       23.389      1
    5     6     7    10     1   -147.39928       15.151      1
    5     6     7    11     1     33.17080       19.695      1
    5     6    10     7     1      2.63705       16.246      1
    5     6    10     9     1      6.76043       31.846      1
    6     2    11     7     1   -175.42810       15.690      1
    6     7     8     9     1    179.93265       28.672      1
    6     7    10     9     1      0.85508       22.338      1
    6    10     7     8     1     -0.92176       19.821      1
    6    10     7    11     1   -173.88232       29.861      1
    6    10     9     8     1   -178.84617       24.740      1
    7     6     2    11     1    174.35721       17.720      1
    7     6    10     9     1   -178.89007       25.267      1
    7     8     9    10     1    179.01491       10.064      1
    7    10     9     8     1   -179.02903       11.465      1
    8     7     6    10     1    178.30092       33.351      1
    8     7    10     9     1    179.00454       11.519      1
    9     8     7    10     1   -177.27474       11.496      1
    9     8     7    11     1     -3.38790       16.930      1
    9    10     7    11     1      5.36672       23.820      1
   10     6     2    11     1    174.89459       27.389      1
   10     6     7    11     1      4.75129       22.259      1
