[ moleculetype ]
; name        nrexcl
res           1

[ atoms ]
;    nr  type resnr resid  atom  cgnr     charge       mass
      1 SC4       1 res   C1        1      0.000     54.000
      2 SC3       1 res   C2        2      0.000     54.000
      3 TC3       1 res   C3        3      0.000     36.000
      4 SC4       1 res   C4        4      0.000     54.000
      5 SC4       1 res   C5        5      0.000     54.000
      6 TP1       1 res   C6        6      0.000     36.000
      7 SN6       1 res   C7        7      0.000     54.000
      8 TC3       1 res   C8        8      0.000     36.000
      9 TN6       1 res   C9        9      0.000     36.000
     10 TN4a      1 res   C10      10      0.000     36.000
     11 TP1       1 res   C11      11      0.000     36.000
     12 TN6       1 res   C12      12      0.000     36.000
     13 TN6       1 res   C13      13      0.000     36.000
     14 TN6       1 res   C14      14      0.000     36.000

[ bonds ]
;  ai    aj   funct      b0(nm)        k
    1     2     1      0.28840    20000
    2     3     1      0.31942    20000
    2     4     1      0.39620    20000
    2     8     1      0.20711    20000
    2     9     1      0.29208    20000
    3     4     1      0.30137    20000
    4     5     1      0.38470    20000
    4     7     1      0.33076    20000
    5     6     1      0.25677    20000
    5     7     1      0.36588    20000
    9    10     1      0.23416    20000
    9    14     1      0.23706    20000
   10    11     1      0.24149    20000
   10    12     1      0.24303    20000
   12    13     1      0.21822    20000
   13    14     1      0.23625    20000
