1TPCN04278
32
    1res  C1    1   -0.645   0.728  -0.075
    1res  C2    2   -0.428   0.457  -0.015
    1res  C3    3   -0.484   0.298   0.191
    1res  C4    4   -0.573  -0.001   0.023
    1res  C5    5   -0.696  -0.225  -0.089
    1res  C6    6   -0.958  -0.376  -0.036
    1res  C7    7   -1.229  -0.362  -0.121
    1res  C8    8   -1.152  -0.478   0.160
    1res  C9    9   -0.940  -0.467   0.259
    1res  C10   10   -0.790  -0.337   0.174
    1res  C11   11   -0.591   0.078  -0.231
    1res  C12   12   -0.826   0.136  -0.157
    1res  C13   13   -0.784   0.214   0.041
    1res  C14   14   -0.308   0.133   0.258
    1res  C15   15   -0.215  -0.047   0.112
    1res  C16   16    0.002   0.250   0.092
    1res  C17   17    0.062  -0.127   0.180
    1res  C18   18    0.261   0.116  -0.068
    1res  C19   19    0.455   0.090   0.142
    1res  C20   20    0.566  -0.004  -0.077
    1res  C21   21    0.758  -0.050  -0.287
    1res  C22   22    0.844  -0.277  -0.437
    1res  C23   23    1.035  -0.007  -0.385
    1res  C24   24    0.970   0.182  -0.245
    1res  C25   25    0.871   0.075  -0.085
    1res  C26   26    0.926  -0.064   0.179
    1res  C27   27    0.868  -0.343   0.219
    1res  C28   28    1.143  -0.227   0.075
    1res  C29   29    1.252  -0.038   0.125
    1res  C30   30    1.056   0.105   0.208
    1res  C31   31    0.453  -0.224  -0.064
    1res  C32   32    0.090  -0.164  -0.090
  10.00000  10.00000  10.00000
