1TPCN03230
15
    1res  C1    1    0.693   0.001  -0.082
    1res  C2    2    0.443  -0.056  -0.119
    1res  C3    3    0.201  -0.223   0.030
    1res  C4    4   -0.047  -0.057   0.128
    1res  C5    5   -0.047   0.087  -0.077
    1res  C6    6   -0.235  -0.035  -0.105
    1res  C7    7   -0.505  -0.100  -0.005
    1res  C8    8   -0.788  -0.088   0.055
    1res  C9    9   -0.576   0.154   0.132
    1res  C10   10   -0.509   0.212  -0.066
    1res  C11   11   -0.471   0.053  -0.246
    1res  C12   12   -0.124  -0.255  -0.062
    1res  C13   13    0.103   0.245   0.037
    1res  C14   14    0.418   0.205   0.018
    1res  C15   15    0.464  -0.030   0.186
  10.00000  10.00000  10.00000
