1TPCN02376
11
    1res  C1    1    0.126  -0.156  -0.161
    1res  C2    2   -0.009   0.112  -0.178
    1res  C3    3   -0.088   0.025   0.036
    1res  C4    4   -0.310   0.218   0.024
    1res  C5    5   -0.226  -0.073   0.222
    1res  C6    6   -0.159  -0.239  -0.076
    1res  C7    7   -0.375  -0.032  -0.078
    1res  C8    8    0.231  -0.096   0.098
    1res  C9    9    0.504  -0.038  -0.040
    1res  C10   10    0.429   0.211  -0.004
    1res  C11   11    0.585   0.104  -0.077
  10.00000  10.00000  10.00000
