[ moleculetype ]
; name        nrexcl
res           1

[ atoms ]
;    nr  type resnr resid  atom  cgnr     charge       mass
      1 N4a       1 res   C1        1      0.000     72.000
      2 SC5       1 res   C2        2      0.000     54.000
      3 TC3       1 res   C3        3      0.000     36.000
      4 SC4       1 res   C4        4      0.000     54.000
      5 SC4       1 res   C5        5      0.000     54.000
      6 TC3       1 res   C6        6      0.000     36.000
      7 SC4       1 res   C7        7      0.000     54.000
      8 SC4       1 res   C8        8      0.000     54.000
      9 TC3       1 res   C9        9      0.000     36.000
     10 TN6       1 res   C10      10      0.000     36.000
     11 SN4a      1 res   C11      11      0.000     54.000
     12 SP2       1 res   C12      12      0.000     54.000
     13 TN6       1 res   C13      13      0.000     36.000
     14 TN6       1 res   C14      14      0.000     36.000
     15 SN4a      1 res   C15      15      0.000     54.000
     16 TN6       1 res   C16      16      0.000     36.000
     17 TN6       1 res   C17      17      0.000     36.000
     18 TN6       1 res   C18      18      0.000     36.000
     19 TN6       1 res   C19      19      0.000     36.000
     20 SN4a      1 res   C20      20      0.000     54.000
     21 TP1       1 res   C21      21      0.000     36.000
     22 TN6       1 res   C22      22      0.000     36.000
     23 TN6       1 res   C23      23      0.000     36.000
     24 TN6       1 res   C24      24      0.000     36.000
     25 TC4       1 res   C25      25      0.000     36.000
     26 TN4a      1 res   C26      26      0.000     36.000
     27 TC3       1 res   C27      27      0.000     36.000
     28 TC3       1 res   C28      28      0.000     36.000

[ bonds ]
;  ai    aj   funct      b0(nm)        k
    1     2     1      0.48624    20000
    2     3     1      0.27170    20000
    2     4     1      0.28153    20000
    2     5     1      0.30601    20000
    2    28     1      0.33098    20000
    3     4     1      0.29457    20000
    5     6     1      0.34700    20000
    5     7     1      0.26661    20000
    5    28     1      0.27413    20000
    6     7     1      0.37734    20000
    7     8     1      0.25846    20000
    7    27     1      0.30434    20000
    8     9     1      0.28406    20000
    8    25     1      0.29432    20000
    8    27     1      0.36649    20000
    9    10     1      0.24545    20000
   10    11     1      0.25315    20000
   10    25     1      0.27797    20000
   11    12     1      0.33340    20000
   11    13     1      0.30632    20000
   11    19     1      0.23899    20000
   13    14     1      0.23092    20000
   14    15     1      0.28915    20000
   14    19     1      0.20461    20000
   15    16     1      0.25780    20000
   15    18     1      0.30561    20000
   16    17     1      0.24509    20000
   17    18     1      0.22162    20000
   19    20     1      0.27202    20000
   20    21     1      0.31750    20000
   20    22     1      0.30401    20000
   20    24     1      0.25239    20000
   22    23     1      0.24194    20000
   23    24     1      0.21262    20000
   25    26     1      0.27188    20000
