1TPCN05714
28
    1res  C1    1    0.959   0.447  -0.043
    1res  C2    2    0.977   0.108  -0.151
    1res  C3    3    0.864  -0.065   0.016
    1res  C4    4    0.659  -0.095  -0.058
    1res  C5    5    0.440  -0.080  -0.013
    1res  C6    6    0.305  -0.117  -0.251
    1res  C7    7    0.203  -0.306  -0.077
    1res  C8    8    0.119  -0.007   0.166
    1res  C9    9   -0.035  -0.125  -0.156
    1res  C10   10   -0.203   0.079   0.108
    1res  C11   11   -0.310   0.105  -0.151
    1res  C12   12   -0.509   0.033   0.006
    1res  C13   13   -0.735   0.189  -0.030
    1res  C14   14   -0.699   0.421  -0.282
    1res  C15   15   -0.823   0.119  -0.313
    1res  C16   16   -0.876  -0.041  -0.173
    1res  C17   17   -0.864   0.017   0.039
    1res  C18   18   -0.945   0.209   0.253
    1res  C19   19   -1.190   0.281   0.318
    1res  C20   20   -1.237   0.104   0.194
    1res  C21   21   -1.040  -0.063   0.305
    1res  C22   22   -0.489  -0.185   0.123
    1res  C23   23   -0.408  -0.263  -0.142
    1res  C24   24   -0.113  -0.283   0.092
    1res  C25   25    0.674  -0.346   0.113
    1res  C26   26    1.060  -0.158   0.029
    1res  C27   27    1.236   0.011   0.027
    1res  C28   28    1.142   0.212   0.021
  10.00000  10.00000  10.00000
