[ moleculetype ]
; name        nrexcl
res           1

[ atoms ]
;    nr  type  resnr resid  atom  cgnr     charge       mass
      1 SC2       1 res   C1        1      0.000     54.000
      2 TC5       1 res   C2        2      0.000     36.000
      3 TC5       1 res   C3        3      0.000     36.000
      4 TC6       1 res   C4        4      0.000     36.000

[ constraints ]
;  ai    aj   funct      b0(nm)
    3     4     1      0.24305
    2     3     1      0.28464
    2     4     1      0.20981

[ bonds ]
;  ai    aj   funct      b0(nm)          k(kJ/mol/nm^2)
    1     2     1      0.28659           6230.3

[ angles ]
;  ai    aj    ak  funct     th0(deg)        k(kJ/mol/rad^2)
    1     2     3     1     90.45664           112.67
    1     2     4     1    136.94902           137.05
    2     3     4     1     46.02299          8154.61
    2     4     3     1     77.50210          6197.47
    3     2     4     1     56.47489          8990.74

[ dihedrals ]
;  ai    aj    ak    al  funct   phi0(deg)        k(kJ/mol)   mult
    1     2     3     4     1    -27.92521       13.594      1
    1     2     4     3     1    136.26330       19.071      1
