Generated with MDTraj, t= 0.0
 46
    1UNL     C1    1   0.074  -0.233   0.118
    1UNL     C2    2   0.025  -0.115   0.148
    1UNL     C3    3   0.044   0.011   0.066
    1UNL     C4    4   0.079  -0.018  -0.080
    1UNL     C5    5   0.153   0.101   0.131
    1UNL     C6    6   0.285   0.032   0.168
    1UNL     C7    7   0.359  -0.027   0.053
    1UNL     C8    8   0.424   0.042  -0.041
    1UNL     C9    9   0.438   0.189  -0.040
    1UNL    C10   10   0.481  -0.032  -0.156
    1UNL     O1   11   0.554   0.025  -0.234
    1UNL     O2   12   0.448  -0.163  -0.169
    1UNL     O3   13  -0.078   0.089   0.070
    1UNL    C11   14  -0.192   0.022   0.020
    1UNL     O4   15  -0.189  -0.007  -0.121
    1UNL    C12   16  -0.291  -0.097  -0.162
    1UNL    C13   17  -0.430  -0.067  -0.097
    1UNL     O5   18  -0.455  -0.156   0.010
    1UNL    C14   19  -0.437   0.078  -0.044
    1UNL     O6   20  -0.562   0.099   0.018
    1UNL    C15   21  -0.322   0.101   0.059
    1UNL     O7   22  -0.363   0.061   0.188
    1UNL     H1   23   0.058  -0.319   0.181
    1UNL     H2   24   0.131  -0.250   0.029
    1UNL     H3   25  -0.031  -0.102   0.239
    1UNL     H4   26   0.003  -0.082  -0.125
    1UNL     H5   27   0.081   0.075  -0.137
    1UNL     H6   28   0.175  -0.067  -0.092
    1UNL     H7   29   0.109   0.144   0.221
    1UNL     H8   30   0.172   0.185   0.065
    1UNL     H9   31   0.352   0.102   0.219
    1UNL    H10   32   0.265  -0.047   0.242
    1UNL    H11   33   0.355  -0.134   0.040
    1UNL    H12   34   0.518   0.219  -0.107
    1UNL    H13   35   0.346   0.237  -0.074
    1UNL    H14   36   0.462   0.226   0.060
    1UNL    H15   37   0.494  -0.195  -0.249
    1UNL    H16   38  -0.198  -0.075   0.071
    1UNL    H17   39  -0.296  -0.093  -0.271
    1UNL    H18   40  -0.259  -0.198  -0.134
    1UNL    H19   41  -0.510  -0.083  -0.170
    1UNL    H20   42  -0.521  -0.114   0.069
    1UNL    H21   43  -0.426   0.148  -0.129
    1UNL    H22   44  -0.574   0.194   0.039
    1UNL    H23   45  -0.295   0.207   0.064
    1UNL    H24   46  -0.457   0.087   0.202
   0.00000   0.00000   0.00000   0.00000   0.00000   0.00000   0.00000   0.00000   0.00000
Generated with MDTraj, t= 1.0
 46
    1UNL     C1    1   0.064  -0.242   0.149
    1UNL     C2    2   0.012  -0.120   0.159
    1UNL     C3    3   0.050  -0.001   0.066
    1UNL     C4    4   0.096  -0.051  -0.069
    1UNL     C5    5   0.150   0.094   0.137
    1UNL     C6    6   0.279   0.039   0.174
    1UNL     C7    7   0.355  -0.026   0.058
    1UNL     C8    8   0.414   0.047  -0.036
    1UNL     C9    9   0.428   0.198  -0.039
    1UNL    C10   10   0.456  -0.027  -0.154
    1UNL     O1   11   0.521   0.035  -0.237
    1UNL     O2   12   0.432  -0.161  -0.166
    1UNL     O3   13  -0.071   0.081   0.055
    1UNL    C11   14  -0.186   0.018   0.008
    1UNL     O4   15  -0.190  -0.001  -0.138
    1UNL    C12   16  -0.291  -0.084  -0.186
    1UNL    C13   17  -0.424  -0.061  -0.098
    1UNL     O5   18  -0.431  -0.147   0.013
    1UNL    C14   19  -0.438   0.076  -0.045
    1UNL     O6   20  -0.554   0.092   0.033
    1UNL    C15   21  -0.304   0.107   0.046
    1UNL     O7   22  -0.344   0.084   0.178
    1UNL     H1   23   0.032  -0.313   0.224
    1UNL     H2   24   0.116  -0.280   0.062
    1UNL     H3   25  -0.073  -0.090   0.221
    1UNL     H4   26   0.019  -0.072  -0.142
    1UNL     H5   27   0.146   0.036  -0.126
    1UNL     H6   28   0.150  -0.139  -0.064
    1UNL     H7   29   0.089   0.124   0.230
    1UNL     H8   30   0.146   0.190   0.085
    1UNL     H9   31   0.355   0.114   0.221
    1UNL    H10   32   0.260  -0.037   0.248
    1UNL    H11   33   0.336  -0.133   0.037
    1UNL    H12   34   0.440   0.253  -0.134
    1UNL    H13   35   0.346   0.246   0.020
    1UNL    H14   36   0.525   0.203   0.010
    1UNL    H15   37   0.461  -0.179  -0.255
    1UNL    H16   38  -0.201  -0.082   0.047
    1UNL    H17   39  -0.312  -0.057  -0.286
    1UNL    H18   40  -0.259  -0.186  -0.187
    1UNL    H19   41  -0.507  -0.085  -0.161
    1UNL    H20   42  -0.346  -0.187   0.043
    1UNL    H21   43  -0.442   0.150  -0.129
    1UNL    H22   44  -0.536   0.037   0.109
    1UNL    H23   45  -0.277   0.212   0.022
    1UNL    H24   46  -0.284   0.008   0.207
   0.00000   0.00000   0.00000   0.00000   0.00000   0.00000   0.00000   0.00000   0.00000
Generated with MDTraj, t= 2.0
 46
    1UNL     C1    1   0.062  -0.223   0.175
    1UNL     C2    2   0.002  -0.104   0.176
    1UNL     C3    3   0.040  -0.000   0.077
    1UNL     C4    4   0.081  -0.048  -0.062
    1UNL     C5    5   0.157   0.081   0.141
    1UNL     C6    6   0.290   0.013   0.179
    1UNL     C7    7   0.368  -0.036   0.058
    1UNL     C8    8   0.421   0.044  -0.033
    1UNL     C9    9   0.431   0.189  -0.036
    1UNL    C10   10   0.457  -0.021  -0.163
    1UNL     O1   11   0.508   0.043  -0.256
    1UNL     O2   12   0.431  -0.156  -0.169
    1UNL     O3   13  -0.073   0.090   0.059
    1UNL    C11   14  -0.183   0.029   0.001
    1UNL     O4   15  -0.183   0.012  -0.144
    1UNL    C12   16  -0.286  -0.076  -0.193
    1UNL    C13   17  -0.422  -0.076  -0.100
    1UNL     O5   18  -0.407  -0.175   0.003
    1UNL    C14   19  -0.439   0.068  -0.046
    1UNL     O6   20  -0.563   0.096   0.023
    1UNL    C15   21  -0.309   0.103   0.045
    1UNL     O7   22  -0.339   0.094   0.182
    1UNL     H1   23   0.025  -0.313   0.216
    1UNL     H2   24   0.116  -0.246   0.085
    1UNL     H3   25  -0.093  -0.090   0.223
    1UNL     H4   26   0.034  -0.132  -0.107
    1UNL     H5   27   0.045   0.026  -0.146
    1UNL     H6   28   0.179  -0.085  -0.068
    1UNL     H7   29   0.115   0.132   0.239
    1UNL     H8   30   0.179   0.166   0.076
    1UNL     H9   31   0.351   0.091   0.247
    1UNL    H10   32   0.270  -0.072   0.239
    1UNL    H11   33   0.343  -0.132   0.021
    1UNL    H12   34   0.442   0.243  -0.131
    1UNL    H13   35   0.353   0.241   0.026
    1UNL    H14   36   0.532   0.192   0.003
    1UNL    H15   37   0.417  -0.183  -0.259
    1UNL    H16   38  -0.202  -0.072   0.041
    1UNL    H17   39  -0.311  -0.041  -0.288
    1UNL    H18   40  -0.258  -0.177  -0.198
    1UNL    H19   41  -0.508  -0.090  -0.157
    1UNL    H20   42  -0.446  -0.147   0.090
    1UNL    H21   43  -0.443   0.149  -0.127
    1UNL    H22   44  -0.614   0.006   0.020
    1UNL    H23   45  -0.291   0.214   0.036
    1UNL    H24   46  -0.337   0.004   0.222
   0.00000   0.00000   0.00000   0.00000   0.00000   0.00000   0.00000   0.00000   0.00000
Generated with MDTraj, t= 3.0
 46
    1UNL     C1    1   0.067  -0.224   0.191
    1UNL     C2    2   0.015  -0.107   0.185
    1UNL     C3    3   0.038   0.008   0.082
    1UNL     C4    4   0.071  -0.052  -0.050
    1UNL     C5    5   0.149   0.096   0.135
    1UNL     C6    6   0.286   0.019   0.160
    1UNL     C7    7   0.348  -0.037   0.036
    1UNL     C8    8   0.418   0.032  -0.048
    1UNL     C9    9   0.448   0.169  -0.032
    1UNL    C10   10   0.463  -0.027  -0.174
    1UNL     O1   11   0.519   0.050  -0.255
    1UNL     O2   12   0.445  -0.161  -0.186
    1UNL     O3   13  -0.085   0.097   0.076
    1UNL    C11   14  -0.191   0.038   0.017
    1UNL     O4   15  -0.174   0.022  -0.129
    1UNL    C12   16  -0.263  -0.073  -0.180
    1UNL    C13   17  -0.406  -0.074  -0.109
    1UNL     O5   18  -0.412  -0.159   0.003
    1UNL    C14   19  -0.439   0.069  -0.058
    1UNL     O6   20  -0.557   0.069   0.019
    1UNL    C15   21  -0.326   0.104   0.052
    1UNL     O7   22  -0.374   0.072   0.179
    1UNL     H1   23   0.038  -0.294   0.268
    1UNL     H2   24   0.121  -0.257   0.101
    1UNL     H3   25  -0.077  -0.101   0.243
    1UNL     H4   26  -0.012  -0.094  -0.097
    1UNL     H5   27   0.098   0.027  -0.129
    1UNL     H6   28   0.139  -0.142  -0.037
    1UNL     H7   29   0.108   0.153   0.230
    1UNL     H8   30   0.175   0.178   0.066
    1UNL     H9   31   0.366   0.090   0.209
    1UNL    H10   32   0.260  -0.051   0.237
    1UNL    H11   33   0.327  -0.142   0.002
    1UNL    H12   34   0.446   0.229  -0.125
    1UNL    H13   35   0.400   0.221   0.054
    1UNL    H14   36   0.556   0.163  -0.017
    1UNL    H15   37   0.480  -0.178  -0.277
    1UNL    H16   38  -0.193  -0.063   0.062
    1UNL    H17   39  -0.272  -0.062  -0.283
    1UNL    H18   40  -0.229  -0.169  -0.155
    1UNL    H19   41  -0.475  -0.098  -0.185
    1UNL    H20   42  -0.419  -0.099   0.081
    1UNL    H21   43  -0.449   0.145  -0.144
    1UNL    H22   44  -0.627   0.124  -0.028
    1UNL    H23   45  -0.291   0.211   0.049
    1UNL    H24   46  -0.450   0.121   0.213
   0.00000   0.00000   0.00000   0.00000   0.00000   0.00000   0.00000   0.00000   0.00000
Generated with MDTraj, t= 4.0
 46
    1UNL     C1    1   0.062  -0.221   0.198
    1UNL     C2    2   0.003  -0.103   0.191
    1UNL     C3    3   0.042   0.001   0.089
    1UNL     C4    4   0.069  -0.054  -0.047
    1UNL     C5    5   0.162   0.099   0.131
    1UNL     C6    6   0.295   0.031   0.154
    1UNL     C7    7   0.357  -0.028   0.030
    1UNL     C8    8   0.433   0.040  -0.053
    1UNL     C9    9   0.460   0.186  -0.049
    1UNL    C10   10   0.482  -0.032  -0.173
    1UNL     O1   11   0.540   0.034  -0.259
    1UNL     O2   12   0.454  -0.158  -0.186
    1UNL     O3   13  -0.076   0.089   0.082
    1UNL    C11   14  -0.196   0.029   0.030
    1UNL     O4   15  -0.186   0.019  -0.118
    1UNL    C12   16  -0.276  -0.074  -0.180
    1UNL    C13   17  -0.421  -0.065  -0.114
    1UNL     O5   18  -0.426  -0.162  -0.012
    1UNL    C14   19  -0.440   0.075  -0.051
    1UNL     O6   20  -0.566   0.098   0.000
    1UNL    C15   21  -0.333   0.094   0.068
    1UNL     O7   22  -0.392   0.046   0.181
    1UNL     H1   23   0.030  -0.305   0.256
    1UNL     H2   24   0.102  -0.252   0.104
    1UNL     H3   25  -0.087  -0.090   0.251
    1UNL     H4   26  -0.025  -0.098  -0.091
    1UNL     H5   27   0.095   0.039  -0.101
    1UNL     H6   28   0.155  -0.129  -0.037
    1UNL     H7   29   0.134   0.157   0.227
    1UNL     H8   30   0.164   0.188   0.062
    1UNL     H9   31   0.362   0.102   0.209
    1UNL    H10   32   0.280  -0.054   0.222
    1UNL    H11   33   0.363  -0.130   0.013
    1UNL    H12   34   0.482   0.227  -0.151
    1UNL    H13   35   0.391   0.244   0.016
    1UNL    H14   36   0.559   0.204  -0.004
    1UNL    H15   37   0.496  -0.180  -0.277
    1UNL    H16   38  -0.204  -0.075   0.067
    1UNL    H17   39  -0.297  -0.056  -0.282
    1UNL    H18   40  -0.239  -0.172  -0.168
    1UNL    H19   41  -0.490  -0.098  -0.187
    1UNL    H20   42  -0.484  -0.146   0.066
    1UNL    H21   43  -0.438   0.165  -0.127
    1UNL    H22   44  -0.619   0.027   0.033
    1UNL    H23   45  -0.324   0.205   0.068
    1UNL    H24   46  -0.438   0.118   0.234
   0.00000   0.00000   0.00000   0.00000   0.00000   0.00000   0.00000   0.00000   0.00000
Generated with MDTraj, t= 5.0
 46
    1UNL     C1    1   0.075  -0.223   0.187
    1UNL     C2    2   0.040  -0.096   0.200
    1UNL     C3    3   0.043   0.007   0.086
    1UNL     C4    4   0.057  -0.065  -0.055
    1UNL     C5    5   0.159   0.104   0.115
    1UNL     C6    6   0.288   0.041   0.147
    1UNL     C7    7   0.359  -0.019   0.035
    1UNL     C8    8   0.428   0.051  -0.052
    1UNL     C9    9   0.440   0.201  -0.055
    1UNL    C10   10   0.488  -0.031  -0.159
    1UNL     O1   11   0.559   0.024  -0.240
    1UNL     O2   12   0.455  -0.158  -0.173
    1UNL     O3   13  -0.081   0.077   0.078
    1UNL    C11   14  -0.187   0.009   0.014
    1UNL     O4   15  -0.189  -0.002  -0.129
    1UNL    C12   16  -0.296  -0.085  -0.177
    1UNL    C13   17  -0.435  -0.049  -0.116
    1UNL     O5   18  -0.476  -0.152  -0.030
    1UNL    C14   19  -0.437   0.087  -0.035
    1UNL     O6   20  -0.556   0.117   0.025
    1UNL    C15   21  -0.316   0.083   0.067
    1UNL     O7   22  -0.359   0.028   0.184
    1UNL     H1   23   0.032  -0.299   0.253
    1UNL     H2   24   0.099  -0.249   0.083
    1UNL     H3   25  -0.035  -0.076   0.276
    1UNL     H4   26  -0.005  -0.166  -0.048
    1UNL     H5   27   0.002   0.002  -0.122
    1UNL     H6   28   0.163  -0.073  -0.086
    1UNL     H7   29   0.121   0.173   0.193
    1UNL     H8   30   0.174   0.181   0.033
    1UNL     H9   31   0.358   0.108   0.191
    1UNL    H10   32   0.266  -0.037   0.225
    1UNL    H11   33   0.364  -0.131   0.025
    1UNL    H12   34   0.532   0.221  -0.117
    1UNL    H13   35   0.347   0.252  -0.083
    1UNL    H14   36   0.461   0.252   0.042
    1UNL    H15   37   0.525  -0.196  -0.234
    1UNL    H16   38  -0.203  -0.086   0.071
    1UNL    H17   39  -0.304  -0.069  -0.283
    1UNL    H18   40  -0.283  -0.192  -0.160
    1UNL    H19   41  -0.506  -0.037  -0.197
    1UNL    H20   42  -0.537  -0.117   0.039
    1UNL    H21   43  -0.424   0.176  -0.111
    1UNL    H22   44  -0.626   0.064  -0.022
    1UNL    H23   45  -0.278   0.183   0.093
    1UNL    H24   46  -0.456   0.031   0.202
   0.00000   0.00000   0.00000   0.00000   0.00000   0.00000   0.00000   0.00000   0.00000
Generated with MDTraj, t= 6.0
 46
    1UNL     C1    1   0.105  -0.218   0.192
    1UNL     C2    2   0.033  -0.107   0.164
    1UNL     C3    3   0.051   0.004   0.065
    1UNL     C4    4   0.090  -0.054  -0.072
    1UNL     C5    5   0.160   0.109   0.122
    1UNL     C6    6   0.302   0.056   0.166
    1UNL     C7    7   0.372  -0.008   0.052
    1UNL     C8    8   0.435   0.048  -0.051
    1UNL     C9    9   0.426   0.198  -0.073
    1UNL    C10   10   0.501  -0.027  -0.157
    1UNL     O1   11   0.584   0.025  -0.229
    1UNL     O2   12   0.464  -0.166  -0.165
    1UNL     O3   13  -0.076   0.083   0.060
    1UNL    C11   14  -0.193   0.013   0.014
    1UNL     O4   15  -0.209  -0.018  -0.126
    1UNL    C12   16  -0.319  -0.106  -0.151
    1UNL    C13   17  -0.447  -0.040  -0.120
    1UNL     O5   18  -0.541  -0.125  -0.049
    1UNL    C14   19  -0.440   0.092  -0.032
    1UNL     O6   20  -0.562   0.116   0.027
    1UNL    C15   21  -0.319   0.073   0.077
    1UNL     O7   22  -0.358   0.002   0.194
    1UNL     H1   23   0.066  -0.297   0.249
    1UNL     H2   24   0.179  -0.243   0.121
    1UNL     H3   25  -0.070  -0.107   0.196
    1UNL     H4   26  -0.002  -0.088  -0.126
    1UNL     H5   27   0.152   0.012  -0.137
    1UNL     H6   28   0.153  -0.143  -0.046
    1UNL     H7   29   0.121   0.184   0.190
    1UNL     H8   30   0.193   0.179   0.036
    1UNL     H9   31   0.357   0.131   0.204
    1UNL    H10   32   0.282  -0.017   0.251
    1UNL    H11   33   0.373  -0.111   0.056
    1UNL    H12   34   0.530   0.231  -0.098
    1UNL    H13   35   0.357   0.212  -0.157
    1UNL    H14   36   0.383   0.265   0.007
    1UNL    H15   37   0.523  -0.209  -0.227
    1UNL    H16   38  -0.186  -0.086   0.063
    1UNL    H17   39  -0.315  -0.151  -0.252
    1UNL    H18   40  -0.320  -0.190  -0.076
    1UNL    H19   41  -0.497  -0.006  -0.214
    1UNL    H20   42  -0.529  -0.116   0.047
    1UNL    H21   43  -0.421   0.185  -0.100
    1UNL    H22   44  -0.549   0.185   0.104
    1UNL    H23   45  -0.288   0.176   0.097
    1UNL    H24   46  -0.454   0.024   0.204
   0.00000   0.00000   0.00000   0.00000   0.00000   0.00000   0.00000   0.00000   0.00000
Generated with MDTraj, t= 7.0
 46
    1UNL     C1    1   0.111  -0.213   0.166
    1UNL     C2    2   0.036  -0.102   0.167
    1UNL     C3    3   0.054   0.012   0.051
    1UNL     C4    4   0.077  -0.043  -0.087
    1UNL     C5    5   0.152   0.119   0.092
    1UNL     C6    6   0.286   0.068   0.155
    1UNL     C7    7   0.372  -0.012   0.058
    1UNL     C8    8   0.424   0.049  -0.050
    1UNL     C9    9   0.420   0.197  -0.077
    1UNL    C10   10   0.509  -0.027  -0.147
    1UNL     O1   11   0.592   0.027  -0.218
    1UNL     O2   12   0.481  -0.165  -0.144
    1UNL     O3   13  -0.080   0.075   0.048
    1UNL    C11   14  -0.188  -0.014   0.029
    1UNL     O4   15  -0.208  -0.042  -0.110
    1UNL    C12   16  -0.332  -0.108  -0.139
    1UNL    C13   17  -0.452  -0.019  -0.118
    1UNL     O5   18  -0.554  -0.093  -0.045
    1UNL    C14   19  -0.413   0.102  -0.020
    1UNL     O6   20  -0.533   0.153   0.022
    1UNL    C15   21  -0.314   0.045   0.096
    1UNL     O7   22  -0.388  -0.051   0.180
    1UNL     H1   23   0.093  -0.305   0.225
    1UNL     H2   24   0.176  -0.218   0.079
    1UNL     H3   25  -0.039  -0.078   0.241
    1UNL     H4   26   0.016  -0.121  -0.116
    1UNL     H5   27   0.061   0.035  -0.170
    1UNL     H6   28   0.183  -0.068  -0.113
    1UNL     H7   29   0.103   0.187   0.159
    1UNL     H8   30   0.179   0.188   0.005
    1UNL     H9   31   0.336   0.151   0.188
    1UNL    H10   32   0.265   0.005   0.247
    1UNL    H11   33   0.387  -0.122   0.074
    1UNL    H12   34   0.493   0.231  -0.154
    1UNL    H13   35   0.318   0.226  -0.106
    1UNL    H14   36   0.437   0.265   0.011
    1UNL    H15   37   0.512  -0.209  -0.223
    1UNL    H16   38  -0.170  -0.111   0.080
    1UNL    H17   39  -0.331  -0.145  -0.245
    1UNL    H18   40  -0.331  -0.201  -0.073
    1UNL    H19   41  -0.492   0.027  -0.216
    1UNL    H20   42  -0.511  -0.132   0.034
    1UNL    H21   43  -0.361   0.178  -0.090
    1UNL    H22   44  -0.589   0.076   0.050
    1UNL    H23   45  -0.278   0.127   0.158
    1UNL    H24   46  -0.408  -0.005   0.266
   0.00000   0.00000   0.00000   0.00000   0.00000   0.00000   0.00000   0.00000   0.00000
Generated with MDTraj, t= 8.0
 46
    1UNL     C1    1   0.080  -0.244   0.134
    1UNL     C2    2   0.078  -0.114   0.161
    1UNL     C3    3   0.047  -0.005   0.059
    1UNL     C4    4   0.062  -0.046  -0.085
    1UNL     C5    5   0.139   0.128   0.084
    1UNL     C6    6   0.286   0.107   0.123
    1UNL     C7    7   0.370   0.013   0.042
    1UNL     C8    8   0.432   0.072  -0.061
    1UNL     C9    9   0.453   0.221  -0.094
    1UNL    C10   10   0.513  -0.028  -0.138
    1UNL     O1   11   0.595   0.008  -0.217
    1UNL     O2   12   0.494  -0.161  -0.108
    1UNL     O3   13  -0.088   0.046   0.093
    1UNL    C11   14  -0.196  -0.038   0.045
    1UNL     O4   15  -0.208  -0.054  -0.106
    1UNL    C12   16  -0.334  -0.118  -0.142
    1UNL    C13   17  -0.450  -0.017  -0.109
    1UNL     O5   18  -0.568  -0.080  -0.058
    1UNL    C14   19  -0.404   0.104  -0.017
    1UNL     O6   20  -0.507   0.178   0.027
    1UNL    C15   21  -0.327   0.037   0.100
    1UNL     O7   22  -0.415  -0.053   0.163
    1UNL     H1   23   0.118  -0.318   0.199
    1UNL     H2   24   0.079  -0.264   0.029
    1UNL     H3   25   0.096  -0.072   0.259
    1UNL     H4   26   0.017  -0.137  -0.115
    1UNL     H5   27   0.007   0.027  -0.154
    1UNL     H6   28   0.159  -0.038  -0.134
    1UNL     H7   29   0.091   0.194   0.157
    1UNL     H8   30   0.132   0.192  -0.005
    1UNL     H9   31   0.349   0.194   0.131
    1UNL    H10   32   0.282   0.067   0.226
    1UNL    H11   33   0.358  -0.092   0.041
    1UNL    H12   34   0.550   0.243  -0.145
    1UNL    H13   35   0.368   0.246  -0.159
    1UNL    H14   36   0.443   0.296  -0.010
    1UNL    H15   37   0.555  -0.207  -0.168
    1UNL    H16   38  -0.192  -0.138   0.094
    1UNL    H17   39  -0.324  -0.147  -0.251
    1UNL    H18   40  -0.344  -0.218  -0.084
    1UNL    H19   41  -0.494   0.043  -0.198
    1UNL    H20   42  -0.562  -0.105   0.037
    1UNL    H21   43  -0.327   0.163  -0.077
    1UNL    H22   44  -0.571   0.128   0.076
    1UNL    H23   45  -0.306   0.112   0.178
    1UNL    H24   46  -0.374  -0.098   0.239
   0.00000   0.00000   0.00000   0.00000   0.00000   0.00000   0.00000   0.00000   0.00000
Generated with MDTraj, t= 9.0
 46
    1UNL     C1    1   0.048  -0.242   0.116
    1UNL     C2    2   0.092  -0.121   0.147
    1UNL     C3    3   0.042   0.004   0.063
    1UNL     C4    4   0.055  -0.026  -0.084
    1UNL     C5    5   0.130   0.136   0.101
    1UNL     C6    6   0.283   0.135   0.103
    1UNL     C7    7   0.357   0.043   0.019
    1UNL     C8    8   0.446   0.072  -0.073
    1UNL     C9    9   0.484   0.216  -0.094
    1UNL    C10   10   0.518  -0.036  -0.144
    1UNL     O1   11   0.596   0.001  -0.230
    1UNL     O2   12   0.509  -0.163  -0.086
    1UNL     O3   13  -0.091   0.036   0.105
    1UNL    C11   14  -0.206  -0.051   0.067
    1UNL     O4   15  -0.199  -0.083  -0.074
    1UNL    C12   16  -0.328  -0.123  -0.122
    1UNL    C13   17  -0.440  -0.009  -0.123
    1UNL     O5   18  -0.570  -0.056  -0.086
    1UNL    C14   19  -0.400   0.098  -0.014
    1UNL     O6   20  -0.502   0.177   0.043
    1UNL    C15   21  -0.337   0.018   0.101
    1UNL     O7   22  -0.434  -0.067   0.163
    1UNL     H1   23   0.063  -0.333   0.173
    1UNL     H2   24   0.008  -0.252   0.014
    1UNL     H3   25   0.160  -0.109   0.229
    1UNL     H4   26  -0.014  -0.114  -0.100
    1UNL     H5   27   0.022   0.048  -0.156
    1UNL     H6   28   0.156  -0.046  -0.114
    1UNL     H7   29   0.090   0.175   0.194
    1UNL     H8   30   0.103   0.213   0.031
    1UNL     H9   31   0.311   0.246   0.079
    1UNL    H10   32   0.330   0.126   0.202
    1UNL    H11   33   0.323  -0.062   0.016
    1UNL    H12   34   0.557   0.223  -0.177
    1UNL    H13   35   0.385   0.253  -0.134
    1UNL    H14   36   0.519   0.272  -0.005
    1UNL    H15   37   0.578  -0.215  -0.136
    1UNL    H16   38  -0.187  -0.148   0.114
    1UNL    H17   39  -0.301  -0.162  -0.225
    1UNL    H18   40  -0.359  -0.220  -0.067
    1UNL    H19   41  -0.451   0.050  -0.224
    1UNL    H20   42  -0.573  -0.057   0.012
    1UNL    H21   43  -0.318   0.162  -0.050
    1UNL    H22   44  -0.591   0.168   0.006
    1UNL    H23   45  -0.321   0.098   0.177
    1UNL    H24   46  -0.398  -0.143   0.211
   0.00000   0.00000   0.00000   0.00000   0.00000   0.00000   0.00000   0.00000   0.00000
Generated with MDTraj, t= 10.0
 46
    1UNL     C1    1   0.047  -0.218   0.108
    1UNL     C2    2   0.084  -0.096   0.134
    1UNL     C3    3   0.039   0.024   0.063
    1UNL     C4    4   0.041  -0.000  -0.096
    1UNL     C5    5   0.130   0.145   0.094
    1UNL     C6    6   0.282   0.115   0.119
    1UNL     C7    7   0.342   0.032   0.015
    1UNL     C8    8   0.437   0.068  -0.070
    1UNL     C9    9   0.495   0.205  -0.082
    1UNL    C10   10   0.512  -0.036  -0.146
    1UNL     O1   11   0.583  -0.009  -0.240
    1UNL     O2   12   0.507  -0.158  -0.094
    1UNL     O3   13  -0.096   0.059   0.105
    1UNL    C11   14  -0.200  -0.039   0.082
    1UNL     O4   15  -0.199  -0.112  -0.046
    1UNL    C12   16  -0.327  -0.127  -0.119
    1UNL    C13   17  -0.425  -0.012  -0.118
    1UNL     O5   18  -0.558  -0.052  -0.105
    1UNL    C14   19  -0.385   0.086  -0.009
    1UNL     O6   20  -0.486   0.174   0.035
    1UNL    C15   21  -0.338   0.013   0.114
    1UNL     O7   22  -0.438  -0.090   0.152
    1UNL     H1   23   0.057  -0.303   0.171
    1UNL     H2   24  -0.003  -0.226   0.016
    1UNL     H3   25   0.150  -0.087   0.219
    1UNL     H4   26  -0.039  -0.080  -0.118
    1UNL     H5   27   0.013   0.088  -0.144
    1UNL     H6   28   0.139  -0.018  -0.133
    1UNL     H7   29   0.082   0.204   0.174
    1UNL     H8   30   0.127   0.203   0.007
    1UNL     H9   31   0.351   0.212   0.136
    1UNL    H10   32   0.288   0.065   0.215
    1UNL    H11   33   0.319  -0.073   0.023
    1UNL    H12   34   0.518   0.224  -0.189
    1UNL    H13   35   0.405   0.272  -0.070
    1UNL    H14   36   0.587   0.232  -0.025
    1UNL    H15   37   0.556  -0.224  -0.151
    1UNL    H16   38  -0.166  -0.116   0.152
    1UNL    H17   39  -0.311  -0.162  -0.224
    1UNL    H18   40  -0.374  -0.216  -0.066
    1UNL    H19   41  -0.419   0.046  -0.221
    1UNL    H20   42  -0.561  -0.107  -0.023
    1UNL    H21   43  -0.303   0.136  -0.059
    1UNL    H22   44  -0.578   0.127   0.035
    1UNL    H23   45  -0.328   0.087   0.198
    1UNL    H24   46  -0.392  -0.159   0.208
   0.00000   0.00000   0.00000   0.00000   0.00000   0.00000   0.00000   0.00000   0.00000
Generated with MDTraj, t= 11.0
 46
    1UNL     C1    1   0.080  -0.225   0.082
    1UNL     C2    2   0.067  -0.102   0.130
    1UNL     C3    3   0.040   0.025   0.048
    1UNL     C4    4   0.055  -0.002  -0.101
    1UNL     C5    5   0.129   0.142   0.096
    1UNL     C6    6   0.273   0.105   0.140
    1UNL     C7    7   0.348   0.021   0.045
    1UNL     C8    8   0.429   0.063  -0.052
    1UNL     C9    9   0.479   0.200  -0.065
    1UNL    C10   10   0.494  -0.036  -0.140
    1UNL     O1   11   0.543   0.005  -0.244
    1UNL     O2   12   0.478  -0.167  -0.117
    1UNL     O3   13  -0.098   0.075   0.076
    1UNL    C11   14  -0.188  -0.031   0.089
    1UNL     O4   15  -0.192  -0.101  -0.041
    1UNL    C12   16  -0.318  -0.144  -0.092
    1UNL    C13   17  -0.412  -0.020  -0.114
    1UNL     O5   18  -0.551  -0.065  -0.110
    1UNL    C14   19  -0.376   0.090  -0.008
    1UNL     O6   20  -0.493   0.169   0.009
    1UNL    C15   21  -0.323   0.030   0.124
    1UNL     O7   22  -0.410  -0.070   0.157
    1UNL     H1   23   0.117  -0.308   0.145
    1UNL     H2   24   0.085  -0.254  -0.022
    1UNL     H3   25   0.070  -0.090   0.237
    1UNL     H4   26  -0.017  -0.079  -0.119
    1UNL     H5   27   0.022   0.090  -0.142
    1UNL     H6   28   0.158  -0.012  -0.129
    1UNL     H7   29   0.085   0.187   0.186
    1UNL     H8   30   0.129   0.212   0.019
    1UNL     H9   31   0.331   0.206   0.155
    1UNL    H10   32   0.276   0.052   0.235
    1UNL    H11   33   0.325  -0.082   0.060
    1UNL    H12   34   0.578   0.210  -0.116
    1UNL    H13   35   0.414   0.251  -0.141
    1UNL    H14   36   0.490   0.267   0.021
    1UNL    H15   37   0.521  -0.218  -0.188
    1UNL    H16   38  -0.158  -0.104   0.164
    1UNL    H17   39  -0.296  -0.181  -0.192
    1UNL    H18   40  -0.371  -0.226  -0.038
    1UNL    H19   41  -0.404   0.034  -0.219
    1UNL    H20   42  -0.575  -0.106  -0.024
    1UNL    H21   43  -0.296   0.152  -0.037
    1UNL    H22   44  -0.569   0.120  -0.027
    1UNL    H23   45  -0.336   0.104   0.208
    1UNL    H24   46  -0.386  -0.109   0.245
   0.00000   0.00000   0.00000   0.00000   0.00000   0.00000   0.00000   0.00000   0.00000
Generated with MDTraj, t= 12.0
 46
    1UNL     C1    1   0.129  -0.222   0.069
    1UNL     C2    2   0.083  -0.115   0.131
    1UNL     C3    3   0.054   0.017   0.060
    1UNL     C4    4   0.072   0.018  -0.092
    1UNL     C5    5   0.148   0.129   0.129
    1UNL     C6    6   0.288   0.087   0.175
    1UNL     C7    7   0.369   0.015   0.069
    1UNL     C8    8   0.428   0.054  -0.044
    1UNL     C9    9   0.446   0.201  -0.063
    1UNL    C10   10   0.470  -0.033  -0.149
    1UNL     O1   11   0.522   0.018  -0.249
    1UNL     O2   12   0.433  -0.165  -0.143
    1UNL     O3   13  -0.074   0.069   0.084
    1UNL    C11   14  -0.185  -0.024   0.076
    1UNL     O4   15  -0.186  -0.097  -0.049
    1UNL    C12   16  -0.312  -0.156  -0.089
    1UNL    C13   17  -0.424  -0.040  -0.124
    1UNL     O5   18  -0.553  -0.079  -0.080
    1UNL    C14   19  -0.387   0.088  -0.047
    1UNL     O6   20  -0.506   0.167  -0.018
    1UNL    C15   21  -0.326   0.050   0.098
    1UNL     O7   22  -0.422  -0.032   0.168
    1UNL     H1   23   0.167  -0.304   0.124
    1UNL     H2   24   0.134  -0.235  -0.038
    1UNL     H3   25   0.059  -0.115   0.236
    1UNL     H4   26   0.016  -0.057  -0.131
    1UNL     H5   27   0.046   0.110  -0.143
    1UNL     H6   28   0.178   0.009  -0.107
    1UNL     H7   29   0.091   0.148   0.219
    1UNL     H8   30   0.153   0.217   0.071
    1UNL     H9   31   0.346   0.178   0.200
    1UNL    H10   32   0.286   0.034   0.272
    1UNL    H11   33   0.354  -0.095   0.081
    1UNL    H12   34   0.546   0.238  -0.031
    1UNL    H13   35   0.453   0.210  -0.175
    1UNL    H14   36   0.365   0.259  -0.017
    1UNL    H15   37   0.458  -0.217  -0.218
    1UNL    H16   38  -0.168  -0.093   0.158
    1UNL    H17   39  -0.299  -0.227  -0.168
    1UNL    H18   40  -0.346  -0.212  -0.002
    1UNL    H19   41  -0.414  -0.017  -0.240
    1UNL    H20   42  -0.539  -0.102   0.014
    1UNL    H21   43  -0.305   0.135  -0.094
    1UNL    H22   44  -0.583   0.132  -0.069
    1UNL    H23   45  -0.312   0.142   0.158
    1UNL    H24   46  -0.428  -0.006   0.262
   0.00000   0.00000   0.00000   0.00000   0.00000   0.00000   0.00000   0.00000   0.00000
Generated with MDTraj, t= 13.0
 46
    1UNL     C1    1   0.132  -0.230   0.081
    1UNL     C2    2   0.066  -0.125   0.131
    1UNL     C3    3   0.051   0.015   0.085
    1UNL     C4    4   0.072   0.034  -0.066
    1UNL     C5    5   0.155   0.095   0.170
    1UNL     C6    6   0.295   0.046   0.185
    1UNL     C7    7   0.361  -0.007   0.057
    1UNL     C8    8   0.409   0.062  -0.047
    1UNL     C9    9   0.398   0.210  -0.073
    1UNL    C10   10   0.446  -0.019  -0.163
    1UNL     O1   11   0.527   0.012  -0.250
    1UNL     O2   12   0.405  -0.146  -0.161
    1UNL     O3   13  -0.084   0.069   0.116
    1UNL    C11   14  -0.192  -0.008   0.059
    1UNL     O4   15  -0.169  -0.071  -0.068
    1UNL    C12   16  -0.275  -0.150  -0.110
    1UNL    C13   17  -0.413  -0.070  -0.117
    1UNL     O5   18  -0.519  -0.113  -0.030
    1UNL    C14   19  -0.385   0.077  -0.075
    1UNL     O6   20  -0.502   0.165  -0.067
    1UNL    C15   21  -0.315   0.071   0.073
    1UNL     O7   22  -0.403   0.024   0.175
    1UNL     H1   23   0.118  -0.324   0.137
    1UNL     H2   24   0.163  -0.250  -0.020
    1UNL     H3   25   0.034  -0.138   0.233
    1UNL     H4   26   0.004  -0.020  -0.129
    1UNL     H5   27   0.056   0.136  -0.097
    1UNL     H6   28   0.165   0.018  -0.105
    1UNL     H7   29   0.113   0.107   0.266
    1UNL     H8   30   0.157   0.188   0.120
    1UNL     H9   31   0.354   0.118   0.235
    1UNL    H10   32   0.295  -0.037   0.260
    1UNL    H11   33   0.359  -0.109   0.043
    1UNL    H12   34   0.400   0.269   0.021
    1UNL    H13   35   0.484   0.238  -0.138
    1UNL    H14   36   0.297   0.225  -0.114
    1UNL    H15   37   0.426  -0.198  -0.239
    1UNL    H16   38  -0.208  -0.087   0.132
    1UNL    H17   39  -0.250  -0.197  -0.200
    1UNL    H18   40  -0.291  -0.218  -0.028
    1UNL    H19   41  -0.458  -0.071  -0.228
    1UNL    H20   42  -0.506  -0.080   0.063
    1UNL    H21   43  -0.321   0.117  -0.151
    1UNL    H22   44  -0.561   0.135   0.012
    1UNL    H23   45  -0.290   0.174   0.092
    1UNL    H24   46  -0.349   0.014   0.255
   0.00000   0.00000   0.00000   0.00000   0.00000   0.00000   0.00000   0.00000   0.00000
Generated with MDTraj, t= 14.0
 46
    1UNL     C1    1   0.101  -0.243   0.074
    1UNL     C2    2   0.054  -0.141   0.141
    1UNL     C3    3   0.054  -0.000   0.090
    1UNL     C4    4   0.089   0.024  -0.059
    1UNL     C5    5   0.149   0.085   0.172
    1UNL     C6    6   0.293   0.034   0.190
    1UNL     C7    7   0.366  -0.029   0.062
    1UNL     C8    8   0.396   0.048  -0.044
    1UNL     C9    9   0.377   0.191  -0.047
    1UNL    C10   10   0.434  -0.013  -0.171
    1UNL     O1   11   0.518   0.049  -0.236
    1UNL     O2   12   0.384  -0.136  -0.205
    1UNL     O3   13  -0.073   0.068   0.116
    1UNL    C11   14  -0.189   0.001   0.064
    1UNL     O4   15  -0.158  -0.061  -0.060
    1UNL    C12   16  -0.258  -0.145  -0.111
    1UNL    C13   17  -0.397  -0.077  -0.101
    1UNL     O5   18  -0.466  -0.135   0.005
    1UNL    C14   19  -0.388   0.075  -0.087
    1UNL     O6   20  -0.525   0.121  -0.084
    1UNL    C15   21  -0.310   0.106   0.049
    1UNL     O7   22  -0.402   0.099   0.153
    1UNL     H1   23   0.101  -0.334   0.133
    1UNL     H2   24   0.141  -0.244  -0.024
    1UNL     H3   25   0.021  -0.156   0.243
    1UNL     H4   26   0.019  -0.036  -0.122
    1UNL     H5   27   0.081   0.117  -0.101
    1UNL     H6   28   0.191  -0.007  -0.076
    1UNL     H7   29   0.103   0.087   0.263
    1UNL     H8   30   0.138   0.183   0.127
    1UNL     H9   31   0.347   0.112   0.229
    1UNL    H10   32   0.298  -0.040   0.274
    1UNL    H11   33   0.363  -0.141   0.045
    1UNL    H12   34   0.367   0.238   0.053
    1UNL    H13   35   0.457   0.248  -0.096
    1UNL    H14   36   0.278   0.222  -0.086
    1UNL    H15   37   0.430  -0.162  -0.291
    1UNL    H16   38  -0.212  -0.065   0.147
    1UNL    H17   39  -0.235  -0.162  -0.211
    1UNL    H18   40  -0.266  -0.236  -0.055
    1UNL    H19   41  -0.468  -0.099  -0.193
    1UNL    H20   42  -0.450  -0.082   0.086
    1UNL    H21   43  -0.333   0.114  -0.173
    1UNL    H22   44  -0.546   0.146   0.010
    1UNL    H23   45  -0.266   0.204   0.041
    1UNL    H24   46  -0.341   0.084   0.231
   0.00000   0.00000   0.00000   0.00000   0.00000   0.00000   0.00000   0.00000   0.00000
Generated with MDTraj, t= 15.0
 46
    1UNL     C1    1   0.069  -0.249   0.070
    1UNL     C2    2   0.025  -0.140   0.128
    1UNL     C3    3   0.051  -0.002   0.086
    1UNL     C4    4   0.097   0.018  -0.063
    1UNL     C5    5   0.154   0.069   0.180
    1UNL     C6    6   0.293  -0.000   0.191
    1UNL     C7    7   0.357  -0.029   0.055
    1UNL     C8    8   0.404   0.062  -0.031
    1UNL     C9    9   0.421   0.203   0.004
    1UNL    C10   10   0.444   0.010  -0.163
    1UNL     O1   11   0.515   0.068  -0.244
    1UNL     O2   12   0.377  -0.111  -0.204
    1UNL     O3   13  -0.070   0.072   0.085
    1UNL    C11   14  -0.184   0.004   0.031
    1UNL     O4   15  -0.163  -0.088  -0.075
    1UNL    C12   16  -0.277  -0.172  -0.102
    1UNL    C13   17  -0.414  -0.099  -0.067
    1UNL     O5   18  -0.454  -0.134   0.061
    1UNL    C14   19  -0.406   0.059  -0.095
    1UNL     O6   20  -0.533   0.114  -0.077
    1UNL    C15   21  -0.303   0.116   0.008
    1UNL     O7   22  -0.363   0.140   0.130
    1UNL     H1   23   0.051  -0.331   0.139
    1UNL     H2   24   0.130  -0.255  -0.019
    1UNL     H3   25  -0.034  -0.145   0.218
    1UNL     H4   26   0.016  -0.013  -0.129
    1UNL     H5   27   0.118   0.115  -0.095
    1UNL     H6   28   0.193  -0.041  -0.077
    1UNL     H7   29   0.107   0.055   0.270
    1UNL     H8   30   0.159   0.176   0.161
    1UNL     H9   31   0.359   0.054   0.248
    1UNL    H10   32   0.279  -0.093   0.253
    1UNL    H11   33   0.348  -0.123   0.014
    1UNL    H12   34   0.492   0.224   0.085
    1UNL    H13   35   0.464   0.246  -0.086
    1UNL    H14   36   0.324   0.254   0.032
    1UNL    H15   37   0.382  -0.123  -0.305
    1UNL    H16   38  -0.216  -0.046   0.123
    1UNL    H17   39  -0.281  -0.184  -0.207
    1UNL    H18   40  -0.262  -0.270  -0.058
    1UNL    H19   41  -0.497  -0.139  -0.140
    1UNL    H20   42  -0.464  -0.048   0.107
    1UNL    H21   43  -0.371   0.083  -0.198
    1UNL    H22   44  -0.551   0.117   0.018
    1UNL    H23   45  -0.277   0.217  -0.023
    1UNL    H24   46  -0.295   0.176   0.193
   0.00000   0.00000   0.00000   0.00000   0.00000   0.00000   0.00000   0.00000   0.00000
Generated with MDTraj, t= 16.0
 46
    1UNL     C1    1   0.055  -0.262   0.055
    1UNL     C2    2   0.033  -0.146   0.114
    1UNL     C3    3   0.053  -0.007   0.057
    1UNL     C4    4   0.080  -0.016  -0.096
    1UNL     C5    5   0.156   0.071   0.142
    1UNL     C6    6   0.275  -0.009   0.180
    1UNL     C7    7   0.358  -0.036   0.057
    1UNL     C8    8   0.434   0.054  -0.006
    1UNL     C9    9   0.474   0.183   0.054
    1UNL    C10   10   0.458   0.033  -0.152
    1UNL     O1   11   0.515   0.105  -0.228
    1UNL     O2   12   0.399  -0.080  -0.206
    1UNL     O3   13  -0.070   0.072   0.057
    1UNL    C11   14  -0.192   0.010   0.015
    1UNL     O4   15  -0.183  -0.099  -0.079
    1UNL    C12   16  -0.296  -0.181  -0.072
    1UNL    C13   17  -0.431  -0.109  -0.033
    1UNL     O5   18  -0.450  -0.115   0.107
    1UNL    C14   19  -0.422   0.033  -0.087
    1UNL     O6   20  -0.541   0.110  -0.077
    1UNL    C15   21  -0.308   0.109  -0.008
    1UNL     O7   22  -0.353   0.172   0.112
    1UNL     H1   23   0.013  -0.331   0.127
    1UNL     H2   24   0.106  -0.288  -0.038
    1UNL     H3   25   0.000  -0.140   0.217
    1UNL     H4   26   0.000  -0.067  -0.147
    1UNL     H5   27   0.053   0.091  -0.134
    1UNL     H6   28   0.176  -0.041  -0.137
    1UNL     H7   29   0.110   0.100   0.234
    1UNL     H8   30   0.182   0.164   0.093
    1UNL     H9   31   0.330   0.049   0.251
    1UNL    H10   32   0.249  -0.105   0.230
    1UNL    H11   33   0.359  -0.136   0.006
    1UNL    H12   34   0.522   0.174   0.151
    1UNL    H13   35   0.547   0.218  -0.020
    1UNL    H14   36   0.386   0.251   0.063
    1UNL    H15   37   0.407  -0.091  -0.301
    1UNL    H16   38  -0.210  -0.039   0.114
    1UNL    H17   39  -0.300  -0.254  -0.154
    1UNL    H18   40  -0.278  -0.240   0.022
    1UNL    H19   41  -0.514  -0.178  -0.076
    1UNL    H20   42  -0.515  -0.043   0.128
    1UNL    H21   43  -0.391   0.034  -0.197
    1UNL    H22   44  -0.547   0.150   0.017
    1UNL    H23   45  -0.268   0.189  -0.072
    1UNL    H24   46  -0.278   0.211   0.162
   0.00000   0.00000   0.00000   0.00000   0.00000   0.00000   0.00000   0.00000   0.00000
Generated with MDTraj, t= 17.0
 46
    1UNL     C1    1   0.042  -0.260   0.053
    1UNL     C2    2   0.011  -0.147   0.112
    1UNL     C3    3   0.036  -0.013   0.050
    1UNL     C4    4   0.074  -0.022  -0.099
    1UNL     C5    5   0.142   0.063   0.131
    1UNL     C6    6   0.274  -0.013   0.168
    1UNL     C7    7   0.355  -0.033   0.031
    1UNL     C8    8   0.448   0.048  -0.020
    1UNL     C9    9   0.489   0.169   0.062
    1UNL    C10   10   0.497   0.040  -0.156
    1UNL     O1   11   0.568   0.128  -0.192
    1UNL     O2   12   0.464  -0.063  -0.238
    1UNL     O3   13  -0.082   0.072   0.053
    1UNL    C11   14  -0.202   0.006   0.030
    1UNL     O4   15  -0.200  -0.105  -0.050
    1UNL    C12   16  -0.315  -0.190  -0.049
    1UNL    C13   17  -0.452  -0.111  -0.025
    1UNL     O5   18  -0.462  -0.107   0.118
    1UNL    C14   19  -0.444   0.027  -0.085
    1UNL     O6   20  -0.563   0.098  -0.038
    1UNL    C15   21  -0.311   0.097  -0.028
    1UNL     O7   22  -0.349   0.193   0.068
    1UNL     H1   23   0.025  -0.337   0.126
    1UNL     H2   24   0.083  -0.280  -0.042
    1UNL     H3   25  -0.031  -0.138   0.211
    1UNL     H4   26  -0.009  -0.054  -0.160
    1UNL     H5   27   0.100   0.075  -0.161
    1UNL     H6   28   0.154  -0.088  -0.113
    1UNL     H7   29   0.091   0.086   0.228
    1UNL     H8   30   0.161   0.158   0.088
    1UNL     H9   31   0.345   0.050   0.228
    1UNL    H10   32   0.253  -0.105   0.223
    1UNL    H11   33   0.330  -0.121  -0.022
    1UNL    H12   34   0.515   0.152   0.167
    1UNL    H13   35   0.582   0.214   0.023
    1UNL    H14   36   0.414   0.248   0.068
    1UNL    H15   37   0.524  -0.048  -0.311
    1UNL    H16   38  -0.232  -0.030   0.132
    1UNL    H17   39  -0.320  -0.252  -0.142
    1UNL    H18   40  -0.293  -0.265   0.034
    1UNL    H19   41  -0.545  -0.169  -0.054
    1UNL    H20   42  -0.429  -0.021   0.151
    1UNL    H21   43  -0.461   0.034  -0.199
    1UNL    H22   44  -0.540   0.165   0.025
    1UNL    H23   45  -0.258   0.154  -0.109
    1UNL    H24   46  -0.271   0.242   0.097
   0.00000   0.00000   0.00000   0.00000   0.00000   0.00000   0.00000   0.00000   0.00000
Generated with MDTraj, t= 18.0
 46
    1UNL     C1    1   0.039  -0.265   0.072
    1UNL     C2    2  -0.008  -0.150   0.111
    1UNL     C3    3   0.017  -0.020   0.044
    1UNL     C4    4   0.044  -0.039  -0.109
    1UNL     C5    5   0.143   0.039   0.103
    1UNL     C6    6   0.278  -0.032   0.111
    1UNL     C7    7   0.367  -0.018  -0.010
    1UNL     C8    8   0.455   0.075  -0.034
    1UNL     C9    9   0.483   0.194   0.063
    1UNL    C10   10   0.546   0.052  -0.151
    1UNL     O1   11   0.640   0.123  -0.165
    1UNL     O2   12   0.514  -0.058  -0.223
    1UNL     O3   13  -0.099   0.068   0.061
    1UNL    C11   14  -0.225  -0.000   0.037
    1UNL     O4   15  -0.214  -0.115  -0.046
    1UNL    C12   16  -0.329  -0.200  -0.040
    1UNL    C13   17  -0.459  -0.111  -0.004
    1UNL     O5   18  -0.464  -0.096   0.129
    1UNL    C14   19  -0.461   0.028  -0.073
    1UNL     O6   20  -0.570   0.108  -0.035
    1UNL    C15   21  -0.326   0.103  -0.031
    1UNL     O7   22  -0.353   0.200   0.076
    1UNL     H1   23   0.007  -0.345   0.139
    1UNL     H2   24   0.088  -0.294  -0.020
    1UNL     H3   25  -0.069  -0.143   0.201
    1UNL     H4   26  -0.048  -0.067  -0.160
    1UNL     H5   27   0.067   0.048  -0.175
    1UNL     H6   28   0.127  -0.115  -0.126
    1UNL     H7   29   0.113   0.048   0.214
    1UNL     H8   30   0.160   0.140   0.075
    1UNL     H9   31   0.333   0.006   0.208
    1UNL    H10   32   0.258  -0.136   0.125
    1UNL    H11   33   0.353  -0.089  -0.089
    1UNL    H12   34   0.569   0.180   0.130
    1UNL    H13   35   0.517   0.282   0.004
    1UNL    H14   36   0.405   0.223   0.130
    1UNL    H15   37   0.592  -0.067  -0.283
    1UNL    H16   38  -0.271  -0.021   0.137
    1UNL    H17   39  -0.332  -0.248  -0.143
    1UNL    H18   40  -0.307  -0.294   0.025
    1UNL    H19   41  -0.551  -0.170  -0.022
    1UNL    H20   42  -0.544  -0.042   0.147
    1UNL    H21   43  -0.470   0.011  -0.189
    1UNL    H22   44  -0.536   0.205  -0.037
    1UNL    H23   45  -0.272   0.160  -0.113
    1UNL    H24   46  -0.269   0.221   0.122
   0.00000   0.00000   0.00000   0.00000   0.00000   0.00000   0.00000   0.00000   0.00000
Generated with MDTraj, t= 19.0
 46
    1UNL     C1    1   0.051  -0.264   0.087
    1UNL     C2    2   0.010  -0.146   0.124
    1UNL     C3    3   0.018  -0.030   0.030
    1UNL     C4    4   0.029  -0.077  -0.116
    1UNL     C5    5   0.146   0.056   0.064
    1UNL     C6    6   0.269  -0.025   0.089
    1UNL     C7    7   0.376  -0.031  -0.016
    1UNL     C8    8   0.456   0.069  -0.043
    1UNL     C9    9   0.467   0.191   0.047
    1UNL    C10   10   0.576   0.061  -0.141
    1UNL     O1   11   0.672   0.132  -0.127
    1UNL     O2   12   0.566  -0.035  -0.229
    1UNL     O3   13  -0.096   0.054   0.037
    1UNL    C11   14  -0.223  -0.012   0.023
    1UNL     O4   15  -0.241  -0.125  -0.060
    1UNL    C12   16  -0.359  -0.194  -0.033
    1UNL    C13   17  -0.479  -0.098   0.005
    1UNL     O5   18  -0.495  -0.088   0.147
    1UNL    C14   19  -0.466   0.043  -0.061
    1UNL     O6   20  -0.576   0.131  -0.051
    1UNL    C15   21  -0.335   0.098  -0.005
    1UNL     O7   22  -0.360   0.175   0.102
    1UNL     H1   23   0.045  -0.333   0.166
    1UNL     H2   24   0.060  -0.310  -0.010
    1UNL     H3   25  -0.009  -0.131   0.229
    1UNL     H4   26  -0.062  -0.136  -0.150
    1UNL     H5   27   0.020   0.006  -0.179
    1UNL     H6   28   0.134  -0.126  -0.127
    1UNL     H7   29   0.127   0.118   0.161
    1UNL     H8   30   0.156   0.135  -0.008
    1UNL     H9   31   0.324   0.026   0.182
    1UNL    H10   32   0.242  -0.121   0.130
    1UNL    H11   33   0.398  -0.118  -0.081
    1UNL    H12   34   0.536   0.174   0.130
    1UNL    H13   35   0.520   0.264  -0.017
    1UNL    H14   36   0.374   0.230   0.081
    1UNL    H15   37   0.646  -0.027  -0.290
    1UNL    H16   38  -0.238  -0.052   0.126
    1UNL    H17   39  -0.371  -0.277  -0.110
    1UNL    H18   40  -0.323  -0.254   0.058
    1UNL    H19   41  -0.571  -0.139  -0.030
    1UNL    H20   42  -0.454  -0.000   0.165
    1UNL    H21   43  -0.446   0.027  -0.176
    1UNL    H22   44  -0.558   0.182   0.026
    1UNL    H23   45  -0.285   0.165  -0.082
    1UNL    H24   46  -0.277   0.192   0.155
   0.00000   0.00000   0.00000   0.00000   0.00000   0.00000   0.00000   0.00000   0.00000
Generated with MDTraj, t= 20.0
 46
    1UNL     C1    1   0.032  -0.266   0.121
    1UNL     C2    2   0.002  -0.140   0.120
    1UNL     C3    3   0.018  -0.047   0.004
    1UNL     C4    4   0.031  -0.130  -0.130
    1UNL     C5    5   0.147   0.036   0.020
    1UNL     C6    6   0.269  -0.041   0.075
    1UNL     C7    7   0.392  -0.021  -0.019
    1UNL     C8    8   0.475   0.083  -0.034
    1UNL     C9    9   0.469   0.212   0.047
    1UNL    C10   10   0.588   0.071  -0.126
    1UNL     O1   11   0.685   0.147  -0.123
    1UNL     O2   12   0.577  -0.029  -0.223
    1UNL     O3   13  -0.093   0.049  -0.018
    1UNL    C11   14  -0.217   0.000   0.021
    1UNL     O4   15  -0.247  -0.125  -0.043
    1UNL    C12   16  -0.371  -0.187  -0.013
    1UNL    C13   17  -0.487  -0.095  -0.003
    1UNL     O5   18  -0.530  -0.085   0.129
    1UNL    C14   19  -0.456   0.052  -0.059
    1UNL     O6   20  -0.566   0.142  -0.039
    1UNL    C15   21  -0.329   0.113   0.020
    1UNL     O7   22  -0.364   0.153   0.146
    1UNL     H1   23   0.015  -0.324   0.214
    1UNL     H2   24   0.069  -0.327   0.040
    1UNL     H3   25  -0.047  -0.095   0.205
    1UNL     H4   26  -0.073  -0.180  -0.146
    1UNL     H5   27   0.036  -0.067  -0.215
    1UNL     H6   28   0.118  -0.201  -0.120
    1UNL     H7   29   0.113   0.130   0.076
    1UNL     H8   30   0.174   0.078  -0.078
    1UNL     H9   31   0.301  -0.011   0.184
    1UNL    H10   32   0.250  -0.147   0.088
    1UNL    H11   33   0.414  -0.099  -0.083
    1UNL    H12   34   0.413   0.208   0.140
    1UNL    H13   35   0.569   0.238   0.084
    1UNL    H14   36   0.437   0.295  -0.014
    1UNL    H15   37   0.656  -0.009  -0.282
    1UNL    H16   38  -0.208  -0.028   0.127
    1UNL    H17   39  -0.383  -0.271  -0.086
    1UNL    H18   40  -0.350  -0.239   0.084
    1UNL    H19   41  -0.577  -0.138  -0.039
    1UNL    H20   42  -0.482  -0.007   0.164
    1UNL    H21   43  -0.444   0.049  -0.175
    1UNL    H22   44  -0.630   0.102   0.027
    1UNL    H23   45  -0.305   0.205  -0.043
    1UNL    H24   46  -0.288   0.193   0.197
   0.00000   0.00000   0.00000   0.00000   0.00000   0.00000   0.00000   0.00000   0.00000
Generated with MDTraj, t= 21.0
 46
    1UNL     C1    1  -0.024  -0.242   0.158
    1UNL     C2    2   0.021  -0.118   0.138
    1UNL     C3    3   0.026  -0.046   0.001
    1UNL     C4    4   0.016  -0.144  -0.117
    1UNL     C5    5   0.156   0.030  -0.016
    1UNL     C6    6   0.285  -0.048   0.039
    1UNL     C7    7   0.405  -0.024  -0.048
    1UNL     C8    8   0.481   0.084  -0.036
    1UNL     C9    9   0.459   0.194   0.064
    1UNL    C10   10   0.596   0.082  -0.128
    1UNL     O1   11   0.673   0.178  -0.120
    1UNL     O2   12   0.615  -0.018  -0.224
    1UNL     O3   13  -0.093   0.043  -0.007
    1UNL    C11   14  -0.213  -0.018   0.019
    1UNL     O4   15  -0.254  -0.135  -0.049
    1UNL    C12   16  -0.390  -0.188  -0.001
    1UNL    C13   17  -0.509  -0.085  -0.007
    1UNL     O5   18  -0.556  -0.081   0.123
    1UNL    C14   19  -0.451   0.056  -0.063
    1UNL     O6   20  -0.541   0.160  -0.043
    1UNL    C15   21  -0.325   0.095   0.024
    1UNL     O7   22  -0.359   0.120   0.155
    1UNL     H1   23  -0.017  -0.302   0.247
    1UNL     H2   24  -0.070  -0.306   0.089
    1UNL     H3   25   0.073  -0.063   0.216
    1UNL     H4   26  -0.086  -0.193  -0.111
    1UNL     H5   27   0.004  -0.085  -0.212
    1UNL     H6   28   0.104  -0.207  -0.120
    1UNL     H7   29   0.145   0.123   0.046
    1UNL     H8   30   0.172   0.063  -0.123
    1UNL     H9   31   0.299  -0.032   0.150
    1UNL    H10   32   0.259  -0.155   0.035
    1UNL    H11   33   0.441  -0.095  -0.129
    1UNL    H12   34   0.361   0.239   0.066
    1UNL    H13   35   0.454   0.157   0.165
    1UNL    H14   36   0.530   0.277   0.055
    1UNL    H15   37   0.703  -0.007  -0.267
    1UNL    H16   38  -0.203  -0.050   0.124
    1UNL    H17   39  -0.403  -0.280  -0.058
    1UNL    H18   40  -0.371  -0.230   0.098
    1UNL    H19   41  -0.592  -0.127  -0.060
    1UNL    H20   42  -0.489  -0.034   0.179
    1UNL    H21   43  -0.420   0.043  -0.174
    1UNL    H22   44  -0.539   0.186   0.052
    1UNL    H23   45  -0.278   0.188  -0.017
    1UNL    H24   46  -0.281   0.159   0.197
   0.00000   0.00000   0.00000   0.00000   0.00000   0.00000   0.00000   0.00000   0.00000
Generated with MDTraj, t= 22.0
 46
    1UNL     C1    1  -0.067  -0.223   0.194
    1UNL     C2    2   0.025  -0.136   0.158
    1UNL     C3    3   0.021  -0.077   0.017
    1UNL     C4    4  -0.007  -0.186  -0.085
    1UNL     C5    5   0.157   0.004  -0.024
    1UNL     C6    6   0.285  -0.073  -0.009
    1UNL     C7    7   0.398  -0.017  -0.093
    1UNL     C8    8   0.483   0.083  -0.055
    1UNL     C9    9   0.458   0.166   0.065
    1UNL    C10   10   0.606   0.110  -0.132
    1UNL     O1   11   0.671   0.214  -0.118
    1UNL     O2   12   0.654   0.014  -0.212
    1UNL     O3   13  -0.081   0.026   0.011
    1UNL    C11   14  -0.214  -0.021   0.035
    1UNL     O4   15  -0.258  -0.126  -0.046
    1UNL    C12   16  -0.388  -0.186  -0.015
    1UNL    C13   17  -0.499  -0.076  -0.012
    1UNL     O5   18  -0.559  -0.066   0.112
    1UNL    C14   19  -0.447   0.063  -0.061
    1UNL     O6   20  -0.543   0.164  -0.053
    1UNL    C15   21  -0.321   0.100   0.025
    1UNL     O7   22  -0.358   0.122   0.158
    1UNL     H1   23  -0.069  -0.273   0.289
    1UNL     H2   24  -0.139  -0.267   0.123
    1UNL     H3   25   0.112  -0.122   0.219
    1UNL     H4   26  -0.104  -0.230  -0.077
    1UNL     H5   27  -0.012  -0.146  -0.196
    1UNL     H6   28   0.073  -0.258  -0.075
    1UNL     H7   29   0.167   0.099   0.033
    1UNL     H8   30   0.146   0.028  -0.137
    1UNL     H9   31   0.316  -0.061   0.092
    1UNL    H10   32   0.270  -0.184  -0.022
    1UNL    H11   33   0.431  -0.061  -0.180
    1UNL    H12   34   0.494   0.268   0.062
    1UNL    H13   35   0.354   0.182   0.078
    1UNL    H14   36   0.516   0.124   0.149
    1UNL    H15   37   0.743   0.034  -0.242
    1UNL    H16   38  -0.229  -0.044   0.140
    1UNL    H17   39  -0.406  -0.281  -0.061
    1UNL    H18   40  -0.366  -0.203   0.088
    1UNL    H19   41  -0.579  -0.098  -0.084
    1UNL    H20   42  -0.508   0.000   0.164
    1UNL    H21   43  -0.415   0.056  -0.171
    1UNL    H22   44  -0.568   0.186   0.035
    1UNL    H23   45  -0.278   0.192  -0.014
    1UNL    H24   46  -0.289   0.166   0.209
   0.00000   0.00000   0.00000   0.00000   0.00000   0.00000   0.00000   0.00000   0.00000
Generated with MDTraj, t= 23.0
 46
    1UNL     C1    1  -0.011  -0.209   0.224
    1UNL     C2    2   0.065  -0.128   0.154
    1UNL     C3    3   0.027  -0.083   0.014
    1UNL     C4    4  -0.005  -0.206  -0.074
    1UNL     C5    5   0.156  -0.012  -0.040
    1UNL     C6    6   0.275  -0.095  -0.047
    1UNL     C7    7   0.401  -0.034  -0.096
    1UNL     C8    8   0.479   0.063  -0.044
    1UNL     C9    9   0.437   0.126   0.088
    1UNL    C10   10   0.583   0.123  -0.122
    1UNL     O1   11   0.610   0.244  -0.105
    1UNL     O2   12   0.641   0.041  -0.210
    1UNL     O3   13  -0.081   0.016   0.019
    1UNL    C11   14  -0.221  -0.032   0.037
    1UNL     O4   15  -0.265  -0.149  -0.033
    1UNL    C12   16  -0.397  -0.183  -0.021
    1UNL    C13   17  -0.504  -0.065  -0.023
    1UNL     O5   18  -0.556  -0.038   0.106
    1UNL    C14   19  -0.436   0.069  -0.068
    1UNL     O6   20  -0.530   0.172  -0.057
    1UNL    C15   21  -0.305   0.099   0.018
    1UNL     O7   22  -0.340   0.151   0.145
    1UNL     H1   23   0.003  -0.234   0.326
    1UNL     H2   24  -0.072  -0.272   0.162
    1UNL     H3   25   0.150  -0.080   0.204
    1UNL     H4   26  -0.101  -0.245  -0.061
    1UNL     H5   27  -0.010  -0.179  -0.184
    1UNL     H6   28   0.065  -0.291  -0.063
    1UNL     H7   29   0.165   0.080   0.023
    1UNL     H8   30   0.137   0.016  -0.152
    1UNL     H9   31   0.300  -0.137   0.042
    1UNL    H10   32   0.261  -0.181  -0.121
    1UNL    H11   33   0.441  -0.071  -0.195
    1UNL    H12   34   0.521   0.126   0.155
    1UNL    H13   35   0.419   0.228   0.064
    1UNL    H14   36   0.363   0.071   0.147
    1UNL    H15   37   0.705   0.092  -0.258
    1UNL    H16   38  -0.230  -0.059   0.142
    1UNL    H17   39  -0.407  -0.246  -0.103
    1UNL    H18   40  -0.407  -0.235   0.070
    1UNL    H19   41  -0.596  -0.084  -0.084
    1UNL    H20   42  -0.487  -0.005   0.169
    1UNL    H21   43  -0.409   0.064  -0.178
    1UNL    H22   44  -0.566   0.179   0.037
    1UNL    H23   45  -0.232   0.154  -0.040
    1UNL    H24   46  -0.266   0.193   0.193
   0.00000   0.00000   0.00000   0.00000   0.00000   0.00000   0.00000   0.00000   0.00000
Generated with MDTraj, t= 24.0
 46
    1UNL     C1    1   0.016  -0.205   0.247
    1UNL     C2    2   0.040  -0.109   0.159
    1UNL     C3    3   0.019  -0.108   0.005
    1UNL     C4    4  -0.027  -0.239  -0.057
    1UNL     C5    5   0.144  -0.044  -0.062
    1UNL     C6    6   0.285  -0.123  -0.056
    1UNL     C7    7   0.394  -0.043  -0.111
    1UNL     C8    8   0.450   0.060  -0.048
    1UNL     C9    9   0.421   0.084   0.097
    1UNL    C10   10   0.553   0.140  -0.112
    1UNL     O1   11   0.565   0.253  -0.070
    1UNL     O2   12   0.622   0.091  -0.214
    1UNL     O3   13  -0.072   0.003  -0.015
    1UNL    C11   14  -0.202  -0.030   0.027
    1UNL     O4   15  -0.259  -0.132  -0.051
    1UNL    C12   16  -0.383  -0.172   0.004
    1UNL    C13   17  -0.489  -0.050  -0.003
    1UNL     O5   18  -0.537  -0.029   0.125
    1UNL    C14   19  -0.414   0.071  -0.068
    1UNL     O6   20  -0.497   0.181  -0.090
    1UNL    C15   21  -0.289   0.102   0.015
    1UNL     O7   22  -0.323   0.152   0.139
    1UNL     H1   23   0.052  -0.185   0.349
    1UNL     H2   24  -0.003  -0.299   0.199
    1UNL     H3   25   0.081  -0.015   0.188
    1UNL     H4   26  -0.105  -0.287   0.006
    1UNL     H5   27  -0.072  -0.218  -0.146
    1UNL     H6   28   0.059  -0.309  -0.067
    1UNL     H7   29   0.167   0.055  -0.015
    1UNL     H8   30   0.107  -0.025  -0.170
    1UNL     H9   31   0.312  -0.151   0.040
    1UNL    H10   32   0.277  -0.215  -0.121
    1UNL    H11   33   0.430  -0.063  -0.207
    1UNL    H12   34   0.465   0.004   0.156
    1UNL    H13   35   0.470   0.174   0.128
    1UNL    H14   36   0.320   0.076   0.131
    1UNL    H15   37   0.683   0.159  -0.242
    1UNL    H16   38  -0.204  -0.062   0.131
    1UNL    H17   39  -0.421  -0.251  -0.053
    1UNL    H18   40  -0.369  -0.199   0.105
    1UNL    H19   41  -0.575  -0.079  -0.073
    1UNL    H20   42  -0.488   0.049   0.161
    1UNL    H21   43  -0.392   0.032  -0.171
    1UNL    H22   44  -0.530   0.220  -0.003
    1UNL    H23   45  -0.241   0.177  -0.044
    1UNL    H24   46  -0.252   0.179   0.204
   0.00000   0.00000   0.00000   0.00000   0.00000   0.00000   0.00000   0.00000   0.00000
Generated with MDTraj, t= 25.0
 46
    1UNL     C1    1   0.067  -0.184   0.241
    1UNL     C2    2   0.074  -0.101   0.138
    1UNL     C3    3   0.038  -0.114  -0.010
    1UNL     C4    4   0.008  -0.257  -0.057
    1UNL     C5    5   0.154  -0.059  -0.086
    1UNL     C6    6   0.290  -0.148  -0.060
    1UNL     C7    7   0.407  -0.064  -0.095
    1UNL     C8    8   0.458   0.038  -0.025
    1UNL     C9    9   0.416   0.073   0.109
    1UNL    C10   10   0.533   0.147  -0.091
    1UNL     O1   11   0.551   0.255  -0.041
    1UNL     O2   12   0.573   0.128  -0.215
    1UNL     O3   13  -0.072  -0.025  -0.043
    1UNL    C11   14  -0.202  -0.036   0.012
    1UNL     O4   15  -0.277  -0.150  -0.038
    1UNL    C12   16  -0.409  -0.171   0.026
    1UNL    C13   17  -0.498  -0.040   0.007
    1UNL     O5   18  -0.547   0.007   0.130
    1UNL    C14   19  -0.428   0.071  -0.074
    1UNL     O6   20  -0.495   0.198  -0.067
    1UNL    C15   21  -0.295   0.099  -0.009
    1UNL     O7   22  -0.314   0.165   0.107
    1UNL     H1   23   0.096  -0.145   0.335
    1UNL     H2   24   0.037  -0.283   0.214
    1UNL     H3   25   0.103   0.005   0.145
    1UNL     H4   26  -0.076  -0.305   0.003
    1UNL     H5   27  -0.025  -0.243  -0.154
    1UNL     H6   28   0.093  -0.323  -0.056
    1UNL     H7   29   0.173   0.049  -0.053
    1UNL     H8   30   0.129  -0.047  -0.195
    1UNL     H9   31   0.290  -0.175   0.046
    1UNL    H10   32   0.291  -0.247  -0.110
    1UNL    H11   33   0.437  -0.064  -0.200
    1UNL    H12   34   0.381  -0.016   0.157
    1UNL    H13   35   0.494   0.108   0.175
    1UNL    H14   36   0.331   0.136   0.119
    1UNL    H15   37   0.614   0.212  -0.249
    1UNL    H16   38  -0.188  -0.049   0.118
    1UNL    H17   39  -0.463  -0.251  -0.019
    1UNL    H18   40  -0.403  -0.182   0.134
    1UNL    H19   41  -0.590  -0.069  -0.054
    1UNL    H20   42  -0.474   0.053   0.176
    1UNL    H21   43  -0.415   0.029  -0.175
    1UNL    H22   44  -0.502   0.226   0.023
    1UNL    H23   45  -0.242   0.159  -0.080
    1UNL    H24   46  -0.231   0.173   0.160
   0.00000   0.00000   0.00000   0.00000   0.00000   0.00000   0.00000   0.00000   0.00000
Generated with MDTraj, t= 26.0
 46
    1UNL     C1    1   0.095  -0.171   0.220
    1UNL     C2    2   0.044  -0.089   0.127
    1UNL     C3    3   0.017  -0.123  -0.020
    1UNL     C4    4  -0.026  -0.267  -0.050
    1UNL     C5    5   0.138  -0.090  -0.109
    1UNL     C6    6   0.272  -0.135  -0.055
    1UNL     C7    7   0.384  -0.044  -0.092
    1UNL     C8    8   0.442   0.049  -0.020
    1UNL     C9    9   0.393   0.071   0.120
    1UNL    C10   10   0.529   0.156  -0.075
    1UNL     O1   11   0.587   0.235  -0.004
    1UNL     O2   12   0.550   0.156  -0.217
    1UNL     O3   13  -0.082  -0.029  -0.077
    1UNL    C11   14  -0.198  -0.044  -0.005
    1UNL     O4   15  -0.276  -0.162  -0.026
    1UNL    C12   16  -0.391  -0.156   0.051
    1UNL    C13   17  -0.486  -0.040   0.022
    1UNL     O5   18  -0.511   0.035   0.145
    1UNL    C14   19  -0.413   0.059  -0.079
    1UNL     O6   20  -0.496   0.179  -0.086
    1UNL    C15   21  -0.273   0.097  -0.019
    1UNL     O7   22  -0.280   0.155   0.111
    1UNL     H1   23   0.126  -0.138   0.318
    1UNL     H2   24   0.097  -0.279   0.199
    1UNL     H3   25   0.024   0.015   0.141
    1UNL     H4   26  -0.094  -0.299   0.029
    1UNL     H5   27  -0.081  -0.269  -0.147
    1UNL     H6   28   0.051  -0.337  -0.054
    1UNL     H7   29   0.123   0.019  -0.141
    1UNL     H8   30   0.122  -0.138  -0.209
    1UNL     H9   31   0.275  -0.159   0.061
    1UNL    H10   32   0.288  -0.234  -0.096
    1UNL    H11   33   0.423  -0.055  -0.194
    1UNL    H12   34   0.434  -0.009   0.176
    1UNL    H13   35   0.437   0.162   0.161
    1UNL    H14   36   0.288   0.068   0.127
    1UNL    H15   37   0.609   0.236  -0.233
    1UNL    H16   38  -0.182  -0.041   0.102
    1UNL    H17   39  -0.448  -0.243   0.011
    1UNL    H18   40  -0.375  -0.160   0.160
    1UNL    H19   41  -0.590  -0.065  -0.016
    1UNL    H20   42  -0.428   0.080   0.173
    1UNL    H21   43  -0.398   0.021  -0.178
    1UNL    H22   44  -0.561   0.183  -0.008
    1UNL    H23   45  -0.217   0.159  -0.090
    1UNL    H24   46  -0.191   0.181   0.140
   0.00000   0.00000   0.00000   0.00000   0.00000   0.00000   0.00000   0.00000   0.00000
Generated with MDTraj, t= 27.0
 46
    1UNL     C1    1   0.109  -0.179   0.204
    1UNL     C2    2   0.066  -0.094   0.112
    1UNL     C3    3   0.025  -0.130  -0.030
    1UNL     C4    4  -0.017  -0.270  -0.043
    1UNL     C5    5   0.151  -0.094  -0.123
    1UNL     C6    6   0.286  -0.135  -0.080
    1UNL     C7    7   0.398  -0.038  -0.099
    1UNL     C8    8   0.435   0.055  -0.015
    1UNL     C9    9   0.365   0.087   0.113
    1UNL    C10   10   0.545   0.151  -0.059
    1UNL     O1   11   0.627   0.201   0.011
    1UNL     O2   12   0.545   0.185  -0.194
    1UNL     O3   13  -0.084  -0.048  -0.072
    1UNL    C11   14  -0.207  -0.042   0.004
    1UNL     O4   15  -0.286  -0.164  -0.006
    1UNL    C12   16  -0.408  -0.162   0.063
    1UNL    C13   17  -0.496  -0.034   0.041
    1UNL     O5   18  -0.515   0.040   0.164
    1UNL    C14   19  -0.441   0.055  -0.072
    1UNL     O6   20  -0.512   0.180  -0.075
    1UNL    C15   21  -0.290   0.085  -0.045
    1UNL     O7   22  -0.278   0.185   0.057
    1UNL     H1   23   0.118  -0.151   0.307
    1UNL     H2   24   0.097  -0.282   0.197
    1UNL     H3   25   0.054   0.007   0.152
    1UNL     H4   26  -0.099  -0.296   0.013
    1UNL     H5   27  -0.037  -0.294  -0.154
    1UNL     H6   28   0.063  -0.334  -0.021
    1UNL     H7   29   0.146   0.014  -0.156
    1UNL     H8   30   0.125  -0.150  -0.217
    1UNL     H9   31   0.279  -0.166   0.033
    1UNL    H10   32   0.314  -0.228  -0.127
    1UNL    H11   33   0.447  -0.037  -0.192
    1UNL    H12   34   0.417   0.031   0.185
    1UNL    H13   35   0.377   0.192   0.143
    1UNL    H14   36   0.263   0.053   0.114
    1UNL    H15   37   0.627   0.242  -0.209
    1UNL    H16   38  -0.194  -0.020   0.109
    1UNL    H17   39  -0.467  -0.260   0.050
    1UNL    H18   40  -0.371  -0.166   0.169
    1UNL    H19   41  -0.586  -0.082   0.001
    1UNL    H20   42  -0.430   0.087   0.182
    1UNL    H21   43  -0.455   0.005  -0.164
    1UNL    H22   44  -0.506   0.224   0.012
    1UNL    H23   45  -0.255   0.117  -0.147
    1UNL    H24   46  -0.183   0.212   0.060
   0.00000   0.00000   0.00000   0.00000   0.00000   0.00000   0.00000   0.00000   0.00000
Generated with MDTraj, t= 28.0
 46
    1UNL     C1    1   0.090  -0.177   0.205
    1UNL     C2    2   0.033  -0.098   0.120
    1UNL     C3    3   0.019  -0.110  -0.024
    1UNL     C4    4  -0.006  -0.256  -0.060
    1UNL     C5    5   0.144  -0.052  -0.093
    1UNL     C6    6   0.273  -0.129  -0.075
    1UNL     C7    7   0.390  -0.041  -0.107
    1UNL     C8    8   0.426   0.059  -0.030
    1UNL     C9    9   0.368   0.074   0.104
    1UNL    C10   10   0.548   0.141  -0.062
    1UNL     O1   11   0.626   0.163   0.023
    1UNL     O2   12   0.559   0.196  -0.184
    1UNL     O3   13  -0.084  -0.023  -0.073
    1UNL    C11   14  -0.208  -0.033  -0.007
    1UNL     O4   15  -0.277  -0.163  -0.013
    1UNL    C12   16  -0.391  -0.169   0.082
    1UNL    C13   17  -0.485  -0.036   0.071
    1UNL     O5   18  -0.453   0.039   0.192
    1UNL    C14   19  -0.449   0.035  -0.062
    1UNL     O6   20  -0.531   0.146  -0.101
    1UNL    C15   21  -0.300   0.077  -0.062
    1UNL     O7   22  -0.288   0.192   0.018
    1UNL     H1   23   0.106  -0.176   0.312
    1UNL     H2   24   0.130  -0.273   0.173
    1UNL     H3   25  -0.005  -0.009   0.164
    1UNL     H4   26  -0.102  -0.280  -0.026
    1UNL     H5   27  -0.001  -0.278  -0.168
    1UNL     H6   28   0.060  -0.325  -0.009
    1UNL     H7   29   0.156   0.056  -0.054
    1UNL     H8   30   0.130  -0.034  -0.199
    1UNL     H9   31   0.278  -0.156   0.031
    1UNL    H10   32   0.263  -0.226  -0.125
    1UNL    H11   33   0.442  -0.058  -0.205
    1UNL    H12   34   0.356  -0.021   0.146
    1UNL    H13   35   0.430   0.123   0.176
    1UNL    H14   36   0.271   0.123   0.108
    1UNL    H15   37   0.645   0.242  -0.188
    1UNL    H16   38  -0.195  -0.015   0.099
    1UNL    H17   39  -0.447  -0.267   0.054
    1UNL    H18   40  -0.361  -0.187   0.190
    1UNL    H19   41  -0.591  -0.051   0.071
    1UNL    H20   42  -0.399   0.116   0.164
    1UNL    H21   43  -0.461  -0.031  -0.143
    1UNL    H22   44  -0.503   0.230  -0.064
    1UNL    H23   45  -0.283   0.089  -0.174
    1UNL    H24   46  -0.197   0.229   0.009
   0.00000   0.00000   0.00000   0.00000   0.00000   0.00000   0.00000   0.00000   0.00000
Generated with MDTraj, t= 29.0
 46
    1UNL     C1    1   0.051  -0.192   0.184
    1UNL     C2    2   0.038  -0.080   0.119
    1UNL     C3    3   0.018  -0.083  -0.033
    1UNL     C4    4  -0.017  -0.225  -0.084
    1UNL     C5    5   0.144  -0.031  -0.099
    1UNL     C6    6   0.279  -0.118  -0.063
    1UNL     C7    7   0.400  -0.041  -0.090
    1UNL     C8    8   0.452   0.045  -0.006
    1UNL     C9    9   0.393   0.067   0.130
    1UNL    C10   10   0.563   0.131  -0.054
    1UNL     O1   11   0.650   0.159   0.026
    1UNL     O2   12   0.566   0.157  -0.192
    1UNL     O3   13  -0.096   0.012  -0.073
    1UNL    C11   14  -0.213  -0.014  -0.011
    1UNL     O4   15  -0.254  -0.151  -0.002
    1UNL    C12   16  -0.365  -0.168   0.085
    1UNL    C13   17  -0.471  -0.058   0.090
    1UNL     O5   18  -0.432   0.037   0.185
    1UNL    C14   19  -0.479   0.012  -0.046
    1UNL     O6   20  -0.572   0.118  -0.057
    1UNL    C15   21  -0.330   0.064  -0.090
    1UNL     O7   22  -0.319   0.199  -0.041
    1UNL     H1   23   0.060  -0.218   0.287
    1UNL     H2   24   0.069  -0.290   0.139
    1UNL     H3   25   0.043   0.013   0.178
    1UNL     H4   26  -0.087  -0.269  -0.010
    1UNL     H5   27  -0.064  -0.215  -0.173
    1UNL     H6   28   0.077  -0.279  -0.090
    1UNL     H7   29   0.153   0.077  -0.060
    1UNL     H8   30   0.132  -0.014  -0.204
    1UNL     H9   31   0.271  -0.157   0.032
    1UNL    H10   32   0.281  -0.199  -0.137
    1UNL    H11   33   0.452  -0.066  -0.176
    1UNL    H12   34   0.326  -0.010   0.165
    1UNL    H13   35   0.470   0.074   0.202
    1UNL    H14   36   0.349   0.168   0.130
    1UNL    H15   37   0.643   0.214  -0.197
    1UNL    H16   38  -0.203   0.028   0.090
    1UNL    H17   39  -0.417  -0.265   0.046
    1UNL    H18   40  -0.321  -0.202   0.184
    1UNL    H19   41  -0.566  -0.094   0.120
    1UNL    H20   42  -0.375   0.104   0.137
    1UNL    H21   43  -0.508  -0.059  -0.116
    1UNL    H22   44  -0.534   0.207  -0.023
    1UNL    H23   45  -0.315   0.054  -0.202
    1UNL    H24   46  -0.233   0.240  -0.068
   0.00000   0.00000   0.00000   0.00000   0.00000   0.00000   0.00000   0.00000   0.00000
Generated with MDTraj, t= 30.0
 46
    1UNL     C1    1   0.017  -0.203   0.163
    1UNL     C2    2  -0.008  -0.091   0.100
    1UNL     C3    3   0.003  -0.063  -0.049
    1UNL     C4    4  -0.013  -0.199  -0.123
    1UNL     C5    5   0.144   0.000  -0.082
    1UNL     C6    6   0.264  -0.093  -0.055
    1UNL     C7    7   0.391  -0.021  -0.087
    1UNL     C8    8   0.467   0.045   0.003
    1UNL     C9    9   0.434   0.061   0.147
    1UNL    C10   10   0.591   0.113  -0.049
    1UNL     O1   11   0.671   0.170   0.021
    1UNL     O2   12   0.608   0.111  -0.179
    1UNL     O3   13  -0.105   0.022  -0.098
    1UNL    C11   14  -0.220  -0.007  -0.026
    1UNL     O4   15  -0.239  -0.143   0.013
    1UNL    C12   16  -0.340  -0.167   0.111
    1UNL    C13   17  -0.461  -0.073   0.106
    1UNL     O5   18  -0.434   0.046   0.190
    1UNL    C14   19  -0.483  -0.002  -0.030
    1UNL     O6   20  -0.584   0.093  -0.028
    1UNL    C15   21  -0.352   0.055  -0.086
    1UNL     O7   22  -0.346   0.190  -0.081
    1UNL     H1   23   0.015  -0.210   0.272
    1UNL     H2   24   0.068  -0.289   0.127
    1UNL     H3   25  -0.018  -0.003   0.160
    1UNL     H4   26  -0.119  -0.227  -0.117
    1UNL     H5   27   0.006  -0.166  -0.221
    1UNL     H6   28   0.053  -0.277  -0.093
    1UNL     H7   29   0.153   0.103  -0.033
    1UNL     H8   30   0.138   0.034  -0.184
    1UNL     H9   31   0.270  -0.119   0.044
    1UNL    H10   32   0.254  -0.181  -0.120
    1UNL    H11   33   0.423  -0.013  -0.196
    1UNL    H12   34   0.390  -0.034   0.182
    1UNL    H13   35   0.520   0.080   0.205
    1UNL    H14   36   0.372   0.151   0.150
    1UNL    H15   37   0.689   0.159  -0.197
    1UNL    H16   38  -0.204   0.059   0.062
    1UNL    H17   39  -0.356  -0.282   0.101
    1UNL    H18   40  -0.290  -0.160   0.212
    1UNL    H19   41  -0.547  -0.130   0.135
    1UNL    H20   42  -0.515   0.100   0.189
    1UNL    H21   43  -0.519  -0.075  -0.095
    1UNL    H22   44  -0.567   0.174  -0.076
    1UNL    H23   45  -0.351   0.037  -0.196
    1UNL    H24   46  -0.255   0.215  -0.104
   0.00000   0.00000   0.00000   0.00000   0.00000   0.00000   0.00000   0.00000   0.00000
Generated with MDTraj, t= 31.0
 46
    1UNL     C1    1  -0.006  -0.214   0.140
    1UNL     C2    2   0.014  -0.095   0.094
    1UNL     C3    3  -0.006  -0.059  -0.049
    1UNL     C4    4  -0.019  -0.180  -0.149
    1UNL     C5    5   0.125   0.023  -0.090
    1UNL     C6    6   0.255  -0.044  -0.055
    1UNL     C7    7   0.385   0.029  -0.089
    1UNL     C8    8   0.485   0.061   0.001
    1UNL     C9    9   0.471   0.054   0.148
    1UNL    C10   10   0.620   0.101  -0.049
    1UNL     O1   11   0.685   0.173   0.027
    1UNL     O2   12   0.661   0.062  -0.169
    1UNL     O3   13  -0.119   0.023  -0.074
    1UNL    C11   14  -0.238  -0.016  -0.009
    1UNL     O4   15  -0.253  -0.154   0.022
    1UNL    C12   16  -0.360  -0.163   0.121
    1UNL    C13   17  -0.463  -0.055   0.118
    1UNL     O5   18  -0.419   0.057   0.196
    1UNL    C14   19  -0.496  -0.017  -0.024
    1UNL     O6   20  -0.606   0.067  -0.040
    1UNL    C15   21  -0.361   0.037  -0.098
    1UNL     O7   22  -0.357   0.176  -0.092
    1UNL     H1   23   0.028  -0.252   0.235
    1UNL     H2   24  -0.016  -0.294   0.068
    1UNL     H3   25   0.038  -0.006   0.153
    1UNL     H4   26  -0.119  -0.213  -0.128
    1UNL     H5   27  -0.012  -0.155  -0.261
    1UNL     H6   28   0.039  -0.262  -0.124
    1UNL     H7   29   0.125   0.124  -0.041
    1UNL     H8   30   0.119   0.052  -0.194
    1UNL     H9   31   0.247  -0.068   0.049
    1UNL    H10   32   0.253  -0.139  -0.108
    1UNL    H11   33   0.398   0.059  -0.189
    1UNL    H12   34   0.543  -0.022   0.185
    1UNL    H13   35   0.482   0.141   0.207
    1UNL    H14   36   0.370   0.024   0.167
    1UNL    H15   37   0.752   0.096  -0.178
    1UNL    H16   38  -0.232   0.037   0.090
    1UNL    H17   39  -0.403  -0.266   0.109
    1UNL    H18   40  -0.315  -0.163   0.222
    1UNL    H19   41  -0.556  -0.086   0.171
    1UNL    H20   42  -0.403   0.134   0.138
    1UNL    H21   43  -0.535  -0.102  -0.074
    1UNL    H22   44  -0.581   0.166  -0.045
    1UNL    H23   45  -0.352   0.008  -0.202
    1UNL    H24   46  -0.273   0.213  -0.122
   0.00000   0.00000   0.00000   0.00000   0.00000   0.00000   0.00000   0.00000   0.00000
Generated with MDTraj, t= 32.0
 46
    1UNL     C1    1   0.003  -0.213   0.145
    1UNL     C2    2   0.022  -0.098   0.090
    1UNL     C3    3   0.004  -0.054  -0.064
    1UNL     C4    4  -0.009  -0.180  -0.145
    1UNL     C5    5   0.131   0.028  -0.090
    1UNL     C6    6   0.258  -0.042  -0.053
    1UNL     C7    7   0.383   0.027  -0.081
    1UNL     C8    8   0.482   0.057   0.004
    1UNL     C9    9   0.474   0.035   0.149
    1UNL    C10   10   0.612   0.100  -0.053
    1UNL     O1   11   0.677   0.188   0.012
    1UNL     O2   12   0.662   0.041  -0.168
    1UNL     O3   13  -0.113   0.031  -0.075
    1UNL    C11   14  -0.234  -0.008  -0.018
    1UNL     O4   15  -0.248  -0.145   0.018
    1UNL    C12   16  -0.350  -0.158   0.135
    1UNL    C13   17  -0.475  -0.061   0.114
    1UNL     O5   18  -0.451   0.054   0.197
    1UNL    C14   19  -0.490  -0.022  -0.033
    1UNL     O6   20  -0.607   0.052  -0.053
    1UNL    C15   21  -0.359   0.050  -0.091
    1UNL     O7   22  -0.369   0.188  -0.069
    1UNL     H1   23   0.032  -0.219   0.247
    1UNL     H2   24  -0.033  -0.296   0.085
    1UNL     H3   25   0.065  -0.017   0.143
    1UNL     H4   26  -0.091  -0.240  -0.123
    1UNL     H5   27   0.002  -0.158  -0.257
    1UNL     H6   28   0.072  -0.245  -0.120
    1UNL     H7   29   0.127   0.118  -0.026
    1UNL     H8   30   0.134   0.060  -0.194
    1UNL     H9   31   0.244  -0.067   0.058
    1UNL    H10   32   0.262  -0.135  -0.106
    1UNL    H11   33   0.394   0.053  -0.187
    1UNL    H12   34   0.546  -0.047   0.173
    1UNL    H13   35   0.512   0.119   0.204
    1UNL    H14   36   0.376   0.021   0.191
    1UNL    H15   37   0.747   0.092  -0.180
    1UNL    H16   38  -0.228   0.042   0.082
    1UNL    H17   39  -0.389  -0.261   0.132
    1UNL    H18   40  -0.302  -0.156   0.232
    1UNL    H19   41  -0.574  -0.107   0.144
    1UNL    H20   42  -0.467   0.138   0.147
    1UNL    H21   43  -0.508  -0.111  -0.091
    1UNL    H22   44  -0.585   0.144  -0.058
    1UNL    H23   45  -0.344   0.031  -0.194
    1UNL    H24   46  -0.285   0.237  -0.072
   0.00000   0.00000   0.00000   0.00000   0.00000   0.00000   0.00000   0.00000   0.00000
Generated with MDTraj, t= 33.0
 46
    1UNL     C1    1   0.024  -0.186   0.173
    1UNL     C2    2   0.003  -0.075   0.110
    1UNL     C3    3   0.008  -0.059  -0.040
    1UNL     C4    4  -0.024  -0.182  -0.128
    1UNL     C5    5   0.141   0.008  -0.075
    1UNL     C6    6   0.264  -0.085  -0.056
    1UNL     C7    7   0.390  -0.018  -0.091
    1UNL     C8    8   0.479   0.030  -0.001
    1UNL     C9    9   0.469   0.033   0.145
    1UNL    C10   10   0.598   0.106  -0.062
    1UNL     O1   11   0.653   0.198   0.003
    1UNL     O2   12   0.650   0.071  -0.182
    1UNL     O3   13  -0.102   0.036  -0.084
    1UNL    C11   14  -0.222   0.014  -0.011
    1UNL     O4   15  -0.241  -0.127   0.024
    1UNL    C12   16  -0.343  -0.157   0.115
    1UNL    C13   17  -0.471  -0.077   0.089
    1UNL     O5   18  -0.481   0.032   0.175
    1UNL    C14   19  -0.474  -0.022  -0.051
    1UNL     O6   20  -0.591   0.053  -0.076
    1UNL    C15   21  -0.348   0.069  -0.077
    1UNL     O7   22  -0.374   0.192  -0.019
    1UNL     H1   23  -0.010  -0.179   0.277
    1UNL     H2   24   0.045  -0.272   0.113
    1UNL     H3   25  -0.014   0.022   0.153
    1UNL     H4   26  -0.105  -0.244  -0.102
    1UNL     H5   27  -0.032  -0.152  -0.231
    1UNL     H6   28   0.052  -0.267  -0.132
    1UNL     H7   29   0.146   0.099  -0.020
    1UNL     H8   30   0.130   0.028  -0.184
    1UNL     H9   31   0.274  -0.108   0.059
    1UNL    H10   32   0.262  -0.178  -0.106
    1UNL    H11   33   0.417  -0.006  -0.196
    1UNL    H12   34   0.411  -0.051   0.179
    1UNL    H13   35   0.572   0.018   0.180
    1UNL    H14   36   0.436   0.132   0.172
    1UNL    H15   37   0.717   0.137  -0.216
    1UNL    H16   38  -0.212   0.075   0.082
    1UNL    H17   39  -0.347  -0.263   0.120
    1UNL    H18   40  -0.309  -0.121   0.208
    1UNL    H19   41  -0.558  -0.150   0.104
    1UNL    H20   42  -0.425   0.100   0.133
    1UNL    H21   43  -0.481  -0.111  -0.115
    1UNL    H22   44  -0.571   0.150  -0.051
    1UNL    H23   45  -0.330   0.081  -0.181
    1UNL    H24   46  -0.292   0.249  -0.016
   0.00000   0.00000   0.00000   0.00000   0.00000   0.00000   0.00000   0.00000   0.00000
Generated with MDTraj, t= 34.0
 46
    1UNL     C1    1   0.061  -0.182   0.206
    1UNL     C2    2   0.044  -0.071   0.130
    1UNL     C3    3   0.015  -0.062  -0.022
    1UNL     C4    4  -0.017  -0.193  -0.083
    1UNL     C5    5   0.144  -0.007  -0.089
    1UNL     C6    6   0.277  -0.103  -0.078
    1UNL     C7    7   0.398  -0.025  -0.110
    1UNL     C8    8   0.472   0.037  -0.016
    1UNL     C9    9   0.441   0.040   0.132
    1UNL    C10   10   0.586   0.113  -0.069
    1UNL     O1   11   0.649   0.191   0.005
    1UNL     O2   12   0.615   0.092  -0.202
    1UNL     O3   13  -0.090   0.030  -0.053
    1UNL    C11   14  -0.215  -0.002   0.014
    1UNL     O4   15  -0.252  -0.142   0.030
    1UNL    C12   16  -0.369  -0.163   0.098
    1UNL    C13   17  -0.492  -0.074   0.061
    1UNL     O5   18  -0.514   0.031   0.159
    1UNL    C14   19  -0.461  -0.002  -0.073
    1UNL     O6   20  -0.574   0.070  -0.124
    1UNL    C15   21  -0.329   0.084  -0.055
    1UNL     O7   22  -0.363   0.196   0.016
    1UNL     H1   23   0.094  -0.175   0.308
    1UNL     H2   24   0.018  -0.274   0.174
    1UNL     H3   25   0.049   0.030   0.169
    1UNL     H4   26  -0.083  -0.254  -0.015
    1UNL     H5   27  -0.053  -0.192  -0.178
    1UNL     H6   28   0.073  -0.265  -0.083
    1UNL     H7   29   0.171   0.081  -0.041
    1UNL     H8   30   0.111   0.017  -0.192
    1UNL     H9   31   0.286  -0.163   0.019
    1UNL    H10   32   0.270  -0.185  -0.145
    1UNL    H11   33   0.415  -0.011  -0.212
    1UNL    H12   34   0.392  -0.048   0.160
    1UNL    H13   35   0.531   0.036   0.197
    1UNL    H14   36   0.382   0.127   0.161
    1UNL    H15   37   0.698   0.137  -0.228
    1UNL    H16   38  -0.212   0.037   0.117
    1UNL    H17   39  -0.395  -0.260   0.069
    1UNL    H18   40  -0.347  -0.156   0.200
    1UNL    H19   41  -0.591  -0.132   0.060
    1UNL    H20   42  -0.461   0.106   0.128
    1UNL    H21   43  -0.437  -0.078  -0.152
    1UNL    H22   44  -0.563   0.165  -0.092
    1UNL    H23   45  -0.288   0.113  -0.149
    1UNL    H24   46  -0.280   0.247   0.027
   0.00000   0.00000   0.00000   0.00000   0.00000   0.00000   0.00000   0.00000   0.00000
Generated with MDTraj, t= 35.0
 46
    1UNL     C1    1   0.084  -0.182   0.228
    1UNL     C2    2   0.050  -0.075   0.154
    1UNL     C3    3   0.022  -0.084   0.005
    1UNL     C4    4  -0.002  -0.226  -0.048
    1UNL     C5    5   0.143  -0.023  -0.072
    1UNL     C6    6   0.270  -0.106  -0.080
    1UNL     C7    7   0.385  -0.026  -0.132
    1UNL     C8    8   0.457   0.051  -0.051
    1UNL     C9    9   0.412   0.063   0.095
    1UNL    C10   10   0.579   0.123  -0.082
    1UNL     O1   11   0.650   0.163   0.008
    1UNL     O2   12   0.608   0.134  -0.212
    1UNL     O3   13  -0.080   0.003  -0.032
    1UNL    C11   14  -0.210  -0.012   0.030
    1UNL     O4   15  -0.258  -0.152   0.033
    1UNL    C12   16  -0.389  -0.162   0.102
    1UNL    C13   17  -0.500  -0.068   0.031
    1UNL     O5   18  -0.569   0.018   0.114
    1UNL    C14   19  -0.441   0.018  -0.085
    1UNL     O6   20  -0.540   0.110  -0.128
    1UNL    C15   21  -0.309   0.090  -0.047
    1UNL     O7   22  -0.333   0.198   0.037
    1UNL     H1   23   0.080  -0.179   0.335
    1UNL     H2   24   0.072  -0.286   0.192
    1UNL     H3   25   0.019   0.009   0.214
    1UNL     H4   26  -0.101  -0.272  -0.014
    1UNL     H5   27  -0.003  -0.204  -0.154
    1UNL     H6   28   0.083  -0.293  -0.030
    1UNL     H7   29   0.154   0.067  -0.020
    1UNL     H8   30   0.113   0.002  -0.176
    1UNL     H9   31   0.287  -0.156   0.020
    1UNL    H10   32   0.253  -0.199  -0.131
    1UNL    H11   33   0.405  -0.033  -0.242
    1UNL    H12   34   0.463  -0.013   0.144
    1UNL    H13   35   0.437   0.155   0.153
    1UNL    H14   36   0.307   0.044   0.110
    1UNL    H15   37   0.697   0.170  -0.211
    1UNL    H16   38  -0.210   0.025   0.133
    1UNL    H17   39  -0.428  -0.259   0.095
    1UNL    H18   40  -0.374  -0.140   0.204
    1UNL    H19   41  -0.586  -0.130  -0.005
    1UNL    H20   42  -0.502   0.085   0.143
    1UNL    H21   43  -0.413  -0.047  -0.174
    1UNL    H22   44  -0.531   0.182  -0.068
    1UNL    H23   45  -0.264   0.123  -0.140
    1UNL    H24   46  -0.253   0.253   0.045
   0.00000   0.00000   0.00000   0.00000   0.00000   0.00000   0.00000   0.00000   0.00000
Generated with MDTraj, t= 36.0
 46
    1UNL     C1    1   0.109  -0.172   0.220
    1UNL     C2    2   0.051  -0.081   0.142
    1UNL     C3    3   0.023  -0.093   0.001
    1UNL     C4    4  -0.023  -0.237  -0.036
    1UNL     C5    5   0.149  -0.047  -0.085
    1UNL     C6    6   0.278  -0.116  -0.056
    1UNL     C7    7   0.398  -0.043  -0.103
    1UNL     C8    8   0.467   0.040  -0.026
    1UNL     C9    9   0.418   0.087   0.105
    1UNL    C10   10   0.580   0.126  -0.088
    1UNL     O1   11   0.672   0.168  -0.028
    1UNL     O2   12   0.564   0.145  -0.217
    1UNL     O3   13  -0.089   0.003  -0.036
    1UNL    C11   14  -0.211  -0.014   0.041
    1UNL     O4   15  -0.263  -0.147   0.023
    1UNL    C12   16  -0.406  -0.155   0.072
    1UNL    C13   17  -0.511  -0.057   0.009
    1UNL     O5   18  -0.573   0.024   0.103
    1UNL    C14   19  -0.424   0.026  -0.091
    1UNL     O6   20  -0.513   0.121  -0.150
    1UNL    C15   21  -0.308   0.089  -0.016
    1UNL     O7   22  -0.349   0.175   0.091
    1UNL     H1   23   0.129  -0.161   0.324
    1UNL     H2   24   0.113  -0.273   0.188
    1UNL     H3   25   0.009   0.002   0.197
    1UNL     H4   26  -0.106  -0.255   0.037
    1UNL     H5   27  -0.059  -0.237  -0.148
    1UNL     H6   28   0.061  -0.295  -0.016
    1UNL     H7   29   0.157   0.057  -0.068
    1UNL     H8   30   0.121  -0.056  -0.190
    1UNL     H9   31   0.287  -0.132   0.050
    1UNL    H10   32   0.275  -0.219  -0.084
    1UNL    H11   33   0.436  -0.057  -0.198
    1UNL    H12   34   0.506   0.084   0.165
    1UNL    H13   35   0.377   0.189   0.100
    1UNL    H14   36   0.346   0.022   0.154
    1UNL    H15   37   0.633   0.206  -0.244
    1UNL    H16   38  -0.193   0.002   0.147
    1UNL    H17   39  -0.438  -0.257   0.074
    1UNL    H18   40  -0.413  -0.122   0.174
    1UNL    H19   41  -0.587  -0.112  -0.045
    1UNL    H20   42  -0.504   0.093   0.110
    1UNL    H21   43  -0.381  -0.041  -0.175
    1UNL    H22   44  -0.569   0.167  -0.080
    1UNL    H23   45  -0.249   0.147  -0.092
    1UNL    H24   46  -0.279   0.239   0.113
   0.00000   0.00000   0.00000   0.00000   0.00000   0.00000   0.00000   0.00000   0.00000
Generated with MDTraj, t= 37.0
 46
    1UNL     C1    1   0.084  -0.178   0.234
    1UNL     C2    2   0.044  -0.078   0.153
    1UNL     C3    3   0.025  -0.094  -0.001
    1UNL     C4    4  -0.013  -0.247  -0.035
    1UNL     C5    5   0.150  -0.048  -0.068
    1UNL     C6    6   0.280  -0.112  -0.023
    1UNL     C7    7   0.395  -0.041  -0.080
    1UNL     C8    8   0.462   0.056  -0.021
    1UNL     C9    9   0.433   0.094   0.120
    1UNL    C10   10   0.570   0.119  -0.107
    1UNL     O1   11   0.668   0.162  -0.057
    1UNL     O2   12   0.528   0.134  -0.240
    1UNL     O3   13  -0.077  -0.004  -0.040
    1UNL    C11   14  -0.207  -0.014   0.021
    1UNL     O4   15  -0.261  -0.142   0.018
    1UNL    C12   16  -0.390  -0.147   0.073
    1UNL    C13   17  -0.489  -0.069  -0.009
    1UNL     O5   18  -0.587   0.007   0.066
    1UNL    C14   19  -0.412   0.044  -0.096
    1UNL     O6   20  -0.496   0.157  -0.125
    1UNL    C15   21  -0.298   0.101  -0.015
    1UNL     O7   22  -0.366   0.149   0.108
    1UNL     H1   23   0.097  -0.173   0.344
    1UNL     H2   24   0.102  -0.279   0.200
    1UNL     H3   25   0.015   0.012   0.204
    1UNL     H4   26  -0.101  -0.267   0.026
    1UNL     H5   27  -0.035  -0.263  -0.149
    1UNL     H6   28   0.074  -0.303  -0.006
    1UNL     H7   29   0.162   0.059  -0.057
    1UNL     H8   30   0.132  -0.071  -0.172
    1UNL     H9   31   0.286  -0.111   0.079
    1UNL    H10   32   0.288  -0.212  -0.061
    1UNL    H11   33   0.422  -0.066  -0.186
    1UNL    H12   34   0.439   0.202   0.124
    1UNL    H13   35   0.335   0.068   0.156
    1UNL    H14   36   0.509   0.058   0.187
    1UNL    H15   37   0.598   0.192  -0.273
    1UNL    H16   38  -0.190   0.006   0.126
    1UNL    H17   39  -0.427  -0.250   0.073
    1UNL    H18   40  -0.391  -0.114   0.178
    1UNL    H19   41  -0.548  -0.133  -0.071
    1UNL    H20   42  -0.536   0.060   0.133
    1UNL    H21   43  -0.370  -0.000  -0.194
    1UNL    H22   44  -0.520   0.202  -0.039
    1UNL    H23   45  -0.239   0.188  -0.059
    1UNL    H24   46  -0.315   0.219   0.155
   0.00000   0.00000   0.00000   0.00000   0.00000   0.00000   0.00000   0.00000   0.00000
Generated with MDTraj, t= 38.0
 46
    1UNL     C1    1   0.014  -0.193   0.260
    1UNL     C2    2   0.048  -0.092   0.179
    1UNL     C3    3   0.033  -0.089   0.031
    1UNL     C4    4  -0.003  -0.224  -0.028
    1UNL     C5    5   0.161  -0.032  -0.047
    1UNL     C6    6   0.288  -0.120  -0.017
    1UNL     C7    7   0.406  -0.053  -0.090
    1UNL     C8    8   0.477   0.053  -0.044
    1UNL     C9    9   0.456   0.101   0.095
    1UNL    C10   10   0.577   0.122  -0.124
    1UNL     O1   11   0.663   0.185  -0.075
    1UNL     O2   12   0.552   0.131  -0.258
    1UNL     O3   13  -0.074   0.000  -0.012
    1UNL    C11   14  -0.208  -0.027   0.053
    1UNL     O4   15  -0.271  -0.153   0.003
    1UNL    C12   16  -0.408  -0.160   0.037
    1UNL    C13   17  -0.503  -0.059  -0.035
    1UNL     O5   18  -0.608  -0.006   0.048
    1UNL    C14   19  -0.411   0.052  -0.087
    1UNL     O6   20  -0.485   0.161  -0.123
    1UNL    C15   21  -0.300   0.094   0.008
    1UNL     O7   22  -0.357   0.157   0.120
    1UNL     H1   23   0.033  -0.183   0.363
    1UNL     H2   24  -0.035  -0.284   0.230
    1UNL     H3   25   0.091   0.001   0.219
    1UNL     H4   26  -0.098  -0.266   0.007
    1UNL     H5   27  -0.011  -0.207  -0.137
    1UNL     H6   28   0.078  -0.306  -0.013
    1UNL     H7   29   0.184   0.069  -0.011
    1UNL     H8   30   0.157  -0.021  -0.151
    1UNL     H9   31   0.307  -0.119   0.085
    1UNL    H10   32   0.270  -0.218  -0.058
    1UNL    H11   33   0.412  -0.079  -0.191
    1UNL    H12   34   0.353   0.135   0.108
    1UNL    H13   35   0.458   0.017   0.157
    1UNL    H14   36   0.522   0.183   0.126
    1UNL    H15   37   0.630   0.180  -0.293
    1UNL    H16   38  -0.196  -0.033   0.161
    1UNL    H17   39  -0.444  -0.264   0.028
    1UNL    H18   40  -0.411  -0.144   0.149
    1UNL    H19   41  -0.554  -0.110  -0.112
    1UNL    H20   42  -0.572   0.056   0.114
    1UNL    H21   43  -0.358   0.006  -0.180
    1UNL    H22   44  -0.569   0.163  -0.079
    1UNL    H23   45  -0.234   0.177  -0.040
    1UNL    H24   46  -0.311   0.244   0.138
   0.00000   0.00000   0.00000   0.00000   0.00000   0.00000   0.00000   0.00000   0.00000
Generated with MDTraj, t= 39.0
 46
    1UNL     C1    1  -0.051  -0.178   0.269
    1UNL     C2    2   0.044  -0.123   0.191
    1UNL     C3    3   0.024  -0.091   0.045
    1UNL     C4    4  -0.005  -0.217  -0.033
    1UNL     C5    5   0.148  -0.019  -0.018
    1UNL     C6    6   0.282  -0.099  -0.034
    1UNL     C7    7   0.382  -0.017  -0.104
    1UNL     C8    8   0.470   0.067  -0.048
    1UNL     C9    9   0.483   0.108   0.094
    1UNL    C10   10   0.573   0.124  -0.136
    1UNL     O1   11   0.659   0.194  -0.095
    1UNL     O2   12   0.574   0.078  -0.264
    1UNL     O3   13  -0.078   0.010   0.019
    1UNL    C11   14  -0.214  -0.021   0.061
    1UNL     O4   15  -0.253  -0.151  -0.001
    1UNL    C12   16  -0.392  -0.180   0.007
    1UNL    C13   17  -0.491  -0.062  -0.045
    1UNL     O5   18  -0.580  -0.016   0.051
    1UNL    C14   19  -0.395   0.056  -0.087
    1UNL     O6   20  -0.464   0.166  -0.131
    1UNL    C15   21  -0.305   0.098   0.024
    1UNL     O7   22  -0.379   0.142   0.137
    1UNL     H1   23  -0.030  -0.193   0.375
    1UNL     H2   24  -0.131  -0.240   0.226
    1UNL     H3   25   0.132  -0.087   0.240
    1UNL     H4   26  -0.095  -0.277  -0.001
    1UNL     H5   27  -0.021  -0.196  -0.135
    1UNL     H6   28   0.076  -0.304  -0.035
    1UNL     H7   29   0.168   0.074   0.042
    1UNL     H8   30   0.125   0.029  -0.108
    1UNL     H9   31   0.320  -0.150   0.053
    1UNL    H10   32   0.262  -0.176  -0.105
    1UNL    H11   33   0.392  -0.032  -0.214
    1UNL    H12   34   0.394   0.079   0.152
    1UNL    H13   35   0.556   0.050   0.143
    1UNL    H14   36   0.500   0.216   0.099
    1UNL    H15   37   0.654   0.105  -0.317
    1UNL    H16   38  -0.214  -0.045   0.166
    1UNL    H17   39  -0.398  -0.272  -0.057
    1UNL    H18   40  -0.418  -0.224   0.111
    1UNL    H19   41  -0.546  -0.094  -0.131
    1UNL    H20   42  -0.532   0.053   0.102
    1UNL    H21   43  -0.327   0.027  -0.176
    1UNL    H22   44  -0.557   0.175  -0.090
    1UNL    H23   45  -0.245   0.193  -0.005
    1UNL    H24   46  -0.416   0.230   0.116
   0.00000   0.00000   0.00000   0.00000   0.00000   0.00000   0.00000   0.00000   0.00000
Generated with MDTraj, t= 40.0
 46
    1UNL     C1    1  -0.025  -0.221   0.255
    1UNL     C2    2   0.050  -0.129   0.192
    1UNL     C3    3   0.027  -0.071   0.053
    1UNL     C4    4  -0.001  -0.191  -0.046
    1UNL     C5    5   0.152  -0.005   0.011
    1UNL     C6    6   0.286  -0.089  -0.004
    1UNL     C7    7   0.383  -0.026  -0.093
    1UNL     C8    8   0.480   0.054  -0.055
    1UNL     C9    9   0.501   0.103   0.084
    1UNL    C10   10   0.572   0.111  -0.149
    1UNL     O1   11   0.632   0.213  -0.112
    1UNL     O2   12   0.605   0.045  -0.268
    1UNL     O3   13  -0.080   0.025   0.055
    1UNL    C11   14  -0.212  -0.016   0.063
    1UNL     O4   15  -0.247  -0.137  -0.005
    1UNL    C12   16  -0.390  -0.171   0.005
    1UNL    C13   17  -0.488  -0.068  -0.056
    1UNL     O5   18  -0.587  -0.019   0.027
    1UNL    C14   19  -0.408   0.058  -0.094
    1UNL     O6   20  -0.497   0.168  -0.112
    1UNL    C15   21  -0.310   0.095   0.019
    1UNL     O7   22  -0.400   0.139   0.129
    1UNL     H1   23   0.012  -0.253   0.351
    1UNL     H2   24  -0.105  -0.261   0.201
    1UNL     H3   25   0.152  -0.116   0.229
    1UNL     H4   26  -0.095  -0.243  -0.010
    1UNL     H5   27  -0.019  -0.166  -0.151
    1UNL     H6   28   0.077  -0.264  -0.046
    1UNL     H7   29   0.170   0.096   0.059
    1UNL     H8   30   0.120   0.035  -0.081
    1UNL     H9   31   0.335  -0.110   0.093
    1UNL    H10   32   0.266  -0.187  -0.035
    1UNL    H11   33   0.383  -0.056  -0.195
    1UNL    H12   34   0.415   0.135   0.139
    1UNL    H13   35   0.541   0.025   0.148
    1UNL    H14   36   0.567   0.189   0.073
    1UNL    H15   37   0.675   0.103  -0.307
    1UNL    H16   38  -0.226  -0.042   0.167
    1UNL    H17   39  -0.410  -0.272  -0.040
    1UNL    H18   40  -0.408  -0.177   0.119
    1UNL    H19   41  -0.538  -0.104  -0.145
    1UNL    H20   42  -0.555   0.001   0.119
    1UNL    H21   43  -0.349   0.037  -0.190
    1UNL    H22   44  -0.591   0.141  -0.121
    1UNL    H23   45  -0.247   0.189  -0.004
    1UNL    H24   46  -0.464   0.202   0.092
   0.00000   0.00000   0.00000   0.00000   0.00000   0.00000   0.00000   0.00000   0.00000
Generated with MDTraj, t= 41.0
 46
    1UNL     C1    1   0.002  -0.241   0.215
    1UNL     C2    2   0.020  -0.114   0.182
    1UNL     C3    3   0.022  -0.073   0.043
    1UNL     C4    4  -0.003  -0.181  -0.060
    1UNL     C5    5   0.155  -0.002   0.006
    1UNL     C6    6   0.280  -0.084   0.008
    1UNL     C7    7   0.389  -0.025  -0.067
    1UNL     C8    8   0.488   0.058  -0.033
    1UNL     C9    9   0.523   0.119   0.093
    1UNL    C10   10   0.578   0.101  -0.146
    1UNL     O1   11   0.620   0.219  -0.143
    1UNL     O2   12   0.598   0.017  -0.249
    1UNL     O3   13  -0.084   0.031   0.022
    1UNL    C11   14  -0.208  -0.011   0.066
    1UNL     O4   15  -0.258  -0.135   0.008
    1UNL    C12   16  -0.396  -0.169   0.026
    1UNL    C13   17  -0.480  -0.071  -0.059
    1UNL     O5   18  -0.608  -0.045  -0.002
    1UNL    C14   19  -0.404   0.068  -0.080
    1UNL     O6   20  -0.502   0.164  -0.108
    1UNL    C15   21  -0.304   0.101   0.033
    1UNL     O7   22  -0.377   0.142   0.149
    1UNL     H1   23  -0.011  -0.262   0.320
    1UNL     H2   24   0.007  -0.323   0.143
    1UNL     H3   25   0.051  -0.036   0.248
    1UNL     H4   26  -0.104  -0.219  -0.047
    1UNL     H5   27  -0.002  -0.135  -0.163
    1UNL     H6   28   0.075  -0.248  -0.053
    1UNL     H7   29   0.160   0.093   0.068
    1UNL     H8   30   0.154   0.049  -0.087
    1UNL     H9   31   0.307  -0.089   0.118
    1UNL    H10   32   0.262  -0.187  -0.007
    1UNL    H11   33   0.385  -0.043  -0.173
    1UNL    H12   34   0.453   0.186   0.137
    1UNL    H13   35   0.529   0.046   0.176
    1UNL    H14   36   0.615   0.173   0.079
    1UNL    H15   37   0.655   0.059  -0.315
    1UNL    H16   38  -0.204  -0.037   0.172
    1UNL    H17   39  -0.417  -0.276   0.001
    1UNL    H18   40  -0.429  -0.150   0.133
    1UNL    H19   41  -0.501  -0.113  -0.159
    1UNL    H20   42  -0.603  -0.024   0.093
    1UNL    H21   43  -0.349   0.043  -0.173
    1UNL    H22   44  -0.589   0.136  -0.071
    1UNL    H23   45  -0.243   0.194   0.007
    1UNL    H24   46  -0.449   0.204   0.119
   0.00000   0.00000   0.00000   0.00000   0.00000   0.00000   0.00000   0.00000   0.00000
Generated with MDTraj, t= 42.0
 46
    1UNL     C1    1   0.027  -0.249   0.191
    1UNL     C2    2   0.035  -0.120   0.159
    1UNL     C3    3   0.028  -0.064   0.014
    1UNL     C4    4   0.021  -0.180  -0.079
    1UNL     C5    5   0.157   0.010  -0.007
    1UNL     C6    6   0.280  -0.062   0.036
    1UNL     C7    7   0.396  -0.036  -0.052
    1UNL     C8    8   0.487   0.059  -0.032
    1UNL     C9    9   0.502   0.147   0.092
    1UNL    C10   10   0.581   0.088  -0.143
    1UNL     O1   11   0.633   0.204  -0.140
    1UNL     O2   12   0.597   0.000  -0.241
    1UNL     O3   13  -0.081   0.025  -0.003
    1UNL    C11   14  -0.207  -0.007   0.063
    1UNL     O4   15  -0.263  -0.140   0.026
    1UNL    C12   16  -0.400  -0.151   0.050
    1UNL    C13   17  -0.484  -0.066  -0.054
    1UNL     O5   18  -0.613  -0.034  -0.001
    1UNL    C14   19  -0.412   0.072  -0.078
    1UNL     O6   20  -0.508   0.168  -0.096
    1UNL    C15   21  -0.315   0.105   0.042
    1UNL     O7   22  -0.402   0.108   0.155
    1UNL     H1   23   0.043  -0.279   0.291
    1UNL     H2   24   0.048  -0.327   0.120
    1UNL     H3   25   0.007  -0.056   0.244
    1UNL     H4   26  -0.073  -0.223  -0.076
    1UNL     H5   27   0.029  -0.148  -0.186
    1UNL     H6   28   0.107  -0.245  -0.067
    1UNL     H7   29   0.152   0.103   0.056
    1UNL     H8   30   0.170   0.052  -0.106
    1UNL     H9   31   0.306  -0.045   0.146
    1UNL    H10   32   0.255  -0.169   0.039
    1UNL    H11   33   0.397  -0.092  -0.147
    1UNL    H12   34   0.407   0.183   0.123
    1UNL    H13   35   0.519   0.080   0.181
    1UNL    H14   36   0.574   0.225   0.083
    1UNL    H15   37   0.657   0.031  -0.309
    1UNL    H16   38  -0.180  -0.018   0.170
    1UNL    H17   39  -0.428  -0.257   0.041
    1UNL    H18   40  -0.423  -0.123   0.156
    1UNL    H19   41  -0.494  -0.115  -0.156
    1UNL    H20   42  -0.593   0.041   0.061
    1UNL    H21   43  -0.354   0.073  -0.169
    1UNL    H22   44  -0.581   0.147  -0.165
    1UNL    H23   45  -0.270   0.205   0.028
    1UNL    H24   46  -0.467   0.182   0.146
   0.00000   0.00000   0.00000   0.00000   0.00000   0.00000   0.00000   0.00000   0.00000
Generated with MDTraj, t= 43.0
 46
    1UNL     C1    1   0.033  -0.261   0.185
    1UNL     C2    2   0.023  -0.134   0.158
    1UNL     C3    3   0.018  -0.070   0.026
    1UNL     C4    4  -0.019  -0.167  -0.084
    1UNL     C5    5   0.147   0.007  -0.025
    1UNL     C6    6   0.280  -0.057   0.023
    1UNL     C7    7   0.399  -0.028  -0.066
    1UNL     C8    8   0.482   0.075  -0.046
    1UNL     C9    9   0.463   0.177   0.068
    1UNL    C10   10   0.590   0.089  -0.136
    1UNL     O1   11   0.676   0.181  -0.119
    1UNL     O2   12   0.608  -0.011  -0.230
    1UNL     O3   13  -0.085   0.034   0.033
    1UNL    C11   14  -0.214  -0.010   0.074
    1UNL     O4   15  -0.248  -0.139   0.017
    1UNL    C12   16  -0.385  -0.166   0.028
    1UNL    C13   17  -0.480  -0.071  -0.057
    1UNL     O5   18  -0.611  -0.048   0.011
    1UNL    C14   19  -0.411   0.066  -0.078
    1UNL     O6   20  -0.501   0.170  -0.095
    1UNL    C15   21  -0.321   0.102   0.042
    1UNL     O7   22  -0.393   0.138   0.160
    1UNL     H1   23   0.033  -0.303   0.286
    1UNL     H2   24   0.041  -0.331   0.105
    1UNL     H3   25   0.004  -0.066   0.236
    1UNL     H4   26  -0.099  -0.226  -0.049
    1UNL     H5   27  -0.064  -0.128  -0.173
    1UNL     H6   28   0.061  -0.236  -0.119
    1UNL     H7   29   0.145   0.112   0.010
    1UNL     H8   30   0.133   0.021  -0.136
    1UNL     H9   31   0.306  -0.016   0.126
    1UNL    H10   32   0.274  -0.168   0.044
    1UNL    H11   33   0.419  -0.102  -0.138
    1UNL    H12   34   0.361   0.209   0.075
    1UNL    H13   35   0.498   0.130   0.163
    1UNL    H14   36   0.518   0.267   0.053
    1UNL    H15   37   0.688   0.008  -0.280
    1UNL    H16   38  -0.206  -0.021   0.185
    1UNL    H17   39  -0.404  -0.270   0.017
    1UNL    H18   40  -0.410  -0.150   0.134
    1UNL    H19   41  -0.497  -0.123  -0.159
    1UNL    H20   42  -0.593  -0.002   0.098
    1UNL    H21   43  -0.349   0.064  -0.164
    1UNL    H22   44  -0.593   0.150  -0.083
    1UNL    H23   45  -0.268   0.192   0.014
    1UNL    H24   46  -0.450   0.214   0.143
   0.00000   0.00000   0.00000   0.00000   0.00000   0.00000   0.00000   0.00000   0.00000
Generated with MDTraj, t= 44.0
 46
    1UNL     C1    1   0.054  -0.252   0.182
    1UNL     C2    2   0.025  -0.124   0.161
    1UNL     C3    3   0.026  -0.059   0.029
    1UNL     C4    4  -0.004  -0.151  -0.088
    1UNL     C5    5   0.157   0.016  -0.009
    1UNL     C6    6   0.285  -0.087  -0.003
    1UNL     C7    7   0.402  -0.041  -0.073
    1UNL     C8    8   0.466   0.076  -0.059
    1UNL     C9    9   0.420   0.188   0.023
    1UNL    C10   10   0.608   0.089  -0.120
    1UNL     O1   11   0.699   0.162  -0.078
    1UNL     O2   12   0.618   0.002  -0.226
    1UNL     O3   13  -0.091   0.030   0.036
    1UNL    C11   14  -0.217  -0.016   0.060
    1UNL     O4   15  -0.260  -0.139   0.007
    1UNL    C12   16  -0.399  -0.171   0.029
    1UNL    C13   17  -0.494  -0.071  -0.037
    1UNL     O5   18  -0.610  -0.043   0.048
    1UNL    C14   19  -0.415   0.060  -0.078
    1UNL     O6   20  -0.498   0.175  -0.107
    1UNL    C15   21  -0.319   0.105   0.038
    1UNL     O7   22  -0.400   0.131   0.154
    1UNL     H1   23   0.032  -0.294   0.279
    1UNL     H2   24   0.058  -0.332   0.112
    1UNL     H3   25   0.027  -0.056   0.248
    1UNL     H4   26  -0.101  -0.207  -0.080
    1UNL     H5   27  -0.022  -0.090  -0.167
    1UNL     H6   28   0.081  -0.213  -0.122
    1UNL     H7   29   0.165   0.104   0.056
    1UNL     H8   30   0.149   0.049  -0.120
    1UNL     H9   31   0.316  -0.100   0.105
    1UNL    H10   32   0.262  -0.196  -0.041
    1UNL    H11   33   0.444  -0.111  -0.150
    1UNL    H12   34   0.338   0.245  -0.021
    1UNL    H13   35   0.403   0.156   0.127
    1UNL    H14   36   0.502   0.258   0.019
    1UNL    H15   37   0.706  -0.004  -0.271
    1UNL    H16   38  -0.215  -0.026   0.172
    1UNL    H17   39  -0.417  -0.266  -0.010
    1UNL    H18   40  -0.419  -0.183   0.134
    1UNL    H19   41  -0.538  -0.126  -0.131
    1UNL    H20   42  -0.586   0.014   0.122
    1UNL    H21   43  -0.366   0.027  -0.165
    1UNL    H22   44  -0.596   0.154  -0.102
    1UNL    H23   45  -0.277   0.198   0.009
    1UNL    H24   46  -0.457   0.211   0.140
   0.00000   0.00000   0.00000   0.00000   0.00000   0.00000   0.00000   0.00000   0.00000
Generated with MDTraj, t= 45.0
 46
    1UNL     C1    1   0.059  -0.254   0.180
    1UNL     C2    2   0.016  -0.133   0.149
    1UNL     C3    3   0.019  -0.074   0.010
    1UNL     C4    4  -0.003  -0.179  -0.095
    1UNL     C5    5   0.152  -0.008  -0.026
    1UNL     C6    6   0.281  -0.095   0.006
    1UNL     C7    7   0.402  -0.050  -0.067
    1UNL     C8    8   0.462   0.072  -0.050
    1UNL     C9    9   0.404   0.189   0.024
    1UNL    C10   10   0.603   0.089  -0.111
    1UNL     O1   11   0.676   0.170  -0.059
    1UNL     O2   12   0.632   0.018  -0.226
    1UNL     O3   13  -0.082   0.031   0.001
    1UNL    C11   14  -0.210  -0.005   0.054
    1UNL     O4   15  -0.254  -0.131   0.008
    1UNL    C12   16  -0.387  -0.158   0.041
    1UNL    C13   17  -0.491  -0.063  -0.025
    1UNL     O5   18  -0.585  -0.034   0.075
    1UNL    C14   19  -0.421   0.066  -0.080
    1UNL     O6   20  -0.516   0.172  -0.110
    1UNL    C15   21  -0.324   0.110   0.031
    1UNL     O7   22  -0.392   0.135   0.148
    1UNL     H1   23   0.068  -0.289   0.280
    1UNL     H2   24   0.099  -0.322   0.106
    1UNL     H3   25  -0.024  -0.066   0.219
    1UNL     H4   26  -0.110  -0.206  -0.070
    1UNL     H5   27  -0.004  -0.135  -0.191
    1UNL     H6   28   0.065  -0.258  -0.092
    1UNL     H7   29   0.160   0.086   0.031
    1UNL     H8   30   0.142   0.005  -0.143
    1UNL     H9   31   0.303  -0.097   0.118
    1UNL    H10   32   0.254  -0.205  -0.021
    1UNL    H11   33   0.443  -0.117  -0.134
    1UNL    H12   34   0.339   0.251  -0.040
    1UNL    H13   35   0.359   0.155   0.113
    1UNL    H14   36   0.481   0.263   0.051
    1UNL    H15   37   0.723   0.040  -0.262
    1UNL    H16   38  -0.179  -0.007   0.161
    1UNL    H17   39  -0.407  -0.260   0.029
    1UNL    H18   40  -0.391  -0.142   0.148
    1UNL    H19   41  -0.540  -0.107  -0.121
    1UNL    H20   42  -0.538   0.006   0.154
    1UNL    H21   43  -0.368   0.049  -0.170
    1UNL    H22   44  -0.604   0.157  -0.065
    1UNL    H23   45  -0.273   0.194  -0.003
    1UNL    H24   46  -0.441   0.221   0.138
   0.00000   0.00000   0.00000   0.00000   0.00000   0.00000   0.00000   0.00000   0.00000
Generated with MDTraj, t= 46.0
 46
    1UNL     C1    1   0.042  -0.253   0.176
    1UNL     C2    2   0.041  -0.128   0.135
    1UNL     C3    3   0.014  -0.086  -0.009
    1UNL     C4    4  -0.026  -0.204  -0.098
    1UNL     C5    5   0.153  -0.026  -0.059
    1UNL     C6    6   0.276  -0.095  -0.013
    1UNL     C7    7   0.407  -0.045  -0.065
    1UNL     C8    8   0.473   0.067  -0.021
    1UNL     C9    9   0.413   0.183   0.067
    1UNL    C10   10   0.590   0.102  -0.097
    1UNL     O1   11   0.647   0.201  -0.067
    1UNL     O2   12   0.625   0.023  -0.206
    1UNL     O3   13  -0.081   0.019  -0.012
    1UNL    C11   14  -0.207  -0.019   0.038
    1UNL     O4   15  -0.266  -0.150   0.011
    1UNL    C12   16  -0.393  -0.161   0.065
    1UNL    C13   17  -0.499  -0.064  -0.011
    1UNL     O5   18  -0.583  -0.023   0.084
    1UNL    C14   19  -0.430   0.066  -0.076
    1UNL     O6   20  -0.525   0.172  -0.087
    1UNL    C15   21  -0.303   0.108   0.003
    1UNL     O7   22  -0.325   0.171   0.122
    1UNL     H1   23   0.052  -0.294   0.275
    1UNL     H2   24   0.056  -0.323   0.095
    1UNL     H3   25   0.033  -0.044   0.205
    1UNL     H4   26  -0.108  -0.257  -0.054
    1UNL     H5   27  -0.060  -0.167  -0.199
    1UNL     H6   28   0.053  -0.269  -0.114
    1UNL     H7   29   0.148   0.078  -0.019
    1UNL     H8   30   0.161  -0.027  -0.176
    1UNL     H9   31   0.275  -0.089   0.102
    1UNL    H10   32   0.270  -0.209  -0.027
    1UNL    H11   33   0.458  -0.113  -0.139
    1UNL    H12   34   0.333   0.233   0.009
    1UNL    H13   35   0.370   0.137   0.151
    1UNL    H14   36   0.476   0.269   0.095
    1UNL    H15   37   0.693   0.084  -0.243
    1UNL    H16   38  -0.192  -0.011   0.148
    1UNL    H17   39  -0.420  -0.262   0.055
    1UNL    H18   40  -0.389  -0.142   0.173
    1UNL    H19   41  -0.555  -0.119  -0.095
    1UNL    H20   42  -0.532   0.036   0.146
    1UNL    H21   43  -0.405   0.042  -0.177
    1UNL    H22   44  -0.613   0.144  -0.060
    1UNL    H23   45  -0.255   0.175  -0.063
    1UNL    H24   46  -0.395   0.237   0.102
   0.00000   0.00000   0.00000   0.00000   0.00000   0.00000   0.00000   0.00000   0.00000
Generated with MDTraj, t= 47.0
 46
    1UNL     C1    1   0.022  -0.251   0.187
    1UNL     C2    2   0.022  -0.131   0.135
    1UNL     C3    3   0.016  -0.106  -0.020
    1UNL     C4    4  -0.005  -0.232  -0.096
    1UNL     C5    5   0.161  -0.033  -0.056
    1UNL     C6    6   0.285  -0.105  -0.036
    1UNL     C7    7   0.409  -0.047  -0.082
    1UNL     C8    8   0.474   0.051  -0.017
    1UNL     C9    9   0.434   0.131   0.097
    1UNL    C10   10   0.584   0.128  -0.092
    1UNL     O1   11   0.608   0.241  -0.073
    1UNL     O2   12   0.646   0.046  -0.181
    1UNL     O3   13  -0.089  -0.002  -0.056
    1UNL    C11   14  -0.204  -0.022   0.018
    1UNL     O4   15  -0.272  -0.148   0.007
    1UNL    C12   16  -0.391  -0.147   0.076
    1UNL    C13   17  -0.500  -0.048   0.014
    1UNL     O5   18  -0.560   0.011   0.122
    1UNL    C14   19  -0.440   0.066  -0.076
    1UNL     O6   20  -0.543   0.166  -0.088
    1UNL    C15   21  -0.302   0.103  -0.013
    1UNL     O7   22  -0.323   0.174   0.105
    1UNL     H1   23   0.007  -0.269   0.293
    1UNL     H2   24   0.030  -0.334   0.122
    1UNL     H3   25   0.040  -0.050   0.203
    1UNL     H4   26  -0.092  -0.282  -0.083
    1UNL     H5   27   0.007  -0.205  -0.205
    1UNL     H6   28   0.079  -0.299  -0.081
    1UNL     H7   29   0.161   0.068  -0.011
    1UNL     H8   30   0.154  -0.020  -0.170
    1UNL     H9   31   0.303  -0.132   0.076
    1UNL    H10   32   0.275  -0.212  -0.072
    1UNL    H11   33   0.448  -0.075  -0.173
    1UNL    H12   34   0.390   0.221   0.054
    1UNL    H13   35   0.362   0.079   0.159
    1UNL    H14   36   0.523   0.160   0.155
    1UNL    H15   37   0.718   0.099  -0.219
    1UNL    H16   38  -0.176   0.002   0.122
    1UNL    H17   39  -0.434  -0.244   0.102
    1UNL    H18   40  -0.359  -0.107   0.176
    1UNL    H19   41  -0.579  -0.107  -0.039
    1UNL    H20   42  -0.504   0.082   0.157
    1UNL    H21   43  -0.421   0.016  -0.172
    1UNL    H22   44  -0.634   0.126  -0.074
    1UNL    H23   45  -0.249   0.166  -0.081
    1UNL    H24   46  -0.351   0.263   0.080
   0.00000   0.00000   0.00000   0.00000   0.00000   0.00000   0.00000   0.00000   0.00000
Generated with MDTraj, t= 48.0
 46
    1UNL     C1    1  -0.011  -0.216   0.202
    1UNL     C2    2   0.040  -0.118   0.130
    1UNL     C3    3   0.024  -0.099  -0.024
    1UNL     C4    4  -0.004  -0.230  -0.104
    1UNL     C5    5   0.152  -0.035  -0.085
    1UNL     C6    6   0.285  -0.117  -0.057
    1UNL     C7    7   0.408  -0.048  -0.094
    1UNL     C8    8   0.459   0.047  -0.022
    1UNL     C9    9   0.432   0.078   0.111
    1UNL    C10   10   0.565   0.134  -0.084
    1UNL     O1   11   0.562   0.250  -0.056
    1UNL     O2   12   0.653   0.064  -0.164
    1UNL     O3   13  -0.089  -0.003  -0.057
    1UNL    C11   14  -0.206  -0.018   0.016
    1UNL     O4   15  -0.268  -0.149   0.010
    1UNL    C12   16  -0.388  -0.164   0.078
    1UNL    C13   17  -0.493  -0.052   0.039
    1UNL     O5   18  -0.518   0.028   0.153
    1UNL    C14   19  -0.438   0.044  -0.075
    1UNL     O6   20  -0.532   0.156  -0.108
    1UNL    C15   21  -0.298   0.100  -0.025
    1UNL     O7   22  -0.314   0.192   0.080
    1UNL     H1   23  -0.008  -0.244   0.306
    1UNL     H2   24  -0.064  -0.286   0.139
    1UNL     H3   25   0.090  -0.038   0.182
    1UNL     H4   26  -0.101  -0.255  -0.073
    1UNL     H5   27  -0.003  -0.234  -0.212
    1UNL     H6   28   0.057  -0.317  -0.073
    1UNL     H7   29   0.165   0.072  -0.053
    1UNL     H8   30   0.126  -0.028  -0.193
    1UNL     H9   31   0.286  -0.156   0.053
    1UNL    H10   32   0.286  -0.217  -0.108
    1UNL    H11   33   0.445  -0.056  -0.200
    1UNL    H12   34   0.346   0.141   0.111
    1UNL    H13   35   0.409  -0.015   0.168
    1UNL    H14   36   0.515   0.129   0.160
    1UNL    H15   37   0.727   0.124  -0.175
    1UNL    H16   38  -0.175  -0.003   0.121
    1UNL    H17   39  -0.423  -0.270   0.079
    1UNL    H18   40  -0.365  -0.146   0.189
    1UNL    H19   41  -0.593  -0.088   0.013
    1UNL    H20   42  -0.440   0.091   0.154
    1UNL    H21   43  -0.427  -0.014  -0.170
    1UNL    H22   44  -0.582   0.193  -0.031
    1UNL    H23   45  -0.242   0.147  -0.106
    1UNL    H24   46  -0.327   0.286   0.050
   0.00000   0.00000   0.00000   0.00000   0.00000   0.00000   0.00000   0.00000   0.00000
Generated with MDTraj, t= 49.0
 46
    1UNL     C1    1  -0.042  -0.171   0.213
    1UNL     C2    2   0.047  -0.124   0.126
    1UNL     C3    3   0.025  -0.098  -0.026
    1UNL     C4    4  -0.023  -0.227  -0.099
    1UNL     C5    5   0.154  -0.053  -0.105
    1UNL     C6    6   0.287  -0.139  -0.082
    1UNL     C7    7   0.404  -0.046  -0.115
    1UNL     C8    8   0.443   0.050  -0.036
    1UNL     C9    9   0.408   0.048   0.104
    1UNL    C10   10   0.552   0.135  -0.070
    1UNL     O1   11   0.563   0.246  -0.022
    1UNL     O2   12   0.649   0.085  -0.149
    1UNL     O3   13  -0.073   0.005  -0.036
    1UNL    C11   14  -0.201  -0.013   0.010
    1UNL     O4   15  -0.257  -0.150   0.003
    1UNL    C12   16  -0.373  -0.163   0.082
    1UNL    C13   17  -0.482  -0.055   0.053
    1UNL     O5   18  -0.482   0.027   0.169
    1UNL    C14   19  -0.444   0.033  -0.073
    1UNL     O6   20  -0.530   0.146  -0.082
    1UNL    C15   21  -0.301   0.094  -0.044
    1UNL     O7   22  -0.310   0.207   0.034
    1UNL     H1   23  -0.034  -0.174   0.319
    1UNL     H2   24  -0.141  -0.199   0.178
    1UNL     H3   25   0.137  -0.075   0.167
    1UNL     H4   26  -0.117  -0.274  -0.050
    1UNL     H5   27  -0.048  -0.197  -0.193
    1UNL     H6   28   0.055  -0.303  -0.117
    1UNL     H7   29   0.172   0.055  -0.074
    1UNL     H8   30   0.148  -0.043  -0.212
    1UNL     H9   31   0.306  -0.176   0.025
    1UNL    H10   32   0.281  -0.233  -0.141
    1UNL    H11   33   0.432  -0.042  -0.215
    1UNL    H12   34   0.303   0.023   0.100
    1UNL    H13   35   0.465  -0.036   0.153
    1UNL    H14   36   0.426   0.141   0.157
    1UNL    H15   37   0.703   0.169  -0.154
    1UNL    H16   38  -0.196   0.004   0.116
    1UNL    H17   39  -0.409  -0.271   0.086
    1UNL    H18   40  -0.341  -0.153   0.192
    1UNL    H19   41  -0.580  -0.097   0.045
    1UNL    H20   42  -0.424   0.101   0.142
    1UNL    H21   43  -0.452  -0.032  -0.167
    1UNL    H22   44  -0.546   0.178   0.006
    1UNL    H23   45  -0.260   0.122  -0.143
    1UNL    H24   46  -0.365   0.276  -0.013
   0.00000   0.00000   0.00000   0.00000   0.00000   0.00000   0.00000   0.00000   0.00000
Generated with MDTraj, t= 50.0
 46
    1UNL     C1    1  -0.019  -0.177   0.196
    1UNL     C2    2   0.051  -0.100   0.115
    1UNL     C3    3   0.028  -0.106  -0.033
    1UNL     C4    4   0.004  -0.236  -0.099
    1UNL     C5    5   0.155  -0.044  -0.108
    1UNL     C6    6   0.280  -0.130  -0.091
    1UNL     C7    7   0.401  -0.041  -0.110
    1UNL     C8    8   0.450   0.043  -0.022
    1UNL     C9    9   0.398   0.049   0.117
    1UNL    C10   10   0.564   0.132  -0.053
    1UNL     O1   11   0.595   0.234   0.007
    1UNL     O2   12   0.635   0.094  -0.160
    1UNL     O3   13  -0.087  -0.011  -0.059
    1UNL    C11   14  -0.210  -0.019   0.012
    1UNL     O4   15  -0.270  -0.156   0.010
    1UNL    C12   16  -0.382  -0.160   0.091
    1UNL    C13   17  -0.483  -0.043   0.070
    1UNL     O5   18  -0.461   0.039   0.179
    1UNL    C14   19  -0.463   0.031  -0.062
    1UNL     O6   20  -0.540   0.143  -0.071
    1UNL    C15   21  -0.317   0.085  -0.059
    1UNL     O7   22  -0.311   0.210  -0.002
    1UNL     H1   23  -0.006  -0.172   0.303
    1UNL     H2   24  -0.108  -0.230   0.167
    1UNL     H3   25   0.126  -0.035   0.146
    1UNL     H4   26  -0.101  -0.273  -0.065
    1UNL     H5   27   0.006  -0.211  -0.202
    1UNL     H6   28   0.085  -0.305  -0.078
    1UNL     H7   29   0.176   0.064  -0.078
    1UNL     H8   30   0.133  -0.029  -0.211
    1UNL     H9   31   0.275  -0.194  -0.002
    1UNL    H10   32   0.292  -0.192  -0.184
    1UNL    H11   33   0.436  -0.027  -0.215
    1UNL    H12   34   0.317   0.122   0.121
    1UNL    H13   35   0.352  -0.047   0.148
    1UNL    H14   36   0.476   0.079   0.187
    1UNL    H15   37   0.672   0.179  -0.196
    1UNL    H16   38  -0.204   0.007   0.116
    1UNL    H17   39  -0.433  -0.260   0.076
    1UNL    H18   40  -0.341  -0.173   0.198
    1UNL    H19   41  -0.584  -0.071   0.080
    1UNL    H20   42  -0.393   0.105   0.152
    1UNL    H21   43  -0.481  -0.037  -0.154
    1UNL    H22   44  -0.565   0.167   0.027
    1UNL    H23   45  -0.280   0.097  -0.166
    1UNL    H24   46  -0.347   0.279  -0.059
   0.00000   0.00000   0.00000   0.00000   0.00000   0.00000   0.00000   0.00000   0.00000
Generated with MDTraj, t= 51.0
 46
    1UNL     C1    1  -0.002  -0.182   0.189
    1UNL     C2    2   0.015  -0.090   0.096
    1UNL     C3    3   0.009  -0.101  -0.055
    1UNL     C4    4  -0.009  -0.252  -0.100
    1UNL     C5    5   0.134  -0.036  -0.107
    1UNL     C6    6   0.260  -0.107  -0.067
    1UNL     C7    7   0.390  -0.030  -0.088
    1UNL     C8    8   0.460   0.050  -0.006
    1UNL     C9    9   0.414   0.065   0.134
    1UNL    C10   10   0.581   0.127  -0.053
    1UNL     O1   11   0.637   0.194   0.033
    1UNL     O2   12   0.622   0.115  -0.179
    1UNL     O3   13  -0.102  -0.027  -0.102
    1UNL    C11   14  -0.217  -0.029  -0.027
    1UNL     O4   15  -0.278  -0.159  -0.000
    1UNL    C12   16  -0.352  -0.151   0.113
    1UNL    C13   17  -0.469  -0.046   0.092
    1UNL     O5   18  -0.446   0.055   0.186
    1UNL    C14   19  -0.464   0.023  -0.051
    1UNL     O6   20  -0.564   0.124  -0.065
    1UNL    C15   21  -0.319   0.084  -0.069
    1UNL     O7   22  -0.292   0.212  -0.009
    1UNL     H1   23  -0.008  -0.162   0.296
    1UNL     H2   24  -0.002  -0.283   0.157
    1UNL     H3   25   0.007   0.016   0.128
    1UNL     H4   26  -0.098  -0.287  -0.053
    1UNL     H5   27  -0.004  -0.268  -0.212
    1UNL     H6   28   0.071  -0.313  -0.058
    1UNL     H7   29   0.137   0.075  -0.086
    1UNL     H8   30   0.133  -0.033  -0.213
    1UNL     H9   31   0.265  -0.137   0.033
    1UNL    H10   32   0.260  -0.201  -0.129
    1UNL    H11   33   0.416  -0.016  -0.190
    1UNL    H12   34   0.437   0.167   0.175
    1UNL    H13   35   0.308   0.061   0.150
    1UNL    H14   36   0.464  -0.009   0.196
    1UNL    H15   37   0.704   0.168  -0.188
    1UNL    H16   38  -0.195   0.009   0.071
    1UNL    H17   39  -0.384  -0.257   0.125
    1UNL    H18   40  -0.290  -0.131   0.206
    1UNL    H19   41  -0.567  -0.082   0.109
    1UNL    H20   42  -0.377   0.113   0.144
    1UNL    H21   43  -0.482  -0.051  -0.137
    1UNL    H22   44  -0.571   0.168   0.019
    1UNL    H23   45  -0.292   0.103  -0.179
    1UNL    H24   46  -0.359   0.277  -0.036
   0.00000   0.00000   0.00000   0.00000   0.00000   0.00000   0.00000   0.00000   0.00000
Generated with MDTraj, t= 52.0
 46
    1UNL     C1    1   0.016  -0.185   0.174
    1UNL     C2    2   0.023  -0.087   0.088
    1UNL     C3    3   0.005  -0.097  -0.061
    1UNL     C4    4  -0.025  -0.240  -0.112
    1UNL     C5    5   0.136  -0.041  -0.124
    1UNL     C6    6   0.267  -0.101  -0.061
    1UNL     C7    7   0.402  -0.032  -0.077
    1UNL     C8    8   0.470   0.046   0.013
    1UNL     C9    9   0.423   0.094   0.151
    1UNL    C10   10   0.585   0.119  -0.044
    1UNL     O1   11   0.680   0.150   0.030
    1UNL     O2   12   0.595   0.135  -0.177
    1UNL     O3   13  -0.108  -0.012  -0.097
    1UNL    C11   14  -0.218  -0.021  -0.016
    1UNL     O4   15  -0.266  -0.153   0.010
    1UNL    C12   16  -0.361  -0.158   0.116
    1UNL    C13   17  -0.467  -0.046   0.093
    1UNL     O5   18  -0.438   0.064   0.179
    1UNL    C14   19  -0.477   0.014  -0.049
    1UNL     O6   20  -0.580   0.121  -0.038
    1UNL    C15   21  -0.333   0.065  -0.082
    1UNL     O7   22  -0.320   0.205  -0.052
    1UNL     H1   23   0.041  -0.172   0.277
    1UNL     H2   24  -0.004  -0.284   0.137
    1UNL     H3   25   0.062   0.003   0.127
    1UNL     H4   26  -0.111  -0.277  -0.071
    1UNL     H5   27  -0.026  -0.250  -0.229
    1UNL     H6   28   0.053  -0.309  -0.082
    1UNL     H7   29   0.151   0.066  -0.104
    1UNL     H8   30   0.135  -0.049  -0.230
    1UNL     H9   31   0.247  -0.086   0.040
    1UNL    H10   32   0.281  -0.210  -0.082
    1UNL    H11   33   0.459  -0.045  -0.169
    1UNL    H12   34   0.516   0.124   0.207
    1UNL    H13   35   0.375   0.189   0.148
    1UNL    H14   36   0.371   0.019   0.211
    1UNL    H15   37   0.688   0.162  -0.188
    1UNL    H16   38  -0.199   0.022   0.081
    1UNL    H17   39  -0.398  -0.255   0.148
    1UNL    H18   40  -0.301  -0.133   0.205
    1UNL    H19   41  -0.563  -0.083   0.120
    1UNL    H20   42  -0.379   0.126   0.133
    1UNL    H21   43  -0.516  -0.071  -0.114
    1UNL    H22   44  -0.597   0.136   0.059
    1UNL    H23   45  -0.314   0.050  -0.196
    1UNL    H24   46  -0.408   0.248  -0.076
   0.00000   0.00000   0.00000   0.00000   0.00000   0.00000   0.00000   0.00000   0.00000
Generated with MDTraj, t= 53.0
 46
    1UNL     C1    1   0.013  -0.206   0.183
    1UNL     C2    2   0.013  -0.091   0.117
    1UNL     C3    3   0.006  -0.080  -0.037
    1UNL     C4    4  -0.004  -0.213  -0.105
    1UNL     C5    5   0.134  -0.013  -0.084
    1UNL     C6    6   0.261  -0.097  -0.054
    1UNL     C7    7   0.386  -0.033  -0.096
    1UNL     C8    8   0.452   0.056  -0.011
    1UNL     C9    9   0.423   0.070   0.135
    1UNL    C10   10   0.591   0.112  -0.053
    1UNL     O1   11   0.683   0.108   0.031
    1UNL     O2   12   0.599   0.154  -0.180
    1UNL     O3   13  -0.104   0.011  -0.091
    1UNL    C11   14  -0.220  -0.007  -0.016
    1UNL     O4   15  -0.253  -0.147   0.016
    1UNL    C12   16  -0.351  -0.159   0.122
    1UNL    C13   17  -0.463  -0.049   0.100
    1UNL     O5   18  -0.429   0.065   0.174
    1UNL    C14   19  -0.474   0.002  -0.048
    1UNL     O6   20  -0.579   0.098  -0.059
    1UNL    C15   21  -0.341   0.065  -0.094
    1UNL     O7   22  -0.332   0.204  -0.073
    1UNL     H1   23   0.007  -0.202   0.288
    1UNL     H2   24   0.028  -0.306   0.144
    1UNL     H3   25   0.020   0.001   0.175
    1UNL     H4   26  -0.104  -0.255  -0.091
    1UNL     H5   27   0.016  -0.193  -0.213
    1UNL     H6   28   0.064  -0.296  -0.079
    1UNL     H7   29   0.143   0.073  -0.020
    1UNL     H8   30   0.133   0.023  -0.186
    1UNL     H9   31   0.272  -0.117   0.048
    1UNL    H10   32   0.248  -0.185  -0.120
    1UNL    H11   33   0.447  -0.066  -0.181
    1UNL    H12   34   0.507   0.133   0.174
    1UNL    H13   35   0.338   0.129   0.164
    1UNL    H14   36   0.429  -0.026   0.188
    1UNL    H15   37   0.688   0.187  -0.199
    1UNL    H16   38  -0.205   0.039   0.082
    1UNL    H17   39  -0.389  -0.257   0.129
    1UNL    H18   40  -0.307  -0.140   0.218
    1UNL    H19   41  -0.563  -0.070   0.141
    1UNL    H20   42  -0.406   0.142   0.112
    1UNL    H21   43  -0.496  -0.082  -0.117
    1UNL    H22   44  -0.658   0.077   0.004
    1UNL    H23   45  -0.325   0.038  -0.207
    1UNL    H24   46  -0.407   0.250  -0.112
   0.00000   0.00000   0.00000   0.00000   0.00000   0.00000   0.00000   0.00000   0.00000
Generated with MDTraj, t= 54.0
 46
    1UNL     C1    1   0.012  -0.201   0.181
    1UNL     C2    2   0.010  -0.084   0.120
    1UNL     C3    3   0.008  -0.061  -0.027
    1UNL     C4    4  -0.013  -0.198  -0.105
    1UNL     C5    5   0.146  -0.005  -0.075
    1UNL     C6    6   0.271  -0.103  -0.078
    1UNL     C7    7   0.399  -0.023  -0.104
    1UNL     C8    8   0.474   0.040  -0.006
    1UNL     C9    9   0.443   0.045   0.146
    1UNL    C10   10   0.597   0.102  -0.059
    1UNL     O1   11   0.690   0.108   0.022
    1UNL     O2   12   0.604   0.157  -0.188
    1UNL     O3   13  -0.097   0.020  -0.074
    1UNL    C11   14  -0.220  -0.005  -0.005
    1UNL     O4   15  -0.262  -0.136   0.029
    1UNL    C12   16  -0.361  -0.146   0.126
    1UNL    C13   17  -0.479  -0.051   0.103
    1UNL     O5   18  -0.452   0.064   0.177
    1UNL    C14   19  -0.475  -0.007  -0.056
    1UNL     O6   20  -0.585   0.074  -0.095
    1UNL    C15   21  -0.339   0.061  -0.087
    1UNL     O7   22  -0.347   0.202  -0.060
    1UNL     H1   23   0.010  -0.200   0.290
    1UNL     H2   24   0.020  -0.299   0.137
    1UNL     H3   25   0.004   0.008   0.178
    1UNL     H4   26  -0.111  -0.247  -0.060
    1UNL     H5   27  -0.017  -0.187  -0.208
    1UNL     H6   28   0.069  -0.270  -0.089
    1UNL     H7   29   0.164   0.083  -0.022
    1UNL     H8   30   0.138   0.034  -0.176
    1UNL     H9   31   0.276  -0.151   0.017
    1UNL    H10   32   0.260  -0.177  -0.156
    1UNL    H11   33   0.441  -0.021  -0.203
    1UNL    H12   34   0.368   0.119   0.177
    1UNL    H13   35   0.400  -0.052   0.178
    1UNL    H14   36   0.535   0.059   0.204
    1UNL    H15   37   0.690   0.202  -0.200
    1UNL    H16   38  -0.213   0.048   0.092
    1UNL    H17   39  -0.394  -0.244   0.120
    1UNL    H18   40  -0.318  -0.131   0.221
    1UNL    H19   41  -0.576  -0.104   0.126
    1UNL    H20   42  -0.422   0.129   0.111
    1UNL    H21   43  -0.483  -0.101  -0.111
    1UNL    H22   44  -0.649   0.073  -0.017
    1UNL    H23   45  -0.313   0.053  -0.201
    1UNL    H24   46  -0.412   0.243  -0.122
   0.00000   0.00000   0.00000   0.00000   0.00000   0.00000   0.00000   0.00000   0.00000
Generated with MDTraj, t= 55.0
 46
    1UNL     C1    1   0.024  -0.187   0.174
    1UNL     C2    2   0.030  -0.071   0.111
    1UNL     C3    3   0.014  -0.064  -0.036
    1UNL     C4    4  -0.030  -0.198  -0.093
    1UNL     C5    5   0.146  -0.016  -0.104
    1UNL     C6    6   0.272  -0.096  -0.072
    1UNL     C7    7   0.387  -0.004  -0.095
    1UNL     C8    8   0.480   0.028  -0.002
    1UNL     C9    9   0.481  -0.001   0.143
    1UNL    C10   10   0.594   0.099  -0.056
    1UNL     O1   11   0.687   0.136   0.018
    1UNL     O2   12   0.605   0.134  -0.196
    1UNL     O3   13  -0.092   0.028  -0.058
    1UNL    C11   14  -0.221   0.008   0.008
    1UNL     O4   15  -0.249  -0.123   0.051
    1UNL    C12   16  -0.362  -0.134   0.131
    1UNL    C13   17  -0.487  -0.065   0.076
    1UNL     O5   18  -0.518   0.046   0.162
    1UNL    C14   19  -0.464  -0.016  -0.073
    1UNL     O6   20  -0.572   0.067  -0.107
    1UNL    C15   21  -0.339   0.069  -0.079
    1UNL     O7   22  -0.366   0.203  -0.026
    1UNL     H1   23   0.044  -0.184   0.279
    1UNL     H2   24  -0.006  -0.279   0.134
    1UNL     H3   25   0.050   0.019   0.163
    1UNL     H4   26  -0.113  -0.241  -0.026
    1UNL     H5   27  -0.059  -0.181  -0.192
    1UNL     H6   28   0.060  -0.263  -0.097
    1UNL     H7   29   0.171   0.079  -0.069
    1UNL     H8   30   0.114   0.011  -0.205
    1UNL     H9   31   0.264  -0.133   0.032
    1UNL    H10   32   0.271  -0.184  -0.129
    1UNL    H11   33   0.390   0.045  -0.195
    1UNL    H12   34   0.385  -0.002   0.193
    1UNL    H13   35   0.530  -0.103   0.150
    1UNL    H14   36   0.547   0.068   0.196
    1UNL    H15   37   0.697   0.160  -0.225
    1UNL    H16   38  -0.211   0.070   0.100
    1UNL    H17   39  -0.375  -0.232   0.167
    1UNL    H18   40  -0.339  -0.078   0.219
    1UNL    H19   41  -0.577  -0.136   0.080
    1UNL    H20   42  -0.455   0.122   0.146
    1UNL    H21   43  -0.453  -0.098  -0.141
    1UNL    H22   44  -0.576   0.148  -0.056
    1UNL    H23   45  -0.307   0.078  -0.192
    1UNL    H24   46  -0.347   0.266  -0.099
   0.00000   0.00000   0.00000   0.00000   0.00000   0.00000   0.00000   0.00000   0.00000
Generated with MDTraj, t= 56.0
 46
    1UNL     C1    1   0.043  -0.171   0.178
    1UNL     C2    2   0.020  -0.061   0.114
    1UNL     C3    3   0.018  -0.057  -0.032
    1UNL     C4    4  -0.014  -0.200  -0.085
    1UNL     C5    5   0.144  -0.005  -0.092
    1UNL     C6    6   0.264  -0.076  -0.041
    1UNL     C7    7   0.384  -0.009  -0.096
    1UNL     C8    8   0.494   0.005  -0.025
    1UNL     C9    9   0.498  -0.036   0.111
    1UNL    C10   10   0.600   0.100  -0.066
    1UNL     O1   11   0.668   0.155   0.021
    1UNL     O2   12   0.624   0.118  -0.202
    1UNL     O3   13  -0.097   0.023  -0.070
    1UNL    C11   14  -0.217   0.013   0.011
    1UNL     O4   15  -0.244  -0.118   0.062
    1UNL    C12   16  -0.366  -0.116   0.143
    1UNL    C13   17  -0.495  -0.064   0.064
    1UNL     O5   18  -0.553   0.041   0.138
    1UNL    C14   19  -0.453  -0.016  -0.081
    1UNL     O6   20  -0.564   0.044  -0.146
    1UNL    C15   21  -0.341   0.086  -0.064
    1UNL     O7   22  -0.378   0.196   0.033
    1UNL     H1   23   0.045  -0.168   0.286
    1UNL     H2   24   0.055  -0.267   0.129
    1UNL     H3   25  -0.004   0.028   0.174
    1UNL     H4   26  -0.107  -0.229  -0.048
    1UNL     H5   27  -0.020  -0.194  -0.197
    1UNL     H6   28   0.063  -0.280  -0.068
    1UNL     H7   29   0.135   0.094  -0.062
    1UNL     H8   30   0.146   0.007  -0.200
    1UNL     H9   31   0.259  -0.089   0.072
    1UNL    H10   32   0.264  -0.175  -0.068
    1UNL    H11   33   0.382   0.031  -0.193
    1UNL    H12   34   0.441   0.026   0.180
    1UNL    H13   35   0.469  -0.145   0.115
    1UNL    H14   36   0.602  -0.036   0.145
    1UNL    H15   37   0.701   0.177  -0.227
    1UNL    H16   38  -0.199   0.077   0.102
    1UNL    H17   39  -0.389  -0.214   0.178
    1UNL    H18   40  -0.352  -0.058   0.232
    1UNL    H19   41  -0.583  -0.138   0.061
    1UNL    H20   42  -0.497   0.120   0.127
    1UNL    H21   43  -0.417  -0.095  -0.144
    1UNL    H22   44  -0.626   0.103  -0.092
    1UNL    H23   45  -0.310   0.136  -0.163
    1UNL    H24   46  -0.343   0.278  -0.002
   0.00000   0.00000   0.00000   0.00000   0.00000   0.00000   0.00000   0.00000   0.00000
Generated with MDTraj, t= 57.0
 46
    1UNL     C1    1   0.052  -0.164   0.204
    1UNL     C2    2   0.029  -0.056   0.134
    1UNL     C3    3   0.008  -0.059  -0.016
    1UNL     C4    4  -0.026  -0.195  -0.068
    1UNL     C5    5   0.144  -0.008  -0.090
    1UNL     C6    6   0.279  -0.077  -0.062
    1UNL     C7    7   0.390   0.022  -0.082
    1UNL     C8    8   0.504   0.023  -0.018
    1UNL     C9    9   0.531  -0.073   0.097
    1UNL    C10   10   0.616   0.098  -0.075
    1UNL     O1   11   0.682   0.164   0.002
    1UNL     O2   12   0.630   0.099  -0.210
    1UNL     O3   13  -0.097   0.030  -0.053
    1UNL    C11   14  -0.215   0.022   0.027
    1UNL     O4   15  -0.246  -0.105   0.074
    1UNL    C12   16  -0.379  -0.115   0.134
    1UNL    C13   17  -0.505  -0.078   0.041
    1UNL     O5   18  -0.602  -0.003   0.111
    1UNL    C14   19  -0.453  -0.001  -0.088
    1UNL     O6   20  -0.565   0.070  -0.145
    1UNL    C15   21  -0.336   0.088  -0.052
    1UNL     O7   22  -0.391   0.200   0.023
    1UNL     H1   23   0.069  -0.154   0.308
    1UNL     H2   24   0.050  -0.266   0.171
    1UNL     H3   25   0.026   0.037   0.182
    1UNL     H4   26  -0.122  -0.220  -0.039
    1UNL     H5   27  -0.018  -0.202  -0.184
    1UNL     H6   28   0.042  -0.272  -0.035
    1UNL     H7   29   0.158   0.096  -0.089
    1UNL     H8   30   0.117  -0.023  -0.195
    1UNL     H9   31   0.281  -0.120   0.044
    1UNL    H10   32   0.290  -0.160  -0.120
    1UNL    H11   33   0.397   0.069  -0.185
    1UNL    H12   34   0.492  -0.043   0.196
    1UNL    H13   35   0.493  -0.174   0.070
    1UNL    H14   36   0.638  -0.097   0.108
    1UNL    H15   37   0.702   0.164  -0.224
    1UNL    H16   38  -0.199   0.083   0.121
    1UNL    H17   39  -0.388  -0.215   0.178
    1UNL    H18   40  -0.383  -0.052   0.222
    1UNL    H19   41  -0.550  -0.176   0.007
    1UNL    H20   42  -0.556   0.072   0.151
    1UNL    H21   43  -0.412  -0.076  -0.155
    1UNL    H22   44  -0.647   0.033  -0.108
    1UNL    H23   45  -0.298   0.135  -0.147
    1UNL    H24   46  -0.472   0.226  -0.024
   0.00000   0.00000   0.00000   0.00000   0.00000   0.00000   0.00000   0.00000   0.00000
Generated with MDTraj, t= 58.0
 46
    1UNL     C1    1   0.053  -0.140   0.232
    1UNL     C2    2   0.028  -0.040   0.149
    1UNL     C3    3   0.009  -0.044  -0.004
    1UNL     C4    4  -0.023  -0.182  -0.052
    1UNL     C5    5   0.135   0.008  -0.075
    1UNL     C6    6   0.264  -0.053  -0.025
    1UNL     C7    7   0.387   0.015  -0.083
    1UNL     C8    8   0.510  -0.004  -0.046
    1UNL     C9    9   0.542  -0.085   0.078
    1UNL    C10   10   0.625   0.082  -0.094
    1UNL     O1   11   0.691   0.142  -0.015
    1UNL     O2   12   0.633   0.108  -0.218
    1UNL     O3   13  -0.095   0.045  -0.045
    1UNL    C11   14  -0.223   0.029   0.031
    1UNL     O4   15  -0.261  -0.109   0.074
    1UNL    C12   16  -0.388  -0.129   0.128
    1UNL    C13   17  -0.495  -0.091   0.025
    1UNL     O5   18  -0.617  -0.043   0.077
    1UNL    C14   19  -0.445   0.003  -0.089
    1UNL     O6   20  -0.554   0.077  -0.150
    1UNL    C15   21  -0.333   0.097  -0.049
    1UNL     O7   22  -0.390   0.196   0.039
    1UNL     H1   23   0.044  -0.137   0.341
    1UNL     H2   24   0.084  -0.236   0.192
    1UNL     H3   25   0.012   0.063   0.187
    1UNL     H4   26  -0.114  -0.221  -0.000
    1UNL     H5   27  -0.048  -0.183  -0.162
    1UNL     H6   28   0.054  -0.253  -0.043
    1UNL     H7   29   0.137   0.113  -0.066
    1UNL     H8   30   0.127  -0.016  -0.179
    1UNL     H9   31   0.273  -0.064   0.087
    1UNL    H10   32   0.266  -0.155  -0.062
    1UNL    H11   33   0.378   0.081  -0.163
    1UNL    H12   34   0.454  -0.119   0.137
    1UNL    H13   35   0.605  -0.167   0.046
    1UNL    H14   36   0.612  -0.034   0.147
    1UNL    H15   37   0.710   0.167  -0.222
    1UNL    H16   38  -0.203   0.081   0.129
    1UNL    H17   39  -0.396  -0.237   0.163
    1UNL    H18   40  -0.403  -0.067   0.220
    1UNL    H19   41  -0.526  -0.182  -0.032
    1UNL    H20   42  -0.617   0.035   0.138
    1UNL    H21   43  -0.401  -0.062  -0.167
    1UNL    H22   44  -0.639   0.052  -0.111
    1UNL    H23   45  -0.287   0.148  -0.136
    1UNL    H24   46  -0.470   0.226  -0.010
   0.00000   0.00000   0.00000   0.00000   0.00000   0.00000   0.00000   0.00000   0.00000
Generated with MDTraj, t= 59.0
 46
    1UNL     C1    1   0.054  -0.113   0.256
    1UNL     C2    2   0.021  -0.018   0.169
    1UNL     C3    3   0.011  -0.033   0.017
    1UNL     C4    4  -0.001  -0.178  -0.034
    1UNL     C5    5   0.134   0.034  -0.052
    1UNL     C6    6   0.269  -0.046  -0.026
    1UNL     C7    7   0.396   0.031  -0.055
    1UNL     C8    8   0.518  -0.006  -0.036
    1UNL     C9    9   0.549  -0.106   0.070
    1UNL    C10   10   0.622   0.074  -0.107
    1UNL     O1   11   0.721   0.099  -0.048
    1UNL     O2   12   0.597   0.111  -0.235
    1UNL     O3   13  -0.101   0.052  -0.040
    1UNL    C11   14  -0.223   0.033   0.037
    1UNL     O4   15  -0.252  -0.104   0.072
    1UNL    C12   16  -0.388  -0.124   0.102
    1UNL    C13   17  -0.499  -0.107  -0.007
    1UNL     O5   18  -0.618  -0.048   0.048
    1UNL    C14   19  -0.439   0.001  -0.104
    1UNL     O6   20  -0.547   0.078  -0.158
    1UNL    C15   21  -0.343   0.100  -0.032
    1UNL     O7   22  -0.425   0.166   0.067
    1UNL     H1   23   0.078  -0.104   0.360
    1UNL     H2   24   0.084  -0.206   0.214
    1UNL     H3   25   0.011   0.084   0.196
    1UNL     H4   26  -0.086  -0.236   0.020
    1UNL     H5   27  -0.027  -0.169  -0.136
    1UNL     H6   28   0.091  -0.234  -0.035
    1UNL     H7   29   0.136   0.130  -0.003
    1UNL     H8   30   0.119   0.045  -0.156
    1UNL     H9   31   0.272  -0.070   0.082
    1UNL    H10   32   0.278  -0.153  -0.075
    1UNL    H11   33   0.393   0.109  -0.136
    1UNL    H12   34   0.487  -0.198   0.067
    1UNL    H13   35   0.655  -0.123   0.069
    1UNL    H14   36   0.534  -0.068   0.175
    1UNL    H15   37   0.682   0.141  -0.270
    1UNL    H16   38  -0.204   0.076   0.138
    1UNL    H17   39  -0.389  -0.232   0.144
    1UNL    H18   40  -0.408  -0.062   0.195
    1UNL    H19   41  -0.513  -0.196  -0.069
    1UNL    H20   42  -0.593   0.041   0.082
    1UNL    H21   43  -0.388  -0.056  -0.187
    1UNL    H22   44  -0.633   0.025  -0.158
    1UNL    H23   45  -0.304   0.180  -0.093
    1UNL    H24   46  -0.496   0.208   0.016
   0.00000   0.00000   0.00000   0.00000   0.00000   0.00000   0.00000   0.00000   0.00000
Generated with MDTraj, t= 60.0
 46
    1UNL     C1    1   0.053  -0.094   0.280
    1UNL     C2    2   0.023  -0.006   0.184
    1UNL     C3    3   0.006  -0.024   0.026
    1UNL     C4    4  -0.007  -0.173  -0.018
    1UNL     C5    5   0.131   0.050  -0.037
    1UNL     C6    6   0.268  -0.006   0.017
    1UNL     C7    7   0.390   0.043  -0.062
    1UNL     C8    8   0.509  -0.011  -0.058
    1UNL     C9    9   0.551  -0.101   0.057
    1UNL    C10   10   0.623   0.054  -0.122
    1UNL     O1   11   0.736   0.030  -0.089
    1UNL     O2   12   0.593   0.141  -0.233
    1UNL     O3   13  -0.107   0.058  -0.010
    1UNL    C11   14  -0.233   0.033   0.060
    1UNL     O4   15  -0.256  -0.114   0.063
    1UNL    C12   16  -0.393  -0.156   0.091
    1UNL    C13   17  -0.489  -0.110  -0.029
    1UNL     O5   18  -0.619  -0.066   0.018
    1UNL    C14   19  -0.425   0.006  -0.106
    1UNL     O6   20  -0.525   0.073  -0.178
    1UNL    C15   21  -0.346   0.103  -0.020
    1UNL     O7   22  -0.432   0.166   0.074
    1UNL     H1   23   0.078  -0.073   0.383
    1UNL     H2   24   0.082  -0.192   0.243
    1UNL     H3   25   0.006   0.097   0.210
    1UNL     H4   26  -0.074  -0.230   0.046
    1UNL     H5   27  -0.041  -0.175  -0.116
    1UNL     H6   28   0.097  -0.217  -0.018
    1UNL     H7   29   0.128   0.158  -0.031
    1UNL     H8   30   0.126   0.023  -0.138
    1UNL     H9   31   0.286   0.013   0.124
    1UNL    H10   32   0.260  -0.126   0.016
    1UNL    H11   33   0.378   0.119  -0.132
    1UNL    H12   34   0.602  -0.195   0.031
    1UNL    H13   35   0.610  -0.042   0.125
    1UNL    H14   36   0.470  -0.144   0.123
    1UNL    H15   37   0.682   0.158  -0.270
    1UNL    H16   38  -0.230   0.065   0.166
    1UNL    H17   39  -0.404  -0.270   0.118
    1UNL    H18   40  -0.427  -0.106   0.188
    1UNL    H19   41  -0.512  -0.193  -0.093
    1UNL    H20   42  -0.608   0.017   0.067
    1UNL    H21   43  -0.360  -0.041  -0.187
    1UNL    H22   44  -0.616   0.064  -0.146
    1UNL    H23   45  -0.303   0.182  -0.075
    1UNL    H24   46  -0.482   0.235   0.022
   0.00000   0.00000   0.00000   0.00000   0.00000   0.00000   0.00000   0.00000   0.00000
Generated with MDTraj, t= 61.0
 46
    1UNL     C1    1   0.058  -0.075   0.299
    1UNL     C2    2   0.023   0.007   0.204
    1UNL     C3    3   0.012  -0.014   0.050
    1UNL     C4    4   0.006  -0.164   0.001
    1UNL     C5    5   0.138   0.063  -0.015
    1UNL     C6    6   0.268   0.013   0.038
    1UNL     C7    7   0.381   0.067  -0.049
    1UNL     C8    8   0.500   0.004  -0.043
    1UNL     C9    9   0.545  -0.098   0.053
    1UNL    C10   10   0.608   0.034  -0.141
    1UNL     O1   11   0.710  -0.023  -0.162
    1UNL     O2   12   0.583   0.150  -0.209
    1UNL     O3   13  -0.102   0.062   0.010
    1UNL    C11   14  -0.233   0.018   0.057
    1UNL     O4   15  -0.251  -0.126   0.045
    1UNL    C12   16  -0.391  -0.161   0.078
    1UNL    C13   17  -0.485  -0.112  -0.043
    1UNL     O5   18  -0.614  -0.064  -0.002
    1UNL    C14   19  -0.413   0.004  -0.113
    1UNL     O6   20  -0.503   0.068  -0.198
    1UNL    C15   21  -0.345   0.102  -0.013
    1UNL     O7   22  -0.442   0.153   0.080
    1UNL     H1   23   0.058  -0.060   0.404
    1UNL     H2   24   0.084  -0.169   0.256
    1UNL     H3   25   0.010   0.114   0.221
    1UNL     H4   26  -0.070  -0.213   0.049
    1UNL     H5   27  -0.018  -0.165  -0.104
    1UNL     H6   28   0.097  -0.227   0.018
    1UNL     H7   29   0.125   0.169  -0.003
    1UNL     H8   30   0.147   0.045  -0.117
    1UNL     H9   31   0.276   0.013   0.150
    1UNL    H10   32   0.277  -0.098   0.015
    1UNL    H11   33   0.376   0.137  -0.136
    1UNL    H12   34   0.642  -0.082   0.100
    1UNL    H13   35   0.467  -0.111   0.131
    1UNL    H14   36   0.564  -0.195   0.003
    1UNL    H15   37   0.662   0.181  -0.260
    1UNL    H16   38  -0.240   0.034   0.164
    1UNL    H17   39  -0.411  -0.273   0.102
    1UNL    H18   40  -0.425  -0.115   0.176
    1UNL    H19   41  -0.505  -0.198  -0.103
    1UNL    H20   42  -0.594   0.017   0.052
    1UNL    H21   43  -0.335  -0.042  -0.181
    1UNL    H22   44  -0.594   0.092  -0.160
    1UNL    H23   45  -0.294   0.186  -0.049
    1UNL    H24   46  -0.487   0.232   0.038
   0.00000   0.00000   0.00000   0.00000   0.00000   0.00000   0.00000   0.00000   0.00000
Generated with MDTraj, t= 62.0
 46
    1UNL     C1    1   0.058  -0.061   0.323
    1UNL     C2    2   0.003   0.014   0.230
    1UNL     C3    3   0.016  -0.010   0.074
    1UNL     C4    4   0.013  -0.155   0.034
    1UNL     C5    5   0.143   0.064   0.014
    1UNL     C6    6   0.282   0.023   0.062
    1UNL     C7    7   0.391   0.061  -0.039
    1UNL     C8    8   0.501  -0.009  -0.058
    1UNL     C9    9   0.551  -0.100   0.048
    1UNL    C10   10   0.589   0.028  -0.164
    1UNL     O1   11   0.662  -0.052  -0.215
    1UNL     O2   12   0.582   0.168  -0.188
    1UNL     O3   13  -0.106   0.056   0.007
    1UNL    C11   14  -0.233   0.018   0.059
    1UNL     O4   15  -0.241  -0.125   0.043
    1UNL    C12   16  -0.380  -0.161   0.052
    1UNL    C13   17  -0.473  -0.114  -0.057
    1UNL     O5   18  -0.597  -0.065  -0.011
    1UNL    C14   19  -0.405   0.005  -0.129
    1UNL     O6   20  -0.510   0.079  -0.190
    1UNL    C15   21  -0.340   0.096  -0.022
    1UNL     O7   22  -0.449   0.144   0.060
    1UNL     H1   23   0.063  -0.043   0.430
    1UNL     H2   24   0.110  -0.151   0.295
    1UNL     H3   25  -0.046   0.105   0.250
    1UNL     H4   26  -0.069  -0.210   0.075
    1UNL     H5   27  -0.005  -0.150  -0.075
    1UNL     H6   28   0.098  -0.208   0.052
    1UNL     H7   29   0.131   0.170   0.022
    1UNL     H8   30   0.143   0.050  -0.089
    1UNL     H9   31   0.309   0.079   0.157
    1UNL    H10   32   0.283  -0.074   0.101
    1UNL    H11   33   0.372   0.124  -0.122
    1UNL    H12   34   0.514  -0.088   0.150
    1UNL    H13   35   0.526  -0.205   0.014
    1UNL    H14   36   0.655  -0.078   0.061
    1UNL    H15   37   0.645   0.198  -0.258
    1UNL    H16   38  -0.245   0.042   0.163
    1UNL    H17   39  -0.393  -0.273   0.071
    1UNL    H18   40  -0.421  -0.118   0.146
    1UNL    H19   41  -0.488  -0.192  -0.133
    1UNL    H20   42  -0.577   0.011   0.046
    1UNL    H21   43  -0.344  -0.030  -0.216
    1UNL    H22   44  -0.594   0.038  -0.178
    1UNL    H23   45  -0.292   0.181  -0.058
    1UNL    H24   46  -0.491   0.213   0.005
   0.00000   0.00000   0.00000   0.00000   0.00000   0.00000   0.00000   0.00000   0.00000
Generated with MDTraj, t= 63.0
 46
    1UNL     C1    1   0.073  -0.039   0.332
    1UNL     C2    2   0.013   0.035   0.243
    1UNL     C3    3   0.018   0.003   0.093
    1UNL     C4    4   0.009  -0.147   0.066
    1UNL     C5    5   0.140   0.076   0.034
    1UNL     C6    6   0.281   0.010   0.064
    1UNL     C7    7   0.390   0.064  -0.020
    1UNL     C8    8   0.498  -0.003  -0.053
    1UNL     C9    9   0.546  -0.116   0.023
    1UNL    C10   10   0.574   0.033  -0.164
    1UNL     O1   11   0.623  -0.054  -0.237
    1UNL     O2   12   0.597   0.165  -0.185
    1UNL     O3   13  -0.092   0.067   0.029
    1UNL    C11   14  -0.227   0.008   0.039
    1UNL     O4   15  -0.254  -0.140   0.027
    1UNL    C12   16  -0.390  -0.182   0.049
    1UNL    C13   17  -0.469  -0.128  -0.067
    1UNL     O5   18  -0.598  -0.090  -0.033
    1UNL    C14   19  -0.412   0.009  -0.129
    1UNL     O6   20  -0.514   0.085  -0.185
    1UNL    C15   21  -0.332   0.097  -0.033
    1UNL     O7   22  -0.418   0.166   0.055
    1UNL     H1   23   0.086  -0.024   0.438
    1UNL     H2   24   0.128  -0.124   0.297
    1UNL     H3   25  -0.066   0.108   0.273
    1UNL     H4   26  -0.078  -0.194   0.113
    1UNL     H5   27   0.003  -0.169  -0.038
    1UNL     H6   28   0.099  -0.185   0.103
    1UNL     H7   29   0.142   0.178   0.066
    1UNL     H8   30   0.129   0.087  -0.070
    1UNL     H9   31   0.300   0.007   0.176
    1UNL    H10   32   0.279  -0.091   0.048
    1UNL    H11   33   0.364   0.148  -0.083
    1UNL    H12   34   0.488  -0.211   0.036
    1UNL    H13   35   0.631  -0.153  -0.039
    1UNL    H14   36   0.575  -0.086   0.121
    1UNL    H15   37   0.644   0.179  -0.270
    1UNL    H16   38  -0.244   0.027   0.143
    1UNL    H17   39  -0.393  -0.292   0.054
    1UNL    H18   40  -0.427  -0.146   0.144
    1UNL    H19   41  -0.474  -0.201  -0.153
    1UNL    H20   42  -0.606  -0.012   0.026
    1UNL    H21   43  -0.347  -0.015  -0.213
    1UNL    H22   44  -0.600   0.029  -0.184
    1UNL    H23   45  -0.269   0.167  -0.083
    1UNL    H24   46  -0.474   0.209  -0.012
   0.00000   0.00000   0.00000   0.00000   0.00000   0.00000   0.00000   0.00000   0.00000
Generated with MDTraj, t= 64.0
 46
    1UNL     C1    1   0.088   0.001   0.337
    1UNL     C2    2   0.006   0.039   0.243
    1UNL     C3    3   0.011   0.003   0.098
    1UNL     C4    4   0.006  -0.150   0.096
    1UNL     C5    5   0.137   0.062   0.030
    1UNL     C6    6   0.276   0.020   0.079
    1UNL     C7    7   0.379   0.058  -0.026
    1UNL     C8    8   0.478  -0.020  -0.068
    1UNL     C9    9   0.531  -0.145  -0.011
    1UNL    C10   10   0.572   0.036  -0.166
    1UNL     O1   11   0.635  -0.041  -0.240
    1UNL     O2   12   0.592   0.165  -0.167
    1UNL     O3   13  -0.099   0.057   0.013
    1UNL    C11   14  -0.224   0.007   0.063
    1UNL     O4   15  -0.239  -0.131   0.018
    1UNL    C12   16  -0.373  -0.169   0.033
    1UNL    C13   17  -0.465  -0.119  -0.077
    1UNL     O5   18  -0.592  -0.091  -0.029
    1UNL    C14   19  -0.404   0.016  -0.134
    1UNL     O6   20  -0.503   0.084  -0.197
    1UNL    C15   21  -0.335   0.093  -0.018
    1UNL     O7   22  -0.432   0.149   0.064
    1UNL     H1   23   0.070   0.004   0.442
    1UNL     H2   24   0.169  -0.068   0.318
    1UNL     H3   25  -0.079   0.089   0.276
    1UNL     H4   26  -0.094  -0.181   0.121
    1UNL     H5   27   0.027  -0.189   0.003
    1UNL     H6   28   0.079  -0.193   0.174
    1UNL     H7   29   0.125   0.167   0.030
    1UNL     H8   30   0.131   0.043  -0.076
    1UNL     H9   31   0.309   0.059   0.179
    1UNL    H10   32   0.287  -0.087   0.102
    1UNL    H11   33   0.372   0.155  -0.074
    1UNL    H12   34   0.541  -0.233  -0.079
    1UNL    H13   35   0.636  -0.129   0.013
    1UNL    H14   36   0.478  -0.188   0.074
    1UNL    H15   37   0.651   0.199  -0.235
    1UNL    H16   38  -0.243   0.022   0.167
    1UNL    H17   39  -0.372  -0.276   0.032
    1UNL    H18   40  -0.399  -0.139   0.132
    1UNL    H19   41  -0.464  -0.192  -0.165
    1UNL    H20   42  -0.579  -0.023   0.043
    1UNL    H21   43  -0.332  -0.007  -0.208
    1UNL    H22   44  -0.578   0.022  -0.210
    1UNL    H23   45  -0.278   0.180  -0.054
    1UNL    H24   46  -0.496   0.177  -0.007
   0.00000   0.00000   0.00000   0.00000   0.00000   0.00000   0.00000   0.00000   0.00000
Generated with MDTraj, t= 65.0
 46
    1UNL     C1    1   0.081   0.030   0.334
    1UNL     C2    2   0.024   0.084   0.230
    1UNL     C3    3   0.016   0.011   0.094
    1UNL     C4    4   0.011  -0.141   0.118
    1UNL     C5    5   0.140   0.050   0.006
    1UNL     C6    6   0.271   0.010   0.070
    1UNL     C7    7   0.391   0.057  -0.007
    1UNL     C8    8   0.477  -0.023  -0.072
    1UNL     C9    9   0.495  -0.175  -0.054
    1UNL    C10   10   0.577   0.041  -0.161
    1UNL     O1   11   0.660  -0.036  -0.223
    1UNL     O2   12   0.578   0.177  -0.158
    1UNL     O3   13  -0.100   0.059   0.021
    1UNL    C11   14  -0.226   0.000   0.055
    1UNL     O4   15  -0.244  -0.146   0.023
    1UNL    C12   16  -0.380  -0.198   0.020
    1UNL    C13   17  -0.469  -0.114  -0.076
    1UNL     O5   18  -0.598  -0.073  -0.024
    1UNL    C14   19  -0.392   0.013  -0.128
    1UNL     O6   20  -0.480   0.089  -0.206
    1UNL    C15   21  -0.336   0.090  -0.008
    1UNL     O7   22  -0.445   0.118   0.079
    1UNL     H1   23   0.073   0.079   0.431
    1UNL     H2   24   0.117  -0.070   0.343
    1UNL     H3   25  -0.020   0.186   0.236
    1UNL     H4   26  -0.078  -0.169   0.170
    1UNL     H5   27   0.004  -0.189   0.022
    1UNL     H6   28   0.103  -0.186   0.166
    1UNL     H7   29   0.139   0.153  -0.014
    1UNL     H8   30   0.131  -0.000  -0.090
    1UNL     H9   31   0.289   0.049   0.171
    1UNL    H10   32   0.287  -0.104   0.086
    1UNL    H11   33   0.416   0.161  -0.015
    1UNL    H12   34   0.581  -0.203  -0.117
    1UNL    H13   35   0.531  -0.205   0.044
    1UNL    H14   36   0.411  -0.236  -0.099
    1UNL    H15   37   0.656   0.202  -0.209
    1UNL    H16   38  -0.241   0.014   0.159
    1UNL    H17   39  -0.376  -0.300  -0.006
    1UNL    H18   40  -0.422  -0.194   0.117
    1UNL    H19   41  -0.504  -0.179  -0.163
    1UNL    H20   42  -0.583  -0.017   0.053
    1UNL    H21   43  -0.312  -0.003  -0.195
    1UNL    H22   44  -0.576   0.076  -0.186
    1UNL    H23   45  -0.287   0.185  -0.042
    1UNL    H24   46  -0.507   0.169   0.024
   0.00000   0.00000   0.00000   0.00000   0.00000   0.00000   0.00000   0.00000   0.00000
Generated with MDTraj, t= 66.0
 46
    1UNL     C1    1   0.054   0.065   0.336
    1UNL     C2    2   0.005   0.092   0.218
    1UNL     C3    3   0.018   0.002   0.095
    1UNL     C4    4   0.010  -0.144   0.129
    1UNL     C5    5   0.144   0.023   0.005
    1UNL     C6    6   0.276   0.007   0.081
    1UNL     C7    7   0.394   0.052  -0.002
    1UNL     C8    8   0.468  -0.021  -0.087
    1UNL     C9    9   0.459  -0.168  -0.117
    1UNL    C10   10   0.586   0.043  -0.155
    1UNL     O1   11   0.684  -0.033  -0.189
    1UNL     O2   12   0.582   0.177  -0.159
    1UNL     O3   13  -0.090   0.038   0.009
    1UNL    C11   14  -0.218   0.001   0.050
    1UNL     O4   15  -0.237  -0.141   0.031
    1UNL    C12   16  -0.379  -0.182   0.040
    1UNL    C13   17  -0.461  -0.122  -0.081
    1UNL     O5   18  -0.600  -0.088  -0.050
    1UNL    C14   19  -0.397   0.013  -0.131
    1UNL     O6   20  -0.498   0.104  -0.177
    1UNL    C15   21  -0.328   0.086  -0.015
    1UNL     O7   22  -0.423   0.124   0.089
    1UNL     H1   23   0.054   0.147   0.407
    1UNL     H2   24   0.118  -0.017   0.358
    1UNL     H3   25  -0.065   0.168   0.201
    1UNL     H4   26  -0.056  -0.152   0.214
    1UNL     H5   27  -0.037  -0.213   0.049
    1UNL     H6   28   0.099  -0.189   0.154
    1UNL     H7   29   0.151   0.123  -0.026
    1UNL     H8   30   0.148  -0.047  -0.079
    1UNL     H9   31   0.272   0.050   0.182
    1UNL    H10   32   0.298  -0.107   0.100
    1UNL    H11   33   0.426   0.157  -0.008
    1UNL    H12   34   0.558  -0.212  -0.102
    1UNL    H13   35   0.397  -0.221  -0.047
    1UNL    H14   36   0.428  -0.179  -0.226
    1UNL    H15   37   0.677   0.206  -0.178
    1UNL    H16   38  -0.216   0.022   0.155
    1UNL    H17   39  -0.392  -0.286   0.047
    1UNL    H18   40  -0.418  -0.141   0.128
    1UNL    H19   41  -0.470  -0.208  -0.153
    1UNL    H20   42  -0.606  -0.099   0.048
    1UNL    H21   43  -0.337  -0.013  -0.215
    1UNL    H22   44  -0.588   0.077  -0.147
    1UNL    H23   45  -0.268   0.177  -0.051
    1UNL    H24   46  -0.505   0.167   0.056
   0.00000   0.00000   0.00000   0.00000   0.00000   0.00000   0.00000   0.00000   0.00000
Generated with MDTraj, t= 67.0
 46
    1UNL     C1    1   0.059   0.082   0.318
    1UNL     C2    2   0.015   0.095   0.196
    1UNL     C3    3   0.031  -0.001   0.085
    1UNL     C4    4   0.034  -0.150   0.117
    1UNL     C5    5   0.161   0.020   0.010
    1UNL     C6    6   0.284  -0.004   0.094
    1UNL     C7    7   0.410   0.045   0.029
    1UNL     C8    8   0.469  -0.023  -0.073
    1UNL     C9    9   0.412  -0.138  -0.152
    1UNL    C10   10   0.592   0.041  -0.136
    1UNL     O1   11   0.684  -0.032  -0.176
    1UNL     O2   12   0.595   0.176  -0.156
    1UNL     O3   13  -0.085   0.025  -0.001
    1UNL    C11   14  -0.214  -0.001   0.049
    1UNL     O4   15  -0.249  -0.145   0.046
    1UNL    C12   16  -0.392  -0.161   0.052
    1UNL    C13   17  -0.471  -0.121  -0.080
    1UNL     O5   18  -0.616  -0.105  -0.058
    1UNL    C14   19  -0.406   0.012  -0.129
    1UNL     O6   20  -0.515   0.098  -0.163
    1UNL    C15   21  -0.322   0.085  -0.018
    1UNL     O7   22  -0.411   0.129   0.087
    1UNL     H1   23   0.040   0.168   0.379
    1UNL     H2   24   0.125   0.006   0.357
    1UNL     H3   25  -0.028   0.188   0.153
    1UNL     H4   26  -0.056  -0.168   0.177
    1UNL     H5   27   0.031  -0.216   0.025
    1UNL     H6   28   0.119  -0.177   0.172
    1UNL     H7   29   0.169   0.121  -0.022
    1UNL     H8   30   0.166  -0.045  -0.077
    1UNL     H9   31   0.286   0.047   0.193
    1UNL    H10   32   0.297  -0.115   0.119
    1UNL    H11   33   0.451   0.142   0.042
    1UNL    H12   34   0.477  -0.225  -0.160
    1UNL    H13   35   0.318  -0.175  -0.110
    1UNL    H14   36   0.387  -0.105  -0.256
    1UNL    H15   37   0.679   0.203  -0.207
    1UNL    H16   38  -0.217   0.025   0.154
    1UNL    H17   39  -0.418  -0.260   0.076
    1UNL    H18   40  -0.424  -0.098   0.131
    1UNL    H19   41  -0.465  -0.190  -0.164
    1UNL    H20   42  -0.668  -0.188  -0.043
    1UNL    H21   43  -0.353  -0.005  -0.224
    1UNL    H22   44  -0.603   0.056  -0.150
    1UNL    H23   45  -0.282   0.183  -0.062
    1UNL    H24   46  -0.497   0.147   0.045
   0.00000   0.00000   0.00000   0.00000   0.00000   0.00000   0.00000   0.00000   0.00000
Generated with MDTraj, t= 68.0
 46
    1UNL     C1    1   0.048   0.074   0.324
    1UNL     C2    2   0.016   0.094   0.201
    1UNL     C3    3   0.026  -0.006   0.089
    1UNL     C4    4   0.022  -0.160   0.123
    1UNL     C5    5   0.149   0.017   0.002
    1UNL     C6    6   0.274  -0.003   0.075
    1UNL     C7    7   0.394   0.056   0.008
    1UNL     C8    8   0.460  -0.009  -0.091
    1UNL     C9    9   0.399  -0.125  -0.161
    1UNL    C10   10   0.592   0.034  -0.131
    1UNL     O1   11   0.676  -0.038  -0.179
    1UNL     O2   12   0.616   0.172  -0.125
    1UNL     O3   13  -0.082   0.026   0.002
    1UNL    C11   14  -0.215   0.005   0.047
    1UNL     O4   15  -0.253  -0.141   0.051
    1UNL    C12   16  -0.391  -0.161   0.064
    1UNL    C13   17  -0.458  -0.128  -0.072
    1UNL     O5   18  -0.598  -0.119  -0.059
    1UNL    C14   19  -0.405   0.010  -0.124
    1UNL     O6   20  -0.514   0.090  -0.160
    1UNL    C15   21  -0.315   0.093  -0.028
    1UNL     O7   22  -0.393   0.155   0.075
    1UNL     H1   23   0.012   0.157   0.383
    1UNL     H2   24   0.116  -0.004   0.356
    1UNL     H3   25  -0.022   0.190   0.176
    1UNL     H4   26  -0.059  -0.183   0.192
    1UNL     H5   27   0.015  -0.216   0.033
    1UNL     H6   28   0.126  -0.190   0.169
    1UNL     H7   29   0.148   0.114  -0.045
    1UNL     H8   30   0.147  -0.052  -0.082
    1UNL     H9   31   0.265   0.042   0.179
    1UNL    H10   32   0.303  -0.109   0.099
    1UNL    H11   33   0.442   0.145   0.052
    1UNL    H12   34   0.456  -0.159  -0.248
    1UNL    H13   35   0.370  -0.210  -0.095
    1UNL    H14   36   0.305  -0.097  -0.208
    1UNL    H15   37   0.690   0.184  -0.191
    1UNL    H16   38  -0.213   0.039   0.152
    1UNL    H17   39  -0.396  -0.266   0.086
    1UNL    H18   40  -0.425  -0.104   0.150
    1UNL    H19   41  -0.415  -0.199  -0.137
    1UNL    H20   42  -0.640  -0.206  -0.048
    1UNL    H21   43  -0.328  -0.008  -0.206
    1UNL    H22   44  -0.598   0.038  -0.179
    1UNL    H23   45  -0.260   0.180  -0.078
    1UNL    H24   46  -0.481   0.169   0.033
   0.00000   0.00000   0.00000   0.00000   0.00000   0.00000   0.00000   0.00000   0.00000
Generated with MDTraj, t= 69.0
 46
    1UNL     C1    1   0.030   0.052   0.352
    1UNL     C2    2   0.019   0.083   0.224
    1UNL     C3    3   0.017   0.001   0.089
    1UNL     C4    4   0.014  -0.147   0.118
    1UNL     C5    5   0.146   0.024   0.000
    1UNL     C6    6   0.287  -0.001   0.066
    1UNL     C7    7   0.415   0.044   0.006
    1UNL     C8    8   0.480  -0.015  -0.091
    1UNL     C9    9   0.425  -0.133  -0.150
    1UNL    C10   10   0.603   0.036  -0.149
    1UNL     O1   11   0.668  -0.023  -0.229
    1UNL     O2   12   0.635   0.158  -0.098
    1UNL     O3   13  -0.089   0.046   0.001
    1UNL    C11   14  -0.218   0.020   0.057
    1UNL     O4   15  -0.251  -0.126   0.063
    1UNL    C12   16  -0.392  -0.148   0.070
    1UNL    C13   17  -0.459  -0.132  -0.068
    1UNL     O5   18  -0.604  -0.123  -0.057
    1UNL    C14   19  -0.407   0.001  -0.125
    1UNL     O6   20  -0.518   0.075  -0.187
    1UNL    C15   21  -0.327   0.088  -0.026
    1UNL     O7   22  -0.415   0.149   0.063
    1UNL     H1   23   0.031   0.138   0.418
    1UNL     H2   24   0.077  -0.039   0.381
    1UNL     H3   25  -0.004   0.189   0.211
    1UNL     H4   26  -0.070  -0.163   0.191
    1UNL     H5   27   0.003  -0.211   0.035
    1UNL     H6   28   0.110  -0.180   0.172
    1UNL     H7   29   0.157   0.130  -0.028
    1UNL     H8   30   0.140  -0.022  -0.096
    1UNL     H9   31   0.280   0.036   0.176
    1UNL    H10   32   0.296  -0.107   0.082
    1UNL    H11   33   0.458   0.135   0.037
    1UNL    H12   34   0.481  -0.157  -0.243
    1UNL    H13   35   0.404  -0.215  -0.076
    1UNL    H14   36   0.325  -0.110  -0.180
    1UNL    H15   37   0.722   0.183  -0.129
    1UNL    H16   38  -0.218   0.056   0.163
    1UNL    H17   39  -0.412  -0.250   0.107
    1UNL    H18   40  -0.435  -0.074   0.143
    1UNL    H19   41  -0.443  -0.214  -0.133
    1UNL    H20   42  -0.642  -0.203  -0.017
    1UNL    H21   43  -0.345  -0.032  -0.218
    1UNL    H22   44  -0.601   0.043  -0.151
    1UNL    H23   45  -0.291   0.171  -0.090
    1UNL    H24   46  -0.488   0.182   0.004
   0.00000   0.00000   0.00000   0.00000   0.00000   0.00000   0.00000   0.00000   0.00000
Generated with MDTraj, t= 70.0
 46
    1UNL     C1    1   0.030   0.016   0.341
    1UNL     C2    2   0.008   0.080   0.223
    1UNL     C3    3   0.020   0.015   0.084
    1UNL     C4    4   0.023  -0.144   0.089
    1UNL     C5    5   0.144   0.064   0.005
    1UNL     C6    6   0.277  -0.007   0.055
    1UNL     C7    7   0.408   0.031   0.005
    1UNL     C8    8   0.477  -0.032  -0.083
    1UNL     C9    9   0.446  -0.168  -0.125
    1UNL    C10   10   0.588   0.041  -0.150
    1UNL     O1   11   0.620   0.014  -0.260
    1UNL     O2   12   0.640   0.140  -0.073
    1UNL     O3   13  -0.092   0.059  -0.001
    1UNL    C11   14  -0.217   0.032   0.054
    1UNL     O4   15  -0.245  -0.105   0.088
    1UNL    C12   16  -0.383  -0.148   0.087
    1UNL    C13   17  -0.448  -0.131  -0.054
    1UNL     O5   18  -0.592  -0.113  -0.043
    1UNL    C14   19  -0.392  -0.005  -0.127
    1UNL     O6   20  -0.491   0.053  -0.216
    1UNL    C15   21  -0.331   0.096  -0.028
    1UNL     O7   22  -0.437   0.140   0.058
    1UNL     H1   23   0.010   0.066   0.435
    1UNL     H2   24   0.086  -0.076   0.345
    1UNL     H3   25  -0.021   0.185   0.215
    1UNL     H4   26  -0.071  -0.190   0.136
    1UNL     H5   27   0.027  -0.187  -0.014
    1UNL     H6   28   0.101  -0.193   0.139
    1UNL     H7   29   0.152   0.172   0.020
    1UNL     H8   30   0.136   0.059  -0.101
    1UNL     H9   31   0.288   0.008   0.171
    1UNL    H10   32   0.268  -0.111   0.036
    1UNL    H11   33   0.443   0.132   0.039
    1UNL    H12   34   0.519  -0.193  -0.205
    1UNL    H13   35   0.427  -0.244  -0.045
    1UNL    H14   36   0.352  -0.172  -0.174
    1UNL    H15   37   0.726   0.159  -0.108
    1UNL    H16   38  -0.202   0.093   0.150
    1UNL    H17   39  -0.389  -0.256   0.115
    1UNL    H18   40  -0.438  -0.087   0.167
    1UNL    H19   41  -0.441  -0.223  -0.111
    1UNL    H20   42  -0.611  -0.086   0.051
    1UNL    H21   43  -0.303  -0.042  -0.191
    1UNL    H22   44  -0.581   0.008  -0.203
    1UNL    H23   45  -0.281   0.186  -0.066
    1UNL    H24   46  -0.514   0.171   0.008
   0.00000   0.00000   0.00000   0.00000   0.00000   0.00000   0.00000   0.00000   0.00000
Generated with MDTraj, t= 71.0
 46
    1UNL     C1    1   0.042  -0.034   0.336
    1UNL     C2    2   0.023   0.050   0.231
    1UNL     C3    3   0.020   0.004   0.082
    1UNL     C4    4   0.000  -0.151   0.078
    1UNL     C5    5   0.143   0.051   0.001
    1UNL     C6    6   0.271   0.008   0.070
    1UNL     C7    7   0.389   0.056  -0.007
    1UNL     C8    8   0.465  -0.012  -0.090
    1UNL     C9    9   0.462  -0.157  -0.106
    1UNL    C10   10   0.582   0.044  -0.157
    1UNL     O1   11   0.606   0.031  -0.272
    1UNL     O2   12   0.664   0.118  -0.078
    1UNL     O3   13  -0.101   0.070   0.018
    1UNL    C11   14  -0.229   0.044   0.072
    1UNL     O4   15  -0.249  -0.096   0.106
    1UNL    C12   16  -0.386  -0.146   0.100
    1UNL    C13   17  -0.453  -0.121  -0.041
    1UNL     O5   18  -0.593  -0.097  -0.022
    1UNL    C14   19  -0.378  -0.018  -0.131
    1UNL     O6   20  -0.455   0.033  -0.237
    1UNL    C15   21  -0.328   0.097  -0.038
    1UNL     O7   22  -0.446   0.153   0.025
    1UNL     H1   23   0.033   0.009   0.433
    1UNL     H2   24   0.081  -0.136   0.338
    1UNL     H3   25   0.003   0.155   0.244
    1UNL     H4   26  -0.075  -0.171   0.153
    1UNL     H5   27  -0.044  -0.192  -0.022
    1UNL     H6   28   0.090  -0.200   0.095
    1UNL     H7   29   0.138   0.160  -0.014
    1UNL     H8   30   0.143   0.017  -0.101
    1UNL     H9   31   0.267   0.052   0.178
    1UNL    H10   32   0.284  -0.097   0.077
    1UNL    H11   33   0.415   0.154   0.019
    1UNL    H12   34   0.518  -0.186  -0.195
    1UNL    H13   35   0.479  -0.216  -0.013
    1UNL    H14   36   0.360  -0.187  -0.126
    1UNL    H15   37   0.727   0.149  -0.146
    1UNL    H16   38  -0.247   0.108   0.166
    1UNL    H17   39  -0.380  -0.253   0.136
    1UNL    H18   40  -0.448  -0.082   0.174
    1UNL    H19   41  -0.457  -0.220  -0.089
    1UNL    H20   42  -0.596  -0.002   0.003
    1UNL    H21   43  -0.288  -0.069  -0.180
    1UNL    H22   44  -0.508  -0.033  -0.281
    1UNL    H23   45  -0.293   0.172  -0.106
    1UNL    H24   46  -0.507   0.160  -0.052
   0.00000   0.00000   0.00000   0.00000   0.00000   0.00000   0.00000   0.00000   0.00000
Generated with MDTraj, t= 72.0
 46
    1UNL     C1    1   0.063  -0.063   0.318
    1UNL     C2    2   0.013   0.025   0.234
    1UNL     C3    3   0.016  -0.005   0.086
    1UNL     C4    4   0.008  -0.161   0.055
    1UNL     C5    5   0.148   0.053   0.018
    1UNL     C6    6   0.277   0.020   0.085
    1UNL     C7    7   0.393   0.073   0.007
    1UNL     C8    8   0.455   0.007  -0.087
    1UNL     C9    9   0.454  -0.140  -0.101
    1UNL    C10   10   0.577   0.054  -0.159
    1UNL     O1   11   0.588   0.025  -0.275
    1UNL     O2   12   0.670   0.121  -0.088
    1UNL     O3   13  -0.093   0.056   0.022
    1UNL    C11   14  -0.230   0.035   0.069
    1UNL     O4   15  -0.264  -0.092   0.119
    1UNL    C12   16  -0.405  -0.109   0.115
    1UNL    C13   17  -0.471  -0.118  -0.028
    1UNL     O5   18  -0.608  -0.067  -0.022
    1UNL    C14   19  -0.378  -0.040  -0.129
    1UNL     O6   20  -0.438   0.002  -0.246
    1UNL    C15   21  -0.319   0.081  -0.053
    1UNL     O7   22  -0.423   0.161   0.004
    1UNL     H1   23   0.071  -0.041   0.424
    1UNL     H2   24   0.112  -0.150   0.282
    1UNL     H3   25  -0.040   0.110   0.280
    1UNL     H4   26  -0.079  -0.195   0.101
    1UNL     H5   27  -0.003  -0.180  -0.054
    1UNL     H6   28   0.103  -0.214   0.084
    1UNL     H7   29   0.154   0.163   0.010
    1UNL     H8   30   0.150   0.021  -0.085
    1UNL     H9   31   0.279   0.066   0.188
    1UNL    H10   32   0.280  -0.087   0.098
    1UNL    H11   33   0.430   0.174   0.034
    1UNL    H12   34   0.502  -0.167  -0.195
    1UNL    H13   35   0.484  -0.188  -0.008
    1UNL    H14   36   0.347  -0.165  -0.103
    1UNL    H15   37   0.738   0.161  -0.153
    1UNL    H16   38  -0.247   0.110   0.154
    1UNL    H17   39  -0.427  -0.205   0.170
    1UNL    H18   40  -0.441  -0.017   0.174
    1UNL    H19   41  -0.480  -0.224  -0.065
    1UNL    H20   42  -0.600   0.027   0.004
    1UNL    H21   43  -0.285  -0.094  -0.159
    1UNL    H22   44  -0.530  -0.038  -0.253
    1UNL    H23   45  -0.253   0.144  -0.113
    1UNL    H24   46  -0.460   0.217  -0.068
   0.00000   0.00000   0.00000   0.00000   0.00000   0.00000   0.00000   0.00000   0.00000
Generated with MDTraj, t= 73.0
 46
    1UNL     C1    1   0.072  -0.069   0.309
    1UNL     C2    2  -0.002  -0.003   0.224
    1UNL     C3    3   0.020  -0.010   0.080
    1UNL     C4    4   0.027  -0.160   0.036
    1UNL     C5    5   0.158   0.055   0.038
    1UNL     C6    6   0.282   0.013   0.114
    1UNL     C7    7   0.402   0.055   0.040
    1UNL     C8    8   0.453  -0.009  -0.066
    1UNL     C9    9   0.416  -0.137  -0.118
    1UNL    C10   10   0.554   0.057  -0.152
    1UNL     O1   11   0.572   0.021  -0.268
    1UNL     O2   12   0.631   0.154  -0.086
    1UNL     O3   13  -0.079   0.058  -0.001
    1UNL    C11   14  -0.219   0.041   0.045
    1UNL     O4   15  -0.247  -0.085   0.115
    1UNL    C12   16  -0.388  -0.105   0.128
    1UNL    C13   17  -0.459  -0.111  -0.007
    1UNL     O5   18  -0.585  -0.048   0.001
    1UNL    C14   19  -0.384  -0.048  -0.128
    1UNL     O6   20  -0.468  -0.022  -0.239
    1UNL    C15   21  -0.314   0.077  -0.077
    1UNL     O7   22  -0.403   0.178  -0.031
    1UNL     H1   23   0.052  -0.062   0.414
    1UNL     H2   24   0.144  -0.142   0.280
    1UNL     H3   25  -0.077   0.051   0.270
    1UNL     H4   26  -0.069  -0.205   0.030
    1UNL     H5   27   0.076  -0.171  -0.055
    1UNL     H6   28   0.098  -0.219   0.106
    1UNL     H7   29   0.143   0.163   0.040
    1UNL     H8   30   0.181   0.031  -0.066
    1UNL     H9   31   0.279   0.056   0.213
    1UNL    H10   32   0.288  -0.097   0.130
    1UNL    H11   33   0.420   0.159   0.045
    1UNL    H12   34   0.483  -0.164  -0.199
    1UNL    H13   35   0.398  -0.208  -0.040
    1UNL    H14   36   0.317  -0.122  -0.167
    1UNL    H15   37   0.714   0.178  -0.141
    1UNL    H16   38  -0.239   0.121   0.124
    1UNL    H17   39  -0.396  -0.199   0.184
    1UNL    H18   40  -0.430  -0.015   0.184
    1UNL    H19   41  -0.480  -0.219  -0.036
    1UNL    H20   42  -0.568   0.051   0.007
    1UNL    H21   43  -0.312  -0.118  -0.166
    1UNL    H22   44  -0.560  -0.010  -0.197
    1UNL    H23   45  -0.253   0.125  -0.157
    1UNL    H24   46  -0.466   0.203  -0.102
   0.00000   0.00000   0.00000   0.00000   0.00000   0.00000   0.00000   0.00000   0.00000
Generated with MDTraj, t= 74.0
 46
    1UNL     C1    1   0.022  -0.085   0.315
    1UNL     C2    2  -0.006   0.012   0.229
    1UNL     C3    3   0.029  -0.005   0.081
    1UNL     C4    4   0.026  -0.148   0.033
    1UNL     C5    5   0.166   0.055   0.047
    1UNL     C6    6   0.292  -0.005   0.123
    1UNL     C7    7   0.422   0.025   0.057
    1UNL     C8    8   0.448  -0.017  -0.072
    1UNL     C9    9   0.376  -0.112  -0.159
    1UNL    C10   10   0.552   0.057  -0.143
    1UNL     O1   11   0.602   0.015  -0.247
    1UNL     O2   12   0.591   0.181  -0.088
    1UNL     O3   13  -0.074   0.070   0.003
    1UNL    C11   14  -0.211   0.034   0.032
    1UNL     O4   15  -0.229  -0.088   0.090
    1UNL    C12   16  -0.365  -0.109   0.132
    1UNL    C13   17  -0.456  -0.113   0.009
    1UNL     O5   18  -0.568  -0.032   0.041
    1UNL    C14   19  -0.395  -0.058  -0.126
    1UNL     O6   20  -0.500  -0.021  -0.213
    1UNL    C15   21  -0.300   0.062  -0.092
    1UNL     O7   22  -0.373   0.181  -0.086
    1UNL     H1   23  -0.017  -0.088   0.414
    1UNL     H2   24   0.066  -0.182   0.290
    1UNL     H3   25  -0.066   0.101   0.260
    1UNL     H4   26  -0.060  -0.200   0.081
    1UNL     H5   27   0.017  -0.162  -0.068
    1UNL     H6   28   0.119  -0.199   0.058
    1UNL     H7   29   0.156   0.159   0.074
    1UNL     H8   30   0.167   0.046  -0.063
    1UNL     H9   31   0.294   0.013   0.226
    1UNL    H10   32   0.284  -0.119   0.124
    1UNL    H11   33   0.471   0.117   0.093
    1UNL    H12   34   0.431  -0.145  -0.245
    1UNL    H13   35   0.335  -0.194  -0.105
    1UNL    H14   36   0.291  -0.060  -0.212
    1UNL    H15   37   0.671   0.220  -0.135
    1UNL    H16   38  -0.253   0.101   0.114
    1UNL    H17   39  -0.364  -0.201   0.188
    1UNL    H18   40  -0.395  -0.022   0.193
    1UNL    H19   41  -0.496  -0.221  -0.002
    1UNL    H20   42  -0.534   0.059   0.032
    1UNL    H21   43  -0.347  -0.138  -0.175
    1UNL    H22   44  -0.541  -0.100  -0.244
    1UNL    H23   45  -0.232   0.079  -0.183
    1UNL    H24   46  -0.428   0.187  -0.167
   0.00000   0.00000   0.00000   0.00000   0.00000   0.00000   0.00000   0.00000   0.00000
Generated with MDTraj, t= 75.0
 46
    1UNL     C1    1  -0.039  -0.089   0.323
    1UNL     C2    2  -0.006   0.005   0.233
    1UNL     C3    3   0.018  -0.007   0.082
    1UNL     C4    4   0.016  -0.155   0.031
    1UNL     C5    5   0.151   0.058   0.046
    1UNL     C6    6   0.282  -0.015   0.089
    1UNL     C7    7   0.407   0.037   0.037
    1UNL     C8    8   0.447   0.005  -0.092
    1UNL     C9    9   0.373  -0.088  -0.188
    1UNL    C10   10   0.574   0.067  -0.138
    1UNL     O1   11   0.645   0.001  -0.214
    1UNL     O2   12   0.595   0.198  -0.097
    1UNL     O3   13  -0.080   0.069   0.018
    1UNL    C11   14  -0.215   0.018   0.039
    1UNL     O4   15  -0.231  -0.110   0.091
    1UNL    C12   16  -0.370  -0.128   0.138
    1UNL    C13   17  -0.468  -0.093   0.023
    1UNL     O5   18  -0.524   0.028   0.050
    1UNL    C14   19  -0.402  -0.078  -0.113
    1UNL     O6   20  -0.494  -0.046  -0.210
    1UNL    C15   21  -0.295   0.040  -0.095
    1UNL     O7   22  -0.357   0.168  -0.096
    1UNL     H1   23  -0.065  -0.069   0.425
    1UNL     H2   24  -0.043  -0.193   0.297
    1UNL     H3   25  -0.007   0.107   0.254
    1UNL     H4   26  -0.086  -0.199   0.035
    1UNL     H5   27   0.044  -0.155  -0.074
    1UNL     H6   28   0.075  -0.223   0.075
    1UNL     H7   29   0.152   0.156   0.092
    1UNL     H8   30   0.147   0.066  -0.066
    1UNL     H9   31   0.283  -0.025   0.193
    1UNL    H10   32   0.275  -0.125   0.064
    1UNL    H11   33   0.474   0.094   0.099
    1UNL    H12   34   0.426  -0.105  -0.280
    1UNL    H13   35   0.353  -0.177  -0.132
    1UNL    H14   36   0.280  -0.043  -0.230
    1UNL    H15   37   0.661   0.245  -0.150
    1UNL    H16   38  -0.245   0.083   0.125
    1UNL    H17   39  -0.392  -0.225   0.174
    1UNL    H18   40  -0.383  -0.054   0.216
    1UNL    H19   41  -0.558  -0.169   0.023
    1UNL    H20   42  -0.460   0.104   0.050
    1UNL    H21   43  -0.352  -0.163  -0.148
    1UNL    H22   44  -0.536   0.043  -0.187
    1UNL    H23   45  -0.207   0.045  -0.167
    1UNL    H24   46  -0.388   0.202  -0.184
   0.00000   0.00000   0.00000   0.00000   0.00000   0.00000   0.00000   0.00000   0.00000
Generated with MDTraj, t= 76.0
 46
    1UNL     C1    1  -0.072  -0.080   0.315
    1UNL     C2    2   0.020  -0.028   0.240
    1UNL     C3    3   0.024  -0.033   0.088
    1UNL     C4    4   0.018  -0.174   0.030
    1UNL     C5    5   0.155   0.048   0.039
    1UNL     C6    6   0.291  -0.015   0.075
    1UNL     C7    7   0.404   0.060   0.019
    1UNL     C8    8   0.460   0.029  -0.103
    1UNL     C9    9   0.394  -0.076  -0.192
    1UNL    C10   10   0.598   0.082  -0.138
    1UNL     O1   11   0.678   0.006  -0.199
    1UNL     O2   12   0.620   0.211  -0.101
    1UNL     O3   13  -0.089   0.041   0.025
    1UNL    C11   14  -0.230   0.011   0.038
    1UNL     O4   15  -0.257  -0.109   0.107
    1UNL    C12   16  -0.395  -0.132   0.150
    1UNL    C13   17  -0.490  -0.071   0.038
    1UNL     O5   18  -0.533   0.057   0.069
    1UNL    C14   19  -0.423  -0.075  -0.107
    1UNL     O6   20  -0.511  -0.033  -0.202
    1UNL    C15   21  -0.297   0.022  -0.102
    1UNL     O7   22  -0.344   0.150  -0.132
    1UNL     H1   23  -0.075  -0.057   0.420
    1UNL     H2   24  -0.139  -0.147   0.269
    1UNL     H3   25   0.101   0.034   0.280
    1UNL     H4   26  -0.076  -0.202  -0.003
    1UNL     H5   27   0.096  -0.180  -0.048
    1UNL     H6   28   0.044  -0.244   0.107
    1UNL     H7   29   0.137   0.150   0.072
    1UNL     H8   30   0.158   0.042  -0.072
    1UNL     H9   31   0.304  -0.028   0.177
    1UNL    H10   32   0.287  -0.120   0.037
    1UNL    H11   33   0.468   0.122   0.081
    1UNL    H12   34   0.446  -0.081  -0.287
    1UNL    H13   35   0.409  -0.166  -0.132
    1UNL    H14   36   0.291  -0.060  -0.220
    1UNL    H15   37   0.704   0.229  -0.137
    1UNL    H16   38  -0.279   0.086   0.102
    1UNL    H17   39  -0.396  -0.234   0.175
    1UNL    H18   40  -0.414  -0.070   0.236
    1UNL    H19   41  -0.583  -0.141   0.039
    1UNL    H20   42  -0.480   0.118   0.010
    1UNL    H21   43  -0.396  -0.172  -0.143
    1UNL    H22   44  -0.567   0.042  -0.160
    1UNL    H23   45  -0.238  -0.005  -0.193
    1UNL    H24   46  -0.379   0.147  -0.225
   0.00000   0.00000   0.00000   0.00000   0.00000   0.00000   0.00000   0.00000   0.00000
Generated with MDTraj, t= 77.0
 46
    1UNL     C1    1  -0.068  -0.051   0.310
    1UNL     C2    2   0.018  -0.007   0.223
    1UNL     C3    3   0.026  -0.038   0.066
    1UNL     C4    4   0.008  -0.186   0.026
    1UNL     C5    5   0.157   0.027   0.018
    1UNL     C6    6   0.284  -0.031   0.063
    1UNL     C7    7   0.398   0.046   0.010
    1UNL     C8    8   0.473   0.012  -0.097
    1UNL     C9    9   0.428  -0.099  -0.187
    1UNL    C10   10   0.600   0.098  -0.131
    1UNL     O1   11   0.686   0.046  -0.206
    1UNL     O2   12   0.610   0.213  -0.072
    1UNL     O3   13  -0.086   0.037   0.017
    1UNL    C11   14  -0.226   0.003   0.040
    1UNL     O4   15  -0.266  -0.122   0.107
    1UNL    C12   16  -0.400  -0.123   0.153
    1UNL    C13   17  -0.498  -0.063   0.049
    1UNL     O5   18  -0.538   0.067   0.083
    1UNL    C14   19  -0.436  -0.070  -0.097
    1UNL     O6   20  -0.518  -0.024  -0.195
    1UNL    C15   21  -0.297   0.013  -0.099
    1UNL     O7   22  -0.332   0.144  -0.138
    1UNL     H1   23  -0.050  -0.041   0.416
    1UNL     H2   24  -0.142  -0.120   0.277
    1UNL     H3   25   0.099   0.051   0.268
    1UNL     H4   26  -0.039  -0.239   0.100
    1UNL     H5   27  -0.049  -0.182  -0.063
    1UNL     H6   28   0.108  -0.238   0.000
    1UNL     H7   29   0.152   0.132   0.051
    1UNL     H8   30   0.150   0.032  -0.093
    1UNL     H9   31   0.289  -0.043   0.169
    1UNL    H10   32   0.294  -0.131   0.022
    1UNL    H11   33   0.433   0.133   0.064
    1UNL    H12   34   0.469  -0.096  -0.288
    1UNL    H13   35   0.467  -0.187  -0.135
    1UNL    H14   36   0.326  -0.115  -0.204
    1UNL    H15   37   0.704   0.236  -0.081
    1UNL    H16   38  -0.258   0.078   0.110
    1UNL    H17   39  -0.428  -0.221   0.180
    1UNL    H18   40  -0.392  -0.060   0.242
    1UNL    H19   41  -0.594  -0.131   0.051
    1UNL    H20   42  -0.496   0.127   0.019
    1UNL    H21   43  -0.404  -0.172  -0.120
    1UNL    H22   44  -0.603   0.004  -0.162
    1UNL    H23   45  -0.224  -0.036  -0.164
    1UNL    H24   46  -0.360   0.150  -0.232
   0.00000   0.00000   0.00000   0.00000   0.00000   0.00000   0.00000   0.00000   0.00000
Generated with MDTraj, t= 78.0
 46
    1UNL     C1    1  -0.036  -0.035   0.310
    1UNL     C2    2   0.025   0.013   0.205
    1UNL     C3    3   0.014  -0.038   0.065
    1UNL     C4    4  -0.005  -0.188   0.047
    1UNL     C5    5   0.150  -0.003  -0.002
    1UNL     C6    6   0.281  -0.067   0.047
    1UNL     C7    7   0.390   0.020   0.003
    1UNL     C8    8   0.484  -0.006  -0.088
    1UNL     C9    9   0.475  -0.137  -0.174
    1UNL    C10   10   0.581   0.106  -0.119
    1UNL     O1   11   0.656   0.095  -0.218
    1UNL     O2   12   0.593   0.207  -0.032
    1UNL     O3   13  -0.089   0.033  -0.011
    1UNL    C11   14  -0.220   0.019   0.028
    1UNL     O4   15  -0.244  -0.104   0.092
    1UNL    C12   16  -0.377  -0.116   0.150
    1UNL    C13   17  -0.487  -0.074   0.050
    1UNL     O5   18  -0.526   0.060   0.077
    1UNL    C14   19  -0.432  -0.074  -0.093
    1UNL     O6   20  -0.533  -0.030  -0.185
    1UNL    C15   21  -0.314   0.030  -0.093
    1UNL     O7   22  -0.354   0.163  -0.122
    1UNL     H1   23  -0.054   0.011   0.405
    1UNL     H2   24  -0.076  -0.135   0.312
    1UNL     H3   25   0.077   0.105   0.210
    1UNL     H4   26  -0.112  -0.214   0.013
    1UNL     H5   27   0.062  -0.229  -0.022
    1UNL     H6   28   0.006  -0.242   0.145
    1UNL     H7   29   0.166   0.108   0.007
    1UNL     H8   30   0.141  -0.015  -0.111
    1UNL     H9   31   0.280  -0.067   0.155
    1UNL    H10   32   0.286  -0.165   0.014
    1UNL    H11   33   0.395   0.115   0.051
    1UNL    H12   34   0.563  -0.149  -0.236
    1UNL    H13   35   0.478  -0.216  -0.096
    1UNL    H14   36   0.396  -0.151  -0.240
    1UNL    H15   37   0.679   0.254  -0.059
    1UNL    H16   38  -0.250   0.099   0.092
    1UNL    H17   39  -0.383  -0.220   0.178
    1UNL    H18   40  -0.377  -0.048   0.238
    1UNL    H19   41  -0.588  -0.126   0.059
    1UNL    H20   42  -0.467   0.133   0.042
    1UNL    H21   43  -0.401  -0.181  -0.119
    1UNL    H22   44  -0.575   0.045  -0.143
    1UNL    H23   45  -0.258   0.001  -0.179
    1UNL    H24   46  -0.408   0.175  -0.203
   0.00000   0.00000   0.00000   0.00000   0.00000   0.00000   0.00000   0.00000   0.00000
Generated with MDTraj, t= 79.0
 46
    1UNL     C1    1  -0.024  -0.021   0.279
    1UNL     C2    2   0.009   0.031   0.164
    1UNL     C3    3   0.022  -0.046   0.039
    1UNL     C4    4   0.018  -0.199   0.052
    1UNL     C5    5   0.159  -0.008  -0.022
    1UNL     C6    6   0.287  -0.071   0.049
    1UNL     C7    7   0.411   0.007   0.029
    1UNL     C8    8   0.496  -0.011  -0.070
    1UNL     C9    9   0.499  -0.135  -0.160
    1UNL    C10   10   0.580   0.102  -0.106
    1UNL     O1   11   0.630   0.108  -0.218
    1UNL     O2   12   0.604   0.202  -0.015
    1UNL     O3   13  -0.079  -0.003  -0.054
    1UNL    C11   14  -0.208   0.005   0.009
    1UNL     O4   15  -0.245  -0.107   0.098
    1UNL    C12   16  -0.376  -0.083   0.157
    1UNL    C13   17  -0.490  -0.067   0.054
    1UNL     O5   18  -0.560   0.051   0.071
    1UNL    C14   19  -0.437  -0.065  -0.092
    1UNL     O6   20  -0.554  -0.025  -0.172
    1UNL    C15   21  -0.322   0.038  -0.095
    1UNL     O7   22  -0.375   0.171  -0.076
    1UNL     H1   23  -0.022   0.031   0.373
    1UNL     H2   24  -0.041  -0.126   0.300
    1UNL     H3   25   0.038   0.138   0.152
    1UNL     H4   26  -0.052  -0.228   0.141
    1UNL     H5   27  -0.017  -0.253  -0.039
    1UNL     H6   28   0.112  -0.242   0.078
    1UNL     H7   29   0.158   0.103  -0.046
    1UNL     H8   30   0.164  -0.048  -0.123
    1UNL     H9   31   0.267  -0.079   0.157
    1UNL    H10   32   0.305  -0.165   0.013
    1UNL    H11   33   0.416   0.101   0.087
    1UNL    H12   34   0.583  -0.130  -0.229
    1UNL    H13   35   0.521  -0.213  -0.085
    1UNL    H14   36   0.416  -0.156  -0.223
    1UNL    H15   37   0.632   0.281  -0.075
    1UNL    H16   38  -0.197   0.093   0.067
    1UNL    H17   39  -0.395  -0.171   0.221
    1UNL    H18   40  -0.356   0.009   0.220
    1UNL    H19   41  -0.567  -0.148   0.053
    1UNL    H20   42  -0.495   0.122   0.062
    1UNL    H21   43  -0.414  -0.177  -0.114
    1UNL    H22   44  -0.616   0.033  -0.116
    1UNL    H23   45  -0.272   0.030  -0.189
    1UNL    H24   46  -0.445   0.196  -0.139
   0.00000   0.00000   0.00000   0.00000   0.00000   0.00000   0.00000   0.00000   0.00000
Generated with MDTraj, t= 80.0
 46
    1UNL     C1    1  -0.020  -0.016   0.266
    1UNL     C2    2   0.027   0.017   0.149
    1UNL     C3    3   0.023  -0.075   0.023
    1UNL     C4    4  -0.006  -0.214   0.069
    1UNL     C5    5   0.156  -0.061  -0.052
    1UNL     C6    6   0.271  -0.042   0.050
    1UNL     C7    7   0.382   0.050   0.007
    1UNL     C8    8   0.478   0.018  -0.077
    1UNL     C9    9   0.484  -0.105  -0.149
    1UNL    C10   10   0.596   0.107  -0.103
    1UNL     O1   11   0.655   0.097  -0.208
    1UNL     O2   12   0.629   0.189  -0.001
    1UNL     O3   13  -0.084  -0.030  -0.064
    1UNL    C11   14  -0.204   0.005   0.005
    1UNL     O4   15  -0.250  -0.101   0.097
    1UNL    C12   16  -0.367  -0.065   0.166
    1UNL    C13   17  -0.485  -0.065   0.058
    1UNL     O5   18  -0.586   0.033   0.090
    1UNL    C14   19  -0.433  -0.054  -0.092
    1UNL     O6   20  -0.551  -0.021  -0.169
    1UNL    C15   21  -0.317   0.046  -0.096
    1UNL     O7   22  -0.361   0.171  -0.063
    1UNL     H1   23  -0.029   0.054   0.347
    1UNL     H2   24  -0.077  -0.104   0.284
    1UNL     H3   25   0.060   0.114   0.133
    1UNL     H4   26  -0.111  -0.228   0.073
    1UNL     H5   27   0.037  -0.279  -0.020
    1UNL     H6   28   0.045  -0.242   0.163
    1UNL     H7   29   0.151   0.022  -0.130
    1UNL     H8   30   0.162  -0.148  -0.120
    1UNL     H9   31   0.234   0.004   0.143
    1UNL    H10   32   0.316  -0.133   0.070
    1UNL    H11   33   0.375   0.152   0.033
    1UNL    H12   34   0.557  -0.106  -0.229
    1UNL    H13   35   0.517  -0.174  -0.072
    1UNL    H14   36   0.392  -0.141  -0.196
    1UNL    H15   37   0.697   0.253  -0.036
    1UNL    H16   38  -0.181   0.094   0.057
    1UNL    H17   39  -0.378  -0.153   0.236
    1UNL    H18   40  -0.344   0.031   0.227
    1UNL    H19   41  -0.532  -0.162   0.066
    1UNL    H20   42  -0.540   0.120   0.085
    1UNL    H21   43  -0.381  -0.152  -0.129
    1UNL    H22   44  -0.618   0.035  -0.125
    1UNL    H23   45  -0.273   0.035  -0.196
    1UNL    H24   46  -0.400   0.205  -0.147
   0.00000   0.00000   0.00000   0.00000   0.00000   0.00000   0.00000   0.00000   0.00000
Generated with MDTraj, t= 81.0
 46
    1UNL     C1    1  -0.042  -0.015   0.276
    1UNL     C2    2   0.015   0.024   0.168
    1UNL     C3    3   0.023  -0.056   0.041
    1UNL     C4    4   0.033  -0.210   0.076
    1UNL     C5    5   0.145  -0.014  -0.053
    1UNL     C6    6   0.282  -0.048   0.023
    1UNL     C7    7   0.403   0.034  -0.002
    1UNL     C8    8   0.497   0.004  -0.088
    1UNL     C9    9   0.502  -0.109  -0.185
    1UNL    C10   10   0.605   0.105  -0.102
    1UNL     O1   11   0.678   0.091  -0.197
    1UNL     O2   12   0.615   0.195   0.000
    1UNL     O3   13  -0.092  -0.038  -0.050
    1UNL    C11   14  -0.211  -0.007   0.017
    1UNL     O4   15  -0.261  -0.112   0.109
    1UNL    C12   16  -0.388  -0.070   0.157
    1UNL    C13   17  -0.507  -0.066   0.060
    1UNL     O5   18  -0.584   0.056   0.080
    1UNL    C14   19  -0.447  -0.066  -0.082
    1UNL     O6   20  -0.535  -0.012  -0.180
    1UNL    C15   21  -0.325   0.028  -0.085
    1UNL     O7   22  -0.366   0.170  -0.066
    1UNL     H1   23  -0.056   0.041   0.368
    1UNL     H2   24  -0.108  -0.099   0.262
    1UNL     H3   25   0.059   0.127   0.166
    1UNL     H4   26  -0.044  -0.246   0.135
    1UNL     H5   27   0.038  -0.271  -0.022
    1UNL     H6   28   0.129  -0.228   0.136
    1UNL     H7   29   0.130   0.098  -0.067
    1UNL     H8   30   0.138  -0.050  -0.158
    1UNL     H9   31   0.258  -0.027   0.129
    1UNL    H10   32   0.303  -0.150  -0.002
    1UNL    H11   33   0.414   0.135   0.042
    1UNL    H12   34   0.577  -0.094  -0.261
    1UNL    H13   35   0.532  -0.195  -0.130
    1UNL    H14   36   0.406  -0.129  -0.241
    1UNL    H15   37   0.697   0.236  -0.024
    1UNL    H16   38  -0.205   0.089   0.065
    1UNL    H17   39  -0.414  -0.143   0.240
    1UNL    H18   40  -0.372   0.032   0.205
    1UNL    H19   41  -0.575  -0.145   0.082
    1UNL    H20   42  -0.528   0.131   0.056
    1UNL    H21   43  -0.405  -0.173  -0.105
    1UNL    H22   44  -0.622  -0.053  -0.184
    1UNL    H23   45  -0.290   0.027  -0.191
    1UNL    H24   46  -0.448   0.177  -0.119
   0.00000   0.00000   0.00000   0.00000   0.00000   0.00000   0.00000   0.00000   0.00000
Generated with MDTraj, t= 82.0
 46
    1UNL     C1    1  -0.072  -0.011   0.298
    1UNL     C2    2   0.010   0.022   0.204
    1UNL     C3    3   0.021  -0.043   0.057
    1UNL     C4    4   0.005  -0.199   0.068
    1UNL     C5    5   0.155   0.003  -0.014
    1UNL     C6    6   0.291  -0.069   0.019
    1UNL     C7    7   0.404   0.022  -0.015
    1UNL     C8    8   0.505  -0.006  -0.096
    1UNL     C9    9   0.509  -0.106  -0.209
    1UNL    C10   10   0.611   0.101  -0.112
    1UNL     O1   11   0.701   0.085  -0.188
    1UNL     O2   12   0.611   0.204  -0.027
    1UNL     O3   13  -0.089   0.011  -0.027
    1UNL    C11   14  -0.225   0.003   0.022
    1UNL     O4   15  -0.261  -0.111   0.101
    1UNL    C12   16  -0.394  -0.102   0.158
    1UNL    C13   17  -0.503  -0.072   0.055
    1UNL     O5   18  -0.564   0.057   0.084
    1UNL    C14   19  -0.441  -0.070  -0.092
    1UNL     O6   20  -0.540  -0.020  -0.183
    1UNL    C15   21  -0.324   0.020  -0.093
    1UNL     O7   22  -0.372   0.155  -0.090
    1UNL     H1   23  -0.065   0.037   0.393
    1UNL     H2   24  -0.160  -0.070   0.282
    1UNL     H3   25   0.077   0.102   0.219
    1UNL     H4   26  -0.093  -0.219   0.122
    1UNL     H5   27   0.002  -0.256  -0.021
    1UNL     H6   28   0.081  -0.243   0.142
    1UNL     H7   29   0.163   0.116   0.000
    1UNL     H8   30   0.144  -0.006  -0.127
    1UNL     H9   31   0.283  -0.082   0.128
    1UNL    H10   32   0.291  -0.163  -0.040
    1UNL    H11   33   0.422   0.111   0.038
    1UNL    H12   34   0.601  -0.093  -0.265
    1UNL    H13   35   0.519  -0.206  -0.175
    1UNL    H14   36   0.419  -0.093  -0.276
    1UNL    H15   37   0.690   0.249  -0.053
    1UNL    H16   38  -0.229   0.089   0.089
    1UNL    H17   39  -0.421  -0.199   0.208
    1UNL    H18   40  -0.392  -0.020   0.236
    1UNL    H19   41  -0.581  -0.143   0.047
    1UNL    H20   42  -0.494   0.125   0.070
    1UNL    H21   43  -0.416  -0.178  -0.122
    1UNL    H22   44  -0.591   0.050  -0.129
    1UNL    H23   45  -0.257   0.009  -0.185
    1UNL    H24   46  -0.437   0.170  -0.163
   0.00000   0.00000   0.00000   0.00000   0.00000   0.00000   0.00000   0.00000   0.00000
Generated with MDTraj, t= 83.0
 46
    1UNL     C1    1  -0.045  -0.008   0.295
    1UNL     C2    2   0.046   0.018   0.209
    1UNL     C3    3   0.017  -0.022   0.058
    1UNL     C4    4  -0.004  -0.174   0.032
    1UNL     C5    5   0.146   0.017  -0.014
    1UNL     C6    6   0.266  -0.053   0.040
    1UNL     C7    7   0.384   0.028   0.000
    1UNL     C8    8   0.477  -0.003  -0.089
    1UNL     C9    9   0.454  -0.114  -0.181
    1UNL    C10   10   0.597   0.087  -0.107
    1UNL     O1   11   0.684   0.051  -0.182
    1UNL     O2   12   0.591   0.209  -0.045
    1UNL     O3   13  -0.092   0.052  -0.005
    1UNL    C11   14  -0.227   0.014   0.029
    1UNL     O4   15  -0.244  -0.117   0.094
    1UNL    C12   16  -0.379  -0.151   0.138
    1UNL    C13   17  -0.479  -0.076   0.049
    1UNL     O5   18  -0.529   0.046   0.103
    1UNL    C14   19  -0.430  -0.066  -0.097
    1UNL     O6   20  -0.533  -0.032  -0.187
    1UNL    C15   21  -0.308   0.024  -0.102
    1UNL     O7   22  -0.350   0.159  -0.108
    1UNL     H1   23  -0.028   0.022   0.397
    1UNL     H2   24  -0.139  -0.056   0.272
    1UNL     H3   25   0.141   0.068   0.231
    1UNL     H4   26  -0.098  -0.227   0.081
    1UNL     H5   27  -0.020  -0.186  -0.071
    1UNL     H6   28   0.082  -0.235   0.062
    1UNL     H7   29   0.161   0.129  -0.003
    1UNL     H8   30   0.121   0.002  -0.125
    1UNL     H9   31   0.257  -0.047   0.149
    1UNL    H10   32   0.270  -0.160  -0.001
    1UNL    H11   33   0.402   0.127   0.048
    1UNL    H12   34   0.536  -0.122  -0.252
    1UNL    H13   35   0.461  -0.214  -0.137
    1UNL    H14   36   0.354  -0.104  -0.231
    1UNL    H15   37   0.654   0.268  -0.087
    1UNL    H16   38  -0.265   0.086   0.104
    1UNL    H17   39  -0.390  -0.260   0.128
    1UNL    H18   40  -0.403  -0.119   0.241
    1UNL    H19   41  -0.570  -0.133   0.046
    1UNL    H20   42  -0.477   0.125   0.077
    1UNL    H21   43  -0.404  -0.171  -0.131
    1UNL    H22   44  -0.605  -0.004  -0.129
    1UNL    H23   45  -0.248  -0.002  -0.197
    1UNL    H24   46  -0.419   0.169  -0.177
   0.00000   0.00000   0.00000   0.00000   0.00000   0.00000   0.00000   0.00000   0.00000
Generated with MDTraj, t= 84.0
 46
    1UNL     C1    1  -0.071  -0.063   0.305
    1UNL     C2    2  -0.006   0.014   0.222
    1UNL     C3    3   0.017  -0.011   0.074
    1UNL     C4    4   0.010  -0.171   0.041
    1UNL     C5    5   0.155   0.046   0.021
    1UNL     C6    6   0.280  -0.019   0.072
    1UNL     C7    7   0.408   0.039   0.011
    1UNL     C8    8   0.478   0.001  -0.100
    1UNL     C9    9   0.442  -0.119  -0.175
    1UNL    C10   10   0.599   0.074  -0.125
    1UNL     O1   11   0.687   0.035  -0.199
    1UNL     O2   12   0.604   0.204  -0.077
    1UNL     O3   13  -0.078   0.055  -0.014
    1UNL    C11   14  -0.212   0.015   0.022
    1UNL     O4   15  -0.241  -0.111   0.084
    1UNL    C12   16  -0.374  -0.140   0.137
    1UNL    C13   17  -0.488  -0.089   0.043
    1UNL     O5   18  -0.543   0.035   0.086
    1UNL    C14   19  -0.435  -0.071  -0.103
    1UNL     O6   20  -0.539  -0.031  -0.180
    1UNL    C15   21  -0.307   0.031  -0.099
    1UNL     O7   22  -0.355   0.163  -0.109
    1UNL     H1   23  -0.086  -0.047   0.411
    1UNL     H2   24  -0.103  -0.160   0.276
    1UNL     H3   25   0.055   0.095   0.258
    1UNL     H4   26  -0.073  -0.214   0.076
    1UNL     H5   27   0.009  -0.188  -0.069
    1UNL     H6   28   0.098  -0.215   0.081
    1UNL     H7   29   0.147   0.151   0.060
    1UNL     H8   30   0.141   0.056  -0.094
    1UNL     H9   31   0.279  -0.022   0.179
    1UNL    H10   32   0.276  -0.129   0.037
    1UNL    H11   33   0.433   0.134   0.047
    1UNL    H12   34   0.501  -0.130  -0.268
    1UNL    H13   35   0.475  -0.218  -0.131
    1UNL    H14   36   0.335  -0.118  -0.195
    1UNL    H15   37   0.682   0.250  -0.121
    1UNL    H16   38  -0.244   0.080   0.108
    1UNL    H17   39  -0.388  -0.247   0.145
    1UNL    H18   40  -0.381  -0.098   0.235
    1UNL    H19   41  -0.567  -0.164   0.048
    1UNL    H20   42  -0.478   0.107   0.081
    1UNL    H21   43  -0.393  -0.156  -0.157
    1UNL    H22   44  -0.589   0.036  -0.132
    1UNL    H23   45  -0.245   0.020  -0.194
    1UNL    H24   46  -0.419   0.169  -0.183
   0.00000   0.00000   0.00000   0.00000   0.00000   0.00000   0.00000   0.00000   0.00000
Generated with MDTraj, t= 85.0
 46
    1UNL     C1    1  -0.061  -0.091   0.297
    1UNL     C2    2  -0.017   0.003   0.215
    1UNL     C3    3   0.020  -0.024   0.067
    1UNL     C4    4   0.053  -0.178   0.050
    1UNL     C5    5   0.151   0.063   0.044
    1UNL     C6    6   0.294   0.004   0.078
    1UNL     C7    7   0.421   0.071   0.031
    1UNL     C8    8   0.470   0.018  -0.077
    1UNL     C9    9   0.425  -0.111  -0.138
    1UNL    C10   10   0.587   0.078  -0.142
    1UNL     O1   11   0.657   0.013  -0.220
    1UNL     O2   12   0.634   0.198  -0.105
    1UNL     O3   13  -0.083   0.010  -0.033
    1UNL    C11   14  -0.214   0.011   0.019
    1UNL     O4   15  -0.247  -0.108   0.088
    1UNL    C12   16  -0.378  -0.120   0.135
    1UNL    C13   17  -0.490  -0.078   0.034
    1UNL     O5   18  -0.567   0.035   0.065
    1UNL    C14   19  -0.429  -0.070  -0.108
    1UNL     O6   20  -0.523  -0.017  -0.195
    1UNL    C15   21  -0.309   0.035  -0.098
    1UNL     O7   22  -0.365   0.160  -0.068
    1UNL     H1   23  -0.079  -0.068   0.401
    1UNL     H2   24  -0.062  -0.199   0.291
    1UNL     H3   25   0.002   0.099   0.259
    1UNL     H4   26  -0.039  -0.228   0.055
    1UNL     H5   27   0.091  -0.196  -0.053
    1UNL     H6   28   0.124  -0.212   0.116
    1UNL     H7   29   0.134   0.162   0.095
    1UNL     H8   30   0.144   0.083  -0.070
    1UNL     H9   31   0.297  -0.004   0.185
    1UNL    H10   32   0.285  -0.109   0.053
    1UNL    H11   33   0.459   0.170   0.065
    1UNL    H12   34   0.502  -0.136  -0.215
    1UNL    H13   35   0.426  -0.209  -0.080
    1UNL    H14   36   0.330  -0.089  -0.180
    1UNL    H15   37   0.724   0.221  -0.147
    1UNL    H16   38  -0.215   0.089   0.102
    1UNL    H17   39  -0.382  -0.220   0.174
    1UNL    H18   40  -0.394  -0.050   0.211
    1UNL    H19   41  -0.554  -0.169   0.040
    1UNL    H20   42  -0.509   0.113   0.046
    1UNL    H21   43  -0.409  -0.167  -0.148
    1UNL    H22   44  -0.611  -0.007  -0.144
    1UNL    H23   45  -0.243   0.044  -0.189
    1UNL    H24   46  -0.429   0.186  -0.138
   0.00000   0.00000   0.00000   0.00000   0.00000   0.00000   0.00000   0.00000   0.00000
Generated with MDTraj, t= 86.0
 46
    1UNL     C1    1  -0.033  -0.075   0.299
    1UNL     C2    2   0.023  -0.002   0.209
    1UNL     C3    3   0.034  -0.036   0.060
    1UNL     C4    4   0.037  -0.188   0.046
    1UNL     C5    5   0.157   0.045  -0.006
    1UNL     C6    6   0.269   0.045   0.093
    1UNL     C7    7   0.396   0.085   0.021
    1UNL     C8    8   0.454   0.013  -0.074
    1UNL     C9    9   0.418  -0.125  -0.099
    1UNL    C10   10   0.568   0.072  -0.145
    1UNL     O1   11   0.626   0.010  -0.238
    1UNL     O2   12   0.611   0.187  -0.084
    1UNL     O3   13  -0.067   0.016  -0.027
    1UNL    C11   14  -0.200   0.002   0.023
    1UNL     O4   15  -0.238  -0.120   0.090
    1UNL    C12   16  -0.380  -0.132   0.134
    1UNL    C13   17  -0.485  -0.092   0.020
    1UNL     O5   18  -0.570   0.019   0.057
    1UNL    C14   19  -0.414  -0.056  -0.109
    1UNL     O6   20  -0.500  -0.004  -0.208
    1UNL    C15   21  -0.305   0.051  -0.080
    1UNL     O7   22  -0.366   0.176  -0.047
    1UNL     H1   23  -0.032  -0.050   0.403
    1UNL     H2   24  -0.080  -0.169   0.279
    1UNL     H3   25   0.075   0.089   0.247
    1UNL     H4   26  -0.063  -0.229   0.076
    1UNL     H5   27   0.053  -0.222  -0.051
    1UNL     H6   28   0.110  -0.235   0.101
    1UNL     H7   29   0.113   0.150  -0.018
    1UNL     H8   30   0.181   0.005  -0.110
    1UNL     H9   31   0.242   0.114   0.172
    1UNL    H10   32   0.276  -0.055   0.146
    1UNL    H11   33   0.425   0.186   0.029
    1UNL    H12   34   0.465  -0.154  -0.195
    1UNL    H13   35   0.459  -0.208  -0.033
    1UNL    H14   36   0.311  -0.126  -0.109
    1UNL    H15   37   0.697   0.223  -0.115
    1UNL    H16   38  -0.208   0.072   0.114
    1UNL    H17   39  -0.399  -0.231   0.165
    1UNL    H18   40  -0.399  -0.068   0.213
    1UNL    H19   41  -0.562  -0.175   0.006
    1UNL    H20   42  -0.525   0.105   0.056
    1UNL    H21   43  -0.381  -0.143  -0.159
    1UNL    H22   44  -0.571   0.043  -0.166
    1UNL    H23   45  -0.252   0.075  -0.173
    1UNL    H24   46  -0.389   0.227  -0.129
   0.00000   0.00000   0.00000   0.00000   0.00000   0.00000   0.00000   0.00000   0.00000
Generated with MDTraj, t= 87.0
 46
    1UNL     C1    1  -0.033  -0.055   0.307
    1UNL     C2    2  -0.009   0.026   0.209
    1UNL     C3    3   0.022  -0.015   0.066
    1UNL     C4    4   0.024  -0.166   0.058
    1UNL     C5    5   0.158   0.051   0.018
    1UNL     C6    6   0.284   0.020   0.094
    1UNL     C7    7   0.411   0.070   0.016
    1UNL     C8    8   0.490   0.000  -0.068
    1UNL     C9    9   0.485  -0.145  -0.070
    1UNL    C10   10   0.591   0.067  -0.148
    1UNL     O1   11   0.612   0.015  -0.258
    1UNL     O2   12   0.641   0.187  -0.109
    1UNL     O3   13  -0.085   0.023  -0.022
    1UNL    C11   14  -0.215   0.012   0.032
    1UNL     O4   15  -0.240  -0.125   0.058
    1UNL    C12   16  -0.375  -0.146   0.113
    1UNL    C13   17  -0.488  -0.103   0.009
    1UNL     O5   18  -0.587  -0.018   0.065
    1UNL    C14   19  -0.423  -0.045  -0.119
    1UNL     O6   20  -0.514   0.014  -0.207
    1UNL    C15   21  -0.319   0.065  -0.078
    1UNL     O7   22  -0.387   0.174  -0.028
    1UNL     H1   23  -0.046  -0.027   0.410
    1UNL     H2   24  -0.035  -0.161   0.285
    1UNL     H3   25  -0.009   0.128   0.227
    1UNL     H4   26  -0.073  -0.215   0.077
    1UNL     H5   27   0.058  -0.199  -0.031
    1UNL     H6   28   0.094  -0.214   0.124
    1UNL     H7   29   0.135   0.163   0.024
    1UNL     H8   30   0.166   0.020  -0.089
    1UNL     H9   31   0.281   0.051   0.200
    1UNL    H10   32   0.290  -0.088   0.101
    1UNL    H11   33   0.429   0.179   0.026
    1UNL    H12   34   0.559  -0.184  -0.143
    1UNL    H13   35   0.517  -0.208   0.016
    1UNL    H14   36   0.382  -0.173  -0.100
    1UNL    H15   37   0.686   0.237  -0.176
    1UNL    H16   38  -0.224   0.073   0.129
    1UNL    H17   39  -0.388  -0.253   0.121
    1UNL    H18   40  -0.379  -0.111   0.212
    1UNL    H19   41  -0.544  -0.197  -0.023
    1UNL    H20   42  -0.549   0.075   0.061
    1UNL    H21   43  -0.367  -0.122  -0.163
    1UNL    H22   44  -0.594   0.038  -0.148
    1UNL    H23   45  -0.259   0.108  -0.156
    1UNL    H24   46  -0.442   0.214  -0.100
   0.00000   0.00000   0.00000   0.00000   0.00000   0.00000   0.00000   0.00000   0.00000
Generated with MDTraj, t= 88.0
 46
    1UNL     C1    1  -0.042  -0.021   0.312
    1UNL     C2    2   0.010   0.048   0.212
    1UNL     C3    3   0.021  -0.003   0.069
    1UNL     C4    4   0.022  -0.153   0.068
    1UNL     C5    5   0.151   0.063   0.012
    1UNL     C6    6   0.283  -0.003   0.060
    1UNL     C7    7   0.395   0.061  -0.010
    1UNL     C8    8   0.495  -0.013  -0.060
    1UNL     C9    9   0.520  -0.163  -0.051
    1UNL    C10   10   0.593   0.058  -0.145
    1UNL     O1   11   0.636   0.017  -0.253
    1UNL     O2   12   0.637   0.179  -0.107
    1UNL     O3   13  -0.090   0.055  -0.006
    1UNL    C11   14  -0.224   0.010   0.027
    1UNL     O4   15  -0.241  -0.140   0.046
    1UNL    C12   16  -0.374  -0.169   0.086
    1UNL    C13   17  -0.484  -0.120  -0.008
    1UNL     O5   18  -0.580  -0.042   0.065
    1UNL    C14   19  -0.423  -0.041  -0.121
    1UNL     O6   20  -0.526   0.031  -0.195
    1UNL    C15   21  -0.332   0.073  -0.065
    1UNL     O7   22  -0.404   0.176  -0.004
    1UNL     H1   23  -0.039   0.018   0.413
    1UNL     H2   24  -0.109  -0.104   0.306
    1UNL     H3   25   0.051   0.151   0.224
    1UNL     H4   26  -0.068  -0.188   0.100
    1UNL     H5   27   0.046  -0.188  -0.036
    1UNL     H6   28   0.101  -0.195   0.129
    1UNL     H7   29   0.153   0.178   0.024
    1UNL     H8   30   0.141   0.036  -0.095
    1UNL     H9   31   0.292   0.012   0.171
    1UNL    H10   32   0.278  -0.106   0.051
    1UNL    H11   33   0.397   0.165  -0.025
    1UNL    H12   34   0.622  -0.171  -0.093
    1UNL    H13   35   0.523  -0.225   0.040
    1UNL    H14   36   0.447  -0.208  -0.126
    1UNL    H15   37   0.683   0.226  -0.181
    1UNL    H16   38  -0.246   0.053   0.130
    1UNL    H17   39  -0.368  -0.278   0.103
    1UNL    H18   40  -0.393  -0.127   0.183
    1UNL    H19   41  -0.544  -0.202  -0.056
    1UNL    H20   42  -0.530   0.039   0.081
    1UNL    H21   43  -0.365  -0.101  -0.188
    1UNL    H22   44  -0.607   0.028  -0.145
    1UNL    H23   45  -0.289   0.119  -0.150
    1UNL    H24   46  -0.466   0.198  -0.078
   0.00000   0.00000   0.00000   0.00000   0.00000   0.00000   0.00000   0.00000   0.00000
Generated with MDTraj, t= 89.0
 46
    1UNL     C1    1  -0.061   0.020   0.304
    1UNL     C2    2   0.030   0.049   0.214
    1UNL     C3    3   0.017  -0.003   0.076
    1UNL     C4    4   0.015  -0.154   0.070
    1UNL     C5    5   0.134   0.054  -0.011
    1UNL     C6    6   0.274  -0.001   0.032
    1UNL     C7    7   0.383   0.055  -0.055
    1UNL     C8    8   0.495  -0.012  -0.087
    1UNL     C9    9   0.512  -0.157  -0.037
    1UNL    C10   10   0.608   0.062  -0.151
    1UNL     O1   11   0.685  -0.007  -0.216
    1UNL     O2   12   0.627   0.192  -0.106
    1UNL     O3   13  -0.100   0.044   0.005
    1UNL    C11   14  -0.232   0.003   0.041
    1UNL     O4   15  -0.244  -0.140   0.039
    1UNL    C12   16  -0.372  -0.187   0.067
    1UNL    C13   17  -0.478  -0.126  -0.020
    1UNL     O5   18  -0.564  -0.043   0.062
    1UNL    C14   19  -0.417  -0.029  -0.123
    1UNL     O6   20  -0.529   0.036  -0.191
    1UNL    C15   21  -0.334   0.078  -0.048
    1UNL     O7   22  -0.412   0.168   0.034
    1UNL     H1   23  -0.061   0.049   0.407
    1UNL     H2   24  -0.153  -0.024   0.269
    1UNL     H3   25   0.104   0.120   0.231
    1UNL     H4   26  -0.065  -0.185   0.135
    1UNL     H5   27   0.004  -0.193  -0.036
    1UNL     H6   28   0.108  -0.195   0.104
    1UNL     H7   29   0.118   0.167   0.002
    1UNL     H8   30   0.121   0.037  -0.120
    1UNL     H9   31   0.282   0.025   0.140
    1UNL    H10   32   0.275  -0.103   0.029
    1UNL    H11   33   0.376   0.160  -0.086
    1UNL    H12   34   0.607  -0.198  -0.073
    1UNL    H13   35   0.505  -0.181   0.070
    1UNL    H14   36   0.428  -0.220  -0.084
    1UNL    H15   37   0.722   0.223  -0.121
    1UNL    H16   38  -0.250   0.044   0.146
    1UNL    H17   39  -0.364  -0.301   0.053
    1UNL    H18   40  -0.382  -0.172   0.174
    1UNL    H19   41  -0.546  -0.194  -0.071
    1UNL    H20   42  -0.500   0.017   0.112
    1UNL    H21   43  -0.348  -0.092  -0.180
    1UNL    H22   44  -0.595   0.058  -0.122
    1UNL    H23   45  -0.274   0.141  -0.108
    1UNL    H24   46  -0.466   0.225  -0.026
   0.00000   0.00000   0.00000   0.00000   0.00000   0.00000   0.00000   0.00000   0.00000
Generated with MDTraj, t= 90.0
 46
    1UNL     C1    1  -0.028   0.019   0.310
    1UNL     C2    2   0.032   0.062   0.201
    1UNL     C3    3   0.017   0.006   0.063
    1UNL     C4    4   0.014  -0.144   0.081
    1UNL     C5    5   0.144   0.051  -0.015
    1UNL     C6    6   0.276  -0.017   0.025
    1UNL     C7    7   0.398   0.048  -0.040
    1UNL     C8    8   0.515  -0.013  -0.074
    1UNL     C9    9   0.530  -0.158  -0.049
    1UNL    C10   10   0.631   0.062  -0.135
    1UNL     O1   11   0.729  -0.005  -0.165
    1UNL     O2   12   0.611   0.195  -0.159
    1UNL     O3   13  -0.101   0.049  -0.003
    1UNL    C11   14  -0.230  -0.003   0.041
    1UNL     O4   15  -0.254  -0.149   0.025
    1UNL    C12   16  -0.384  -0.190   0.071
    1UNL    C13   17  -0.490  -0.130  -0.030
    1UNL     O5   18  -0.590  -0.073   0.053
    1UNL    C14   19  -0.439  -0.012  -0.117
    1UNL     O6   20  -0.562   0.059  -0.164
    1UNL    C15   21  -0.342   0.079  -0.038
    1UNL     O7   22  -0.417   0.175   0.036
    1UNL     H1   23  -0.018   0.072   0.401
    1UNL     H2   24  -0.106  -0.055   0.303
    1UNL     H3   25   0.066   0.167   0.208
    1UNL     H4   26  -0.078  -0.178   0.147
    1UNL     H5   27   0.009  -0.184  -0.021
    1UNL     H6   28   0.104  -0.190   0.124
    1UNL     H7   29   0.161   0.162  -0.005
    1UNL     H8   30   0.112   0.045  -0.122
    1UNL     H9   31   0.296  -0.013   0.133
    1UNL    H10   32   0.263  -0.120  -0.001
    1UNL    H11   33   0.396   0.151  -0.071
    1UNL    H12   34   0.622  -0.195  -0.102
    1UNL    H13   35   0.523  -0.190   0.056
    1UNL    H14   36   0.440  -0.217  -0.084
    1UNL    H15   37   0.702   0.226  -0.183
    1UNL    H16   38  -0.249   0.027   0.149
    1UNL    H17   39  -0.384  -0.306   0.070
    1UNL    H18   40  -0.391  -0.157   0.177
    1UNL    H19   41  -0.548  -0.200  -0.087
    1UNL    H20   42  -0.568   0.020   0.069
    1UNL    H21   43  -0.383  -0.055  -0.204
    1UNL    H22   44  -0.633  -0.009  -0.190
    1UNL    H23   45  -0.291   0.138  -0.111
    1UNL    H24   46  -0.495   0.196  -0.020
   0.00000   0.00000   0.00000   0.00000   0.00000   0.00000   0.00000   0.00000   0.00000
Generated with MDTraj, t= 91.0
 46
    1UNL     C1    1   0.001   0.010   0.291
    1UNL     C2    2   0.017   0.073   0.176
    1UNL     C3    3   0.019  -0.002   0.052
    1UNL     C4    4   0.008  -0.151   0.060
    1UNL     C5    5   0.144   0.040  -0.021
    1UNL     C6    6   0.278  -0.012   0.030
    1UNL     C7    7   0.391   0.043  -0.046
    1UNL     C8    8   0.503  -0.025  -0.066
    1UNL     C9    9   0.530  -0.170  -0.033
    1UNL    C10   10   0.609   0.062  -0.117
    1UNL     O1   11   0.725   0.034  -0.110
    1UNL     O2   12   0.578   0.172  -0.193
    1UNL     O3   13  -0.094   0.040  -0.037
    1UNL    C11   14  -0.217   0.001   0.024
    1UNL     O4   15  -0.246  -0.143   0.017
    1UNL    C12   16  -0.373  -0.158   0.085
    1UNL    C13   17  -0.485  -0.120  -0.024
    1UNL     O5   18  -0.599  -0.091   0.041
    1UNL    C14   19  -0.436   0.002  -0.109
    1UNL     O6   20  -0.551   0.068  -0.160
    1UNL    C15   21  -0.341   0.091  -0.031
    1UNL     O7   22  -0.410   0.154   0.077
    1UNL     H1   23  -0.014   0.067   0.382
    1UNL     H2   24  -0.037  -0.090   0.296
    1UNL     H3   25   0.024   0.179   0.178
    1UNL     H4   26  -0.075  -0.181   0.130
    1UNL     H5   27  -0.001  -0.199  -0.040
    1UNL     H6   28   0.107  -0.197   0.105
    1UNL     H7   29   0.141   0.148  -0.042
    1UNL     H8   30   0.131  -0.006  -0.123
    1UNL     H9   31   0.278   0.010   0.135
    1UNL    H10   32   0.281  -0.123   0.017
    1UNL    H11   33   0.395   0.148  -0.070
    1UNL    H12   34   0.641  -0.178  -0.015
    1UNL    H13   35   0.469  -0.215   0.048
    1UNL    H14   36   0.512  -0.242  -0.116
    1UNL    H15   37   0.658   0.181  -0.246
    1UNL    H16   38  -0.208   0.025   0.135
    1UNL    H17   39  -0.373  -0.268   0.125
    1UNL    H18   40  -0.377  -0.088   0.172
    1UNL    H19   41  -0.497  -0.204  -0.088
    1UNL    H20   42  -0.568  -0.037   0.118
    1UNL    H21   43  -0.380  -0.032  -0.203
    1UNL    H22   44  -0.634   0.038  -0.119
    1UNL    H23   45  -0.291   0.158  -0.100
    1UNL    H24   46  -0.474   0.218   0.040
   0.00000   0.00000   0.00000   0.00000   0.00000   0.00000   0.00000   0.00000   0.00000
Generated with MDTraj, t= 92.0
 46
    1UNL     C1    1   0.038  -0.003   0.281
    1UNL     C2    2   0.020   0.053   0.162
    1UNL     C3    3   0.010  -0.014   0.026
    1UNL     C4    4   0.016  -0.164   0.042
    1UNL     C5    5   0.136   0.032  -0.044
    1UNL     C6    6   0.272  -0.012   0.022
    1UNL     C7    7   0.393   0.052  -0.040
    1UNL     C8    8   0.514  -0.000  -0.046
    1UNL     C9    9   0.537  -0.135   0.002
    1UNL    C10   10   0.629   0.065  -0.123
    1UNL     O1   11   0.744   0.050  -0.088
    1UNL     O2   12   0.584   0.143  -0.229
    1UNL     O3   13  -0.114   0.021  -0.033
    1UNL    C11   14  -0.229  -0.010   0.041
    1UNL     O4   15  -0.256  -0.146   0.036
    1UNL    C12   16  -0.392  -0.170   0.075
    1UNL    C13   17  -0.494  -0.112  -0.028
    1UNL     O5   18  -0.603  -0.058   0.045
    1UNL    C14   19  -0.429   0.008  -0.108
    1UNL     O6   20  -0.535   0.088  -0.156
    1UNL    C15   21  -0.345   0.083  -0.013
    1UNL     O7   22  -0.437   0.141   0.084
    1UNL     H1   23   0.028   0.061   0.367
    1UNL     H2   24   0.046  -0.108   0.288
    1UNL     H3   25   0.008   0.161   0.157
    1UNL     H4   26  -0.065  -0.197   0.105
    1UNL     H5   27   0.009  -0.214  -0.064
    1UNL     H6   28   0.119  -0.196   0.085
    1UNL     H7   29   0.133   0.140  -0.042
    1UNL     H8   30   0.143   0.005  -0.155
    1UNL     H9   31   0.264   0.014   0.124
    1UNL    H10   32   0.279  -0.127   0.012
    1UNL    H11   33   0.385   0.149  -0.089
    1UNL    H12   34   0.644  -0.163  -0.026
    1UNL    H13   35   0.514  -0.143   0.112
    1UNL    H14   36   0.473  -0.209  -0.044
    1UNL    H15   37   0.662   0.180  -0.271
    1UNL    H16   38  -0.220   0.018   0.150
    1UNL    H17   39  -0.413  -0.283   0.092
    1UNL    H18   40  -0.402  -0.109   0.168
    1UNL    H19   41  -0.531  -0.191  -0.092
    1UNL    H20   42  -0.591   0.031   0.089
    1UNL    H21   43  -0.375  -0.029  -0.202
    1UNL    H22   44  -0.619   0.049  -0.120
    1UNL    H23   45  -0.287   0.163  -0.064
    1UNL    H24   46  -0.505   0.193   0.033
   0.00000   0.00000   0.00000   0.00000   0.00000   0.00000   0.00000   0.00000   0.00000
Generated with MDTraj, t= 93.0
 46
    1UNL     C1    1   0.080  -0.044   0.289
    1UNL     C2    2   0.028   0.030   0.186
    1UNL     C3    3   0.016  -0.033   0.051
    1UNL     C4    4   0.005  -0.188   0.048
    1UNL     C5    5   0.131   0.016  -0.045
    1UNL     C6    6   0.271  -0.004   0.009
    1UNL     C7    7   0.383   0.033  -0.087
    1UNL     C8    8   0.511   0.007  -0.058
    1UNL     C9    9   0.543  -0.076   0.061
    1UNL    C10   10   0.629   0.066  -0.135
    1UNL     O1   11   0.736   0.061  -0.081
    1UNL     O2   12   0.605   0.137  -0.252
    1UNL     O3   13  -0.101   0.026  -0.013
    1UNL    C11   14  -0.232  -0.012   0.033
    1UNL     O4   15  -0.276  -0.149   0.022
    1UNL    C12   16  -0.406  -0.165   0.078
    1UNL    C13   17  -0.506  -0.111  -0.025
    1UNL     O5   18  -0.626  -0.055   0.027
    1UNL    C14   19  -0.443   0.010  -0.108
    1UNL     O6   20  -0.540   0.095  -0.166
    1UNL    C15   21  -0.345   0.089  -0.022
    1UNL     O7   22  -0.408   0.161   0.091
    1UNL     H1   23   0.127   0.014   0.366
    1UNL     H2   24   0.119  -0.145   0.273
    1UNL     H3   25   0.004   0.135   0.186
    1UNL     H4   26  -0.091  -0.216   0.099
    1UNL     H5   27  -0.008  -0.215  -0.066
    1UNL     H6   28   0.088  -0.249   0.084
    1UNL     H7   29   0.127   0.123  -0.061
    1UNL     H8   30   0.101  -0.027  -0.145
    1UNL     H9   31   0.292   0.057   0.093
    1UNL    H10   32   0.282  -0.116   0.035
    1UNL    H11   33   0.354   0.079  -0.177
    1UNL    H12   34   0.656  -0.080   0.072
    1UNL    H13   35   0.492  -0.026   0.151
    1UNL    H14   36   0.511  -0.179   0.059
    1UNL    H15   37   0.672   0.210  -0.254
    1UNL    H16   38  -0.238   0.003   0.143
    1UNL    H17   39  -0.423  -0.277   0.099
    1UNL    H18   40  -0.416  -0.098   0.165
    1UNL    H19   41  -0.534  -0.197  -0.088
    1UNL    H20   42  -0.628  -0.018   0.118
    1UNL    H21   43  -0.398  -0.036  -0.201
    1UNL    H22   44  -0.624   0.073  -0.119
    1UNL    H23   45  -0.282   0.156  -0.089
    1UNL    H24   46  -0.443   0.249   0.063
   0.00000   0.00000   0.00000   0.00000   0.00000   0.00000   0.00000   0.00000   0.00000
Generated with MDTraj, t= 94.0
 46
    1UNL     C1    1   0.113  -0.060   0.262
    1UNL     C2    2   0.027  -0.001   0.178
    1UNL     C3    3   0.012  -0.037   0.032
    1UNL     C4    4  -0.017  -0.190   0.017
    1UNL     C5    5   0.137   0.008  -0.045
    1UNL     C6    6   0.271  -0.056   0.002
    1UNL     C7    7   0.383   0.011  -0.070
    1UNL     C8    8   0.507   0.024  -0.023
    1UNL     C9    9   0.556  -0.010   0.117
    1UNL    C10   10   0.606   0.074  -0.126
    1UNL     O1   11   0.726   0.074  -0.110
    1UNL     O2   12   0.555   0.107  -0.248
    1UNL     O3   13  -0.110   0.028  -0.023
    1UNL    C11   14  -0.230   0.002   0.050
    1UNL     O4   15  -0.262  -0.139   0.038
    1UNL    C12   16  -0.401  -0.173   0.058
    1UNL    C13   17  -0.503  -0.099  -0.034
    1UNL     O5   18  -0.603  -0.040   0.047
    1UNL    C14   19  -0.434   0.018  -0.113
    1UNL     O6   20  -0.531   0.098  -0.160
    1UNL    C15   21  -0.341   0.096  -0.017
    1UNL     O7   22  -0.408   0.159   0.087
    1UNL     H1   23   0.128  -0.004   0.352
    1UNL     H2   24   0.172  -0.145   0.237
    1UNL     H3   25  -0.004   0.102   0.190
    1UNL     H4   26  -0.112  -0.224   0.077
    1UNL     H5   27  -0.029  -0.225  -0.084
    1UNL     H6   28   0.065  -0.252   0.053
    1UNL     H7   29   0.132   0.117  -0.032
    1UNL     H8   30   0.132  -0.010  -0.152
    1UNL     H9   31   0.287  -0.046   0.106
    1UNL    H10   32   0.281  -0.166  -0.030
    1UNL    H11   33   0.352   0.050  -0.169
    1UNL    H12   34   0.668   0.005   0.122
    1UNL    H13   35   0.501   0.068   0.181
    1UNL    H14   36   0.547  -0.111   0.156
    1UNL    H15   37   0.638   0.122  -0.304
    1UNL    H16   38  -0.228   0.024   0.157
    1UNL    H17   39  -0.401  -0.283   0.037
    1UNL    H18   40  -0.423  -0.154   0.162
    1UNL    H19   41  -0.543  -0.178  -0.105
    1UNL    H20   42  -0.584   0.058   0.047
    1UNL    H21   43  -0.375  -0.006  -0.204
    1UNL    H22   44  -0.602   0.047  -0.200
    1UNL    H23   45  -0.276   0.171  -0.078
    1UNL    H24   46  -0.484   0.211   0.055
   0.00000   0.00000   0.00000   0.00000   0.00000   0.00000   0.00000   0.00000   0.00000
Generated with MDTraj, t= 95.0
 46
    1UNL     C1    1   0.064  -0.110   0.279
    1UNL     C2    2   0.037  -0.014   0.190
    1UNL     C3    3   0.014  -0.049   0.040
    1UNL     C4    4  -0.013  -0.200   0.016
    1UNL     C5    5   0.142  -0.003  -0.030
    1UNL     C6    6   0.276  -0.068   0.021
    1UNL     C7    7   0.389  -0.032  -0.073
    1UNL     C8    8   0.501   0.028  -0.036
    1UNL     C9    9   0.527   0.056   0.107
    1UNL    C10   10   0.604   0.078  -0.140
    1UNL     O1   11   0.718   0.101  -0.105
    1UNL     O2   12   0.562   0.098  -0.266
    1UNL     O3   13  -0.089   0.028  -0.021
    1UNL    C11   14  -0.219   0.002   0.033
    1UNL     O4   15  -0.260  -0.137   0.035
    1UNL    C12   16  -0.403  -0.158   0.065
    1UNL    C13   17  -0.501  -0.089  -0.030
    1UNL     O5   18  -0.616  -0.041   0.046
    1UNL    C14   19  -0.434   0.026  -0.115
    1UNL     O6   20  -0.532   0.114  -0.149
    1UNL    C15   21  -0.324   0.097  -0.032
    1UNL     O7   22  -0.388   0.157   0.075
    1UNL     H1   23   0.049  -0.083   0.385
    1UNL     H2   24   0.088  -0.211   0.250
    1UNL     H3   25   0.038   0.089   0.226
    1UNL     H4   26  -0.104  -0.236   0.064
    1UNL     H5   27  -0.023  -0.226  -0.084
    1UNL     H6   28   0.078  -0.261   0.046
    1UNL     H7   29   0.160   0.105  -0.012
    1UNL     H8   30   0.131  -0.012  -0.135
    1UNL     H9   31   0.294  -0.043   0.126
    1UNL    H10   32   0.258  -0.176   0.021
    1UNL    H11   33   0.362  -0.034  -0.175
    1UNL    H12   34   0.636   0.075   0.124
    1UNL    H13   35   0.465   0.150   0.113
    1UNL    H14   36   0.505  -0.026   0.179
    1UNL    H15   37   0.641   0.103  -0.325
    1UNL    H16   38  -0.225   0.024   0.140
    1UNL    H17   39  -0.428  -0.262   0.072
    1UNL    H18   40  -0.417  -0.113   0.161
    1UNL    H19   41  -0.541  -0.169  -0.104
    1UNL    H20   42  -0.573   0.032   0.097
    1UNL    H21   43  -0.391  -0.011  -0.207
    1UNL    H22   44  -0.612   0.061  -0.175
    1UNL    H23   45  -0.267   0.174  -0.101
    1UNL    H24   46  -0.444   0.231   0.044
   0.00000   0.00000   0.00000   0.00000   0.00000   0.00000   0.00000   0.00000   0.00000
Generated with MDTraj, t= 96.0
 46
    1UNL     C1    1  -0.006  -0.129   0.283
    1UNL     C2    2   0.035  -0.045   0.189
    1UNL     C3    3   0.015  -0.066   0.044
    1UNL     C4    4  -0.001  -0.216   0.009
    1UNL     C5    5   0.147  -0.012  -0.030
    1UNL     C6    6   0.281  -0.067   0.011
    1UNL     C7    7   0.396  -0.023  -0.079
    1UNL     C8    8   0.498   0.053  -0.041
    1UNL     C9    9   0.503   0.100   0.097
    1UNL    C10   10   0.606   0.077  -0.141
    1UNL     O1   11   0.712   0.132  -0.107
    1UNL     O2   12   0.578   0.057  -0.271
    1UNL     O3   13  -0.088   0.018  -0.017
    1UNL    C11   14  -0.216  -0.007   0.042
    1UNL     O4   15  -0.268  -0.140   0.029
    1UNL    C12   16  -0.406  -0.161   0.075
    1UNL    C13   17  -0.500  -0.088  -0.016
    1UNL     O5   18  -0.620  -0.033   0.042
    1UNL    C14   19  -0.430   0.029  -0.102
    1UNL     O6   20  -0.514   0.129  -0.165
    1UNL    C15   21  -0.310   0.095  -0.019
    1UNL     O7   22  -0.361   0.177   0.083
    1UNL     H1   23   0.046  -0.125   0.376
    1UNL     H2   24  -0.069  -0.212   0.258
    1UNL     H3   25   0.080   0.045   0.226
    1UNL     H4   26  -0.094  -0.241   0.039
    1UNL     H5   27  -0.002  -0.242  -0.095
    1UNL     H6   28   0.078  -0.279   0.055
    1UNL     H7   29   0.150   0.098  -0.019
    1UNL     H8   30   0.127  -0.021  -0.132
    1UNL     H9   31   0.298  -0.040   0.118
    1UNL    H10   32   0.281  -0.175   0.017
    1UNL    H11   33   0.391  -0.054  -0.185
    1UNL    H12   34   0.600   0.145   0.123
    1UNL    H13   35   0.425   0.179   0.089
    1UNL    H14   36   0.487   0.025   0.181
    1UNL    H15   37   0.650   0.099  -0.319
    1UNL    H16   38  -0.222   0.013   0.147
    1UNL    H17   39  -0.418  -0.265   0.076
    1UNL    H18   40  -0.421  -0.124   0.173
    1UNL    H19   41  -0.554  -0.163  -0.085
    1UNL    H20   42  -0.589   0.023   0.114
    1UNL    H21   43  -0.387  -0.030  -0.180
    1UNL    H22   44  -0.604   0.092  -0.186
    1UNL    H23   45  -0.239   0.164  -0.083
    1UNL    H24   46  -0.441   0.225   0.053
   0.00000   0.00000   0.00000   0.00000   0.00000   0.00000   0.00000   0.00000   0.00000
Generated with MDTraj, t= 97.0
 46
    1UNL     C1    1  -0.059  -0.126   0.265
    1UNL     C2    2   0.028  -0.075   0.177
    1UNL     C3    3   0.023  -0.076   0.026
    1UNL     C4    4   0.003  -0.220  -0.016
    1UNL     C5    5   0.159  -0.021  -0.027
    1UNL     C6    6   0.290  -0.088   0.004
    1UNL     C7    7   0.406  -0.036  -0.072
    1UNL     C8    8   0.490   0.064  -0.039
    1UNL     C9    9   0.480   0.137   0.086
    1UNL    C10   10   0.599   0.088  -0.134
    1UNL     O1   11   0.692   0.170  -0.122
    1UNL     O2   12   0.590   0.018  -0.250
    1UNL     O3   13  -0.088  -0.003  -0.034
    1UNL    C11   14  -0.208  -0.005   0.045
    1UNL     O4   15  -0.257  -0.140   0.060
    1UNL    C12   16  -0.402  -0.155   0.078
    1UNL    C13   17  -0.495  -0.076  -0.018
    1UNL     O5   18  -0.596  -0.008   0.050
    1UNL    C14   19  -0.415   0.032  -0.102
    1UNL     O6   20  -0.500   0.130  -0.165
    1UNL    C15   21  -0.314   0.096  -0.003
    1UNL     O7   22  -0.382   0.164   0.096
    1UNL     H1   23  -0.060  -0.105   0.372
    1UNL     H2   24  -0.154  -0.167   0.229
    1UNL     H3   25   0.110  -0.016   0.220
    1UNL     H4   26  -0.096  -0.257   0.007
    1UNL     H5   27   0.011  -0.230  -0.122
    1UNL     H6   28   0.082  -0.273   0.016
    1UNL     H7   29   0.150   0.084   0.004
    1UNL     H8   30   0.147  -0.020  -0.131
    1UNL     H9   31   0.317  -0.092   0.114
    1UNL    H10   32   0.282  -0.190  -0.015
    1UNL    H11   33   0.430  -0.091  -0.158
    1UNL    H12   34   0.500   0.241   0.065
    1UNL    H13   35   0.373   0.133   0.109
    1UNL    H14   36   0.552   0.114   0.172
    1UNL    H15   37   0.652   0.066  -0.305
    1UNL    H16   38  -0.184   0.028   0.143
    1UNL    H17   39  -0.426  -0.257   0.077
    1UNL    H18   40  -0.417  -0.124   0.178
    1UNL    H19   41  -0.558  -0.142  -0.087
    1UNL    H20   42  -0.546   0.050   0.113
    1UNL    H21   43  -0.358  -0.021  -0.179
    1UNL    H22   44  -0.563   0.161  -0.101
    1UNL    H23   45  -0.242   0.169  -0.060
    1UNL    H24   46  -0.449   0.227   0.061
   0.00000   0.00000   0.00000   0.00000   0.00000   0.00000   0.00000   0.00000   0.00000
Generated with MDTraj, t= 98.0
 46
    1UNL     C1    1  -0.024  -0.171   0.262
    1UNL     C2    2   0.040  -0.081   0.184
    1UNL     C3    3   0.024  -0.081   0.032
    1UNL     C4    4  -0.015  -0.207  -0.035
    1UNL     C5    5   0.151  -0.020  -0.030
    1UNL     C6    6   0.284  -0.089   0.014
    1UNL     C7    7   0.401  -0.064  -0.066
    1UNL     C8    8   0.468   0.053  -0.052
    1UNL     C9    9   0.439   0.142   0.057
    1UNL    C10   10   0.585   0.087  -0.135
    1UNL     O1   11   0.633   0.199  -0.117
    1UNL     O2   12   0.631   0.003  -0.228
    1UNL     O3   13  -0.075   0.017  -0.010
    1UNL    C11   14  -0.210  -0.002   0.045
    1UNL     O4   15  -0.258  -0.143   0.044
    1UNL    C12   16  -0.396  -0.143   0.087
    1UNL    C13   17  -0.487  -0.064  -0.014
    1UNL     O5   18  -0.582   0.010   0.051
    1UNL    C14   19  -0.401   0.028  -0.106
    1UNL     O6   20  -0.494   0.117  -0.154
    1UNL    C15   21  -0.305   0.106  -0.014
    1UNL     O7   22  -0.371   0.170   0.090
    1UNL     H1   23  -0.014  -0.182   0.368
    1UNL     H2   24  -0.105  -0.230   0.228
    1UNL     H3   25   0.111  -0.011   0.219
    1UNL     H4   26  -0.107  -0.247   0.009
    1UNL     H5   27  -0.037  -0.184  -0.133
    1UNL     H6   28   0.071  -0.264  -0.040
    1UNL     H7   29   0.153   0.085  -0.009
    1UNL     H8   30   0.137  -0.040  -0.134
    1UNL     H9   31   0.297  -0.074   0.126
    1UNL    H10   32   0.266  -0.191   0.014
    1UNL    H11   33   0.441  -0.131  -0.144
    1UNL    H12   34   0.453   0.244   0.025
    1UNL    H13   35   0.332   0.128   0.074
    1UNL    H14   36   0.502   0.133   0.150
    1UNL    H15   37   0.717   0.037  -0.255
    1UNL    H16   38  -0.210   0.021   0.149
    1UNL    H17   39  -0.424  -0.245   0.097
    1UNL    H18   40  -0.392  -0.109   0.190
    1UNL    H19   41  -0.548  -0.136  -0.075
    1UNL    H20   42  -0.538   0.090   0.088
    1UNL    H21   43  -0.344  -0.022  -0.189
    1UNL    H22   44  -0.578   0.072  -0.171
    1UNL    H23   45  -0.247   0.176  -0.085
    1UNL    H24   46  -0.407   0.254   0.056
   0.00000   0.00000   0.00000   0.00000   0.00000   0.00000   0.00000   0.00000   0.00000
Generated with MDTraj, t= 99.0
 46
    1UNL     C1    1   0.029  -0.217   0.252
    1UNL     C2    2   0.033  -0.104   0.178
    1UNL     C3    3   0.019  -0.088   0.029
    1UNL     C4    4  -0.024  -0.219  -0.030
    1UNL     C5    5   0.155  -0.032  -0.035
    1UNL     C6    6   0.282  -0.117   0.001
    1UNL     C7    7   0.400  -0.055  -0.062
    1UNL     C8    8   0.462   0.064  -0.039
    1UNL     C9    9   0.419   0.162   0.057
    1UNL    C10   10   0.574   0.095  -0.130
    1UNL     O1   11   0.608   0.210  -0.152
    1UNL     O2   12   0.640  -0.010  -0.180
    1UNL     O3   13  -0.074   0.016  -0.001
    1UNL    C11   14  -0.208   0.009   0.054
    1UNL     O4   15  -0.257  -0.122   0.043
    1UNL    C12   16  -0.389  -0.135   0.091
    1UNL    C13   17  -0.489  -0.071  -0.012
    1UNL     O5   18  -0.584  -0.002   0.056
    1UNL    C14   19  -0.408   0.030  -0.103
    1UNL     O6   20  -0.505   0.120  -0.153
    1UNL    C15   21  -0.302   0.110  -0.022
    1UNL     O7   22  -0.351   0.212   0.059
    1UNL     H1   23   0.081  -0.222   0.349
    1UNL     H2   24   0.007  -0.314   0.209
    1UNL     H3   25   0.054  -0.008   0.229
    1UNL     H4   26  -0.127  -0.229  -0.012
    1UNL     H5   27  -0.007  -0.225  -0.130
    1UNL     H6   28   0.039  -0.303   0.012
    1UNL     H7   29   0.160   0.067  -0.005
    1UNL     H8   30   0.144  -0.039  -0.142
    1UNL     H9   31   0.297  -0.113   0.112
    1UNL    H10   32   0.271  -0.221  -0.014
    1UNL    H11   33   0.440  -0.100  -0.150
    1UNL    H12   34   0.496   0.211   0.114
    1UNL    H13   35   0.361   0.236  -0.002
    1UNL    H14   36   0.344   0.128   0.131
    1UNL    H15   37   0.724   0.034  -0.213
    1UNL    H16   38  -0.206   0.043   0.156
    1UNL    H17   39  -0.392  -0.241   0.108
    1UNL    H18   40  -0.392  -0.088   0.190
    1UNL    H19   41  -0.535  -0.148  -0.074
    1UNL    H20   42  -0.555   0.049   0.133
    1UNL    H21   43  -0.351  -0.026  -0.184
    1UNL    H22   44  -0.572   0.145  -0.081
    1UNL    H23   45  -0.229   0.161  -0.091
    1UNL    H24   46  -0.393   0.283   0.005
   0.00000   0.00000   0.00000   0.00000   0.00000   0.00000   0.00000   0.00000   0.00000
