[ moleculetype ]
; name        nrexcl
res           1

[ atoms ]
;    nr  type resnr resid  atom  cgnr     charge       mass
      1 SC4       1 res   C1        1      0.000     54.000
      2 TC3       1 res   C2        2      0.000     36.000
      3 SC5       1 res   C3        3      0.000     54.000
      4 SN4a      1 res   C4        4      0.000     54.000
      5 SN4a      1 res   C5        5      0.000     54.000
      6 TP1       1 res   C6        6      0.000     36.000
      7 TN6       1 res   C7        7      0.000     36.000
      8 TN6       1 res   C8        8      0.000     36.000
      9 TN6       1 res   C9        9      0.000     36.000
     10 TC3       1 res   C10      10      0.000     36.000
     11 SC4       1 res   C11      11      0.000     54.000
     12 TC3       1 res   C12      12      0.000     36.000
     13 SC4       1 res   C13      13      0.000     54.000
     14 SC4       1 res   C14      14      0.000     54.000
     15 SN6       1 res   C15      15      0.000     54.000
     16 TN6       1 res   C16      16      0.000     36.000
     17 SN4a      1 res   C17      17      0.000     54.000
     18 SP2       1 res   C18      18      0.000     54.000
     19 TN6       1 res   C19      19      0.000     36.000
     20 TN6       1 res   C20      20      0.000     36.000
     21 TN6       1 res   C21      21      0.000     36.000
     22 SN4a      1 res   C22      22      0.000     54.000
     23 TN6       1 res   C23      23      0.000     36.000
     24 TN6       1 res   C24      24      0.000     36.000
     25 TN6       1 res   C25      25      0.000     36.000
     26 SC4       1 res   C26      26      0.000     54.000
     27 TC3       1 res   C27      27      0.000     36.000

[ bonds ]
;  ai    aj   funct      b0(nm)        k
    1     2     1      0.31045    20000
    1     3     1      0.27531    20000
    2     3     1      0.28970    20000
    3     4     1      0.33540    20000
    3    10     1      0.36369    20000
    3    11     1      0.28940    20000
    4     5     1      0.29115    20000
    5     6     1      0.30121    20000
    5     7     1      0.27929    20000
    5     9     1      0.26595    20000
    7     8     1      0.23784    20000
    8     9     1      0.23816    20000
   10    11     1      0.30464    20000
   11    12     1      0.38910    20000
   11    13     1      0.30675    20000
   12    13     1      0.37662    20000
   13    14     1      0.26317    20000
   13    27     1      0.29758    20000
   14    15     1      0.31706    20000
   14    26     1      0.33119    20000
   14    27     1      0.37407    20000
   15    16     1      0.24094    20000
   16    17     1      0.25466    20000
   16    26     1      0.25015    20000
   17    18     1      0.33227    20000
   17    19     1      0.30239    20000
   17    21     1      0.23743    20000
   19    20     1      0.23762    20000
   20    21     1      0.23739    20000
   21    22     1      0.25257    20000
   22    23     1      0.27198    20000
   22    25     1      0.29447    20000
   23    24     1      0.27181    20000
   24    25     1      0.24488    20000
