[ moleculetype ]
; name        nrexcl
res           1

[ atoms ]
;    nr  type  resnr resid  atom  cgnr     charge       mass
      1 TN2a      1 res   C1        1      0.000     36.000
      2 TC5       1 res   C2        2      0.000     36.000
      3 TC5       1 res   C3        3      0.000     36.000
      4 TC5       1 res   C4        4      0.000     36.000
      5 TN4a      1 res   C5        5      0.000     36.000
      6 TN3r      1 res   C6        6      0.000     36.000
      7 SN4a      1 res   C7        7      0.000     54.000
      8 SN3r      1 res   C8        8      0.000     54.000
      9 TC3       1 res   C9        9      0.000     36.000
     10 TN4a      1 res   C10      10      0.000     36.000
     11 SC4       1 res   C11      11      0.000     54.000
     12 TN6a      1 res   C12      12      0.000     36.000
     13 SP4       1 res   C13      13      0.000     54.000
     14 TN6       1 res   C14      14      0.000     36.000
     15 TC5       1 res   C15      15      0.000     36.000
     16 TN2a      1 res   C16      16      0.000     36.000

[ constraints ]
;  ai    aj   funct      b0(nm)
    3    15     1      0.27147
    7    13     1      0.26705
    2     3     1      0.22099
    4     5     1      0.26178
    2    15     1      0.30333
   13    14     1      0.29833
    3     4     1      0.27449
    7    14     1      0.30612
    9    10     1      0.21420
    6     7     1      0.30441
    9    12     1      0.29566
   10    12     1      0.26701
    8     9     1      0.33645

[ bonds ]
;  ai    aj   funct      b0(nm)          k(kJ/mol/nm^2)
    1     2     1      0.24043          18128.1
   10    11     1      0.30809          19985.9
    7     8     1      0.28276           3794.2
    5     6     1      0.22397          11708.2
   15    16     1      0.30117           3793.4

[ angles ]
;  ai    aj    ak  funct     th0(deg)        k(kJ/mol/rad^2)
    1     2     3     1    166.91247            98.38
    1     2    15     1    116.40392           300.01
    2     3     4     1    156.00894           432.76
    2     3    15     1     75.26145          6315.02
    2    15     3     1     44.79526          7858.99
    2    15    16     1     85.61500            55.02
    3     2    15     1     59.94326          6949.05
    3     4     5     1     72.31348            80.91
    3    15    16     1    128.69858            60.81
    4     3    15     1     82.73556           583.78
    4     5     6     1    119.54040           448.52
    5     6     7     1    109.70960             7.90
    6     7     8     1    118.17203            42.04
    6     7    13     1    121.25119           761.33
    6     7    14     1     60.51239          1331.60
    7     8     9     1    121.82369            15.91
    7    13    14     1     65.27971          1749.77
    7    14    13     1     52.41292          2064.21
    8     7    13     1    115.11083            50.66
    8     7    14     1    157.69036           115.79
    8     9    10     1    110.40277           223.23
    8     9    12     1     55.00390          1269.30
    9    10    11     1    109.50560            56.28
    9    10    12     1     74.94226          2079.38
    9    12    10     1     44.37869          6476.59
   10     9    12     1     60.67912          2999.70
   11    10    12     1    112.14054            25.75
   13     7    14     1     62.30690          1542.79

[ dihedrals ]
;  ai    aj    ak    al  funct   phi0(deg)        k(kJ/mol)   mult
    1     2     3     4     1    140.62766       10.909      1
    1     2     3    15     1    131.72097       10.279      1
    1     2    15     3     1     -3.51576       21.642      1
    1     2    15    16     1    169.67459       26.493      1
    2     3     4     5     1    -88.31720       30.471      1
    2     3    15    16     1    172.81344       24.973      1
    2    15     3     4     1      9.98713       10.762      1
    3     2    15    16     1     -1.13292       19.724      1
    3     4     5     6     1     93.62222       32.251      1
    4     3     2    15     1   -159.89095       20.414      1
    4     3    15    16     1     -0.30375       25.364      1
    4     5     6     7     1    -89.47089       21.560      1
    5     4     3    15     1    -73.92041       25.436      1
    5     6     7     8     1   -129.74704       28.309      1
    5     6     7    13     1     73.26277       28.588      1
    5     6     7    14     1     66.87799       23.309      1
    6     7     8     9     1    -38.40358        6.413      1
    6     7    13    14     1    177.53705       19.670      1
    6     7    14    13     1     -1.50115       20.308      1
    7     8     9    10     1   -138.44234       28.318      1
    7     8     9    12     1   -118.59723       27.966      1
    8     7    13    14     1     17.23862       20.298      1
    8     7    14    13     1    -99.79273       21.647      1
    8     9    10    11     1    -45.47583       30.649      1
    8     9    10    12     1   -162.28852       20.432      1
    8     9    12    10     1     23.59688       24.068      1
    9     8     7    13     1    145.54631        6.888      1
    9     8     7    14     1     80.74297       10.816      1
    9    12    10    11     1     76.47000       19.018      1
   11    10     9    12     1    -66.22865       25.612      1
