1TPCN04332
48
    1res  C1    1   -1.489   0.054   0.376
    1res  C2    2   -1.261   0.169   0.234
    1res  C3    3   -1.167   0.144   0.054
    1res  C4    4   -0.991   0.277   0.010
    1res  C5    5   -0.876   0.075  -0.076
    1res  C6    6   -0.703  -0.060  -0.029
    1res  C7    7   -0.916  -0.285  -0.024
    1res  C8    8   -0.782  -0.453  -0.163
    1res  C9    9   -0.577  -0.257  -0.079
    1res  C10   10   -0.395  -0.254  -0.160
    1res  C11   11   -0.196  -0.176  -0.178
    1res  C12   12    0.035  -0.006  -0.073
    1res  C13   13    0.252  -0.100  -0.190
    1res  C14   14    0.415  -0.275   0.039
    1res  C15   15    0.522  -0.050  -0.101
    1res  C16   16    0.461   0.208  -0.026
    1res  C17   17    0.588  -0.048   0.206
    1res  C18   18    0.742   0.201   0.241
    1res  C19   19    0.802   0.375   0.456
    1res  C20   20    1.007   0.231   0.302
    1res  C21   21    0.985   0.171  -0.014
    1res  C22   22    1.192   0.120  -0.108
    1res  C23   23    1.449   0.180   0.033
    1res  C24   24    1.708  -0.055   0.043
    1res  C25   25    1.800  -0.123  -0.171
    1res  C26   26    1.928  -0.055   0.158
    1res  C27   27    1.926   0.191   0.090
    1res  C28   28    1.713   0.160   0.195
    1res  C29   29    1.435  -0.028  -0.189
    1res  C30   30    1.242  -0.177  -0.170
    1res  C31   31    1.085  -0.017  -0.321
    1res  C32   32    0.840  -0.095   0.107
    1res  C33   33    0.051  -0.203   0.152
    1res  C34   34    0.044  -0.446  -0.032
    1res  C35   35   -0.145  -0.288  -0.416
    1res  C36   36   -0.361  -0.226  -0.528
    1res  C37   37   -0.431  -0.360  -0.351
    1res  C38   38   -1.065   0.010  -0.192
    1res  C39   39   -1.141  -0.013  -0.393
    1res  C40   40   -1.250   0.127  -0.134
    1res  C41   41   -1.517   0.014  -0.226
    1res  C42   42   -1.552  -0.201  -0.026
    1res  C43   43   -1.786  -0.009  -0.108
    1res  C44   44   -1.738   0.231  -0.145
    1res  C45   45   -1.503   0.248  -0.041
    1res  C46   46   -1.164   0.336   0.347
    1res  C47   47   -1.368   0.457   0.411
    1res  C48   48   -1.490   0.286   0.455
  10.00000  10.00000  10.00000
