1TPCN03183
15
    1res  C1    1   -0.382  -0.113  -0.333
    1res  C2    2   -0.414  -0.046  -0.081
    1res  C3    3   -0.309  -0.008   0.154
    1res  C4    4   -0.298  -0.262   0.125
    1res  C5    5   -0.030  -0.429   0.002
    1res  C6    6   -0.127  -0.064  -0.079
    1res  C7    7   -0.174   0.152  -0.014
    1res  C8    8   -0.143   0.412   0.224
    1res  C9    9   -0.132   0.318  -0.158
    1res  C10   10    0.098   0.075  -0.255
    1res  C11   11    0.349  -0.032  -0.371
    1res  C12   12    0.207  -0.044  -0.034
    1res  C13   13    0.048   0.031   0.142
    1res  C14   14    0.410   0.083   0.104
    1res  C15   15    0.568   0.004   0.289
  10.00000  10.00000  10.00000
