[ moleculetype ]
; name        nrexcl
res           1

[ atoms ]
;    nr  type  resnr resid  atom  cgnr     charge       mass
      1 C1        1 res   C1        1      0.000     72.000
      2 SN4a      1 res   C2        2      0.000     54.000
      3 TC5       1 res   C3        3      0.000     36.000
      4 TC5       1 res   C4        4      0.000     36.000
      5 TC5       1 res   C5        5      0.000     36.000

[ constraints ]
;  ai    aj   funct      b0(nm)
    1     2     1      0.36863
    3     5     1      0.29752
    2     3     1      0.24709
    4     5     1      0.28764
    3     4     1      0.25641

[ bonds ]
;  ai    aj   funct      b0(nm)          k(kJ/mol/nm^2)

[ angles ]
;  ai    aj    ak  funct     th0(deg)        k(kJ/mol/rad^2)
    1     2     3     1    151.39986           220.63
    2     3     4     1    145.74229          1431.88
    2     3     5     1     83.99968          1823.52
    3     4     5     1     66.01213          7590.88
    3     5     4     1     51.93967          8098.31
    4     3     5     1     62.04820          5666.10

[ dihedrals ]
;  ai    aj    ak    al  funct   phi0(deg)        k(kJ/mol)   mult
    1     2     3     4     1   -148.05562       29.714      1
    1     2     3     5     1   -151.73750       26.390      1
    2     3     4     5     1    178.88214       14.382      1
    2     3     5     4     1      0.00063        9.319      1
