1TPCN02157
7
    1res  C1    1   -0.115   0.248   0.126
    1res  C2    2   -0.335   0.033   0.133
    1res  C3    3   -0.273  -0.174  -0.019
    1res  C4    4   -0.090  -0.003  -0.069
    1res  C5    5    0.108  -0.095   0.007
    1res  C6    6    0.181  -0.114  -0.195
    1res  C7    7    0.366   0.073  -0.076
  10.00000  10.00000  10.00000
