[ moleculetype ]
; name        nrexcl
res           1

[ atoms ]
;    nr  type  resnr resid  atom  cgnr     charge       mass
      1 TC3       1 res   C1        1      0.000     36.000
      2 SN6       1 res   C2        2      0.000     54.000
      3 TC3       1 res   C3        3      0.000     36.000
      4 TN6d      1 res   C4        4      0.000     36.000
      5 SC5       1 res   C5        5      0.000     54.000
      6 TN1       1 res   C6        6      0.000     36.000
      7 TC5       1 res   C7        7      0.000     36.000
      8 TC5       1 res   C8        8      0.000     36.000
      9 TC5       1 res   C9        9      0.000     36.000
     10 TC3       1 res   C10      10      0.000     36.000
     11 TP1       1 res   C11      11      0.000     36.000

[ constraints ]
;  ai    aj   funct      b0(nm)
    5    11     1      0.25764
   10    11     1      0.25618
    2     3     1      0.29544
    4     5     1      0.24759
    5    10     1      0.25333
    7     9     1      0.24842
    5     7     1      0.20455
    3     4     1      0.24492
    3    10     1      0.30004
    7     8     1      0.24891
    4    10     1      0.29797
    6     7     1      0.30238
    2     4     1      0.24469
    8     9     1      0.28980

[ bonds ]
;  ai    aj   funct      b0(nm)          k(kJ/mol/nm^2)
    1     2     1      0.28399          11833.9
    5     6     1      0.33781           8478.9

[ angles ]
;  ai    aj    ak  funct     th0(deg)        k(kJ/mol/rad^2)
    1     2     3     1     65.57059           727.68
    1     2     4     1    110.55647           335.38
    2     3     4     1     52.84549          1327.01
    2     3    10     1     59.68955          1902.09
    2     4     3     1     74.22900          1220.20
    2     4     5     1    117.69899          1172.10
    2     4    10     1     65.34625          1891.95
    3     2     4     1     52.92502          2202.53
    3     4     5     1     93.56236          2166.65
    3     4    10     1     66.26512          3546.86
    3    10     4     1     48.34723          7715.04
    3    10     5     1     80.38532          2766.36
    3    10    11     1     77.92352           813.50
    4     3    10     1     65.38761          3925.43
    4     5     6     1     67.14407           971.55
    4     5     7     1    125.75001           642.44
    4     5    10     1     72.98455          4923.90
    4     5    11     1    109.53589          1026.84
    4    10     5     1     52.62077          4214.24
    4    10    11     1     95.97982          1212.69
    5     4    10     1     54.39467          3875.11
    5     6     7     1     36.67320          3199.33
    5     7     6     1     81.13172           341.64
    5     7     8     1    157.43419           348.97
    5     7     9     1    118.52248           653.48
    5    10    11     1     60.70136          1847.81
    5    11    10     1     59.13026          1240.38
    6     5     7     1     62.19640           568.29
    6     5    10     1    139.09675           857.85
    6     5    11     1    138.52503           120.09
    6     7     8     1     89.00662           835.00
    6     7     9     1    158.35458           584.03
    7     5    10     1    156.05269           747.54
    7     5    11     1     97.29405           806.66
    7     8     9     1     54.27534          9711.90
    7     9     8     1     54.43643          7898.17
    8     7     9     1     71.28825          5832.10
   10     5    11     1     60.16857          1110.90

[ dihedrals ]
;  ai    aj    ak    al  funct   phi0(deg)        k(kJ/mol)   mult
    1     2     3     4     1    -30.32537       13.450      1
    1     2     3    10     1     49.88986       12.762      1
    1     2     4     3     1    151.23892       14.195      1
    1     2     4     5     1     64.89675       13.500      1
    1     2     4    10     1     80.53580       12.113      1
    2     3     4     5     1    -62.24228        6.260      1
    2     3     4    10     1   -110.04309        6.239      1
    2     3    10     4     1    119.06709        6.981      1
    2     3    10     5     1     72.04357        7.748      1
    2     3    10    11     1     10.04032        7.786      1
    2     4     3    10     1    110.04309        6.239      1
    2     4     5     6     1     21.07636       15.690      1
    2     4     5     7     1      0.03781        7.853      1
    2     4     5    10     1   -164.14492        7.791      1
    2     4     5    11     1   -115.09908       11.428      1
    2     4    10     3     1    -97.19902        7.018      1
    2     4    10     5     1     15.82724        7.794      1
    2     4    10    11     1    -29.83011        9.209      1
    3     2     4     5     1     94.00312        6.271      1
    3     2     4    10     1    108.75177        5.476      1
    3     4     5     6     1    -51.86560       15.052      1
    3     4     5     7     1    -74.91482        7.075      1
    3     4     5    10     1    122.99181        4.025      1
    3     4     5    11     1    171.00899        8.576      1
    3     4    10     5     1    -66.99575        5.514      1
    3     4    10    11     1   -112.03515        7.753      1
    3    10     4     5     1     66.99575        5.514      1
    3    10     5     4     1   -135.99431        4.686      1
    3    10     5     6     1   -127.23118       18.495      1
    3    10     5     7     1     77.76772       13.607      1
    3    10     5    11     1     98.01206        7.791      1
    3    10    11     5     1    -94.05562        6.233      1
    4     2     3    10     1    -99.94290        4.759      1
    4     3    10     5     1    132.01121        4.717      1
    4     3    10    11     1     70.93405        5.555      1
    4     5     6     7     1     19.91756       13.632      1
    4     5     7     6     1   -157.93926       15.031      1
    4     5     7     8     1   -101.09451       16.975      1
    4     5     7     9     1     17.76651       12.213      1
    4     5    10    11     1    -53.09926        7.078      1
    4     5    11    10     1    124.96277        7.017      1
    4    10     5     6     1   -172.61517       18.429      1
    4    10     5     7     1     33.77144       13.620      1
    4    10     5    11     1     53.09926        7.078      1
    4    10    11     5     1   -139.97989        4.810      1
    5     4     3    10     1   -131.95514        4.714      1
    5     4    10    11     1    134.04412        6.307      1
    5     6     7     8     1     19.07434       10.063      1
    5     6     7     9     1     13.17215       24.894      1
    5     7     8     9     1    -53.23707       17.603      1
    5     7     9     8     1     20.69832       11.481      1
    6     5     4    10     1      6.87508       15.705      1
    6     5     7     8     1   -119.30756       20.937      1
    6     5     7     9     1     -5.66880       14.275      1
    6     5    10    11     1    -48.27293       19.121      1
    6     5    11    10     1     46.85096        8.560      1
    6     7     5    10     1    -18.77089       19.693      1
    6     7     5    11     1    -37.12760       14.368      1
    6     7     8     9     1      1.93364       15.003      1
    6     7     9     8     1   -172.95193       29.256      1
    7     5     4    10     1    -16.02254        7.801      1
    7     5    10    11     1    159.63937       14.972      1
    7     5    11    10     1    -10.03658        7.756      1
    7     6     5    10     1     11.97357       12.189      1
    7     6     5    11     1    113.24130       11.481      1
    8     7     5    10     1     41.90951       17.807      1
    8     7     5    11     1     21.62045       17.692      1
    9     7     5    10     1    155.69037       16.980      1
    9     7     5    11     1    140.21906       12.200      1
   10     4     5    11     1   -132.89129        7.070      1
