1TPCN04002
25
    1res  C1    1   -0.305  -0.174  -0.426
    1res  C2    2   -0.243   0.092  -0.353
    1res  C3    3   -0.162  -0.058  -0.161
    1res  C4    4   -0.308   0.188  -0.068
    1res  C5    5   -0.542   0.205   0.118
    1res  C6    6   -0.702   0.026   0.311
    1res  C7    7   -0.783   0.311   0.175
    1res  C8    8   -0.798   0.324  -0.032
    1res  C9    9   -0.634   0.219  -0.149
    1res  C10   10   -0.005   0.098  -0.010
    1res  C11   11   -0.219  -0.049   0.148
    1res  C12   12   -0.054  -0.365   0.045
    1res  C13   13   -0.055  -0.228   0.318
    1res  C14   14    0.288  -0.334   0.182
    1res  C15   15    0.288  -0.189  -0.060
    1res  C16   16    0.464  -0.033   0.023
    1res  C17   17    0.539   0.184  -0.096
    1res  C18   18    0.471   0.322  -0.395
    1res  C19   19    0.693   0.398  -0.106
    1res  C20   20    0.870   0.228  -0.148
    1res  C21   21    0.809   0.058  -0.011
    1res  C22   22    0.513  -0.020   0.272
    1res  C23   23    0.567  -0.274   0.206
    1res  C24   24    0.156  -0.009   0.322
    1res  C25   25   -0.377  -0.249  -0.166
  10.00000  10.00000  10.00000
