[ moleculetype ]
; name        nrexcl
res           1

[ atoms ]
;    nr  type resnr resid  atom  cgnr     charge       mass
      1 SN3r      1 res   C1        1      0.000     54.000
      2 TC5       1 res   C2        2      0.000     36.000
      3 TN6d      1 res   C3        3      0.000     36.000
      4 SC5       1 res   C4        4      0.000     54.000
      5 TC3       1 res   C5        5      0.000     36.000
      6 TN3r      1 res   C6        6      0.000     36.000
      7 TC3       1 res   C7        7      0.000     36.000
      8 TN3r      1 res   C8        8      0.000     36.000
      9 TN6       1 res   C9        9      0.000     36.000
     10 SN6       1 res   C10      10      0.000     54.000
     11 TN6       1 res   C11      11      0.000     36.000
     12 SN6       1 res   C12      12      0.000     54.000
     13 SN6       1 res   C13      13      0.000     54.000
     14 TN3r      1 res   C14      14      0.000     36.000

[ bonds ]
;  ai    aj   funct      b0(nm)        k
    1     2     1      0.33432    20000
    2     3     1      0.29004    20000
    2     4     1      0.25644    20000
    2     5     1      0.26187    20000
    2     9     1      0.28715    20000
    3     4     1      0.34702    20000
    4     5     1      0.27354    20000
    4     7     1      0.30016    20000
    4    10     1      0.30711    20000
    4    12     1      0.29411    20000
    5     6     1      0.27155    20000
    5    12     1      0.27620    20000
    7     8     1      0.25397    20000
    7     9     1      0.24218    20000
   10    11     1      0.23108    20000
   10    13     1      0.32206    20000
   11    12     1      0.26689    20000
   12    13     1      0.28148    20000
   13    14     1      0.26054    20000
