[ moleculetype ]
; name        nrexcl
res           1

[ atoms ]
;    nr  type resnr resid  atom  cgnr     charge       mass
      1 TC4       1 res   C1        1      0.000     36.000
      2 TC5       1 res   C2        2      0.000     36.000
      3 SC4       1 res   C3        3      0.000     54.000
      4 TC3       1 res   C4        4      0.000     36.000
      5 SC4       1 res   C5        5      0.000     54.000
      6 SC4       1 res   C6        6      0.000     54.000
      7 SN6       1 res   C7        7      0.000     54.000
      8 TN6       1 res   C8        8      0.000     36.000
      9 SN4a      1 res   C9        9      0.000     54.000
     10 TN6       1 res   C10      10      0.000     36.000
     11 TN6       1 res   C11      11      0.000     36.000
     12 TN6       1 res   C12      12      0.000     36.000
     13 TC4       1 res   C13      13      0.000     36.000
     14 TP1       1 res   C14      14      0.000     36.000
     15 TC3       1 res   C15      15      0.000     36.000
     16 TC3       1 res   C16      16      0.000     36.000
     17 SN4a      1 res   C17      17      0.000     54.000
     18 SN4a      1 res   C18      18      0.000     54.000
     19 TP1       1 res   C19      19      0.000     36.000
     20 TN6       1 res   C20      20      0.000     36.000
     21 TN6       1 res   C21      21      0.000     36.000
     22 TN6       1 res   C22      22      0.000     36.000
     23 TC3       1 res   C23      23      0.000     36.000
     24 SN6       1 res   C24      24      0.000     54.000

[ bonds ]
;  ai    aj   funct      b0(nm)        k
    1     2     1      0.28897    20000
    1    24     1      0.26414    20000
    2     3     1      0.31541    20000
    2    16     1      0.27099    20000
    2    17     1      0.29487    20000
    2    23     1      0.26307    20000
    3     4     1      0.29916    20000
    3     5     1      0.27641    20000
    3    16     1      0.27050    20000
    4     5     1      0.37920    20000
    5     6     1      0.28987    20000
    5    15     1      0.28467    20000
    6     7     1      0.33565    20000
    6    13     1      0.41278    20000
    6    15     1      0.32720    20000
    7     8     1      0.26272    20000
    8     9     1      0.31029    20000
    8    13     1      0.24700    20000
    9    10     1      0.25285    20000
    9    12     1      0.32826    20000
   10    11     1      0.24100    20000
   11    12     1      0.24413    20000
   13    14     1      0.26449    20000
   17    18     1      0.24597    20000
   18    19     1      0.29383    20000
   18    20     1      0.29677    20000
   18    22     1      0.27721    20000
   20    21     1      0.24484    20000
   21    22     1      0.25120    20000
   23    24     1      0.27235    20000
