1TPCN04900
12
    1res  C1    1   -0.576   0.191  -0.020
    1res  C2    2   -0.480  -0.028  -0.221
    1res  C3    3   -0.363  -0.121   0.002
    1res  C4    4   -0.154  -0.076   0.167
    1res  C5    5    0.027  -0.067  -0.176
    1res  C6    6    0.101   0.106   0.155
    1res  C7    7    0.338   0.081   0.044
    1res  C8    8    0.429   0.083  -0.197
    1res  C9    9    0.568  -0.134  -0.189
    1res  C10   10    0.561  -0.154   0.090
    1res  C11   11    0.199  -0.158   0.182
    1res  C12   12   -0.221   0.205   0.089
  10.00000  10.00000  10.00000
