[ moleculetype ]
; name        nrexcl
res           1

[ atoms ]
;    nr  type resnr resid  atom  cgnr     charge       mass
      1 TC4       1 res   C1        1      0.000     36.000
      2 TN4a      1 res   C2        2      0.000     36.000
      3 TN6       1 res   C3        3      0.000     36.000
      4 SN4a      1 res   C4        4      0.000     54.000
      5 TP1       1 res   C5        5      0.000     36.000
      6 TN3r      1 res   C6        6      0.000     36.000
      7 SN4a      1 res   C7        7      0.000     54.000
      8 SN4a      1 res   C8        8      0.000     54.000
      9 SC5       1 res   C9        9      0.000     54.000
     10 TC3       1 res   C10      10      0.000     36.000
     11 SC4       1 res   C11      11      0.000     54.000
     12 SC4       1 res   C12      12      0.000     54.000
     13 TC3       1 res   C13      13      0.000     36.000
     14 SC4       1 res   C14      14      0.000     54.000
     15 SC4       1 res   C15      15      0.000     54.000
     16 TC3       1 res   C16      16      0.000     36.000
     17 TN6       1 res   C17      17      0.000     36.000
     18 SN4a      1 res   C18      18      0.000     54.000
     19 TP1       1 res   C19      19      0.000     36.000
     20 TN6       1 res   C20      20      0.000     36.000
     21 TN6       1 res   C21      21      0.000     36.000
     22 TN6       1 res   C22      22      0.000     36.000
     23 SN4a      1 res   C23      23      0.000     54.000
     24 TP1       1 res   C24      24      0.000     36.000
     25 TN6       1 res   C25      25      0.000     36.000
     26 TN6       1 res   C26      26      0.000     36.000
     27 TN6       1 res   C27      27      0.000     36.000
     28 SC4       1 res   C28      28      0.000     54.000
     29 TC3       1 res   C29      29      0.000     36.000
     30 TC3       1 res   C30      30      0.000     36.000
     31 TN6       1 res   C31      31      0.000     36.000
     32 TN6       1 res   C32      32      0.000     36.000
     33 TN6       1 res   C33      33      0.000     36.000
     34 TN6       1 res   C34      34      0.000     36.000
     35 TN6       1 res   C35      35      0.000     36.000
     36 TN6       1 res   C36      36      0.000     36.000
     37 TN6       1 res   C37      37      0.000     36.000
     38 TN6       1 res   C38      38      0.000     36.000

[ bonds ]
;  ai    aj   funct      b0(nm)        k
    1     2     1      0.24908    20000
    1    38     1      0.28124    20000
    2     3     1      0.21707    20000
    2    36     1      0.26059    20000
    3     4     1      0.22954    20000
    3    35     1      0.22713    20000
    4     5     1      0.28384    20000
    4     6     1      0.34686    20000
    4    34     1      0.30959    20000
    6     7     1      0.29709    20000
    7     8     1      0.22797    20000
    7    31     1      0.25721    20000
    7    33     1      0.27862    20000
    8     9     1      0.31460    20000
    9    10     1      0.28143    20000
    9    11     1      0.28536    20000
    9    12     1      0.37444    20000
    9    30     1      0.36141    20000
   10    11     1      0.29133    20000
   12    13     1      0.32191    20000
   12    14     1      0.30956    20000
   12    30     1      0.28306    20000
   13    14     1      0.28563    20000
   14    15     1      0.26139    20000
   14    29     1      0.25995    20000
   15    16     1      0.27812    20000
   15    28     1      0.33833    20000
   15    29     1      0.30830    20000
   16    17     1      0.25375    20000
   17    18     1      0.29732    20000
   17    28     1      0.24653    20000
   18    19     1      0.32103    20000
   18    20     1      0.29093    20000
   18    22     1      0.22056    20000
   20    21     1      0.24417    20000
   21    22     1      0.22141    20000
   22    23     1      0.26472    20000
   23    24     1      0.30838    20000
   23    25     1      0.30988    20000
   23    27     1      0.24482    20000
   25    26     1      0.24064    20000
   26    27     1      0.24945    20000
   31    32     1      0.27180    20000
   32    33     1      0.22764    20000
   34    35     1      0.21382    20000
   36    37     1      0.22870    20000
   37    38     1      0.24319    20000
