[ moleculetype ]
; name        nrexcl
res           1

[ atoms ]
;    nr  type  resnr resid  atom  cgnr     charge       mass
      1 SN6d      1 res   C1        1      0.000     54.000
      2 SX3       1 res   C2        2      0.000     54.000
      3 TX3       1 res   C3        3      0.000     36.000
      4 TX3       1 res   C4        4      0.000     36.000

[ constraints ]
;  ai    aj   funct      b0(nm)
    1     2     1      0.31098
    2     3     1      0.29446
    1     4     1      0.35307
    3     4     1      0.22605

[ bonds ]
;  ai    aj   funct      b0(nm)          k(kJ/mol/nm^2)

[ angles ]
;  ai    aj    ak  funct     th0(deg)        k(kJ/mol/rad^2)
    1     2     3     1     93.06270          3483.37
    1     4     3     1     96.27781          1533.33
    2     1     4     1     72.46623          6427.52
    2     3     4     1     97.56844          1969.54

[ dihedrals ]
;  ai    aj    ak    al  funct   phi0(deg)        k(kJ/mol)   mult
    1     2     3     4     1    179.99906       12.252      1
    1     4     3     2     1    179.97062       10.829      1
    2     1     4     3     1   -179.96947       10.823      1
    3     2     1     4     1    179.03843        8.603      1
