1TPCN03893
19
    1res  C1    1    0.657   0.235   0.135
    1res  C2    2    0.676  -0.020   0.193
    1res  C3    3    0.369   0.234   0.142
    1res  C4    4    0.388   0.205  -0.062
    1res  C5    5    0.576   0.184  -0.229
    1res  C6    6    0.210   0.126  -0.241
    1res  C7    7    0.243  -0.099  -0.126
    1res  C8    8    0.214  -0.174   0.156
    1res  C9    9   -0.004  -0.200  -0.144
    1res  C10   10   -0.126  -0.311   0.191
    1res  C11   11   -0.176  -0.498  -0.015
    1res  C12   12   -0.431  -0.476   0.102
    1res  C13   13   -0.447  -0.237  -0.015
    1res  C14   14   -0.154   0.000   0.003
    1res  C15   15   -0.308   0.248   0.006
    1res  C16   16   -0.191   0.474  -0.149
    1res  C17   17   -0.487   0.437  -0.078
    1res  C18   18   -0.595   0.332   0.078
    1res  C19   19   -0.461   0.185   0.220
  10.00000  10.00000  10.00000
