[ moleculetype ]
; name        nrexcl
res           1

[ atoms ]
;    nr  type resnr resid  atom  cgnr     charge       mass
      1 SC4       1 res   C1        1      0.000     54.000
      2 TN4a      1 res   C2        2      0.000     36.000
      3 TC3       1 res   C3        3      0.000     36.000
      4 TC3       1 res   C4        4      0.000     36.000
      5 SC3       1 res   C5        5      0.000     54.000
      6 TC5       1 res   C6        6      0.000     36.000
      7 TC3       1 res   C7        7      0.000     36.000
      8 P4        1 res   C8        8      0.000     72.000
      9 N4a       1 res   C9        9      0.000     72.000
     10 SC2       1 res   C10      10      0.000     54.000
     11 SC2       1 res   C11      11      0.000     54.000
     12 TN6a      1 res   C12      12      0.000     36.000

[ bonds ]
;  ai    aj   funct      b0(nm)        k
    1     2     1      0.28664    20000
    1    12     1      0.26138    20000
    2     3     1      0.24184    20000
    2    12     1      0.26656    20000
    3     4     1      0.27342    20000
    4     5     1      0.25868    20000
    5     6     1      0.26461    20000
    5     7     1      0.32257    20000
    6     7     1      0.24461    20000
    6     8     1      0.23284    20000
    6    11     1      0.26800    20000
    8     9     1      0.33376    20000
    8    11     1      0.28250    20000
    9    10     1      0.38584    20000
   10    11     1      0.33820    20000
