1TPCN06380
12
    1res  C1    1    0.663  -0.200  -0.091
    1res  C2    2    0.508  -0.024   0.075
    1res  C3    3    0.396   0.187   0.111
    1res  C4    4    0.204  -0.004   0.148
    1res  C5    5    0.048   0.190   0.077
    1res  C6    6   -0.171   0.096  -0.037
    1res  C7    7   -0.001   0.038  -0.203
    1res  C8    8   -0.364   0.033  -0.151
    1res  C9    9   -0.397  -0.294  -0.093
    1res  C10   10   -0.677  -0.057   0.026
    1res  C11   11   -0.380   0.068   0.128
    1res  C12   12    0.774  -0.018   0.061
  10.00000  10.00000  10.00000
