[ moleculetype ]
; name        nrexcl
res           1

[ atoms ]
;    nr  type  resnr resid  atom  cgnr     charge       mass
      1 SX4e      1 res   C1        1      0.000     54.000
      2 SX4e      1 res   C2        2      0.000     54.000
      3 SX4e      1 res   C3        3      0.000     54.000

[ constraints ]
;  ai    aj   funct      b0(nm)
    1     2     1      0.29417
    1     3     1      0.30264
    2     3     1      0.29836

[ bonds ]
;  ai    aj   funct      b0(nm)          k(kJ/mol/nm^2)

[ angles ]
;  ai    aj    ak  funct     th0(deg)        k(kJ/mol/rad^2)
    1     2     3     1     61.42373          6977.22
    1     3     2     1     58.60584          7626.65
    2     1     3     1     59.97046          5635.25

[ dihedrals ]
;  ai    aj    ak    al  funct   phi0(deg)        k(kJ/mol)   mult
