[ moleculetype ]
; name        nrexcl
res           1

[ atoms ]
;    nr  type  resnr resid  atom  cgnr     charge       mass
      1 TC5       1 res   C1        1      0.000     36.000
      2 SN6       1 res   C2        2      0.000     54.000
      3 SN4a      1 res   C3        3      0.000     54.000
      4 TP1       1 res   C4        4      0.000     36.000
      5 SP4       1 res   C5        5      0.000     54.000
      6 TN6       1 res   C6        6      0.000     36.000
      7 SN4a      1 res   C7        7      0.000     54.000
      8 TP1       1 res   C8        8      0.000     36.000
      9 SP4       1 res   C9        9      0.000     54.000
     10 TN6       1 res   C10      10      0.000     36.000
     11 TN4a      1 res   C11      11      0.000     36.000
     12 TC5       1 res   C12      12      0.000     36.000
     13 TN6a      1 res   C13      13      0.000     36.000
     14 SN6d      1 res   C14      14      0.000     54.000
     15 SC4       1 res   C15      15      0.000     54.000
     16 TN6d      1 res   C16      16      0.000     36.000
     17 TC5e      1 res   C17      17      0.000     36.000
     18 SN6       1 res   C18      18      0.000     54.000
     19 TC5       1 res   C19      19      0.000     36.000
     20 TN6a      1 res   C20      20      0.000     36.000

[ constraints ]
;  ai    aj   funct      b0(nm)
   13    14     1      0.32176
   15    20     1      0.24141
   18    19     1      0.28593
    3     6     1      0.27812
   14    15     1      0.27896
   17    20     1      0.24136
    5     6     1      0.23359
    6     7     1      0.19573
   15    16     1      0.35302
    3     5     1      0.23686
   11    12     1      0.24531
    2    12     1      0.25179
   12    14     1      0.23057
    7     8     1      0.29097
   16    17     1      0.22560
   17    19     1      0.25048
   12    13     1      0.27945
    2    11     1      0.28945
   17    18     1      0.29021

[ bonds ]
;  ai    aj   funct      b0(nm)          k(kJ/mol/nm^2)
    9    10     1      0.26195           3203.3
    7     9     1      0.25192           6389.0
    1     2     1      0.27970          13060.4
    2     3     1      0.34465          17403.3
    3     4     1      0.21568           6567.6
    7    10     1      0.25953          10711.3

[ angles ]
;  ai    aj    ak  funct     th0(deg)        k(kJ/mol/rad^2)
    1     2     3     1    128.71590           118.84
    1     2    11     1    100.83345           123.21
    1     2    12     1     90.31679           354.56
    2     3     4     1    143.74816           182.08
    2     3     5     1    116.83531           588.24
    2     3     6     1     71.01030           982.91
    2    11    12     1     55.42898          1990.26
    2    12    11     1     71.20593          1663.42
    2    12    13     1    130.75745           209.25
    2    12    14     1    119.14094           257.67
    3     2    11     1     81.54871           310.56
    3     2    12     1    125.26579           359.42
    3     5     6     1     72.53674          1141.13
    3     6     5     1     54.28273          1815.01
    3     6     7     1    167.11550           171.36
    4     3     5     1     96.49578           213.04
    4     3     6     1    127.95012           293.26
    5     3     6     1     53.18079          2839.31
    5     6     7     1    122.89710            72.32
    6     7     8     1    126.92446            66.45
    6     7     9     1    124.20651            90.69
    6     7    10     1    115.03161           153.33
    7     9    10     1     60.80913           432.33
    7    10     9     1     57.86893           391.48
    8     7     9     1     79.32685           362.25
    8     7    10     1    117.20513            70.90
    9     7    10     1     61.31933           525.68
   11     2    12     1     53.36466          1168.02
   11    12    13     1     67.24898          1153.65
   11    12    14     1    131.67177           227.73
   12    13    14     1     44.36347          8375.63
   12    14    13     1     58.00373          1308.15
   12    14    15     1    113.57718           170.27
   13    12    14     1     77.63240           984.76
   13    14    15     1     60.69531          2528.59
   14    15    16     1     50.85014          2036.96
   14    15    20     1    129.32246           970.98
   15    16    17     1     70.56869          3599.01
   15    20    17     1     92.95021          3136.48
   16    15    20     1     80.76564          4154.26
   16    17    18     1     94.84716          1885.96
   16    17    19     1    157.47981          1861.93
   16    17    20     1    115.22745          2891.48
   17    18    19     1     51.53532          8173.87
   17    19    18     1     65.11141          7830.10
   18    17    19     1     63.35325          5586.67
   18    17    20     1    149.46121          1415.91
   19    17    20     1     86.33866          1679.50

[ dihedrals ]
;  ai    aj    ak    al  funct   phi0(deg)        k(kJ/mol)   mult
    1     2     3     4     1    -87.13507       23.642      1
    1     2     3     5     1    115.38277       25.059      1
    1     2     3     6     1    140.55288       24.007      1
    1     2    11    12     1     98.97698       14.365      1
    1     2    12    11     1    -77.67049       16.464      1
    1     2    12    13     1    -99.69041       21.937      1
    1     2    12    14     1    152.69628       15.636      1
    2     3     5     6     1   -147.05240       12.951      1
    2     3     6     5     1     30.03520       12.241      1
    2     3     6     7     1    104.90865       24.873      1
    2    11    12    13     1    -15.08520       20.250      1
    2    11    12    14     1    -66.04419       12.241      1
    2    12    13    14     1     55.54866       15.595      1
    2    12    14    13     1    -47.97241       16.414      1
    2    12    14    15     1    -21.50427       23.928      1
    3     2    11    12     1    -32.91022       18.487      1
    3     2    12    11     1    138.84922       20.337      1
    3     2    12    13     1    115.30682       19.682      1
    3     2    12    14     1     12.05527       19.126      1
    3     5     6     7     1     10.01071       15.006      1
    3     6     7     8     1   -151.66612       24.041      1
    3     6     7     9     1    -49.31189       25.915      1
    3     6     7    10     1     24.38812       24.736      1
    4     3     2    11     1     11.61102       19.640      1
    4     3     2    12     1     43.03885       26.322      1
    4     3     5     6     1     44.06392       12.184      1
    4     3     6     5     1   -118.82022       17.052      1
    4     3     6     7     1    -47.81692       22.136      1
    5     3     2    11     1   -146.93259       17.098      1
    5     3     2    12     1   -114.60073       24.640      1
    5     3     6     7     1   -115.76777       23.247      1
    5     6     7     8     1    -81.51765       19.687      1
    5     6     7     9     1     15.65921       18.380      1
    5     6     7    10     1     85.39054       22.248      1
    6     3     2    11     1   -118.12309       13.697      1
    6     3     2    12     1    -88.93258       22.819      1
    6     7     9    10     1    -80.15955       16.870      1
    6     7    10     9     1     61.61711       18.075      1
    8     7     9    10     1     53.66463       20.243      1
    8     7    10     9     1   -125.45939       16.648      1
   11     2    12    13     1    160.87165       21.173      1
   11     2    12    14     1     53.17252       14.301      1
   11    12    13    14     1     33.97901       16.439      1
   11    12    14    13     1   -138.08176       16.478      1
   11    12    14    15     1   -111.15604       22.842      1
   12    13    14    15     1     30.40158       18.218      1
   12    14    15    16     1    -26.62314       18.931      1
   12    14    15    20     1    -39.60031       21.004      1
   13    12    14    15     1   -154.73492       15.721      1
   13    14    15    16     1     -3.58152       16.407      1
   13    14    15    20     1    -19.82655       17.697      1
   14    15    16    17     1     13.89750       13.649      1
   14    15    20    17     1   -166.46328       15.084      1
   15    16    17    18     1     -0.93590       11.473      1
   15    16    17    19     1      0.95505       21.868      1
   15    16    17    20     1    179.88833       10.715      1
   15    20    17    16     1   -179.83468       13.563      1
   15    20    17    18     1      0.30333       17.693      1
   15    20    17    19     1      0.85029       14.268      1
   16    15    20    17     1    179.71369        9.230      1
   16    17    18    19     1     -1.77403       12.142      1
   16    17    19    18     1    178.82287       22.049      1
   17    16    15    20     1   -178.94045        9.965      1
   18    19    17    20     1      0.01541        7.816      1
   19    18    17    20     1   -179.67757       13.635      1
