[ moleculetype ]
; name        nrexcl
res           1

[ atoms ]
;    nr  type resnr resid  atom  cgnr     charge       mass
      1 SC4       1 res   C1        1      0.000     54.000
      2 SN4a      1 res   C2        2      0.000     54.000
      3 SN4a      1 res   C3        3      0.000     54.000
      4 TP1       1 res   C4        4      0.000     36.000
      5 TN6       1 res   C5        5      0.000     36.000
      6 TN6       1 res   C6        6      0.000     36.000
      7 TN6       1 res   C7        7      0.000     36.000
      8 TC3       1 res   C8        8      0.000     36.000
      9 SC4       1 res   C9        9      0.000     54.000
     10 TC3       1 res   C10      10      0.000     36.000
     11 SC4       1 res   C11      11      0.000     54.000
     12 SN6a      1 res   C12      12      0.000     54.000
     13 SC4       1 res   C13      13      0.000     54.000
     14 SC4       1 res   C14      14      0.000     54.000
     15 TC3       1 res   C15      15      0.000     36.000
     16 TN6       1 res   C16      16      0.000     36.000
     17 SN4a      1 res   C17      17      0.000     54.000
     18 SP2       1 res   C18      18      0.000     54.000
     19 TN6       1 res   C19      19      0.000     36.000
     20 TN6       1 res   C20      20      0.000     36.000
     21 TN6       1 res   C21      21      0.000     36.000
     22 SN4a      1 res   C22      22      0.000     54.000
     23 SP2       1 res   C23      23      0.000     54.000
     24 TN6       1 res   C24      24      0.000     36.000
     25 TN6       1 res   C25      25      0.000     36.000
     26 TN6       1 res   C26      26      0.000     36.000
     27 TC4       1 res   C27      27      0.000     36.000
     28 TP1       1 res   C28      28      0.000     36.000
     29 TC3       1 res   C29      29      0.000     36.000

[ bonds ]
;  ai    aj   funct      b0(nm)        k
    1     2     1      0.26511    20000
    1     8     1      0.27787    20000
    1     9     1      0.41967    20000
    2     3     1      0.34204    20000
    3     4     1      0.23481    20000
    3     5     1      0.25902    20000
    3     7     1      0.29807    20000
    5     6     1      0.24731    20000
    6     7     1      0.24217    20000
    8     9     1      0.27044    20000
    9    10     1      0.31516    20000
    9    11     1      0.44392    20000
   10    11     1      0.31138    20000
   11    12     1      0.30343    20000
   11    13     1      0.34588    20000
   12    13     1      0.35256    20000
   13    14     1      0.33770    20000
   13    29     1      0.28052    20000
   14    15     1      0.30556    20000
   14    27     1      0.40169    20000
   14    29     1      0.37707    20000
   15    16     1      0.25240    20000
   16    17     1      0.26737    20000
   16    27     1      0.27251    20000
   17    18     1      0.30615    20000
   17    19     1      0.28739    20000
   17    21     1      0.25358    20000
   19    20     1      0.24932    20000
   20    21     1      0.21687    20000
   21    22     1      0.26283    20000
   22    23     1      0.33294    20000
   22    24     1      0.31079    20000
   22    26     1      0.28355    20000
   24    25     1      0.22816    20000
   25    26     1      0.27009    20000
   27    28     1      0.28396    20000
