[ moleculetype ]
; name        nrexcl
res           1

[ atoms ]
;    nr  type  resnr resid  atom  cgnr     charge       mass
      1 TC5       1 res   C1        1      0.000     36.000
      2 SN3r      1 res   C2        2      0.000     54.000
      3 SC2       1 res   C3        3      0.000     54.000
      4 SC2       1 res   C4        4      0.000     54.000
      5 SN4a      1 res   C5        5      0.000     54.000
      6 TN3r      1 res   C6        6      0.000     36.000
      7 TN4a      1 res   C7        7      0.000     36.000
      8 TC4       1 res   C8        8      0.000     36.000
      9 SN6       1 res   C9        9      0.000     54.000
     10 N4a       1 res   C10      10      0.000     72.000
     11 TC5       1 res   C11      11      0.000     36.000
     12 SN6       1 res   C12      12      0.000     54.000
     13 TC5       1 res   C13      13      0.000     36.000
     14 TN4a      1 res   C14      14      0.000     36.000
     15 TC4       1 res   C15      15      0.000     36.000
     16 TN6       1 res   C16      16      0.000     36.000
     17 TN6       1 res   C17      17      0.000     36.000
     18 TN6       1 res   C18      18      0.000     36.000
     19 TN6       1 res   C19      19      0.000     36.000
     20 TN6       1 res   C20      20      0.000     36.000
     21 TN6       1 res   C21      21      0.000     36.000
     22 TN6       1 res   C22      22      0.000     36.000

[ bonds ]
;  ai    aj   funct      b0(nm)          k(kJ/mol/nm^2)
    2     5     1      0.27730           2843.8
    5     6     1      0.30130          52351.1
    5    20     1      0.28825           5328.3
    5    22     1      0.25792          21800.7
    6     7     1      0.25008          39099.5
    7     8     1      0.30332          47610.7
    7    19     1      0.23343          35501.0
    8     9     1      0.29744          16624.4
    9    10     1      0.37466           6945.5
    9    14     1      0.29207          22176.8
    9    19     1      0.25078          21144.5
   10    11     1      0.25081          18657.6
   11    12     1      0.30192         177134.2
   11    13     1      0.29859         194675.0
   12    13     1      0.28479         154873.5
   14    15     1      0.30918          12383.6
   14    18     1      0.23085          44385.3
   15    16     1      0.26468          17207.4
   16    17     1      0.22594          13413.0
   17    18     1      0.24463           8630.6
   20    21     1      0.24727           8979.6
   21    22     1      0.23561           9909.5

[ angles ]
;  ai    aj    ak  funct     th0(deg)        k(kJ/mol/rad^2)
    2     5     6     1    114.26329            46.18
    2     5    20     1    162.11945           210.14
    2     5    22     1    105.69862            53.04
    5     6     7     1    133.87166            30.79
    5    20    21     1     67.56491           293.83
    5    22    21     1     75.02582           169.37
    6     5    20     1     60.32004          1079.70
    6     5    22     1    137.98857           109.69
    6     7     8     1    164.45034           116.70
    6     7    19     1     63.19226           351.06
    7     8     9     1     53.18258          3405.09
    7    19     9     1     67.47527           904.65
    8     7    19     1    110.07981            73.86
    8     9    10     1     81.40220            49.25
    8     9    14     1    113.45626           322.05
    8     9    19     1    106.88164           107.95
    9    10    11     1     79.56544            53.75
    9    14    15     1     85.16142            77.92
    9    14    18     1    100.12804            85.82
   10     9    14     1    113.75960            71.08
   10     9    19     1    162.72102           182.06
   10    11    12     1    159.86310            72.03
   10    11    13     1    110.13496           156.26
   11    12    13     1     61.10356          8931.82
   11    13    12     1     62.28367          8335.84
   12    11    13     1     56.61277         11860.92
   14     9    19     1     72.11646           490.21
   14    15    16     1     78.16365          1548.39
   14    18    17     1     88.04405            45.09
   15    14    18     1    111.35757           121.11
   15    16    17     1    112.22239           111.40
   16    17    18     1    102.84635           251.25
   20     5    22     1     80.77586           108.21
   20    21    22     1     97.97764            17.43
