[ moleculetype ]
; name        nrexcl
res           1

[ atoms ]
;    nr  type  resnr resid  atom  cgnr     charge       mass
      1 N4a       1 res   C1        1      0.000     72.000
      2 TC3       1 res   C2        2      0.000     36.000
      3 TC5       1 res   C3        3      0.000     36.000
      4 TC3       1 res   C4        4      0.000     36.000
      5 TN6d      1 res   C5        5      0.000     36.000
      6 SN6       1 res   C6        6      0.000     54.000
      7 TC5       1 res   C7        7      0.000     36.000
      8 TC5       1 res   C8        8      0.000     36.000
      9 TC5       1 res   C9        9      0.000     36.000
     10 TC5       1 res   C10      10      0.000     36.000
     11 TN6d      1 res   C11      11      0.000     36.000
     12 TC3       1 res   C12      12      0.000     36.000

[ constraints ]
;  ai    aj   funct      b0(nm)
    1     2     1      0.36140
    3     5     1      0.26365
    2     3     1      0.25672
    4     5     1      0.25015
    7    12     1      0.24515
    8    11     1      0.21792
    3     4     1      0.27370
    7     8     1      0.19238
    5     6     1      0.32529
    8    10     1      0.24878
    3     7     1      0.21717
    6     7     1      0.27065
    7    11     1      0.22068
    9    10     1      0.28988
    2     7     1      0.27126
    3    12     1      0.30462
    8     9     1      0.24843

[ bonds ]
;  ai    aj   funct      b0(nm)          k(kJ/mol/nm^2)

[ angles ]
;  ai    aj    ak  funct     th0(deg)        k(kJ/mol/rad^2)
    1     2     3     1     98.68947           242.50
    1     2     7     1     79.96045           498.98
    2     3     4     1     99.64700          1236.33
    2     3     5     1    154.17279           692.01
    2     3     7     1     69.27329          2692.20
    2     3    12     1     63.81082          3134.02
    2     7     3     1     62.25699          2669.10
    2     7     6     1    137.79470          1563.31
    2     7     8     1    119.25651           962.15
    2     7    11     1     93.65443           569.47
    2     7    12     1     70.67116          3541.73
    3     2     7     1     48.46979          6802.59
    3     4     5     1     60.22955          3160.14
    3     5     4     1     64.32300          2689.64
    3     5     6     1     65.21625          3559.29
    3     7     6     1     81.69551          2751.64
    3     7     8     1    116.40796          1287.09
    3     7    11     1    152.93484           384.92
    3     7    12     1     82.21207          2562.32
    3    12     7     1     44.92181          9914.49
    4     3     5     1     55.44745          3834.84
    4     3     7     1    135.18928          1085.03
    4     3    12     1     82.96221          1400.01
    4     5     6     1    108.66992           602.82
    5     3     7     1    122.88302          1385.58
    5     3    12     1    103.97194           531.94
    5     6     7     1     89.90262          3071.74
    6     7     8     1     95.15191          1476.96
    6     7    11     1    125.02604           324.24
    6     7    12     1     84.28285          1301.14
    7     3    12     1     52.86612          4502.86
    7     8     9     1    127.06831          1476.15
    7     8    10     1    159.17532          1228.47
    7     8    11     1     64.72422          2873.50
    7    11     8     1     52.03169          4096.21
    8     7    11     1     63.24406          4023.32
    8     7    12     1    160.94855          1227.78
    8     9    10     1     54.39130         14107.49
    8    10     9     1     54.27864         11222.20
    9     8    10     1     71.33007          6710.88
    9     8    11     1    163.25062           547.74
   10     8    11     1     95.50526          1538.93
   11     7    12     1    101.80566          1116.13

[ dihedrals ]
;  ai    aj    ak    al  funct   phi0(deg)        k(kJ/mol)   mult
    1     2     3     4     1     22.57250        9.986      1
    1     2     3     5     1     13.43864       17.045      1
    1     2     3     7     1   -112.15814        7.810      1
    1     2     3    12     1    -53.35483        9.918      1
    1     2     7     3     1     68.02708       10.784      1
    1     2     7     6     1     34.07726       10.786      1
    1     2     7     8     1    173.13076       11.479      1
    1     2     7    11     1   -125.67443       12.145      1
    1     2     7    12     1    -24.15528       10.780      1
    2     3     4     5     1      5.85619       10.718      1
    2     3     5     4     1   -168.47048       17.665      1
    2     3     5     6     1     63.35988       12.197      1
    2     3     7     6     1    -22.97129        7.009      1
    2     3     7     8     1     69.03417        7.071      1
    2     3     7    11     1    152.16852       13.586      1
    2     3     7    12     1   -108.92129        4.005      1
    2     3    12     7     1     97.93441        4.784      1
    2     7     3     4     1     98.90492        8.570      1
    2     7     3     5     1     25.07940        9.985      1
    2     7     3    12     1    108.92129        4.005      1
    2     7     6     5     1   -154.02338        9.290      1
    2     7     8     9     1     89.31920       14.329      1
    2     7     8    10     1   -109.62754       22.826      1
    2     7     8    11     1    -99.65724       12.075      1
    2     7    11     8     1     59.31326        8.535      1
    2     7    12     3     1   -116.07009        4.743      1
    3     2     7     6     1    146.15548        7.849      1
    3     2     7     8     1    -74.21125        6.266      1
    3     2     7    11     1    -12.97607        8.543      1
    3     2     7    12     1     88.06770        4.767      1
    3     4     5     6     1   -132.38147        6.323      1
    3     5     6     7     1   -177.99919        6.294      1
    3     7     6     5     1    177.06271        7.040      1
    3     7     8     9     1    162.04635       15.060      1
    3     7     8    10     1    -39.81624       21.594      1
    3     7     8    11     1    -27.58519       10.675      1
    3     7    11     8     1     83.18697       12.871      1
    3    12     7     6     1     97.03322        4.020      1
    3    12     7     8     1      5.82382       15.015      1
    3    12     7    11     1    -24.95645        9.953      1
    4     3     2     7     1    -45.91653        6.295      1
    4     3     5     6     1     52.67858       10.026      1
    4     3     7     6     1   -103.89126        9.266      1
    4     3     7     8     1    -11.76783        9.275      1
    4     3     7    11     1     71.00219       14.260      1
    4     3     7    12     1    170.93964        8.564      1
    4     3    12     7     1     -6.07021        6.327      1
    4     5     3     7     1    -54.93168        8.512      1
    4     5     3    12     1   -109.95668        9.265      1
    4     5     6     7     1    133.49406       11.451      1
    5     3     2     7     1    -53.50287       13.650      1
    5     3     7     6     1   -176.98066        8.585      1
    5     3     7     8     1    -85.02741       10.067      1
    5     3     7    11     1     -1.97922       13.660      1
    5     3     7    12     1     98.90840       10.010      1
    5     3    12     7     1    -58.98384        5.559      1
    5     4     3     7     1     75.97243        7.812      1
    5     4     3    12     1     66.77751       10.007      1
    5     6     7     8     1     61.99489        7.785      1
    5     6     7    11     1      1.94247        9.272      1
    5     6     7    12     1    -99.04637        7.079      1
    6     5     3     7     1    177.00234        8.559      1
    6     5     3    12     1    122.05390        4.819      1
    6     7     3    12     1    -95.89199        6.248      1
    6     7     8     9     1   -115.88503       15.014      1
    6     7     8    10     1     44.88375       23.250      1
    6     7     8    11     1     55.39703       11.398      1
    6     7    11     8     1   -101.79075        9.200      1
    7     2     3    12     1   -122.00633        3.251      1
    7     8     9    10     1     -7.02643       14.390      1
    7     8    10     9     1     14.75498       24.775      1
    7    11     8     9     1    -25.34312       28.401      1
    7    11     8    10     1     -3.95762       12.156      1
    8     7     3    12     1     -2.99817        7.046      1
    8    11     7    12     1    -11.81723        7.746      1
    9     8     7    11     1      7.30568       15.734      1
    9     8     7    12     1    -27.71381       17.779      1
    9    10     8    11     1      6.14106       13.607      1
   10     8     7    11     1    172.78965       22.090      1
   10     8     7    12     1    134.68198       24.656      1
   10     9     8    11     1   -154.53649       25.372      1
   11     7     3    12     1     79.02479       12.895      1
   11     8     7    12     1    142.03003       16.905      1
