1TPCN04588
19
    1res  C1    1    0.236   0.601  -0.194
    1res  C2    2    0.035   0.657   0.008
    1res  C3    3   -0.057   0.416  -0.046
    1res  C4    4   -0.280   0.553   0.072
    1res  C5    5   -0.089   0.338   0.232
    1res  C6    6   -0.057   0.190   0.031
    1res  C7    7    0.156   0.050   0.174
    1res  C8    8    0.371  -0.178   0.046
    1res  C9    9    0.415  -0.344  -0.108
    1res  C10   10    0.585  -0.526  -0.276
    1res  C11   11    0.705  -0.370  -0.030
    1res  C12   12   -0.027   0.052  -0.182
    1res  C13   13   -0.286   0.057   0.027
    1res  C14   14   -0.119  -0.253   0.017
    1res  C15   15   -0.207  -0.352  -0.204
    1res  C16   16   -0.404  -0.507  -0.110
    1res  C17   17   -0.353  -0.450   0.147
    1res  C18   18   -0.231  -0.116   0.242
    1res  C19   19    0.216   0.356  -0.067
  10.00000  10.00000  10.00000
