[ moleculetype ]
; name        nrexcl
res           1

[ atoms ]
;    nr  type resnr resid  atom  cgnr     charge       mass
      1 SC2       1 res   C1        1      0.000     54.000
      2 SC2       1 res   C2        2      0.000     54.000
      3 SN3r      1 res   C3        3      0.000     54.000
      4 SN4a      1 res   C4        4      0.000     54.000
      5 TN3r      1 res   C5        5      0.000     36.000
      6 SN4a      1 res   C6        6      0.000     54.000
      7 TN6       1 res   C7        7      0.000     36.000
      8 TN6       1 res   C8        8      0.000     36.000
      9 TN6       1 res   C9        9      0.000     36.000
     10 TN6       1 res   C10      10      0.000     36.000
     11 TN6       1 res   C11      11      0.000     36.000
     12 TN6       1 res   C12      12      0.000     36.000
     13 TC3       1 res   C13      13      0.000     36.000
     14 SC3       1 res   C14      14      0.000     54.000
     15 TC3       1 res   C15      15      0.000     36.000
     16 SC4       1 res   C16      16      0.000     54.000
     17 SC4       1 res   C17      17      0.000     54.000
     18 TC3       1 res   C18      18      0.000     36.000
     19 TN6       1 res   C19      19      0.000     36.000
     20 SC4       1 res   C20      20      0.000     54.000
     21 SN6       1 res   C21      21      0.000     54.000

[ bonds ]
;  ai    aj   funct      b0(nm)        k
    1     2     1      0.31191    20000
    2     3     1      0.34524    20000
    3     4     1      0.35763    20000
    3    13     1      0.25083    20000
    4     5     1      0.29020    20000
    4    10     1      0.31096    20000
    4    12     1      0.28039    20000
    5     6     1      0.34940    20000
    6     7     1      0.24107    20000
    6     9     1      0.30240    20000
    7     8     1      0.26286    20000
    8     9     1      0.24195    20000
   10    11     1      0.23787    20000
   11    12     1      0.22199    20000
   13    14     1      0.27083    20000
   14    15     1      0.34862    20000
   14    16     1      0.27644    20000
   15    16     1      0.38222    20000
   16    17     1      0.37622    20000
   16    21     1      0.29942    20000
   17    18     1      0.28163    20000
   17    20     1      0.32698    20000
   17    21     1      0.39392    20000
   18    19     1      0.26591    20000
   19    20     1      0.24628    20000
