[ moleculetype ]
; name        nrexcl
res           1

[ atoms ]
;    nr  type resnr resid  atom  cgnr     charge       mass
      1 SC4       1 res   C1        1      0.000     54.000
      2 TC3       1 res   C2        2      0.000     36.000
      3 TC5       1 res   C3        3      0.000     36.000
      4 SN4a      1 res   C4        4      0.000     54.000
      5 SN4a      1 res   C5        5      0.000     54.000
      6 TN3r      1 res   C6        6      0.000     36.000
      7 SN4a      1 res   C7        7      0.000     54.000
      8 TP1       1 res   C8        8      0.000     36.000
      9 TN6       1 res   C9        9      0.000     36.000
     10 TN4a      1 res   C10      10      0.000     36.000
     11 TC4       1 res   C11      11      0.000     36.000
     12 TN6       1 res   C12      12      0.000     36.000
     13 TN6       1 res   C13      13      0.000     36.000
     14 TN6       1 res   C14      14      0.000     36.000
     15 TN6       1 res   C15      15      0.000     36.000
     16 TN6       1 res   C16      16      0.000     36.000
     17 TN6       1 res   C17      17      0.000     36.000
     18 TN6       1 res   C18      18      0.000     36.000
     19 TN6       1 res   C19      19      0.000     36.000
     20 TC3       1 res   C20      20      0.000     36.000
     21 SC4       1 res   C21      21      0.000     54.000
     22 TC3       1 res   C22      22      0.000     36.000
     23 SC4       1 res   C23      23      0.000     54.000
     24 SC4       1 res   C24      24      0.000     54.000
     25 SC3       1 res   C25      25      0.000     54.000
     26 TN6       1 res   C26      26      0.000     36.000
     27 TN4a      1 res   C27      27      0.000     36.000
     28 TN6       1 res   C28      28      0.000     36.000
     29 TN6       1 res   C29      29      0.000     36.000
     30 TN6       1 res   C30      30      0.000     36.000
     31 SC4       1 res   C31      31      0.000     54.000
     32 TC3       1 res   C32      32      0.000     36.000

[ bonds ]
;  ai    aj   funct      b0(nm)        k
    1     2     1      0.29201    20000
    1     3     1      0.31094    20000
    2     3     1      0.29558    20000
    3     4     1      0.24336    20000
    3    20     1      0.27577    20000
    3    21     1      0.28494    20000
    4     5     1      0.31713    20000
    5     6     1      0.27229    20000
    5    17     1      0.27950    20000
    5    19     1      0.29253    20000
    6     7     1      0.33451    20000
    7     8     1      0.28803    20000
    7     9     1      0.24421    20000
    7    16     1      0.29815    20000
    9    10     1      0.19888    20000
    9    15     1      0.23131    20000
   10    11     1      0.29858    20000
   10    14     1      0.23768    20000
   11    12     1      0.29228    20000
   12    13     1      0.24713    20000
   13    14     1      0.25633    20000
   15    16     1      0.27172    20000
   17    18     1      0.21254    20000
   18    19     1      0.24599    20000
   20    21     1      0.30512    20000
   21    22     1      0.36272    20000
   21    23     1      0.31115    20000
   22    23     1      0.26738    20000
   23    24     1      0.29967    20000
   23    32     1      0.29453    20000
   24    25     1      0.31822    20000
   24    31     1      0.41687    20000
   24    32     1      0.30252    20000
   25    26     1      0.26471    20000
   25    31     1      0.33987    20000
   26    27     1      0.26112    20000
   26    30     1      0.22789    20000
   27    28     1      0.23745    20000
   28    29     1      0.23373    20000
   29    30     1      0.23955    20000
