Generated with MDTraj, t= 0.0
 51
    1UNL     O1    1   0.302   0.172  -0.247
    1UNL     C1    2   0.206   0.163  -0.145
    1UNL     C2    3   0.269   0.123  -0.011
    1UNL     O2    4   0.175   0.139   0.099
    1UNL     C3    5   0.125   0.015   0.150
    1UNL     O3    6   0.058  -0.062   0.052
    1UNL     C4    7  -0.048   0.012  -0.007
    1UNL     O4    8  -0.052   0.003  -0.150
    1UNL     C5    9  -0.052  -0.133  -0.196
    1UNL    CL1   10   0.115  -0.183  -0.228
    1UNL     C6   11  -0.116  -0.232  -0.098
    1UNL     C7   12  -0.231  -0.168  -0.015
    1UNL     C8   13  -0.356  -0.135  -0.098
    1UNL     C9   14  -0.420  -0.011  -0.032
    1UNL     O5   15  -0.498   0.066  -0.122
    1UNL    C10   16  -0.301   0.071   0.030
    1UNL     O6   17  -0.342   0.126   0.154
    1UNL    C11   18  -0.259   0.188  -0.061
    1UNL     O7   19  -0.169   0.271   0.007
    1UNL    C12   20  -0.185  -0.033   0.052
    1UNL    C13   21   0.241  -0.067   0.215
    1UNL     O8   22   0.271  -0.015   0.343
    1UNL    C14   23   0.367  -0.068   0.123
    1UNL     O9   24   0.426  -0.197   0.120
    1UNL    C15   25   0.329  -0.021  -0.019
    1UNL    O10   26   0.438  -0.030  -0.109
    1UNL     H1   27   0.369   0.102  -0.230
    1UNL     H2   28   0.155   0.260  -0.137
    1UNL     H3   29   0.131   0.089  -0.176
    1UNL     H4   30   0.351   0.192   0.010
    1UNL     H5   31   0.052   0.041   0.227
    1UNL     H6   32  -0.031   0.118   0.016
    1UNL     H7   33  -0.105  -0.133  -0.291
    1UNL     H8   34  -0.038  -0.268  -0.030
    1UNL     H9   35  -0.153  -0.320  -0.151
    1UNL    H10   36  -0.260  -0.238   0.065
    1UNL    H11   37  -0.329  -0.109  -0.201
    1UNL    H12   38  -0.427  -0.218  -0.104
    1UNL    H13   39  -0.485  -0.043   0.050
    1UNL    H14   40  -0.542   0.139  -0.074
    1UNL    H15   41  -0.276   0.194   0.180
    1UNL    H16   42  -0.348   0.246  -0.087
    1UNL    H17   43  -0.214   0.150  -0.153
    1UNL    H18   44  -0.142   0.347  -0.049
    1UNL    H19   45  -0.172  -0.047   0.160
    1UNL    H20   46   0.209  -0.171   0.229
    1UNL    H21   47   0.291   0.081   0.335
    1UNL    H22   48   0.441   0.002   0.166
    1UNL    H23   49   0.515  -0.194   0.080
    1UNL    H24   50   0.250  -0.087  -0.057
    1UNL    H25   51   0.465  -0.123  -0.120
   0.00000   0.00000   0.00000   0.00000   0.00000   0.00000   0.00000   0.00000   0.00000
Generated with MDTraj, t= 1.0
 51
    1UNL     O1    1   0.285   0.134  -0.258
    1UNL     C1    2   0.221   0.188  -0.143
    1UNL     C2    3   0.276   0.133  -0.007
    1UNL     O2    4   0.167   0.143   0.097
    1UNL     C3    5   0.126   0.019   0.152
    1UNL     O3    6   0.055  -0.063   0.062
    1UNL     C4    7  -0.048   0.004  -0.006
    1UNL     O4    8  -0.049  -0.001  -0.150
    1UNL     C5    9  -0.055  -0.147  -0.186
    1UNL    CL1   10   0.114  -0.195  -0.227
    1UNL     C6   11  -0.119  -0.244  -0.089
    1UNL     C7   12  -0.238  -0.170  -0.020
    1UNL     C8   13  -0.359  -0.132  -0.110
    1UNL     C9   14  -0.424   0.002  -0.049
    1UNL     O5   15  -0.483   0.086  -0.149
    1UNL    C10   16  -0.307   0.073   0.030
    1UNL     O6   17  -0.351   0.116   0.155
    1UNL    C11   18  -0.255   0.197  -0.043
    1UNL     O7   19  -0.170   0.268   0.039
    1UNL    C12   20  -0.194  -0.038   0.053
    1UNL    C13   21   0.247  -0.060   0.213
    1UNL     O8   22   0.289  -0.015   0.346
    1UNL    C14   23   0.377  -0.064   0.120
    1UNL     O9   24   0.423  -0.196   0.106
    1UNL    C15   25   0.336  -0.011  -0.020
    1UNL    O10   26   0.451  -0.017  -0.108
    1UNL     H1   27   0.220   0.133  -0.334
    1UNL     H2   28   0.235   0.298  -0.146
    1UNL     H3   29   0.113   0.167  -0.147
    1UNL     H4   30   0.363   0.185   0.039
    1UNL     H5   31   0.058   0.053   0.228
    1UNL     H6   32  -0.034   0.108   0.021
    1UNL     H7   33  -0.093  -0.133  -0.284
    1UNL     H8   34  -0.043  -0.268  -0.016
    1UNL     H9   35  -0.146  -0.333  -0.148
    1UNL    H10   36  -0.269  -0.228   0.062
    1UNL    H11   37  -0.320  -0.113  -0.211
    1UNL    H12   38  -0.448  -0.193  -0.117
    1UNL    H13   39  -0.505  -0.019   0.020
    1UNL    H14   40  -0.526   0.037  -0.225
    1UNL    H15   41  -0.271   0.168   0.199
    1UNL    H16   42  -0.335   0.268  -0.075
    1UNL    H17   43  -0.192   0.162  -0.126
    1UNL    H18   44  -0.213   0.335   0.099
    1UNL    H19   45  -0.178  -0.050   0.158
    1UNL    H20   46   0.217  -0.166   0.224
    1UNL    H21   47   0.306   0.085   0.336
    1UNL    H22   48   0.451  -0.002   0.174
    1UNL    H23   49   0.414  -0.248   0.192
    1UNL    H24   50   0.258  -0.080  -0.061
    1UNL    H25   51   0.426  -0.011  -0.206
   0.00000   0.00000   0.00000   0.00000   0.00000   0.00000   0.00000   0.00000   0.00000
Generated with MDTraj, t= 2.0
 51
    1UNL     O1    1   0.277   0.161  -0.264
    1UNL     C1    2   0.190   0.124  -0.153
    1UNL     C2    3   0.270   0.122  -0.017
    1UNL     O2    4   0.171   0.141   0.093
    1UNL     C3    5   0.126   0.014   0.146
    1UNL     O3    6   0.062  -0.060   0.045
    1UNL     C4    7  -0.048   0.008  -0.008
    1UNL     O4    8  -0.060   0.001  -0.155
    1UNL     C5    9  -0.053  -0.140  -0.195
    1UNL    CL1   10   0.115  -0.198  -0.209
    1UNL     C6   11  -0.122  -0.234  -0.090
    1UNL     C7   12  -0.235  -0.163  -0.014
    1UNL     C8   13  -0.349  -0.133  -0.109
    1UNL     C9   14  -0.409   0.006  -0.056
    1UNL     O5   15  -0.449   0.089  -0.163
    1UNL    C10   16  -0.301   0.071   0.032
    1UNL     O6   17  -0.356   0.103   0.163
    1UNL    C11   18  -0.253   0.210  -0.032
    1UNL     O7   19  -0.183   0.288   0.065
    1UNL    C12   20  -0.187  -0.033   0.054
    1UNL    C13   21   0.246  -0.060   0.216
    1UNL     O8   22   0.283   0.007   0.342
    1UNL    C14   23   0.373  -0.069   0.121
    1UNL     O9   24   0.408  -0.203   0.097
    1UNL    C15   25   0.339  -0.014  -0.019
    1UNL    O10   26   0.462  -0.014  -0.090
    1UNL     H1   27   0.237   0.119  -0.343
    1UNL     H2   28   0.111   0.201  -0.146
    1UNL     H3   29   0.144   0.034  -0.168
    1UNL     H4   30   0.350   0.200  -0.008
    1UNL     H5   31   0.054   0.046   0.217
    1UNL     H6   32  -0.026   0.111   0.008
    1UNL     H7   33  -0.102  -0.158  -0.286
    1UNL     H8   34  -0.040  -0.269  -0.028
    1UNL     H9   35  -0.165  -0.326  -0.131
    1UNL    H10   36  -0.270  -0.225   0.062
    1UNL    H11   37  -0.324  -0.112  -0.216
    1UNL    H12   38  -0.419  -0.213  -0.117
    1UNL    H13   39  -0.495  -0.013   0.006
    1UNL    H14   40  -0.433   0.043  -0.250
    1UNL    H15   41  -0.397   0.023   0.199
    1UNL    H16   42  -0.345   0.276  -0.052
    1UNL    H17   43  -0.197   0.206  -0.126
    1UNL    H18   44  -0.232   0.284   0.150
    1UNL    H19   45  -0.154  -0.053   0.153
    1UNL    H20   46   0.222  -0.169   0.236
    1UNL    H21   47   0.282   0.108   0.315
    1UNL    H22   48   0.457  -0.014   0.170
    1UNL    H23   49   0.402  -0.221  -0.002
    1UNL    H24   50   0.270  -0.082  -0.078
    1UNL    H25   51   0.449   0.026  -0.175
   0.00000   0.00000   0.00000   0.00000   0.00000   0.00000   0.00000   0.00000   0.00000
Generated with MDTraj, t= 3.0
 51
    1UNL     O1    1   0.320   0.173  -0.266
    1UNL     C1    2   0.217   0.178  -0.169
    1UNL     C2    3   0.268   0.122  -0.033
    1UNL     O2    4   0.173   0.140   0.071
    1UNL     C3    5   0.119   0.022   0.129
    1UNL     O3    6   0.045  -0.057   0.035
    1UNL     C4    7  -0.061   0.011  -0.020
    1UNL     O4    8  -0.071  -0.016  -0.157
    1UNL     C5    9  -0.050  -0.158  -0.185
    1UNL    CL1   10   0.120  -0.202  -0.193
    1UNL     C6   11  -0.119  -0.240  -0.078
    1UNL     C7   12  -0.239  -0.167  -0.004
    1UNL     C8   13  -0.342  -0.129  -0.111
    1UNL     C9   14  -0.405   0.007  -0.061
    1UNL     O5   15  -0.435   0.095  -0.168
    1UNL    C10   16  -0.308   0.072   0.040
    1UNL     O6   17  -0.381   0.085   0.167
    1UNL    C11   18  -0.256   0.209  -0.001
    1UNL     O7   19  -0.150   0.259   0.082
    1UNL    C12   20  -0.193  -0.039   0.060
    1UNL    C13   21   0.230  -0.062   0.200
    1UNL     O8   22   0.269   0.003   0.324
    1UNL    C14   23   0.354  -0.071   0.116
    1UNL     O9   24   0.412  -0.193   0.121
    1UNL    C15   25   0.334  -0.015  -0.034
    1UNL    O10   26   0.455  -0.021  -0.105
    1UNL     H1   27   0.306   0.246  -0.329
    1UNL     H2   28   0.174   0.282  -0.155
    1UNL     H3   29   0.145   0.112  -0.200
    1UNL     H4   30   0.338   0.205  -0.004
    1UNL     H5   31   0.057   0.054   0.205
    1UNL     H6   32  -0.053   0.118  -0.014
    1UNL     H7   33  -0.097  -0.193  -0.273
    1UNL     H8   34  -0.055  -0.260   0.007
    1UNL     H9   35  -0.132  -0.343  -0.116
    1UNL    H10   36  -0.278  -0.232   0.064
    1UNL    H11   37  -0.300  -0.115  -0.213
    1UNL    H12   38  -0.420  -0.197  -0.138
    1UNL    H13   39  -0.491  -0.024  -0.000
    1UNL    H14   40  -0.529   0.123  -0.163
    1UNL    H15   41  -0.420   0.167   0.180
    1UNL    H16   42  -0.336   0.291  -0.019
    1UNL    H17   43  -0.223   0.195  -0.105
    1UNL    H18   44  -0.178   0.247   0.174
    1UNL    H19   45  -0.171  -0.055   0.162
    1UNL    H20   46   0.189  -0.165   0.230
    1UNL    H21   47   0.284   0.104   0.307
    1UNL    H22   48   0.430  -0.004   0.162
    1UNL    H23   49   0.348  -0.265   0.093
    1UNL    H24   50   0.264  -0.075  -0.097
    1UNL    H25   51   0.455   0.063  -0.163
   0.00000   0.00000   0.00000   0.00000   0.00000   0.00000   0.00000   0.00000   0.00000
Generated with MDTraj, t= 4.0
 51
    1UNL     O1    1   0.337   0.183  -0.260
    1UNL     C1    2   0.233   0.187  -0.164
    1UNL     C2    3   0.277   0.138  -0.023
    1UNL     O2    4   0.176   0.165   0.085
    1UNL     C3    5   0.119   0.039   0.139
    1UNL     O3    6   0.056  -0.048   0.034
    1UNL     C4    7  -0.054   0.009  -0.034
    1UNL     O4    8  -0.059  -0.029  -0.170
    1UNL     C5    9  -0.048  -0.175  -0.192
    1UNL    CL1   10   0.113  -0.234  -0.185
    1UNL     C6   11  -0.136  -0.254  -0.100
    1UNL     C7   12  -0.252  -0.166  -0.029
    1UNL     C8   13  -0.368  -0.121  -0.118
    1UNL     C9   14  -0.414   0.016  -0.059
    1UNL     O5   15  -0.449   0.104  -0.166
    1UNL    C10   16  -0.302   0.064   0.042
    1UNL     O6   17  -0.351   0.067   0.174
    1UNL    C11   18  -0.256   0.203   0.013
    1UNL     O7   19  -0.162   0.261   0.100
    1UNL    C12   20  -0.189  -0.038   0.039
    1UNL    C13   21   0.239  -0.043   0.202
    1UNL     O8   22   0.267   0.012   0.326
    1UNL    C14   23   0.358  -0.056   0.112
    1UNL     O9   24   0.408  -0.186   0.125
    1UNL    C15   25   0.327  -0.008  -0.033
    1UNL    O10   26   0.437  -0.034  -0.118
    1UNL     H1   27   0.320   0.239  -0.340
    1UNL     H2   28   0.197   0.294  -0.155
    1UNL     H3   29   0.159   0.119  -0.192
    1UNL     H4   30   0.360   0.206   0.008
    1UNL     H5   31   0.046   0.058   0.207
    1UNL     H6   32  -0.043   0.115  -0.022
    1UNL     H7   33  -0.074  -0.189  -0.296
    1UNL     H8   34  -0.050  -0.297  -0.048
    1UNL     H9   35  -0.198  -0.333  -0.145
    1UNL    H10   36  -0.292  -0.228   0.042
    1UNL    H11   37  -0.338  -0.099  -0.221
    1UNL    H12   38  -0.448  -0.192  -0.132
    1UNL    H13   39  -0.503  -0.001   0.005
    1UNL    H14   40  -0.514   0.170  -0.134
    1UNL    H15   41  -0.414   0.133   0.182
    1UNL    H16   42  -0.357   0.262  -0.003
    1UNL    H17   43  -0.213   0.216  -0.089
    1UNL    H18   44  -0.176   0.222   0.189
    1UNL    H19   45  -0.152  -0.057   0.135
    1UNL    H20   46   0.195  -0.146   0.229
    1UNL    H21   47   0.283   0.110   0.323
    1UNL    H22   48   0.450  -0.007   0.155
    1UNL    H23   49   0.427  -0.223   0.038
    1UNL    H24   50   0.256  -0.086  -0.066
    1UNL    H25   51   0.449   0.045  -0.171
   0.00000   0.00000   0.00000   0.00000   0.00000   0.00000   0.00000   0.00000   0.00000
Generated with MDTraj, t= 5.0
 51
    1UNL     O1    1   0.326   0.198  -0.247
    1UNL     C1    2   0.215   0.153  -0.167
    1UNL     C2    3   0.261   0.128  -0.021
    1UNL     O2    4   0.156   0.142   0.071
    1UNL     C3    5   0.116   0.019   0.126
    1UNL     O3    6   0.064  -0.074   0.031
    1UNL     C4    7  -0.049  -0.010  -0.031
    1UNL     O4    8  -0.048  -0.036  -0.169
    1UNL     C5    9  -0.050  -0.178  -0.192
    1UNL    CL1   10   0.113  -0.238  -0.193
    1UNL     C6   11  -0.136  -0.251  -0.095
    1UNL     C7   12  -0.251  -0.165  -0.036
    1UNL     C8   13  -0.338  -0.094  -0.136
    1UNL     C9   14  -0.407   0.022  -0.057
    1UNL     O5   15  -0.462   0.123  -0.136
    1UNL    C10   16  -0.289   0.066   0.044
    1UNL     O6   17  -0.337   0.065   0.180
    1UNL    C11   18  -0.242   0.209   0.010
    1UNL     O7   19  -0.159   0.267   0.106
    1UNL    C12   20  -0.189  -0.047   0.037
    1UNL    C13   21   0.235  -0.035   0.212
    1UNL     O8   22   0.262   0.059   0.315
    1UNL    C14   23   0.362  -0.055   0.128
    1UNL     O9   24   0.394  -0.191   0.118
    1UNL    C15   25   0.332  -0.010  -0.023
    1UNL    O10   26   0.438  -0.015  -0.117
    1UNL     H1   27   0.300   0.214  -0.342
    1UNL     H2   28   0.136   0.238  -0.161
    1UNL     H3   29   0.172   0.067  -0.213
    1UNL     H4   30   0.325   0.217  -0.001
    1UNL     H5   31   0.036   0.044   0.182
    1UNL     H6   32  -0.022   0.095  -0.030
    1UNL     H7   33  -0.081  -0.183  -0.300
    1UNL     H8   34  -0.082  -0.279  -0.005
    1UNL     H9   35  -0.160  -0.337  -0.158
    1UNL    H10   36  -0.297  -0.213   0.043
    1UNL    H11   37  -0.280  -0.051  -0.217
    1UNL    H12   38  -0.419  -0.158  -0.172
    1UNL    H13   39  -0.494  -0.012   0.005
    1UNL    H14   40  -0.443   0.108  -0.231
    1UNL    H15   41  -0.413   0.124   0.184
    1UNL    H16   42  -0.330   0.282  -0.013
    1UNL    H17   43  -0.189   0.216  -0.088
    1UNL    H18   44  -0.197   0.245   0.194
    1UNL    H19   45  -0.159  -0.076   0.133
    1UNL    H20   46   0.201  -0.129   0.268
    1UNL    H21   47   0.224   0.141   0.297
    1UNL    H22   48   0.451  -0.003   0.172
    1UNL    H23   49   0.372  -0.215   0.027
    1UNL    H24   50   0.258  -0.073  -0.075
    1UNL    H25   51   0.476   0.075  -0.111
   0.00000   0.00000   0.00000   0.00000   0.00000   0.00000   0.00000   0.00000   0.00000
Generated with MDTraj, t= 6.0
 51
    1UNL     O1    1   0.291   0.162  -0.268
    1UNL     C1    2   0.204   0.172  -0.156
    1UNL     C2    3   0.261   0.142  -0.017
    1UNL     O2    4   0.154   0.147   0.078
    1UNL     C3    5   0.116   0.023   0.142
    1UNL     O3    6   0.067  -0.073   0.053
    1UNL     C4    7  -0.045  -0.012  -0.015
    1UNL     O4    8  -0.043  -0.025  -0.161
    1UNL     C5    9  -0.045  -0.161  -0.198
    1UNL    CL1   10   0.117  -0.234  -0.202
    1UNL     C6   11  -0.143  -0.247  -0.118
    1UNL     C7   12  -0.255  -0.170  -0.038
    1UNL     C8   13  -0.368  -0.116  -0.127
    1UNL     C9   14  -0.407   0.024  -0.058
    1UNL     O5   15  -0.444   0.123  -0.150
    1UNL    C10   16  -0.289   0.063   0.045
    1UNL     O6   17  -0.343   0.084   0.178
    1UNL    C11   18  -0.224   0.195  -0.001
    1UNL     O7   19  -0.127   0.228   0.097
    1UNL    C12   20  -0.187  -0.051   0.037
    1UNL    C13   21   0.238  -0.034   0.220
    1UNL     O8   22   0.280   0.066   0.316
    1UNL    C14   23   0.351  -0.062   0.118
    1UNL     O9   24   0.380  -0.200   0.128
    1UNL    C15   25   0.321  -0.003  -0.028
    1UNL    O10   26   0.447   0.006  -0.101
    1UNL     H1   27   0.279   0.244  -0.320
    1UNL     H2   28   0.158   0.280  -0.157
    1UNL     H3   29   0.122   0.104  -0.175
    1UNL     H4   30   0.340   0.205   0.024
    1UNL     H5   31   0.044   0.050   0.206
    1UNL     H6   32  -0.036   0.095   0.007
    1UNL     H7   33  -0.079  -0.147  -0.308
    1UNL     H8   34  -0.074  -0.305  -0.057
    1UNL     H9   35  -0.202  -0.320  -0.173
    1UNL    H10   36  -0.311  -0.234   0.021
    1UNL    H11   37  -0.329  -0.096  -0.224
    1UNL    H12   38  -0.455  -0.187  -0.132
    1UNL    H13   39  -0.504  -0.003  -0.007
    1UNL    H14   40  -0.438   0.088  -0.243
    1UNL    H15   41  -0.401   0.167   0.174
    1UNL    H16   42  -0.293   0.288  -0.023
    1UNL    H17   43  -0.174   0.189  -0.100
    1UNL    H18   44  -0.163   0.235   0.187
    1UNL    H19   45  -0.172  -0.073   0.139
    1UNL    H20   46   0.221  -0.131   0.277
    1UNL    H21   47   0.252   0.145   0.273
    1UNL    H22   48   0.442  -0.015   0.162
    1UNL    H23   49   0.369  -0.239   0.039
    1UNL    H24   50   0.261  -0.075  -0.083
    1UNL    H25   51   0.444   0.092  -0.149
   0.00000   0.00000   0.00000   0.00000   0.00000   0.00000   0.00000   0.00000   0.00000
Generated with MDTraj, t= 7.0
 51
    1UNL     O1    1   0.287   0.162  -0.258
    1UNL     C1    2   0.189   0.163  -0.158
    1UNL     C2    3   0.248   0.131  -0.018
    1UNL     O2    4   0.158   0.153   0.092
    1UNL     C3    5   0.118   0.026   0.155
    1UNL     O3    6   0.067  -0.057   0.052
    1UNL     C4    7  -0.051  -0.003  -0.013
    1UNL     O4    8  -0.049  -0.024  -0.164
    1UNL     C5    9  -0.047  -0.163  -0.191
    1UNL    CL1   10   0.118  -0.222  -0.200
    1UNL     C6   11  -0.123  -0.255  -0.097
    1UNL     C7   12  -0.242  -0.171  -0.028
    1UNL     C8   13  -0.344  -0.104  -0.132
    1UNL     C9   14  -0.405   0.019  -0.063
    1UNL     O5   15  -0.439   0.118  -0.160
    1UNL    C10   16  -0.291   0.065   0.043
    1UNL     O6   17  -0.356   0.075   0.167
    1UNL    C11   18  -0.244   0.203  -0.010
    1UNL     O7   19  -0.155   0.269   0.080
    1UNL    C12   20  -0.183  -0.050   0.051
    1UNL    C13   21   0.245  -0.046   0.218
    1UNL     O8   22   0.304   0.043   0.316
    1UNL    C14   23   0.357  -0.075   0.115
    1UNL     O9   24   0.380  -0.215   0.111
    1UNL    C15   25   0.327  -0.009  -0.021
    1UNL    O10   26   0.444   0.003  -0.102
    1UNL     H1   27   0.241   0.146  -0.342
    1UNL     H2   28   0.129   0.263  -0.163
    1UNL     H3   29   0.122   0.087  -0.192
    1UNL     H4   30   0.318   0.211   0.004
    1UNL     H5   31   0.046   0.043   0.223
    1UNL     H6   32  -0.044   0.107  -0.002
    1UNL     H7   33  -0.099  -0.172  -0.294
    1UNL     H8   34  -0.070  -0.297  -0.008
    1UNL     H9   35  -0.143  -0.348  -0.151
    1UNL    H10   36  -0.295  -0.236   0.035
    1UNL    H11   37  -0.283  -0.069  -0.211
    1UNL    H12   38  -0.423  -0.173  -0.173
    1UNL    H13   39  -0.494  -0.012  -0.003
    1UNL    H14   40  -0.498   0.085  -0.234
    1UNL    H15   41  -0.418   0.160   0.170
    1UNL    H16   42  -0.341   0.264  -0.028
    1UNL    H17   43  -0.195   0.203  -0.107
    1UNL    H18   44  -0.194   0.268   0.170
    1UNL    H19   45  -0.169  -0.079   0.151
    1UNL    H20   46   0.235  -0.147   0.265
    1UNL    H21   47   0.294   0.137   0.273
    1UNL    H22   48   0.445  -0.022   0.157
    1UNL    H23   49   0.388  -0.238   0.013
    1UNL    H24   50   0.275  -0.091  -0.070
    1UNL    H25   51   0.440   0.081  -0.164
   0.00000   0.00000   0.00000   0.00000   0.00000   0.00000   0.00000   0.00000   0.00000
Generated with MDTraj, t= 8.0
 51
    1UNL     O1    1   0.303   0.192  -0.256
    1UNL     C1    2   0.205   0.161  -0.160
    1UNL     C2    3   0.265   0.125  -0.021
    1UNL     O2    4   0.174   0.142   0.083
    1UNL     C3    5   0.128   0.018   0.142
    1UNL     O3    6   0.053  -0.070   0.058
    1UNL     C4    7  -0.051   0.008  -0.005
    1UNL     O4    8  -0.046  -0.014  -0.153
    1UNL     C5    9  -0.039  -0.151  -0.177
    1UNL    CL1   10   0.127  -0.209  -0.187
    1UNL     C6   11  -0.116  -0.236  -0.075
    1UNL     C7   12  -0.234  -0.156  -0.014
    1UNL     C8   13  -0.342  -0.127  -0.118
    1UNL     C9   14  -0.414  -0.005  -0.071
    1UNL     O5   15  -0.470   0.081  -0.168
    1UNL    C10   16  -0.308   0.077   0.030
    1UNL     O6   17  -0.368   0.099   0.159
    1UNL    C11   18  -0.250   0.216  -0.019
    1UNL     O7   19  -0.183   0.284   0.085
    1UNL    C12   20  -0.184  -0.027   0.053
    1UNL    C13   21   0.246  -0.055   0.210
    1UNL     O8   22   0.287   0.015   0.328
    1UNL    C14   23   0.362  -0.085   0.104
    1UNL     O9   24   0.393  -0.223   0.082
    1UNL    C15   25   0.326  -0.016  -0.031
    1UNL    O10   26   0.443  -0.019  -0.112
    1UNL     H1   27   0.275   0.185  -0.350
    1UNL     H2   28   0.138   0.256  -0.164
    1UNL     H3   29   0.139   0.082  -0.187
    1UNL     H4   30   0.334   0.207   0.000
    1UNL     H5   31   0.055   0.046   0.206
    1UNL     H6   32  -0.041   0.119   0.008
    1UNL     H7   33  -0.087  -0.166  -0.280
    1UNL     H8   34  -0.045  -0.281  -0.003
    1UNL     H9   35  -0.163  -0.326  -0.116
    1UNL    H10   36  -0.275  -0.213   0.066
    1UNL    H11   37  -0.310  -0.121  -0.221
    1UNL    H12   38  -0.403  -0.222  -0.111
    1UNL    H13   39  -0.490  -0.034   0.002
    1UNL    H14   40  -0.402   0.120  -0.226
    1UNL    H15   41  -0.437   0.179   0.150
    1UNL    H16   42  -0.337   0.284  -0.053
    1UNL    H17   43  -0.186   0.193  -0.100
    1UNL    H18   44  -0.241   0.272   0.163
    1UNL    H19   45  -0.175  -0.043   0.158
    1UNL    H20   46   0.219  -0.156   0.240
    1UNL    H21   47   0.295   0.112   0.321
    1UNL    H22   48   0.446  -0.026   0.142
    1UNL    H23   49   0.366  -0.243  -0.012
    1UNL    H24   50   0.251  -0.082  -0.075
    1UNL    H25   51   0.434   0.020  -0.202
   0.00000   0.00000   0.00000   0.00000   0.00000   0.00000   0.00000   0.00000   0.00000
Generated with MDTraj, t= 9.0
 51
    1UNL     O1    1   0.309   0.187  -0.255
    1UNL     C1    2   0.231   0.198  -0.137
    1UNL     C2    3   0.294   0.129  -0.010
    1UNL     O2    4   0.198   0.150   0.095
    1UNL     C3    5   0.135   0.030   0.151
    1UNL     O3    6   0.051  -0.048   0.061
    1UNL     C4    7  -0.063   0.012  -0.003
    1UNL     O4    8  -0.060  -0.010  -0.147
    1UNL     C5    9  -0.051  -0.147  -0.172
    1UNL    CL1   10   0.118  -0.193  -0.188
    1UNL     C6   11  -0.118  -0.238  -0.072
    1UNL     C7   12  -0.246  -0.170  -0.009
    1UNL     C8   13  -0.361  -0.132  -0.103
    1UNL     C9   14  -0.419  -0.004  -0.054
    1UNL     O5   15  -0.464   0.066  -0.174
    1UNL    C10   16  -0.313   0.072   0.034
    1UNL     O6   17  -0.373   0.099   0.155
    1UNL    C11   18  -0.265   0.195  -0.045
    1UNL     O7   19  -0.179   0.273   0.028
    1UNL    C12   20  -0.193  -0.034   0.059
    1UNL    C13   21   0.250  -0.064   0.209
    1UNL     O8   22   0.295  -0.011   0.328
    1UNL    C14   23   0.372  -0.084   0.104
    1UNL     O9   24   0.405  -0.217   0.079
    1UNL    C15   25   0.324  -0.024  -0.031
    1UNL    O10   26   0.428  -0.037  -0.125
    1UNL     H1   27   0.330   0.273  -0.300
    1UNL     H2   28   0.215   0.305  -0.100
    1UNL     H3   29   0.131   0.168  -0.154
    1UNL     H4   30   0.384   0.181   0.029
    1UNL     H5   31   0.076   0.049   0.232
    1UNL     H6   32  -0.067   0.123   0.012
    1UNL     H7   33  -0.089  -0.153  -0.279
    1UNL     H8   34  -0.043  -0.271   0.004
    1UNL     H9   35  -0.146  -0.330  -0.124
    1UNL    H10   36  -0.285  -0.227   0.073
    1UNL    H11   37  -0.332  -0.130  -0.212
    1UNL    H12   38  -0.443  -0.208  -0.111
    1UNL    H13   39  -0.506  -0.015   0.009
    1UNL    H14   40  -0.384   0.083  -0.227
    1UNL    H15   41  -0.459   0.154   0.137
    1UNL    H16   42  -0.366   0.245  -0.063
    1UNL    H17   43  -0.216   0.173  -0.134
    1UNL    H18   44  -0.205   0.274   0.123
    1UNL    H19   45  -0.181  -0.050   0.164
    1UNL    H20   46   0.225  -0.165   0.230
    1UNL    H21   47   0.321   0.079   0.313
    1UNL    H22   48   0.462  -0.037   0.141
    1UNL    H23   49   0.413  -0.232  -0.017
    1UNL    H24   50   0.236  -0.086  -0.063
    1UNL    H25   51   0.411   0.040  -0.184
   0.00000   0.00000   0.00000   0.00000   0.00000   0.00000   0.00000   0.00000   0.00000
Generated with MDTraj, t= 10.0
 51
    1UNL     O1    1   0.324   0.208  -0.228
    1UNL     C1    2   0.214   0.179  -0.145
    1UNL     C2    3   0.251   0.129  -0.007
    1UNL     O2    4   0.159   0.139   0.100
    1UNL     C3    5   0.124   0.015   0.163
    1UNL     O3    6   0.060  -0.061   0.064
    1UNL     C4    7  -0.046   0.016  -0.002
    1UNL     O4    8  -0.049  -0.004  -0.153
    1UNL     C5    9  -0.042  -0.142  -0.182
    1UNL    CL1   10   0.116  -0.195  -0.218
    1UNL     C6   11  -0.103  -0.228  -0.070
    1UNL     C7   12  -0.224  -0.164   0.008
    1UNL     C8   13  -0.340  -0.148  -0.087
    1UNL     C9   14  -0.415  -0.021  -0.041
    1UNL     O5   15  -0.487   0.054  -0.146
    1UNL    C10   16  -0.309   0.077   0.024
    1UNL     O6   17  -0.351   0.142   0.146
    1UNL    C11   18  -0.247   0.186  -0.063
    1UNL     O7   19  -0.174   0.283   0.012
    1UNL    C12   20  -0.186  -0.016   0.056
    1UNL    C13   21   0.246  -0.069   0.216
    1UNL     O8   22   0.298  -0.018   0.336
    1UNL    C14   23   0.357  -0.089   0.108
    1UNL     O9   24   0.400  -0.220   0.090
    1UNL    C15   25   0.312  -0.017  -0.029
    1UNL    O10   26   0.416  -0.034  -0.132
    1UNL     H1   27   0.297   0.241  -0.316
    1UNL     H2   28   0.149   0.272  -0.142
    1UNL     H3   29   0.154   0.105  -0.187
    1UNL     H4   30   0.345   0.185   0.020
    1UNL     H5   31   0.059   0.018   0.241
    1UNL     H6   32  -0.027   0.126   0.013
    1UNL     H7   33  -0.086  -0.145  -0.284
    1UNL     H8   34  -0.025  -0.258   0.006
    1UNL     H9   35  -0.131  -0.322  -0.118
    1UNL    H10   36  -0.257  -0.224   0.094
    1UNL    H11   37  -0.310  -0.141  -0.198
    1UNL    H12   38  -0.409  -0.234  -0.098
    1UNL    H13   39  -0.494  -0.035   0.031
    1UNL    H14   40  -0.420   0.076  -0.214
    1UNL    H15   41  -0.442   0.174   0.130
    1UNL    H16   42  -0.324   0.250  -0.112
    1UNL    H17   43  -0.195   0.133  -0.134
    1UNL    H18   44  -0.181   0.278   0.112
    1UNL    H19   45  -0.176  -0.017   0.164
    1UNL    H20   46   0.203  -0.159   0.251
    1UNL    H21   47   0.330   0.069   0.324
    1UNL    H22   48   0.436  -0.022   0.139
    1UNL    H23   49   0.370  -0.255   0.005
    1UNL    H24   50   0.240  -0.082  -0.086
    1UNL    H25   51   0.454   0.060  -0.138
   0.00000   0.00000   0.00000   0.00000   0.00000   0.00000   0.00000   0.00000   0.00000
Generated with MDTraj, t= 11.0
 51
    1UNL     O1    1   0.273   0.237  -0.218
    1UNL     C1    2   0.194   0.190  -0.113
    1UNL     C2    3   0.269   0.130   0.002
    1UNL     O2    4   0.186   0.141   0.119
    1UNL     C3    5   0.133   0.014   0.166
    1UNL     O3    6   0.067  -0.060   0.060
    1UNL     C4    7  -0.041   0.008  -0.008
    1UNL     O4    8  -0.039  -0.005  -0.150
    1UNL     C5    9  -0.044  -0.136  -0.193
    1UNL    CL1   10   0.106  -0.208  -0.239
    1UNL     C6   11  -0.107  -0.229  -0.092
    1UNL     C7   12  -0.225  -0.171  -0.010
    1UNL     C8   13  -0.356  -0.133  -0.083
    1UNL     C9   14  -0.409  -0.005  -0.022
    1UNL     O5   15  -0.492   0.065  -0.123
    1UNL    C10   16  -0.286   0.077   0.024
    1UNL     O6   17  -0.326   0.142   0.146
    1UNL    C11   18  -0.250   0.171  -0.089
    1UNL     O7   19  -0.158   0.261  -0.035
    1UNL    C12   20  -0.175  -0.034   0.049
    1UNL    C13   21   0.246  -0.067   0.228
    1UNL     O8   22   0.296   0.006   0.339
    1UNL    C14   23   0.364  -0.089   0.120
    1UNL     O9   24   0.383  -0.226   0.101
    1UNL    C15   25   0.319  -0.020  -0.015
    1UNL    O10   26   0.421  -0.029  -0.115
    1UNL     H1   27   0.217   0.256  -0.295
    1UNL     H2   28   0.140   0.276  -0.067
    1UNL     H3   29   0.126   0.131  -0.163
    1UNL     H4   30   0.359   0.195   0.024
    1UNL     H5   31   0.056   0.028   0.231
    1UNL     H6   32  -0.018   0.117   0.006
    1UNL     H7   33  -0.099  -0.126  -0.285
    1UNL     H8   34  -0.027  -0.274  -0.027
    1UNL     H9   35  -0.152  -0.318  -0.141
    1UNL    H10   36  -0.247  -0.237   0.077
    1UNL    H11   37  -0.339  -0.116  -0.196
    1UNL    H12   38  -0.422  -0.223  -0.084
    1UNL    H13   39  -0.479  -0.030   0.058
    1UNL    H14   40  -0.527  -0.005  -0.183
    1UNL    H15   41  -0.402   0.195   0.133
    1UNL    H16   42  -0.344   0.219  -0.118
    1UNL    H17   43  -0.205   0.125  -0.169
    1UNL    H18   44  -0.169   0.272   0.061
    1UNL    H19   45  -0.153  -0.039   0.156
    1UNL    H20   46   0.221  -0.166   0.253
    1UNL    H21   47   0.312   0.096   0.313
    1UNL    H22   48   0.456  -0.054   0.165
    1UNL    H23   49   0.320  -0.271   0.041
    1UNL    H24   50   0.240  -0.087  -0.058
    1UNL    H25   51   0.391  -0.084  -0.187
   0.00000   0.00000   0.00000   0.00000   0.00000   0.00000   0.00000   0.00000   0.00000
Generated with MDTraj, t= 12.0
 51
    1UNL     O1    1   0.299   0.239  -0.202
    1UNL     C1    2   0.194   0.186  -0.120
    1UNL     C2    3   0.260   0.133   0.010
    1UNL     O2    4   0.156   0.126   0.115
    1UNL     C3    5   0.125  -0.004   0.169
    1UNL     O3    6   0.057  -0.090   0.078
    1UNL     C4    7  -0.042  -0.007   0.002
    1UNL     O4    8  -0.028  -0.018  -0.140
    1UNL     C5    9  -0.047  -0.147  -0.194
    1UNL    CL1   10   0.110  -0.212  -0.244
    1UNL     C6   11  -0.124  -0.235  -0.092
    1UNL     C7   12  -0.231  -0.166  -0.007
    1UNL     C8   13  -0.366  -0.137  -0.087
    1UNL     C9   14  -0.413  -0.010  -0.024
    1UNL     O5   15  -0.504   0.073  -0.096
    1UNL    C10   16  -0.284   0.074   0.018
    1UNL     O6   17  -0.304   0.153   0.131
    1UNL    C11   18  -0.238   0.175  -0.096
    1UNL     O7   19  -0.139   0.264  -0.053
    1UNL    C12   20  -0.186  -0.036   0.061
    1UNL    C13   21   0.254  -0.067   0.224
    1UNL     O8   22   0.301   0.021   0.332
    1UNL    C14   23   0.359  -0.088   0.105
    1UNL     O9   24   0.363  -0.224   0.076
    1UNL    C15   25   0.319  -0.005  -0.018
    1UNL    O10   26   0.435   0.011  -0.102
    1UNL     H1   27   0.282   0.220  -0.298
    1UNL     H2   28   0.127   0.274  -0.122
    1UNL     H3   29   0.140   0.109  -0.162
    1UNL     H4   30   0.334   0.207   0.046
    1UNL     H5   31   0.059   0.008   0.246
    1UNL     H6   32  -0.010   0.098   0.024
    1UNL     H7   33  -0.107  -0.133  -0.280
    1UNL     H8   34  -0.053  -0.286  -0.020
    1UNL     H9   35  -0.168  -0.326  -0.138
    1UNL    H10   36  -0.261  -0.240   0.072
    1UNL    H11   37  -0.347  -0.124  -0.198
    1UNL    H12   38  -0.436  -0.225  -0.068
    1UNL    H13   39  -0.471  -0.029   0.069
    1UNL    H14   40  -0.584   0.027  -0.133
    1UNL    H15   41  -0.360   0.221   0.104
    1UNL    H16   42  -0.326   0.230  -0.127
    1UNL    H17   43  -0.201   0.126  -0.177
    1UNL    H18   44  -0.165   0.292   0.040
    1UNL    H19   45  -0.180  -0.037   0.171
    1UNL    H20   46   0.246  -0.164   0.264
    1UNL    H21   47   0.312   0.114   0.291
    1UNL    H22   48   0.454  -0.049   0.141
    1UNL    H23   49   0.319  -0.235  -0.014
    1UNL    H24   50   0.248  -0.056  -0.086
    1UNL    H25   51   0.481   0.086  -0.065
   0.00000   0.00000   0.00000   0.00000   0.00000   0.00000   0.00000   0.00000   0.00000
Generated with MDTraj, t= 13.0
 51
    1UNL     O1    1   0.295   0.241  -0.204
    1UNL     C1    2   0.200   0.216  -0.097
    1UNL     C2    3   0.261   0.143   0.021
    1UNL     O2    4   0.160   0.130   0.129
    1UNL     C3    5   0.123   0.000   0.164
    1UNL     O3    6   0.071  -0.073   0.052
    1UNL     C4    7  -0.043  -0.004  -0.013
    1UNL     O4    8  -0.047  -0.024  -0.156
    1UNL     C5    9  -0.056  -0.164  -0.192
    1UNL    CL1   10   0.099  -0.232  -0.212
    1UNL     C6   11  -0.134  -0.260  -0.092
    1UNL     C7   12  -0.231  -0.174  -0.011
    1UNL     C8   13  -0.373  -0.135  -0.081
    1UNL     C9   14  -0.412   0.001  -0.026
    1UNL     O5   15  -0.499   0.072  -0.111
    1UNL    C10   16  -0.282   0.072   0.016
    1UNL     O6   17  -0.314   0.143   0.132
    1UNL    C11   18  -0.235   0.183  -0.092
    1UNL     O7   19  -0.128   0.259  -0.042
    1UNL    C12   20  -0.179  -0.039   0.052
    1UNL    C13   21   0.251  -0.067   0.220
    1UNL     O8   22   0.321   0.018   0.313
    1UNL    C14   23   0.353  -0.089   0.098
    1UNL     O9   24   0.344  -0.225   0.048
    1UNL    C15   25   0.330   0.012  -0.017
    1UNL    O10   26   0.455   0.030  -0.092
    1UNL     H1   27   0.358   0.314  -0.177
    1UNL     H2   28   0.154   0.308  -0.056
    1UNL     H3   29   0.128   0.162  -0.149
    1UNL     H4   30   0.328   0.208   0.080
    1UNL     H5   31   0.044   0.016   0.228
    1UNL     H6   32  -0.014   0.099   0.012
    1UNL     H7   33  -0.106  -0.166  -0.284
    1UNL     H8   34  -0.064  -0.324  -0.028
    1UNL     H9   35  -0.189  -0.345  -0.140
    1UNL    H10   36  -0.266  -0.251   0.064
    1UNL    H11   37  -0.345  -0.126  -0.190
    1UNL    H12   38  -0.460  -0.209  -0.058
    1UNL    H13   39  -0.479  -0.018   0.063
    1UNL    H14   40  -0.457   0.082  -0.199
    1UNL    H15   41  -0.379   0.205   0.107
    1UNL    H16   42  -0.315   0.250  -0.121
    1UNL    H17   43  -0.197   0.144  -0.180
    1UNL    H18   44  -0.155   0.277   0.049
    1UNL    H19   45  -0.172  -0.031   0.162
    1UNL    H20   46   0.228  -0.161   0.264
    1UNL    H21   47   0.309   0.105   0.267
    1UNL    H22   48   0.457  -0.079   0.134
    1UNL    H23   49   0.294  -0.235  -0.038
    1UNL    H24   50   0.270  -0.046  -0.087
    1UNL    H25   51   0.452   0.122  -0.135
   0.00000   0.00000   0.00000   0.00000   0.00000   0.00000   0.00000   0.00000   0.00000
Generated with MDTraj, t= 14.0
 51
    1UNL     O1    1   0.308   0.291  -0.186
    1UNL     C1    2   0.205   0.236  -0.109
    1UNL     C2    3   0.254   0.147   0.009
    1UNL     O2    4   0.141   0.139   0.112
    1UNL     C3    5   0.113  -0.006   0.148
    1UNL     O3    6   0.066  -0.079   0.034
    1UNL     C4    7  -0.041  -0.007  -0.030
    1UNL     O4    8  -0.053  -0.043  -0.165
    1UNL     C5    9  -0.055  -0.184  -0.174
    1UNL    CL1   10   0.111  -0.255  -0.181
    1UNL     C6   11  -0.129  -0.258  -0.055
    1UNL     C7   12  -0.232  -0.172   0.007
    1UNL     C8   13  -0.350  -0.142  -0.088
    1UNL     C9   14  -0.400   0.003  -0.041
    1UNL     O5   15  -0.463   0.087  -0.135
    1UNL    C10   16  -0.282   0.080   0.028
    1UNL     O6   17  -0.323   0.143   0.152
    1UNL    C11   18  -0.238   0.195  -0.071
    1UNL     O7   19  -0.137   0.276  -0.010
    1UNL    C12   20  -0.173  -0.032   0.048
    1UNL    C13   21   0.239  -0.077   0.190
    1UNL     O8   22   0.293  -0.010   0.301
    1UNL    C14   23   0.343  -0.092   0.077
    1UNL     O9   24   0.337  -0.222   0.020
    1UNL    C15   25   0.320   0.016  -0.036
    1UNL    O10   26   0.450   0.039  -0.097
    1UNL     H1   27   0.403   0.281  -0.158
    1UNL     H2   28   0.156   0.334  -0.077
    1UNL     H3   29   0.139   0.180  -0.168
    1UNL     H4   30   0.333   0.204   0.057
    1UNL     H5   31   0.050   0.009   0.227
    1UNL     H6   32  -0.000   0.096  -0.032
    1UNL     H7   33  -0.096  -0.209  -0.268
    1UNL     H8   34  -0.051  -0.287   0.021
    1UNL     H9   35  -0.171  -0.353  -0.091
    1UNL    H10   36  -0.271  -0.227   0.100
    1UNL    H11   37  -0.312  -0.126  -0.192
    1UNL    H12   38  -0.436  -0.221  -0.074
    1UNL    H13   39  -0.486  -0.011   0.032
    1UNL    H14   40  -0.409   0.083  -0.216
    1UNL    H15   41  -0.411   0.184   0.138
    1UNL    H16   42  -0.321   0.262  -0.094
    1UNL    H17   43  -0.194   0.172  -0.164
    1UNL    H18   44  -0.160   0.275   0.087
    1UNL    H19   45  -0.142  -0.031   0.154
    1UNL    H20   46   0.219  -0.171   0.238
    1UNL    H21   47   0.285   0.083   0.280
    1UNL    H22   48   0.443  -0.072   0.120
    1UNL    H23   49   0.252  -0.248  -0.014
    1UNL    H24   50   0.266  -0.034  -0.114
    1UNL    H25   51   0.518  -0.019  -0.058
   0.00000   0.00000   0.00000   0.00000   0.00000   0.00000   0.00000   0.00000   0.00000
Generated with MDTraj, t= 15.0
 51
    1UNL     O1    1   0.328   0.294  -0.160
    1UNL     C1    2   0.214   0.251  -0.096
    1UNL     C2    3   0.263   0.156   0.021
    1UNL     O2    4   0.144   0.125   0.105
    1UNL     C3    5   0.131  -0.015   0.134
    1UNL     O3    6   0.070  -0.080   0.024
    1UNL     C4    7  -0.044  -0.016  -0.039
    1UNL     O4    8  -0.070  -0.067  -0.167
    1UNL     C5    9  -0.073  -0.207  -0.171
    1UNL    CL1   10   0.091  -0.266  -0.175
    1UNL     C6   11  -0.145  -0.264  -0.042
    1UNL     C7   12  -0.250  -0.170   0.014
    1UNL     C8   13  -0.363  -0.135  -0.082
    1UNL     C9   14  -0.407   0.016  -0.055
    1UNL     O5   15  -0.443   0.084  -0.171
    1UNL    C10   16  -0.283   0.087   0.010
    1UNL     O6   17  -0.330   0.133   0.137
    1UNL    C11   18  -0.228   0.208  -0.054
    1UNL     O7   19  -0.130   0.264   0.033
    1UNL    C12   20  -0.179  -0.032   0.042
    1UNL    C13   21   0.254  -0.074   0.189
    1UNL     O8   22   0.297  -0.001   0.304
    1UNL    C14   23   0.363  -0.069   0.083
    1UNL     O9   24   0.389  -0.197   0.029
    1UNL    C15   25   0.317   0.026  -0.038
    1UNL    O10   26   0.420   0.045  -0.134
    1UNL     H1   27   0.393   0.221  -0.145
    1UNL     H2   28   0.144   0.334  -0.058
    1UNL     H3   29   0.161   0.186  -0.162
    1UNL     H4   30   0.314   0.221   0.090
    1UNL     H5   31   0.061  -0.009   0.209
    1UNL     H6   32  -0.016   0.089  -0.053
    1UNL     H7   33  -0.110  -0.234  -0.269
    1UNL     H8   34  -0.058  -0.284   0.026
    1UNL     H9   35  -0.193  -0.362  -0.064
    1UNL    H10   36  -0.289  -0.214   0.113
    1UNL    H11   37  -0.328  -0.125  -0.188
    1UNL    H12   38  -0.460  -0.203  -0.067
    1UNL    H13   39  -0.494   0.029   0.015
    1UNL    H14   40  -0.371   0.076  -0.237
    1UNL    H15   41  -0.424   0.174   0.125
    1UNL    H16   42  -0.296   0.294  -0.061
    1UNL    H17   43  -0.190   0.192  -0.153
    1UNL    H18   44  -0.152   0.244   0.126
    1UNL    H19   45  -0.157  -0.022   0.153
    1UNL    H20   46   0.233  -0.178   0.217
    1UNL    H21   47   0.252   0.090   0.293
    1UNL    H22   48   0.461  -0.030   0.117
    1UNL    H23   49   0.310  -0.246  -0.000
    1UNL    H24   50   0.242  -0.024  -0.096
    1UNL    H25   51   0.490  -0.017  -0.121
   0.00000   0.00000   0.00000   0.00000   0.00000   0.00000   0.00000   0.00000   0.00000
Generated with MDTraj, t= 16.0
 51
    1UNL     O1    1   0.326   0.311  -0.164
    1UNL     C1    2   0.218   0.268  -0.085
    1UNL     C2    3   0.253   0.159   0.020
    1UNL     O2    4   0.135   0.138   0.107
    1UNL     C3    5   0.120  -0.003   0.148
    1UNL     O3    6   0.059  -0.089   0.052
    1UNL     C4    7  -0.042  -0.024  -0.023
    1UNL     O4    8  -0.055  -0.072  -0.152
    1UNL     C5    9  -0.073  -0.214  -0.170
    1UNL    CL1   10   0.080  -0.292  -0.175
    1UNL     C6   11  -0.163  -0.274  -0.052
    1UNL     C7   12  -0.262  -0.168   0.007
    1UNL     C8   13  -0.382  -0.135  -0.084
    1UNL     C9   14  -0.391   0.025  -0.072
    1UNL     O5   15  -0.394   0.089  -0.197
    1UNL    C10   16  -0.282   0.086   0.018
    1UNL     O6   17  -0.328   0.123   0.144
    1UNL    C11   18  -0.226   0.209  -0.040
    1UNL     O7   19  -0.112   0.262   0.023
    1UNL    C12   20  -0.181  -0.037   0.050
    1UNL    C13   21   0.259  -0.064   0.184
    1UNL     O8   22   0.311  -0.013   0.310
    1UNL    C14   23   0.366  -0.052   0.064
    1UNL     O9   24   0.384  -0.190   0.026
    1UNL    C15   25   0.307   0.037  -0.050
    1UNL    O10   26   0.406   0.053  -0.148
    1UNL     H1   27   0.414   0.265  -0.149
    1UNL     H2   28   0.176   0.355  -0.022
    1UNL     H3   29   0.139   0.230  -0.147
    1UNL     H4   30   0.331   0.203   0.082
    1UNL     H5   31   0.058   0.011   0.228
    1UNL     H6   32  -0.012   0.080  -0.029
    1UNL     H7   33  -0.115  -0.222  -0.272
    1UNL     H8   34  -0.097  -0.311   0.030
    1UNL     H9   35  -0.214  -0.364  -0.094
    1UNL    H10   36  -0.296  -0.221   0.103
    1UNL    H11   37  -0.362  -0.156  -0.193
    1UNL    H12   38  -0.486  -0.179  -0.061
    1UNL    H13   39  -0.480   0.053  -0.010
    1UNL    H14   40  -0.309   0.069  -0.243
    1UNL    H15   41  -0.419   0.177   0.145
    1UNL    H16   42  -0.312   0.277  -0.038
    1UNL    H17   43  -0.193   0.196  -0.145
    1UNL    H18   44  -0.121   0.250   0.120
    1UNL    H19   45  -0.163  -0.042   0.164
    1UNL    H20   46   0.241  -0.169   0.218
    1UNL    H21   47   0.270   0.077   0.319
    1UNL    H22   48   0.467  -0.020   0.101
    1UNL    H23   49   0.317  -0.212  -0.046
    1UNL    H24   50   0.235  -0.023  -0.104
    1UNL    H25   51   0.479  -0.013  -0.151
   0.00000   0.00000   0.00000   0.00000   0.00000   0.00000   0.00000   0.00000   0.00000
Generated with MDTraj, t= 17.0
 51
    1UNL     O1    1   0.284   0.320  -0.145
    1UNL     C1    2   0.179   0.265  -0.073
    1UNL     C2    3   0.239   0.151   0.022
    1UNL     O2    4   0.135   0.124   0.122
    1UNL     C3    5   0.118  -0.016   0.145
    1UNL     O3    6   0.065  -0.086   0.032
    1UNL     C4    7  -0.038  -0.018  -0.029
    1UNL     O4    8  -0.054  -0.077  -0.155
    1UNL     C5    9  -0.071  -0.215  -0.155
    1UNL    CL1   10   0.079  -0.295  -0.162
    1UNL     C6   11  -0.143  -0.267  -0.027
    1UNL     C7   12  -0.245  -0.163   0.020
    1UNL     C8   13  -0.352  -0.132  -0.080
    1UNL     C9   14  -0.373   0.025  -0.087
    1UNL     O5   15  -0.363   0.083  -0.215
    1UNL    C10   16  -0.272   0.090   0.010
    1UNL     O6   17  -0.333   0.140   0.133
    1UNL    C11   18  -0.196   0.219  -0.046
    1UNL     O7   19  -0.107   0.261   0.055
    1UNL    C12   20  -0.169  -0.029   0.053
    1UNL    C13   21   0.253  -0.075   0.181
    1UNL     O8   22   0.314   0.015   0.280
    1UNL    C14   23   0.341  -0.079   0.052
    1UNL     O9   24   0.344  -0.204  -0.010
    1UNL    C15   25   0.303   0.030  -0.053
    1UNL    O10   26   0.414   0.069  -0.135
    1UNL     H1   27   0.356   0.254  -0.146
    1UNL     H2   28   0.132   0.354  -0.015
    1UNL     H3   29   0.098   0.226  -0.134
    1UNL     H4   30   0.322   0.193   0.081
    1UNL     H5   31   0.051  -0.028   0.222
    1UNL     H6   32  -0.010   0.084  -0.049
    1UNL     H7   33  -0.138  -0.242  -0.242
    1UNL     H8   34  -0.066  -0.291   0.047
    1UNL     H9   35  -0.202  -0.361  -0.041
    1UNL    H10   36  -0.298  -0.211   0.109
    1UNL    H11   37  -0.331  -0.168  -0.188
    1UNL    H12   38  -0.449  -0.184  -0.069
    1UNL    H13   39  -0.472   0.052  -0.048
    1UNL    H14   40  -0.292   0.042  -0.271
    1UNL    H15   41  -0.424   0.189   0.121
    1UNL    H16   42  -0.266   0.305  -0.050
    1UNL    H17   43  -0.157   0.193  -0.148
    1UNL    H18   44  -0.155   0.259   0.143
    1UNL    H19   45  -0.147  -0.020   0.167
    1UNL    H20   46   0.241  -0.178   0.230
    1UNL    H21   47   0.244   0.076   0.295
    1UNL    H22   48   0.445  -0.061   0.082
    1UNL    H23   49   0.252  -0.219  -0.047
    1UNL    H24   50   0.240  -0.025  -0.127
    1UNL    H25   51   0.468  -0.010  -0.172
   0.00000   0.00000   0.00000   0.00000   0.00000   0.00000   0.00000   0.00000   0.00000
Generated with MDTraj, t= 18.0
 51
    1UNL     O1    1   0.280   0.327  -0.122
    1UNL     C1    2   0.167   0.257  -0.067
    1UNL     C2    3   0.222   0.152   0.021
    1UNL     O2    4   0.119   0.114   0.119
    1UNL     C3    5   0.127  -0.020   0.152
    1UNL     O3    6   0.068  -0.103   0.045
    1UNL     C4    7  -0.034  -0.034  -0.030
    1UNL     O4    8  -0.064  -0.078  -0.165
    1UNL     C5    9  -0.085  -0.222  -0.162
    1UNL    CL1   10   0.075  -0.302  -0.161
    1UNL     C6   11  -0.163  -0.270  -0.030
    1UNL     C7   12  -0.246  -0.154   0.028
    1UNL     C8   13  -0.371  -0.112  -0.055
    1UNL     C9   14  -0.353   0.036  -0.099
    1UNL     O5   15  -0.297   0.046  -0.227
    1UNL    C10   16  -0.262   0.094   0.013
    1UNL     O6   17  -0.331   0.135   0.128
    1UNL    C11   18  -0.203   0.231  -0.041
    1UNL     O7   19  -0.116   0.296   0.046
    1UNL    C12   20  -0.163  -0.026   0.053
    1UNL    C13   21   0.266  -0.073   0.183
    1UNL     O8   22   0.333   0.002   0.282
    1UNL    C14   23   0.346  -0.070   0.043
    1UNL     O9   24   0.353  -0.198  -0.024
    1UNL    C15   25   0.285   0.036  -0.059
    1UNL    O10   26   0.395   0.086  -0.136
    1UNL     H1   27   0.344   0.252  -0.145
    1UNL     H2   28   0.088   0.331  -0.028
    1UNL     H3   29   0.130   0.212  -0.160
    1UNL     H4   30   0.291   0.203   0.095
    1UNL     H5   31   0.069  -0.037   0.235
    1UNL     H6   32   0.002   0.070  -0.048
    1UNL     H7   33  -0.152  -0.247  -0.253
    1UNL     H8   34  -0.103  -0.304   0.055
    1UNL     H9   35  -0.223  -0.360  -0.059
    1UNL    H10   36  -0.279  -0.186   0.132
    1UNL    H11   37  -0.380  -0.176  -0.149
    1UNL    H12   38  -0.471  -0.129  -0.014
    1UNL    H13   39  -0.451   0.082  -0.111
    1UNL    H14   40  -0.206   0.011  -0.229
    1UNL    H15   41  -0.413   0.186   0.101
    1UNL    H16   42  -0.293   0.296  -0.057
    1UNL    H17   43  -0.151   0.219  -0.142
    1UNL    H18   44  -0.126   0.282   0.141
    1UNL    H19   45  -0.135  -0.024   0.166
    1UNL    H20   46   0.273  -0.183   0.215
    1UNL    H21   47   0.270   0.039   0.343
    1UNL    H22   48   0.452  -0.045   0.061
    1UNL    H23   49   0.263  -0.229  -0.030
    1UNL    H24   50   0.214  -0.016  -0.129
    1UNL    H25   51   0.432   0.011  -0.191
   0.00000   0.00000   0.00000   0.00000   0.00000   0.00000   0.00000   0.00000   0.00000
Generated with MDTraj, t= 19.0
 51
    1UNL     O1    1   0.287   0.348  -0.110
    1UNL     C1    2   0.182   0.282  -0.035
    1UNL     C2    3   0.233   0.164   0.030
    1UNL     O2    4   0.132   0.124   0.129
    1UNL     C3    5   0.136  -0.017   0.163
    1UNL     O3    6   0.068  -0.101   0.058
    1UNL     C4    7  -0.036  -0.035  -0.019
    1UNL     O4    8  -0.054  -0.087  -0.155
    1UNL     C5    9  -0.096  -0.226  -0.158
    1UNL    CL1   10   0.053  -0.327  -0.166
    1UNL     C6   11  -0.174  -0.274  -0.033
    1UNL     C7   12  -0.255  -0.154   0.027
    1UNL     C8   13  -0.376  -0.112  -0.057
    1UNL     C9   14  -0.362   0.031  -0.109
    1UNL     O5   15  -0.319   0.031  -0.238
    1UNL    C10   16  -0.263   0.099  -0.001
    1UNL     O6   17  -0.337   0.155   0.108
    1UNL    C11   18  -0.183   0.216  -0.053
    1UNL     O7   19  -0.105   0.262   0.049
    1UNL    C12   20  -0.179  -0.016   0.052
    1UNL    C13   21   0.282  -0.073   0.175
    1UNL     O8   22   0.332  -0.014   0.292
    1UNL    C14   23   0.363  -0.052   0.038
    1UNL     O9   24   0.378  -0.176  -0.029
    1UNL    C15   25   0.287   0.049  -0.055
    1UNL    O10   26   0.380   0.089  -0.157
    1UNL     H1   27   0.322   0.300  -0.186
    1UNL     H2   28   0.169   0.373   0.032
    1UNL     H3   29   0.094   0.274  -0.098
    1UNL     H4   30   0.325   0.199   0.089
    1UNL     H5   31   0.081  -0.027   0.251
    1UNL     H6   32   0.004   0.067  -0.036
    1UNL     H7   33  -0.152  -0.230  -0.259
    1UNL     H8   34  -0.091  -0.313   0.028
    1UNL     H9   35  -0.249  -0.354  -0.049
    1UNL    H10   36  -0.293  -0.194   0.124
    1UNL    H11   37  -0.391  -0.180  -0.143
    1UNL    H12   38  -0.467  -0.123   0.004
    1UNL    H13   39  -0.457   0.081  -0.115
    1UNL    H14   40  -0.233  -0.018  -0.229
    1UNL    H15   41  -0.404   0.214   0.074
    1UNL    H16   42  -0.250   0.298  -0.094
    1UNL    H17   43  -0.123   0.174  -0.142
    1UNL    H18   44  -0.143   0.245   0.138
    1UNL    H19   45  -0.172   0.001   0.166
    1UNL    H20   46   0.281  -0.182   0.207
    1UNL    H21   47   0.397   0.058   0.262
    1UNL    H22   48   0.458  -0.004   0.062
    1UNL    H23   49   0.290  -0.221  -0.019
    1UNL    H24   50   0.206  -0.010  -0.109
    1UNL    H25   51   0.391   0.013  -0.216
   0.00000   0.00000   0.00000   0.00000   0.00000   0.00000   0.00000   0.00000   0.00000
Generated with MDTraj, t= 20.0
 51
    1UNL     O1    1   0.293   0.354  -0.098
    1UNL     C1    2   0.192   0.293  -0.023
    1UNL     C2    3   0.239   0.168   0.047
    1UNL     O2    4   0.136   0.111   0.139
    1UNL     C3    5   0.131  -0.027   0.152
    1UNL     O3    6   0.055  -0.101   0.056
    1UNL     C4    7  -0.037  -0.027  -0.015
    1UNL     O4    8  -0.054  -0.083  -0.144
    1UNL     C5    9  -0.093  -0.223  -0.141
    1UNL    CL1   10   0.051  -0.321  -0.159
    1UNL     C6   11  -0.166  -0.265  -0.012
    1UNL     C7   12  -0.249  -0.154   0.039
    1UNL     C8   13  -0.362  -0.128  -0.060
    1UNL     C9   14  -0.360   0.017  -0.103
    1UNL     O5   15  -0.310   0.033  -0.234
    1UNL    C10   16  -0.264   0.097   0.006
    1UNL     O6   17  -0.345   0.151   0.112
    1UNL    C11   18  -0.196   0.212  -0.072
    1UNL     O7   19  -0.084   0.263  -0.013
    1UNL    C12   20  -0.174  -0.021   0.053
    1UNL    C13   21   0.269  -0.079   0.169
    1UNL     O8   22   0.333  -0.022   0.287
    1UNL    C14   23   0.341  -0.064   0.029
    1UNL     O9   24   0.356  -0.175  -0.059
    1UNL    C15   25   0.288   0.056  -0.056
    1UNL    O10   26   0.390   0.107  -0.149
    1UNL     H1   27   0.333   0.285  -0.161
    1UNL     H2   28   0.166   0.366   0.058
    1UNL     H3   29   0.109   0.284  -0.091
    1UNL     H4   30   0.329   0.183   0.118
    1UNL     H5   31   0.076  -0.034   0.241
    1UNL     H6   32  -0.000   0.077  -0.039
    1UNL     H7   33  -0.149  -0.232  -0.239
    1UNL     H8   34  -0.099  -0.295   0.067
    1UNL     H9   35  -0.223  -0.354  -0.046
    1UNL    H10   36  -0.284  -0.176   0.141
    1UNL    H11   37  -0.347  -0.197  -0.141
    1UNL    H12   38  -0.457  -0.157  -0.010
    1UNL    H13   39  -0.457   0.062  -0.110
    1UNL    H14   40  -0.229  -0.021  -0.244
    1UNL    H15   41  -0.411   0.204   0.076
    1UNL    H16   42  -0.275   0.289  -0.095
    1UNL    H17   43  -0.155   0.185  -0.179
    1UNL    H18   44  -0.109   0.281   0.081
    1UNL    H19   45  -0.163  -0.003   0.165
    1UNL    H20   46   0.267  -0.189   0.188
    1UNL    H21   47   0.258   0.025   0.339
    1UNL    H22   48   0.448  -0.045   0.046
    1UNL    H23   49   0.272  -0.192  -0.111
    1UNL    H24   50   0.212   0.011  -0.127
    1UNL    H25   51   0.416   0.046  -0.217
   0.00000   0.00000   0.00000   0.00000   0.00000   0.00000   0.00000   0.00000   0.00000
Generated with MDTraj, t= 21.0
 51
    1UNL     O1    1   0.316   0.354  -0.067
    1UNL     C1    2   0.205   0.293  -0.007
    1UNL     C2    3   0.234   0.159   0.052
    1UNL     O2    4   0.126   0.116   0.135
    1UNL     C3    5   0.118  -0.027   0.143
    1UNL     O3    6   0.073  -0.093   0.026
    1UNL     C4    7  -0.026  -0.022  -0.042
    1UNL     O4    8  -0.072  -0.092  -0.164
    1UNL     C5    9  -0.091  -0.232  -0.145
    1UNL    CL1   10   0.070  -0.306  -0.150
    1UNL     C6   11  -0.168  -0.265  -0.015
    1UNL     C7   12  -0.241  -0.143   0.049
    1UNL     C8   13  -0.380  -0.123  -0.016
    1UNL     C9   14  -0.366   0.006  -0.090
    1UNL     O5   15  -0.336  -0.011  -0.225
    1UNL    C10   16  -0.263   0.096  -0.016
    1UNL     O6   17  -0.328   0.161   0.093
    1UNL    C11   18  -0.198   0.210  -0.090
    1UNL     O7   19  -0.112   0.282   0.001
    1UNL    C12   20  -0.156  -0.006   0.039
    1UNL    C13   21   0.267  -0.088   0.161
    1UNL     O8   22   0.345  -0.022   0.259
    1UNL    C14   23   0.340  -0.071   0.021
    1UNL     O9   24   0.322  -0.187  -0.052
    1UNL    C15   25   0.284   0.054  -0.051
    1UNL    O10   26   0.391   0.110  -0.124
    1UNL     H1   27   0.381   0.284  -0.076
    1UNL     H2   28   0.160   0.356   0.071
    1UNL     H3   29   0.130   0.263  -0.081
    1UNL     H4   30   0.320   0.169   0.127
    1UNL     H5   31   0.051  -0.045   0.222
    1UNL     H6   32   0.010   0.076  -0.079
    1UNL     H7   33  -0.145  -0.260  -0.238
    1UNL     H8   34  -0.088  -0.305   0.045
    1UNL     H9   35  -0.244  -0.345  -0.026
    1UNL    H10   36  -0.265  -0.161   0.153
    1UNL    H11   37  -0.391  -0.199  -0.088
    1UNL    H12   38  -0.455  -0.137   0.064
    1UNL    H13   39  -0.460   0.059  -0.090
    1UNL    H14   40  -0.239  -0.029  -0.227
    1UNL    H15   41  -0.392   0.217   0.056
    1UNL    H16   42  -0.269   0.285  -0.132
    1UNL    H17   43  -0.135   0.180  -0.185
    1UNL    H18   44  -0.167   0.304   0.078
    1UNL    H19   45  -0.131   0.035   0.139
    1UNL    H20   46   0.271  -0.193   0.189
    1UNL    H21   47   0.299  -0.039   0.347
    1UNL    H22   48   0.448  -0.051   0.026
    1UNL    H23   49   0.228  -0.187  -0.081
    1UNL    H24   50   0.208   0.036  -0.132
    1UNL    H25   51   0.436   0.049  -0.186
   0.00000   0.00000   0.00000   0.00000   0.00000   0.00000   0.00000   0.00000   0.00000
Generated with MDTraj, t= 22.0
 51
    1UNL     O1    1   0.335   0.366  -0.043
    1UNL     C1    2   0.214   0.309  -0.004
    1UNL     C2    3   0.240   0.164   0.051
    1UNL     O2    4   0.127   0.109   0.119
    1UNL     C3    5   0.125  -0.036   0.134
    1UNL     O3    6   0.065  -0.102   0.024
    1UNL     C4    7  -0.037  -0.028  -0.040
    1UNL     O4    8  -0.068  -0.095  -0.167
    1UNL     C5    9  -0.100  -0.236  -0.143
    1UNL    CL1   10   0.051  -0.319  -0.170
    1UNL     C6   11  -0.164  -0.276  -0.007
    1UNL     C7   12  -0.238  -0.153   0.063
    1UNL     C8   13  -0.382  -0.124  -0.010
    1UNL     C9   14  -0.381   0.015  -0.073
    1UNL     O5   15  -0.350   0.002  -0.214
    1UNL    C10   16  -0.272   0.099  -0.008
    1UNL     O6   17  -0.316   0.165   0.113
    1UNL    C11   18  -0.221   0.200  -0.112
    1UNL     O7   19  -0.125   0.287  -0.057
    1UNL    C12   20  -0.164  -0.010   0.048
    1UNL    C13   21   0.267  -0.089   0.159
    1UNL     O8   22   0.322  -0.031   0.279
    1UNL    C14   23   0.350  -0.062   0.031
    1UNL     O9   24   0.373  -0.181  -0.044
    1UNL    C15   25   0.307   0.067  -0.047
    1UNL    O10   26   0.412   0.124  -0.124
    1UNL     H1   27   0.382   0.312  -0.115
    1UNL     H2   28   0.169   0.376   0.068
    1UNL     H3   29   0.147   0.295  -0.089
    1UNL     H4   30   0.318   0.203   0.123
    1UNL     H5   31   0.057  -0.057   0.212
    1UNL     H6   32   0.004   0.071  -0.064
    1UNL     H7   33  -0.169  -0.253  -0.225
    1UNL     H8   34  -0.091  -0.303   0.068
    1UNL     H9   35  -0.224  -0.367  -0.025
    1UNL    H10   36  -0.259  -0.169   0.167
    1UNL    H11   37  -0.387  -0.199  -0.084
    1UNL    H12   38  -0.468  -0.140   0.055
    1UNL    H13   39  -0.473   0.071  -0.052
    1UNL    H14   40  -0.258  -0.033  -0.225
    1UNL    H15   41  -0.370   0.245   0.091
    1UNL    H16   42  -0.304   0.259  -0.154
    1UNL    H17   43  -0.169   0.142  -0.198
    1UNL    H18   44  -0.158   0.311   0.033
    1UNL    H19   45  -0.132   0.025   0.146
    1UNL    H20   46   0.272  -0.194   0.182
    1UNL    H21   47   0.274   0.047   0.295
    1UNL    H22   48   0.453  -0.054   0.071
    1UNL    H23   49   0.291  -0.215  -0.087
    1UNL    H24   50   0.230   0.023  -0.114
    1UNL    H25   51   0.457   0.040  -0.159
   0.00000   0.00000   0.00000   0.00000   0.00000   0.00000   0.00000   0.00000   0.00000
Generated with MDTraj, t= 23.0
 51
    1UNL     O1    1   0.326   0.379  -0.059
    1UNL     C1    2   0.213   0.307  -0.024
    1UNL     C2    3   0.245   0.173   0.057
    1UNL     O2    4   0.125   0.114   0.124
    1UNL     C3    5   0.123  -0.028   0.120
    1UNL     O3    6   0.081  -0.088   0.002
    1UNL     C4    7  -0.028  -0.020  -0.054
    1UNL     O4    8  -0.079  -0.085  -0.171
    1UNL     C5    9  -0.116  -0.222  -0.145
    1UNL    CL1   10   0.021  -0.325  -0.187
    1UNL     C6   11  -0.151  -0.255   0.002
    1UNL     C7   12  -0.226  -0.143   0.077
    1UNL     C8   13  -0.376  -0.129   0.016
    1UNL     C9   14  -0.386   0.001  -0.072
    1UNL     O5   15  -0.358  -0.024  -0.215
    1UNL    C10   16  -0.266   0.085  -0.009
    1UNL     O6   17  -0.317   0.169   0.099
    1UNL    C11   18  -0.209   0.192  -0.104
    1UNL     O7   19  -0.098   0.247  -0.046
    1UNL    C12   20  -0.147  -0.011   0.048
    1UNL    C13   21   0.256  -0.088   0.157
    1UNL     O8   22   0.278  -0.058   0.289
    1UNL    C14   23   0.367  -0.055   0.056
    1UNL     O9   24   0.389  -0.154  -0.041
    1UNL    C15   25   0.321   0.070  -0.029
    1UNL    O10   26   0.427   0.125  -0.112
    1UNL     H1   27   0.398   0.319  -0.084
    1UNL     H2   28   0.147   0.358   0.043
    1UNL     H3   29   0.155   0.283  -0.115
    1UNL     H4   30   0.301   0.215   0.140
    1UNL     H5   31   0.056  -0.068   0.192
    1UNL     H6   32   0.014   0.079  -0.076
    1UNL     H7   33  -0.199  -0.240  -0.207
    1UNL     H8   34  -0.055  -0.275   0.046
    1UNL     H9   35  -0.219  -0.339   0.025
    1UNL    H10   36  -0.237  -0.154   0.182
    1UNL    H11   37  -0.415  -0.217  -0.033
    1UNL    H12   38  -0.436  -0.123   0.103
    1UNL    H13   39  -0.483   0.053  -0.063
    1UNL    H14   40  -0.266  -0.060  -0.219
    1UNL    H15   41  -0.385   0.241   0.068
    1UNL    H16   42  -0.281   0.272  -0.117
    1UNL    H17   43  -0.181   0.144  -0.204
    1UNL    H18   44  -0.124   0.280   0.044
    1UNL    H19   45  -0.106   0.032   0.136
    1UNL    H20   46   0.247  -0.194   0.158
    1UNL    H21   47   0.297   0.033   0.312
    1UNL    H22   48   0.467  -0.034   0.097
    1UNL    H23   49   0.305  -0.205  -0.065
    1UNL    H24   50   0.242   0.050  -0.102
    1UNL    H25   51   0.496   0.055  -0.134
   0.00000   0.00000   0.00000   0.00000   0.00000   0.00000   0.00000   0.00000   0.00000
Generated with MDTraj, t= 24.0
 51
    1UNL     O1    1   0.301   0.356  -0.078
    1UNL     C1    2   0.194   0.296  -0.012
    1UNL     C2    3   0.242   0.175   0.066
    1UNL     O2    4   0.125   0.104   0.119
    1UNL     C3    5   0.120  -0.042   0.123
    1UNL     O3    6   0.082  -0.098  -0.002
    1UNL     C4    7  -0.029  -0.024  -0.060
    1UNL     O4    8  -0.084  -0.096  -0.170
    1UNL     C5    9  -0.113  -0.235  -0.145
    1UNL    CL1   10   0.028  -0.334  -0.210
    1UNL     C6   11  -0.137  -0.265  -0.000
    1UNL     C7   12  -0.217  -0.139   0.068
    1UNL     C8   13  -0.364  -0.115   0.022
    1UNL     C9   14  -0.378   0.013  -0.053
    1UNL     O5   15  -0.377  -0.009  -0.200
    1UNL    C10   16  -0.264   0.100  -0.010
    1UNL     O6   17  -0.301   0.168   0.108
    1UNL    C11   18  -0.226   0.206  -0.115
    1UNL     O7   19  -0.117   0.279  -0.071
    1UNL    C12   20  -0.149   0.004   0.037
    1UNL    C13   21   0.265  -0.093   0.171
    1UNL     O8   22   0.306  -0.027   0.289
    1UNL    C14   23   0.367  -0.059   0.058
    1UNL     O9   24   0.391  -0.164  -0.031
    1UNL    C15   25   0.312   0.073  -0.023
    1UNL    O10   26   0.436   0.125  -0.073
    1UNL     H1   27   0.357   0.285  -0.116
    1UNL     H2   28   0.146   0.366   0.055
    1UNL     H3   29   0.112   0.258  -0.080
    1UNL     H4   30   0.313   0.180   0.146
    1UNL     H5   31   0.050  -0.076   0.197
    1UNL     H6   32   0.021   0.063  -0.099
    1UNL     H7   33  -0.200  -0.261  -0.199
    1UNL     H8   34  -0.048  -0.260   0.060
    1UNL     H9   35  -0.177  -0.367   0.007
    1UNL    H10   36  -0.210  -0.152   0.172
    1UNL    H11   37  -0.399  -0.196  -0.041
    1UNL    H12   38  -0.428  -0.116   0.103
    1UNL    H13   39  -0.476   0.063  -0.030
    1UNL    H14   40  -0.285  -0.031  -0.228
    1UNL    H15   41  -0.362   0.252   0.089
    1UNL    H16   42  -0.310   0.272  -0.132
    1UNL    H17   43  -0.198   0.153  -0.209
    1UNL    H18   44  -0.125   0.316   0.019
    1UNL    H19   45  -0.118   0.045   0.128
    1UNL    H20   46   0.257  -0.192   0.206
    1UNL    H21   47   0.243  -0.050   0.365
    1UNL    H22   48   0.465  -0.040   0.105
    1UNL    H23   49   0.310  -0.185  -0.083
    1UNL    H24   50   0.251   0.036  -0.102
    1UNL    H25   51   0.495   0.052  -0.098
   0.00000   0.00000   0.00000   0.00000   0.00000   0.00000   0.00000   0.00000   0.00000
Generated with MDTraj, t= 25.0
 51
    1UNL     O1    1   0.288   0.383  -0.065
    1UNL     C1    2   0.185   0.290  -0.018
    1UNL     C2    3   0.228   0.159   0.058
    1UNL     O2    4   0.124   0.104   0.129
    1UNL     C3    5   0.118  -0.039   0.131
    1UNL     O3    6   0.088  -0.089   0.000
    1UNL     C4    7  -0.024  -0.025  -0.054
    1UNL     O4    8  -0.073  -0.085  -0.175
    1UNL     C5    9  -0.111  -0.223  -0.158
    1UNL    CL1   10   0.038  -0.325  -0.196
    1UNL     C6   11  -0.157  -0.261  -0.012
    1UNL     C7   12  -0.221  -0.144   0.072
    1UNL     C8   13  -0.363  -0.116   0.030
    1UNL     C9   14  -0.362   0.004  -0.055
    1UNL     O5   15  -0.362  -0.017  -0.199
    1UNL    C10   16  -0.243   0.090  -0.004
    1UNL     O6   17  -0.288   0.170   0.107
    1UNL    C11   18  -0.198   0.188  -0.117
    1UNL     O7   19  -0.119   0.294  -0.065
    1UNL    C12   20  -0.140  -0.011   0.041
    1UNL    C13   21   0.257  -0.088   0.172
    1UNL     O8   22   0.305  -0.024   0.288
    1UNL    C14   23   0.348  -0.072   0.049
    1UNL     O9   24   0.345  -0.178  -0.045
    1UNL    C15   25   0.309   0.057  -0.028
    1UNL    O10   26   0.431   0.120  -0.083
    1UNL     H1   27   0.356   0.321  -0.108
    1UNL     H2   28   0.112   0.350   0.035
    1UNL     H3   29   0.132   0.270  -0.117
    1UNL     H4   30   0.310   0.193   0.117
    1UNL     H5   31   0.043  -0.078   0.200
    1UNL     H6   32   0.011   0.076  -0.069
    1UNL     H7   33  -0.182  -0.252  -0.230
    1UNL     H8   34  -0.065  -0.301   0.027
    1UNL     H9   35  -0.232  -0.338  -0.002
    1UNL    H10   36  -0.211  -0.171   0.173
    1UNL    H11   37  -0.402  -0.202  -0.021
    1UNL    H12   38  -0.427  -0.106   0.110
    1UNL    H13   39  -0.458   0.061  -0.038
    1UNL    H14   40  -0.273  -0.046  -0.226
    1UNL    H15   41  -0.350   0.240   0.062
    1UNL    H16   42  -0.283   0.234  -0.163
    1UNL    H17   43  -0.141   0.146  -0.200
    1UNL    H18   44  -0.145   0.325   0.026
    1UNL    H19   45  -0.108   0.036   0.129
    1UNL    H20   46   0.256  -0.193   0.185
    1UNL    H21   47   0.272   0.074   0.286
    1UNL    H22   48   0.451  -0.072   0.090
    1UNL    H23   49   0.253  -0.209  -0.057
    1UNL    H24   50   0.248   0.030  -0.111
    1UNL    H25   51   0.490   0.061  -0.126
   0.00000   0.00000   0.00000   0.00000   0.00000   0.00000   0.00000   0.00000   0.00000
Generated with MDTraj, t= 26.0
 51
    1UNL     O1    1   0.315   0.372  -0.063
    1UNL     C1    2   0.200   0.298  -0.016
    1UNL     C2    3   0.233   0.165   0.054
    1UNL     O2    4   0.118   0.104   0.130
    1UNL     C3    5   0.118  -0.037   0.139
    1UNL     O3    6   0.064  -0.102   0.025
    1UNL     C4    7  -0.029  -0.015  -0.035
    1UNL     O4    8  -0.071  -0.074  -0.159
    1UNL     C5    9  -0.100  -0.214  -0.140
    1UNL    CL1   10   0.055  -0.312  -0.172
    1UNL     C6   11  -0.155  -0.255  -0.003
    1UNL     C7   12  -0.230  -0.145   0.062
    1UNL     C8   13  -0.370  -0.132   0.001
    1UNL     C9   14  -0.383   0.004  -0.077
    1UNL     O5   15  -0.356  -0.012  -0.214
    1UNL    C10   16  -0.264   0.098  -0.007
    1UNL     O6   17  -0.331   0.170   0.102
    1UNL    C11   18  -0.196   0.191  -0.112
    1UNL     O7   19  -0.085   0.253  -0.052
    1UNL    C12   20  -0.157  -0.003   0.046
    1UNL    C13   21   0.266  -0.094   0.157
    1UNL     O8   22   0.325  -0.042   0.281
    1UNL    C14   23   0.348  -0.068   0.026
    1UNL     O9   24   0.354  -0.176  -0.061
    1UNL    C15   25   0.295   0.065  -0.043
    1UNL    O10   26   0.405   0.122  -0.114
    1UNL     H1   27   0.378   0.301  -0.072
    1UNL     H2   28   0.155   0.363   0.057
    1UNL     H3   29   0.122   0.290  -0.098
    1UNL     H4   30   0.294   0.185   0.140
    1UNL     H5   31   0.056  -0.075   0.224
    1UNL     H6   32   0.016   0.082  -0.048
    1UNL     H7   33  -0.166  -0.251  -0.216
    1UNL     H8   34  -0.075  -0.283   0.064
    1UNL     H9   35  -0.209  -0.345  -0.024
    1UNL    H10   36  -0.221  -0.161   0.166
    1UNL    H11   37  -0.404  -0.215  -0.055
    1UNL    H12   38  -0.434  -0.125   0.085
    1UNL    H13   39  -0.481   0.058  -0.065
    1UNL    H14   40  -0.262  -0.043  -0.222
    1UNL    H15   41  -0.378   0.249   0.065
    1UNL    H16   42  -0.257   0.265  -0.161
    1UNL    H17   43  -0.152   0.143  -0.196
    1UNL    H18   44  -0.101   0.260   0.046
    1UNL    H19   45  -0.133   0.035   0.141
    1UNL    H20   46   0.279  -0.201   0.159
    1UNL    H21   47   0.275   0.032   0.331
    1UNL    H22   48   0.451  -0.047   0.057
    1UNL    H23   49   0.262  -0.213  -0.069
    1UNL    H24   50   0.207   0.042  -0.100
    1UNL    H25   51   0.457   0.047  -0.146
   0.00000   0.00000   0.00000   0.00000   0.00000   0.00000   0.00000   0.00000   0.00000
Generated with MDTraj, t= 27.0
 51
    1UNL     O1    1   0.322   0.360  -0.074
    1UNL     C1    2   0.219   0.313   0.005
    1UNL     C2    3   0.256   0.172   0.059
    1UNL     O2    4   0.152   0.114   0.138
    1UNL     C3    5   0.135  -0.029   0.145
    1UNL     O3    6   0.067  -0.092   0.032
    1UNL     C4    7  -0.048  -0.027  -0.031
    1UNL     O4    8  -0.073  -0.096  -0.164
    1UNL     C5    9  -0.098  -0.235  -0.143
    1UNL    CL1   10   0.070  -0.303  -0.144
    1UNL     C6   11  -0.179  -0.269  -0.014
    1UNL     C7   12  -0.261  -0.148   0.048
    1UNL     C8   13  -0.388  -0.126  -0.036
    1UNL     C9   14  -0.379   0.015  -0.094
    1UNL     O5   15  -0.343   0.004  -0.232
    1UNL    C10   16  -0.271   0.095  -0.009
    1UNL     O6   17  -0.337   0.158   0.103
    1UNL    C11   18  -0.215   0.198  -0.097
    1UNL     O7   19  -0.118   0.275  -0.028
    1UNL    C12   20  -0.177  -0.010   0.051
    1UNL    C13   21   0.281  -0.097   0.156
    1UNL     O8   22   0.346  -0.055   0.276
    1UNL    C14   23   0.363  -0.065   0.030
    1UNL     O9   24   0.361  -0.169  -0.057
    1UNL    C15   25   0.294   0.062  -0.043
    1UNL    O10   26   0.373   0.109  -0.148
    1UNL     H1   27   0.354   0.288  -0.138
    1UNL     H2   28   0.191   0.391   0.073
    1UNL     H3   29   0.134   0.303  -0.070
    1UNL     H4   30   0.350   0.183   0.116
    1UNL     H5   31   0.067  -0.050   0.233
    1UNL     H6   32  -0.016   0.074  -0.049
    1UNL     H7   33  -0.150  -0.279  -0.230
    1UNL     H8   34  -0.090  -0.292   0.046
    1UNL     H9   35  -0.237  -0.359  -0.016
    1UNL    H10   36  -0.297  -0.172   0.144
    1UNL    H11   37  -0.393  -0.192  -0.115
    1UNL    H12   38  -0.476  -0.144   0.024
    1UNL    H13   39  -0.478   0.069  -0.087
    1UNL    H14   40  -0.249  -0.020  -0.226
    1UNL    H15   41  -0.395   0.227   0.073
    1UNL    H16   42  -0.290   0.263  -0.136
    1UNL    H17   43  -0.167   0.165  -0.183
    1UNL    H18   44  -0.143   0.264   0.066
    1UNL    H19   45  -0.157   0.020   0.151
    1UNL    H20   46   0.255  -0.203   0.156
    1UNL    H21   47   0.323   0.036   0.296
    1UNL    H22   48   0.467  -0.040   0.049
    1UNL    H23   49   0.275  -0.212  -0.066
    1UNL    H24   50   0.203   0.013  -0.078
    1UNL    H25   51   0.388   0.027  -0.205
   0.00000   0.00000   0.00000   0.00000   0.00000   0.00000   0.00000   0.00000   0.00000
Generated with MDTraj, t= 28.0
 51
    1UNL     O1    1   0.310   0.360  -0.083
    1UNL     C1    2   0.199   0.286  -0.039
    1UNL     C2    3   0.232   0.160   0.038
    1UNL     O2    4   0.124   0.112   0.119
    1UNL     C3    5   0.118  -0.032   0.148
    1UNL     O3    6   0.048  -0.109   0.055
    1UNL     C4    7  -0.036  -0.022  -0.018
    1UNL     O4    8  -0.046  -0.080  -0.148
    1UNL     C5    9  -0.079  -0.222  -0.141
    1UNL    CL1   10   0.075  -0.310  -0.134
    1UNL     C6   11  -0.155  -0.259  -0.012
    1UNL     C7   12  -0.248  -0.142   0.039
    1UNL     C8   13  -0.381  -0.120  -0.048
    1UNL     C9   14  -0.365   0.018  -0.108
    1UNL     O5   15  -0.298   0.007  -0.235
    1UNL    C10   16  -0.278   0.100  -0.004
    1UNL     O6   17  -0.353   0.155   0.107
    1UNL    C11   18  -0.211   0.219  -0.067
    1UNL     O7   19  -0.130   0.292   0.032
    1UNL    C12   20  -0.172  -0.011   0.049
    1UNL    C13   21   0.262  -0.085   0.148
    1UNL     O8   22   0.331  -0.052   0.268
    1UNL    C14   23   0.346  -0.067   0.016
    1UNL     O9   24   0.362  -0.182  -0.061
    1UNL    C15   25   0.288   0.051  -0.064
    1UNL    O10   26   0.391   0.096  -0.157
    1UNL     H1   27   0.387   0.303  -0.098
    1UNL     H2   28   0.138   0.346   0.023
    1UNL     H3   29   0.144   0.267  -0.135
    1UNL     H4   30   0.323   0.184   0.099
    1UNL     H5   31   0.083  -0.040   0.259
    1UNL     H6   32   0.004   0.077  -0.024
    1UNL     H7   33  -0.144  -0.243  -0.231
    1UNL     H8   34  -0.086  -0.282   0.069
    1UNL     H9   35  -0.202  -0.351  -0.035
    1UNL    H10   36  -0.291  -0.161   0.136
    1UNL    H11   37  -0.386  -0.194  -0.119
    1UNL    H12   38  -0.474  -0.118   0.008
    1UNL    H13   39  -0.469   0.056  -0.122
    1UNL    H14   40  -0.206  -0.026  -0.212
    1UNL    H15   41  -0.423   0.206   0.077
    1UNL    H16   42  -0.283   0.284  -0.109
    1UNL    H17   43  -0.150   0.190  -0.145
    1UNL    H18   44  -0.174   0.279   0.119
    1UNL    H19   45  -0.148   0.012   0.151
    1UNL    H20   46   0.255  -0.196   0.153
    1UNL    H21   47   0.347   0.041   0.275
    1UNL    H22   48   0.447  -0.040   0.045
    1UNL    H23   49   0.279  -0.232  -0.078
    1UNL    H24   50   0.193   0.024  -0.114
    1UNL    H25   51   0.443   0.033  -0.218
   0.00000   0.00000   0.00000   0.00000   0.00000   0.00000   0.00000   0.00000   0.00000
Generated with MDTraj, t= 29.0
 51
    1UNL     O1    1   0.273   0.341  -0.125
    1UNL     C1    2   0.172   0.272  -0.055
    1UNL     C2    3   0.236   0.162   0.026
    1UNL     O2    4   0.146   0.115   0.129
    1UNL     C3    5   0.134  -0.026   0.154
    1UNL     O3    6   0.063  -0.098   0.056
    1UNL     C4    7  -0.038  -0.025  -0.009
    1UNL     O4    8  -0.052  -0.077  -0.143
    1UNL     C5    9  -0.088  -0.217  -0.141
    1UNL    CL1   10   0.057  -0.313  -0.149
    1UNL     C6   11  -0.161  -0.267  -0.021
    1UNL     C7   12  -0.265  -0.159   0.025
    1UNL     C8   13  -0.362  -0.124  -0.088
    1UNL     C9   14  -0.360   0.031  -0.114
    1UNL     O5   15  -0.299   0.058  -0.241
    1UNL    C10   16  -0.270   0.093   0.002
    1UNL     O6   17  -0.352   0.139   0.105
    1UNL    C11   18  -0.191   0.218  -0.047
    1UNL     O7   19  -0.120   0.279   0.058
    1UNL    C12   20  -0.182  -0.029   0.054
    1UNL    C13   21   0.276  -0.080   0.173
    1UNL     O8   22   0.350  -0.013   0.273
    1UNL    C14   23   0.358  -0.068   0.038
    1UNL     O9   24   0.358  -0.186  -0.032
    1UNL    C15   25   0.297   0.045  -0.056
    1UNL    O10   26   0.392   0.089  -0.152
    1UNL     H1   27   0.321   0.266  -0.171
    1UNL     H2   28   0.135   0.340   0.016
    1UNL     H3   29   0.087   0.227  -0.112
    1UNL     H4   30   0.321   0.206   0.087
    1UNL     H5   31   0.073  -0.036   0.252
    1UNL     H6   32   0.007   0.072  -0.014
    1UNL     H7   33  -0.155  -0.222  -0.233
    1UNL     H8   34  -0.080  -0.284   0.050
    1UNL     H9   35  -0.202  -0.363  -0.040
    1UNL    H10   36  -0.333  -0.187   0.106
    1UNL    H11   37  -0.337  -0.167  -0.182
    1UNL    H12   38  -0.458  -0.158  -0.056
    1UNL    H13   39  -0.460   0.074  -0.118
    1UNL    H14   40  -0.215   0.008  -0.234
    1UNL    H15   41  -0.422   0.189   0.071
    1UNL    H16   42  -0.261   0.297  -0.065
    1UNL    H17   43  -0.135   0.190  -0.129
    1UNL    H18   44  -0.179   0.300   0.136
    1UNL    H19   45  -0.157  -0.028   0.160
    1UNL    H20   46   0.263  -0.190   0.198
    1UNL    H21   47   0.342   0.080   0.254
    1UNL    H22   48   0.462  -0.042   0.063
    1UNL    H23   49   0.267  -0.222  -0.058
    1UNL    H24   50   0.198  -0.004  -0.084
    1UNL    H25   51   0.424   0.013  -0.203
   0.00000   0.00000   0.00000   0.00000   0.00000   0.00000   0.00000   0.00000   0.00000
Generated with MDTraj, t= 30.0
 51
    1UNL     O1    1   0.255   0.305  -0.173
    1UNL     C1    2   0.163   0.266  -0.075
    1UNL     C2    3   0.224   0.165   0.025
    1UNL     O2    4   0.125   0.121   0.119
    1UNL     C3    5   0.122  -0.020   0.156
    1UNL     O3    6   0.059  -0.100   0.063
    1UNL     C4    7  -0.037  -0.034  -0.018
    1UNL     O4    8  -0.047  -0.078  -0.158
    1UNL     C5    9  -0.076  -0.222  -0.166
    1UNL    CL1   10   0.082  -0.313  -0.166
    1UNL     C6   11  -0.171  -0.271  -0.053
    1UNL     C7   12  -0.268  -0.158   0.015
    1UNL     C8   13  -0.380  -0.109  -0.077
    1UNL     C9   14  -0.350   0.048  -0.099
    1UNL     O5   15  -0.279   0.058  -0.229
    1UNL    C10   16  -0.260   0.102   0.018
    1UNL     O6   17  -0.340   0.118   0.126
    1UNL    C11   18  -0.184   0.236  -0.010
    1UNL     O7   19  -0.094   0.285   0.082
    1UNL    C12   20  -0.180  -0.032   0.047
    1UNL    C13   21   0.265  -0.064   0.181
    1UNL     O8   22   0.326   0.009   0.289
    1UNL    C14   23   0.351  -0.062   0.048
    1UNL     O9   24   0.357  -0.190  -0.002
    1UNL    C15   25   0.279   0.035  -0.053
    1UNL    O10   26   0.380   0.071  -0.146
    1UNL     H1   27   0.293   0.225  -0.212
    1UNL     H2   28   0.121   0.350  -0.027
    1UNL     H3   29   0.084   0.211  -0.133
    1UNL     H4   30   0.317   0.217   0.071
    1UNL     H5   31   0.062  -0.022   0.254
    1UNL     H6   32   0.005   0.066  -0.028
    1UNL     H7   33  -0.127  -0.228  -0.268
    1UNL     H8   34  -0.110  -0.310   0.028
    1UNL     H9   35  -0.223  -0.356  -0.091
    1UNL    H10   36  -0.307  -0.196   0.112
    1UNL    H11   37  -0.371  -0.171  -0.166
    1UNL    H12   38  -0.474  -0.114  -0.028
    1UNL    H13   39  -0.440   0.105  -0.111
    1UNL    H14   40  -0.193   0.009  -0.219
    1UNL    H15   41  -0.374   0.207   0.147
    1UNL    H16   42  -0.269   0.305  -0.006
    1UNL    H17   43  -0.141   0.229  -0.104
    1UNL    H18   44  -0.010   0.235   0.097
    1UNL    H19   45  -0.157  -0.023   0.154
    1UNL    H20   46   0.257  -0.174   0.215
    1UNL    H21   47   0.329   0.108   0.265
    1UNL    H22   48   0.446  -0.006   0.053
    1UNL    H23   49   0.270  -0.221  -0.037
    1UNL    H24   50   0.186  -0.012  -0.100
    1UNL    H25   51   0.426  -0.011  -0.155
   0.00000   0.00000   0.00000   0.00000   0.00000   0.00000   0.00000   0.00000   0.00000
Generated with MDTraj, t= 31.0
 51
    1UNL     O1    1   0.277   0.298  -0.181
    1UNL     C1    2   0.174   0.235  -0.112
    1UNL     C2    3   0.225   0.147  -0.002
    1UNL     O2    4   0.125   0.125   0.105
    1UNL     C3    5   0.113  -0.013   0.146
    1UNL     O3    6   0.066  -0.090   0.038
    1UNL     C4    7  -0.037  -0.021  -0.036
    1UNL     O4    8  -0.060  -0.071  -0.164
    1UNL     C5    9  -0.073  -0.215  -0.170
    1UNL    CL1   10   0.084  -0.296  -0.158
    1UNL     C6   11  -0.155  -0.270  -0.055
    1UNL     C7   12  -0.251  -0.154   0.005
    1UNL     C8   13  -0.362  -0.107  -0.095
    1UNL     C9   14  -0.357   0.045  -0.092
    1UNL     O5   15  -0.303   0.085  -0.221
    1UNL    C10   16  -0.266   0.093   0.029
    1UNL     O6   17  -0.348   0.105   0.156
    1UNL    C11   18  -0.203   0.233   0.003
    1UNL     O7   19  -0.128   0.279   0.120
    1UNL    C12   20  -0.166  -0.029   0.046
    1UNL    C13   21   0.249  -0.060   0.189
    1UNL     O8   22   0.301   0.031   0.291
    1UNL    C14   23   0.351  -0.064   0.066
    1UNL     O9   24   0.364  -0.197   0.016
    1UNL    C15   25   0.304   0.018  -0.051
    1UNL    O10   26   0.393   0.044  -0.160
    1UNL     H1   27   0.354   0.234  -0.176
    1UNL     H2   28   0.115   0.312  -0.068
    1UNL     H3   29   0.114   0.183  -0.192
    1UNL     H4   30   0.312   0.210   0.041
    1UNL     H5   31   0.043  -0.017   0.237
    1UNL     H6   32   0.001   0.083  -0.046
    1UNL     H7   33  -0.115  -0.237  -0.272
    1UNL     H8   34  -0.083  -0.310   0.017
    1UNL     H9   35  -0.218  -0.353  -0.078
    1UNL    H10   36  -0.296  -0.207   0.094
    1UNL    H11   37  -0.343  -0.143  -0.199
    1UNL    H12   38  -0.457  -0.137  -0.057
    1UNL    H13   39  -0.454   0.089  -0.082
    1UNL    H14   40  -0.215   0.044  -0.223
    1UNL    H15   41  -0.277   0.129   0.229
    1UNL    H16   42  -0.283   0.307  -0.017
    1UNL    H17   43  -0.144   0.221  -0.082
    1UNL    H18   44  -0.032   0.252   0.123
    1UNL    H19   45  -0.132  -0.052   0.151
    1UNL    H20   46   0.248  -0.171   0.225
    1UNL    H21   47   0.288   0.126   0.265
    1UNL    H22   48   0.455  -0.040   0.095
    1UNL    H23   49   0.285  -0.243  -0.018
    1UNL    H24   50   0.220  -0.050  -0.086
    1UNL    H25   51   0.476  -0.007  -0.149
   0.00000   0.00000   0.00000   0.00000   0.00000   0.00000   0.00000   0.00000   0.00000
Generated with MDTraj, t= 32.0
 51
    1UNL     O1    1   0.324   0.271  -0.219
    1UNL     C1    2   0.221   0.243  -0.126
    1UNL     C2    3   0.260   0.160  -0.012
    1UNL     O2    4   0.146   0.141   0.084
    1UNL     C3    5   0.119   0.013   0.128
    1UNL     O3    6   0.056  -0.078   0.030
    1UNL     C4    7  -0.056  -0.020  -0.032
    1UNL     O4    8  -0.075  -0.064  -0.167
    1UNL     C5    9  -0.084  -0.206  -0.168
    1UNL    CL1   10   0.081  -0.271  -0.151
    1UNL     C6   11  -0.167  -0.267  -0.055
    1UNL     C7   12  -0.266  -0.164   0.002
    1UNL     C8   13  -0.362  -0.116  -0.102
    1UNL     C9   14  -0.366   0.036  -0.089
    1UNL     O5   15  -0.309   0.096  -0.212
    1UNL    C10   16  -0.291   0.076   0.045
    1UNL     O6   17  -0.385   0.081   0.154
    1UNL    C11   18  -0.222   0.214   0.022
    1UNL     O7   19  -0.149   0.243   0.142
    1UNL    C12   20  -0.187  -0.042   0.062
    1UNL    C13   21   0.255  -0.047   0.182
    1UNL     O8   22   0.297   0.028   0.301
    1UNL    C14   23   0.358  -0.063   0.062
    1UNL     O9   24   0.362  -0.205   0.023
    1UNL    C15   25   0.324   0.024  -0.055
    1UNL    O10   26   0.433   0.038  -0.143
    1UNL     H1   27   0.371   0.184  -0.224
    1UNL     H2   28   0.181   0.337  -0.098
    1UNL     H3   29   0.140   0.185  -0.180
    1UNL     H4   30   0.337   0.217   0.050
    1UNL     H5   31   0.045   0.015   0.212
    1UNL     H6   32  -0.050   0.091  -0.041
    1UNL     H7   33  -0.122  -0.249  -0.262
    1UNL     H8   34  -0.105  -0.288   0.032
    1UNL     H9   35  -0.211  -0.360  -0.087
    1UNL    H10   36  -0.317  -0.215   0.091
    1UNL    H11   37  -0.324  -0.137  -0.206
    1UNL    H12   38  -0.457  -0.163  -0.098
    1UNL    H13   39  -0.466   0.072  -0.092
    1UNL    H14   40  -0.224   0.046  -0.221
    1UNL    H15   41  -0.329   0.136   0.224
    1UNL    H16   42  -0.301   0.294   0.008
    1UNL    H17   43  -0.157   0.221  -0.062
    1UNL    H18   44  -0.052   0.230   0.129
    1UNL    H19   45  -0.166  -0.049   0.174
    1UNL    H20   46   0.213  -0.148   0.224
    1UNL    H21   47   0.317   0.118   0.277
    1UNL    H22   48   0.458  -0.027   0.097
    1UNL    H23   49   0.272  -0.238  -0.008
    1UNL    H24   50   0.239  -0.022  -0.109
    1UNL    H25   51   0.500  -0.039  -0.134
   0.00000   0.00000   0.00000   0.00000   0.00000   0.00000   0.00000   0.00000   0.00000
Generated with MDTraj, t= 33.0
 51
    1UNL     O1    1   0.361   0.257  -0.217
    1UNL     C1    2   0.240   0.238  -0.149
    1UNL     C2    3   0.269   0.154  -0.025
    1UNL     O2    4   0.148   0.146   0.056
    1UNL     C3    5   0.115   0.031   0.125
    1UNL     O3    6   0.057  -0.064   0.032
    1UNL     C4    7  -0.057  -0.006  -0.031
    1UNL     O4    8  -0.062  -0.054  -0.168
    1UNL     C5    9  -0.065  -0.198  -0.182
    1UNL    CL1   10   0.100  -0.269  -0.159
    1UNL     C6   11  -0.163  -0.259  -0.074
    1UNL     C7   12  -0.260  -0.161  -0.003
    1UNL     C8   13  -0.389  -0.121  -0.082
    1UNL     C9   14  -0.385   0.032  -0.083
    1UNL     O5   15  -0.320   0.083  -0.193
    1UNL    C10   16  -0.303   0.079   0.050
    1UNL     O6   17  -0.394   0.057   0.158
    1UNL    C11   18  -0.251   0.221   0.053
    1UNL     O7   19  -0.168   0.246   0.157
    1UNL    C12   20  -0.192  -0.028   0.048
    1UNL    C13   21   0.241  -0.046   0.186
    1UNL     O8   22   0.301   0.029   0.288
    1UNL    C14   23   0.354  -0.069   0.070
    1UNL     O9   24   0.352  -0.208   0.042
    1UNL    C15   25   0.319   0.009  -0.062
    1UNL    O10   26   0.439   0.026  -0.132
    1UNL     H1   27   0.402   0.172  -0.236
    1UNL     H2   28   0.204   0.334  -0.118
    1UNL     H3   29   0.165   0.193  -0.222
    1UNL     H4   30   0.356   0.203   0.028
    1UNL     H5   31   0.044   0.058   0.204
    1UNL     H6   32  -0.033   0.102  -0.049
    1UNL     H7   33  -0.093  -0.237  -0.277
    1UNL     H8   34  -0.103  -0.312  -0.001
    1UNL     H9   35  -0.235  -0.328  -0.119
    1UNL    H10   36  -0.301  -0.211   0.094
    1UNL    H11   37  -0.406  -0.159  -0.186
    1UNL    H12   38  -0.478  -0.149  -0.032
    1UNL    H13   39  -0.473   0.093  -0.073
    1UNL    H14   40  -0.235   0.033  -0.189
    1UNL    H15   41  -0.353   0.093   0.236
    1UNL    H16   42  -0.333   0.299   0.063
    1UNL    H17   43  -0.198   0.252  -0.038
    1UNL    H18   44  -0.080   0.204   0.142
    1UNL    H19   45  -0.156  -0.037   0.157
    1UNL    H20   46   0.207  -0.149   0.229
    1UNL    H21   47   0.324   0.122   0.266
    1UNL    H22   48   0.459  -0.047   0.106
    1UNL    H23   49   0.259  -0.227   0.014
    1UNL    H24   50   0.249  -0.049  -0.122
    1UNL    H25   51   0.511  -0.041  -0.108
   0.00000   0.00000   0.00000   0.00000   0.00000   0.00000   0.00000   0.00000   0.00000
Generated with MDTraj, t= 34.0
 51
    1UNL     O1    1   0.361   0.257  -0.208
    1UNL     C1    2   0.238   0.223  -0.147
    1UNL     C2    3   0.259   0.148  -0.009
    1UNL     O2    4   0.139   0.149   0.077
    1UNL     C3    5   0.113   0.026   0.127
    1UNL     O3    6   0.065  -0.070   0.023
    1UNL     C4    7  -0.053  -0.018  -0.035
    1UNL     O4    8  -0.080  -0.050  -0.169
    1UNL     C5    9  -0.076  -0.194  -0.171
    1UNL    CL1   10   0.088  -0.236  -0.182
    1UNL     C6   11  -0.154  -0.270  -0.066
    1UNL     C7   12  -0.252  -0.177  -0.004
    1UNL     C8   13  -0.370  -0.127  -0.095
    1UNL     C9   14  -0.383   0.027  -0.073
    1UNL     O5   15  -0.342   0.104  -0.183
    1UNL    C10   16  -0.288   0.065   0.043
    1UNL     O6   17  -0.360   0.059   0.164
    1UNL    C11   18  -0.233   0.205   0.030
    1UNL     O7   19  -0.154   0.252   0.137
    1UNL    C12   20  -0.177  -0.054   0.048
    1UNL    C13   21   0.243  -0.023   0.193
    1UNL     O8   22   0.303   0.067   0.282
    1UNL    C14   23   0.340  -0.073   0.084
    1UNL     O9   24   0.347  -0.214   0.068
    1UNL    C15   25   0.311   0.001  -0.049
    1UNL    O10   26   0.418  -0.010  -0.140
    1UNL     H1   27   0.417   0.172  -0.210
    1UNL     H2   28   0.194   0.319  -0.126
    1UNL     H3   29   0.164   0.167  -0.214
    1UNL     H4   30   0.341   0.204   0.039
    1UNL     H5   31   0.042   0.032   0.209
    1UNL     H6   32  -0.030   0.091  -0.034
    1UNL     H7   33  -0.113  -0.213  -0.268
    1UNL     H8   34  -0.082  -0.289   0.014
    1UNL     H9   35  -0.199  -0.362  -0.106
    1UNL    H10   36  -0.301  -0.238   0.085
    1UNL    H11   37  -0.346  -0.147  -0.200
    1UNL    H12   38  -0.464  -0.181  -0.093
    1UNL    H13   39  -0.488   0.040  -0.049
    1UNL    H14   40  -0.257   0.058  -0.206
    1UNL    H15   41  -0.309   0.106   0.224
    1UNL    H16   42  -0.310   0.288   0.008
    1UNL    H17   43  -0.172   0.218  -0.064
    1UNL    H18   44  -0.056   0.231   0.128
    1UNL    H19   45  -0.137  -0.065   0.157
    1UNL    H20   46   0.220  -0.120   0.252
    1UNL    H21   47   0.278   0.164   0.268
    1UNL    H22   48   0.444  -0.047   0.117
    1UNL    H23   49   0.283  -0.229  -0.002
    1UNL    H24   50   0.232  -0.054  -0.097
    1UNL    H25   51   0.492  -0.063  -0.109
   0.00000   0.00000   0.00000   0.00000   0.00000   0.00000   0.00000   0.00000   0.00000
Generated with MDTraj, t= 35.0
 51
    1UNL     O1    1   0.333   0.250  -0.224
    1UNL     C1    2   0.221   0.239  -0.140
    1UNL     C2    3   0.254   0.153  -0.017
    1UNL     O2    4   0.145   0.155   0.083
    1UNL     C3    5   0.106   0.026   0.140
    1UNL     O3    6   0.062  -0.068   0.038
    1UNL     C4    7  -0.043  -0.009  -0.026
    1UNL     O4    8  -0.046  -0.041  -0.170
    1UNL     C5    9  -0.063  -0.188  -0.184
    1UNL    CL1   10   0.098  -0.255  -0.209
    1UNL     C6   11  -0.135  -0.253  -0.063
    1UNL     C7   12  -0.243  -0.173   0.014
    1UNL     C8   13  -0.380  -0.126  -0.061
    1UNL     C9   14  -0.377   0.027  -0.071
    1UNL     O5   15  -0.324   0.073  -0.194
    1UNL    C10   16  -0.282   0.070   0.042
    1UNL     O6   17  -0.360   0.068   0.164
    1UNL    C11   18  -0.223   0.212   0.023
    1UNL     O7   19  -0.139   0.253   0.133
    1UNL    C12   20  -0.174  -0.038   0.054
    1UNL    C13   21   0.232  -0.039   0.206
    1UNL     O8   22   0.275   0.053   0.295
    1UNL    C14   23   0.335  -0.077   0.088
    1UNL     O9   24   0.319  -0.212   0.047
    1UNL    C15   25   0.307   0.007  -0.046
    1UNL    O10   26   0.411  -0.008  -0.134
    1UNL     H1   27   0.378   0.165  -0.222
    1UNL     H2   28   0.183   0.336  -0.111
    1UNL     H3   29   0.137   0.189  -0.198
    1UNL     H4   30   0.330   0.212   0.032
    1UNL     H5   31   0.030   0.034   0.215
    1UNL     H6   32  -0.009   0.097  -0.021
    1UNL     H7   33  -0.117  -0.196  -0.276
    1UNL     H8   34  -0.057  -0.284   0.007
    1UNL     H9   35  -0.186  -0.340  -0.110
    1UNL    H10   36  -0.276  -0.246   0.103
    1UNL    H11   37  -0.385  -0.163  -0.162
    1UNL    H12   38  -0.472  -0.163  -0.014
    1UNL    H13   39  -0.475   0.084  -0.072
    1UNL    H14   40  -0.244   0.028  -0.229
    1UNL    H15   41  -0.304   0.089   0.236
    1UNL    H16   42  -0.308   0.291   0.033
    1UNL    H17   43  -0.180   0.244  -0.077
    1UNL    H18   44  -0.049   0.213   0.122
    1UNL    H19   45  -0.138  -0.037   0.163
    1UNL    H20   46   0.196  -0.129   0.267
    1UNL    H21   47   0.245   0.140   0.264
    1UNL    H22   48   0.434  -0.051   0.135
    1UNL    H23   49   0.230  -0.212   0.008
    1UNL    H24   50   0.226  -0.048  -0.088
    1UNL    H25   51   0.452  -0.093  -0.118
   0.00000   0.00000   0.00000   0.00000   0.00000   0.00000   0.00000   0.00000   0.00000
Generated with MDTraj, t= 36.0
 51
    1UNL     O1    1   0.294   0.255  -0.220
    1UNL     C1    2   0.195   0.224  -0.122
    1UNL     C2    3   0.259   0.155  -0.004
    1UNL     O2    4   0.159   0.142   0.099
    1UNL     C3    5   0.130   0.008   0.142
    1UNL     O3    6   0.069  -0.069   0.042
    1UNL     C4    7  -0.038  -0.009  -0.020
    1UNL     O4    8  -0.063  -0.048  -0.157
    1UNL     C5    9  -0.069  -0.193  -0.174
    1UNL    CL1   10   0.084  -0.263  -0.200
    1UNL     C6   11  -0.139  -0.259  -0.048
    1UNL     C7   12  -0.251  -0.165   0.009
    1UNL     C8   13  -0.377  -0.124  -0.075
    1UNL     C9   14  -0.380   0.033  -0.089
    1UNL     O5   15  -0.321   0.077  -0.211
    1UNL    C10   16  -0.289   0.084   0.031
    1UNL     O6   17  -0.370   0.082   0.151
    1UNL    C11   18  -0.235   0.218   0.007
    1UNL     O7   19  -0.175   0.273   0.122
    1UNL    C12   20  -0.176  -0.028   0.054
    1UNL    C13   21   0.254  -0.055   0.200
    1UNL     O8   22   0.316   0.031   0.286
    1UNL    C14   23   0.344  -0.081   0.073
    1UNL     O9   24   0.348  -0.220   0.038
    1UNL    C15   25   0.316   0.017  -0.050
    1UNL    O10   26   0.436   0.027  -0.106
    1UNL     H1   27   0.361   0.183  -0.222
    1UNL     H2   28   0.143   0.315  -0.099
    1UNL     H3   29   0.121   0.156  -0.174
    1UNL     H4   30   0.339   0.212   0.037
    1UNL     H5   31   0.061   0.027   0.221
    1UNL     H6   32  -0.006   0.096  -0.038
    1UNL     H7   33  -0.137  -0.218  -0.257
    1UNL     H8   34  -0.059  -0.269   0.025
    1UNL     H9   35  -0.178  -0.360  -0.070
    1UNL    H10   36  -0.272  -0.214   0.115
    1UNL    H11   37  -0.368  -0.167  -0.172
    1UNL    H12   38  -0.468  -0.162  -0.025
    1UNL    H13   39  -0.480   0.084  -0.073
    1UNL    H14   40  -0.235   0.033  -0.233
    1UNL    H15   41  -0.314   0.111   0.233
    1UNL    H16   42  -0.315   0.291  -0.032
    1UNL    H17   43  -0.157   0.207  -0.076
    1UNL    H18   44  -0.091   0.226   0.134
    1UNL    H19   45  -0.142  -0.027   0.162
    1UNL    H20   46   0.235  -0.158   0.248
    1UNL    H21   47   0.297   0.124   0.263
    1UNL    H22   48   0.446  -0.055   0.106
    1UNL    H23   49   0.277  -0.233  -0.032
    1UNL    H24   50   0.254  -0.040  -0.117
    1UNL    H25   51   0.472  -0.061  -0.136
   0.00000   0.00000   0.00000   0.00000   0.00000   0.00000   0.00000   0.00000   0.00000
Generated with MDTraj, t= 37.0
 51
    1UNL     O1    1   0.288   0.271  -0.216
    1UNL     C1    2   0.185   0.218  -0.136
    1UNL     C2    3   0.242   0.143  -0.004
    1UNL     O2    4   0.138   0.131   0.104
    1UNL     C3    5   0.122  -0.005   0.149
    1UNL     O3    6   0.050  -0.089   0.060
    1UNL     C4    7  -0.049  -0.024  -0.011
    1UNL     O4    8  -0.064  -0.049  -0.147
    1UNL     C5    9  -0.072  -0.185  -0.164
    1UNL    CL1   10   0.089  -0.256  -0.164
    1UNL     C6   11  -0.159  -0.249  -0.048
    1UNL     C7   12  -0.269  -0.165   0.016
    1UNL     C8   13  -0.377  -0.121  -0.081
    1UNL     C9   14  -0.370   0.034  -0.096
    1UNL     O5   15  -0.313   0.075  -0.218
    1UNL    C10   16  -0.285   0.085   0.028
    1UNL     O6   17  -0.383   0.103   0.136
    1UNL    C11   18  -0.217   0.215  -0.007
    1UNL     O7   19  -0.146   0.269   0.097
    1UNL    C12   20  -0.193  -0.034   0.065
    1UNL    C13   21   0.262  -0.068   0.182
    1UNL     O8   22   0.331  -0.013   0.292
    1UNL    C14   23   0.357  -0.076   0.059
    1UNL     O9   24   0.376  -0.205   0.005
    1UNL    C15   25   0.321   0.017  -0.054
    1UNL    O10   26   0.438   0.068  -0.112
    1UNL     H1   27   0.370   0.215  -0.198
    1UNL     H2   28   0.137   0.308  -0.108
    1UNL     H3   29   0.115   0.164  -0.204
    1UNL     H4   30   0.315   0.205   0.040
    1UNL     H5   31   0.072   0.006   0.244
    1UNL     H6   32  -0.032   0.086  -0.014
    1UNL     H7   33  -0.129  -0.207  -0.259
    1UNL     H8   34  -0.088  -0.271   0.031
    1UNL     H9   35  -0.206  -0.346  -0.077
    1UNL    H10   36  -0.316  -0.234   0.103
    1UNL    H11   37  -0.360  -0.168  -0.174
    1UNL    H12   38  -0.476  -0.151  -0.042
    1UNL    H13   39  -0.475   0.076  -0.082
    1UNL    H14   40  -0.224   0.034  -0.218
    1UNL    H15   41  -0.344   0.176   0.198
    1UNL    H16   42  -0.308   0.285  -0.027
    1UNL    H17   43  -0.164   0.208  -0.106
    1UNL    H18   44  -0.053   0.236   0.105
    1UNL    H19   45  -0.187  -0.036   0.175
    1UNL    H20   46   0.249  -0.179   0.202
    1UNL    H21   47   0.335   0.087   0.281
    1UNL    H22   48   0.450  -0.028   0.092
    1UNL    H23   49   0.296  -0.226  -0.049
    1UNL    H24   50   0.268  -0.047  -0.125
    1UNL    H25   51   0.493   0.001  -0.166
   0.00000   0.00000   0.00000   0.00000   0.00000   0.00000   0.00000   0.00000   0.00000
Generated with MDTraj, t= 38.0
 51
    1UNL     O1    1   0.255   0.290  -0.202
    1UNL     C1    2   0.169   0.247  -0.096
    1UNL     C2    3   0.240   0.160   0.007
    1UNL     O2    4   0.147   0.125   0.117
    1UNL     C3    5   0.118  -0.012   0.138
    1UNL     O3    6   0.063  -0.079   0.030
    1UNL     C4    7  -0.041  -0.015  -0.033
    1UNL     O4    8  -0.055  -0.065  -0.163
    1UNL     C5    9  -0.063  -0.211  -0.165
    1UNL    CL1   10   0.089  -0.287  -0.132
    1UNL     C6   11  -0.163  -0.269  -0.061
    1UNL     C7   12  -0.246  -0.156  -0.000
    1UNL     C8   13  -0.380  -0.113  -0.068
    1UNL     C9   14  -0.361   0.039  -0.097
    1UNL     O5   15  -0.307   0.069  -0.222
    1UNL    C10   16  -0.272   0.094   0.024
    1UNL     O6   17  -0.357   0.115   0.135
    1UNL    C11   18  -0.197   0.230  -0.009
    1UNL     O7   19  -0.128   0.271   0.112
    1UNL    C12   20  -0.175  -0.019   0.040
    1UNL    C13   21   0.254  -0.082   0.184
    1UNL     O8   22   0.298  -0.023   0.308
    1UNL    C14   23   0.355  -0.065   0.060
    1UNL     O9   24   0.383  -0.194   0.000
    1UNL    C15   25   0.302   0.032  -0.057
    1UNL    O10   26   0.396   0.060  -0.160
    1UNL     H1   27   0.313   0.218  -0.224
    1UNL     H2   28   0.120   0.330  -0.053
    1UNL     H3   29   0.095   0.190  -0.155
    1UNL     H4   30   0.310   0.225   0.052
    1UNL     H5   31   0.043  -0.008   0.219
    1UNL     H6   32  -0.009   0.092  -0.040
    1UNL     H7   33  -0.088  -0.241  -0.273
    1UNL     H8   34  -0.126  -0.328   0.024
    1UNL     H9   35  -0.234  -0.329  -0.124
    1UNL    H10   36  -0.292  -0.206   0.097
    1UNL    H11   37  -0.398  -0.152  -0.166
    1UNL    H12   38  -0.469  -0.132  -0.005
    1UNL    H13   39  -0.465   0.084  -0.098
    1UNL    H14   40  -0.214   0.035  -0.220
    1UNL    H15   41  -0.312   0.160   0.209
    1UNL    H16   42  -0.274   0.307  -0.043
    1UNL    H17   43  -0.124   0.213  -0.093
    1UNL    H18   44  -0.041   0.229   0.127
    1UNL    H19   45  -0.158  -0.032   0.145
    1UNL    H20   46   0.241  -0.192   0.198
    1UNL    H21   47   0.282   0.075   0.293
    1UNL    H22   48   0.444  -0.016   0.097
    1UNL    H23   49   0.306  -0.226  -0.048
    1UNL    H24   50   0.221  -0.034  -0.097
    1UNL    H25   51   0.433  -0.022  -0.207
   0.00000   0.00000   0.00000   0.00000   0.00000   0.00000   0.00000   0.00000   0.00000
Generated with MDTraj, t= 39.0
 51
    1UNL     O1    1   0.294   0.325  -0.154
    1UNL     C1    2   0.182   0.262  -0.091
    1UNL     C2    3   0.220   0.158   0.005
    1UNL     O2    4   0.113   0.121   0.100
    1UNL     C3    5   0.121  -0.018   0.142
    1UNL     O3    6   0.057  -0.108   0.055
    1UNL     C4    7  -0.044  -0.043  -0.033
    1UNL     O4    8  -0.061  -0.095  -0.172
    1UNL     C5    9  -0.081  -0.234  -0.162
    1UNL    CL1   10   0.080  -0.313  -0.140
    1UNL     C6   11  -0.176  -0.273  -0.047
    1UNL     C7   12  -0.265  -0.161   0.003
    1UNL     C8   13  -0.364  -0.107  -0.103
    1UNL     C9   14  -0.348   0.049  -0.097
    1UNL     O5   15  -0.290   0.093  -0.212
    1UNL    C10   16  -0.258   0.091   0.024
    1UNL     O6   17  -0.340   0.111   0.141
    1UNL    C11   18  -0.193   0.231  -0.006
    1UNL     O7   19  -0.114   0.288   0.096
    1UNL    C12   20  -0.169  -0.038   0.057
    1UNL    C13   21   0.266  -0.059   0.174
    1UNL     O8   22   0.304   0.009   0.288
    1UNL    C14   23   0.355  -0.048   0.050
    1UNL     O9   24   0.383  -0.179   0.002
    1UNL    C15   25   0.283   0.035  -0.063
    1UNL    O10   26   0.367   0.067  -0.164
    1UNL     H1   27   0.358   0.254  -0.186
    1UNL     H2   28   0.128   0.343  -0.049
    1UNL     H3   29   0.120   0.210  -0.166
    1UNL     H4   30   0.292   0.212   0.060
    1UNL     H5   31   0.068  -0.013   0.240
    1UNL     H6   32  -0.003   0.058  -0.051
    1UNL     H7   33  -0.110  -0.273  -0.265
    1UNL     H8   34  -0.108  -0.288   0.039
    1UNL     H9   35  -0.245  -0.361  -0.063
    1UNL    H10   36  -0.334  -0.186   0.095
    1UNL    H11   37  -0.341  -0.137  -0.205
    1UNL    H12   38  -0.468  -0.134  -0.081
    1UNL    H13   39  -0.457   0.080  -0.096
    1UNL    H14   40  -0.208   0.041  -0.223
    1UNL    H15   41  -0.299   0.149   0.218
    1UNL    H16   42  -0.275   0.306  -0.016
    1UNL    H17   43  -0.127   0.224  -0.098
    1UNL    H18   44  -0.037   0.225   0.107
    1UNL    H19   45  -0.144  -0.041   0.157
    1UNL    H20   46   0.274  -0.165   0.205
    1UNL    H21   47   0.291   0.106   0.282
    1UNL    H22   48   0.450  -0.002   0.074
    1UNL    H23   49   0.302  -0.225  -0.035
    1UNL    H24   50   0.197  -0.025  -0.105
    1UNL    H25   51   0.429   0.002  -0.194
   0.00000   0.00000   0.00000   0.00000   0.00000   0.00000   0.00000   0.00000   0.00000
Generated with MDTraj, t= 40.0
 51
    1UNL     O1    1   0.298   0.347  -0.126
    1UNL     C1    2   0.189   0.284  -0.069
    1UNL     C2    3   0.243   0.171   0.021
    1UNL     O2    4   0.131   0.130   0.109
    1UNL     C3    5   0.127  -0.014   0.141
    1UNL     O3    6   0.063  -0.097   0.045
    1UNL     C4    7  -0.046  -0.039  -0.036
    1UNL     O4    8  -0.058  -0.102  -0.169
    1UNL     C5    9  -0.097  -0.240  -0.149
    1UNL    CL1   10   0.052  -0.330  -0.143
    1UNL     C6   11  -0.168  -0.273  -0.020
    1UNL     C7   12  -0.259  -0.154   0.017
    1UNL     C8   13  -0.375  -0.110  -0.087
    1UNL     C9   14  -0.352   0.043  -0.120
    1UNL     O5   15  -0.277   0.053  -0.242
    1UNL    C10   16  -0.270   0.096   0.007
    1UNL     O6   17  -0.364   0.114   0.119
    1UNL    C11   18  -0.190   0.231   0.002
    1UNL     O7   19  -0.127   0.248   0.121
    1UNL    C12   20  -0.176  -0.025   0.041
    1UNL    C13   21   0.274  -0.055   0.174
    1UNL     O8   22   0.344   0.039   0.253
    1UNL    C14   23   0.346  -0.069   0.041
    1UNL     O9   24   0.339  -0.191  -0.023
    1UNL    C15   25   0.305   0.050  -0.064
    1UNL    O10   26   0.407   0.089  -0.149
    1UNL     H1   27   0.357   0.274  -0.152
    1UNL     H2   28   0.142   0.356  -0.006
    1UNL     H3   29   0.119   0.254  -0.150
    1UNL     H4   30   0.318   0.219   0.080
    1UNL     H5   31   0.064  -0.027   0.234
    1UNL     H6   32  -0.011   0.065  -0.054
    1UNL     H7   33  -0.142  -0.274  -0.247
    1UNL     H8   34  -0.101  -0.298   0.065
    1UNL     H9   35  -0.240  -0.358  -0.037
    1UNL    H10   36  -0.301  -0.189   0.120
    1UNL    H11   37  -0.357  -0.171  -0.178
    1UNL    H12   38  -0.475  -0.125  -0.052
    1UNL    H13   39  -0.448   0.097  -0.128
    1UNL    H14   40  -0.199  -0.006  -0.232
    1UNL    H15   41  -0.321   0.132   0.212
    1UNL    H16   42  -0.263   0.311  -0.001
    1UNL    H17   43  -0.119   0.235  -0.084
    1UNL    H18   44  -0.036   0.211   0.122
    1UNL    H19   45  -0.143  -0.035   0.137
    1UNL    H20   46   0.263  -0.145   0.237
    1UNL    H21   47   0.292   0.114   0.286
    1UNL    H22   48   0.452  -0.061   0.056
    1UNL    H23   49   0.247  -0.213  -0.056
    1UNL    H24   50   0.222   0.004  -0.127
    1UNL    H25   51   0.470   0.019  -0.175
   0.00000   0.00000   0.00000   0.00000   0.00000   0.00000   0.00000   0.00000   0.00000
Generated with MDTraj, t= 41.0
 51
    1UNL     O1    1   0.316   0.357  -0.124
    1UNL     C1    2   0.209   0.294  -0.055
    1UNL     C2    3   0.245   0.175   0.034
    1UNL     O2    4   0.120   0.131   0.096
    1UNL     C3    5   0.118  -0.008   0.142
    1UNL     O3    6   0.053  -0.099   0.062
    1UNL     C4    7  -0.038  -0.045  -0.030
    1UNL     O4    8  -0.051  -0.109  -0.161
    1UNL     C5    9  -0.088  -0.246  -0.146
    1UNL    CL1   10   0.051  -0.343  -0.143
    1UNL     C6   11  -0.170  -0.279  -0.025
    1UNL     C7   12  -0.260  -0.161   0.017
    1UNL     C8   13  -0.362  -0.118  -0.086
    1UNL     C9   14  -0.348   0.029  -0.104
    1UNL     O5   15  -0.273   0.055  -0.217
    1UNL    C10   16  -0.275   0.089   0.021
    1UNL     O6   17  -0.356   0.119   0.131
    1UNL    C11   18  -0.209   0.222  -0.022
    1UNL     O7   19  -0.138   0.288   0.083
    1UNL    C12   20  -0.175  -0.033   0.047
    1UNL    C13   21   0.266  -0.063   0.160
    1UNL     O8   22   0.339   0.009   0.255
    1UNL    C14   23   0.344  -0.062   0.023
    1UNL     O9   24   0.307  -0.170  -0.055
    1UNL    C15   25   0.311   0.067  -0.059
    1UNL    O10   26   0.427   0.098  -0.139
    1UNL     H1   27   0.367   0.285  -0.163
    1UNL     H2   28   0.159   0.375  -0.006
    1UNL     H3   29   0.137   0.258  -0.133
    1UNL     H4   30   0.314   0.201   0.112
    1UNL     H5   31   0.059  -0.013   0.239
    1UNL     H6   32  -0.012   0.062  -0.046
    1UNL     H7   33  -0.142  -0.269  -0.239
    1UNL     H8   34  -0.097  -0.299   0.059
    1UNL     H9   35  -0.221  -0.380  -0.030
    1UNL    H10   36  -0.312  -0.193   0.115
    1UNL    H11   37  -0.351  -0.170  -0.185
    1UNL    H12   38  -0.459  -0.140  -0.043
    1UNL    H13   39  -0.439   0.079  -0.135
    1UNL    H14   40  -0.190   0.002  -0.208
    1UNL    H15   41  -0.320   0.206   0.172
    1UNL    H16   42  -0.283   0.285  -0.062
    1UNL    H17   43  -0.148   0.204  -0.113
    1UNL    H18   44  -0.050   0.247   0.101
    1UNL    H19   45  -0.144  -0.010   0.144
    1UNL    H20   46   0.258  -0.161   0.204
    1UNL    H21   47   0.292   0.044   0.336
    1UNL    H22   48   0.452  -0.066   0.029
    1UNL    H23   49   0.212  -0.152  -0.057
    1UNL    H24   50   0.230   0.038  -0.131
    1UNL    H25   51   0.479   0.016  -0.162
   0.00000   0.00000   0.00000   0.00000   0.00000   0.00000   0.00000   0.00000   0.00000
Generated with MDTraj, t= 42.0
 51
    1UNL     O1    1   0.326   0.365  -0.072
    1UNL     C1    2   0.208   0.298  -0.038
    1UNL     C2    3   0.240   0.171   0.032
    1UNL     O2    4   0.129   0.122   0.095
    1UNL     C3    5   0.126  -0.024   0.134
    1UNL     O3    6   0.059  -0.110   0.038
    1UNL     C4    7  -0.045  -0.044  -0.040
    1UNL     O4    8  -0.073  -0.109  -0.169
    1UNL     C5    9  -0.102  -0.245  -0.149
    1UNL    CL1   10   0.050  -0.329  -0.138
    1UNL     C6   11  -0.173  -0.268  -0.017
    1UNL     C7   12  -0.259  -0.157   0.036
    1UNL     C8   13  -0.377  -0.128  -0.057
    1UNL     C9   14  -0.367   0.022  -0.094
    1UNL     O5   15  -0.320   0.040  -0.229
    1UNL    C10   16  -0.260   0.094   0.002
    1UNL     O6   17  -0.346   0.134   0.112
    1UNL    C11   18  -0.186   0.213  -0.048
    1UNL     O7   19  -0.106   0.266   0.063
    1UNL    C12   20  -0.173  -0.027   0.045
    1UNL    C13   21   0.273  -0.065   0.161
    1UNL     O8   22   0.342   0.019   0.250
    1UNL    C14   23   0.345  -0.052   0.030
    1UNL     O9   24   0.335  -0.179  -0.043
    1UNL    C15   25   0.306   0.065  -0.054
    1UNL    O10   26   0.408   0.113  -0.146
    1UNL     H1   27   0.388   0.294  -0.111
    1UNL     H2   28   0.143   0.364   0.018
    1UNL     H3   29   0.158   0.282  -0.138
    1UNL     H4   30   0.312   0.193   0.113
    1UNL     H5   31   0.059  -0.038   0.224
    1UNL     H6   32  -0.001   0.053  -0.072
    1UNL     H7   33  -0.168  -0.286  -0.223
    1UNL     H8   34  -0.100  -0.300   0.065
    1UNL     H9   35  -0.229  -0.366  -0.023
    1UNL    H10   36  -0.296  -0.183   0.143
    1UNL    H11   37  -0.365  -0.184  -0.156
    1UNL    H12   38  -0.473  -0.165  -0.024
    1UNL    H13   39  -0.458   0.076  -0.082
    1UNL    H14   40  -0.233  -0.006  -0.229
    1UNL    H15   41  -0.334   0.230   0.117
    1UNL    H16   42  -0.253   0.284  -0.082
    1UNL    H17   43  -0.131   0.192  -0.140
    1UNL    H18   44  -0.032   0.202   0.071
    1UNL    H19   45  -0.134  -0.015   0.144
    1UNL    H20   46   0.277  -0.164   0.199
    1UNL    H21   47   0.281   0.073   0.310
    1UNL    H22   48   0.454  -0.046   0.043
    1UNL    H23   49   0.243  -0.203  -0.075
    1UNL    H24   50   0.218   0.024  -0.107
    1UNL    H25   51   0.471   0.039  -0.175
   0.00000   0.00000   0.00000   0.00000   0.00000   0.00000   0.00000   0.00000   0.00000
Generated with MDTraj, t= 43.0
 51
    1UNL     O1    1   0.332   0.363  -0.055
    1UNL     C1    2   0.210   0.300  -0.021
    1UNL     C2    3   0.226   0.166   0.042
    1UNL     O2    4   0.111   0.117   0.106
    1UNL     C3    5   0.116  -0.025   0.120
    1UNL     O3    6   0.059  -0.105   0.016
    1UNL     C4    7  -0.039  -0.034  -0.060
    1UNL     O4    8  -0.079  -0.109  -0.176
    1UNL     C5    9  -0.094  -0.252  -0.149
    1UNL    CL1   10   0.056  -0.330  -0.142
    1UNL     C6   11  -0.170  -0.278  -0.014
    1UNL     C7   12  -0.240  -0.149   0.046
    1UNL     C8   13  -0.379  -0.121  -0.017
    1UNL     C9   14  -0.374   0.022  -0.083
    1UNL     O5   15  -0.319   0.012  -0.219
    1UNL    C10   16  -0.256   0.105   0.002
    1UNL     O6   17  -0.330   0.132   0.129
    1UNL    C11   18  -0.201   0.226  -0.068
    1UNL     O7   19  -0.103   0.300   0.005
    1UNL    C12   20  -0.158  -0.011   0.032
    1UNL    C13   21   0.260  -0.077   0.152
    1UNL     O8   22   0.323  -0.012   0.269
    1UNL    C14   23   0.356  -0.053   0.032
    1UNL     O9   24   0.362  -0.176  -0.044
    1UNL    C15   25   0.298   0.062  -0.054
    1UNL    O10   26   0.393   0.118  -0.147
    1UNL     H1   27   0.386   0.301  -0.103
    1UNL     H2   28   0.154   0.370   0.041
    1UNL     H3   29   0.150   0.292  -0.117
    1UNL     H4   30   0.299   0.186   0.126
    1UNL     H5   31   0.047  -0.045   0.207
    1UNL     H6   32   0.007   0.059  -0.103
    1UNL     H7   33  -0.150  -0.293  -0.230
    1UNL     H8   34  -0.097  -0.335   0.053
    1UNL     H9   35  -0.245  -0.361  -0.024
    1UNL    H10   36  -0.263  -0.165   0.157
    1UNL    H11   37  -0.417  -0.210  -0.076
    1UNL    H12   38  -0.458  -0.109   0.057
    1UNL    H13   39  -0.469   0.067  -0.094
    1UNL    H14   40  -0.235  -0.038  -0.213
    1UNL    H15   41  -0.309   0.219   0.159
    1UNL    H16   42  -0.280   0.287  -0.092
    1UNL    H17   43  -0.164   0.194  -0.163
    1UNL    H18   44  -0.038   0.239   0.046
    1UNL    H19   45  -0.107   0.014   0.128
    1UNL    H20   46   0.255  -0.177   0.183
    1UNL    H21   47   0.276   0.067   0.300
    1UNL    H22   48   0.459  -0.028   0.065
    1UNL    H23   49   0.271  -0.191  -0.070
    1UNL    H24   50   0.206   0.026  -0.099
    1UNL    H25   51   0.447   0.039  -0.176
   0.00000   0.00000   0.00000   0.00000   0.00000   0.00000   0.00000   0.00000   0.00000
Generated with MDTraj, t= 44.0
 51
    1UNL     O1    1   0.311   0.373  -0.073
    1UNL     C1    2   0.203   0.298  -0.027
    1UNL     C2    3   0.245   0.173   0.055
    1UNL     O2    4   0.127   0.125   0.121
    1UNL     C3    5   0.115  -0.019   0.126
    1UNL     O3    6   0.072  -0.089   0.010
    1UNL     C4    7  -0.045  -0.031  -0.054
    1UNL     O4    8  -0.093  -0.107  -0.170
    1UNL     C5    9  -0.104  -0.246  -0.136
    1UNL    CL1   10   0.058  -0.322  -0.156
    1UNL     C6   11  -0.154  -0.266   0.005
    1UNL     C7   12  -0.245  -0.154   0.061
    1UNL     C8   13  -0.368  -0.130  -0.022
    1UNL     C9   14  -0.375   0.014  -0.072
    1UNL     O5   15  -0.364   0.024  -0.218
    1UNL    C10   16  -0.253   0.092   0.002
    1UNL     O6   17  -0.311   0.158   0.113
    1UNL    C11   18  -0.193   0.198  -0.092
    1UNL     O7   19  -0.104   0.280  -0.025
    1UNL    C12   20  -0.160  -0.018   0.053
    1UNL    C13   21   0.254  -0.091   0.154
    1UNL     O8   22   0.302  -0.053   0.286
    1UNL    C14   23   0.355  -0.062   0.037
    1UNL     O9   24   0.360  -0.166  -0.053
    1UNL    C15   25   0.309   0.066  -0.047
    1UNL    O10   26   0.414   0.123  -0.129
    1UNL     H1   27   0.373   0.306  -0.109
    1UNL     H2   28   0.150   0.366   0.038
    1UNL     H3   29   0.135   0.276  -0.115
    1UNL     H4   30   0.325   0.205   0.130
    1UNL     H5   31   0.044  -0.046   0.206
    1UNL     H6   32   0.002   0.064  -0.094
    1UNL     H7   33  -0.165  -0.281  -0.217
    1UNL     H8   34  -0.062  -0.282   0.070
    1UNL     H9   35  -0.190  -0.373  -0.002
    1UNL    H10   36  -0.276  -0.175   0.170
    1UNL    H11   37  -0.374  -0.195  -0.112
    1UNL    H12   38  -0.459  -0.166   0.031
    1UNL    H13   39  -0.474   0.049  -0.056
    1UNL    H14   40  -0.278  -0.014  -0.247
    1UNL    H15   41  -0.273   0.253   0.125
    1UNL    H16   42  -0.271   0.254  -0.127
    1UNL    H17   43  -0.144   0.149  -0.173
    1UNL    H18   44  -0.030   0.236   0.026
    1UNL    H19   45  -0.106   0.019   0.148
    1UNL    H20   46   0.243  -0.194   0.148
    1UNL    H21   47   0.258   0.032   0.297
    1UNL    H22   48   0.466  -0.056   0.055
    1UNL    H23   49   0.263  -0.178  -0.077
    1UNL    H24   50   0.222   0.037  -0.103
    1UNL    H25   51   0.442   0.046  -0.179
   0.00000   0.00000   0.00000   0.00000   0.00000   0.00000   0.00000   0.00000   0.00000
Generated with MDTraj, t= 45.0
 51
    1UNL     O1    1   0.303   0.354  -0.083
    1UNL     C1    2   0.196   0.286  -0.026
    1UNL     C2    3   0.240   0.167   0.048
    1UNL     O2    4   0.120   0.110   0.101
    1UNL     C3    5   0.122  -0.032   0.116
    1UNL     O3    6   0.070  -0.095   0.005
    1UNL     C4    7  -0.042  -0.021  -0.047
    1UNL     O4    8  -0.083  -0.089  -0.167
    1UNL     C5    9  -0.101  -0.232  -0.143
    1UNL    CL1   10   0.054  -0.320  -0.164
    1UNL     C6   11  -0.151  -0.257   0.002
    1UNL     C7   12  -0.239  -0.141   0.062
    1UNL     C8   13  -0.381  -0.113   0.001
    1UNL     C9   14  -0.375   0.013  -0.077
    1UNL     O5   15  -0.345  -0.007  -0.217
    1UNL    C10   16  -0.266   0.098  -0.001
    1UNL     O6   17  -0.332   0.145   0.120
    1UNL    C11   18  -0.209   0.209  -0.086
    1UNL     O7   19  -0.108   0.280  -0.014
    1UNL    C12   20  -0.160  -0.008   0.044
    1UNL    C13   21   0.261  -0.087   0.150
    1UNL     O8   22   0.303  -0.023   0.275
    1UNL    C14   23   0.351  -0.068   0.034
    1UNL     O9   24   0.373  -0.178  -0.047
    1UNL    C15   25   0.315   0.064  -0.047
    1UNL    O10   26   0.438   0.121  -0.094
    1UNL     H1   27   0.372   0.281  -0.100
    1UNL     H2   28   0.144   0.355   0.041
    1UNL     H3   29   0.133   0.252  -0.114
    1UNL     H4   30   0.317   0.187   0.131
    1UNL     H5   31   0.058  -0.047   0.204
    1UNL     H6   32  -0.006   0.079  -0.087
    1UNL     H7   33  -0.165  -0.268  -0.226
    1UNL     H8   34  -0.057  -0.294   0.058
    1UNL     H9   35  -0.209  -0.353  -0.003
    1UNL    H10   36  -0.259  -0.163   0.173
    1UNL    H11   37  -0.416  -0.188  -0.070
    1UNL    H12   38  -0.467  -0.112   0.073
    1UNL    H13   39  -0.473   0.058  -0.065
    1UNL    H14   40  -0.251  -0.039  -0.214
    1UNL    H15   41  -0.285   0.231   0.155
    1UNL    H16   42  -0.278   0.285  -0.100
    1UNL    H17   43  -0.164   0.173  -0.179
    1UNL    H18   44  -0.036   0.220   0.023
    1UNL    H19   45  -0.109   0.023   0.144
    1UNL    H20   46   0.266  -0.188   0.179
    1UNL    H21   47   0.275   0.068   0.286
    1UNL    H22   48   0.452  -0.041   0.074
    1UNL    H23   49   0.287  -0.194  -0.091
    1UNL    H24   50   0.243   0.048  -0.123
    1UNL    H25   51   0.478   0.059  -0.154
   0.00000   0.00000   0.00000   0.00000   0.00000   0.00000   0.00000   0.00000   0.00000
Generated with MDTraj, t= 46.0
 51
    1UNL     O1    1   0.326   0.359  -0.088
    1UNL     C1    2   0.206   0.288  -0.053
    1UNL     C2    3   0.229   0.171   0.026
    1UNL     O2    4   0.109   0.128   0.093
    1UNL     C3    5   0.119  -0.014   0.123
    1UNL     O3    6   0.077  -0.090   0.013
    1UNL     C4    7  -0.033  -0.034  -0.046
    1UNL     O4    8  -0.071  -0.098  -0.170
    1UNL     C5    9  -0.097  -0.236  -0.147
    1UNL    CL1   10   0.053  -0.329  -0.174
    1UNL     C6   11  -0.170  -0.272  -0.017
    1UNL     C7   12  -0.246  -0.155   0.047
    1UNL     C8   13  -0.383  -0.121  -0.016
    1UNL     C9   14  -0.374   0.019  -0.079
    1UNL     O5   15  -0.343   0.014  -0.219
    1UNL    C10   16  -0.260   0.090   0.011
    1UNL     O6   17  -0.316   0.130   0.131
    1UNL    C11   18  -0.204   0.210  -0.067
    1UNL     O7   19  -0.118   0.288   0.014
    1UNL    C12   20  -0.155  -0.026   0.045
    1UNL    C13   21   0.258  -0.061   0.170
    1UNL     O8   22   0.310  -0.017   0.291
    1UNL    C14   23   0.357  -0.058   0.053
    1UNL     O9   24   0.341  -0.181  -0.026
    1UNL    C15   25   0.317   0.062  -0.044
    1UNL    O10   26   0.428   0.117  -0.116
    1UNL     H1   27   0.394   0.297  -0.113
    1UNL     H2   28   0.144   0.357   0.003
    1UNL     H3   29   0.162   0.257  -0.151
    1UNL     H4   30   0.301   0.198   0.112
    1UNL     H5   31   0.044  -0.037   0.195
    1UNL     H6   32  -0.013   0.070  -0.084
    1UNL     H7   33  -0.169  -0.273  -0.226
    1UNL     H8   34  -0.092  -0.302   0.063
    1UNL     H9   35  -0.227  -0.369  -0.023
    1UNL    H10   36  -0.276  -0.179   0.155
    1UNL    H11   37  -0.429  -0.190  -0.084
    1UNL    H12   38  -0.463  -0.105   0.063
    1UNL    H13   39  -0.468   0.074  -0.061
    1UNL    H14   40  -0.252  -0.024  -0.229
    1UNL    H15   41  -0.259   0.195   0.171
    1UNL    H16   42  -0.277   0.282  -0.091
    1UNL    H17   43  -0.147   0.176  -0.157
    1UNL    H18   44  -0.045   0.230   0.047
    1UNL    H19   45  -0.124   0.007   0.150
    1UNL    H20   46   0.230  -0.163   0.179
    1UNL    H21   47   0.349   0.072   0.274
    1UNL    H22   48   0.463  -0.057   0.088
    1UNL    H23   49   0.260  -0.188  -0.079
    1UNL    H24   50   0.242   0.019  -0.109
    1UNL    H25   51   0.458   0.063  -0.193
   0.00000   0.00000   0.00000   0.00000   0.00000   0.00000   0.00000   0.00000   0.00000
Generated with MDTraj, t= 47.0
 51
    1UNL     O1    1   0.329   0.345  -0.106
    1UNL     C1    2   0.211   0.294  -0.051
    1UNL     C2    3   0.251   0.173   0.037
    1UNL     O2    4   0.124   0.128   0.090
    1UNL     C3    5   0.118  -0.015   0.127
    1UNL     O3    6   0.073  -0.089   0.022
    1UNL     C4    7  -0.046  -0.034  -0.026
    1UNL     O4    8  -0.072  -0.094  -0.158
    1UNL     C5    9  -0.098  -0.235  -0.142
    1UNL    CL1   10   0.057  -0.328  -0.174
    1UNL     C6   11  -0.168  -0.276  -0.014
    1UNL     C7   12  -0.259  -0.162   0.040
    1UNL     C8   13  -0.375  -0.133  -0.063
    1UNL     C9   14  -0.370   0.025  -0.089
    1UNL     O5   15  -0.329   0.052  -0.222
    1UNL    C10   16  -0.269   0.085   0.018
    1UNL     O6   17  -0.347   0.120   0.128
    1UNL    C11   18  -0.199   0.208  -0.045
    1UNL     O7   19  -0.120   0.277   0.048
    1UNL    C12   20  -0.175  -0.033   0.057
    1UNL    C13   21   0.262  -0.060   0.175
    1UNL     O8   22   0.308   0.036   0.274
    1UNL    C14   23   0.359  -0.062   0.044
    1UNL     O9   24   0.365  -0.187  -0.021
    1UNL    C15   25   0.312   0.054  -0.047
    1UNL    O10   26   0.414   0.092  -0.148
    1UNL     H1   27   0.386   0.267  -0.129
    1UNL     H2   28   0.168   0.377   0.005
    1UNL     H3   29   0.152   0.261  -0.139
    1UNL     H4   30   0.320   0.202   0.124
    1UNL     H5   31   0.055  -0.031   0.209
    1UNL     H6   32  -0.010   0.071  -0.049
    1UNL     H7   33  -0.172  -0.265  -0.225
    1UNL     H8   34  -0.091  -0.302   0.066
    1UNL     H9   35  -0.227  -0.372  -0.015
    1UNL    H10   36  -0.302  -0.196   0.138
    1UNL    H11   37  -0.382  -0.175  -0.161
    1UNL    H12   38  -0.474  -0.158  -0.013
    1UNL    H13   39  -0.469   0.075  -0.071
    1UNL    H14   40  -0.240   0.010  -0.239
    1UNL    H15   41  -0.300   0.190   0.167
    1UNL    H16   42  -0.279   0.275  -0.074
    1UNL    H17   43  -0.134   0.186  -0.137
    1UNL    H18   44  -0.044   0.222   0.080
    1UNL    H19   45  -0.150  -0.023   0.164
    1UNL    H20   46   0.271  -0.153   0.230
    1UNL    H21   47   0.251   0.050   0.355
    1UNL    H22   48   0.456  -0.024   0.080
    1UNL    H23   49   0.271  -0.214  -0.041
    1UNL    H24   50   0.220   0.015  -0.093
    1UNL    H25   51   0.439   0.011  -0.204
   0.00000   0.00000   0.00000   0.00000   0.00000   0.00000   0.00000   0.00000   0.00000
Generated with MDTraj, t= 48.0
 51
    1UNL     O1    1   0.327   0.342  -0.122
    1UNL     C1    2   0.209   0.280  -0.080
    1UNL     C2    3   0.242   0.165   0.021
    1UNL     O2    4   0.123   0.138   0.090
    1UNL     C3    5   0.118   0.003   0.130
    1UNL     O3    6   0.062  -0.078   0.042
    1UNL     C4    7  -0.043  -0.022  -0.027
    1UNL     O4    8  -0.051  -0.082  -0.159
    1UNL     C5    9  -0.080  -0.228  -0.146
    1UNL    CL1   10   0.076  -0.321  -0.150
    1UNL     C6   11  -0.166  -0.270  -0.034
    1UNL     C7   12  -0.258  -0.155   0.027
    1UNL     C8   13  -0.377  -0.118  -0.068
    1UNL     C9   14  -0.356   0.028  -0.105
    1UNL     O5   15  -0.288   0.041  -0.228
    1UNL    C10   16  -0.271   0.087   0.012
    1UNL     O6   17  -0.362   0.097   0.130
    1UNL    C11   18  -0.211   0.226  -0.011
    1UNL     O7   19  -0.136   0.271   0.101
    1UNL    C12   20  -0.175  -0.030   0.051
    1UNL    C13   21   0.257  -0.059   0.162
    1UNL     O8   22   0.315   0.016   0.262
    1UNL    C14   23   0.346  -0.068   0.038
    1UNL     O9   24   0.349  -0.192  -0.021
    1UNL    C15   25   0.294   0.040  -0.055
    1UNL    O10   26   0.389   0.070  -0.154
    1UNL     H1   27   0.382   0.262  -0.153
    1UNL     H2   28   0.154   0.357  -0.025
    1UNL     H3   29   0.157   0.246  -0.171
    1UNL     H4   30   0.312   0.203   0.101
    1UNL     H5   31   0.060  -0.007   0.216
    1UNL     H6   32  -0.011   0.085  -0.040
    1UNL     H7   33  -0.131  -0.247  -0.246
    1UNL     H8   34  -0.095  -0.300   0.051
    1UNL     H9   35  -0.231  -0.360  -0.049
    1UNL    H10   36  -0.285  -0.192   0.128
    1UNL    H11   37  -0.379  -0.180  -0.157
    1UNL    H12   38  -0.477  -0.120  -0.018
    1UNL    H13   39  -0.460   0.074  -0.108
    1UNL    H14   40  -0.197   0.006  -0.218
    1UNL    H15   41  -0.327   0.175   0.187
    1UNL    H16   42  -0.291   0.302  -0.024
    1UNL    H17   43  -0.157   0.218  -0.112
    1UNL    H18   44  -0.039   0.246   0.106
    1UNL    H19   45  -0.152  -0.012   0.154
    1UNL    H20   46   0.237  -0.165   0.189
    1UNL    H21   47   0.241   0.060   0.310
    1UNL    H22   48   0.449  -0.039   0.051
    1UNL    H23   49   0.264  -0.242  -0.021
    1UNL    H24   50   0.209  -0.014  -0.103
    1UNL    H25   51   0.412  -0.015  -0.202
   0.00000   0.00000   0.00000   0.00000   0.00000   0.00000   0.00000   0.00000   0.00000
Generated with MDTraj, t= 49.0
 51
    1UNL     O1    1   0.307   0.312  -0.168
    1UNL     C1    2   0.204   0.282  -0.074
    1UNL     C2    3   0.237   0.166   0.016
    1UNL     O2    4   0.118   0.135   0.091
    1UNL     C3    5   0.112  -0.002   0.145
    1UNL     O3    6   0.058  -0.096   0.051
    1UNL     C4    7  -0.042  -0.033  -0.024
    1UNL     O4    8  -0.061  -0.083  -0.156
    1UNL     C5    9  -0.080  -0.229  -0.144
    1UNL    CL1   10   0.086  -0.292  -0.134
    1UNL     C6   11  -0.171  -0.280  -0.041
    1UNL     C7   12  -0.269  -0.165   0.007
    1UNL     C8   13  -0.355  -0.115  -0.112
    1UNL     C9   14  -0.356   0.038  -0.110
    1UNL     O5   15  -0.310   0.092  -0.236
    1UNL    C10   16  -0.272   0.079   0.020
    1UNL     O6   17  -0.359   0.094   0.134
    1UNL    C11   18  -0.205   0.214  -0.000
    1UNL     O7   19  -0.139   0.259   0.114
    1UNL    C12   20  -0.180  -0.042   0.050
    1UNL    C13   21   0.263  -0.052   0.182
    1UNL     O8   22   0.351   0.025   0.264
    1UNL    C14   23   0.347  -0.073   0.043
    1UNL     O9   24   0.348  -0.204  -0.005
    1UNL    C15   25   0.297   0.046  -0.056
    1UNL    O10   26   0.382   0.063  -0.164
    1UNL     H1   27   0.358   0.233  -0.179
    1UNL     H2   28   0.184   0.375  -0.016
    1UNL     H3   29   0.120   0.247  -0.134
    1UNL     H4   30   0.313   0.206   0.086
    1UNL     H5   31   0.050   0.005   0.229
    1UNL     H6   32  -0.007   0.072  -0.030
    1UNL     H7   33  -0.117  -0.261  -0.244
    1UNL     H8   34  -0.101  -0.308   0.045
    1UNL     H9   35  -0.232  -0.372  -0.068
    1UNL    H10   36  -0.325  -0.198   0.094
    1UNL    H11   37  -0.302  -0.136  -0.207
    1UNL    H12   38  -0.461  -0.148  -0.110
    1UNL    H13   39  -0.460   0.084  -0.104
    1UNL    H14   40  -0.220   0.056  -0.257
    1UNL    H15   41  -0.321   0.170   0.193
    1UNL    H16   42  -0.288   0.285  -0.032
    1UNL    H17   43  -0.126   0.214  -0.084
    1UNL    H18   44  -0.042   0.242   0.107
    1UNL    H19   45  -0.158  -0.050   0.152
    1UNL    H20   46   0.266  -0.157   0.225
    1UNL    H21   47   0.309   0.041   0.350
    1UNL    H22   48   0.447  -0.051   0.076
    1UNL    H23   49   0.276  -0.214  -0.069
    1UNL    H24   50   0.208  -0.001  -0.107
    1UNL    H25   51   0.413  -0.017  -0.208
   0.00000   0.00000   0.00000   0.00000   0.00000   0.00000   0.00000   0.00000   0.00000
Generated with MDTraj, t= 50.0
 51
    1UNL     O1    1   0.286   0.308  -0.179
    1UNL     C1    2   0.182   0.244  -0.107
    1UNL     C2    3   0.233   0.157   0.009
    1UNL     O2    4   0.119   0.130   0.092
    1UNL     C3    5   0.120  -0.000   0.147
    1UNL     O3    6   0.058  -0.091   0.053
    1UNL     C4    7  -0.043  -0.021  -0.019
    1UNL     O4    8  -0.045  -0.069  -0.154
    1UNL     C5    9  -0.064  -0.215  -0.168
    1UNL    CL1   10   0.093  -0.304  -0.141
    1UNL     C6   11  -0.163  -0.266  -0.069
    1UNL     C7   12  -0.264  -0.158   0.002
    1UNL     C8   13  -0.369  -0.105  -0.100
    1UNL     C9   14  -0.356   0.053  -0.107
    1UNL     O5   15  -0.277   0.085  -0.221
    1UNL    C10   16  -0.281   0.089   0.028
    1UNL     O6   17  -0.381   0.094   0.137
    1UNL    C11   18  -0.209   0.224   0.018
    1UNL     O7   19  -0.130   0.250   0.127
    1UNL    C12   20  -0.185  -0.030   0.050
    1UNL    C13   21   0.267  -0.048   0.180
    1UNL     O8   22   0.325   0.027   0.275
    1UNL    C14   23   0.359  -0.067   0.056
    1UNL     O9   24   0.372  -0.195   0.009
    1UNL    C15   25   0.293   0.026  -0.053
    1UNL    O10   26   0.370   0.049  -0.167
    1UNL     H1   27   0.341   0.237  -0.224
    1UNL     H2   28   0.107   0.319  -0.071
    1UNL     H3   29   0.137   0.175  -0.178
    1UNL     H4   30   0.305   0.208   0.071
    1UNL     H5   31   0.058   0.012   0.232
    1UNL     H6   32  -0.022   0.087  -0.035
    1UNL     H7   33  -0.100  -0.246  -0.265
    1UNL     H8   34  -0.102  -0.312   0.015
    1UNL     H9   35  -0.220  -0.351  -0.119
    1UNL    H10   36  -0.315  -0.199   0.087
    1UNL    H11   37  -0.337  -0.140  -0.201
    1UNL    H12   38  -0.471  -0.133  -0.071
    1UNL    H13   39  -0.451   0.114  -0.121
    1UNL    H14   40  -0.194   0.033  -0.215
    1UNL    H15   41  -0.350   0.142   0.210
    1UNL    H16   42  -0.281   0.313   0.012
    1UNL    H17   43  -0.147   0.227  -0.078
    1UNL    H18   44  -0.044   0.201   0.116
    1UNL    H19   45  -0.168  -0.036   0.152
    1UNL    H20   46   0.258  -0.155   0.220
    1UNL    H21   47   0.278   0.112   0.276
    1UNL    H22   48   0.454  -0.027   0.088
    1UNL    H23   49   0.285  -0.241   0.014
    1UNL    H24   50   0.209  -0.044  -0.088
    1UNL    H25   51   0.415  -0.023  -0.209
   0.00000   0.00000   0.00000   0.00000   0.00000   0.00000   0.00000   0.00000   0.00000
Generated with MDTraj, t= 51.0
 51
    1UNL     O1    1   0.255   0.282  -0.221
    1UNL     C1    2   0.168   0.237  -0.119
    1UNL     C2    3   0.241   0.167   0.002
    1UNL     O2    4   0.133   0.134   0.096
    1UNL     C3    5   0.120   0.002   0.141
    1UNL     O3    6   0.056  -0.087   0.047
    1UNL     C4    7  -0.043  -0.017  -0.021
    1UNL     O4    8  -0.051  -0.061  -0.155
    1UNL     C5    9  -0.068  -0.206  -0.171
    1UNL    CL1   10   0.086  -0.299  -0.155
    1UNL     C6   11  -0.160  -0.264  -0.067
    1UNL     C7   12  -0.259  -0.161   0.000
    1UNL     C8   13  -0.355  -0.110  -0.106
    1UNL     C9   14  -0.343   0.048  -0.106
    1UNL     O5   15  -0.272   0.097  -0.215
    1UNL    C10   16  -0.273   0.084   0.029
    1UNL     O6   17  -0.366   0.101   0.136
    1UNL    C11   18  -0.203   0.217   0.023
    1UNL     O7   19  -0.144   0.247   0.149
    1UNL    C12   20  -0.180  -0.035   0.055
    1UNL    C13   21   0.264  -0.048   0.190
    1UNL     O8   22   0.312   0.022   0.296
    1UNL    C14   23   0.355  -0.061   0.067
    1UNL     O9   24   0.372  -0.194   0.020
    1UNL    C15   25   0.295   0.033  -0.049
    1UNL    O10   26   0.386   0.036  -0.154
    1UNL     H1   27   0.329   0.220  -0.232
    1UNL     H2   28   0.124   0.332  -0.078
    1UNL     H3   29   0.089   0.175  -0.158
    1UNL     H4   30   0.311   0.230   0.054
    1UNL     H5   31   0.061   0.011   0.231
    1UNL     H6   32  -0.024   0.091  -0.033
    1UNL     H7   33  -0.109  -0.234  -0.265
    1UNL     H8   34  -0.084  -0.298   0.011
    1UNL     H9   35  -0.209  -0.359  -0.111
    1UNL    H10   36  -0.320  -0.208   0.074
    1UNL    H11   37  -0.314  -0.162  -0.199
    1UNL    H12   38  -0.459  -0.143  -0.093
    1UNL    H13   39  -0.449   0.084  -0.098
    1UNL    H14   40  -0.186   0.048  -0.212
    1UNL    H15   41  -0.322   0.147   0.207
    1UNL    H16   42  -0.275   0.300  -0.012
    1UNL    H17   43  -0.125   0.221  -0.060
    1UNL    H18   44  -0.071   0.188   0.175
    1UNL    H19   45  -0.151  -0.046   0.154
    1UNL    H20   46   0.260  -0.157   0.229
    1UNL    H21   47   0.271   0.111   0.307
    1UNL    H22   48   0.452  -0.012   0.081
    1UNL    H23   49   0.290  -0.227  -0.027
    1UNL    H24   50   0.209  -0.031  -0.085
    1UNL    H25   51   0.435  -0.048  -0.164
   0.00000   0.00000   0.00000   0.00000   0.00000   0.00000   0.00000   0.00000   0.00000
Generated with MDTraj, t= 52.0
 51
    1UNL     O1    1   0.259   0.261  -0.234
    1UNL     C1    2   0.166   0.226  -0.136
    1UNL     C2    3   0.225   0.152  -0.008
    1UNL     O2    4   0.126   0.134   0.100
    1UNL     C3    5   0.107   0.001   0.149
    1UNL     O3    6   0.050  -0.086   0.052
    1UNL     C4    7  -0.047  -0.020  -0.018
    1UNL     O4    8  -0.063  -0.058  -0.155
    1UNL     C5    9  -0.074  -0.208  -0.172
    1UNL    CL1   10   0.094  -0.278  -0.157
    1UNL     C6   11  -0.154  -0.265  -0.058
    1UNL     C7   12  -0.255  -0.159  -0.005
    1UNL     C8   13  -0.352  -0.107  -0.112
    1UNL     C9   14  -0.355   0.050  -0.101
    1UNL     O5   15  -0.292   0.110  -0.213
    1UNL    C10   16  -0.278   0.082   0.030
    1UNL     O6   17  -0.367   0.078   0.142
    1UNL    C11   18  -0.215   0.224   0.025
    1UNL     O7   19  -0.129   0.254   0.140
    1UNL    C12   20  -0.183  -0.034   0.052
    1UNL    C13   21   0.254  -0.054   0.196
    1UNL     O8   22   0.326   0.026   0.286
    1UNL    C14   23   0.355  -0.067   0.076
    1UNL     O9   24   0.372  -0.200   0.026
    1UNL    C15   25   0.311   0.026  -0.047
    1UNL    O10   26   0.419   0.041  -0.138
    1UNL     H1   27   0.338   0.205  -0.222
    1UNL     H2   28   0.107   0.320  -0.113
    1UNL     H3   29   0.095   0.165  -0.188
    1UNL     H4   30   0.291   0.228   0.025
    1UNL     H5   31   0.036   0.013   0.233
    1UNL     H6   32  -0.024   0.087  -0.029
    1UNL     H7   33  -0.114  -0.236  -0.268
    1UNL     H8   34  -0.075  -0.295   0.017
    1UNL     H9   35  -0.202  -0.358  -0.109
    1UNL    H10   36  -0.321  -0.198   0.069
    1UNL    H11   37  -0.319  -0.134  -0.217
    1UNL    H12   38  -0.451  -0.153  -0.098
    1UNL    H13   39  -0.455   0.092  -0.085
    1UNL    H14   40  -0.203   0.070  -0.217
    1UNL    H15   41  -0.312   0.091   0.226
    1UNL    H16   42  -0.304   0.297   0.033
    1UNL    H17   43  -0.171   0.259  -0.072
    1UNL    H18   44  -0.037   0.221   0.126
    1UNL    H19   45  -0.151  -0.052   0.151
    1UNL    H20   46   0.248  -0.158   0.242
    1UNL    H21   47   0.288   0.117   0.294
    1UNL    H22   48   0.457  -0.039   0.113
    1UNL    H23   49   0.308  -0.225  -0.044
    1UNL    H24   50   0.242  -0.041  -0.103
    1UNL    H25   51   0.472  -0.043  -0.159
   0.00000   0.00000   0.00000   0.00000   0.00000   0.00000   0.00000   0.00000   0.00000
Generated with MDTraj, t= 53.0
 51
    1UNL     O1    1   0.277   0.264  -0.231
    1UNL     C1    2   0.189   0.214  -0.135
    1UNL     C2    3   0.248   0.152  -0.008
    1UNL     O2    4   0.141   0.138   0.094
    1UNL     C3    5   0.119   0.005   0.142
    1UNL     O3    6   0.051  -0.076   0.048
    1UNL     C4    7  -0.047  -0.016  -0.025
    1UNL     O4    8  -0.053  -0.045  -0.167
    1UNL     C5    9  -0.067  -0.194  -0.181
    1UNL    CL1   10   0.103  -0.262  -0.157
    1UNL     C6   11  -0.165  -0.267  -0.088
    1UNL     C7   12  -0.254  -0.165  -0.006
    1UNL     C8   13  -0.375  -0.112  -0.078
    1UNL     C9   14  -0.370   0.044  -0.094
    1UNL     O5   15  -0.307   0.081  -0.218
    1UNL    C10   16  -0.284   0.086   0.033
    1UNL     O6   17  -0.368   0.079   0.149
    1UNL    C11   18  -0.226   0.230   0.033
    1UNL     O7   19  -0.160   0.253   0.156
    1UNL    C12   20  -0.182  -0.039   0.051
    1UNL    C13   21   0.257  -0.051   0.184
    1UNL     O8   22   0.314   0.036   0.282
    1UNL    C14   23   0.350  -0.069   0.069
    1UNL     O9   24   0.365  -0.206   0.041
    1UNL    C15   25   0.309   0.014  -0.054
    1UNL    O10   26   0.428   0.019  -0.131
    1UNL     H1   27   0.348   0.194  -0.242
    1UNL     H2   28   0.108   0.290  -0.115
    1UNL     H3   29   0.130   0.142  -0.188
    1UNL     H4   30   0.322   0.216   0.036
    1UNL     H5   31   0.047   0.009   0.227
    1UNL     H6   32  -0.028   0.092  -0.022
    1UNL     H7   33  -0.096  -0.206  -0.286
    1UNL     H8   34  -0.094  -0.319  -0.017
    1UNL     H9   35  -0.225  -0.340  -0.154
    1UNL    H10   36  -0.296  -0.212   0.082
    1UNL    H11   37  -0.400  -0.167  -0.172
    1UNL    H12   38  -0.462  -0.123  -0.011
    1UNL    H13   39  -0.466   0.095  -0.095
    1UNL    H14   40  -0.216   0.042  -0.211
    1UNL    H15   41  -0.316   0.105   0.231
    1UNL    H16   42  -0.300   0.316   0.022
    1UNL    H17   43  -0.158   0.246  -0.052
    1UNL    H18   44  -0.070   0.213   0.148
    1UNL    H19   45  -0.157  -0.044   0.155
    1UNL    H20   46   0.238  -0.149   0.235
    1UNL    H21   47   0.294   0.128   0.256
    1UNL    H22   48   0.447  -0.032   0.114
    1UNL    H23   49   0.276  -0.240   0.023
    1UNL    H24   50   0.241  -0.045  -0.116
    1UNL    H25   51   0.474  -0.068  -0.155
   0.00000   0.00000   0.00000   0.00000   0.00000   0.00000   0.00000   0.00000   0.00000
Generated with MDTraj, t= 54.0
 51
    1UNL     O1    1   0.308   0.244  -0.227
    1UNL     C1    2   0.205   0.215  -0.134
    1UNL     C2    3   0.265   0.157  -0.013
    1UNL     O2    4   0.160   0.151   0.084
    1UNL     C3    5   0.116   0.017   0.133
    1UNL     O3    6   0.060  -0.070   0.044
    1UNL     C4    7  -0.051  -0.019  -0.017
    1UNL     O4    8  -0.063  -0.039  -0.164
    1UNL     C5    9  -0.072  -0.186  -0.184
    1UNL    CL1   10   0.099  -0.252  -0.175
    1UNL     C6   11  -0.151  -0.265  -0.077
    1UNL     C7   12  -0.252  -0.169  -0.002
    1UNL     C8   13  -0.365  -0.125  -0.094
    1UNL     C9   14  -0.373   0.029  -0.080
    1UNL     O5   15  -0.317   0.094  -0.196
    1UNL    C10   16  -0.287   0.070   0.042
    1UNL     O6   17  -0.371   0.075   0.159
    1UNL    C11   18  -0.229   0.211   0.025
    1UNL     O7   19  -0.143   0.250   0.124
    1UNL    C12   20  -0.185  -0.043   0.060
    1UNL    C13   21   0.239  -0.054   0.197
    1UNL     O8   22   0.300   0.039   0.296
    1UNL    C14   23   0.345  -0.064   0.084
    1UNL     O9   24   0.357  -0.197   0.044
    1UNL    C15   25   0.307   0.016  -0.044
    1UNL    O10   26   0.404   0.008  -0.147
    1UNL     H1   27   0.380   0.185  -0.209
    1UNL     H2   28   0.160   0.316  -0.108
    1UNL     H3   29   0.115   0.166  -0.165
    1UNL     H4   30   0.343   0.220   0.032
    1UNL     H5   31   0.035   0.029   0.212
    1UNL     H6   32  -0.023   0.087  -0.014
    1UNL     H7   33  -0.125  -0.197  -0.284
    1UNL     H8   34  -0.072  -0.307  -0.007
    1UNL     H9   35  -0.216  -0.349  -0.121
    1UNL    H10   36  -0.286  -0.228   0.083
    1UNL    H11   37  -0.351  -0.163  -0.197
    1UNL    H12   38  -0.467  -0.160  -0.062
    1UNL    H13   39  -0.475   0.060  -0.064
    1UNL    H14   40  -0.229   0.052  -0.207
    1UNL    H15   41  -0.325   0.124   0.223
    1UNL    H16   42  -0.315   0.284   0.020
    1UNL    H17   43  -0.176   0.230  -0.065
    1UNL    H18   44  -0.059   0.200   0.114
    1UNL    H19   45  -0.163  -0.070   0.165
    1UNL    H20   46   0.220  -0.153   0.242
    1UNL    H21   47   0.270   0.130   0.282
    1UNL    H22   48   0.441  -0.022   0.127
    1UNL    H23   49   0.270  -0.219   0.001
    1UNL    H24   50   0.222  -0.039  -0.078
    1UNL    H25   51   0.424  -0.085  -0.165
   0.00000   0.00000   0.00000   0.00000   0.00000   0.00000   0.00000   0.00000   0.00000
Generated with MDTraj, t= 55.0
 51
    1UNL     O1    1   0.330   0.252  -0.220
    1UNL     C1    2   0.215   0.224  -0.143
    1UNL     C2    3   0.239   0.154  -0.009
    1UNL     O2    4   0.129   0.147   0.085
    1UNL     C3    5   0.107   0.011   0.130
    1UNL     O3    6   0.058  -0.074   0.031
    1UNL     C4    7  -0.043  -0.008  -0.034
    1UNL     O4    8  -0.063  -0.052  -0.172
    1UNL     C5    9  -0.068  -0.195  -0.176
    1UNL    CL1   10   0.097  -0.253  -0.190
    1UNL     C6   11  -0.131  -0.256  -0.054
    1UNL     C7   12  -0.240  -0.156   0.012
    1UNL     C8   13  -0.356  -0.118  -0.077
    1UNL     C9   14  -0.372   0.030  -0.081
    1UNL     O5   15  -0.316   0.081  -0.200
    1UNL    C10   16  -0.286   0.075   0.039
    1UNL     O6   17  -0.369   0.072   0.162
    1UNL    C11   18  -0.233   0.222   0.034
    1UNL     O7   19  -0.149   0.245   0.141
    1UNL    C12   20  -0.173  -0.025   0.054
    1UNL    C13   21   0.236  -0.046   0.185
    1UNL     O8   22   0.294   0.035   0.293
    1UNL    C14   23   0.338  -0.071   0.078
    1UNL     O9   24   0.353  -0.213   0.068
    1UNL    C15   25   0.297   0.009  -0.053
    1UNL    O10   26   0.411   0.015  -0.144
    1UNL     H1   27   0.382   0.167  -0.236
    1UNL     H2   28   0.150   0.316  -0.131
    1UNL     H3   29   0.142   0.171  -0.202
    1UNL     H4   30   0.318   0.217   0.037
    1UNL     H5   31   0.034   0.009   0.219
    1UNL     H6   32  -0.015   0.098  -0.044
    1UNL     H7   33  -0.134  -0.225  -0.265
    1UNL     H8   34  -0.051  -0.265   0.027
    1UNL     H9   35  -0.178  -0.357  -0.075
    1UNL    H10   36  -0.264  -0.209   0.106
    1UNL    H11   37  -0.361  -0.153  -0.180
    1UNL    H12   38  -0.445  -0.166  -0.026
    1UNL    H13   39  -0.475   0.060  -0.073
    1UNL    H14   40  -0.223   0.047  -0.207
    1UNL    H15   41  -0.331   0.132   0.223
    1UNL    H16   42  -0.314   0.296   0.042
    1UNL    H17   43  -0.196   0.247  -0.060
    1UNL    H18   44  -0.062   0.199   0.125
    1UNL    H19   45  -0.154  -0.021   0.165
    1UNL    H20   46   0.225  -0.150   0.214
    1UNL    H21   47   0.266   0.129   0.283
    1UNL    H22   48   0.438  -0.025   0.105
    1UNL    H23   49   0.273  -0.246   0.018
    1UNL    H24   50   0.222  -0.046  -0.103
    1UNL    H25   51   0.425  -0.072  -0.178
   0.00000   0.00000   0.00000   0.00000   0.00000   0.00000   0.00000   0.00000   0.00000
Generated with MDTraj, t= 56.0
 51
    1UNL     O1    1   0.316   0.272  -0.219
    1UNL     C1    2   0.216   0.254  -0.128
    1UNL     C2    3   0.256   0.159  -0.008
    1UNL     O2    4   0.151   0.147   0.089
    1UNL     C3    5   0.122   0.015   0.139
    1UNL     O3    6   0.057  -0.068   0.039
    1UNL     C4    7  -0.050  -0.014  -0.028
    1UNL     O4    8  -0.064  -0.063  -0.162
    1UNL     C5    9  -0.078  -0.202  -0.175
    1UNL    CL1   10   0.082  -0.264  -0.184
    1UNL     C6   11  -0.160  -0.271  -0.065
    1UNL     C7   12  -0.258  -0.169   0.010
    1UNL     C8   13  -0.377  -0.125  -0.080
    1UNL     C9   14  -0.379   0.032  -0.083
    1UNL     O5   15  -0.316   0.082  -0.208
    1UNL    C10   16  -0.288   0.072   0.037
    1UNL     O6   17  -0.367   0.080   0.158
    1UNL    C11   18  -0.233   0.213   0.017
    1UNL     O7   19  -0.158   0.257   0.127
    1UNL    C12   20  -0.178  -0.040   0.048
    1UNL    C13   21   0.254  -0.052   0.194
    1UNL     O8   22   0.315   0.031   0.294
    1UNL    C14   23   0.355  -0.074   0.080
    1UNL     O9   24   0.348  -0.211   0.043
    1UNL    C15   25   0.319   0.015  -0.051
    1UNL    O10   26   0.440   0.030  -0.134
    1UNL     H1   27   0.379   0.198  -0.214
    1UNL     H2   28   0.169   0.350  -0.097
    1UNL     H3   29   0.128   0.213  -0.179
    1UNL     H4   30   0.340   0.209   0.050
    1UNL     H5   31   0.050   0.026   0.230
    1UNL     H6   32  -0.034   0.095  -0.044
    1UNL     H7   33  -0.126  -0.229  -0.276
    1UNL     H8   34  -0.091  -0.305   0.018
    1UNL     H9   35  -0.226  -0.355  -0.101
    1UNL    H10   36  -0.293  -0.224   0.103
    1UNL    H11   37  -0.378  -0.164  -0.181
    1UNL    H12   38  -0.479  -0.157  -0.042
    1UNL    H13   39  -0.472   0.083  -0.066
    1UNL    H14   40  -0.227   0.041  -0.218
    1UNL    H15   41  -0.329   0.150   0.222
    1UNL    H16   42  -0.314   0.275  -0.018
    1UNL    H17   43  -0.173   0.220  -0.065
    1UNL    H18   44  -0.070   0.212   0.128
    1UNL    H19   45  -0.157  -0.045   0.160
    1UNL    H20   46   0.236  -0.143   0.247
    1UNL    H21   47   0.301   0.125   0.274
    1UNL    H22   48   0.457  -0.054   0.124
    1UNL    H23   49   0.254  -0.234   0.025
    1UNL    H24   50   0.247  -0.046  -0.103
    1UNL    H25   51   0.464  -0.061  -0.171
   0.00000   0.00000   0.00000   0.00000   0.00000   0.00000   0.00000   0.00000   0.00000
Generated with MDTraj, t= 57.0
 51
    1UNL     O1    1   0.309   0.290  -0.192
    1UNL     C1    2   0.205   0.235  -0.121
    1UNL     C2    3   0.248   0.160   0.001
    1UNL     O2    4   0.142   0.138   0.097
    1UNL     C3    5   0.121   0.005   0.143
    1UNL     O3    6   0.052  -0.091   0.052
    1UNL     C4    7  -0.046  -0.017  -0.019
    1UNL     O4    8  -0.063  -0.062  -0.161
    1UNL     C5    9  -0.076  -0.204  -0.172
    1UNL    CL1   10   0.084  -0.284  -0.167
    1UNL     C6   11  -0.163  -0.265  -0.062
    1UNL     C7   12  -0.263  -0.167   0.017
    1UNL     C8   13  -0.386  -0.124  -0.070
    1UNL     C9   14  -0.375   0.035  -0.085
    1UNL     O5   15  -0.317   0.074  -0.209
    1UNL    C10   16  -0.281   0.082   0.027
    1UNL     O6   17  -0.364   0.092   0.145
    1UNL    C11   18  -0.207   0.219   0.003
    1UNL     O7   19  -0.131   0.260   0.114
    1UNL    C12   20  -0.185  -0.030   0.049
    1UNL    C13   21   0.254  -0.055   0.184
    1UNL     O8   22   0.297   0.030   0.287
    1UNL    C14   23   0.345  -0.072   0.057
    1UNL     O9   24   0.358  -0.197  -0.010
    1UNL    C15   25   0.312   0.033  -0.060
    1UNL    O10   26   0.440   0.047  -0.117
    1UNL     H1   27   0.385   0.231  -0.190
    1UNL     H2   28   0.149   0.323  -0.086
    1UNL     H3   29   0.118   0.191  -0.175
    1UNL     H4   30   0.326   0.214   0.064
    1UNL     H5   31   0.047   0.009   0.233
    1UNL     H6   32   0.002   0.082  -0.040
    1UNL     H7   33  -0.108  -0.235  -0.275
    1UNL     H8   34  -0.092  -0.301   0.020
    1UNL     H9   35  -0.226  -0.349  -0.101
    1UNL    H10   36  -0.302  -0.218   0.111
    1UNL    H11   37  -0.372  -0.170  -0.166
    1UNL    H12   38  -0.489  -0.167  -0.045
    1UNL    H13   39  -0.467   0.089  -0.063
    1UNL    H14   40  -0.227   0.032  -0.213
    1UNL    H15   41  -0.316   0.141   0.223
    1UNL    H16   42  -0.286   0.289  -0.005
    1UNL    H17   43  -0.155   0.224  -0.086
    1UNL    H18   44  -0.049   0.206   0.111
    1UNL    H19   45  -0.165  -0.024   0.163
    1UNL    H20   46   0.232  -0.149   0.230
    1UNL    H21   47   0.267   0.122   0.272
    1UNL    H22   48   0.445  -0.053   0.103
    1UNL    H23   49   0.279  -0.215  -0.063
    1UNL    H24   50   0.246  -0.005  -0.140
    1UNL    H25   51   0.473  -0.036  -0.169
   0.00000   0.00000   0.00000   0.00000   0.00000   0.00000   0.00000   0.00000   0.00000
Generated with MDTraj, t= 58.0
 51
    1UNL     O1    1   0.285   0.320  -0.159
    1UNL     C1    2   0.185   0.257  -0.090
    1UNL     C2    3   0.228   0.149   0.009
    1UNL     O2    4   0.130   0.128   0.105
    1UNL     C3    5   0.118  -0.006   0.141
    1UNL     O3    6   0.065  -0.087   0.024
    1UNL     C4    7  -0.033  -0.026  -0.051
    1UNL     O4    8  -0.077  -0.088  -0.172
    1UNL     C5    9  -0.088  -0.230  -0.158
    1UNL    CL1   10   0.069  -0.295  -0.157
    1UNL     C6   11  -0.160  -0.273  -0.036
    1UNL     C7   12  -0.250  -0.155   0.022
    1UNL     C8   13  -0.364  -0.110  -0.074
    1UNL     C9   14  -0.353   0.043  -0.095
    1UNL     O5   15  -0.304   0.077  -0.219
    1UNL    C10   16  -0.262   0.091   0.022
    1UNL     O6   17  -0.351   0.097   0.136
    1UNL    C11   18  -0.200   0.234  -0.006
    1UNL     O7   19  -0.124   0.280   0.103
    1UNL    C12   20  -0.159  -0.030   0.046
    1UNL    C13   21   0.255  -0.066   0.184
    1UNL     O8   22   0.307   0.008   0.290
    1UNL    C14   23   0.348  -0.066   0.057
    1UNL     O9   24   0.371  -0.191   0.000
    1UNL    C15   25   0.297   0.022  -0.060
    1UNL    O10   26   0.404   0.062  -0.136
    1UNL     H1   27   0.347   0.246  -0.192
    1UNL     H2   28   0.111   0.328  -0.053
    1UNL     H3   29   0.114   0.216  -0.167
    1UNL     H4   30   0.308   0.200   0.076
    1UNL     H5   31   0.046  -0.016   0.232
    1UNL     H6   32   0.005   0.073  -0.079
    1UNL     H7   33  -0.128  -0.259  -0.256
    1UNL     H8   34  -0.080  -0.293   0.044
    1UNL     H9   35  -0.216  -0.367  -0.060
    1UNL    H10   36  -0.300  -0.184   0.121
    1UNL    H11   37  -0.343  -0.159  -0.167
    1UNL    H12   38  -0.463  -0.151  -0.039
    1UNL    H13   39  -0.455   0.085  -0.091
    1UNL    H14   40  -0.218   0.029  -0.230
    1UNL    H15   41  -0.308   0.120   0.217
    1UNL    H16   42  -0.277   0.307  -0.030
    1UNL    H17   43  -0.137   0.221  -0.086
    1UNL    H18   44  -0.041   0.224   0.112
    1UNL    H19   45  -0.115  -0.018   0.150
    1UNL    H20   46   0.251  -0.168   0.221
    1UNL    H21   47   0.304   0.105   0.273
    1UNL    H22   48   0.447  -0.037   0.095
    1UNL    H23   49   0.299  -0.217  -0.061
    1UNL    H24   50   0.226  -0.034  -0.128
    1UNL    H25   51   0.432  -0.013  -0.196
   0.00000   0.00000   0.00000   0.00000   0.00000   0.00000   0.00000   0.00000   0.00000
Generated with MDTraj, t= 59.0
 51
    1UNL     O1    1   0.285   0.335  -0.146
    1UNL     C1    2   0.184   0.287  -0.063
    1UNL     C2    3   0.222   0.161   0.020
    1UNL     O2    4   0.122   0.123   0.109
    1UNL     C3    5   0.121  -0.018   0.146
    1UNL     O3    6   0.060  -0.104   0.043
    1UNL     C4    7  -0.039  -0.043  -0.032
    1UNL     O4    8  -0.055  -0.098  -0.169
    1UNL     C5    9  -0.084  -0.241  -0.163
    1UNL    CL1   10   0.070  -0.321  -0.150
    1UNL     C6   11  -0.167  -0.272  -0.037
    1UNL     C7   12  -0.253  -0.152   0.018
    1UNL     C8   13  -0.372  -0.111  -0.072
    1UNL     C9   14  -0.352   0.041  -0.099
    1UNL     O5   15  -0.296   0.080  -0.223
    1UNL    C10   16  -0.265   0.095   0.017
    1UNL     O6   17  -0.351   0.142   0.128
    1UNL    C11   18  -0.183   0.221  -0.024
    1UNL     O7   19  -0.120   0.279   0.083
    1UNL    C12   20  -0.174  -0.025   0.048
    1UNL    C13   21   0.266  -0.075   0.178
    1UNL     O8   22   0.323  -0.020   0.297
    1UNL    C14   23   0.347  -0.057   0.042
    1UNL     O9   24   0.385  -0.185  -0.009
    1UNL    C15   25   0.285   0.043  -0.064
    1UNL    O10   26   0.377   0.089  -0.163
    1UNL     H1   27   0.332   0.259  -0.179
    1UNL     H2   28   0.143   0.374  -0.011
    1UNL     H3   29   0.086   0.275  -0.120
    1UNL     H4   30   0.308   0.194   0.088
    1UNL     H5   31   0.058  -0.028   0.244
    1UNL     H6   32   0.002   0.056  -0.050
    1UNL     H7   33  -0.133  -0.263  -0.256
    1UNL     H8   34  -0.095  -0.316   0.040
    1UNL     H9   35  -0.238  -0.356  -0.059
    1UNL    H10   36  -0.305  -0.187   0.115
    1UNL    H11   37  -0.353  -0.169  -0.163
    1UNL    H12   38  -0.469  -0.132  -0.021
    1UNL    H13   39  -0.446   0.103  -0.101
    1UNL    H14   40  -0.213   0.029  -0.237
    1UNL    H15   41  -0.301   0.197   0.189
    1UNL    H16   42  -0.269   0.288  -0.050
    1UNL    H17   43  -0.119   0.208  -0.106
    1UNL    H18   44  -0.034   0.235   0.105
    1UNL    H19   45  -0.146  -0.040   0.157
    1UNL    H20   46   0.271  -0.184   0.194
    1UNL    H21   47   0.327   0.079   0.291
    1UNL    H22   48   0.438  -0.004   0.064
    1UNL    H23   49   0.303  -0.227  -0.048
    1UNL    H24   50   0.203  -0.009  -0.124
    1UNL    H25   51   0.386   0.019  -0.225
   0.00000   0.00000   0.00000   0.00000   0.00000   0.00000   0.00000   0.00000   0.00000
Generated with MDTraj, t= 60.0
 51
    1UNL     O1    1   0.287   0.346  -0.110
    1UNL     C1    2   0.183   0.269  -0.056
    1UNL     C2    3   0.233   0.161   0.036
    1UNL     O2    4   0.135   0.113   0.136
    1UNL     C3    5   0.134  -0.028   0.144
    1UNL     O3    6   0.064  -0.101   0.049
    1UNL     C4    7  -0.034  -0.035  -0.025
    1UNL     O4    8  -0.050  -0.089  -0.159
    1UNL     C5    9  -0.085  -0.228  -0.151
    1UNL    CL1   10   0.056  -0.317  -0.130
    1UNL     C6   11  -0.173  -0.262  -0.032
    1UNL     C7   12  -0.258  -0.151   0.015
    1UNL     C8   13  -0.380  -0.110  -0.072
    1UNL     C9   14  -0.353   0.039  -0.109
    1UNL     O5   15  -0.283   0.042  -0.225
    1UNL    C10   16  -0.271   0.098   0.004
    1UNL     O6   17  -0.359   0.137   0.102
    1UNL    C11   18  -0.195   0.223  -0.038
    1UNL     O7   19  -0.111   0.263   0.067
    1UNL    C12   20  -0.177  -0.021   0.053
    1UNL    C13   21   0.281  -0.081   0.159
    1UNL     O8   22   0.331  -0.011   0.270
    1UNL    C14   23   0.359  -0.061   0.023
    1UNL     O9   24   0.354  -0.184  -0.055
    1UNL    C15   25   0.291   0.050  -0.062
    1UNL    O10   26   0.386   0.108  -0.150
    1UNL     H1   27   0.364   0.285  -0.132
    1UNL     H2   28   0.112   0.332  -0.000
    1UNL     H3   29   0.101   0.245  -0.133
    1UNL     H4   30   0.321   0.191   0.099
    1UNL     H5   31   0.075  -0.041   0.245
    1UNL     H6   32  -0.002   0.065  -0.049
    1UNL     H7   33  -0.148  -0.249  -0.235
    1UNL     H8   34  -0.107  -0.300   0.052
    1UNL     H9   35  -0.231  -0.357  -0.053
    1UNL    H10   36  -0.306  -0.175   0.118
    1UNL    H11   37  -0.383  -0.186  -0.154
    1UNL    H12   38  -0.468  -0.106  -0.005
    1UNL    H13   39  -0.448   0.100  -0.123
    1UNL    H14   40  -0.196  -0.004  -0.216
    1UNL    H15   41  -0.310   0.211   0.158
    1UNL    H16   42  -0.263   0.312  -0.059
    1UNL    H17   43  -0.144   0.194  -0.128
    1UNL    H18   44  -0.036   0.202   0.081
    1UNL    H19   45  -0.163  -0.005   0.163
    1UNL    H20   46   0.278  -0.189   0.189
    1UNL    H21   47   0.286   0.076   0.266
    1UNL    H22   48   0.459  -0.033   0.046
    1UNL    H23   49   0.267  -0.230  -0.053
    1UNL    H24   50   0.205  -0.001  -0.119
    1UNL    H25   51   0.398   0.056  -0.230
   0.00000   0.00000   0.00000   0.00000   0.00000   0.00000   0.00000   0.00000   0.00000
Generated with MDTraj, t= 61.0
 51
    1UNL     O1    1   0.298   0.362  -0.088
    1UNL     C1    2   0.188   0.294  -0.043
    1UNL     C2    3   0.235   0.171   0.029
    1UNL     O2    4   0.123   0.118   0.115
    1UNL     C3    5   0.127  -0.025   0.145
    1UNL     O3    6   0.052  -0.109   0.063
    1UNL     C4    7  -0.036  -0.049  -0.034
    1UNL     O4    8  -0.059  -0.108  -0.159
    1UNL     C5    9  -0.090  -0.247  -0.134
    1UNL    CL1   10   0.062  -0.323  -0.137
    1UNL     C6   11  -0.174  -0.273  -0.001
    1UNL     C7   12  -0.256  -0.152   0.023
    1UNL     C8   13  -0.372  -0.122  -0.081
    1UNL     C9   14  -0.357   0.035  -0.113
    1UNL     O5   15  -0.291   0.058  -0.234
    1UNL    C10   16  -0.261   0.094  -0.002
    1UNL     O6   17  -0.328   0.136   0.120
    1UNL    C11   18  -0.189   0.227  -0.052
    1UNL     O7   19  -0.119   0.286   0.060
    1UNL    C12   20  -0.169  -0.024   0.039
    1UNL    C13   21   0.269  -0.082   0.160
    1UNL     O8   22   0.336  -0.024   0.268
    1UNL    C14   23   0.339  -0.062   0.023
    1UNL     O9   24   0.334  -0.180  -0.060
    1UNL    C15   25   0.293   0.059  -0.067
    1UNL    O10   26   0.396   0.111  -0.147
    1UNL     H1   27   0.358   0.293  -0.127
    1UNL     H2   28   0.120   0.359   0.014
    1UNL     H3   29   0.107   0.266  -0.117
    1UNL     H4   30   0.324   0.198   0.089
    1UNL     H5   31   0.079  -0.020   0.252
    1UNL     H6   32   0.005   0.048  -0.057
    1UNL     H7   33  -0.151  -0.282  -0.217
    1UNL     H8   34  -0.100  -0.303   0.077
    1UNL     H9   35  -0.237  -0.366  -0.014
    1UNL    H10   36  -0.309  -0.160   0.127
    1UNL    H11   37  -0.363  -0.185  -0.174
    1UNL    H12   38  -0.463  -0.147  -0.025
    1UNL    H13   39  -0.457   0.090  -0.108
    1UNL    H14   40  -0.207   0.008  -0.236
    1UNL    H15   41  -0.271   0.210   0.152
    1UNL    H16   42  -0.269   0.300  -0.086
    1UNL    H17   43  -0.127   0.223  -0.145
    1UNL    H18   44  -0.049   0.221   0.088
    1UNL    H19   45  -0.144  -0.024   0.148
    1UNL    H20   46   0.257  -0.192   0.186
    1UNL    H21   47   0.325   0.072   0.260
    1UNL    H22   48   0.439  -0.037   0.053
    1UNL    H23   49   0.252  -0.232  -0.058
    1UNL    H24   50   0.205   0.023  -0.131
    1UNL    H25   51   0.419   0.051  -0.226
   0.00000   0.00000   0.00000   0.00000   0.00000   0.00000   0.00000   0.00000   0.00000
Generated with MDTraj, t= 62.0
 51
    1UNL     O1    1   0.311   0.367  -0.087
    1UNL     C1    2   0.206   0.305  -0.021
    1UNL     C2    3   0.240   0.170   0.037
    1UNL     O2    4   0.121   0.125   0.120
    1UNL     C3    5   0.122  -0.022   0.130
    1UNL     O3    6   0.069  -0.094   0.022
    1UNL     C4    7  -0.043  -0.045  -0.059
    1UNL     O4    8  -0.068  -0.119  -0.176
    1UNL     C5    9  -0.103  -0.253  -0.143
    1UNL    CL1   10   0.048  -0.340  -0.138
    1UNL     C6   11  -0.181  -0.273  -0.009
    1UNL     C7   12  -0.257  -0.149   0.037
    1UNL     C8   13  -0.381  -0.110  -0.057
    1UNL     C9   14  -0.358   0.035  -0.103
    1UNL     O5   15  -0.298   0.038  -0.230
    1UNL    C10   16  -0.262   0.097   0.001
    1UNL     O6   17  -0.340   0.123   0.120
    1UNL    C11   18  -0.191   0.232  -0.044
    1UNL     O7   19  -0.105   0.277   0.060
    1UNL    C12   20  -0.167  -0.022   0.039
    1UNL    C13   21   0.268  -0.072   0.161
    1UNL     O8   22   0.319  -0.012   0.277
    1UNL    C14   23   0.353  -0.049   0.032
    1UNL     O9   24   0.371  -0.170  -0.044
    1UNL    C15   25   0.297   0.060  -0.065
    1UNL    O10   26   0.395   0.103  -0.154
    1UNL     H1   27   0.370   0.300  -0.121
    1UNL     H2   28   0.148   0.367   0.051
    1UNL     H3   29   0.119   0.293  -0.088
    1UNL     H4   30   0.331   0.197   0.092
    1UNL     H5   31   0.059  -0.041   0.227
    1UNL     H6   32  -0.005   0.050  -0.093
    1UNL     H7   33  -0.150  -0.296  -0.235
    1UNL     H8   34  -0.107  -0.311   0.066
    1UNL     H9   35  -0.251  -0.357  -0.032
    1UNL    H10   36  -0.299  -0.164   0.145
    1UNL    H11   37  -0.376  -0.174  -0.152
    1UNL    H12   38  -0.481  -0.126  -0.019
    1UNL    H13   39  -0.454   0.096  -0.097
    1UNL    H14   40  -0.209  -0.006  -0.228
    1UNL    H15   41  -0.312   0.200   0.163
    1UNL    H16   42  -0.268   0.316  -0.064
    1UNL    H17   43  -0.142   0.231  -0.145
    1UNL    H18   44  -0.027   0.218   0.071
    1UNL    H19   45  -0.138   0.000   0.143
    1UNL    H20   46   0.273  -0.187   0.163
    1UNL    H21   47   0.293   0.082   0.280
    1UNL    H22   48   0.450  -0.006   0.053
    1UNL    H23   49   0.284  -0.209  -0.070
    1UNL    H24   50   0.209   0.015  -0.120
    1UNL    H25   51   0.410   0.030  -0.225
   0.00000   0.00000   0.00000   0.00000   0.00000   0.00000   0.00000   0.00000   0.00000
Generated with MDTraj, t= 63.0
 51
    1UNL     O1    1   0.322   0.349  -0.088
    1UNL     C1    2   0.197   0.288  -0.057
    1UNL     C2    3   0.233   0.166   0.029
    1UNL     O2    4   0.116   0.113   0.103
    1UNL     C3    5   0.120  -0.026   0.119
    1UNL     O3    6   0.077  -0.102   0.015
    1UNL     C4    7  -0.034  -0.037  -0.055
    1UNL     O4    8  -0.085  -0.103  -0.167
    1UNL     C5    9  -0.096  -0.244  -0.148
    1UNL    CL1   10   0.048  -0.335  -0.144
    1UNL     C6   11  -0.170  -0.275  -0.016
    1UNL     C7   12  -0.248  -0.150   0.034
    1UNL     C8   13  -0.369  -0.120  -0.054
    1UNL     C9   14  -0.363   0.028  -0.088
    1UNL     O5   15  -0.321   0.052  -0.222
    1UNL    C10   16  -0.266   0.092   0.017
    1UNL     O6   17  -0.346   0.140   0.126
    1UNL    C11   18  -0.196   0.215  -0.039
    1UNL     O7   19  -0.113   0.281   0.045
    1UNL    C12   20  -0.160  -0.019   0.047
    1UNL    C13   21   0.261  -0.080   0.165
    1UNL     O8   22   0.304  -0.006   0.280
    1UNL    C14   23   0.357  -0.049   0.036
    1UNL     O9   24   0.375  -0.164  -0.039
    1UNL    C15   25   0.308   0.062  -0.058
    1UNL    O10   26   0.421   0.111  -0.125
    1UNL     H1   27   0.378   0.276  -0.127
    1UNL     H2   28   0.124   0.356  -0.005
    1UNL     H3   29   0.127   0.269  -0.139
    1UNL     H4   30   0.302   0.208   0.100
    1UNL     H5   31   0.053  -0.039   0.213
    1UNL     H6   32   0.012   0.056  -0.086
    1UNL     H7   33  -0.144  -0.294  -0.240
    1UNL     H8   34  -0.087  -0.296   0.054
    1UNL     H9   35  -0.239  -0.363  -0.026
    1UNL    H10   36  -0.292  -0.170   0.139
    1UNL    H11   37  -0.371  -0.176  -0.153
    1UNL    H12   38  -0.467  -0.148  -0.016
    1UNL    H13   39  -0.463   0.077  -0.077
    1UNL    H14   40  -0.235   0.011  -0.241
    1UNL    H15   41  -0.317   0.231   0.160
    1UNL    H16   42  -0.275   0.286  -0.084
    1UNL    H17   43  -0.136   0.193  -0.132
    1UNL    H18   44  -0.030   0.228   0.061
    1UNL    H19   45  -0.138   0.002   0.150
    1UNL    H20   46   0.261  -0.193   0.190
    1UNL    H21   47   0.242   0.071   0.292
    1UNL    H22   48   0.451  -0.012   0.078
    1UNL    H23   49   0.292  -0.185  -0.091
    1UNL    H24   50   0.229   0.014  -0.122
    1UNL    H25   51   0.445   0.046  -0.194
   0.00000   0.00000   0.00000   0.00000   0.00000   0.00000   0.00000   0.00000   0.00000
Generated with MDTraj, t= 64.0
 51
    1UNL     O1    1   0.306   0.363  -0.115
    1UNL     C1    2   0.196   0.283  -0.072
    1UNL     C2    3   0.236   0.168   0.022
    1UNL     O2    4   0.122   0.121   0.104
    1UNL     C3    5   0.123  -0.016   0.125
    1UNL     O3    6   0.065  -0.099   0.019
    1UNL     C4    7  -0.048  -0.035  -0.046
    1UNL     O4    8  -0.080  -0.101  -0.165
    1UNL     C5    9  -0.093  -0.238  -0.160
    1UNL    CL1   10   0.065  -0.311  -0.163
    1UNL     C6   11  -0.166  -0.270  -0.027
    1UNL     C7   12  -0.248  -0.154   0.048
    1UNL     C8   13  -0.375  -0.119  -0.033
    1UNL     C9   14  -0.366   0.029  -0.086
    1UNL     O5   15  -0.333   0.034  -0.224
    1UNL    C10   16  -0.259   0.090   0.012
    1UNL     O6   17  -0.334   0.130   0.135
    1UNL    C11   18  -0.192   0.216  -0.053
    1UNL     O7   19  -0.118   0.289   0.039
    1UNL    C12   20  -0.166  -0.024   0.050
    1UNL    C13   21   0.262  -0.072   0.170
    1UNL     O8   22   0.310  -0.020   0.294
    1UNL    C14   23   0.347  -0.062   0.041
    1UNL     O9   24   0.344  -0.191  -0.017
    1UNL    C15   25   0.316   0.055  -0.053
    1UNL    O10   26   0.437   0.098  -0.111
    1UNL     H1   27   0.382   0.303  -0.113
    1UNL     H2   28   0.116   0.351  -0.032
    1UNL     H3   29   0.131   0.254  -0.154
    1UNL     H4   30   0.310   0.208   0.087
    1UNL     H5   31   0.058  -0.026   0.220
    1UNL     H6   32  -0.006   0.062  -0.074
    1UNL     H7   33  -0.152  -0.283  -0.248
    1UNL     H8   34  -0.099  -0.311   0.048
    1UNL     H9   35  -0.243  -0.346  -0.057
    1UNL    H10   36  -0.269  -0.189   0.157
    1UNL    H11   37  -0.384  -0.182  -0.125
    1UNL    H12   38  -0.471  -0.148   0.013
    1UNL    H13   39  -0.460   0.085  -0.070
    1UNL    H14   40  -0.255  -0.025  -0.238
    1UNL    H15   41  -0.293   0.220   0.166
    1UNL    H16   42  -0.277   0.288  -0.083
    1UNL    H17   43  -0.138   0.196  -0.149
    1UNL    H18   44  -0.051   0.227   0.078
    1UNL    H19   45  -0.138  -0.015   0.151
    1UNL    H20   46   0.245  -0.184   0.187
    1UNL    H21   47   0.285   0.076   0.290
    1UNL    H22   48   0.454  -0.045   0.070
    1UNL    H23   49   0.256  -0.211  -0.057
    1UNL    H24   50   0.249   0.020  -0.132
    1UNL    H25   51   0.484   0.040  -0.169
   0.00000   0.00000   0.00000   0.00000   0.00000   0.00000   0.00000   0.00000   0.00000
Generated with MDTraj, t= 65.0
 51
    1UNL     O1    1   0.305   0.328  -0.144
    1UNL     C1    2   0.207   0.284  -0.061
    1UNL     C2    3   0.243   0.165   0.025
    1UNL     O2    4   0.134   0.124   0.119
    1UNL     C3    5   0.118  -0.015   0.143
    1UNL     O3    6   0.059  -0.094   0.029
    1UNL     C4    7  -0.041  -0.013  -0.042
    1UNL     O4    8  -0.076  -0.072  -0.163
    1UNL     C5    9  -0.081  -0.214  -0.157
    1UNL    CL1   10   0.072  -0.299  -0.178
    1UNL     C6   11  -0.163  -0.266  -0.035
    1UNL     C7   12  -0.252  -0.154   0.033
    1UNL     C8   13  -0.391  -0.124  -0.031
    1UNL     C9   14  -0.374   0.021  -0.087
    1UNL     O5   15  -0.333   0.014  -0.223
    1UNL    C10   16  -0.275   0.090   0.013
    1UNL     O6   17  -0.336   0.117   0.138
    1UNL    C11   18  -0.215   0.219  -0.048
    1UNL     O7   19  -0.115   0.280   0.039
    1UNL    C12   20  -0.167  -0.017   0.049
    1UNL    C13   21   0.254  -0.079   0.182
    1UNL     O8   22   0.312   0.002   0.281
    1UNL    C14   23   0.347  -0.068   0.055
    1UNL     O9   24   0.365  -0.194  -0.005
    1UNL    C15   25   0.311   0.041  -0.049
    1UNL    O10   26   0.425   0.080  -0.125
    1UNL     H1   27   0.357   0.249  -0.163
    1UNL     H2   28   0.154   0.364  -0.005
    1UNL     H3   29   0.124   0.266  -0.127
    1UNL     H4   30   0.323   0.186   0.090
    1UNL     H5   31   0.052  -0.020   0.235
    1UNL     H6   32  -0.006   0.089  -0.055
    1UNL     H7   33  -0.144  -0.244  -0.246
    1UNL     H8   34  -0.088  -0.297   0.038
    1UNL     H9   35  -0.230  -0.351  -0.058
    1UNL    H10   36  -0.267  -0.199   0.139
    1UNL    H11   37  -0.414  -0.204  -0.102
    1UNL    H12   38  -0.479  -0.124   0.039
    1UNL    H13   39  -0.468   0.076  -0.091
    1UNL    H14   40  -0.245  -0.026  -0.232
    1UNL    H15   41  -0.303   0.200   0.167
    1UNL    H16   42  -0.299   0.292  -0.068
    1UNL    H17   43  -0.167   0.191  -0.145
    1UNL    H18   44  -0.043   0.222   0.071
    1UNL    H19   45  -0.136   0.003   0.146
    1UNL    H20   46   0.248  -0.182   0.227
    1UNL    H21   47   0.257   0.079   0.303
    1UNL    H22   48   0.456  -0.047   0.081
    1UNL    H23   49   0.281  -0.218  -0.048
    1UNL    H24   50   0.242  -0.007  -0.115
    1UNL    H25   51   0.474   0.012  -0.173
   0.00000   0.00000   0.00000   0.00000   0.00000   0.00000   0.00000   0.00000   0.00000
Generated with MDTraj, t= 66.0
 51
    1UNL     O1    1   0.324   0.313  -0.153
    1UNL     C1    2   0.212   0.254  -0.094
    1UNL     C2    3   0.238   0.162   0.024
    1UNL     O2    4   0.128   0.130   0.114
    1UNL     C3    5   0.118  -0.006   0.146
    1UNL     O3    6   0.066  -0.091   0.039
    1UNL     C4    7  -0.044  -0.016  -0.024
    1UNL     O4    8  -0.062  -0.059  -0.158
    1UNL     C5    9  -0.079  -0.208  -0.158
    1UNL    CL1   10   0.075  -0.289  -0.187
    1UNL     C6   11  -0.142  -0.264  -0.024
    1UNL     C7   12  -0.245  -0.162   0.036
    1UNL     C8   13  -0.364  -0.141  -0.064
    1UNL     C9   14  -0.366   0.015  -0.089
    1UNL     O5   15  -0.330   0.045  -0.222
    1UNL    C10   16  -0.274   0.085   0.017
    1UNL     O6   17  -0.335   0.123   0.143
    1UNL    C11   18  -0.207   0.213  -0.042
    1UNL     O7   19  -0.141   0.280   0.061
    1UNL    C12   20  -0.173  -0.026   0.064
    1UNL    C13   21   0.248  -0.072   0.185
    1UNL     O8   22   0.299  -0.002   0.298
    1UNL    C14   23   0.348  -0.060   0.059
    1UNL     O9   24   0.367  -0.185   0.001
    1UNL    C15   25   0.289   0.037  -0.047
    1UNL    O10   26   0.387   0.055  -0.150
    1UNL     H1   27   0.395   0.240  -0.157
    1UNL     H2   28   0.142   0.340  -0.080
    1UNL     H3   29   0.147   0.211  -0.170
    1UNL     H4   30   0.318   0.203   0.080
    1UNL     H5   31   0.044  -0.016   0.229
    1UNL     H6   32  -0.015   0.088  -0.025
    1UNL     H7   33  -0.149  -0.227  -0.240
    1UNL     H8   34  -0.065  -0.282   0.051
    1UNL     H9   35  -0.191  -0.361  -0.047
    1UNL    H10   36  -0.283  -0.205   0.138
    1UNL    H11   37  -0.342  -0.188  -0.157
    1UNL    H12   38  -0.458  -0.186  -0.018
    1UNL    H13   39  -0.460   0.069  -0.086
    1UNL    H14   40  -0.232   0.028  -0.227
    1UNL    H15   41  -0.331   0.219   0.153
    1UNL    H16   42  -0.290   0.283  -0.063
    1UNL    H17   43  -0.143   0.191  -0.130
    1UNL    H18   44  -0.054   0.239   0.086
    1UNL    H19   45  -0.142  -0.027   0.164
    1UNL    H20   46   0.223  -0.172   0.227
    1UNL    H21   47   0.290   0.093   0.278
    1UNL    H22   48   0.455  -0.023   0.079
    1UNL    H23   49   0.278  -0.226  -0.016
    1UNL    H24   50   0.206  -0.012  -0.091
    1UNL    H25   51   0.386  -0.019  -0.218
   0.00000   0.00000   0.00000   0.00000   0.00000   0.00000   0.00000   0.00000   0.00000
Generated with MDTraj, t= 67.0
 51
    1UNL     O1    1   0.307   0.309  -0.173
    1UNL     C1    2   0.207   0.266  -0.084
    1UNL     C2    3   0.251   0.158   0.016
    1UNL     O2    4   0.136   0.132   0.103
    1UNL     C3    5   0.123  -0.006   0.140
    1UNL     O3    6   0.065  -0.084   0.032
    1UNL     C4    7  -0.048  -0.019  -0.029
    1UNL     O4    8  -0.057  -0.070  -0.160
    1UNL     C5    9  -0.074  -0.209  -0.162
    1UNL    CL1   10   0.091  -0.284  -0.170
    1UNL     C6   11  -0.157  -0.265  -0.048
    1UNL     C7   12  -0.248  -0.162   0.017
    1UNL     C8   13  -0.372  -0.119  -0.068
    1UNL     C9   14  -0.368   0.032  -0.096
    1UNL     O5   15  -0.304   0.052  -0.220
    1UNL    C10   16  -0.284   0.085   0.026
    1UNL     O6   17  -0.372   0.101   0.137
    1UNL    C11   18  -0.223   0.226  -0.007
    1UNL     O7   19  -0.139   0.269   0.093
    1UNL    C12   20  -0.179  -0.032   0.057
    1UNL    C13   21   0.256  -0.066   0.186
    1UNL     O8   22   0.321   0.030   0.277
    1UNL    C14   23   0.352  -0.074   0.058
    1UNL     O9   24   0.352  -0.209   0.029
    1UNL    C15   25   0.297   0.023  -0.051
    1UNL    O10   26   0.384   0.040  -0.159
    1UNL     H1   27   0.331   0.230  -0.222
    1UNL     H2   28   0.167   0.357  -0.036
    1UNL     H3   29   0.112   0.256  -0.140
    1UNL     H4   30   0.328   0.205   0.074
    1UNL     H5   31   0.047  -0.017   0.220
    1UNL     H6   32  -0.032   0.087  -0.045
    1UNL     H7   33  -0.130  -0.222  -0.252
    1UNL     H8   34  -0.087  -0.304   0.026
    1UNL     H9   35  -0.221  -0.349  -0.081
    1UNL    H10   36  -0.290  -0.204   0.116
    1UNL    H11   37  -0.365  -0.179  -0.156
    1UNL    H12   38  -0.468  -0.140  -0.009
    1UNL    H13   39  -0.465   0.075  -0.114
    1UNL    H14   40  -0.215   0.011  -0.215
    1UNL    H15   41  -0.353   0.197   0.172
    1UNL    H16   42  -0.303   0.297  -0.008
    1UNL    H17   43  -0.171   0.225  -0.105
    1UNL    H18   44  -0.049   0.226   0.094
    1UNL    H19   45  -0.148  -0.035   0.159
    1UNL    H20   46   0.251  -0.163   0.235
    1UNL    H21   47   0.289   0.123   0.262
    1UNL    H22   48   0.460  -0.051   0.089
    1UNL    H23   49   0.261  -0.229  -0.007
    1UNL    H24   50   0.208  -0.018  -0.090
    1UNL    H25   51   0.471  -0.012  -0.143
   0.00000   0.00000   0.00000   0.00000   0.00000   0.00000   0.00000   0.00000   0.00000
Generated with MDTraj, t= 68.0
 51
    1UNL     O1    1   0.306   0.291  -0.202
    1UNL     C1    2   0.193   0.252  -0.126
    1UNL     C2    3   0.233   0.169  -0.005
    1UNL     O2    4   0.123   0.144   0.087
    1UNL     C3    5   0.118   0.001   0.144
    1UNL     O3    6   0.066  -0.093   0.052
    1UNL     C4    7  -0.046  -0.028  -0.018
    1UNL     O4    8  -0.056  -0.070  -0.155
    1UNL     C5    9  -0.068  -0.213  -0.165
    1UNL    CL1   10   0.090  -0.289  -0.147
    1UNL     C6   11  -0.168  -0.274  -0.060
    1UNL     C7   12  -0.257  -0.161  -0.003
    1UNL     C8   13  -0.368  -0.110  -0.104
    1UNL     C9   14  -0.360   0.039  -0.102
    1UNL     O5   15  -0.300   0.089  -0.216
    1UNL    C10   16  -0.284   0.081   0.030
    1UNL     O6   17  -0.374   0.093   0.138
    1UNL    C11   18  -0.218   0.216   0.021
    1UNL     O7   19  -0.134   0.251   0.129
    1UNL    C12   20  -0.186  -0.035   0.053
    1UNL    C13   21   0.254  -0.054   0.185
    1UNL     O8   22   0.331   0.024   0.288
    1UNL    C14   23   0.344  -0.067   0.062
    1UNL     O9   24   0.344  -0.201   0.015
    1UNL    C15   25   0.306   0.033  -0.052
    1UNL    O10   26   0.413   0.052  -0.146
    1UNL     H1   27   0.359   0.207  -0.207
    1UNL     H2   28   0.124   0.335  -0.104
    1UNL     H3   29   0.114   0.199  -0.187
    1UNL     H4   30   0.303   0.229   0.053
    1UNL     H5   31   0.050  -0.003   0.230
    1UNL     H6   32  -0.019   0.076  -0.037
    1UNL     H7   33  -0.098  -0.232  -0.264
    1UNL     H8   34  -0.112  -0.321   0.021
    1UNL     H9   35  -0.231  -0.354  -0.101
    1UNL    H10   36  -0.321  -0.194   0.088
    1UNL    H11   37  -0.351  -0.154  -0.201
    1UNL    H12   38  -0.472  -0.146  -0.072
    1UNL    H13   39  -0.461   0.076  -0.096
    1UNL    H14   40  -0.214   0.042  -0.227
    1UNL    H15   41  -0.309   0.129   0.210
    1UNL    H16   42  -0.296   0.286   0.012
    1UNL    H17   43  -0.169   0.226  -0.075
    1UNL    H18   44  -0.043   0.214   0.118
    1UNL    H19   45  -0.168  -0.051   0.158
    1UNL    H20   46   0.239  -0.155   0.215
    1UNL    H21   47   0.324   0.118   0.258
    1UNL    H22   48   0.451  -0.045   0.096
    1UNL    H23   49   0.259  -0.219  -0.029
    1UNL    H24   50   0.230  -0.020  -0.101
    1UNL    H25   51   0.496   0.013  -0.109
   0.00000   0.00000   0.00000   0.00000   0.00000   0.00000   0.00000   0.00000   0.00000
Generated with MDTraj, t= 69.0
 51
    1UNL     O1    1   0.276   0.279  -0.225
    1UNL     C1    2   0.183   0.226  -0.130
    1UNL     C2    3   0.233   0.158  -0.007
    1UNL     O2    4   0.131   0.137   0.088
    1UNL     C3    5   0.119  -0.006   0.129
    1UNL     O3    6   0.068  -0.082   0.028
    1UNL     C4    7  -0.046  -0.021  -0.032
    1UNL     O4    8  -0.058  -0.073  -0.167
    1UNL     C5    9  -0.080  -0.210  -0.169
    1UNL    CL1   10   0.077  -0.293  -0.140
    1UNL     C6   11  -0.173  -0.271  -0.059
    1UNL     C7   12  -0.264  -0.162  -0.002
    1UNL     C8   13  -0.355  -0.100  -0.119
    1UNL     C9   14  -0.346   0.055  -0.102
    1UNL     O5   15  -0.273   0.108  -0.214
    1UNL    C10   16  -0.276   0.084   0.039
    1UNL     O6   17  -0.373   0.072   0.140
    1UNL    C11   18  -0.216   0.227   0.040
    1UNL     O7   19  -0.142   0.241   0.159
    1UNL    C12   20  -0.180  -0.042   0.051
    1UNL    C13   21   0.255  -0.051   0.184
    1UNL     O8   22   0.298   0.042   0.293
    1UNL    C14   23   0.364  -0.054   0.072
    1UNL     O9   24   0.387  -0.188   0.026
    1UNL    C15   25   0.302   0.026  -0.050
    1UNL    O10   26   0.415   0.040  -0.144
    1UNL     H1   27   0.358   0.223  -0.230
    1UNL     H2   28   0.108   0.301  -0.102
    1UNL     H3   29   0.104   0.157  -0.175
    1UNL     H4   30   0.320   0.210   0.040
    1UNL     H5   31   0.053  -0.003   0.214
    1UNL     H6   32  -0.038   0.086  -0.050
    1UNL     H7   33  -0.105  -0.229  -0.270
    1UNL     H8   34  -0.112  -0.312   0.022
    1UNL     H9   35  -0.231  -0.353  -0.104
    1UNL    H10   36  -0.342  -0.194   0.078
    1UNL    H11   37  -0.318  -0.117  -0.222
    1UNL    H12   38  -0.455  -0.151  -0.114
    1UNL    H13   39  -0.442   0.107  -0.093
    1UNL    H14   40  -0.188   0.061  -0.221
    1UNL    H15   41  -0.350   0.130   0.216
    1UNL    H16   42  -0.288   0.302   0.037
    1UNL    H17   43  -0.161   0.257  -0.048
    1UNL    H18   44  -0.052   0.206   0.139
    1UNL    H19   45  -0.157  -0.057   0.156
    1UNL    H20   46   0.235  -0.146   0.227
    1UNL    H21   47   0.263   0.127   0.263
    1UNL    H22   48   0.458   0.003   0.102
    1UNL    H23   49   0.320  -0.210  -0.040
    1UNL    H24   50   0.234  -0.041  -0.095
    1UNL    H25   51   0.498   0.055  -0.098
   0.00000   0.00000   0.00000   0.00000   0.00000   0.00000   0.00000   0.00000   0.00000
Generated with MDTraj, t= 70.0
 51
    1UNL     O1    1   0.250   0.273  -0.237
    1UNL     C1    2   0.166   0.220  -0.145
    1UNL     C2    3   0.233   0.154  -0.018
    1UNL     O2    4   0.132   0.143   0.082
    1UNL     C3    5   0.117   0.004   0.139
    1UNL     O3    6   0.063  -0.087   0.047
    1UNL     C4    7  -0.044  -0.020  -0.028
    1UNL     O4    8  -0.054  -0.071  -0.166
    1UNL     C5    9  -0.061  -0.211  -0.176
    1UNL    CL1   10   0.097  -0.301  -0.148
    1UNL     C6   11  -0.177  -0.268  -0.085
    1UNL     C7   12  -0.269  -0.160  -0.023
    1UNL     C8   13  -0.372  -0.091  -0.118
    1UNL     C9   14  -0.352   0.065  -0.097
    1UNL     O5   15  -0.269   0.112  -0.209
    1UNL    C10   16  -0.275   0.085   0.044
    1UNL     O6   17  -0.364   0.080   0.159
    1UNL    C11   18  -0.198   0.222   0.046
    1UNL     O7   19  -0.120   0.235   0.164
    1UNL    C12   20  -0.182  -0.043   0.042
    1UNL    C13   21   0.244  -0.044   0.197
    1UNL     O8   22   0.289   0.040   0.304
    1UNL    C14   23   0.350  -0.052   0.077
    1UNL     O9   24   0.392  -0.184   0.042
    1UNL    C15   25   0.295   0.016  -0.053
    1UNL    O10   26   0.407   0.039  -0.148
    1UNL     H1   27   0.325   0.214  -0.252
    1UNL     H2   28   0.093   0.291  -0.107
    1UNL     H3   29   0.088   0.159  -0.200
    1UNL     H4   30   0.314   0.223   0.022
    1UNL     H5   31   0.050   0.022   0.220
    1UNL     H6   32  -0.021   0.085  -0.046
    1UNL     H7   33  -0.077  -0.215  -0.283
    1UNL     H8   34  -0.121  -0.304   0.003
    1UNL     H9   35  -0.231  -0.354  -0.125
    1UNL    H10   36  -0.335  -0.205   0.060
    1UNL    H11   37  -0.359  -0.129  -0.223
    1UNL    H12   38  -0.473  -0.121  -0.088
    1UNL    H13   39  -0.453   0.112  -0.091
    1UNL    H14   40  -0.181   0.067  -0.206
    1UNL    H15   41  -0.363   0.163   0.203
    1UNL    H16   42  -0.263   0.302   0.043
    1UNL    H17   43  -0.140   0.249  -0.040
    1UNL    H18   44  -0.027   0.202   0.149
    1UNL    H19   45  -0.163  -0.075   0.145
    1UNL    H20   46   0.228  -0.145   0.231
    1UNL    H21   47   0.255   0.130   0.285
    1UNL    H22   48   0.443   0.000   0.111
    1UNL    H23   49   0.314  -0.240   0.022
    1UNL    H24   50   0.215  -0.049  -0.090
    1UNL    H25   51   0.495   0.016  -0.116
   0.00000   0.00000   0.00000   0.00000   0.00000   0.00000   0.00000   0.00000   0.00000
Generated with MDTraj, t= 71.0
 51
    1UNL     O1    1   0.257   0.244  -0.239
    1UNL     C1    2   0.164   0.211  -0.140
    1UNL     C2    3   0.222   0.144  -0.013
    1UNL     O2    4   0.135   0.140   0.106
    1UNL     C3    5   0.125   0.003   0.153
    1UNL     O3    6   0.064  -0.083   0.051
    1UNL     C4    7  -0.049  -0.020  -0.023
    1UNL     O4    8  -0.053  -0.059  -0.159
    1UNL     C5    9  -0.065  -0.195  -0.185
    1UNL    CL1   10   0.096  -0.271  -0.147
    1UNL     C6   11  -0.165  -0.263  -0.080
    1UNL     C7   12  -0.267  -0.160  -0.021
    1UNL     C8   13  -0.367  -0.094  -0.121
    1UNL     C9   14  -0.353   0.058  -0.098
    1UNL     O5   15  -0.288   0.104  -0.217
    1UNL    C10   16  -0.276   0.078   0.032
    1UNL     O6   17  -0.362   0.062   0.145
    1UNL    C11   18  -0.216   0.219   0.038
    1UNL     O7   19  -0.137   0.252   0.152
    1UNL    C12   20  -0.183  -0.040   0.041
    1UNL    C13   21   0.266  -0.043   0.201
    1UNL     O8   22   0.324   0.042   0.299
    1UNL    C14   23   0.363  -0.066   0.073
    1UNL     O9   24   0.375  -0.201   0.048
    1UNL    C15   25   0.297   0.013  -0.049
    1UNL    O10   26   0.398   0.040  -0.148
    1UNL     H1   27   0.330   0.175  -0.241
    1UNL     H2   28   0.097   0.298  -0.141
    1UNL     H3   29   0.089   0.140  -0.183
    1UNL     H4   30   0.294   0.225   0.027
    1UNL     H5   31   0.056   0.009   0.231
    1UNL     H6   32  -0.023   0.086  -0.033
    1UNL     H7   33  -0.094  -0.191  -0.293
    1UNL     H8   34  -0.107  -0.307   0.002
    1UNL     H9   35  -0.219  -0.344  -0.127
    1UNL    H10   36  -0.320  -0.198   0.073
    1UNL    H11   37  -0.342  -0.120  -0.229
    1UNL    H12   38  -0.469  -0.129  -0.115
    1UNL    H13   39  -0.454   0.106  -0.083
    1UNL    H14   40  -0.199   0.064  -0.226
    1UNL    H15   41  -0.355   0.135   0.203
    1UNL    H16   42  -0.289   0.293   0.044
    1UNL    H17   43  -0.159   0.240  -0.050
    1UNL    H18   44  -0.049   0.208   0.147
    1UNL    H19   45  -0.162  -0.065   0.147
    1UNL    H20   46   0.247  -0.141   0.246
    1UNL    H21   47   0.307   0.138   0.278
    1UNL    H22   48   0.463  -0.025   0.092
    1UNL    H23   49   0.295  -0.225  -0.009
    1UNL    H24   50   0.209  -0.045  -0.089
    1UNL    H25   51   0.446  -0.048  -0.164
   0.00000   0.00000   0.00000   0.00000   0.00000   0.00000   0.00000   0.00000   0.00000
Generated with MDTraj, t= 72.0
 51
    1UNL     O1    1   0.272   0.248  -0.240
    1UNL     C1    2   0.178   0.214  -0.140
    1UNL     C2    3   0.233   0.143  -0.026
    1UNL     O2    4   0.146   0.136   0.093
    1UNL     C3    5   0.121   0.004   0.148
    1UNL     O3    6   0.052  -0.083   0.061
    1UNL     C4    7  -0.051  -0.001  -0.004
    1UNL     O4    8  -0.043  -0.043  -0.142
    1UNL     C5    9  -0.054  -0.179  -0.165
    1UNL    CL1   10   0.108  -0.250  -0.165
    1UNL     C6   11  -0.140  -0.254  -0.060
    1UNL     C7   12  -0.252  -0.163  -0.007
    1UNL     C8   13  -0.357  -0.115  -0.104
    1UNL     C9   14  -0.364   0.037  -0.107
    1UNL     O5   15  -0.289   0.090  -0.217
    1UNL    C10   16  -0.300   0.076   0.030
    1UNL     O6   17  -0.391   0.081   0.136
    1UNL    C11   18  -0.224   0.218   0.037
    1UNL     O7   19  -0.143   0.252   0.152
    1UNL    C12   20  -0.191  -0.036   0.059
    1UNL    C13   21   0.257  -0.056   0.194
    1UNL     O8   22   0.316   0.033   0.288
    1UNL    C14   23   0.349  -0.084   0.068
    1UNL     O9   24   0.348  -0.218   0.040
    1UNL    C15   25   0.297   0.006  -0.057
    1UNL    O10   26   0.406   0.022  -0.147
    1UNL     H1   27   0.329   0.170  -0.256
    1UNL     H2   28   0.127   0.304  -0.107
    1UNL     H3   29   0.097   0.162  -0.192
    1UNL     H4   30   0.319   0.205   0.022
    1UNL     H5   31   0.067   0.022   0.235
    1UNL     H6   32  -0.027   0.106  -0.006
    1UNL     H7   33  -0.102  -0.179  -0.268
    1UNL     H8   34  -0.069  -0.271   0.022
    1UNL     H9   35  -0.179  -0.351  -0.090
    1UNL    H10   36  -0.305  -0.218   0.079
    1UNL    H11   37  -0.333  -0.153  -0.209
    1UNL    H12   38  -0.452  -0.161  -0.082
    1UNL    H13   39  -0.467   0.082  -0.125
    1UNL    H14   40  -0.203   0.043  -0.229
    1UNL    H15   41  -0.376   0.159   0.194
    1UNL    H16   42  -0.297   0.292   0.042
    1UNL    H17   43  -0.158   0.237  -0.048
    1UNL    H18   44  -0.049   0.220   0.148
    1UNL    H19   45  -0.174  -0.051   0.169
    1UNL    H20   46   0.237  -0.148   0.253
    1UNL    H21   47   0.307   0.127   0.264
    1UNL    H22   48   0.454  -0.067   0.091
    1UNL    H23   49   0.256  -0.244   0.012
    1UNL    H24   50   0.231  -0.065  -0.120
    1UNL    H25   51   0.468   0.102  -0.141
   0.00000   0.00000   0.00000   0.00000   0.00000   0.00000   0.00000   0.00000   0.00000
Generated with MDTraj, t= 73.0
 51
    1UNL     O1    1   0.284   0.241  -0.232
    1UNL     C1    2   0.190   0.218  -0.126
    1UNL     C2    3   0.256   0.149  -0.004
    1UNL     O2    4   0.160   0.148   0.106
    1UNL     C3    5   0.123   0.016   0.153
    1UNL     O3    6   0.066  -0.069   0.055
    1UNL     C4    7  -0.048  -0.003  -0.012
    1UNL     O4    8  -0.044  -0.039  -0.148
    1UNL     C5    9  -0.064  -0.178  -0.176
    1UNL    CL1   10   0.101  -0.255  -0.191
    1UNL     C6   11  -0.137  -0.256  -0.059
    1UNL     C7   12  -0.249  -0.165   0.001
    1UNL     C8   13  -0.366  -0.125  -0.103
    1UNL     C9   14  -0.369   0.031  -0.094
    1UNL     O5   15  -0.299   0.075  -0.204
    1UNL    C10   16  -0.291   0.073   0.040
    1UNL     O6   17  -0.388   0.081   0.145
    1UNL    C11   18  -0.235   0.218   0.023
    1UNL     O7   19  -0.163   0.263   0.130
    1UNL    C12   20  -0.184  -0.040   0.058
    1UNL    C13   21   0.254  -0.048   0.199
    1UNL     O8   22   0.318   0.034   0.294
    1UNL    C14   23   0.340  -0.075   0.070
    1UNL     O9   24   0.344  -0.207   0.042
    1UNL    C15   25   0.297   0.010  -0.050
    1UNL    O10   26   0.406   0.006  -0.141
    1UNL     H1   27   0.328   0.161  -0.267
    1UNL     H2   28   0.137   0.313  -0.114
    1UNL     H3   29   0.116   0.153  -0.173
    1UNL     H4   30   0.345   0.216   0.022
    1UNL     H5   31   0.055   0.023   0.231
    1UNL     H6   32  -0.037   0.105  -0.008
    1UNL     H7   33  -0.126  -0.180  -0.273
    1UNL     H8   34  -0.065  -0.283   0.020
    1UNL     H9   35  -0.176  -0.351  -0.092
    1UNL    H10   36  -0.294  -0.231   0.083
    1UNL    H11   37  -0.330  -0.160  -0.202
    1UNL    H12   38  -0.464  -0.173  -0.091
    1UNL    H13   39  -0.467   0.087  -0.097
    1UNL    H14   40  -0.204   0.047  -0.197
    1UNL    H15   41  -0.367   0.176   0.182
    1UNL    H16   42  -0.317   0.285   0.014
    1UNL    H17   43  -0.172   0.221  -0.071
    1UNL    H18   44  -0.073   0.223   0.136
    1UNL    H19   45  -0.170  -0.060   0.169
    1UNL    H20   46   0.220  -0.143   0.250
    1UNL    H21   47   0.311   0.125   0.262
    1UNL    H22   48   0.442  -0.058   0.098
    1UNL    H23   49   0.289  -0.226  -0.036
    1UNL    H24   50   0.207  -0.053  -0.093
    1UNL    H25   51   0.412  -0.079  -0.185
   0.00000   0.00000   0.00000   0.00000   0.00000   0.00000   0.00000   0.00000   0.00000
Generated with MDTraj, t= 74.0
 51
    1UNL     O1    1   0.315   0.244  -0.214
    1UNL     C1    2   0.204   0.233  -0.127
    1UNL     C2    3   0.243   0.146  -0.005
    1UNL     O2    4   0.140   0.145   0.102
    1UNL     C3    5   0.111   0.007   0.147
    1UNL     O3    6   0.072  -0.080   0.043
    1UNL     C4    7  -0.037  -0.011  -0.030
    1UNL     O4    8  -0.053  -0.047  -0.165
    1UNL     C5    9  -0.071  -0.186  -0.182
    1UNL    CL1   10   0.094  -0.251  -0.199
    1UNL     C6   11  -0.147  -0.264  -0.064
    1UNL     C7   12  -0.247  -0.163   0.009
    1UNL     C8   13  -0.374  -0.128  -0.076
    1UNL     C9   14  -0.370   0.029  -0.090
    1UNL     O5   15  -0.321   0.059  -0.215
    1UNL    C10   16  -0.289   0.083   0.037
    1UNL     O6   17  -0.363   0.077   0.162
    1UNL    C11   18  -0.231   0.227   0.012
    1UNL     O7   19  -0.156   0.268   0.126
    1UNL    C12   20  -0.174  -0.032   0.050
    1UNL    C13   21   0.242  -0.051   0.209
    1UNL     O8   22   0.319   0.032   0.297
    1UNL    C14   23   0.343  -0.069   0.083
    1UNL     O9   24   0.362  -0.200   0.049
    1UNL    C15   25   0.293   0.011  -0.042
    1UNL    O10   26   0.395   0.010  -0.143
    1UNL     H1   27   0.327   0.157  -0.262
    1UNL     H2   28   0.189   0.335  -0.084
    1UNL     H3   29   0.116   0.202  -0.183
    1UNL     H4   30   0.325   0.212   0.037
    1UNL     H5   31   0.035   0.006   0.216
    1UNL     H6   32  -0.016   0.096  -0.032
    1UNL     H7   33  -0.132  -0.202  -0.277
    1UNL     H8   34  -0.063  -0.276   0.006
    1UNL     H9   35  -0.184  -0.364  -0.083
    1UNL    H10   36  -0.281  -0.209   0.106
    1UNL    H11   37  -0.366  -0.176  -0.172
    1UNL    H12   38  -0.467  -0.168  -0.028
    1UNL    H13   39  -0.470   0.082  -0.090
    1UNL    H14   40  -0.224   0.041  -0.204
    1UNL    H15   41  -0.340   0.166   0.203
    1UNL    H16   42  -0.317   0.294   0.004
    1UNL    H17   43  -0.166   0.228  -0.083
    1UNL    H18   44  -0.070   0.220   0.131
    1UNL    H19   45  -0.154  -0.032   0.162
    1UNL    H20   46   0.228  -0.155   0.252
    1UNL    H21   47   0.306   0.128   0.277
    1UNL    H22   48   0.436  -0.024   0.102
    1UNL    H23   49   0.275  -0.232   0.019
    1UNL    H24   50   0.205  -0.052  -0.086
    1UNL    H25   51   0.482   0.010  -0.105
   0.00000   0.00000   0.00000   0.00000   0.00000   0.00000   0.00000   0.00000   0.00000
Generated with MDTraj, t= 75.0
 51
    1UNL     O1    1   0.314   0.301  -0.205
    1UNL     C1    2   0.208   0.246  -0.130
    1UNL     C2    3   0.251   0.153  -0.011
    1UNL     O2    4   0.144   0.133   0.089
    1UNL     C3    5   0.121  -0.004   0.128
    1UNL     O3    6   0.064  -0.081   0.030
    1UNL     C4    7  -0.046  -0.011  -0.036
    1UNL     O4    8  -0.072  -0.059  -0.169
    1UNL     C5    9  -0.084  -0.197  -0.170
    1UNL    CL1   10   0.093  -0.260  -0.180
    1UNL     C6   11  -0.154  -0.265  -0.052
    1UNL     C7   12  -0.250  -0.169   0.009
    1UNL     C8   13  -0.376  -0.128  -0.074
    1UNL     C9   14  -0.374   0.030  -0.077
    1UNL     O5   15  -0.339   0.072  -0.206
    1UNL    C10   16  -0.287   0.077   0.041
    1UNL     O6   17  -0.361   0.091   0.160
    1UNL    C11   18  -0.218   0.216   0.004
    1UNL     O7   19  -0.128   0.259   0.109
    1UNL    C12   20  -0.177  -0.040   0.048
    1UNL    C13   21   0.246  -0.052   0.190
    1UNL     O8   22   0.280   0.022   0.304
    1UNL    C14   23   0.352  -0.069   0.074
    1UNL     O9   24   0.350  -0.210   0.049
    1UNL    C15   25   0.310   0.017  -0.057
    1UNL    O10   26   0.438   0.029  -0.123
    1UNL     H1   27   0.389   0.245  -0.183
    1UNL     H2   28   0.142   0.326  -0.085
    1UNL     H3   29   0.152   0.178  -0.196
    1UNL     H4   30   0.330   0.206   0.046
    1UNL     H5   31   0.049  -0.000   0.203
    1UNL     H6   32  -0.013   0.092  -0.049
    1UNL     H7   33  -0.140  -0.225  -0.264
    1UNL     H8   34  -0.071  -0.290   0.017
    1UNL     H9   35  -0.200  -0.360  -0.082
    1UNL    H10   36  -0.291  -0.204   0.108
    1UNL    H11   37  -0.356  -0.163  -0.173
    1UNL    H12   38  -0.474  -0.172  -0.039
    1UNL    H13   39  -0.472   0.080  -0.060
    1UNL    H14   40  -0.249   0.032  -0.219
    1UNL    H15   41  -0.337   0.168   0.208
    1UNL    H16   42  -0.297   0.294  -0.002
    1UNL    H17   43  -0.167   0.206  -0.101
    1UNL    H18   44  -0.046   0.203   0.115
    1UNL    H19   45  -0.141  -0.061   0.156
    1UNL    H20   46   0.235  -0.160   0.218
    1UNL    H21   47   0.279   0.120   0.287
    1UNL    H22   48   0.446  -0.034   0.105
    1UNL    H23   49   0.274  -0.226  -0.012
    1UNL    H24   50   0.235  -0.056  -0.111
    1UNL    H25   51   0.460  -0.063  -0.152
   0.00000   0.00000   0.00000   0.00000   0.00000   0.00000   0.00000   0.00000   0.00000
Generated with MDTraj, t= 76.0
 51
    1UNL     O1    1   0.328   0.296  -0.183
    1UNL     C1    2   0.210   0.263  -0.116
    1UNL     C2    3   0.248   0.162  -0.000
    1UNL     O2    4   0.139   0.132   0.093
    1UNL     C3    5   0.112  -0.010   0.126
    1UNL     O3    6   0.072  -0.074   0.008
    1UNL     C4    7  -0.048  -0.022  -0.041
    1UNL     O4    8  -0.073  -0.077  -0.171
    1UNL     C5    9  -0.085  -0.219  -0.179
    1UNL    CL1   10   0.082  -0.295  -0.157
    1UNL     C6   11  -0.169  -0.268  -0.053
    1UNL     C7   12  -0.257  -0.156   0.018
    1UNL     C8   13  -0.380  -0.123  -0.072
    1UNL     C9   14  -0.374   0.035  -0.079
    1UNL     O5   15  -0.323   0.072  -0.201
    1UNL    C10   16  -0.284   0.082   0.032
    1UNL     O6   17  -0.353   0.087   0.155
    1UNL    C11   18  -0.219   0.223   0.006
    1UNL     O7   19  -0.145   0.276   0.109
    1UNL    C12   20  -0.178  -0.031   0.047
    1UNL    C13   21   0.245  -0.067   0.181
    1UNL     O8   22   0.290   0.021   0.287
    1UNL    C14   23   0.351  -0.075   0.070
    1UNL     O9   24   0.353  -0.200  -0.002
    1UNL    C15   25   0.324   0.038  -0.044
    1UNL    O10   26   0.447   0.067  -0.118
    1UNL     H1   27   0.387   0.219  -0.211
    1UNL     H2   28   0.172   0.364  -0.081
    1UNL     H3   29   0.141   0.211  -0.184
    1UNL     H4   30   0.330   0.210   0.051
    1UNL     H5   31   0.036  -0.019   0.197
    1UNL     H6   32  -0.025   0.083  -0.058
    1UNL     H7   33  -0.112  -0.239  -0.283
    1UNL     H8   34  -0.086  -0.294   0.015
    1UNL     H9   35  -0.221  -0.362  -0.075
    1UNL    H10   36  -0.304  -0.184   0.115
    1UNL    H11   37  -0.360  -0.174  -0.164
    1UNL    H12   38  -0.478  -0.156  -0.029
    1UNL    H13   39  -0.473   0.082  -0.083
    1UNL    H14   40  -0.233   0.030  -0.203
    1UNL    H15   41  -0.342   0.172   0.207
    1UNL    H16   42  -0.304   0.297  -0.005
    1UNL    H17   43  -0.168   0.230  -0.099
    1UNL    H18   44  -0.060   0.226   0.122
    1UNL    H19   45  -0.142  -0.036   0.156
    1UNL    H20   46   0.224  -0.168   0.218
    1UNL    H21   47   0.241   0.104   0.269
    1UNL    H22   48   0.441  -0.046   0.117
    1UNL    H23   49   0.270  -0.202  -0.057
    1UNL    H24   50   0.256  -0.018  -0.119
    1UNL    H25   51   0.530   0.043  -0.063
   0.00000   0.00000   0.00000   0.00000   0.00000   0.00000   0.00000   0.00000   0.00000
Generated with MDTraj, t= 77.0
 51
    1UNL     O1    1   0.333   0.328  -0.166
    1UNL     C1    2   0.213   0.277  -0.102
    1UNL     C2    3   0.247   0.171   0.011
    1UNL     O2    4   0.130   0.134   0.095
    1UNL     C3    5   0.115  -0.003   0.131
    1UNL     O3    6   0.056  -0.089   0.030
    1UNL     C4    7  -0.045  -0.024  -0.039
    1UNL     O4    8  -0.075  -0.093  -0.163
    1UNL     C5    9  -0.100  -0.232  -0.151
    1UNL    CL1   10   0.060  -0.314  -0.162
    1UNL     C6   11  -0.176  -0.279  -0.028
    1UNL     C7   12  -0.267  -0.158   0.016
    1UNL     C8   13  -0.382  -0.112  -0.083
    1UNL     C9   14  -0.363   0.040  -0.097
    1UNL     O5   15  -0.303   0.069  -0.228
    1UNL    C10   16  -0.278   0.080   0.023
    1UNL     O6   17  -0.357   0.103   0.138
    1UNL    C11   18  -0.200   0.209   0.004
    1UNL     O7   19  -0.117   0.254   0.106
    1UNL    C12   20  -0.181  -0.034   0.054
    1UNL    C13   21   0.255  -0.055   0.171
    1UNL     O8   22   0.313   0.000   0.298
    1UNL    C14   23   0.355  -0.059   0.053
    1UNL     O9   24   0.364  -0.184  -0.008
    1UNL    C15   25   0.310   0.049  -0.057
    1UNL    O10   26   0.425   0.085  -0.124
    1UNL     H1   27   0.392   0.262  -0.205
    1UNL     H2   28   0.163   0.358  -0.040
    1UNL     H3   29   0.154   0.244  -0.188
    1UNL     H4   30   0.313   0.211   0.085
    1UNL     H5   31   0.061   0.001   0.221
    1UNL     H6   32  -0.013   0.078  -0.063
    1UNL     H7   33  -0.148  -0.250  -0.244
    1UNL     H8   34  -0.108  -0.304   0.055
    1UNL     H9   35  -0.232  -0.371  -0.052
    1UNL    H10   36  -0.320  -0.193   0.104
    1UNL    H11   37  -0.370  -0.163  -0.179
    1UNL    H12   38  -0.475  -0.145  -0.035
    1UNL    H13   39  -0.457   0.091  -0.098
    1UNL    H14   40  -0.226   0.007  -0.223
    1UNL    H15   41  -0.310   0.183   0.186
    1UNL    H16   42  -0.271   0.294  -0.016
    1UNL    H17   43  -0.143   0.197  -0.097
    1UNL    H18   44  -0.029   0.212   0.095
    1UNL    H19   45  -0.153  -0.047   0.164
    1UNL    H20   46   0.250  -0.159   0.198
    1UNL    H21   47   0.315   0.098   0.302
    1UNL    H22   48   0.453  -0.044   0.093
    1UNL    H23   49   0.291  -0.202  -0.071
    1UNL    H24   50   0.227   0.003  -0.123
    1UNL    H25   51   0.502   0.116  -0.065
   0.00000   0.00000   0.00000   0.00000   0.00000   0.00000   0.00000   0.00000   0.00000
Generated with MDTraj, t= 78.0
 51
    1UNL     O1    1   0.299   0.354  -0.116
    1UNL     C1    2   0.192   0.283  -0.054
    1UNL     C2    3   0.239   0.150   0.013
    1UNL     O2    4   0.131   0.116   0.101
    1UNL     C3    5   0.121  -0.022   0.139
    1UNL     O3    6   0.067  -0.106   0.033
    1UNL     C4    7  -0.034  -0.040  -0.035
    1UNL     O4    8  -0.058  -0.098  -0.164
    1UNL     C5    9  -0.095  -0.233  -0.163
    1UNL    CL1   10   0.058  -0.327  -0.152
    1UNL     C6   11  -0.170  -0.266  -0.028
    1UNL     C7   12  -0.262  -0.147   0.025
    1UNL     C8   13  -0.373  -0.104  -0.076
    1UNL     C9   14  -0.359   0.043  -0.105
    1UNL     O5   15  -0.289   0.064  -0.233
    1UNL    C10   16  -0.269   0.093   0.013
    1UNL     O6   17  -0.356   0.104   0.133
    1UNL    C11   18  -0.200   0.235  -0.019
    1UNL     O7   19  -0.131   0.288   0.093
    1UNL    C12   20  -0.172  -0.022   0.048
    1UNL    C13   21   0.267  -0.066   0.170
    1UNL     O8   22   0.325   0.025   0.267
    1UNL    C14   23   0.355  -0.067   0.044
    1UNL     O9   24   0.369  -0.192  -0.014
    1UNL    C15   25   0.301   0.040  -0.062
    1UNL    O10   26   0.401   0.077  -0.146
    1UNL     H1   27   0.346   0.279  -0.163
    1UNL     H2   28   0.151   0.364   0.012
    1UNL     H3   29   0.118   0.248  -0.125
    1UNL     H4   30   0.309   0.180   0.086
    1UNL     H5   31   0.059  -0.030   0.224
    1UNL     H6   32   0.002   0.059  -0.063
    1UNL     H7   33  -0.153  -0.257  -0.248
    1UNL     H8   34  -0.094  -0.282   0.050
    1UNL     H9   35  -0.233  -0.357  -0.023
    1UNL    H10   36  -0.305  -0.166   0.122
    1UNL    H11   37  -0.351  -0.164  -0.167
    1UNL    H12   38  -0.471  -0.127  -0.041
    1UNL    H13   39  -0.444   0.107  -0.107
    1UNL    H14   40  -0.214   0.000  -0.231
    1UNL    H15   41  -0.311   0.167   0.194
    1UNL    H16   42  -0.290   0.303  -0.032
    1UNL    H17   43  -0.147   0.238  -0.121
    1UNL    H18   44  -0.049   0.231   0.097
    1UNL    H19   45  -0.144  -0.009   0.157
    1UNL    H20   46   0.258  -0.168   0.197
    1UNL    H21   47   0.272   0.108   0.265
    1UNL    H22   48   0.459  -0.047   0.070
    1UNL    H23   49   0.283  -0.234  -0.027
    1UNL    H24   50   0.216  -0.002  -0.123
    1UNL    H25   51   0.422   0.018  -0.219
   0.00000   0.00000   0.00000   0.00000   0.00000   0.00000   0.00000   0.00000   0.00000
Generated with MDTraj, t= 79.0
 51
    1UNL     O1    1   0.294   0.346  -0.111
    1UNL     C1    2   0.179   0.289  -0.050
    1UNL     C2    3   0.226   0.165   0.038
    1UNL     O2    4   0.117   0.117   0.118
    1UNL     C3    5   0.117  -0.027   0.157
    1UNL     O3    6   0.067  -0.105   0.043
    1UNL     C4    7  -0.028  -0.034  -0.033
    1UNL     O4    8  -0.056  -0.090  -0.160
    1UNL     C5    9  -0.081  -0.232  -0.151
    1UNL    CL1   10   0.071  -0.322  -0.143
    1UNL     C6   11  -0.162  -0.278  -0.025
    1UNL     C7   12  -0.259  -0.163   0.021
    1UNL     C8   13  -0.365  -0.113  -0.078
    1UNL     C9   14  -0.345   0.039  -0.096
    1UNL     O5   15  -0.291   0.060  -0.230
    1UNL    C10   16  -0.252   0.094   0.008
    1UNL     O6   17  -0.332   0.148   0.117
    1UNL    C11   18  -0.173   0.220  -0.039
    1UNL     O7   19  -0.105   0.275   0.071
    1UNL    C12   20  -0.167  -0.035   0.046
    1UNL    C13   21   0.264  -0.075   0.168
    1UNL     O8   22   0.325   0.000   0.272
    1UNL    C14   23   0.331  -0.065   0.026
    1UNL     O9   24   0.328  -0.182  -0.044
    1UNL    C15   25   0.276   0.058  -0.059
    1UNL    O10   26   0.362   0.089  -0.163
    1UNL     H1   27   0.339   0.269  -0.150
    1UNL     H2   28   0.130   0.367   0.010
    1UNL     H3   29   0.127   0.270  -0.142
    1UNL     H4   30   0.305   0.200   0.100
    1UNL     H5   31   0.060  -0.039   0.246
    1UNL     H6   32   0.009   0.065  -0.055
    1UNL     H7   33  -0.133  -0.257  -0.241
    1UNL     H8   34  -0.099  -0.294   0.064
    1UNL     H9   35  -0.221  -0.371  -0.033
    1UNL    H10   36  -0.303  -0.183   0.115
    1UNL    H11   37  -0.358  -0.167  -0.175
    1UNL    H12   38  -0.460  -0.134  -0.038
    1UNL    H13   39  -0.429   0.106  -0.088
    1UNL    H14   40  -0.198   0.025  -0.230
    1UNL    H15   41  -0.277   0.206   0.165
    1UNL    H16   42  -0.240   0.285  -0.100
    1UNL    H17   43  -0.095   0.183  -0.108
    1UNL    H18   44  -0.036   0.212   0.102
    1UNL    H19   45  -0.146  -0.029   0.156
    1UNL    H20   46   0.270  -0.174   0.203
    1UNL    H21   47   0.288  -0.019   0.363
    1UNL    H22   48   0.437  -0.042   0.055
    1UNL    H23   49   0.237  -0.223  -0.040
    1UNL    H24   50   0.188   0.010  -0.109
    1UNL    H25   51   0.377   0.009  -0.212
   0.00000   0.00000   0.00000   0.00000   0.00000   0.00000   0.00000   0.00000   0.00000
Generated with MDTraj, t= 80.0
 51
    1UNL     O1    1   0.290   0.343  -0.104
    1UNL     C1    2   0.185   0.290  -0.020
    1UNL     C2    3   0.237   0.160   0.049
    1UNL     O2    4   0.131   0.108   0.141
    1UNL     C3    5   0.133  -0.029   0.149
    1UNL     O3    6   0.060  -0.105   0.051
    1UNL     C4    7  -0.041  -0.033  -0.026
    1UNL     O4    8  -0.052  -0.090  -0.156
    1UNL     C5    9  -0.094  -0.227  -0.146
    1UNL    CL1   10   0.059  -0.325  -0.140
    1UNL     C6   11  -0.178  -0.268  -0.024
    1UNL     C7   12  -0.268  -0.152   0.029
    1UNL     C8   13  -0.384  -0.118  -0.068
    1UNL     C9   14  -0.361   0.033  -0.112
    1UNL     O5   15  -0.289   0.043  -0.237
    1UNL    C10   16  -0.270   0.094  -0.004
    1UNL     O6   17  -0.355   0.146   0.111
    1UNL    C11   18  -0.195   0.226  -0.053
    1UNL     O7   19  -0.111   0.281   0.043
    1UNL    C12   20  -0.182  -0.019   0.045
    1UNL    C13   21   0.281  -0.075   0.157
    1UNL     O8   22   0.350  -0.011   0.253
    1UNL    C14   23   0.365  -0.066   0.025
    1UNL     O9   24   0.366  -0.185  -0.056
    1UNL    C15   25   0.288   0.052  -0.056
    1UNL    O10   26   0.378   0.105  -0.147
    1UNL     H1   27   0.340   0.268  -0.141
    1UNL     H2   28   0.176   0.374   0.050
    1UNL     H3   29   0.101   0.275  -0.084
    1UNL     H4   30   0.322   0.177   0.115
    1UNL     H5   31   0.081  -0.052   0.240
    1UNL     H6   32   0.002   0.064  -0.046
    1UNL     H7   33  -0.141  -0.238  -0.244
    1UNL     H8   34  -0.108  -0.293   0.056
    1UNL     H9   35  -0.234  -0.363  -0.040
    1UNL    H10   36  -0.309  -0.192   0.117
    1UNL    H11   37  -0.393  -0.190  -0.150
    1UNL    H12   38  -0.472  -0.136  -0.012
    1UNL    H13   39  -0.452   0.091  -0.117
    1UNL    H14   40  -0.199   0.007  -0.220
    1UNL    H15   41  -0.293   0.199   0.170
    1UNL    H16   42  -0.272   0.304  -0.070
    1UNL    H17   43  -0.145   0.222  -0.149
    1UNL    H18   44  -0.042   0.217   0.075
    1UNL    H19   45  -0.168   0.007   0.152
    1UNL    H20   46   0.277  -0.180   0.177
    1UNL    H21   47   0.316   0.079   0.275
    1UNL    H22   48   0.468  -0.020   0.036
    1UNL    H23   49   0.276  -0.224  -0.048
    1UNL    H24   50   0.201   0.007  -0.110
    1UNL    H25   51   0.425   0.033  -0.195
   0.00000   0.00000   0.00000   0.00000   0.00000   0.00000   0.00000   0.00000   0.00000
Generated with MDTraj, t= 81.0
 51
    1UNL     O1    1   0.305   0.371  -0.090
    1UNL     C1    2   0.190   0.296  -0.056
    1UNL     C2    3   0.240   0.177   0.027
    1UNL     O2    4   0.126   0.122   0.102
    1UNL     C3    5   0.122  -0.019   0.137
    1UNL     O3    6   0.047  -0.104   0.051
    1UNL     C4    7  -0.043  -0.033  -0.028
    1UNL     O4    8  -0.065  -0.099  -0.155
    1UNL     C5    9  -0.100  -0.242  -0.142
    1UNL    CL1   10   0.056  -0.321  -0.146
    1UNL     C6   11  -0.169  -0.272  -0.009
    1UNL     C7   12  -0.253  -0.149   0.033
    1UNL     C8   13  -0.375  -0.116  -0.058
    1UNL     C9   14  -0.357   0.029  -0.107
    1UNL     O5   15  -0.301   0.025  -0.237
    1UNL    C10   16  -0.262   0.093  -0.003
    1UNL     O6   17  -0.340   0.143   0.105
    1UNL    C11   18  -0.188   0.227  -0.048
    1UNL     O7   19  -0.120   0.282   0.064
    1UNL    C12   20  -0.169  -0.022   0.049
    1UNL    C13   21   0.264  -0.082   0.159
    1UNL     O8   22   0.329  -0.056   0.278
    1UNL    C14   23   0.353  -0.057   0.032
    1UNL     O9   24   0.361  -0.190  -0.044
    1UNL    C15   25   0.300   0.062  -0.062
    1UNL    O10   26   0.398   0.116  -0.144
    1UNL     H1   27   0.376   0.307  -0.123
    1UNL     H2   28   0.140   0.366   0.013
    1UNL     H3   29   0.133   0.263  -0.141
    1UNL     H4   30   0.320   0.200   0.101
    1UNL     H5   31   0.077  -0.024   0.237
    1UNL     H6   32  -0.000   0.064  -0.049
    1UNL     H7   33  -0.154  -0.264  -0.238
    1UNL     H8   34  -0.092  -0.289   0.066
    1UNL     H9   35  -0.225  -0.368  -0.015
    1UNL    H10   36  -0.295  -0.167   0.127
    1UNL    H11   37  -0.378  -0.187  -0.137
    1UNL    H12   38  -0.472  -0.128  -0.012
    1UNL    H13   39  -0.451   0.088  -0.106
    1UNL    H14   40  -0.220  -0.032  -0.231
    1UNL    H15   41  -0.275   0.180   0.175
    1UNL    H16   42  -0.249   0.305  -0.091
    1UNL    H17   43  -0.110   0.212  -0.117
    1UNL    H18   44  -0.035   0.230   0.075
    1UNL    H19   45  -0.142   0.004   0.154
    1UNL    H20   46   0.258  -0.191   0.164
    1UNL    H21   47   0.350   0.039   0.279
    1UNL    H22   48   0.453  -0.024   0.074
    1UNL    H23   49   0.269  -0.218  -0.054
    1UNL    H24   50   0.214   0.015  -0.114
    1UNL    H25   51   0.430   0.049  -0.214
   0.00000   0.00000   0.00000   0.00000   0.00000   0.00000   0.00000   0.00000   0.00000
Generated with MDTraj, t= 82.0
 51
    1UNL     O1    1   0.319   0.351  -0.104
    1UNL     C1    2   0.209   0.282  -0.043
    1UNL     C2    3   0.245   0.165   0.044
    1UNL     O2    4   0.121   0.114   0.110
    1UNL     C3    5   0.114  -0.030   0.128
    1UNL     O3    6   0.070  -0.095   0.015
    1UNL     C4    7  -0.041  -0.034  -0.047
    1UNL     O4    8  -0.082  -0.106  -0.174
    1UNL     C5    9  -0.102  -0.245  -0.150
    1UNL    CL1   10   0.061  -0.321  -0.140
    1UNL     C6   11  -0.171  -0.273  -0.018
    1UNL     C7   12  -0.254  -0.153   0.033
    1UNL     C8   13  -0.365  -0.121  -0.063
    1UNL     C9   14  -0.362   0.027  -0.094
    1UNL     O5   15  -0.326   0.056  -0.221
    1UNL    C10   16  -0.268   0.088   0.012
    1UNL     O6   17  -0.340   0.130   0.131
    1UNL    C11   18  -0.204   0.219  -0.039
    1UNL     O7   19  -0.116   0.292   0.042
    1UNL    C12   20  -0.164  -0.021   0.047
    1UNL    C13   21   0.262  -0.073   0.161
    1UNL     O8   22   0.301  -0.003   0.277
    1UNL    C14   23   0.356  -0.056   0.037
    1UNL     O9   24   0.357  -0.180  -0.048
    1UNL    C15   25   0.316   0.055  -0.053
    1UNL    O10   26   0.414   0.105  -0.134
    1UNL     H1   27   0.392   0.290  -0.120
    1UNL     H2   28   0.150   0.349   0.021
    1UNL     H3   29   0.158   0.244  -0.132
    1UNL     H4   30   0.328   0.204   0.110
    1UNL     H5   31   0.053  -0.063   0.215
    1UNL     H6   32  -0.001   0.058  -0.087
    1UNL     H7   33  -0.161  -0.291  -0.236
    1UNL     H8   34  -0.086  -0.295   0.045
    1UNL     H9   35  -0.228  -0.367  -0.024
    1UNL    H10   36  -0.299  -0.161   0.128
    1UNL    H11   37  -0.358  -0.169  -0.156
    1UNL    H12   38  -0.464  -0.147  -0.027
    1UNL    H13   39  -0.457   0.083  -0.072
    1UNL    H14   40  -0.239   0.017  -0.241
    1UNL    H15   41  -0.274   0.157   0.193
    1UNL    H16   42  -0.287   0.285  -0.054
    1UNL    H17   43  -0.148   0.203  -0.126
    1UNL    H18   44  -0.043   0.234   0.078
    1UNL    H19   45  -0.139  -0.009   0.153
    1UNL    H20   46   0.263  -0.181   0.185
    1UNL    H21   47   0.247   0.079   0.279
    1UNL    H22   48   0.459  -0.038   0.082
    1UNL    H23   49   0.264  -0.208  -0.058
    1UNL    H24   50   0.238   0.024  -0.120
    1UNL    H25   51   0.439   0.045  -0.213
   0.00000   0.00000   0.00000   0.00000   0.00000   0.00000   0.00000   0.00000   0.00000
Generated with MDTraj, t= 83.0
 51
    1UNL     O1    1   0.328   0.350  -0.107
    1UNL     C1    2   0.207   0.287  -0.064
    1UNL     C2    3   0.245   0.166   0.023
    1UNL     O2    4   0.130   0.123   0.098
    1UNL     C3    5   0.111  -0.014   0.118
    1UNL     O3    6   0.058  -0.091   0.014
    1UNL     C4    7  -0.042  -0.034  -0.055
    1UNL     O4    8  -0.073  -0.097  -0.180
    1UNL     C5    9  -0.091  -0.238  -0.160
    1UNL    CL1   10   0.071  -0.324  -0.152
    1UNL     C6   11  -0.173  -0.280  -0.039
    1UNL     C7   12  -0.250  -0.159   0.030
    1UNL     C8   13  -0.381  -0.119  -0.037
    1UNL     C9   14  -0.372   0.039  -0.085
    1UNL     O5   15  -0.326   0.044  -0.218
    1UNL    C10   16  -0.268   0.093   0.016
    1UNL     O6   17  -0.341   0.128   0.138
    1UNL    C11   18  -0.195   0.223  -0.034
    1UNL     O7   19  -0.116   0.274   0.068
    1UNL    C12   20  -0.171  -0.029   0.038
    1UNL    C13   21   0.250  -0.069   0.169
    1UNL     O8   22   0.302   0.014   0.277
    1UNL    C14   23   0.346  -0.062   0.045
    1UNL     O9   24   0.350  -0.183  -0.021
    1UNL    C15   25   0.316   0.047  -0.054
    1UNL    O10   26   0.417   0.092  -0.123
    1UNL     H1   27   0.380   0.270  -0.137
    1UNL     H2   28   0.159   0.365  -0.001
    1UNL     H3   29   0.141   0.244  -0.144
    1UNL     H4   30   0.324   0.201   0.097
    1UNL     H5   31   0.038  -0.026   0.200
    1UNL     H6   32  -0.012   0.066  -0.078
    1UNL     H7   33  -0.149  -0.272  -0.254
    1UNL     H8   34  -0.103  -0.329   0.028
    1UNL     H9   35  -0.235  -0.366  -0.071
    1UNL    H10   36  -0.272  -0.185   0.129
    1UNL    H11   37  -0.385  -0.181  -0.121
    1UNL    H12   38  -0.474  -0.141   0.017
    1UNL    H13   39  -0.466   0.099  -0.068
    1UNL    H14   40  -0.233   0.009  -0.218
    1UNL    H15   41  -0.274   0.163   0.199
    1UNL    H16   42  -0.267   0.299  -0.052
    1UNL    H17   43  -0.135   0.202  -0.115
    1UNL    H18   44  -0.030   0.229   0.089
    1UNL    H19   45  -0.157  -0.015   0.143
    1UNL    H20   46   0.232  -0.173   0.212
    1UNL    H21   47   0.269   0.106   0.292
    1UNL    H22   48   0.449  -0.057   0.087
    1UNL    H23   49   0.260  -0.216  -0.044
    1UNL    H24   50   0.248   0.007  -0.128
    1UNL    H25   51   0.470   0.018  -0.158
   0.00000   0.00000   0.00000   0.00000   0.00000   0.00000   0.00000   0.00000   0.00000
Generated with MDTraj, t= 84.0
 51
    1UNL     O1    1   0.326   0.339  -0.135
    1UNL     C1    2   0.210   0.281  -0.082
    1UNL     C2    3   0.244   0.168   0.017
    1UNL     O2    4   0.125   0.132   0.093
    1UNL     C3    5   0.116  -0.001   0.143
    1UNL     O3    6   0.059  -0.090   0.045
    1UNL     C4    7  -0.038  -0.028  -0.031
    1UNL     O4    8  -0.083  -0.076  -0.163
    1UNL     C5    9  -0.099  -0.224  -0.166
    1UNL    CL1   10   0.059  -0.304  -0.170
    1UNL     C6   11  -0.169  -0.273  -0.033
    1UNL     C7   12  -0.263  -0.160   0.031
    1UNL     C8   13  -0.377  -0.129  -0.066
    1UNL     C9   14  -0.367   0.028  -0.098
    1UNL     O5   15  -0.312   0.051  -0.218
    1UNL    C10   16  -0.272   0.081   0.015
    1UNL     O6   17  -0.348   0.112   0.134
    1UNL    C11   18  -0.208   0.215  -0.037
    1UNL     O7   19  -0.135   0.275   0.074
    1UNL    C12   20  -0.173  -0.034   0.050
    1UNL    C13   21   0.264  -0.060   0.175
    1UNL     O8   22   0.323  -0.010   0.293
    1UNL    C14   23   0.353  -0.058   0.048
    1UNL     O9   24   0.366  -0.192   0.007
    1UNL    C15   25   0.316   0.042  -0.056
    1UNL    O10   26   0.423   0.074  -0.137
    1UNL     H1   27   0.386   0.267  -0.163
    1UNL     H2   28   0.161   0.363  -0.025
    1UNL     H3   29   0.147   0.255  -0.173
    1UNL     H4   30   0.310   0.209   0.100
    1UNL     H5   31   0.049  -0.011   0.232
    1UNL     H6   32   0.004   0.070  -0.050
    1UNL     H7   33  -0.158  -0.250  -0.261
    1UNL     H8   34  -0.085  -0.297   0.031
    1UNL     H9   35  -0.215  -0.372  -0.046
    1UNL    H10   36  -0.301  -0.194   0.122
    1UNL    H11   37  -0.375  -0.196  -0.148
    1UNL    H12   38  -0.472  -0.150  -0.019
    1UNL    H13   39  -0.464   0.084  -0.090
    1UNL    H14   40  -0.229  -0.001  -0.221
    1UNL    H15   41  -0.283   0.177   0.182
    1UNL    H16   42  -0.288   0.281  -0.066
    1UNL    H17   43  -0.140   0.199  -0.114
    1UNL    H18   44  -0.048   0.229   0.088
    1UNL    H19   45  -0.158  -0.036   0.155
    1UNL    H20   46   0.244  -0.171   0.203
    1UNL    H21   47   0.327   0.089   0.290
    1UNL    H22   48   0.453  -0.031   0.084
    1UNL    H23   49   0.280  -0.224  -0.026
    1UNL    H24   50   0.247   0.005  -0.127
    1UNL    H25   51   0.504   0.028  -0.123
   0.00000   0.00000   0.00000   0.00000   0.00000   0.00000   0.00000   0.00000   0.00000
Generated with MDTraj, t= 85.0
 51
    1UNL     O1    1   0.307   0.296  -0.161
    1UNL     C1    2   0.203   0.263  -0.077
    1UNL     C2    3   0.246   0.163   0.025
    1UNL     O2    4   0.138   0.126   0.111
    1UNL     C3    5   0.119  -0.006   0.146
    1UNL     O3    6   0.058  -0.079   0.036
    1UNL     C4    7  -0.044  -0.010  -0.036
    1UNL     O4    8  -0.056  -0.070  -0.166
    1UNL     C5    9  -0.082  -0.212  -0.156
    1UNL    CL1   10   0.077  -0.297  -0.173
    1UNL     C6   11  -0.144  -0.265  -0.030
    1UNL     C7   12  -0.248  -0.154   0.025
    1UNL     C8   13  -0.369  -0.127  -0.065
    1UNL     C9   14  -0.367   0.030  -0.099
    1UNL     O5   15  -0.317   0.066  -0.227
    1UNL    C10   16  -0.283   0.088   0.015
    1UNL     O6   17  -0.365   0.108   0.133
    1UNL    C11   18  -0.223   0.218  -0.024
    1UNL     O7   19  -0.143   0.268   0.092
    1UNL    C12   20  -0.181  -0.019   0.053
    1UNL    C13   21   0.255  -0.063   0.185
    1UNL     O8   22   0.313   0.006   0.288
    1UNL    C14   23   0.356  -0.063   0.060
    1UNL     O9   24   0.364  -0.196  -0.008
    1UNL    C15   25   0.309   0.034  -0.049
    1UNL    O10   26   0.404   0.049  -0.153
    1UNL     H1   27   0.362   0.219  -0.186
    1UNL     H2   28   0.162   0.362  -0.047
    1UNL     H3   29   0.126   0.218  -0.146
    1UNL     H4   30   0.320   0.211   0.096
    1UNL     H5   31   0.053  -0.010   0.238
    1UNL     H6   32   0.003   0.082  -0.060
    1UNL     H7   33  -0.153  -0.235  -0.242
    1UNL     H8   34  -0.062  -0.281   0.039
    1UNL     H9   35  -0.189  -0.363  -0.048
    1UNL    H10   36  -0.280  -0.186   0.118
    1UNL    H11   37  -0.354  -0.181  -0.158
    1UNL    H12   38  -0.459  -0.164  -0.023
    1UNL    H13   39  -0.465   0.085  -0.088
    1UNL    H14   40  -0.233   0.017  -0.248
    1UNL    H15   41  -0.323   0.177   0.184
    1UNL    H16   42  -0.299   0.294  -0.038
    1UNL    H17   43  -0.164   0.210  -0.110
    1UNL    H18   44  -0.058   0.219   0.095
    1UNL    H19   45  -0.159  -0.004   0.156
    1UNL    H20   46   0.263  -0.169   0.234
    1UNL    H21   47   0.250   0.067   0.328
    1UNL    H22   48   0.451  -0.032   0.098
    1UNL    H23   49   0.278  -0.221  -0.047
    1UNL    H24   50   0.229  -0.017  -0.093
    1UNL    H25   51   0.486   0.008  -0.121
   0.00000   0.00000   0.00000   0.00000   0.00000   0.00000   0.00000   0.00000   0.00000
Generated with MDTraj, t= 86.0
 51
    1UNL     O1    1   0.294   0.300  -0.170
    1UNL     C1    2   0.190   0.242  -0.103
    1UNL     C2    3   0.242   0.160   0.008
    1UNL     O2    4   0.132   0.137   0.102
    1UNL     C3    5   0.112   0.000   0.143
    1UNL     O3    6   0.059  -0.091   0.040
    1UNL     C4    7  -0.039  -0.024  -0.029
    1UNL     O4    8  -0.056  -0.071  -0.157
    1UNL     C5    9  -0.064  -0.213  -0.171
    1UNL    CL1   10   0.103  -0.276  -0.163
    1UNL     C6   11  -0.153  -0.267  -0.057
    1UNL     C7   12  -0.250  -0.160   0.014
    1UNL     C8   13  -0.371  -0.114  -0.071
    1UNL     C9   14  -0.363   0.039  -0.094
    1UNL     O5   15  -0.302   0.073  -0.215
    1UNL    C10   16  -0.273   0.083   0.025
    1UNL     O6   17  -0.358   0.102   0.142
    1UNL    C11   18  -0.205   0.220  -0.008
    1UNL     O7   19  -0.131   0.270   0.100
    1UNL    C12   20  -0.174  -0.037   0.052
    1UNL    C13   21   0.248  -0.051   0.187
    1UNL     O8   22   0.306   0.016   0.291
    1UNL    C14   23   0.346  -0.070   0.064
    1UNL     O9   24   0.332  -0.207   0.012
    1UNL    C15   25   0.297   0.024  -0.054
    1UNL    O10   26   0.386   0.043  -0.159
    1UNL     H1   27   0.357   0.224  -0.192
    1UNL     H2   28   0.138   0.328  -0.059
    1UNL     H3   29   0.114   0.190  -0.167
    1UNL     H4   30   0.320   0.214   0.071
    1UNL     H5   31   0.032   0.005   0.226
    1UNL     H6   32  -0.002   0.075  -0.043
    1UNL     H7   33  -0.106  -0.230  -0.272
    1UNL     H8   34  -0.090  -0.313   0.019
    1UNL     H9   35  -0.218  -0.346  -0.092
    1UNL    H10   36  -0.293  -0.204   0.098
    1UNL    H11   37  -0.381  -0.177  -0.161
    1UNL    H12   38  -0.459  -0.129  -0.018
    1UNL    H13   39  -0.458   0.098  -0.093
    1UNL    H14   40  -0.211   0.033  -0.221
    1UNL    H15   41  -0.313   0.170   0.191
    1UNL    H16   42  -0.286   0.294  -0.031
    1UNL    H17   43  -0.145   0.228  -0.097
    1UNL    H18   44  -0.045   0.224   0.113
    1UNL    H19   45  -0.151  -0.035   0.155
    1UNL    H20   46   0.230  -0.160   0.224
    1UNL    H21   47   0.238   0.020   0.361
    1UNL    H22   48   0.444  -0.033   0.085
    1UNL    H23   49   0.239  -0.222  -0.021
    1UNL    H24   50   0.218  -0.022  -0.103
    1UNL    H25   51   0.399  -0.042  -0.213
   0.00000   0.00000   0.00000   0.00000   0.00000   0.00000   0.00000   0.00000   0.00000
Generated with MDTraj, t= 87.0
 51
    1UNL     O1    1   0.287   0.281  -0.189
    1UNL     C1    2   0.185   0.242  -0.103
    1UNL     C2    3   0.242   0.157   0.010
    1UNL     O2    4   0.127   0.130   0.096
    1UNL     C3    5   0.121  -0.002   0.145
    1UNL     O3    6   0.059  -0.093   0.058
    1UNL     C4    7  -0.041  -0.028  -0.019
    1UNL     O4    8  -0.058  -0.063  -0.156
    1UNL     C5    9  -0.077  -0.204  -0.173
    1UNL    CL1   10   0.083  -0.282  -0.164
    1UNL     C6   11  -0.170  -0.268  -0.066
    1UNL     C7   12  -0.262  -0.157  -0.001
    1UNL     C8   13  -0.371  -0.109  -0.097
    1UNL     C9   14  -0.362   0.043  -0.097
    1UNL     O5   15  -0.311   0.096  -0.221
    1UNL    C10   16  -0.275   0.079   0.025
    1UNL     O6   17  -0.364   0.084   0.134
    1UNL    C11   18  -0.212   0.219   0.012
    1UNL     O7   19  -0.144   0.261   0.120
    1UNL    C12   20  -0.178  -0.036   0.050
    1UNL    C13   21   0.257  -0.054   0.181
    1UNL     O8   22   0.324   0.038   0.281
    1UNL    C14   23   0.356  -0.068   0.066
    1UNL     O9   24   0.387  -0.202   0.041
    1UNL    C15   25   0.306   0.018  -0.056
    1UNL    O10   26   0.407   0.045  -0.150
    1UNL     H1   27   0.355   0.213  -0.184
    1UNL     H2   28   0.137   0.328  -0.062
    1UNL     H3   29   0.099   0.196  -0.157
    1UNL     H4   30   0.323   0.207   0.066
    1UNL     H5   31   0.053   0.019   0.238
    1UNL     H6   32  -0.005   0.072  -0.029
    1UNL     H7   33  -0.111  -0.218  -0.275
    1UNL     H8   34  -0.116  -0.306   0.019
    1UNL     H9   35  -0.227  -0.352  -0.105
    1UNL    H10   36  -0.317  -0.199   0.078
    1UNL    H11   37  -0.343  -0.145  -0.197
    1UNL    H12   38  -0.465  -0.151  -0.075
    1UNL    H13   39  -0.458   0.093  -0.077
    1UNL    H14   40  -0.217   0.068  -0.220
    1UNL    H15   41  -0.311   0.145   0.200
    1UNL    H16   42  -0.281   0.305  -0.020
    1UNL    H17   43  -0.141   0.226  -0.072
    1UNL    H18   44  -0.057   0.213   0.126
    1UNL    H19   45  -0.156  -0.050   0.153
    1UNL    H20   46   0.244  -0.156   0.229
    1UNL    H21   47   0.324   0.133   0.253
    1UNL    H22   48   0.448  -0.025   0.102
    1UNL    H23   49   0.311  -0.253   0.005
    1UNL    H24   50   0.238  -0.040  -0.108
    1UNL    H25   51   0.433  -0.035  -0.207
   0.00000   0.00000   0.00000   0.00000   0.00000   0.00000   0.00000   0.00000   0.00000
Generated with MDTraj, t= 88.0
 51
    1UNL     O1    1   0.285   0.271  -0.216
    1UNL     C1    2   0.180   0.233  -0.131
    1UNL     C2    3   0.238   0.161  -0.008
    1UNL     O2    4   0.128   0.148   0.087
    1UNL     C3    5   0.106   0.016   0.139
    1UNL     O3    6   0.048  -0.072   0.049
    1UNL     C4    7  -0.046  -0.009  -0.028
    1UNL     O4    8  -0.041  -0.064  -0.162
    1UNL     C5    9  -0.073  -0.203  -0.164
    1UNL    CL1   10   0.080  -0.295  -0.160
    1UNL     C6   11  -0.160  -0.268  -0.056
    1UNL     C7   12  -0.257  -0.166   0.007
    1UNL     C8   13  -0.362  -0.107  -0.099
    1UNL     C9   14  -0.345   0.049  -0.103
    1UNL     O5   15  -0.272   0.100  -0.215
    1UNL    C10   16  -0.282   0.083   0.028
    1UNL     O6   17  -0.380   0.072   0.138
    1UNL    C11   18  -0.206   0.222   0.034
    1UNL     O7   19  -0.135   0.244   0.152
    1UNL    C12   20  -0.182  -0.035   0.056
    1UNL    C13   21   0.239  -0.061   0.178
    1UNL     O8   22   0.299   0.010   0.298
    1UNL    C14   23   0.352  -0.061   0.067
    1UNL     O9   24   0.379  -0.191   0.024
    1UNL    C15   25   0.309   0.028  -0.057
    1UNL    O10   26   0.420   0.052  -0.134
    1UNL     H1   27   0.347   0.196  -0.232
    1UNL     H2   28   0.113   0.316  -0.119
    1UNL     H3   29   0.109   0.164  -0.177
    1UNL     H4   30   0.305   0.240   0.025
    1UNL     H5   31   0.039   0.024   0.235
    1UNL     H6   32  -0.030   0.097  -0.040
    1UNL     H7   33  -0.116  -0.219  -0.260
    1UNL     H8   34  -0.102  -0.322   0.019
    1UNL     H9   35  -0.224  -0.341  -0.103
    1UNL    H10   36  -0.310  -0.205   0.089
    1UNL    H11   37  -0.344  -0.151  -0.197
    1UNL    H12   38  -0.458  -0.136  -0.066
    1UNL    H13   39  -0.443   0.095  -0.099
    1UNL    H14   40  -0.191   0.044  -0.220
    1UNL    H15   41  -0.328   0.098   0.220
    1UNL    H16   42  -0.282   0.311   0.034
    1UNL    H17   43  -0.144   0.257  -0.053
    1UNL    H18   44  -0.052   0.192   0.142
    1UNL    H19   45  -0.162  -0.029   0.162
    1UNL    H20   46   0.208  -0.166   0.189
    1UNL    H21   47   0.322   0.102   0.267
    1UNL    H22   48   0.449  -0.026   0.104
    1UNL    H23   49   0.303  -0.232  -0.021
    1UNL    H24   50   0.243  -0.025  -0.116
    1UNL    H25   51   0.444  -0.026  -0.187
   0.00000   0.00000   0.00000   0.00000   0.00000   0.00000   0.00000   0.00000   0.00000
Generated with MDTraj, t= 89.0
 51
    1UNL     O1    1   0.268   0.264  -0.218
    1UNL     C1    2   0.182   0.220  -0.118
    1UNL     C2    3   0.246   0.155   0.000
    1UNL     O2    4   0.135   0.146   0.099
    1UNL     C3    5   0.114   0.010   0.136
    1UNL     O3    6   0.061  -0.078   0.031
    1UNL     C4    7  -0.050  -0.020  -0.033
    1UNL     O4    8  -0.073  -0.068  -0.167
    1UNL     C5    9  -0.066  -0.212  -0.172
    1UNL    CL1   10   0.099  -0.284  -0.145
    1UNL     C6   11  -0.170  -0.273  -0.065
    1UNL     C7   12  -0.256  -0.160  -0.006
    1UNL     C8   13  -0.355  -0.103  -0.113
    1UNL     C9   14  -0.357   0.053  -0.098
    1UNL     O5   15  -0.289   0.124  -0.206
    1UNL    C10   16  -0.275   0.078   0.031
    1UNL     O6   17  -0.371   0.078   0.136
    1UNL    C11   18  -0.209   0.221   0.032
    1UNL     O7   19  -0.143   0.246   0.156
    1UNL    C12   20  -0.176  -0.041   0.049
    1UNL    C13   21   0.248  -0.055   0.179
    1UNL     O8   22   0.295   0.034   0.287
    1UNL    C14   23   0.355  -0.066   0.069
    1UNL     O9   24   0.365  -0.200   0.022
    1UNL    C15   25   0.311   0.025  -0.047
    1UNL    O10   26   0.413   0.039  -0.148
    1UNL     H1   27   0.346   0.205  -0.228
    1UNL     H2   28   0.120   0.297  -0.081
    1UNL     H3   29   0.103   0.161  -0.164
    1UNL     H4   30   0.311   0.223   0.050
    1UNL     H5   31   0.046   0.006   0.232
    1UNL     H6   32  -0.025   0.085  -0.041
    1UNL     H7   33  -0.092  -0.239  -0.270
    1UNL     H8   34  -0.110  -0.306   0.019
    1UNL     H9   35  -0.235  -0.350  -0.101
    1UNL    H10   36  -0.314  -0.190   0.077
    1UNL    H11   37  -0.321  -0.128  -0.211
    1UNL    H12   38  -0.453  -0.142  -0.090
    1UNL    H13   39  -0.450   0.103  -0.079
    1UNL    H14   40  -0.212   0.064  -0.218
    1UNL    H15   41  -0.331   0.091   0.221
    1UNL    H16   42  -0.277   0.312   0.006
    1UNL    H17   43  -0.127   0.229  -0.045
    1UNL    H18   44  -0.061   0.192   0.163
    1UNL    H19   45  -0.143  -0.069   0.149
    1UNL    H20   46   0.228  -0.153   0.219
    1UNL    H21   47   0.300   0.130   0.264
    1UNL    H22   48   0.450  -0.031   0.112
    1UNL    H23   49   0.282  -0.231  -0.021
    1UNL    H24   50   0.237  -0.035  -0.089
    1UNL    H25   51   0.500   0.020  -0.118
   0.00000   0.00000   0.00000   0.00000   0.00000   0.00000   0.00000   0.00000   0.00000
Generated with MDTraj, t= 90.0
 51
    1UNL     O1    1   0.283   0.277  -0.208
    1UNL     C1    2   0.180   0.224  -0.136
    1UNL     C2    3   0.240   0.156  -0.009
    1UNL     O2    4   0.133   0.131   0.082
    1UNL     C3    5   0.125   0.001   0.141
    1UNL     O3    6   0.050  -0.096   0.057
    1UNL     C4    7  -0.047  -0.027  -0.022
    1UNL     O4    8  -0.051  -0.060  -0.164
    1UNL     C5    9  -0.061  -0.195  -0.180
    1UNL    CL1   10   0.098  -0.277  -0.147
    1UNL     C6   11  -0.169  -0.263  -0.092
    1UNL     C7   12  -0.258  -0.164  -0.013
    1UNL     C8   13  -0.378  -0.097  -0.098
    1UNL     C9   14  -0.361   0.057  -0.091
    1UNL     O5   15  -0.293   0.105  -0.209
    1UNL    C10   16  -0.279   0.079   0.030
    1UNL     O6   17  -0.364   0.069   0.147
    1UNL    C11   18  -0.219   0.221   0.028
    1UNL     O7   19  -0.134   0.245   0.133
    1UNL    C12   20  -0.187  -0.039   0.047
    1UNL    C13   21   0.255  -0.044   0.198
    1UNL     O8   22   0.311   0.034   0.299
    1UNL    C14   23   0.351  -0.061   0.076
    1UNL     O9   24   0.367  -0.201   0.039
    1UNL    C15   25   0.302   0.023  -0.047
    1UNL    O10   26   0.402   0.037  -0.162
    1UNL     H1   27   0.348   0.207  -0.230
    1UNL     H2   28   0.104   0.298  -0.124
    1UNL     H3   29   0.120   0.154  -0.196
    1UNL     H4   30   0.318   0.206   0.042
    1UNL     H5   31   0.045   0.016   0.226
    1UNL     H6   32  -0.020   0.081  -0.032
    1UNL     H7   33  -0.084  -0.207  -0.281
    1UNL     H8   34  -0.115  -0.330  -0.025
    1UNL     H9   35  -0.234  -0.316  -0.158
    1UNL    H10   36  -0.299  -0.219   0.069
    1UNL    H11   37  -0.380  -0.133  -0.196
    1UNL    H12   38  -0.472  -0.112  -0.044
    1UNL    H13   39  -0.452   0.112  -0.091
    1UNL    H14   40  -0.204   0.062  -0.204
    1UNL    H15   41  -0.315   0.086   0.225
    1UNL    H16   42  -0.307   0.295   0.044
    1UNL    H17   43  -0.169   0.244  -0.071
    1UNL    H18   44  -0.050   0.192   0.136
    1UNL    H19   45  -0.171  -0.048   0.155
    1UNL    H20   46   0.234  -0.140   0.239
    1UNL    H21   47   0.315   0.125   0.270
    1UNL    H22   48   0.455  -0.028   0.098
    1UNL    H23   49   0.281  -0.229  -0.001
    1UNL    H24   50   0.231  -0.039  -0.095
    1UNL    H25   51   0.470  -0.030  -0.162
   0.00000   0.00000   0.00000   0.00000   0.00000   0.00000   0.00000   0.00000   0.00000
Generated with MDTraj, t= 91.0
 51
    1UNL     O1    1   0.282   0.263  -0.226
    1UNL     C1    2   0.201   0.243  -0.113
    1UNL     C2    3   0.247   0.157   0.005
    1UNL     O2    4   0.132   0.146   0.100
    1UNL     C3    5   0.113   0.009   0.149
    1UNL     O3    6   0.056  -0.076   0.051
    1UNL     C4    7  -0.044  -0.012  -0.025
    1UNL     O4    8  -0.049  -0.057  -0.163
    1UNL     C5    9  -0.064  -0.196  -0.176
    1UNL    CL1   10   0.085  -0.272  -0.163
    1UNL     C6   11  -0.159  -0.264  -0.069
    1UNL     C7   12  -0.252  -0.157  -0.000
    1UNL     C8   13  -0.371  -0.114  -0.089
    1UNL     C9   14  -0.359   0.039  -0.106
    1UNL     O5   15  -0.289   0.090  -0.222
    1UNL    C10   16  -0.286   0.078   0.026
    1UNL     O6   17  -0.369   0.079   0.146
    1UNL    C11   18  -0.223   0.216   0.025
    1UNL     O7   19  -0.145   0.236   0.137
    1UNL    C12   20  -0.180  -0.034   0.048
    1UNL    C13   21   0.252  -0.053   0.192
    1UNL     O8   22   0.313   0.022   0.291
    1UNL    C14   23   0.363  -0.065   0.069
    1UNL     O9   24   0.360  -0.199   0.031
    1UNL    C15   25   0.300   0.022  -0.046
    1UNL    O10   26   0.403   0.027  -0.152
    1UNL     H1   27   0.344   0.185  -0.225
    1UNL     H2   28   0.168   0.340  -0.076
    1UNL     H3   29   0.102   0.215  -0.160
    1UNL     H4   30   0.328   0.208   0.050
    1UNL     H5   31   0.043   0.013   0.240
    1UNL     H6   32  -0.027   0.099  -0.039
    1UNL     H7   33  -0.101  -0.215  -0.274
    1UNL     H8   34  -0.093  -0.306   0.007
    1UNL     H9   35  -0.218  -0.338  -0.118
    1UNL    H10   36  -0.287  -0.208   0.090
    1UNL    H11   37  -0.359  -0.156  -0.183
    1UNL    H12   38  -0.463  -0.150  -0.043
    1UNL    H13   39  -0.458   0.081  -0.113
    1UNL    H14   40  -0.201   0.047  -0.224
    1UNL    H15   41  -0.311   0.131   0.212
    1UNL    H16   42  -0.308   0.294   0.025
    1UNL    H17   43  -0.159   0.222  -0.066
    1UNL    H18   44  -0.061   0.184   0.135
    1UNL    H19   45  -0.160  -0.046   0.157
    1UNL    H20   46   0.244  -0.144   0.248
    1UNL    H21   47   0.332   0.108   0.248
    1UNL    H22   48   0.466  -0.038   0.104
    1UNL    H23   49   0.269  -0.205  -0.003
    1UNL    H24   50   0.214  -0.028  -0.087
    1UNL    H25   51   0.468  -0.047  -0.134
   0.00000   0.00000   0.00000   0.00000   0.00000   0.00000   0.00000   0.00000   0.00000
Generated with MDTraj, t= 92.0
 51
    1UNL     O1    1   0.293   0.288  -0.195
    1UNL     C1    2   0.191   0.233  -0.119
    1UNL     C2    3   0.244   0.155  -0.001
    1UNL     O2    4   0.138   0.141   0.101
    1UNL     C3    5   0.116   0.005   0.138
    1UNL     O3    6   0.052  -0.080   0.045
    1UNL     C4    7  -0.050  -0.014  -0.025
    1UNL     O4    8  -0.068  -0.064  -0.160
    1UNL     C5    9  -0.064  -0.202  -0.165
    1UNL    CL1   10   0.096  -0.273  -0.175
    1UNL     C6   11  -0.137  -0.268  -0.041
    1UNL     C7   12  -0.248  -0.164   0.014
    1UNL     C8   13  -0.345  -0.121  -0.102
    1UNL     C9   14  -0.356   0.033  -0.097
    1UNL     O5   15  -0.296   0.090  -0.201
    1UNL    C10   16  -0.283   0.084   0.037
    1UNL     O6   17  -0.376   0.095   0.143
    1UNL    C11   18  -0.229   0.231   0.011
    1UNL     O7   19  -0.149   0.262   0.119
    1UNL    C12   20  -0.177  -0.034   0.058
    1UNL    C13   21   0.241  -0.059   0.187
    1UNL     O8   22   0.308   0.023   0.282
    1UNL    C14   23   0.330  -0.084   0.067
    1UNL     O9   24   0.361  -0.212   0.021
    1UNL    C15   25   0.306   0.022  -0.046
    1UNL    O10   26   0.410   0.033  -0.145
    1UNL     H1   27   0.348   0.211  -0.217
    1UNL     H2   28   0.112   0.308  -0.095
    1UNL     H3   29   0.124   0.160  -0.177
    1UNL     H4   30   0.316   0.219   0.046
    1UNL     H5   31   0.046   0.008   0.229
    1UNL     H6   32  -0.030   0.096  -0.043
    1UNL     H7   33  -0.118  -0.226  -0.256
    1UNL     H8   34  -0.062  -0.285   0.034
    1UNL     H9   35  -0.187  -0.356  -0.076
    1UNL    H10   36  -0.304  -0.213   0.096
    1UNL    H11   37  -0.304  -0.147  -0.196
    1UNL    H12   38  -0.441  -0.168  -0.095
    1UNL    H13   39  -0.457   0.073  -0.087
    1UNL    H14   40  -0.210   0.039  -0.208
    1UNL    H15   41  -0.342   0.169   0.206
    1UNL    H16   42  -0.315   0.303   0.008
    1UNL    H17   43  -0.170   0.236  -0.082
    1UNL    H18   44  -0.069   0.204   0.113
    1UNL    H19   45  -0.144  -0.039   0.164
    1UNL    H20   46   0.213  -0.160   0.219
    1UNL    H21   47   0.311   0.111   0.235
    1UNL    H22   48   0.435  -0.068   0.109
    1UNL    H23   49   0.279  -0.234  -0.030
    1UNL    H24   50   0.223  -0.024  -0.103
    1UNL    H25   51   0.468  -0.051  -0.134
   0.00000   0.00000   0.00000   0.00000   0.00000   0.00000   0.00000   0.00000   0.00000
Generated with MDTraj, t= 93.0
 51
    1UNL     O1    1   0.299   0.302  -0.188
    1UNL     C1    2   0.203   0.252  -0.102
    1UNL     C2    3   0.253   0.158   0.012
    1UNL     O2    4   0.131   0.141   0.093
    1UNL     C3    5   0.114  -0.005   0.139
    1UNL     O3    6   0.063  -0.094   0.048
    1UNL     C4    7  -0.041  -0.023  -0.030
    1UNL     O4    8  -0.060  -0.068  -0.174
    1UNL     C5    9  -0.072  -0.207  -0.180
    1UNL    CL1   10   0.086  -0.277  -0.166
    1UNL     C6   11  -0.169  -0.269  -0.076
    1UNL     C7   12  -0.250  -0.161   0.009
    1UNL     C8   13  -0.379  -0.127  -0.059
    1UNL     C9   14  -0.365   0.032  -0.092
    1UNL     O5   15  -0.317   0.056  -0.225
    1UNL    C10   16  -0.277   0.092   0.026
    1UNL     O6   17  -0.359   0.096   0.143
    1UNL    C11   18  -0.211   0.229   0.005
    1UNL     O7   19  -0.129   0.265   0.116
    1UNL    C12   20  -0.175  -0.027   0.049
    1UNL    C13   21   0.255  -0.067   0.189
    1UNL     O8   22   0.302   0.023   0.289
    1UNL    C14   23   0.355  -0.071   0.071
    1UNL     O9   24   0.359  -0.195   0.019
    1UNL    C15   25   0.305   0.025  -0.040
    1UNL    O10   26   0.402   0.043  -0.141
    1UNL     H1   27   0.372   0.236  -0.204
    1UNL     H2   28   0.135   0.330  -0.059
    1UNL     H3   29   0.128   0.192  -0.162
    1UNL     H4   30   0.336   0.207   0.064
    1UNL     H5   31   0.039   0.006   0.224
    1UNL     H6   32  -0.008   0.084  -0.050
    1UNL     H7   33  -0.111  -0.223  -0.284
    1UNL     H8   34  -0.113  -0.324  -0.003
    1UNL     H9   35  -0.239  -0.326  -0.132
    1UNL    H10   36  -0.281  -0.209   0.105
    1UNL    H11   37  -0.377  -0.178  -0.155
    1UNL    H12   38  -0.473  -0.145  -0.014
    1UNL    H13   39  -0.464   0.083  -0.085
    1UNL    H14   40  -0.225   0.021  -0.227
    1UNL    H15   41  -0.323   0.163   0.202
    1UNL    H16   42  -0.295   0.300   0.002
    1UNL    H17   43  -0.164   0.243  -0.091
    1UNL    H18   44  -0.048   0.209   0.109
    1UNL    H19   45  -0.160  -0.014   0.160
    1UNL    H20   46   0.246  -0.169   0.236
    1UNL    H21   47   0.312   0.115   0.260
    1UNL    H22   48   0.459  -0.040   0.099
    1UNL    H23   49   0.268  -0.214  -0.018
    1UNL    H24   50   0.220  -0.029  -0.088
    1UNL    H25   51   0.455  -0.044  -0.146
   0.00000   0.00000   0.00000   0.00000   0.00000   0.00000   0.00000   0.00000   0.00000
Generated with MDTraj, t= 94.0
 51
    1UNL     O1    1   0.314   0.318  -0.177
    1UNL     C1    2   0.207   0.272  -0.090
    1UNL     C2    3   0.245   0.167   0.021
    1UNL     O2    4   0.132   0.129   0.099
    1UNL     C3    5   0.120  -0.010   0.136
    1UNL     O3    6   0.055  -0.095   0.044
    1UNL     C4    7  -0.045  -0.029  -0.039
    1UNL     O4    8  -0.064  -0.075  -0.174
    1UNL     C5    9  -0.079  -0.216  -0.177
    1UNL    CL1   10   0.072  -0.293  -0.155
    1UNL     C6   11  -0.175  -0.277  -0.073
    1UNL     C7   12  -0.253  -0.166   0.007
    1UNL     C8   13  -0.376  -0.124  -0.072
    1UNL     C9   14  -0.372   0.032  -0.086
    1UNL     O5   15  -0.343   0.067  -0.218
    1UNL    C10   16  -0.271   0.081   0.024
    1UNL     O6   17  -0.338   0.104   0.153
    1UNL    C11   18  -0.213   0.221  -0.016
    1UNL     O7   19  -0.122   0.277   0.084
    1UNL    C12   20  -0.169  -0.037   0.039
    1UNL    C13   21   0.261  -0.069   0.195
    1UNL     O8   22   0.309   0.010   0.305
    1UNL    C14   23   0.356  -0.065   0.071
    1UNL     O9   24   0.369  -0.192   0.006
    1UNL    C15   25   0.309   0.043  -0.040
    1UNL    O10   26   0.411   0.065  -0.142
    1UNL     H1   27   0.365   0.246  -0.221
    1UNL     H2   28   0.143   0.351  -0.046
    1UNL     H3   29   0.134   0.220  -0.156
    1UNL     H4   30   0.319   0.211   0.093
    1UNL     H5   31   0.045  -0.003   0.220
    1UNL     H6   32  -0.002   0.075  -0.061
    1UNL     H7   33  -0.113  -0.226  -0.287
    1UNL     H8   34  -0.120  -0.342  -0.009
    1UNL     H9   35  -0.252  -0.329  -0.126
    1UNL    H10   36  -0.294  -0.212   0.103
    1UNL    H11   37  -0.386  -0.161  -0.177
    1UNL    H12   38  -0.461  -0.148  -0.017
    1UNL    H13   39  -0.474   0.078  -0.071
    1UNL    H14   40  -0.250   0.036  -0.239
    1UNL    H15   41  -0.280   0.166   0.200
    1UNL    H16   42  -0.286   0.291  -0.047
    1UNL    H17   43  -0.166   0.202  -0.109
    1UNL    H18   44  -0.046   0.217   0.102
    1UNL    H19   45  -0.133  -0.054   0.145
    1UNL    H20   46   0.244  -0.175   0.234
    1UNL    H21   47   0.300   0.103   0.277
    1UNL    H22   48   0.456  -0.035   0.105
    1UNL    H23   49   0.283  -0.224  -0.029
    1UNL    H24   50   0.221  -0.008  -0.089
    1UNL    H25   51   0.449  -0.018  -0.175
   0.00000   0.00000   0.00000   0.00000   0.00000   0.00000   0.00000   0.00000   0.00000
Generated with MDTraj, t= 95.0
 51
    1UNL     O1    1   0.309   0.349  -0.131
    1UNL     C1    2   0.202   0.267  -0.090
    1UNL     C2    3   0.235   0.155   0.018
    1UNL     O2    4   0.123   0.126   0.106
    1UNL     C3    5   0.116  -0.017   0.123
    1UNL     O3    6   0.058  -0.097   0.019
    1UNL     C4    7  -0.052  -0.028  -0.043
    1UNL     O4    8  -0.088  -0.089  -0.170
    1UNL     C5    9  -0.086  -0.233  -0.158
    1UNL    CL1   10   0.082  -0.307  -0.155
    1UNL     C6   11  -0.153  -0.267  -0.025
    1UNL     C7   12  -0.248  -0.152   0.024
    1UNL     C8   13  -0.359  -0.123  -0.079
    1UNL     C9   14  -0.374   0.034  -0.084
    1UNL     O5   15  -0.323   0.069  -0.213
    1UNL    C10   16  -0.273   0.092   0.020
    1UNL     O6   17  -0.347   0.124   0.136
    1UNL    C11   18  -0.203   0.225  -0.024
    1UNL     O7   19  -0.123   0.276   0.079
    1UNL    C12   20  -0.176  -0.023   0.052
    1UNL    C13   21   0.250  -0.072   0.171
    1UNL     O8   22   0.295   0.004   0.276
    1UNL    C14   23   0.349  -0.075   0.056
    1UNL     O9   24   0.374  -0.200  -0.019
    1UNL    C15   25   0.304   0.034  -0.048
    1UNL    O10   26   0.421   0.079  -0.124
    1UNL     H1   27   0.395   0.303  -0.119
    1UNL     H2   28   0.133   0.340  -0.049
    1UNL     H3   29   0.150   0.224  -0.176
    1UNL     H4   30   0.312   0.195   0.092
    1UNL     H5   31   0.052  -0.040   0.209
    1UNL     H6   32  -0.020   0.076  -0.074
    1UNL     H7   33  -0.143  -0.262  -0.254
    1UNL     H8   34  -0.079  -0.280   0.050
    1UNL     H9   35  -0.205  -0.360  -0.033
    1UNL    H10   36  -0.285  -0.190   0.125
    1UNL    H11   37  -0.319  -0.165  -0.174
    1UNL    H12   38  -0.450  -0.168  -0.052
    1UNL    H13   39  -0.483   0.062  -0.070
    1UNL    H14   40  -0.233   0.033  -0.221
    1UNL    H15   41  -0.287   0.179   0.197
    1UNL    H16   42  -0.283   0.293  -0.032
    1UNL    H17   43  -0.163   0.235  -0.121
    1UNL    H18   44  -0.040   0.222   0.089
    1UNL    H19   45  -0.141  -0.011   0.161
    1UNL    H20   46   0.246  -0.178   0.216
    1UNL    H21   47   0.263   0.098   0.258
    1UNL    H22   48   0.447  -0.048   0.098
    1UNL    H23   49   0.295  -0.240  -0.058
    1UNL    H24   50   0.222  -0.008  -0.117
    1UNL    H25   51   0.469   0.013  -0.170
   0.00000   0.00000   0.00000   0.00000   0.00000   0.00000   0.00000   0.00000   0.00000
Generated with MDTraj, t= 96.0
 51
    1UNL     O1    1   0.312   0.346  -0.129
    1UNL     C1    2   0.208   0.295  -0.057
    1UNL     C2    3   0.243   0.172   0.034
    1UNL     O2    4   0.126   0.131   0.110
    1UNL     C3    5   0.122  -0.020   0.134
    1UNL     O3    6   0.071  -0.088   0.018
    1UNL     C4    7  -0.039  -0.024  -0.048
    1UNL     O4    8  -0.065  -0.096  -0.174
    1UNL     C5    9  -0.092  -0.233  -0.148
    1UNL    CL1   10   0.057  -0.322  -0.155
    1UNL     C6   11  -0.169  -0.274  -0.019
    1UNL     C7   12  -0.252  -0.151   0.034
    1UNL     C8   13  -0.377  -0.118  -0.057
    1UNL     C9   14  -0.359   0.027  -0.102
    1UNL     O5   15  -0.298   0.037  -0.234
    1UNL    C10   16  -0.272   0.093   0.010
    1UNL     O6   17  -0.348   0.122   0.123
    1UNL    C11   18  -0.203   0.224  -0.028
    1UNL     O7   19  -0.130   0.278   0.077
    1UNL    C12   20  -0.169  -0.019   0.048
    1UNL    C13   21   0.263  -0.085   0.174
    1UNL     O8   22   0.318  -0.020   0.287
    1UNL    C14   23   0.347  -0.067   0.042
    1UNL     O9   24   0.350  -0.181  -0.034
    1UNL    C15   25   0.294   0.057  -0.052
    1UNL    O10   26   0.409   0.099  -0.124
    1UNL     H1   27   0.364   0.272  -0.172
    1UNL     H2   28   0.170   0.379  -0.001
    1UNL     H3   29   0.138   0.274  -0.136
    1UNL     H4   30   0.330   0.200   0.104
    1UNL     H5   31   0.050  -0.053   0.208
    1UNL     H6   32  -0.010   0.077  -0.089
    1UNL     H7   33  -0.157  -0.269  -0.235
    1UNL     H8   34  -0.095  -0.316   0.046
    1UNL     H9   35  -0.235  -0.359  -0.023
    1UNL    H10   36  -0.288  -0.183   0.137
    1UNL    H11   37  -0.385  -0.181  -0.146
    1UNL    H12   38  -0.463  -0.124   0.007
    1UNL    H13   39  -0.454   0.086  -0.107
    1UNL    H14   40  -0.211  -0.010  -0.236
    1UNL    H15   41  -0.296   0.167   0.195
    1UNL    H16   42  -0.267   0.301  -0.056
    1UNL    H17   43  -0.141   0.215  -0.112
    1UNL    H18   44  -0.044   0.228   0.079
    1UNL    H19   45  -0.129  -0.011   0.154
    1UNL    H20   46   0.269  -0.195   0.212
    1UNL    H21   47   0.304   0.078   0.284
    1UNL    H22   48   0.450  -0.046   0.069
    1UNL    H23   49   0.260  -0.201  -0.071
    1UNL    H24   50   0.213   0.024  -0.129
    1UNL    H25   51   0.431   0.023  -0.181
   0.00000   0.00000   0.00000   0.00000   0.00000   0.00000   0.00000   0.00000   0.00000
Generated with MDTraj, t= 97.0
 51
    1UNL     O1    1   0.310   0.370  -0.104
    1UNL     C1    2   0.199   0.298  -0.039
    1UNL     C2    3   0.231   0.163   0.034
    1UNL     O2    4   0.121   0.113   0.109
    1UNL     C3    5   0.132  -0.022   0.144
    1UNL     O3    6   0.067  -0.110   0.057
    1UNL     C4    7  -0.033  -0.047  -0.018
    1UNL     O4    8  -0.051  -0.098  -0.149
    1UNL     C5    9  -0.092  -0.235  -0.149
    1UNL    CL1   10   0.054  -0.332  -0.160
    1UNL     C6   11  -0.180  -0.272  -0.023
    1UNL     C7   12  -0.267  -0.151   0.030
    1UNL     C8   13  -0.388  -0.109  -0.069
    1UNL     C9   14  -0.360   0.033  -0.102
    1UNL     O5   15  -0.310   0.051  -0.235
    1UNL    C10   16  -0.269   0.093   0.007
    1UNL     O6   17  -0.346   0.135   0.121
    1UNL    C11   18  -0.195   0.218  -0.057
    1UNL     O7   19  -0.110   0.275   0.036
    1UNL    C12   20  -0.176  -0.028   0.051
    1UNL    C13   21   0.275  -0.075   0.173
    1UNL     O8   22   0.344  -0.014   0.284
    1UNL    C14   23   0.351  -0.060   0.037
    1UNL     O9   24   0.358  -0.175  -0.037
    1UNL    C15   25   0.296   0.060  -0.057
    1UNL    O10   26   0.393   0.109  -0.147
    1UNL     H1   27   0.374   0.301  -0.127
    1UNL     H2   28   0.148   0.374   0.020
    1UNL     H3   29   0.141   0.272  -0.125
    1UNL     H4   30   0.310   0.181   0.115
    1UNL     H5   31   0.059  -0.038   0.220
    1UNL     H6   32  -0.002   0.056  -0.050
    1UNL     H7   33  -0.147  -0.254  -0.243
    1UNL     H8   34  -0.120  -0.305   0.057
    1UNL     H9   35  -0.235  -0.363  -0.043
    1UNL    H10   36  -0.309  -0.172   0.132
    1UNL    H11   37  -0.391  -0.164  -0.161
    1UNL    H12   38  -0.489  -0.119  -0.025
    1UNL    H13   39  -0.455   0.093  -0.105
    1UNL    H14   40  -0.226  -0.000  -0.241
    1UNL    H15   41  -0.294   0.175   0.189
    1UNL    H16   42  -0.267   0.294  -0.080
    1UNL    H17   43  -0.142   0.195  -0.147
    1UNL    H18   44  -0.045   0.210   0.072
    1UNL    H19   45  -0.149  -0.021   0.162
    1UNL    H20   46   0.274  -0.186   0.198
    1UNL    H21   47   0.310   0.074   0.307
    1UNL    H22   48   0.455  -0.036   0.056
    1UNL    H23   49   0.267  -0.203  -0.062
    1UNL    H24   50   0.218   0.022  -0.137
    1UNL    H25   51   0.415   0.029  -0.209
   0.00000   0.00000   0.00000   0.00000   0.00000   0.00000   0.00000   0.00000   0.00000
Generated with MDTraj, t= 98.0
 51
    1UNL     O1    1   0.296   0.369  -0.075
    1UNL     C1    2   0.181   0.284  -0.041
    1UNL     C2    3   0.223   0.160   0.036
    1UNL     O2    4   0.122   0.119   0.124
    1UNL     C3    5   0.125  -0.029   0.139
    1UNL     O3    6   0.076  -0.113   0.033
    1UNL     C4    7  -0.025  -0.034  -0.028
    1UNL     O4    8  -0.059  -0.096  -0.152
    1UNL     C5    9  -0.088  -0.231  -0.135
    1UNL    CL1   10   0.065  -0.324  -0.147
    1UNL     C6   11  -0.170  -0.257  -0.012
    1UNL     C7   12  -0.260  -0.147   0.032
    1UNL     C8   13  -0.385  -0.110  -0.057
    1UNL     C9   14  -0.354   0.036  -0.104
    1UNL     O5   15  -0.299   0.031  -0.238
    1UNL    C10   16  -0.258   0.097  -0.001
    1UNL     O6   17  -0.337   0.148   0.101
    1UNL    C11   18  -0.176   0.220  -0.055
    1UNL     O7   19  -0.112   0.266   0.059
    1UNL    C12   20  -0.169  -0.020   0.047
    1UNL    C13   21   0.272  -0.083   0.159
    1UNL     O8   22   0.320  -0.003   0.268
    1UNL    C14   23   0.340  -0.064   0.026
    1UNL     O9   24   0.354  -0.178  -0.057
    1UNL    C15   25   0.284   0.051  -0.057
    1UNL    O10   26   0.380   0.092  -0.153
    1UNL     H1   27   0.367   0.309  -0.109
    1UNL     H2   28   0.128   0.347   0.033
    1UNL     H3   29   0.124   0.260  -0.131
    1UNL     H4   30   0.307   0.188   0.110
    1UNL     H5   31   0.075  -0.055   0.227
    1UNL     H6   32   0.006   0.068  -0.055
    1UNL     H7   33  -0.142  -0.258  -0.225
    1UNL     H8   34  -0.096  -0.284   0.060
    1UNL     H9   35  -0.229  -0.348  -0.018
    1UNL    H10   36  -0.304  -0.170   0.131
    1UNL    H11   37  -0.393  -0.174  -0.142
    1UNL    H12   38  -0.487  -0.126  -0.011
    1UNL    H13   39  -0.448   0.091  -0.108
    1UNL    H14   40  -0.210  -0.009  -0.223
    1UNL    H15   41  -0.274   0.209   0.151
    1UNL    H16   42  -0.249   0.296  -0.084
    1UNL    H17   43  -0.114   0.190  -0.140
    1UNL    H18   44  -0.039   0.207   0.091
    1UNL    H19   45  -0.142  -0.010   0.156
    1UNL    H20   46   0.291  -0.187   0.194
    1UNL    H21   47   0.244   0.030   0.316
    1UNL    H22   48   0.445  -0.045   0.049
    1UNL    H23   49   0.268  -0.219  -0.076
    1UNL    H24   50   0.195   0.012  -0.123
    1UNL    H25   51   0.406   0.024  -0.222
   0.00000   0.00000   0.00000   0.00000   0.00000   0.00000   0.00000   0.00000   0.00000
Generated with MDTraj, t= 99.0
 51
    1UNL     O1    1   0.304   0.350  -0.100
    1UNL     C1    2   0.186   0.306  -0.030
    1UNL     C2    3   0.221   0.167   0.042
    1UNL     O2    4   0.117   0.117   0.122
    1UNL     C3    5   0.121  -0.025   0.134
    1UNL     O3    6   0.077  -0.095   0.019
    1UNL     C4    7  -0.039  -0.033  -0.045
    1UNL     O4    8  -0.055  -0.103  -0.166
    1UNL     C5    9  -0.086  -0.242  -0.137
    1UNL    CL1   10   0.062  -0.326  -0.138
    1UNL     C6   11  -0.175  -0.278  -0.011
    1UNL     C7   12  -0.258  -0.152   0.036
    1UNL     C8   13  -0.369  -0.118  -0.073
    1UNL     C9   14  -0.354   0.037  -0.107
    1UNL     O5   15  -0.295   0.053  -0.234
    1UNL    C10   16  -0.257   0.097   0.005
    1UNL     O6   17  -0.324   0.123   0.131
    1UNL    C11   18  -0.199   0.225  -0.048
    1UNL     O7   19  -0.128   0.300   0.048
    1UNL    C12   20  -0.166  -0.023   0.041
    1UNL    C13   21   0.267  -0.090   0.161
    1UNL     O8   22   0.330  -0.012   0.269
    1UNL    C14   23   0.345  -0.063   0.027
    1UNL     O9   24   0.348  -0.184  -0.051
    1UNL    C15   25   0.280   0.054  -0.061
    1UNL    O10   26   0.393   0.097  -0.136
    1UNL     H1   27   0.353   0.271  -0.135
    1UNL     H2   28   0.161   0.390   0.041
    1UNL     H3   29   0.115   0.283  -0.110
    1UNL     H4   30   0.303   0.174   0.122
    1UNL     H5   31   0.055  -0.048   0.213
    1UNL     H6   32  -0.015   0.068  -0.076
    1UNL     H7   33  -0.124  -0.268  -0.233
    1UNL     H8   34  -0.111  -0.301   0.071
    1UNL     H9   35  -0.226  -0.373  -0.026
    1UNL    H10   36  -0.305  -0.156   0.135
    1UNL    H11   37  -0.377  -0.178  -0.160
    1UNL    H12   38  -0.474  -0.129  -0.031
    1UNL    H13   39  -0.444   0.097  -0.107
    1UNL    H14   40  -0.211   0.000  -0.225
    1UNL    H15   41  -0.271   0.196   0.172
    1UNL    H16   42  -0.287   0.287  -0.077
    1UNL    H17   43  -0.147   0.202  -0.145
    1UNL    H18   44  -0.050   0.242   0.071
    1UNL    H19   45  -0.130  -0.017   0.145
    1UNL    H20   46   0.256  -0.194   0.188
    1UNL    H21   47   0.259   0.005   0.334
    1UNL    H22   48   0.451  -0.048   0.053
    1UNL    H23   49   0.253  -0.200  -0.076
    1UNL    H24   50   0.194   0.011  -0.127
    1UNL    H25   51   0.433   0.029  -0.191
   0.00000   0.00000   0.00000   0.00000   0.00000   0.00000   0.00000   0.00000   0.00000
