1TPCN00425
10
    1res  C1    1    0.287   0.025  -0.279
    1res  C2    2    0.308  -0.099  -0.083
    1res  C3    3    0.210   0.076   0.152
    1res  C4    4   -0.051   0.014  -0.046
    1res  C5    5   -0.148  -0.256  -0.001
    1res  C6    6   -0.211  -0.021   0.146
    1res  C7    7   -0.467   0.023   0.131
    1res  C8    8   -0.316   0.220  -0.010
    1res  C9    9   -0.301   0.073  -0.212
    1res  C10   10    0.473   0.004   0.039
  10.00000  10.00000  10.00000
