[ moleculetype ]
; name        nrexcl
res           1

[ atoms ]
;    nr  type  resnr resid  atom  cgnr     charge       mass
      1 TN6a      1 res   C1        1      0.000     36.000
      2 TC5       1 res   C2        2      0.000     36.000
      3 TC5       1 res   C3        3      0.000     36.000
      4 TC5       1 res   C4        4      0.000     36.000
      5 TN2a      1 res   C5        5      0.000     36.000

[ constraints ]
;  ai    aj   funct      b0(nm)
    1     2     1      0.20191
    2     3     1      0.25033
    1     5     1      0.22015
    2     5     1      0.17232
    3     4     1      0.29109
    2     4     1      0.24918

[ bonds ]
;  ai    aj   funct      b0(nm)          k(kJ/mol/nm^2)

[ angles ]
;  ai    aj    ak  funct     th0(deg)        k(kJ/mol/rad^2)
    1     2     3     1    112.89204          3715.05
    1     2     4     1    174.53461          2535.71
    1     2     5     1     71.56950          9394.96
    1     5     2     1     60.47821          6327.43
    2     1     5     1     47.95231          6687.08
    2     3     4     1     54.17210          9414.87
    2     4     3     1     54.53667         11851.55
    3     2     4     1     71.29125          6487.86
    3     2     5     1    173.56737          1877.06
    4     2     5     1    104.39609          4173.92

[ dihedrals ]
;  ai    aj    ak    al  funct   phi0(deg)        k(kJ/mol)   mult
    1     2     3     4     1     -0.94114        7.092      1
    1     2     4     3     1      2.77627       30.896      1
    1     5     2     3     1      2.48497       31.992      1
    1     5     2     4     1     -0.95113        7.109      1
    3     2     1     5     1     -0.24691        9.298      1
    3     4     2     5     1     -0.26201        9.291      1
    4     2     1     5     1    179.06536       27.336      1
    4     3     2     5     1   -178.90899       30.036      1
