1TPCN02545
18
    1res  C1    1   -0.247  -0.560   0.094
    1res  C2    2   -0.308  -0.282   0.199
    1res  C3    3   -0.282   0.118   0.174
    1res  C4    4   -0.398   0.125  -0.165
    1res  C5    5   -0.636   0.200  -0.268
    1res  C6    6   -0.542   0.400  -0.215
    1res  C7    7   -0.510   0.353   0.037
    1res  C8    8   -0.013   0.234   0.185
    1res  C9    9    0.039  -0.011   0.095
    1res  C10   10    0.099   0.166  -0.247
    1res  C11   11    0.268   0.288  -0.086
    1res  C12   12    0.093  -0.113  -0.147
    1res  C13   13    0.403  -0.032  -0.061
    1res  C14   14    0.624  -0.005   0.084
    1res  C15   15    0.702   0.188  -0.041
    1res  C16   16    0.753  -0.097  -0.113
    1res  C17   17    0.639  -0.297  -0.055
    1res  C18   18    0.424  -0.244  -0.009
  10.00000  10.00000  10.00000
