1TPCN05472
12
    1res  C1    1    0.831   0.044   0.078
    1res  C2    2    0.508   0.056  -0.001
    1res  C3    3    0.225  -0.056   0.114
    1res  C4    4    0.068   0.022  -0.035
    1res  C5    5    0.258   0.005  -0.253
    1res  C6    6   -0.019   0.135  -0.227
    1res  C7    7   -0.218   0.062  -0.203
    1res  C8    8   -0.161   0.114   0.045
    1res  C9    9   -0.272  -0.034   0.234
    1res  C10   10   -0.574   0.247   0.081
    1res  C11   11   -0.441  -0.079  -0.106
    1res  C12   12   -0.291  -0.404  -0.018
  10.00000  10.00000  10.00000
