[ moleculetype ]
; name        nrexcl
res           1

[ atoms ]
;    nr  type  resnr resid  atom  cgnr     charge       mass
      1 SP5       1 res   C1        1      0.000     54.000
      2 SN6d      1 res   C2        2      0.000     54.000
      3 TN6d      1 res   C3        3      0.000     36.000
      4 TN6a      1 res   C4        4      0.000     36.000

[ constraints ]
;  ai    aj   funct      b0(nm)
    1     2     1      0.34848
    3     4     1      0.21183
    2     3     1      0.24032
    2     4     1      0.33435

[ bonds ]
;  ai    aj   funct      b0(nm)          k(kJ/mol/nm^2)

[ angles ]
;  ai    aj    ak  funct     th0(deg)        k(kJ/mol/rad^2)
    1     2     3     1    109.75974          1290.53
    1     2     4     1     71.01826          1956.78
    2     3     4     1     95.19492          1591.68
    2     4     3     1     45.70434          2020.39
    3     2     4     1     39.10080          5565.85

[ dihedrals ]
;  ai    aj    ak    al  funct   phi0(deg)        k(kJ/mol)   mult
    1     2     3     4     1   -179.14058       14.344      1
    1     2     4     3     1      0.10472       15.032      1
