Generated with MDTraj, t= 0.0
 50
    1UNL     C1    1  -0.108   0.126  -0.243
    1UNL     C2    2  -0.178   0.019  -0.159
    1UNL     C3    3  -0.162   0.029  -0.003
    1UNL     C4    4  -0.301   0.005   0.065
    1UNL     C5    5  -0.353  -0.140   0.046
    1UNL     C6    6  -0.251  -0.247   0.093
    1UNL     N1    7  -0.121  -0.225   0.027
    1UNL     C7    8  -0.004  -0.308   0.075
    1UNL     C8    9   0.121  -0.216   0.081
    1UNL     C9   10   0.076  -0.083   0.016
    1UNL    C10   11   0.111  -0.086  -0.132
    1UNL     O1   12   0.068  -0.162  -0.215
    1UNL    C11   13   0.208   0.022  -0.154
    1UNL    C12   14   0.277   0.056  -0.269
    1UNL    C13   15   0.356   0.169  -0.267
    1UNL    C14   16   0.364   0.249  -0.153
    1UNL    C15   17   0.295   0.216  -0.038
    1UNL    C16   18   0.217   0.101  -0.038
    1UNL     N2   19   0.133   0.049   0.063
    1UNL    C17   20   0.035   0.141   0.132
    1UNL     O2   21   0.005   0.094   0.263
    1UNL    C18   22   0.122   0.077   0.339
    1UNL    C19   23  -0.095   0.162   0.049
    1UNL    C20   24  -0.074  -0.086   0.051
    1UNL     H1   25  -0.002   0.132  -0.219
    1UNL     H2   26  -0.151   0.224  -0.227
    1UNL     H3   27  -0.116   0.104  -0.350
    1UNL     H4   28  -0.143  -0.080  -0.190
    1UNL     H5   29  -0.285   0.020  -0.184
    1UNL     H6   30  -0.374   0.077   0.025
    1UNL     H7   31  -0.293   0.027   0.172
    1UNL     H8   32  -0.376  -0.158  -0.059
    1UNL     H9   33  -0.448  -0.154   0.099
    1UNL    H10   34  -0.238  -0.243   0.201
    1UNL    H11   35  -0.285  -0.348   0.069
    1UNL    H12   36   0.010  -0.389   0.003
    1UNL    H13   37  -0.028  -0.353   0.172
    1UNL    H14   38   0.206  -0.258   0.027
    1UNL    H15   39   0.153  -0.198   0.185
    1UNL    H16   40   0.267  -0.005  -0.357
    1UNL    H17   41   0.410   0.197  -0.356
    1UNL    H18   42   0.426   0.337  -0.154
    1UNL    H19   43   0.302   0.277   0.050
    1UNL    H20   44   0.086   0.237   0.145
    1UNL    H21   45   0.096   0.033   0.435
    1UNL    H22   46   0.192   0.012   0.286
    1UNL    H23   47   0.169   0.174   0.356
    1UNL    H24   48  -0.075   0.231  -0.033
    1UNL    H25   49  -0.167   0.214   0.113
    1UNL    H26   50  -0.078  -0.075   0.160
   0.00000   0.00000   0.00000   0.00000   0.00000   0.00000   0.00000   0.00000   0.00000
Generated with MDTraj, t= 1.0
 50
    1UNL     C1    1  -0.087   0.111  -0.247
    1UNL     C2    2  -0.190   0.039  -0.159
    1UNL     C3    3  -0.159   0.033  -0.001
    1UNL     C4    4  -0.299   0.004   0.066
    1UNL     C5    5  -0.355  -0.135   0.028
    1UNL     C6    6  -0.262  -0.246   0.070
    1UNL     N1    7  -0.123  -0.219   0.031
    1UNL     C7    8  -0.007  -0.303   0.080
    1UNL     C8    9   0.123  -0.206   0.104
    1UNL     C9   10   0.078  -0.081   0.019
    1UNL    C10   11   0.111  -0.090  -0.131
    1UNL     O1   12   0.078  -0.181  -0.202
    1UNL    C11   13   0.193   0.027  -0.158
    1UNL    C12   14   0.271   0.050  -0.274
    1UNL    C13   15   0.343   0.173  -0.272
    1UNL    C14   16   0.349   0.255  -0.162
    1UNL    C15   17   0.287   0.223  -0.045
    1UNL    C16   18   0.216   0.104  -0.035
    1UNL     N2   19   0.143   0.051   0.068
    1UNL    C17   20   0.044   0.135   0.138
    1UNL     O2   21   0.012   0.080   0.267
    1UNL    C18   22   0.129   0.070   0.339
    1UNL    C19   23  -0.089   0.161   0.056
    1UNL    C20   24  -0.071  -0.084   0.046
    1UNL     H1   25   0.004   0.068  -0.225
    1UNL     H2   26  -0.095   0.214  -0.226
    1UNL     H3   27  -0.111   0.086  -0.352
    1UNL     H4   28  -0.194  -0.069  -0.177
    1UNL     H5   29  -0.290   0.071  -0.177
    1UNL     H6   30  -0.370   0.077   0.034
    1UNL     H7   31  -0.293   0.012   0.176
    1UNL     H8   32  -0.371  -0.132  -0.079
    1UNL     H9   33  -0.458  -0.147   0.073
    1UNL    H10   34  -0.248  -0.250   0.177
    1UNL    H11   35  -0.288  -0.347   0.031
    1UNL    H12   36   0.028  -0.362  -0.004
    1UNL    H13   37  -0.028  -0.364   0.166
    1UNL    H14   38   0.214  -0.243   0.053
    1UNL    H15   39   0.127  -0.178   0.203
    1UNL    H16   40   0.275  -0.015  -0.353
    1UNL    H17   41   0.413   0.206  -0.345
    1UNL    H18   42   0.400   0.351  -0.168
    1UNL    H19   43   0.284   0.290   0.045
    1UNL    H20   44   0.087   0.236   0.155
    1UNL    H21   45   0.128  -0.005   0.420
    1UNL    H22   46   0.194   0.025   0.263
    1UNL    H23   47   0.171   0.161   0.385
    1UNL    H24   48  -0.086   0.238  -0.017
    1UNL    H25   49  -0.165   0.189   0.131
    1UNL    H26   50  -0.071  -0.088   0.153
   0.00000   0.00000   0.00000   0.00000   0.00000   0.00000   0.00000   0.00000   0.00000
Generated with MDTraj, t= 2.0
 50
    1UNL     C1    1  -0.071   0.129  -0.225
    1UNL     C2    2  -0.169   0.032  -0.161
    1UNL     C3    3  -0.164   0.026  -0.003
    1UNL     C4    4  -0.306   0.007   0.062
    1UNL     C5    5  -0.366  -0.133   0.053
    1UNL     C6    6  -0.266  -0.243   0.095
    1UNL     N1    7  -0.128  -0.219   0.029
    1UNL     C7    8  -0.007  -0.303   0.055
    1UNL     C8    9   0.123  -0.224   0.084
    1UNL     C9   10   0.074  -0.086   0.021
    1UNL    C10   11   0.117  -0.094  -0.129
    1UNL     O1   12   0.098  -0.176  -0.217
    1UNL    C11   13   0.209   0.021  -0.150
    1UNL    C12   14   0.284   0.049  -0.265
    1UNL    C13   15   0.350   0.171  -0.275
    1UNL    C14   16   0.325   0.261  -0.171
    1UNL    C15   17   0.274   0.223  -0.055
    1UNL    C16   18   0.217   0.099  -0.038
    1UNL     N2   19   0.135   0.048   0.067
    1UNL    C17   20   0.039   0.135   0.132
    1UNL     O2   21   0.010   0.100   0.264
    1UNL    C18   22   0.120   0.071   0.344
    1UNL    C19   23  -0.094   0.158   0.057
    1UNL    C20   24  -0.075  -0.085   0.054
    1UNL     H1   25   0.026   0.121  -0.180
    1UNL     H2   26  -0.113   0.225  -0.211
    1UNL     H3   27  -0.058   0.110  -0.330
    1UNL     H4   28  -0.150  -0.072  -0.184
    1UNL     H5   29  -0.270   0.044  -0.180
    1UNL     H6   30  -0.369   0.082   0.027
    1UNL     H7   31  -0.297   0.031   0.171
    1UNL     H8   32  -0.398  -0.143  -0.051
    1UNL     H9   33  -0.464  -0.134   0.112
    1UNL    H10   34  -0.246  -0.244   0.199
    1UNL    H11   35  -0.286  -0.350   0.064
    1UNL    H12   36   0.009  -0.358  -0.034
    1UNL    H13   37  -0.016  -0.372   0.138
    1UNL    H14   38   0.197  -0.274   0.016
    1UNL    H15   39   0.140  -0.222   0.185
    1UNL    H16   40   0.300  -0.026  -0.353
    1UNL    H17   41   0.408   0.192  -0.369
    1UNL    H18   42   0.372   0.358  -0.163
    1UNL    H19   43   0.272   0.290   0.022
    1UNL    H20   44   0.091   0.234   0.136
    1UNL    H21   45   0.104   0.031   0.448
    1UNL    H22   46   0.165  -0.009   0.280
    1UNL    H23   47   0.191   0.151   0.370
    1UNL    H24   48  -0.091   0.232  -0.021
    1UNL    H25   49  -0.160   0.206   0.133
    1UNL    H26   50  -0.075  -0.084   0.160
   0.00000   0.00000   0.00000   0.00000   0.00000   0.00000   0.00000   0.00000   0.00000
Generated with MDTraj, t= 3.0
 50
    1UNL     C1    1  -0.128   0.144  -0.246
    1UNL     C2    2  -0.170   0.024  -0.167
    1UNL     C3    3  -0.160   0.026  -0.013
    1UNL     C4    4  -0.309   0.011   0.045
    1UNL     C5    5  -0.354  -0.135   0.029
    1UNL     C6    6  -0.259  -0.245   0.082
    1UNL     N1    7  -0.117  -0.221   0.036
    1UNL     C7    8   0.001  -0.308   0.089
    1UNL     C8    9   0.129  -0.209   0.091
    1UNL     C9   10   0.079  -0.084   0.018
    1UNL    C10   11   0.112  -0.088  -0.125
    1UNL     O1   12   0.075  -0.171  -0.204
    1UNL    C11   13   0.201   0.026  -0.151
    1UNL    C12   14   0.261   0.054  -0.269
    1UNL    C13   15   0.342   0.166  -0.266
    1UNL    C14   16   0.357   0.244  -0.153
    1UNL    C15   17   0.291   0.220  -0.034
    1UNL    C16   18   0.215   0.104  -0.032
    1UNL     N2   19   0.138   0.045   0.069
    1UNL    C17   20   0.040   0.135   0.136
    1UNL     O2   21   0.017   0.083   0.264
    1UNL    C18   22   0.135   0.071   0.335
    1UNL    C19   23  -0.087   0.155   0.046
    1UNL    C20   24  -0.075  -0.087   0.050
    1UNL     H1   25  -0.022   0.177  -0.225
    1UNL     H2   26  -0.198   0.217  -0.213
    1UNL     H3   27  -0.135   0.132  -0.348
    1UNL     H4   28  -0.114  -0.066  -0.197
    1UNL     H5   29  -0.269   0.008  -0.189
    1UNL     H6   30  -0.370   0.087   0.011
    1UNL     H7   31  -0.298   0.037   0.154
    1UNL     H8   32  -0.376  -0.148  -0.079
    1UNL     H9   33  -0.457  -0.152   0.075
    1UNL    H10   34  -0.244  -0.255   0.185
    1UNL    H11   35  -0.286  -0.349   0.040
    1UNL    H12   36   0.015  -0.398   0.034
    1UNL    H13   37  -0.021  -0.328   0.192
    1UNL    H14   38   0.209  -0.258   0.030
    1UNL    H15   39   0.148  -0.173   0.188
    1UNL    H16   40   0.233   0.004  -0.357
    1UNL    H17   41   0.397   0.201  -0.347
    1UNL    H18   42   0.426   0.327  -0.166
    1UNL    H19   43   0.309   0.274   0.064
    1UNL    H20   44   0.097   0.233   0.146
    1UNL    H21   45   0.120   0.039   0.441
    1UNL    H22   46   0.213   0.004   0.291
    1UNL    H23   47   0.188   0.168   0.350
    1UNL    H24   48  -0.048   0.221  -0.032
    1UNL    H25   49  -0.165   0.221   0.090
    1UNL    H26   50  -0.085  -0.073   0.156
   0.00000   0.00000   0.00000   0.00000   0.00000   0.00000   0.00000   0.00000   0.00000
Generated with MDTraj, t= 4.0
 50
    1UNL     C1    1  -0.185   0.160  -0.232
    1UNL     C2    2  -0.168   0.022  -0.162
    1UNL     C3    3  -0.155   0.027  -0.007
    1UNL     C4    4  -0.301   0.004   0.047
    1UNL     C5    5  -0.348  -0.139   0.027
    1UNL     C6    6  -0.256  -0.241   0.090
    1UNL     N1    7  -0.114  -0.228   0.033
    1UNL     C7    8   0.003  -0.311   0.087
    1UNL     C8    9   0.127  -0.218   0.082
    1UNL     C9   10   0.077  -0.086   0.017
    1UNL    C10   11   0.114  -0.091  -0.132
    1UNL     O1   12   0.081  -0.175  -0.211
    1UNL    C11   13   0.213   0.011  -0.152
    1UNL    C12   14   0.265   0.063  -0.269
    1UNL    C13   15   0.350   0.169  -0.268
    1UNL    C14   16   0.379   0.238  -0.151
    1UNL    C15   17   0.305   0.211  -0.037
    1UNL    C16   18   0.226   0.089  -0.033
    1UNL     N2   19   0.138   0.043   0.069
    1UNL    C17   20   0.042   0.146   0.132
    1UNL     O2   21   0.006   0.105   0.262
    1UNL    C18   22   0.111   0.075   0.346
    1UNL    C19   23  -0.085   0.165   0.041
    1UNL    C20   24  -0.072  -0.091   0.052
    1UNL     H1   25  -0.118   0.245  -0.199
    1UNL     H2   26  -0.285   0.182  -0.203
    1UNL     H3   27  -0.173   0.162  -0.336
    1UNL     H4   28  -0.078  -0.020  -0.211
    1UNL     H5   29  -0.243  -0.043  -0.194
    1UNL     H6   30  -0.363   0.077   0.005
    1UNL     H7   31  -0.296   0.040   0.154
    1UNL     H8   32  -0.364  -0.163  -0.084
    1UNL     H9   33  -0.455  -0.147   0.067
    1UNL    H10   34  -0.255  -0.221   0.191
    1UNL    H11   35  -0.276  -0.354   0.071
    1UNL    H12   36   0.015  -0.400   0.031
    1UNL    H13   37  -0.016  -0.344   0.188
    1UNL    H14   38   0.200  -0.264   0.012
    1UNL    H15   39   0.159  -0.185   0.179
    1UNL    H16   40   0.226   0.023  -0.358
    1UNL    H17   41   0.383   0.204  -0.370
    1UNL    H18   42   0.448   0.322  -0.154
    1UNL    H19   43   0.325   0.268   0.048
    1UNL    H20   44   0.099   0.242   0.158
    1UNL    H21   45   0.080   0.000   0.422
    1UNL    H22   46   0.215   0.053   0.311
    1UNL    H23   47   0.138   0.169   0.398
    1UNL    H24   48  -0.058   0.241  -0.036
    1UNL    H25   49  -0.163   0.224   0.095
    1UNL    H26   50  -0.087  -0.070   0.160
   0.00000   0.00000   0.00000   0.00000   0.00000   0.00000   0.00000   0.00000   0.00000
Generated with MDTraj, t= 5.0
 50
    1UNL     C1    1  -0.277   0.106  -0.229
    1UNL     C2    2  -0.162   0.028  -0.164
    1UNL     C3    3  -0.155   0.042  -0.008
    1UNL     C4    4  -0.291   0.028   0.061
    1UNL     C5    5  -0.346  -0.118   0.048
    1UNL     C6    6  -0.256  -0.230   0.093
    1UNL     N1    7  -0.125  -0.220   0.011
    1UNL     C7    8  -0.014  -0.306   0.058
    1UNL     C8    9   0.111  -0.222   0.090
    1UNL     C9   10   0.084  -0.083   0.015
    1UNL    C10   11   0.133  -0.094  -0.128
    1UNL     O1   12   0.092  -0.175  -0.207
    1UNL    C11   13   0.237   0.009  -0.144
    1UNL    C12   14   0.303   0.052  -0.259
    1UNL    C13   15   0.378   0.161  -0.258
    1UNL    C14   16   0.371   0.248  -0.149
    1UNL    C15   17   0.292   0.219  -0.042
    1UNL    C16   18   0.230   0.096  -0.040
    1UNL     N2   19   0.143   0.049   0.059
    1UNL    C17   20   0.043   0.134   0.130
    1UNL     O2   21   0.010   0.079   0.258
    1UNL    C18   22   0.113   0.071   0.356
    1UNL    C19   23  -0.079   0.174   0.040
    1UNL    C20   24  -0.067  -0.090   0.037
    1UNL     H1   25  -0.295   0.204  -0.183
    1UNL     H2   26  -0.364   0.046  -0.211
    1UNL     H3   27  -0.274   0.131  -0.333
    1UNL     H4   28  -0.067   0.070  -0.199
    1UNL     H5   29  -0.165  -0.075  -0.196
    1UNL     H6   30  -0.352   0.097   0.005
    1UNL     H7   31  -0.297   0.068   0.165
    1UNL     H8   32  -0.363  -0.131  -0.069
    1UNL     H9   33  -0.452  -0.126   0.090
    1UNL    H10   34  -0.231  -0.217   0.193
    1UNL    H11   35  -0.306  -0.334   0.077
    1UNL    H12   36   0.002  -0.374  -0.024
    1UNL    H13   37  -0.044  -0.381   0.133
    1UNL    H14   38   0.199  -0.268   0.050
    1UNL    H15   39   0.119  -0.212   0.200
    1UNL    H16   40   0.288  -0.009  -0.357
    1UNL    H17   41   0.421   0.181  -0.351
    1UNL    H18   42   0.437   0.333  -0.150
    1UNL    H19   43   0.288   0.288   0.042
    1UNL    H20   44   0.093   0.228   0.173
    1UNL    H21   45   0.081   0.062   0.465
    1UNL    H22   46   0.197   0.004   0.346
    1UNL    H23   47   0.171   0.162   0.345
    1UNL    H24   48  -0.043   0.247  -0.038
    1UNL    H25   49  -0.151   0.243   0.092
    1UNL    H26   50  -0.084  -0.079   0.150
   0.00000   0.00000   0.00000   0.00000   0.00000   0.00000   0.00000   0.00000   0.00000
Generated with MDTraj, t= 6.0
 50
    1UNL     C1    1  -0.291   0.092  -0.216
    1UNL     C2    2  -0.163   0.027  -0.161
    1UNL     C3    3  -0.148   0.036  -0.007
    1UNL     C4    4  -0.286   0.021   0.066
    1UNL     C5    5  -0.352  -0.123   0.047
    1UNL     C6    6  -0.253  -0.238   0.070
    1UNL     N1    7  -0.117  -0.216   0.012
    1UNL     C7    8  -0.016  -0.309   0.076
    1UNL     C8    9   0.120  -0.224   0.082
    1UNL     C9   10   0.080  -0.086   0.020
    1UNL    C10   11   0.122  -0.088  -0.126
    1UNL     O1   12   0.080  -0.160  -0.211
    1UNL    C11   13   0.223   0.018  -0.151
    1UNL    C12   14   0.302   0.049  -0.261
    1UNL    C13   15   0.381   0.162  -0.253
    1UNL    C14   16   0.399   0.238  -0.139
    1UNL    C15   17   0.312   0.212  -0.031
    1UNL    C16   18   0.232   0.099  -0.035
    1UNL     N2   19   0.135   0.052   0.062
    1UNL    C17   20   0.041   0.148   0.125
    1UNL     O2   21   0.004   0.109   0.255
    1UNL    C18   22   0.109   0.057   0.329
    1UNL    C19   23  -0.078   0.169   0.029
    1UNL    C20   24  -0.065  -0.084   0.046
    1UNL     H1   25  -0.290   0.194  -0.212
    1UNL     H2   26  -0.373   0.058  -0.157
    1UNL     H3   27  -0.323   0.074  -0.319
    1UNL     H4   28  -0.072   0.064  -0.206
    1UNL     H5   29  -0.170  -0.078  -0.195
    1UNL     H6   30  -0.363   0.096   0.040
    1UNL     H7   31  -0.263   0.041   0.171
    1UNL     H8   32  -0.393  -0.118  -0.062
    1UNL     H9   33  -0.445  -0.131   0.115
    1UNL    H10   34  -0.247  -0.248   0.175
    1UNL    H11   35  -0.292  -0.338   0.028
    1UNL    H12   36  -0.010  -0.405   0.027
    1UNL    H13   37  -0.057  -0.345   0.172
    1UNL    H14   38   0.208  -0.250   0.034
    1UNL    H15   39   0.149  -0.216   0.192
    1UNL    H16   40   0.271   0.001  -0.345
    1UNL    H17   41   0.455   0.199  -0.330
    1UNL    H18   42   0.479   0.313  -0.135
    1UNL    H19   43   0.318   0.271   0.061
    1UNL    H20   44   0.105   0.241   0.150
    1UNL    H21   45   0.094  -0.027   0.405
    1UNL    H22   46   0.190   0.018   0.273
    1UNL    H23   47   0.158   0.140   0.374
    1UNL    H24   48  -0.062   0.241  -0.056
    1UNL    H25   49  -0.155   0.228   0.087
    1UNL    H26   50  -0.084  -0.067   0.159
   0.00000   0.00000   0.00000   0.00000   0.00000   0.00000   0.00000   0.00000   0.00000
Generated with MDTraj, t= 7.0
 50
    1UNL     C1    1  -0.226   0.140  -0.232
    1UNL     C2    2  -0.173   0.019  -0.162
    1UNL     C3    3  -0.160   0.022  -0.013
    1UNL     C4    4  -0.307  -0.003   0.050
    1UNL     C5    5  -0.352  -0.151   0.064
    1UNL     C6    6  -0.242  -0.239   0.123
    1UNL     N1    7  -0.119  -0.223   0.037
    1UNL     C7    8   0.006  -0.306   0.069
    1UNL     C8    9   0.128  -0.222   0.063
    1UNL     C9   10   0.080  -0.082   0.007
    1UNL    C10   11   0.110  -0.069  -0.140
    1UNL     O1   12   0.062  -0.136  -0.228
    1UNL    C11   13   0.211   0.035  -0.152
    1UNL    C12   14   0.289   0.058  -0.268
    1UNL    C13   15   0.385   0.156  -0.258
    1UNL    C14   16   0.410   0.220  -0.137
    1UNL    C15   17   0.336   0.190  -0.025
    1UNL    C16   18   0.235   0.100  -0.031
    1UNL     N2   19   0.136   0.048   0.062
    1UNL    C17   20   0.031   0.138   0.128
    1UNL     O2   21  -0.012   0.096   0.254
    1UNL    C18   22   0.095   0.095   0.338
    1UNL    C19   23  -0.092   0.155   0.035
    1UNL    C20   24  -0.067  -0.086   0.046
    1UNL     H1   25  -0.168   0.222  -0.213
    1UNL     H2   26  -0.327   0.159  -0.205
    1UNL     H3   27  -0.228   0.143  -0.343
    1UNL     H4   28  -0.080   0.003  -0.215
    1UNL     H5   29  -0.231  -0.078  -0.176
    1UNL     H6   30  -0.378   0.065  -0.004
    1UNL     H7   31  -0.306   0.025   0.154
    1UNL     H8   32  -0.379  -0.191  -0.041
    1UNL     H9   33  -0.448  -0.141   0.133
    1UNL    H10   34  -0.227  -0.213   0.228
    1UNL    H11   35  -0.279  -0.344   0.118
    1UNL    H12   36   0.020  -0.390   0.001
    1UNL    H13   37  -0.016  -0.353   0.167
    1UNL    H14   38   0.211  -0.262   0.015
    1UNL    H15   39   0.164  -0.207   0.170
    1UNL    H16   40   0.274   0.002  -0.363
    1UNL    H17   41   0.433   0.181  -0.348
    1UNL    H18   42   0.497   0.276  -0.109
    1UNL    H19   43   0.362   0.234   0.066
    1UNL    H20   44   0.085   0.237   0.147
    1UNL    H21   45   0.082   0.056   0.443
    1UNL    H22   46   0.159   0.018   0.303
    1UNL    H23   47   0.146   0.187   0.335
    1UNL    H24   48  -0.060   0.226  -0.048
    1UNL    H25   49  -0.173   0.222   0.076
    1UNL    H26   50  -0.076  -0.067   0.160
   0.00000   0.00000   0.00000   0.00000   0.00000   0.00000   0.00000   0.00000   0.00000
Generated with MDTraj, t= 8.0
 50
    1UNL     C1    1  -0.256   0.144  -0.218
    1UNL     C2    2  -0.200   0.014  -0.162
    1UNL     C3    3  -0.160   0.024  -0.011
    1UNL     C4    4  -0.292   0.015   0.079
    1UNL     C5    5  -0.346  -0.128   0.053
    1UNL     C6    6  -0.248  -0.246   0.095
    1UNL     N1    7  -0.121  -0.225   0.028
    1UNL     C7    8   0.000  -0.305   0.073
    1UNL     C8    9   0.130  -0.221   0.069
    1UNL     C9   10   0.078  -0.089   0.006
    1UNL    C10   11   0.114  -0.082  -0.149
    1UNL     O1   12   0.075  -0.160  -0.235
    1UNL    C11   13   0.217   0.019  -0.156
    1UNL    C12   14   0.310   0.054  -0.257
    1UNL    C13   15   0.393   0.168  -0.242
    1UNL    C14   16   0.384   0.240  -0.123
    1UNL    C15   17   0.312   0.193  -0.017
    1UNL    C16   18   0.231   0.082  -0.034
    1UNL     N2   19   0.139   0.036   0.060
    1UNL    C17   20   0.041   0.131   0.121
    1UNL     O2   21   0.004   0.097   0.248
    1UNL    C18   22   0.109   0.123   0.338
    1UNL    C19   23  -0.086   0.152   0.028
    1UNL    C20   24  -0.068  -0.088   0.040
    1UNL     H1   25  -0.168   0.204  -0.222
    1UNL     H2   26  -0.336   0.181  -0.161
    1UNL     H3   27  -0.290   0.143  -0.323
    1UNL     H4   28  -0.102  -0.003  -0.211
    1UNL     H5   29  -0.269  -0.074  -0.191
    1UNL     H6   30  -0.371   0.090   0.052
    1UNL     H7   31  -0.266   0.028   0.181
    1UNL     H8   32  -0.376  -0.132  -0.056
    1UNL     H9   33  -0.447  -0.143   0.116
    1UNL    H10   34  -0.241  -0.261   0.205
    1UNL    H11   35  -0.297  -0.336   0.059
    1UNL    H12   36  -0.006  -0.394   0.009
    1UNL    H13   37  -0.012  -0.336   0.180
    1UNL    H14   38   0.210  -0.265   0.016
    1UNL    H15   39   0.176  -0.196   0.169
    1UNL    H16   40   0.317  -0.009  -0.349
    1UNL    H17   41   0.460   0.206  -0.319
    1UNL    H18   42   0.444   0.331  -0.113
    1UNL    H19   43   0.327   0.230   0.087
    1UNL    H20   44   0.093   0.232   0.137
    1UNL    H21   45   0.092   0.086   0.444
    1UNL    H22   46   0.187   0.056   0.311
    1UNL    H23   47   0.136   0.224   0.338
    1UNL    H24   48  -0.040   0.182  -0.072
    1UNL    H25   49  -0.155   0.240   0.045
    1UNL    H26   50  -0.076  -0.088   0.154
   0.00000   0.00000   0.00000   0.00000   0.00000   0.00000   0.00000   0.00000   0.00000
Generated with MDTraj, t= 9.0
 50
    1UNL     C1    1  -0.300   0.085  -0.222
    1UNL     C2    2  -0.173   0.018  -0.162
    1UNL     C3    3  -0.153   0.038  -0.010
    1UNL     C4    4  -0.294   0.020   0.069
    1UNL     C5    5  -0.354  -0.116   0.051
    1UNL     C6    6  -0.252  -0.230   0.082
    1UNL     N1    7  -0.124  -0.216   0.020
    1UNL     C7    8  -0.003  -0.310   0.038
    1UNL     C8    9   0.125  -0.218   0.070
    1UNL     C9   10   0.081  -0.082   0.013
    1UNL    C10   11   0.120  -0.084  -0.136
    1UNL     O1   12   0.086  -0.164  -0.220
    1UNL    C11   13   0.222   0.019  -0.150
    1UNL    C12   14   0.304   0.043  -0.255
    1UNL    C13   15   0.377   0.157  -0.253
    1UNL    C14   16   0.383   0.241  -0.138
    1UNL    C15   17   0.318   0.200  -0.023
    1UNL    C16   18   0.237   0.085  -0.024
    1UNL     N2   19   0.143   0.043   0.073
    1UNL    C17   20   0.052   0.148   0.130
    1UNL     O2   21   0.007   0.117   0.260
    1UNL    C18   22   0.111   0.079   0.345
    1UNL    C19   23  -0.078   0.165   0.035
    1UNL    C20   24  -0.072  -0.078   0.043
    1UNL     H1   25  -0.305   0.188  -0.186
    1UNL     H2   26  -0.385   0.025  -0.216
    1UNL     H3   27  -0.285   0.100  -0.327
    1UNL     H4   28  -0.086   0.056  -0.218
    1UNL     H5   29  -0.167  -0.098  -0.169
    1UNL     H6   30  -0.365   0.100   0.034
    1UNL     H7   31  -0.280   0.043   0.171
    1UNL     H8   32  -0.394  -0.139  -0.052
    1UNL     H9   33  -0.453  -0.123   0.118
    1UNL    H10   34  -0.235  -0.220   0.194
    1UNL    H11   35  -0.290  -0.327   0.069
    1UNL    H12   36   0.012  -0.354  -0.062
    1UNL    H13   37  -0.024  -0.387   0.117
    1UNL    H14   38   0.216  -0.255   0.022
    1UNL    H15   39   0.147  -0.208   0.178
    1UNL    H16   40   0.289  -0.008  -0.341
    1UNL    H17   41   0.432   0.192  -0.340
    1UNL    H18   42   0.434   0.336  -0.146
    1UNL    H19   43   0.333   0.237   0.073
    1UNL    H20   44   0.118   0.239   0.140
    1UNL    H21   45   0.084   0.010   0.430
    1UNL    H22   46   0.190   0.035   0.286
    1UNL    H23   47   0.147   0.166   0.393
    1UNL    H24   48  -0.036   0.212  -0.060
    1UNL    H25   49  -0.153   0.245   0.065
    1UNL    H26   50  -0.076  -0.084   0.152
   0.00000   0.00000   0.00000   0.00000   0.00000   0.00000   0.00000   0.00000   0.00000
Generated with MDTraj, t= 10.0
 50
    1UNL     C1    1  -0.267   0.092  -0.238
    1UNL     C2    2  -0.152   0.023  -0.161
    1UNL     C3    3  -0.151   0.031  -0.008
    1UNL     C4    4  -0.296   0.015   0.053
    1UNL     C5    5  -0.352  -0.122   0.037
    1UNL     C6    6  -0.255  -0.235   0.088
    1UNL     N1    7  -0.119  -0.225   0.034
    1UNL     C7    8  -0.003  -0.296   0.089
    1UNL     C8    9   0.122  -0.209   0.077
    1UNL     C9   10   0.082  -0.076   0.019
    1UNL    C10   11   0.113  -0.072  -0.129
    1UNL     O1   12   0.066  -0.142  -0.215
    1UNL    C11   13   0.212   0.033  -0.149
    1UNL    C12   14   0.280   0.057  -0.262
    1UNL    C13   15   0.378   0.152  -0.266
    1UNL    C14   16   0.400   0.231  -0.149
    1UNL    C15   17   0.331   0.209  -0.032
    1UNL    C16   18   0.231   0.106  -0.033
    1UNL     N2   19   0.142   0.053   0.069
    1UNL    C17   20   0.043   0.134   0.131
    1UNL     O2   21  -0.000   0.087   0.256
    1UNL    C18   22   0.110   0.044   0.336
    1UNL    C19   23  -0.079   0.162   0.036
    1UNL    C20   24  -0.073  -0.081   0.053
    1UNL     H1   25  -0.272   0.202  -0.222
    1UNL     H2   26  -0.358   0.038  -0.231
    1UNL     H3   27  -0.246   0.086  -0.340
    1UNL     H4   28  -0.049   0.055  -0.191
    1UNL     H5   29  -0.146  -0.089  -0.180
    1UNL     H6   30  -0.360   0.097   0.009
    1UNL     H7   31  -0.289   0.047   0.151
    1UNL     H8   32  -0.388  -0.139  -0.068
    1UNL     H9   33  -0.451  -0.144   0.093
    1UNL    H10   34  -0.254  -0.239   0.203
    1UNL    H11   35  -0.293  -0.326   0.063
    1UNL    H12   36   0.015  -0.385   0.024
    1UNL    H13   37  -0.027  -0.316   0.198
    1UNL    H14   38   0.191  -0.263   0.006
    1UNL    H15   39   0.163  -0.201   0.174
    1UNL    H16   40   0.246   0.000  -0.357
    1UNL    H17   41   0.408   0.175  -0.364
    1UNL    H18   42   0.493   0.286  -0.143
    1UNL    H19   43   0.362   0.260   0.062
    1UNL    H20   44   0.101   0.226   0.158
    1UNL    H21   45   0.082   0.050   0.448
    1UNL    H22   46   0.154  -0.046   0.295
    1UNL    H23   47   0.185   0.120   0.335
    1UNL    H24   48  -0.057   0.224  -0.057
    1UNL    H25   49  -0.148   0.233   0.092
    1UNL    H26   50  -0.072  -0.082   0.159
   0.00000   0.00000   0.00000   0.00000   0.00000   0.00000   0.00000   0.00000   0.00000
Generated with MDTraj, t= 11.0
 50
    1UNL     C1    1  -0.236   0.161  -0.218
    1UNL     C2    2  -0.152   0.039  -0.167
    1UNL     C3    3  -0.156   0.025  -0.019
    1UNL     C4    4  -0.292   0.009   0.054
    1UNL     C5    5  -0.347  -0.140   0.039
    1UNL     C6    6  -0.254  -0.240   0.110
    1UNL     N1    7  -0.126  -0.238   0.035
    1UNL     C7    8  -0.006  -0.317   0.097
    1UNL     C8    9   0.125  -0.225   0.084
    1UNL     C9   10   0.079  -0.091   0.015
    1UNL    C10   11   0.118  -0.094  -0.133
    1UNL     O1   12   0.071  -0.163  -0.222
    1UNL    C11   13   0.219   0.012  -0.154
    1UNL    C12   14   0.287   0.060  -0.266
    1UNL    C13   15   0.377   0.174  -0.253
    1UNL    C14   16   0.380   0.245  -0.137
    1UNL    C15   17   0.300   0.205  -0.028
    1UNL    C16   18   0.227   0.084  -0.035
    1UNL     N2   19   0.134   0.040   0.055
    1UNL    C17   20   0.043   0.138   0.115
    1UNL     O2   21   0.004   0.111   0.251
    1UNL    C18   22   0.120   0.079   0.334
    1UNL    C19   23  -0.087   0.160   0.029
    1UNL    C20   24  -0.072  -0.090   0.041
    1UNL     H1   25  -0.171   0.252  -0.229
    1UNL     H2   26  -0.326   0.175  -0.159
    1UNL     H3   27  -0.272   0.134  -0.310
    1UNL     H4   28  -0.039   0.045  -0.193
    1UNL     H5   29  -0.196  -0.052  -0.218
    1UNL     H6   30  -0.360   0.089   0.014
    1UNL     H7   31  -0.279   0.041   0.152
    1UNL     H8   32  -0.356  -0.184  -0.066
    1UNL     H9   33  -0.451  -0.144   0.073
    1UNL    H10   34  -0.231  -0.218   0.220
    1UNL    H11   35  -0.293  -0.334   0.110
    1UNL    H12   36   0.001  -0.413   0.042
    1UNL    H13   37  -0.018  -0.332   0.208
    1UNL    H14   38   0.209  -0.269   0.021
    1UNL    H15   39   0.165  -0.207   0.177
    1UNL    H16   40   0.261   0.022  -0.361
    1UNL    H17   41   0.440   0.205  -0.342
    1UNL    H18   42   0.443   0.332  -0.140
    1UNL    H19   43   0.310   0.248   0.069
    1UNL    H20   44   0.098   0.233   0.125
    1UNL    H21   45   0.079   0.039   0.436
    1UNL    H22   46   0.194   0.023   0.276
    1UNL    H23   47   0.164   0.170   0.371
    1UNL    H24   48  -0.064   0.236  -0.053
    1UNL    H25   49  -0.167   0.218   0.086
    1UNL    H26   50  -0.067  -0.075   0.146
   0.00000   0.00000   0.00000   0.00000   0.00000   0.00000   0.00000   0.00000   0.00000
Generated with MDTraj, t= 12.0
 50
    1UNL     C1    1  -0.212   0.138  -0.237
    1UNL     C2    2  -0.174   0.021  -0.159
    1UNL     C3    3  -0.166   0.030  -0.002
    1UNL     C4    4  -0.296   0.012   0.075
    1UNL     C5    5  -0.361  -0.133   0.050
    1UNL     C6    6  -0.264  -0.246   0.080
    1UNL     N1    7  -0.134  -0.226   0.006
    1UNL     C7    8  -0.015  -0.309   0.046
    1UNL     C8    9   0.107  -0.221   0.084
    1UNL     C9   10   0.083  -0.080   0.018
    1UNL    C10   11   0.125  -0.092  -0.128
    1UNL     O1   12   0.098  -0.185  -0.200
    1UNL    C11   13   0.225   0.013  -0.153
    1UNL    C12   14   0.289   0.048  -0.269
    1UNL    C13   15   0.366   0.167  -0.269
    1UNL    C14   16   0.380   0.249  -0.153
    1UNL    C15   17   0.300   0.219  -0.044
    1UNL    C16   18   0.230   0.096  -0.036
    1UNL     N2   19   0.141   0.046   0.061
    1UNL    C17   20   0.048   0.141   0.140
    1UNL     O2   21   0.017   0.087   0.270
    1UNL    C18   22   0.126   0.111   0.358
    1UNL    C19   23  -0.086   0.160   0.049
    1UNL    C20   24  -0.073  -0.087   0.040
    1UNL     H1   25  -0.144   0.224  -0.231
    1UNL     H2   26  -0.314   0.170  -0.213
    1UNL     H3   27  -0.219   0.116  -0.340
    1UNL     H4   28  -0.073  -0.013  -0.206
    1UNL     H5   29  -0.243  -0.067  -0.171
    1UNL     H6   30  -0.359   0.098   0.043
    1UNL     H7   31  -0.275   0.026   0.177
    1UNL     H8   32  -0.400  -0.134  -0.058
    1UNL     H9   33  -0.446  -0.153   0.111
    1UNL    H10   34  -0.254  -0.263   0.191
    1UNL    H11   35  -0.303  -0.335   0.042
    1UNL    H12   36   0.024  -0.369  -0.039
    1UNL    H13   37  -0.050  -0.383   0.123
    1UNL    H14   38   0.206  -0.268   0.057
    1UNL    H15   39   0.119  -0.213   0.188
    1UNL    H16   40   0.283  -0.012  -0.358
    1UNL    H17   41   0.419   0.193  -0.353
    1UNL    H18   42   0.435   0.344  -0.144
    1UNL    H19   43   0.299   0.291   0.036
    1UNL    H20   44   0.103   0.233   0.153
    1UNL    H21   45   0.077   0.093   0.463
    1UNL    H22   46   0.216   0.055   0.329
    1UNL    H23   47   0.151   0.215   0.360
    1UNL    H24   48  -0.068   0.227  -0.039
    1UNL    H25   49  -0.154   0.227   0.112
    1UNL    H26   50  -0.078  -0.083   0.146
   0.00000   0.00000   0.00000   0.00000   0.00000   0.00000   0.00000   0.00000   0.00000
Generated with MDTraj, t= 13.0
 50
    1UNL     C1    1  -0.256   0.137  -0.217
    1UNL     C2    2  -0.149   0.037  -0.169
    1UNL     C3    3  -0.145   0.036  -0.011
    1UNL     C4    4  -0.280   0.016   0.052
    1UNL     C5    5  -0.342  -0.127   0.010
    1UNL     C6    6  -0.254  -0.233   0.070
    1UNL     N1    7  -0.113  -0.223   0.024
    1UNL     C7    8  -0.005  -0.304   0.079
    1UNL     C8    9   0.128  -0.223   0.083
    1UNL     C9   10   0.085  -0.091   0.022
    1UNL    C10   11   0.115  -0.092  -0.124
    1UNL     O1   12   0.071  -0.175  -0.197
    1UNL    C11   13   0.212   0.010  -0.143
    1UNL    C12   14   0.278   0.043  -0.262
    1UNL    C13   15   0.349   0.159  -0.271
    1UNL    C14   16   0.365   0.245  -0.158
    1UNL    C15   17   0.299   0.212  -0.041
    1UNL    C16   18   0.228   0.092  -0.034
    1UNL     N2   19   0.144   0.045   0.071
    1UNL    C17   20   0.053   0.138   0.141
    1UNL     O2   21  -0.001   0.096   0.266
    1UNL    C18   22   0.113   0.079   0.353
    1UNL    C19   23  -0.070   0.164   0.042
    1UNL    C20   24  -0.063  -0.084   0.050
    1UNL     H1   25  -0.241   0.234  -0.180
    1UNL     H2   26  -0.357   0.103  -0.194
    1UNL     H3   27  -0.256   0.156  -0.323
    1UNL     H4   28  -0.043   0.066  -0.204
    1UNL     H5   29  -0.179  -0.058  -0.223
    1UNL     H6   30  -0.349   0.092   0.018
    1UNL     H7   31  -0.269   0.022   0.159
    1UNL     H8   32  -0.332  -0.143  -0.103
    1UNL     H9   33  -0.444  -0.125   0.039
    1UNL    H10   34  -0.255  -0.237   0.179
    1UNL    H11   35  -0.294  -0.328   0.036
    1UNL    H12   36   0.004  -0.386   0.007
    1UNL    H13   37  -0.027  -0.353   0.176
    1UNL    H14   38   0.213  -0.270   0.030
    1UNL    H15   39   0.172  -0.211   0.182
    1UNL    H16   40   0.265  -0.023  -0.350
    1UNL    H17   41   0.394   0.189  -0.371
    1UNL    H18   42   0.438   0.322  -0.161
    1UNL    H19   43   0.287   0.283   0.042
    1UNL    H20   44   0.119   0.221   0.147
    1UNL    H21   45   0.059   0.014   0.434
    1UNL    H22   46   0.195   0.028   0.303
    1UNL    H23   47   0.148   0.171   0.395
    1UNL    H24   48  -0.040   0.214  -0.053
    1UNL    H25   49  -0.144   0.238   0.090
    1UNL    H26   50  -0.074  -0.058   0.155
   0.00000   0.00000   0.00000   0.00000   0.00000   0.00000   0.00000   0.00000   0.00000
Generated with MDTraj, t= 14.0
 50
    1UNL     C1    1  -0.237   0.109  -0.247
    1UNL     C2    2  -0.129   0.027  -0.162
    1UNL     C3    3  -0.152   0.040  -0.011
    1UNL     C4    4  -0.289   0.019   0.046
    1UNL     C5    5  -0.353  -0.125   0.021
    1UNL     C6    6  -0.264  -0.230   0.086
    1UNL     N1    7  -0.123  -0.212   0.040
    1UNL     C7    8  -0.014  -0.296   0.096
    1UNL     C8    9   0.126  -0.215   0.080
    1UNL     C9   10   0.080  -0.080   0.020
    1UNL    C10   11   0.122  -0.091  -0.127
    1UNL     O1   12   0.082  -0.167  -0.210
    1UNL    C11   13   0.205   0.024  -0.149
    1UNL    C12   14   0.272   0.056  -0.271
    1UNL    C13   15   0.348   0.169  -0.273
    1UNL    C14   16   0.368   0.246  -0.156
    1UNL    C15   17   0.313   0.201  -0.034
    1UNL    C16   18   0.227   0.093  -0.029
    1UNL     N2   19   0.134   0.048   0.064
    1UNL    C17   20   0.043   0.138   0.141
    1UNL     O2   21   0.007   0.074   0.265
    1UNL    C18   22   0.133   0.056   0.340
    1UNL    C19   23  -0.084   0.164   0.053
    1UNL    C20   24  -0.065  -0.081   0.051
    1UNL     H1   25  -0.235   0.210  -0.223
    1UNL     H2   26  -0.335   0.067  -0.232
    1UNL     H3   27  -0.213   0.113  -0.354
    1UNL     H4   28  -0.031   0.073  -0.198
    1UNL     H5   29  -0.127  -0.083  -0.187
    1UNL     H6   30  -0.349   0.092   0.000
    1UNL     H7   31  -0.287   0.032   0.154
    1UNL     H8   32  -0.351  -0.130  -0.090
    1UNL     H9   33  -0.450  -0.134   0.064
    1UNL    H10   34  -0.264  -0.229   0.191
    1UNL    H11   35  -0.295  -0.332   0.054
    1UNL    H12   36  -0.016  -0.395   0.050
    1UNL    H13   37  -0.035  -0.310   0.203
    1UNL    H14   38   0.197  -0.279   0.026
    1UNL    H15   39   0.188  -0.203   0.177
    1UNL    H16   40   0.243   0.002  -0.357
    1UNL    H17   41   0.409   0.197  -0.355
    1UNL    H18   42   0.437   0.331  -0.167
    1UNL    H19   43   0.332   0.247   0.057
    1UNL    H20   44   0.098   0.227   0.158
    1UNL    H21   45   0.096  -0.026   0.412
    1UNL    H22   46   0.206   0.006   0.277
    1UNL    H23   47   0.167   0.148   0.380
    1UNL    H24   48  -0.063   0.226  -0.039
    1UNL    H25   49  -0.154   0.230   0.113
    1UNL    H26   50  -0.074  -0.053   0.159
   0.00000   0.00000   0.00000   0.00000   0.00000   0.00000   0.00000   0.00000   0.00000
Generated with MDTraj, t= 15.0
 50
    1UNL     C1    1  -0.245   0.130  -0.226
    1UNL     C2    2  -0.152   0.029  -0.167
    1UNL     C3    3  -0.151   0.031  -0.010
    1UNL     C4    4  -0.293   0.018   0.049
    1UNL     C5    5  -0.353  -0.122   0.038
    1UNL     C6    6  -0.260  -0.236   0.089
    1UNL     N1    7  -0.125  -0.224   0.031
    1UNL     C7    8  -0.010  -0.310   0.057
    1UNL     C8    9   0.107  -0.220   0.090
    1UNL     C9   10   0.083  -0.086   0.017
    1UNL    C10   11   0.124  -0.095  -0.130
    1UNL     O1   12   0.091  -0.175  -0.213
    1UNL    C11   13   0.220   0.008  -0.147
    1UNL    C12   14   0.294   0.045  -0.259
    1UNL    C13   15   0.360   0.170  -0.265
    1UNL    C14   16   0.357   0.253  -0.151
    1UNL    C15   17   0.298   0.207  -0.033
    1UNL    C16   18   0.223   0.091  -0.030
    1UNL     N2   19   0.140   0.044   0.069
    1UNL    C17   20   0.047   0.142   0.131
    1UNL     O2   21   0.013   0.099   0.270
    1UNL    C18   22   0.139   0.083   0.336
    1UNL    C19   23  -0.079   0.159   0.041
    1UNL    C20   24  -0.073  -0.084   0.047
    1UNL     H1   25  -0.219   0.230  -0.203
    1UNL     H2   26  -0.345   0.113  -0.200
    1UNL     H3   27  -0.238   0.140  -0.337
    1UNL     H4   28  -0.054   0.027  -0.218
    1UNL     H5   29  -0.180  -0.078  -0.191
    1UNL     H6   30  -0.363   0.089   0.020
    1UNL     H7   31  -0.272   0.035   0.156
    1UNL     H8   32  -0.361  -0.144  -0.067
    1UNL     H9   33  -0.449  -0.118   0.089
    1UNL    H10   34  -0.250  -0.235   0.191
    1UNL    H11   35  -0.288  -0.339   0.051
    1UNL    H12   36   0.010  -0.361  -0.039
    1UNL    H13   37  -0.032  -0.374   0.143
    1UNL    H14   38   0.198  -0.270   0.060
    1UNL    H15   39   0.116  -0.207   0.207
    1UNL    H16   40   0.301  -0.028  -0.343
    1UNL    H17   41   0.396   0.208  -0.361
    1UNL    H18   42   0.403   0.346  -0.136
    1UNL    H19   43   0.330   0.274   0.052
    1UNL    H20   44   0.104   0.228   0.142
    1UNL    H21   45   0.115   0.005   0.414
    1UNL    H22   46   0.201   0.031   0.264
    1UNL    H23   47   0.171   0.179   0.365
    1UNL    H24   48  -0.054   0.224  -0.049
    1UNL    H25   49  -0.160   0.215   0.093
    1UNL    H26   50  -0.086  -0.052   0.157
   0.00000   0.00000   0.00000   0.00000   0.00000   0.00000   0.00000   0.00000   0.00000
Generated with MDTraj, t= 16.0
 50
    1UNL     C1    1  -0.272   0.144  -0.197
    1UNL     C2    2  -0.173   0.042  -0.158
    1UNL     C3    3  -0.147   0.036  -0.011
    1UNL     C4    4  -0.286   0.010   0.060
    1UNL     C5    5  -0.351  -0.129   0.026
    1UNL     C6    6  -0.258  -0.247   0.069
    1UNL     N1    7  -0.119  -0.227   0.021
    1UNL     C7    8  -0.001  -0.315   0.074
    1UNL     C8    9   0.123  -0.219   0.092
    1UNL     C9   10   0.082  -0.084   0.019
    1UNL    C10   11   0.120  -0.094  -0.130
    1UNL     O1   12   0.086  -0.179  -0.213
    1UNL    C11   13   0.219   0.017  -0.155
    1UNL    C12   14   0.298   0.040  -0.269
    1UNL    C13   15   0.377   0.157  -0.265
    1UNL    C14   16   0.383   0.240  -0.159
    1UNL    C15   17   0.306   0.206  -0.044
    1UNL    C16   18   0.221   0.096  -0.042
    1UNL     N2   19   0.142   0.049   0.067
    1UNL    C17   20   0.048   0.139   0.130
    1UNL     O2   21  -0.004   0.105   0.269
    1UNL    C18   22   0.103   0.089   0.360
    1UNL    C19   23  -0.070   0.164   0.036
    1UNL    C20   24  -0.065  -0.087   0.041
    1UNL     H1   25  -0.224   0.237  -0.167
    1UNL     H2   26  -0.365   0.130  -0.151
    1UNL     H3   27  -0.275   0.155  -0.305
    1UNL     H4   28  -0.073   0.051  -0.206
    1UNL     H5   29  -0.196  -0.061  -0.203
    1UNL     H6   30  -0.343   0.094   0.042
    1UNL     H7   31  -0.278   0.016   0.169
    1UNL     H8   32  -0.371  -0.126  -0.076
    1UNL     H9   33  -0.443  -0.157   0.081
    1UNL    H10   34  -0.238  -0.261   0.168
    1UNL    H11   35  -0.299  -0.342   0.024
    1UNL    H12   36   0.024  -0.387  -0.003
    1UNL    H13   37  -0.028  -0.348   0.174
    1UNL    H14   38   0.211  -0.267   0.049
    1UNL    H15   39   0.145  -0.191   0.202
    1UNL    H16   40   0.300  -0.031  -0.345
    1UNL    H17   41   0.417   0.182  -0.361
    1UNL    H18   42   0.437   0.339  -0.177
    1UNL    H19   43   0.326   0.255   0.046
    1UNL    H20   44   0.098   0.227   0.149
    1UNL    H21   45   0.049   0.090   0.458
    1UNL    H22   46   0.145  -0.010   0.346
    1UNL    H23   47   0.160   0.176   0.348
    1UNL    H24   48  -0.025   0.212  -0.058
    1UNL    H25   49  -0.144   0.236   0.077
    1UNL    H26   50  -0.066  -0.067   0.155
   0.00000   0.00000   0.00000   0.00000   0.00000   0.00000   0.00000   0.00000   0.00000
Generated with MDTraj, t= 17.0
 50
    1UNL     C1    1  -0.254   0.108  -0.243
    1UNL     C2    2  -0.154   0.028  -0.157
    1UNL     C3    3  -0.155   0.032  -0.006
    1UNL     C4    4  -0.301   0.013   0.052
    1UNL     C5    5  -0.353  -0.128   0.050
    1UNL     C6    6  -0.252  -0.238   0.098
    1UNL     N1    7  -0.126  -0.223   0.025
    1UNL     C7    8  -0.004  -0.303   0.066
    1UNL     C8    9   0.124  -0.209   0.079
    1UNL     C9   10   0.076  -0.076   0.015
    1UNL    C10   11   0.111  -0.079  -0.127
    1UNL     O1   12   0.069  -0.154  -0.209
    1UNL    C11   13   0.213   0.025  -0.154
    1UNL    C12   14   0.289   0.050  -0.263
    1UNL    C13   15   0.376   0.157  -0.263
    1UNL    C14   16   0.401   0.227  -0.146
    1UNL    C15   17   0.329   0.202  -0.033
    1UNL    C16   18   0.230   0.103  -0.038
    1UNL     N2   19   0.137   0.053   0.058
    1UNL    C17   20   0.034   0.140   0.133
    1UNL     O2   21   0.004   0.084   0.264
    1UNL    C18   22   0.127   0.070   0.345
    1UNL    C19   23  -0.091   0.167   0.040
    1UNL    C20   24  -0.078  -0.083   0.049
    1UNL     H1   25  -0.231   0.211  -0.213
    1UNL     H2   26  -0.351   0.075  -0.215
    1UNL     H3   27  -0.229   0.100  -0.344
    1UNL     H4   28  -0.054   0.050  -0.197
    1UNL     H5   29  -0.148  -0.083  -0.189
    1UNL     H6   30  -0.371   0.080   0.005
    1UNL     H7   31  -0.303   0.058   0.150
    1UNL     H8   32  -0.381  -0.162  -0.044
    1UNL     H9   33  -0.443  -0.126   0.116
    1UNL    H10   34  -0.228  -0.238   0.200
    1UNL    H11   35  -0.278  -0.342   0.067
    1UNL    H12   36   0.013  -0.368  -0.019
    1UNL    H13   37  -0.016  -0.346   0.165
    1UNL    H14   38   0.213  -0.240   0.017
    1UNL    H15   39   0.159  -0.202   0.185
    1UNL    H16   40   0.259  -0.011  -0.354
    1UNL    H17   41   0.432   0.180  -0.352
    1UNL    H18   42   0.467   0.305  -0.146
    1UNL    H19   43   0.348   0.256   0.062
    1UNL    H20   44   0.085   0.228   0.153
    1UNL    H21   45   0.113  -0.013   0.420
    1UNL    H22   46   0.213   0.049   0.282
    1UNL    H23   47   0.131   0.163   0.394
    1UNL    H24   48  -0.063   0.213  -0.060
    1UNL    H25   49  -0.164   0.236   0.085
    1UNL    H26   50  -0.079  -0.071   0.161
   0.00000   0.00000   0.00000   0.00000   0.00000   0.00000   0.00000   0.00000   0.00000
Generated with MDTraj, t= 18.0
 50
    1UNL     C1    1  -0.271   0.103  -0.221
    1UNL     C2    2  -0.157   0.024  -0.162
    1UNL     C3    3  -0.157   0.036  -0.009
    1UNL     C4    4  -0.294   0.012   0.057
    1UNL     C5    5  -0.351  -0.125   0.031
    1UNL     C6    6  -0.262  -0.235   0.095
    1UNL     N1    7  -0.120  -0.227   0.038
    1UNL     C7    8  -0.007  -0.308   0.089
    1UNL     C8    9   0.119  -0.225   0.060
    1UNL     C9   10   0.075  -0.082   0.010
    1UNL    C10   11   0.115  -0.082  -0.139
    1UNL     O1   12   0.067  -0.156  -0.222
    1UNL    C11   13   0.225   0.011  -0.149
    1UNL    C12   14   0.298   0.053  -0.257
    1UNL    C13   15   0.374   0.166  -0.247
    1UNL    C14   16   0.385   0.245  -0.129
    1UNL    C15   17   0.318   0.201  -0.023
    1UNL    C16   18   0.235   0.083  -0.028
    1UNL     N2   19   0.134   0.041   0.061
    1UNL    C17   20   0.045   0.150   0.124
    1UNL     O2   21   0.014   0.126   0.254
    1UNL    C18   22   0.131   0.069   0.323
    1UNL    C19   23  -0.081   0.167   0.034
    1UNL    C20   24  -0.075  -0.087   0.046
    1UNL     H1   25  -0.264   0.206  -0.185
    1UNL     H2   26  -0.366   0.062  -0.186
    1UNL     H3   27  -0.269   0.104  -0.324
    1UNL     H4   28  -0.057   0.039  -0.202
    1UNL     H5   29  -0.167  -0.088  -0.187
    1UNL     H6   30  -0.365   0.097   0.032
    1UNL     H7   31  -0.285   0.026   0.161
    1UNL     H8   32  -0.353  -0.127  -0.074
    1UNL     H9   33  -0.456  -0.142   0.067
    1UNL    H10   34  -0.248  -0.205   0.202
    1UNL    H11   35  -0.303  -0.334   0.101
    1UNL    H12   36   0.004  -0.404   0.041
    1UNL    H13   37  -0.020  -0.316   0.195
    1UNL    H14   38   0.188  -0.269  -0.023
    1UNL    H15   39   0.189  -0.225   0.143
    1UNL    H16   40   0.287   0.007  -0.349
    1UNL    H17   41   0.427   0.202  -0.333
    1UNL    H18   42   0.470   0.318  -0.114
    1UNL    H19   43   0.309   0.265   0.063
    1UNL    H20   44   0.100   0.237   0.121
    1UNL    H21   45   0.093  -0.036   0.342
    1UNL    H22   46   0.223   0.053   0.265
    1UNL    H23   47   0.157   0.122   0.411
    1UNL    H24   48  -0.054   0.225  -0.057
    1UNL    H25   49  -0.163   0.221   0.086
    1UNL    H26   50  -0.072  -0.080   0.156
   0.00000   0.00000   0.00000   0.00000   0.00000   0.00000   0.00000   0.00000   0.00000
Generated with MDTraj, t= 19.0
 50
    1UNL     C1    1  -0.273   0.120  -0.221
    1UNL     C2    2  -0.181   0.017  -0.160
    1UNL     C3    3  -0.158   0.025  -0.012
    1UNL     C4    4  -0.288   0.018   0.074
    1UNL     C5    5  -0.354  -0.125   0.050
    1UNL     C6    6  -0.259  -0.242   0.081
    1UNL     N1    7  -0.122  -0.222   0.016
    1UNL     C7    8  -0.007  -0.301   0.070
    1UNL     C8    9   0.119  -0.203   0.084
    1UNL     C9   10   0.078  -0.079   0.015
    1UNL    C10   11   0.122  -0.084  -0.132
    1UNL     O1   12   0.083  -0.164  -0.214
    1UNL    C11   13   0.220   0.019  -0.146
    1UNL    C12   14   0.286   0.056  -0.264
    1UNL    C13   15   0.377   0.160  -0.263
    1UNL    C14   16   0.400   0.227  -0.145
    1UNL    C15   17   0.326   0.200  -0.028
    1UNL    C16   18   0.239   0.090  -0.031
    1UNL     N2   19   0.144   0.053   0.062
    1UNL    C17   20   0.045   0.141   0.129
    1UNL     O2   21   0.003   0.086   0.253
    1UNL    C18   22   0.107   0.089   0.346
    1UNL    C19   23  -0.077   0.160   0.028
    1UNL    C20   24  -0.068  -0.087   0.037
    1UNL     H1   25  -0.235   0.218  -0.198
    1UNL     H2   26  -0.370   0.122  -0.170
    1UNL     H3   27  -0.290   0.118  -0.324
    1UNL     H4   28  -0.083   0.025  -0.205
    1UNL     H5   29  -0.217  -0.090  -0.178
    1UNL     H6   30  -0.362   0.104   0.050
    1UNL     H7   31  -0.262   0.041   0.174
    1UNL     H8   32  -0.383  -0.140  -0.051
    1UNL     H9   33  -0.445  -0.114   0.115
    1UNL    H10   34  -0.245  -0.258   0.195
    1UNL    H11   35  -0.300  -0.333   0.050
    1UNL    H12   36   0.004  -0.375  -0.008
    1UNL    H13   37  -0.031  -0.356   0.159
    1UNL    H14   38   0.225  -0.241   0.049
    1UNL    H15   39   0.145  -0.178   0.185
    1UNL    H16   40   0.278   0.010  -0.365
    1UNL    H17   41   0.441   0.180  -0.349
    1UNL    H18   42   0.480   0.300  -0.156
    1UNL    H19   43   0.327   0.252   0.068
    1UNL    H20   44   0.081   0.234   0.156
    1UNL    H21   45   0.189   0.028   0.303
    1UNL    H22   46   0.150   0.189   0.370
    1UNL    H23   47   0.083   0.052   0.445
    1UNL    H24   48  -0.040   0.193  -0.070
    1UNL    H25   49  -0.148   0.237   0.068
    1UNL    H26   50  -0.071  -0.072   0.144
   0.00000   0.00000   0.00000   0.00000   0.00000   0.00000   0.00000   0.00000   0.00000
Generated with MDTraj, t= 20.0
 50
    1UNL     C1    1  -0.243   0.133  -0.224
    1UNL     C2    2  -0.157   0.023  -0.166
    1UNL     C3    3  -0.154   0.028  -0.010
    1UNL     C4    4  -0.284   0.010   0.068
    1UNL     C5    5  -0.346  -0.133   0.062
    1UNL     C6    6  -0.249  -0.237   0.106
    1UNL     N1    7  -0.122  -0.218   0.023
    1UNL     C7    8   0.002  -0.307   0.055
    1UNL     C8    9   0.123  -0.217   0.070
    1UNL     C9   10   0.083  -0.086   0.014
    1UNL    C10   11   0.116  -0.084  -0.139
    1UNL     O1   12   0.069  -0.157  -0.221
    1UNL    C11   13   0.216   0.016  -0.153
    1UNL    C12   14   0.291   0.042  -0.261
    1UNL    C13   15   0.383   0.147  -0.261
    1UNL    C14   16   0.387   0.230  -0.151
    1UNL    C15   17   0.306   0.206  -0.044
    1UNL    C16   18   0.226   0.094  -0.033
    1UNL     N2   19   0.136   0.046   0.070
    1UNL    C17   20   0.042   0.141   0.129
    1UNL     O2   21  -0.000   0.126   0.265
    1UNL    C18   22   0.084   0.078   0.356
    1UNL    C19   23  -0.074   0.162   0.030
    1UNL    C20   24  -0.069  -0.090   0.039
    1UNL     H1   25  -0.223   0.222  -0.173
    1UNL     H2   26  -0.346   0.116  -0.196
    1UNL     H3   27  -0.239   0.146  -0.331
    1UNL     H4   28  -0.056   0.047  -0.196
    1UNL     H5   29  -0.196  -0.077  -0.206
    1UNL     H6   30  -0.356   0.090   0.028
    1UNL     H7   31  -0.263   0.034   0.170
    1UNL     H8   32  -0.376  -0.138  -0.041
    1UNL     H9   33  -0.434  -0.137   0.129
    1UNL    H10   34  -0.247  -0.243   0.223
    1UNL    H11   35  -0.288  -0.329   0.076
    1UNL    H12   36   0.014  -0.368  -0.034
    1UNL    H13   37  -0.024  -0.378   0.132
    1UNL    H14   38   0.212  -0.274   0.020
    1UNL    H15   39   0.158  -0.218   0.172
    1UNL    H16   40   0.291  -0.026  -0.343
    1UNL    H17   41   0.446   0.163  -0.346
    1UNL    H18   42   0.433   0.323  -0.143
    1UNL    H19   43   0.318   0.272   0.041
    1UNL    H20   44   0.102   0.227   0.131
    1UNL    H21   45   0.158   0.155   0.378
    1UNL    H22   46   0.035   0.049   0.453
    1UNL    H23   47   0.139  -0.009   0.322
    1UNL    H24   48  -0.034   0.210  -0.060
    1UNL    H25   49  -0.160   0.219   0.074
    1UNL    H26   50  -0.073  -0.075   0.145
   0.00000   0.00000   0.00000   0.00000   0.00000   0.00000   0.00000   0.00000   0.00000
Generated with MDTraj, t= 21.0
 50
    1UNL     C1    1  -0.262   0.115  -0.233
    1UNL     C2    2  -0.167   0.020  -0.169
    1UNL     C3    3  -0.157   0.028  -0.016
    1UNL     C4    4  -0.296   0.014   0.059
    1UNL     C5    5  -0.362  -0.128   0.033
    1UNL     C6    6  -0.265  -0.232   0.091
    1UNL     N1    7  -0.126  -0.214   0.039
    1UNL     C7    8  -0.013  -0.293   0.108
    1UNL     C8    9   0.116  -0.206   0.089
    1UNL     C9   10   0.076  -0.079   0.013
    1UNL    C10   11   0.115  -0.085  -0.128
    1UNL     O1   12   0.075  -0.163  -0.210
    1UNL    C11   13   0.224   0.019  -0.150
    1UNL    C12   14   0.293   0.056  -0.267
    1UNL    C13   15   0.376   0.170  -0.255
    1UNL    C14   16   0.387   0.245  -0.142
    1UNL    C15   17   0.324   0.203  -0.027
    1UNL    C16   18   0.238   0.095  -0.032
    1UNL     N2   19   0.142   0.046   0.061
    1UNL    C17   20   0.047   0.140   0.128
    1UNL     O2   21   0.016   0.079   0.249
    1UNL    C18   22   0.133   0.054   0.317
    1UNL    C19   23  -0.077   0.158   0.031
    1UNL    C20   24  -0.075  -0.085   0.042
    1UNL     H1   25  -0.231   0.215  -0.237
    1UNL     H2   26  -0.345   0.130  -0.171
    1UNL     H3   27  -0.301   0.086  -0.332
    1UNL     H4   28  -0.071   0.038  -0.214
    1UNL     H5   29  -0.211  -0.086  -0.185
    1UNL     H6   30  -0.365   0.100   0.033
    1UNL     H7   31  -0.272   0.029   0.167
    1UNL     H8   32  -0.375  -0.149  -0.074
    1UNL     H9   33  -0.460  -0.116   0.079
    1UNL    H10   34  -0.264  -0.215   0.204
    1UNL    H11   35  -0.301  -0.331   0.080
    1UNL    H12   36  -0.006  -0.385   0.049
    1UNL    H13   37  -0.036  -0.314   0.211
    1UNL    H14   38   0.190  -0.269   0.028
    1UNL    H15   39   0.169  -0.184   0.183
    1UNL    H16   40   0.283  -0.003  -0.358
    1UNL    H17   41   0.413   0.215  -0.346
    1UNL    H18   42   0.448   0.344  -0.143
    1UNL    H19   43   0.326   0.260   0.062
    1UNL    H20   44   0.093   0.230   0.158
    1UNL    H21   45   0.140   0.119   0.403
    1UNL    H22   46   0.147  -0.049   0.359
    1UNL    H23   47   0.218   0.081   0.255
    1UNL    H24   48  -0.042   0.195  -0.065
    1UNL    H25   49  -0.151   0.226   0.079
    1UNL    H26   50  -0.079  -0.058   0.146
   0.00000   0.00000   0.00000   0.00000   0.00000   0.00000   0.00000   0.00000   0.00000
Generated with MDTraj, t= 22.0
 50
    1UNL     C1    1  -0.250   0.102  -0.227
    1UNL     C2    2  -0.134   0.042  -0.155
    1UNL     C3    3  -0.150   0.041  -0.004
    1UNL     C4    4  -0.293   0.021   0.050
    1UNL     C5    5  -0.345  -0.122   0.038
    1UNL     C6    6  -0.258  -0.234   0.097
    1UNL     N1    7  -0.127  -0.219   0.033
    1UNL     C7    8  -0.015  -0.310   0.063
    1UNL     C8    9   0.120  -0.226   0.071
    1UNL     C9   10   0.076  -0.084   0.014
    1UNL    C10   11   0.118  -0.092  -0.131
    1UNL     O1   12   0.084  -0.177  -0.210
    1UNL    C11   13   0.205   0.023  -0.154
    1UNL    C12   14   0.287   0.048  -0.264
    1UNL    C13   15   0.362   0.161  -0.266
    1UNL    C14   16   0.376   0.238  -0.150
    1UNL    C15   17   0.312   0.201  -0.036
    1UNL    C16   18   0.227   0.093  -0.040
    1UNL     N2   19   0.141   0.048   0.062
    1UNL    C17   20   0.047   0.140   0.128
    1UNL     O2   21   0.006   0.105   0.258
    1UNL    C18   22   0.112   0.069   0.350
    1UNL    C19   23  -0.079   0.175   0.048
    1UNL    C20   24  -0.069  -0.084   0.052
    1UNL     H1   25  -0.298   0.180  -0.177
    1UNL     H2   26  -0.332   0.038  -0.230
    1UNL     H3   27  -0.226   0.130  -0.332
    1UNL     H4   28  -0.042   0.095  -0.169
    1UNL     H5   29  -0.122  -0.066  -0.191
    1UNL     H6   30  -0.356   0.105   0.012
    1UNL     H7   31  -0.278   0.043   0.162
    1UNL     H8   32  -0.362  -0.134  -0.072
    1UNL     H9   33  -0.440  -0.123   0.086
    1UNL    H10   34  -0.255  -0.220   0.207
    1UNL    H11   35  -0.308  -0.332   0.081
    1UNL    H12   36  -0.012  -0.383  -0.022
    1UNL    H13   37  -0.023  -0.353   0.163
    1UNL    H14   38   0.194  -0.252  -0.006
    1UNL    H15   39   0.177  -0.198   0.166
    1UNL    H16   40   0.265  -0.010  -0.354
    1UNL    H17   41   0.427   0.184  -0.347
    1UNL    H18   42   0.438   0.318  -0.151
    1UNL    H19   43   0.329   0.257   0.058
    1UNL    H20   44   0.103   0.227   0.145
    1UNL    H21   45   0.163   0.148   0.401
    1UNL    H22   46   0.072   0.007   0.435
    1UNL    H23   47   0.190   0.020   0.293
    1UNL    H24   48  -0.045   0.232  -0.039
    1UNL    H25   49  -0.153   0.235   0.107
    1UNL    H26   50  -0.059  -0.074   0.161
   0.00000   0.00000   0.00000   0.00000   0.00000   0.00000   0.00000   0.00000   0.00000
Generated with MDTraj, t= 23.0
 50
    1UNL     C1    1  -0.244   0.137  -0.234
    1UNL     C2    2  -0.168   0.023  -0.157
    1UNL     C3    3  -0.145   0.034  -0.007
    1UNL     C4    4  -0.287   0.016   0.054
    1UNL     C5    5  -0.350  -0.122   0.029
    1UNL     C6    6  -0.255  -0.246   0.058
    1UNL     N1    7  -0.119  -0.222   0.017
    1UNL     C7    8  -0.003  -0.311   0.068
    1UNL     C8    9   0.117  -0.220   0.095
    1UNL     C9   10   0.079  -0.081   0.027
    1UNL    C10   11   0.112  -0.090  -0.117
    1UNL     O1   12   0.068  -0.161  -0.204
    1UNL    C11   13   0.213   0.008  -0.145
    1UNL    C12   14   0.285   0.037  -0.260
    1UNL    C13   15   0.350   0.155  -0.270
    1UNL    C14   16   0.360   0.249  -0.165
    1UNL    C15   17   0.308   0.211  -0.045
    1UNL    C16   18   0.232   0.094  -0.030
    1UNL     N2   19   0.150   0.048   0.075
    1UNL    C17   20   0.051   0.144   0.140
    1UNL     O2   21   0.017   0.090   0.266
    1UNL    C18   22   0.127   0.083   0.361
    1UNL    C19   23  -0.065   0.168   0.030
    1UNL    C20   24  -0.078  -0.087   0.047
    1UNL     H1   25  -0.194   0.230  -0.222
    1UNL     H2   26  -0.336   0.159  -0.188
    1UNL     H3   27  -0.248   0.107  -0.336
    1UNL     H4   28  -0.072   0.007  -0.203
    1UNL     H5   29  -0.215  -0.078  -0.181
    1UNL     H6   30  -0.346   0.101   0.016
    1UNL     H7   31  -0.273   0.045   0.167
    1UNL     H8   32  -0.380  -0.128  -0.080
    1UNL     H9   33  -0.444  -0.125   0.076
    1UNL    H10   34  -0.252  -0.264   0.166
    1UNL    H11   35  -0.299  -0.341   0.006
    1UNL    H12   36   0.033  -0.388  -0.006
    1UNL    H13   37  -0.045  -0.352   0.161
    1UNL    H14   38   0.206  -0.261   0.049
    1UNL    H15   39   0.135  -0.191   0.206
    1UNL    H16   40   0.281  -0.032  -0.340
    1UNL    H17   41   0.398   0.177  -0.364
    1UNL    H18   42   0.432   0.335  -0.167
    1UNL    H19   43   0.323   0.275   0.035
    1UNL    H20   44   0.093   0.238   0.159
    1UNL    H21   45   0.206   0.148   0.337
    1UNL    H22   46   0.087   0.108   0.463
    1UNL    H23   47   0.171  -0.016   0.347
    1UNL    H24   48  -0.025   0.204  -0.066
    1UNL    H25   49  -0.138   0.242   0.064
    1UNL    H26   50  -0.091  -0.086   0.159
   0.00000   0.00000   0.00000   0.00000   0.00000   0.00000   0.00000   0.00000   0.00000
Generated with MDTraj, t= 24.0
 50
    1UNL     C1    1  -0.235   0.146  -0.225
    1UNL     C2    2  -0.150   0.044  -0.158
    1UNL     C3    3  -0.154   0.038  -0.007
    1UNL     C4    4  -0.307   0.009   0.049
    1UNL     C5    5  -0.348  -0.132   0.019
    1UNL     C6    6  -0.260  -0.235   0.096
    1UNL     N1    7  -0.126  -0.227   0.036
    1UNL     C7    8  -0.013  -0.315   0.091
    1UNL     C8    9   0.116  -0.215   0.086
    1UNL     C9   10   0.075  -0.086   0.010
    1UNL    C10   11   0.120  -0.097  -0.133
    1UNL     O1   12   0.108  -0.189  -0.211
    1UNL    C11   13   0.211   0.013  -0.157
    1UNL    C12   14   0.278   0.050  -0.270
    1UNL    C13   15   0.353   0.169  -0.262
    1UNL    C14   16   0.373   0.240  -0.146
    1UNL    C15   17   0.304   0.204  -0.033
    1UNL    C16   18   0.219   0.093  -0.043
    1UNL     N2   19   0.132   0.044   0.058
    1UNL    C17   20   0.047   0.141   0.131
    1UNL     O2   21   0.020   0.109   0.269
    1UNL    C18   22   0.135   0.073   0.338
    1UNL    C19   23  -0.080   0.170   0.043
    1UNL    C20   24  -0.073  -0.086   0.045
    1UNL     H1   25  -0.217   0.241  -0.176
    1UNL     H2   26  -0.339   0.134  -0.200
    1UNL     H3   27  -0.209   0.149  -0.324
    1UNL     H4   28  -0.048   0.041  -0.195
    1UNL     H5   29  -0.180  -0.060  -0.192
    1UNL     H6   30  -0.367   0.089   0.005
    1UNL     H7   31  -0.311   0.028   0.164
    1UNL     H8   32  -0.336  -0.152  -0.091
    1UNL     H9   33  -0.451  -0.145   0.039
    1UNL    H10   34  -0.268  -0.205   0.198
    1UNL    H11   35  -0.296  -0.347   0.079
    1UNL    H12   36  -0.016  -0.411   0.028
    1UNL    H13   37  -0.040  -0.347   0.193
    1UNL    H14   38   0.187  -0.278   0.034
    1UNL    H15   39   0.150  -0.197   0.196
    1UNL    H16   40   0.274  -0.018  -0.357
    1UNL    H17   41   0.394   0.212  -0.354
    1UNL    H18   42   0.442   0.325  -0.155
    1UNL    H19   43   0.322   0.251   0.068
    1UNL    H20   44   0.100   0.231   0.133
    1UNL    H21   45   0.178   0.162   0.371
    1UNL    H22   46   0.099   0.008   0.424
    1UNL    H23   47   0.199   0.031   0.260
    1UNL    H24   48  -0.054   0.238  -0.041
    1UNL    H25   49  -0.149   0.220   0.109
    1UNL    H26   50  -0.058  -0.077   0.159
   0.00000   0.00000   0.00000   0.00000   0.00000   0.00000   0.00000   0.00000   0.00000
Generated with MDTraj, t= 25.0
 50
    1UNL     C1    1  -0.236   0.106  -0.245
    1UNL     C2    2  -0.130   0.048  -0.159
    1UNL     C3    3  -0.151   0.041  -0.003
    1UNL     C4    4  -0.298   0.019   0.051
    1UNL     C5    5  -0.355  -0.127   0.034
    1UNL     C6    6  -0.259  -0.240   0.084
    1UNL     N1    7  -0.122  -0.214   0.021
    1UNL     C7    8  -0.011  -0.296   0.084
    1UNL     C8    9   0.115  -0.210   0.095
    1UNL     C9   10   0.076  -0.083   0.022
    1UNL    C10   11   0.116  -0.091  -0.125
    1UNL     O1   12   0.070  -0.167  -0.204
    1UNL    C11   13   0.217   0.010  -0.151
    1UNL    C12   14   0.291   0.045  -0.260
    1UNL    C13   15   0.368   0.161  -0.271
    1UNL    C14   16   0.373   0.244  -0.160
    1UNL    C15   17   0.294   0.213  -0.048
    1UNL    C16   18   0.221   0.094  -0.043
    1UNL     N2   19   0.132   0.053   0.056
    1UNL    C17   20   0.041   0.132   0.136
    1UNL     O2   21   0.019   0.073   0.265
    1UNL    C18   22   0.140   0.063   0.343
    1UNL    C19   23  -0.085   0.169   0.056
    1UNL    C20   24  -0.075  -0.080   0.051
    1UNL     H1   25  -0.256   0.204  -0.204
    1UNL     H2   26  -0.336   0.064  -0.237
    1UNL     H3   27  -0.196   0.118  -0.339
    1UNL     H4   28  -0.028   0.089  -0.183
    1UNL     H5   29  -0.111  -0.055  -0.199
    1UNL     H6   30  -0.365   0.087  -0.005
    1UNL     H7   31  -0.291   0.061   0.158
    1UNL     H8   32  -0.365  -0.141  -0.075
    1UNL     H9   33  -0.453  -0.135   0.075
    1UNL    H10   34  -0.240  -0.242   0.188
    1UNL    H11   35  -0.312  -0.340   0.048
    1UNL    H12   36  -0.002  -0.383   0.010
    1UNL    H13   37  -0.038  -0.349   0.179
    1UNL    H14   38   0.197  -0.268   0.053
    1UNL    H15   39   0.140  -0.193   0.204
    1UNL    H16   40   0.281  -0.008  -0.349
    1UNL    H17   41   0.424   0.180  -0.360
    1UNL    H18   42   0.411   0.340  -0.163
    1UNL    H19   43   0.304   0.269   0.040
    1UNL    H20   44   0.091   0.224   0.148
    1UNL    H21   45   0.165   0.162   0.360
    1UNL    H22   46   0.117   0.009   0.442
    1UNL    H23   47   0.212   0.021   0.272
    1UNL    H24   48  -0.054   0.235  -0.027
    1UNL    H25   49  -0.150   0.230   0.116
    1UNL    H26   50  -0.073  -0.071   0.166
   0.00000   0.00000   0.00000   0.00000   0.00000   0.00000   0.00000   0.00000   0.00000
Generated with MDTraj, t= 26.0
 50
    1UNL     C1    1  -0.262   0.125  -0.213
    1UNL     C2    2  -0.151   0.031  -0.160
    1UNL     C3    3  -0.147   0.032  -0.006
    1UNL     C4    4  -0.291   0.006   0.051
    1UNL     C5    5  -0.348  -0.131   0.008
    1UNL     C6    6  -0.263  -0.240   0.060
    1UNL     N1    7  -0.117  -0.218   0.025
    1UNL     C7    8  -0.013  -0.307   0.066
    1UNL     C8    9   0.122  -0.225   0.087
    1UNL     C9   10   0.088  -0.082   0.030
    1UNL    C10   11   0.122  -0.089  -0.119
    1UNL     O1   12   0.069  -0.172  -0.189
    1UNL    C11   13   0.216   0.012  -0.146
    1UNL    C12   14   0.278   0.038  -0.267
    1UNL    C13   15   0.364   0.149  -0.273
    1UNL    C14   16   0.370   0.244  -0.167
    1UNL    C15   17   0.304   0.216  -0.051
    1UNL    C16   18   0.230   0.097  -0.028
    1UNL     N2   19   0.150   0.051   0.078
    1UNL    C17   20   0.052   0.157   0.138
    1UNL     O2   21   0.011   0.120   0.269
    1UNL    C18   22   0.118   0.056   0.342
    1UNL    C19   23  -0.075   0.167   0.046
    1UNL    C20   24  -0.063  -0.081   0.048
    1UNL     H1   25  -0.242   0.225  -0.186
    1UNL     H2   26  -0.361   0.122  -0.168
    1UNL     H3   27  -0.262   0.125  -0.319
    1UNL     H4   28  -0.055   0.063  -0.210
    1UNL     H5   29  -0.171  -0.072  -0.193
    1UNL     H6   30  -0.347   0.102   0.026
    1UNL     H7   31  -0.288   0.003   0.164
    1UNL     H8   32  -0.355  -0.131  -0.097
    1UNL     H9   33  -0.445  -0.141   0.055
    1UNL    H10   34  -0.277  -0.233   0.167
    1UNL    H11   35  -0.287  -0.345   0.015
    1UNL    H12   36   0.010  -0.393  -0.004
    1UNL    H13   37  -0.048  -0.368   0.154
    1UNL    H14   38   0.216  -0.267   0.042
    1UNL    H15   39   0.157  -0.210   0.188
    1UNL    H16   40   0.262  -0.021  -0.360
    1UNL    H17   41   0.406   0.180  -0.371
    1UNL    H18   42   0.453   0.323  -0.168
    1UNL    H19   43   0.303   0.286   0.032
    1UNL    H20   44   0.103   0.248   0.142
    1UNL    H21   45   0.183   0.136   0.362
    1UNL    H22   46   0.071   0.017   0.439
    1UNL    H23   47   0.163  -0.018   0.275
    1UNL    H24   48  -0.035   0.220  -0.043
    1UNL    H25   49  -0.145   0.231   0.093
    1UNL    H26   50  -0.080  -0.074   0.160
   0.00000   0.00000   0.00000   0.00000   0.00000   0.00000   0.00000   0.00000   0.00000
Generated with MDTraj, t= 27.0
 50
    1UNL     C1    1  -0.238   0.144  -0.228
    1UNL     C2    2  -0.158   0.024  -0.170
    1UNL     C3    3  -0.156   0.029  -0.018
    1UNL     C4    4  -0.296   0.012   0.049
    1UNL     C5    5  -0.356  -0.131   0.044
    1UNL     C6    6  -0.258  -0.235   0.099
    1UNL     N1    7  -0.125  -0.218   0.030
    1UNL     C7    8  -0.012  -0.302   0.073
    1UNL     C8    9   0.116  -0.219   0.081
    1UNL     C9   10   0.078  -0.087   0.012
    1UNL    C10   11   0.125  -0.095  -0.134
    1UNL     O1   12   0.095  -0.183  -0.210
    1UNL    C11   13   0.210   0.021  -0.153
    1UNL    C12   14   0.276   0.058  -0.269
    1UNL    C13   15   0.360   0.172  -0.267
    1UNL    C14   16   0.381   0.237  -0.145
    1UNL    C15   17   0.309   0.204  -0.035
    1UNL    C16   18   0.228   0.091  -0.037
    1UNL     N2   19   0.148   0.038   0.063
    1UNL    C17   20   0.045   0.133   0.134
    1UNL     O2   21   0.012   0.093   0.265
    1UNL    C18   22   0.123   0.098   0.350
    1UNL    C19   23  -0.085   0.155   0.045
    1UNL    C20   24  -0.072  -0.084   0.044
    1UNL     H1   25  -0.211   0.240  -0.197
    1UNL     H2   26  -0.341   0.157  -0.202
    1UNL     H3   27  -0.225   0.143  -0.336
    1UNL     H4   28  -0.051   0.035  -0.211
    1UNL     H5   29  -0.204  -0.068  -0.208
    1UNL     H6   30  -0.378   0.089   0.020
    1UNL     H7   31  -0.268   0.039   0.153
    1UNL     H8   32  -0.378  -0.155  -0.053
    1UNL     H9   33  -0.445  -0.128   0.108
    1UNL    H10   34  -0.235  -0.228   0.204
    1UNL    H11   35  -0.293  -0.337   0.058
    1UNL    H12   36  -0.001  -0.383  -0.003
    1UNL    H13   37  -0.037  -0.359   0.165
    1UNL    H14   38   0.206  -0.260   0.023
    1UNL    H15   39   0.161  -0.206   0.175
    1UNL    H16   40   0.242   0.010  -0.356
    1UNL    H17   41   0.415   0.203  -0.352
    1UNL    H18   42   0.463   0.298  -0.142
    1UNL    H19   43   0.325   0.248   0.066
    1UNL    H20   44   0.100   0.223   0.144
    1UNL    H21   45   0.167   0.195   0.357
    1UNL    H22   46   0.077   0.080   0.452
    1UNL    H23   47   0.191   0.017   0.317
    1UNL    H24   48  -0.060   0.222  -0.038
    1UNL    H25   49  -0.155   0.207   0.106
    1UNL    H26   50  -0.086  -0.076   0.152
   0.00000   0.00000   0.00000   0.00000   0.00000   0.00000   0.00000   0.00000   0.00000
Generated with MDTraj, t= 28.0
 50
    1UNL     C1    1  -0.233   0.128  -0.236
    1UNL     C2    2  -0.161   0.019  -0.163
    1UNL     C3    3  -0.150   0.033  -0.013
    1UNL     C4    4  -0.288   0.018   0.064
    1UNL     C5    5  -0.359  -0.122   0.051
    1UNL     C6    6  -0.265  -0.235   0.097
    1UNL     N1    7  -0.124  -0.216   0.031
    1UNL     C7    8  -0.001  -0.299   0.084
    1UNL     C8    9   0.131  -0.222   0.080
    1UNL     C9   10   0.081  -0.095   0.011
    1UNL    C10   11   0.114  -0.093  -0.135
    1UNL     O1   12   0.065  -0.152  -0.230
    1UNL    C11   13   0.229   0.009  -0.150
    1UNL    C12   14   0.295   0.048  -0.264
    1UNL    C13   15   0.366   0.165  -0.254
    1UNL    C14   16   0.361   0.248  -0.137
    1UNL    C15   17   0.299   0.203  -0.023
    1UNL    C16   18   0.237   0.078  -0.031
    1UNL     N2   19   0.136   0.041   0.056
    1UNL    C17   20   0.041   0.131   0.123
    1UNL     O2   21   0.009   0.085   0.254
    1UNL    C18   22   0.122   0.099   0.339
    1UNL    C19   23  -0.078   0.159   0.033
    1UNL    C20   24  -0.065  -0.084   0.045
    1UNL     H1   25  -0.210   0.227  -0.212
    1UNL     H2   26  -0.335   0.139  -0.214
    1UNL     H3   27  -0.217   0.106  -0.344
    1UNL     H4   28  -0.053   0.018  -0.204
    1UNL     H5   29  -0.206  -0.077  -0.189
    1UNL     H6   30  -0.350   0.109   0.026
    1UNL     H7   31  -0.271   0.038   0.171
    1UNL     H8   32  -0.394  -0.131  -0.046
    1UNL     H9   33  -0.442  -0.124   0.122
    1UNL    H10   34  -0.248  -0.234   0.206
    1UNL    H11   35  -0.296  -0.336   0.057
    1UNL    H12   36  -0.010  -0.393   0.026
    1UNL    H13   37  -0.026  -0.319   0.189
    1UNL    H14   38   0.206  -0.273   0.012
    1UNL    H15   39   0.174  -0.208   0.175
    1UNL    H16   40   0.280  -0.008  -0.357
    1UNL    H17   41   0.422   0.195  -0.345
    1UNL    H18   42   0.402   0.353  -0.130
    1UNL    H19   43   0.314   0.251   0.068
    1UNL    H20   44   0.100   0.219   0.137
    1UNL    H21   45   0.127   0.192   0.394
    1UNL    H22   46   0.100   0.026   0.421
    1UNL    H23   47   0.216   0.064   0.291
    1UNL    H24   48  -0.049   0.219  -0.053
    1UNL    H25   49  -0.147   0.220   0.088
    1UNL    H26   50  -0.068  -0.074   0.152
   0.00000   0.00000   0.00000   0.00000   0.00000   0.00000   0.00000   0.00000   0.00000
Generated with MDTraj, t= 29.0
 50
    1UNL     C1    1  -0.277   0.112  -0.208
    1UNL     C2    2  -0.168   0.022  -0.160
    1UNL     C3    3  -0.149   0.033  -0.005
    1UNL     C4    4  -0.291   0.019   0.064
    1UNL     C5    5  -0.344  -0.120   0.032
    1UNL     C6    6  -0.255  -0.229   0.087
    1UNL     N1    7  -0.116  -0.217   0.030
    1UNL     C7    8   0.004  -0.314   0.056
    1UNL     C8    9   0.127  -0.218   0.079
    1UNL     C9   10   0.083  -0.081   0.022
    1UNL    C10   11   0.113  -0.081  -0.128
    1UNL     O1   12   0.092  -0.171  -0.206
    1UNL    C11   13   0.211   0.026  -0.150
    1UNL    C12   14   0.276   0.049  -0.267
    1UNL    C13   15   0.374   0.151  -0.264
    1UNL    C14   16   0.400   0.224  -0.148
    1UNL    C15   17   0.322   0.201  -0.032
    1UNL    C16   18   0.230   0.101  -0.030
    1UNL     N2   19   0.146   0.051   0.070
    1UNL    C17   20   0.049   0.150   0.123
    1UNL     O2   21  -0.011   0.108   0.256
    1UNL    C18   22   0.095   0.061   0.335
    1UNL    C19   23  -0.076   0.168   0.029
    1UNL    C20   24  -0.068  -0.080   0.052
    1UNL     H1   25  -0.270   0.216  -0.184
    1UNL     H2   26  -0.364   0.092  -0.154
    1UNL     H3   27  -0.289   0.090  -0.314
    1UNL     H4   28  -0.075   0.048  -0.219
    1UNL     H5   29  -0.186  -0.084  -0.187
    1UNL     H6   30  -0.358   0.111   0.040
    1UNL     H7   31  -0.276   0.033   0.172
    1UNL     H8   32  -0.352  -0.138  -0.071
    1UNL     H9   33  -0.442  -0.122   0.075
    1UNL    H10   34  -0.235  -0.225   0.200
    1UNL    H11   35  -0.286  -0.330   0.051
    1UNL    H12   36   0.021  -0.362  -0.040
    1UNL    H13   37  -0.027  -0.385   0.133
    1UNL    H14   38   0.209  -0.262   0.021
    1UNL    H15   39   0.147  -0.209   0.184
    1UNL    H16   40   0.254  -0.021  -0.346
    1UNL    H17   41   0.403   0.193  -0.358
    1UNL    H18   42   0.481   0.290  -0.153
    1UNL    H19   43   0.348   0.265   0.056
    1UNL    H20   44   0.098   0.244   0.143
    1UNL    H21   45   0.178   0.130   0.332
    1UNL    H22   46   0.077   0.055   0.443
    1UNL    H23   47   0.127  -0.039   0.302
    1UNL    H24   48  -0.056   0.221  -0.063
    1UNL    H25   49  -0.146   0.234   0.078
    1UNL    H26   50  -0.083  -0.072   0.157
   0.00000   0.00000   0.00000   0.00000   0.00000   0.00000   0.00000   0.00000   0.00000
Generated with MDTraj, t= 30.0
 50
    1UNL     C1    1  -0.279   0.100  -0.237
    1UNL     C2    2  -0.164   0.021  -0.165
    1UNL     C3    3  -0.157   0.032  -0.008
    1UNL     C4    4  -0.298   0.021   0.055
    1UNL     C5    5  -0.352  -0.124   0.062
    1UNL     C6    6  -0.257  -0.242   0.086
    1UNL     N1    7  -0.121  -0.228   0.021
    1UNL     C7    8  -0.009  -0.308   0.075
    1UNL     C8    9   0.118  -0.215   0.083
    1UNL     C9   10   0.079  -0.077   0.018
    1UNL    C10   11   0.117  -0.081  -0.132
    1UNL     O1   12   0.067  -0.144  -0.221
    1UNL    C11   13   0.217   0.021  -0.150
    1UNL    C12   14   0.302   0.043  -0.263
    1UNL    C13   15   0.387   0.155  -0.262
    1UNL    C14   16   0.399   0.235  -0.149
    1UNL    C15   17   0.320   0.207  -0.038
    1UNL    C16   18   0.234   0.096  -0.031
    1UNL     N2   19   0.140   0.054   0.071
    1UNL    C17   20   0.046   0.146   0.129
    1UNL     O2   21   0.009   0.102   0.262
    1UNL    C18   22   0.116   0.064   0.342
    1UNL    C19   23  -0.081   0.169   0.040
    1UNL    C20   24  -0.070  -0.086   0.043
    1UNL     H1   25  -0.287   0.203  -0.203
    1UNL     H2   26  -0.373   0.064  -0.206
    1UNL     H3   27  -0.262   0.085  -0.339
    1UNL     H4   28  -0.062   0.054  -0.196
    1UNL     H5   29  -0.160  -0.086  -0.199
    1UNL     H6   30  -0.360   0.093  -0.010
    1UNL     H7   31  -0.293   0.080   0.147
    1UNL     H8   32  -0.395  -0.131  -0.036
    1UNL     H9   33  -0.432  -0.137   0.126
    1UNL    H10   34  -0.234  -0.252   0.201
    1UNL    H11   35  -0.292  -0.338   0.049
    1UNL    H12   36   0.004  -0.383  -0.000
    1UNL    H13   37  -0.024  -0.352   0.173
    1UNL    H14   38   0.198  -0.256   0.028
    1UNL    H15   39   0.140  -0.205   0.191
    1UNL    H16   40   0.272  -0.007  -0.352
    1UNL    H17   41   0.454   0.161  -0.347
    1UNL    H18   42   0.472   0.319  -0.148
    1UNL    H19   43   0.342   0.261   0.051
    1UNL    H20   44   0.099   0.242   0.139
    1UNL    H21   45   0.189   0.142   0.362
    1UNL    H22   46   0.081   0.035   0.441
    1UNL    H23   47   0.167  -0.028   0.308
    1UNL    H24   48  -0.048   0.228  -0.042
    1UNL    H25   49  -0.156   0.234   0.085
    1UNL    H26   50  -0.086  -0.082   0.149
   0.00000   0.00000   0.00000   0.00000   0.00000   0.00000   0.00000   0.00000   0.00000
Generated with MDTraj, t= 31.0
 50
    1UNL     C1    1  -0.263   0.127  -0.223
    1UNL     C2    2  -0.163   0.026  -0.160
    1UNL     C3    3  -0.158   0.028  -0.006
    1UNL     C4    4  -0.303   0.016   0.055
    1UNL     C5    5  -0.356  -0.131   0.046
    1UNL     C6    6  -0.260  -0.240   0.097
    1UNL     N1    7  -0.126  -0.229   0.037
    1UNL     C7    8  -0.011  -0.315   0.083
    1UNL     C8    9   0.124  -0.230   0.071
    1UNL     C9   10   0.075  -0.093   0.002
    1UNL    C10   11   0.119  -0.089  -0.143
    1UNL     O1   12   0.068  -0.152  -0.233
    1UNL    C11   13   0.222   0.015  -0.155
    1UNL    C12   14   0.309   0.056  -0.255
    1UNL    C13   15   0.388   0.161  -0.250
    1UNL    C14   16   0.385   0.243  -0.133
    1UNL    C15   17   0.315   0.195  -0.025
    1UNL    C16   18   0.230   0.084  -0.039
    1UNL     N2   19   0.133   0.035   0.054
    1UNL    C17   20   0.047   0.142   0.120
    1UNL     O2   21   0.017   0.120   0.255
    1UNL    C18   22   0.126   0.104   0.338
    1UNL    C19   23  -0.089   0.166   0.040
    1UNL    C20   24  -0.069  -0.092   0.046
    1UNL     H1   25  -0.256   0.231  -0.187
    1UNL     H2   26  -0.361   0.103  -0.190
    1UNL     H3   27  -0.256   0.111  -0.323
    1UNL     H4   28  -0.061   0.032  -0.197
    1UNL     H5   29  -0.189  -0.083  -0.183
    1UNL     H6   30  -0.372   0.093   0.010
    1UNL     H7   31  -0.294   0.060   0.157
    1UNL     H8   32  -0.384  -0.161  -0.054
    1UNL     H9   33  -0.443  -0.128   0.097
    1UNL    H10   34  -0.233  -0.229   0.212
    1UNL    H11   35  -0.300  -0.339   0.077
    1UNL    H12   36   0.002  -0.410   0.039
    1UNL    H13   37  -0.019  -0.335   0.189
    1UNL    H14   38   0.198  -0.279   0.018
    1UNL    H15   39   0.160  -0.215   0.176
    1UNL    H16   40   0.295   0.008  -0.353
    1UNL    H17   41   0.451   0.193  -0.329
    1UNL    H18   42   0.459   0.317  -0.110
    1UNL    H19   43   0.322   0.237   0.075
    1UNL    H20   44   0.106   0.236   0.117
    1UNL    H21   45   0.157   0.199   0.385
    1UNL    H22   46   0.113   0.030   0.417
    1UNL    H23   47   0.213   0.060   0.287
    1UNL    H24   48  -0.075   0.213  -0.052
    1UNL    H25   49  -0.148   0.237   0.098
    1UNL    H26   50  -0.080  -0.077   0.155
   0.00000   0.00000   0.00000   0.00000   0.00000   0.00000   0.00000   0.00000   0.00000
Generated with MDTraj, t= 32.0
 50
    1UNL     C1    1  -0.263   0.136  -0.220
    1UNL     C2    2  -0.179   0.024  -0.160
    1UNL     C3    3  -0.164   0.026  -0.002
    1UNL     C4    4  -0.305   0.010   0.060
    1UNL     C5    5  -0.354  -0.133   0.030
    1UNL     C6    6  -0.251  -0.235   0.086
    1UNL     N1    7  -0.118  -0.217   0.026
    1UNL     C7    8   0.001  -0.311   0.053
    1UNL     C8    9   0.121  -0.214   0.089
    1UNL     C9   10   0.081  -0.080   0.016
    1UNL    C10   11   0.116  -0.082  -0.130
    1UNL     O1   12   0.089  -0.174  -0.202
    1UNL    C11   13   0.207   0.021  -0.156
    1UNL    C12   14   0.279   0.055  -0.270
    1UNL    C13   15   0.373   0.156  -0.259
    1UNL    C14   16   0.406   0.218  -0.139
    1UNL    C15   17   0.333   0.191  -0.026
    1UNL    C16   18   0.228   0.099  -0.039
    1UNL     N2   19   0.141   0.046   0.065
    1UNL    C17   20   0.041   0.138   0.128
    1UNL     O2   21   0.008   0.098   0.253
    1UNL    C18   22   0.124   0.108   0.333
    1UNL    C19   23  -0.085   0.159   0.041
    1UNL    C20   24  -0.070  -0.084   0.052
    1UNL     H1   25  -0.224   0.235  -0.196
    1UNL     H2   26  -0.362   0.140  -0.182
    1UNL     H3   27  -0.264   0.116  -0.321
    1UNL     H4   28  -0.080   0.028  -0.203
    1UNL     H5   29  -0.223  -0.077  -0.195
    1UNL     H6   30  -0.367   0.095   0.026
    1UNL     H7   31  -0.302   0.022   0.171
    1UNL     H8   32  -0.376  -0.133  -0.076
    1UNL     H9   33  -0.443  -0.152   0.076
    1UNL    H10   34  -0.252  -0.221   0.202
    1UNL    H11   35  -0.272  -0.340   0.062
    1UNL    H12   36   0.028  -0.379  -0.024
    1UNL    H13   37  -0.024  -0.374   0.136
    1UNL    H14   38   0.214  -0.249   0.060
    1UNL    H15   39   0.116  -0.203   0.199
    1UNL    H16   40   0.263   0.002  -0.360
    1UNL    H17   41   0.417   0.204  -0.347
    1UNL    H18   42   0.499   0.275  -0.137
    1UNL    H19   43   0.349   0.231   0.075
    1UNL    H20   44   0.096   0.237   0.135
    1UNL    H21   45   0.191   0.193   0.305
    1UNL    H22   46   0.102   0.117   0.438
    1UNL    H23   47   0.182   0.015   0.339
    1UNL    H24   48  -0.062   0.218  -0.042
    1UNL    H25   49  -0.163   0.213   0.094
    1UNL    H26   50  -0.090  -0.073   0.165
   0.00000   0.00000   0.00000   0.00000   0.00000   0.00000   0.00000   0.00000   0.00000
Generated with MDTraj, t= 33.0
 50
    1UNL     C1    1  -0.251   0.112  -0.233
    1UNL     C2    2  -0.152   0.027  -0.159
    1UNL     C3    3  -0.149   0.035  -0.004
    1UNL     C4    4  -0.288   0.017   0.062
    1UNL     C5    5  -0.353  -0.121   0.039
    1UNL     C6    6  -0.257  -0.238   0.071
    1UNL     N1    7  -0.115  -0.215   0.018
    1UNL     C7    8   0.000  -0.299   0.081
    1UNL     C8    9   0.134  -0.229   0.076
    1UNL     C9   10   0.086  -0.087   0.026
    1UNL    C10   11   0.112  -0.087  -0.126
    1UNL     O1   12   0.056  -0.140  -0.219
    1UNL    C11   13   0.219   0.006  -0.144
    1UNL    C12   14   0.297   0.028  -0.255
    1UNL    C13   15   0.374   0.145  -0.264
    1UNL    C14   16   0.370   0.233  -0.160
    1UNL    C15   17   0.293   0.212  -0.047
    1UNL    C16   18   0.231   0.090  -0.030
    1UNL     N2   19   0.141   0.046   0.071
    1UNL    C17   20   0.045   0.148   0.128
    1UNL     O2   21   0.005   0.115   0.267
    1UNL    C18   22   0.112   0.063   0.342
    1UNL    C19   23  -0.081   0.173   0.044
    1UNL    C20   24  -0.059  -0.081   0.050
    1UNL     H1   25  -0.269   0.203  -0.183
    1UNL     H2   26  -0.348   0.074  -0.248
    1UNL     H3   27  -0.214   0.129  -0.331
    1UNL     H4   28  -0.054   0.055  -0.196
    1UNL     H5   29  -0.168  -0.085  -0.185
    1UNL     H6   30  -0.362   0.085   0.024
    1UNL     H7   31  -0.286   0.044   0.172
    1UNL     H8   32  -0.370  -0.130  -0.068
    1UNL     H9   33  -0.450  -0.119   0.080
    1UNL    H10   34  -0.245  -0.263   0.182
    1UNL    H11   35  -0.303  -0.328   0.023
    1UNL    H12   36  -0.007  -0.392   0.030
    1UNL    H13   37  -0.025  -0.327   0.182
    1UNL    H14   38   0.201  -0.286   0.015
    1UNL    H15   39   0.183  -0.219   0.171
    1UNL    H16   40   0.286  -0.033  -0.344
    1UNL    H17   41   0.437   0.146  -0.349
    1UNL    H18   42   0.401   0.338  -0.173
    1UNL    H19   43   0.304   0.274   0.038
    1UNL    H20   44   0.102   0.245   0.155
    1UNL    H21   45   0.167   0.151   0.386
    1UNL    H22   46   0.081  -0.002   0.420
    1UNL    H23   47   0.184   0.001   0.288
    1UNL    H24   48  -0.062   0.237  -0.040
    1UNL    H25   49  -0.158   0.223   0.101
    1UNL    H26   50  -0.074  -0.061   0.162
   0.00000   0.00000   0.00000   0.00000   0.00000   0.00000   0.00000   0.00000   0.00000
Generated with MDTraj, t= 34.0
 50
    1UNL     C1    1  -0.264   0.125  -0.240
    1UNL     C2    2  -0.155   0.034  -0.171
    1UNL     C3    3  -0.155   0.041  -0.016
    1UNL     C4    4  -0.294   0.027   0.048
    1UNL     C5    5  -0.347  -0.117   0.033
    1UNL     C6    6  -0.256  -0.219   0.100
    1UNL     N1    7  -0.124  -0.216   0.030
    1UNL     C7    8  -0.016  -0.299   0.088
    1UNL     C8    9   0.114  -0.211   0.097
    1UNL     C9   10   0.081  -0.082   0.015
    1UNL    C10   11   0.126  -0.098  -0.127
    1UNL     O1   12   0.107  -0.192  -0.201
    1UNL    C11   13   0.217   0.018  -0.154
    1UNL    C12   14   0.275   0.057  -0.271
    1UNL    C13   15   0.368   0.160  -0.264
    1UNL    C14   16   0.379   0.241  -0.152
    1UNL    C15   17   0.301   0.213  -0.040
    1UNL    C16   18   0.229   0.093  -0.036
    1UNL     N2   19   0.141   0.049   0.062
    1UNL    C17   20   0.045   0.134   0.128
    1UNL     O2   21   0.014   0.071   0.261
    1UNL    C18   22   0.128   0.052   0.337
    1UNL    C19   23  -0.088   0.163   0.052
    1UNL    C20   24  -0.069  -0.078   0.043
    1UNL     H1   25  -0.236   0.222  -0.230
    1UNL     H2   26  -0.362   0.123  -0.206
    1UNL     H3   27  -0.271   0.104  -0.346
    1UNL     H4   28  -0.056   0.054  -0.210
    1UNL     H5   29  -0.175  -0.077  -0.196
    1UNL     H6   30  -0.362   0.099   0.008
    1UNL     H7   31  -0.303   0.044   0.160
    1UNL     H8   32  -0.358  -0.132  -0.071
    1UNL     H9   33  -0.446  -0.130   0.074
    1UNL    H10   34  -0.251  -0.205   0.211
    1UNL    H11   35  -0.302  -0.326   0.090
    1UNL    H12   36  -0.021  -0.387   0.027
    1UNL    H13   37  -0.056  -0.334   0.183
    1UNL    H14   38   0.202  -0.258   0.052
    1UNL    H15   39   0.145  -0.189   0.193
    1UNL    H16   40   0.265   0.004  -0.364
    1UNL    H17   41   0.416   0.204  -0.354
    1UNL    H18   42   0.452   0.317  -0.144
    1UNL    H19   43   0.302   0.282   0.049
    1UNL    H20   44   0.097   0.234   0.158
    1UNL    H21   45   0.155   0.160   0.362
    1UNL    H22   46   0.107  -0.009   0.420
    1UNL    H23   47   0.211   0.009   0.282
    1UNL    H24   48  -0.075   0.240  -0.022
    1UNL    H25   49  -0.163   0.200   0.118
    1UNL    H26   50  -0.081  -0.065   0.157
   0.00000   0.00000   0.00000   0.00000   0.00000   0.00000   0.00000   0.00000   0.00000
Generated with MDTraj, t= 35.0
 50
    1UNL     C1    1  -0.228   0.147  -0.213
    1UNL     C2    2  -0.152   0.027  -0.157
    1UNL     C3    3  -0.144   0.035  -0.005
    1UNL     C4    4  -0.285   0.018   0.053
    1UNL     C5    5  -0.362  -0.122   0.022
    1UNL     C6    6  -0.266  -0.232   0.075
    1UNL     N1    7  -0.124  -0.223   0.033
    1UNL     C7    8  -0.014  -0.317   0.066
    1UNL     C8    9   0.111  -0.231   0.095
    1UNL     C9   10   0.087  -0.093   0.021
    1UNL    C10   11   0.132  -0.105  -0.120
    1UNL     O1   12   0.093  -0.192  -0.193
    1UNL    C11   13   0.222   0.012  -0.149
    1UNL    C12   14   0.271   0.051  -0.271
    1UNL    C13   15   0.347   0.167  -0.271
    1UNL    C14   16   0.358   0.248  -0.157
    1UNL    C15   17   0.296   0.218  -0.046
    1UNL    C16   18   0.234   0.092  -0.035
    1UNL     N2   19   0.148   0.040   0.066
    1UNL    C17   20   0.055   0.144   0.126
    1UNL     O2   21   0.010   0.105   0.254
    1UNL    C18   22   0.116   0.085   0.342
    1UNL    C19   23  -0.073   0.166   0.046
    1UNL    C20   24  -0.070  -0.085   0.050
    1UNL     H1   25  -0.195   0.231  -0.165
    1UNL     H2   26  -0.332   0.146  -0.208
    1UNL     H3   27  -0.198   0.160  -0.317
    1UNL     H4   28  -0.051   0.024  -0.200
    1UNL     H5   29  -0.196  -0.075  -0.185
    1UNL     H6   30  -0.359   0.092   0.031
    1UNL     H7   31  -0.274   0.025   0.166
    1UNL     H8   32  -0.384  -0.142  -0.078
    1UNL     H9   33  -0.462  -0.121   0.068
    1UNL    H10   34  -0.269  -0.228   0.185
    1UNL    H11   35  -0.300  -0.345   0.051
    1UNL    H12   36   0.008  -0.372  -0.024
    1UNL    H13   37  -0.055  -0.387   0.141
    1UNL    H14   38   0.204  -0.273   0.058
    1UNL    H15   39   0.120  -0.202   0.193
    1UNL    H16   40   0.232  -0.002  -0.356
    1UNL    H17   41   0.392   0.205  -0.359
    1UNL    H18   42   0.436   0.327  -0.163
    1UNL    H19   43   0.301   0.279   0.037
    1UNL    H20   44   0.115   0.244   0.135
    1UNL    H21   45   0.167   0.188   0.350
    1UNL    H22   46   0.070   0.045   0.427
    1UNL    H23   47   0.187   0.016   0.298
    1UNL    H24   48  -0.054   0.233  -0.039
    1UNL    H25   49  -0.144   0.218   0.103
    1UNL    H26   50  -0.082  -0.083   0.161
   0.00000   0.00000   0.00000   0.00000   0.00000   0.00000   0.00000   0.00000   0.00000
Generated with MDTraj, t= 36.0
 50
    1UNL     C1    1  -0.230   0.128  -0.246
    1UNL     C2    2  -0.137   0.040  -0.166
    1UNL     C3    3  -0.143   0.036  -0.013
    1UNL     C4    4  -0.288   0.022   0.042
    1UNL     C5    5  -0.343  -0.118   0.023
    1UNL     C6    6  -0.259  -0.238   0.066
    1UNL     N1    7  -0.116  -0.217   0.022
    1UNL     C7    8  -0.012  -0.304   0.077
    1UNL     C8    9   0.122  -0.229   0.101
    1UNL     C9   10   0.086  -0.095   0.031
    1UNL    C10   11   0.115  -0.103  -0.117
    1UNL     O1   12   0.057  -0.160  -0.208
    1UNL    C11   13   0.217   0.003  -0.146
    1UNL    C12   14   0.274   0.044  -0.268
    1UNL    C13   15   0.342   0.162  -0.277
    1UNL    C14   16   0.355   0.246  -0.167
    1UNL    C15   17   0.289   0.214  -0.056
    1UNL    C16   18   0.226   0.090  -0.035
    1UNL     N2   19   0.148   0.039   0.069
    1UNL    C17   20   0.056   0.135   0.141
    1UNL     O2   21   0.018   0.092   0.269
    1UNL    C18   22   0.119   0.088   0.376
    1UNL    C19   23  -0.072   0.160   0.054
    1UNL    C20   24  -0.066  -0.084   0.058
    1UNL     H1   25  -0.205   0.229  -0.218
    1UNL     H2   26  -0.328   0.109  -0.225
    1UNL     H3   27  -0.216   0.115  -0.351
    1UNL     H4   28  -0.031   0.065  -0.196
    1UNL     H5   29  -0.144  -0.069  -0.196
    1UNL     H6   30  -0.355   0.092  -0.002
    1UNL     H7   31  -0.295   0.040   0.155
    1UNL     H8   32  -0.380  -0.131  -0.072
    1UNL     H9   33  -0.432  -0.133   0.089
    1UNL    H10   34  -0.272  -0.261   0.174
    1UNL    H11   35  -0.304  -0.336   0.014
    1UNL    H12   36   0.001  -0.385   0.005
    1UNL    H13   37  -0.039  -0.344   0.176
    1UNL    H14   38   0.200  -0.268   0.040
    1UNL    H15   39   0.150  -0.210   0.202
    1UNL    H16   40   0.236  -0.005  -0.357
    1UNL    H17   41   0.397   0.175  -0.373
    1UNL    H18   42   0.401   0.339  -0.175
    1UNL    H19   43   0.298   0.274   0.040
    1UNL    H20   44   0.104   0.241   0.158
    1UNL    H21   45   0.164   0.193   0.387
    1UNL    H22   46   0.061   0.050   0.455
    1UNL    H23   47   0.195   0.019   0.342
    1UNL    H24   48  -0.045   0.229  -0.028
    1UNL    H25   49  -0.136   0.221   0.110
    1UNL    H26   50  -0.073  -0.078   0.167
   0.00000   0.00000   0.00000   0.00000   0.00000   0.00000   0.00000   0.00000   0.00000
Generated with MDTraj, t= 37.0
 50
    1UNL     C1    1  -0.254   0.134  -0.237
    1UNL     C2    2  -0.149   0.049  -0.163
    1UNL     C3    3  -0.156   0.041  -0.008
    1UNL     C4    4  -0.303   0.023   0.036
    1UNL     C5    5  -0.354  -0.124   0.014
    1UNL     C6    6  -0.260  -0.235   0.084
    1UNL     N1    7  -0.119  -0.215   0.038
    1UNL     C7    8  -0.010  -0.310   0.095
    1UNL     C8    9   0.122  -0.221   0.096
    1UNL     C9   10   0.081  -0.087   0.025
    1UNL    C10   11   0.124  -0.095  -0.124
    1UNL     O1   12   0.110  -0.193  -0.196
    1UNL    C11   13   0.207   0.019  -0.159
    1UNL    C12   14   0.268   0.052  -0.277
    1UNL    C13   15   0.357   0.162  -0.272
    1UNL    C14   16   0.372   0.233  -0.156
    1UNL    C15   17   0.307   0.204  -0.034
    1UNL    C16   18   0.220   0.093  -0.042
    1UNL     N2   19   0.139   0.045   0.065
    1UNL    C17   20   0.045   0.144   0.140
    1UNL     O2   21   0.019   0.093   0.268
    1UNL    C18   22   0.142   0.056   0.336
    1UNL    C19   23  -0.088   0.170   0.055
    1UNL    C20   24  -0.071  -0.076   0.044
    1UNL     H1   25  -0.235   0.237  -0.208
    1UNL     H2   26  -0.351   0.101  -0.212
    1UNL     H3   27  -0.251   0.125  -0.338
    1UNL     H4   28  -0.039   0.076  -0.190
    1UNL     H5   29  -0.164  -0.054  -0.205
    1UNL     H6   30  -0.370   0.089  -0.013
    1UNL     H7   31  -0.316   0.050   0.147
    1UNL     H8   32  -0.355  -0.158  -0.083
    1UNL     H9   33  -0.458  -0.136   0.047
    1UNL    H10   34  -0.265  -0.239   0.197
    1UNL    H11   35  -0.297  -0.339   0.051
    1UNL    H12   36   0.007  -0.397   0.029
    1UNL    H13   37  -0.032  -0.356   0.194
    1UNL    H14   38   0.197  -0.267   0.044
    1UNL    H15   39   0.153  -0.195   0.197
    1UNL    H16   40   0.270  -0.012  -0.363
    1UNL    H17   41   0.388   0.217  -0.356
    1UNL    H18   42   0.444   0.318  -0.152
    1UNL    H19   43   0.320   0.266   0.048
    1UNL    H20   44   0.093   0.250   0.157
    1UNL    H21   45   0.183   0.147   0.393
    1UNL    H22   46   0.111  -0.028   0.391
    1UNL    H23   47   0.204   0.030   0.251
    1UNL    H24   48  -0.064   0.248  -0.017
    1UNL    H25   49  -0.163   0.218   0.112
    1UNL    H26   50  -0.070  -0.055   0.150
   0.00000   0.00000   0.00000   0.00000   0.00000   0.00000   0.00000   0.00000   0.00000
Generated with MDTraj, t= 38.0
 50
    1UNL     C1    1  -0.235   0.146  -0.215
    1UNL     C2    2  -0.162   0.030  -0.149
    1UNL     C3    3  -0.153   0.033   0.005
    1UNL     C4    4  -0.297   0.014   0.053
    1UNL     C5    5  -0.357  -0.121   0.024
    1UNL     C6    6  -0.262  -0.235   0.074
    1UNL     N1    7  -0.120  -0.216   0.034
    1UNL     C7    8  -0.006  -0.310   0.069
    1UNL     C8    9   0.122  -0.221   0.090
    1UNL     C9   10   0.082  -0.085   0.025
    1UNL    C10   11   0.121  -0.096  -0.128
    1UNL     O1   12   0.083  -0.176  -0.209
    1UNL    C11   13   0.221   0.005  -0.150
    1UNL    C12   14   0.310   0.034  -0.255
    1UNL    C13   15   0.371   0.158  -0.267
    1UNL    C14   16   0.364   0.249  -0.167
    1UNL    C15   17   0.290   0.217  -0.051
    1UNL    C16   18   0.225   0.095  -0.042
    1UNL     N2   19   0.136   0.050   0.063
    1UNL    C17   20   0.041   0.138   0.134
    1UNL     O2   21   0.006   0.086   0.260
    1UNL    C18   22   0.130   0.083   0.328
    1UNL    C19   23  -0.078   0.167   0.045
    1UNL    C20   24  -0.074  -0.086   0.064
    1UNL     H1   25  -0.218   0.244  -0.170
    1UNL     H2   26  -0.337   0.121  -0.221
    1UNL     H3   27  -0.217   0.160  -0.314
    1UNL     H4   28  -0.051   0.028  -0.184
    1UNL     H5   29  -0.202  -0.071  -0.174
    1UNL     H6   30  -0.358   0.088   0.005
    1UNL     H7   31  -0.307   0.038   0.164
    1UNL     H8   32  -0.381  -0.133  -0.080
    1UNL     H9   33  -0.450  -0.145   0.074
    1UNL    H10   34  -0.281  -0.247   0.190
    1UNL    H11   35  -0.288  -0.337   0.036
    1UNL    H12   36   0.008  -0.377  -0.019
    1UNL    H13   37  -0.030  -0.383   0.151
    1UNL    H14   38   0.205  -0.267   0.051
    1UNL    H15   39   0.130  -0.221   0.199
    1UNL    H16   40   0.331  -0.029  -0.340
    1UNL    H17   41   0.431   0.176  -0.360
    1UNL    H18   42   0.408   0.345  -0.180
    1UNL    H19   43   0.297   0.279   0.037
    1UNL    H20   44   0.094   0.242   0.157
    1UNL    H21   45   0.170   0.191   0.330
    1UNL    H22   46   0.108   0.052   0.427
    1UNL    H23   47   0.183   0.016   0.259
    1UNL    H24   48  -0.045   0.235  -0.032
    1UNL    H25   49  -0.141   0.226   0.110
    1UNL    H26   50  -0.074  -0.069   0.169
   0.00000   0.00000   0.00000   0.00000   0.00000   0.00000   0.00000   0.00000   0.00000
Generated with MDTraj, t= 39.0
 50
    1UNL     C1    1  -0.254   0.125  -0.229
    1UNL     C2    2  -0.155   0.036  -0.158
    1UNL     C3    3  -0.154   0.038  -0.005
    1UNL     C4    4  -0.297   0.021   0.051
    1UNL     C5    5  -0.343  -0.126   0.034
    1UNL     C6    6  -0.245  -0.239   0.074
    1UNL     N1    7  -0.112  -0.217   0.016
    1UNL     C7    8  -0.004  -0.307   0.062
    1UNL     C8    9   0.121  -0.222   0.089
    1UNL     C9   10   0.084  -0.090   0.021
    1UNL    C10   11   0.117  -0.092  -0.132
    1UNL     O1   12   0.063  -0.160  -0.212
    1UNL    C11   13   0.208   0.014  -0.155
    1UNL    C12   14   0.289   0.040  -0.263
    1UNL    C13   15   0.365   0.149  -0.270
    1UNL    C14   16   0.375   0.231  -0.158
    1UNL    C15   17   0.312   0.202  -0.038
    1UNL    C16   18   0.222   0.093  -0.038
    1UNL     N2   19   0.142   0.038   0.066
    1UNL    C17   20   0.044   0.133   0.136
    1UNL     O2   21   0.010   0.097   0.274
    1UNL    C18   22   0.118   0.108   0.367
    1UNL    C19   23  -0.085   0.165   0.049
    1UNL    C20   24  -0.064  -0.086   0.044
    1UNL     H1   25  -0.230   0.229  -0.229
    1UNL     H2   26  -0.350   0.100  -0.190
    1UNL     H3   27  -0.267   0.097  -0.330
    1UNL     H4   28  -0.050   0.075  -0.187
    1UNL     H5   29  -0.172  -0.070  -0.192
    1UNL     H6   30  -0.373   0.088   0.010
    1UNL     H7   31  -0.295   0.049   0.161
    1UNL     H8   32  -0.355  -0.148  -0.075
    1UNL     H9   33  -0.441  -0.142   0.071
    1UNL    H10   34  -0.223  -0.244   0.191
    1UNL    H11   35  -0.284  -0.343   0.059
    1UNL    H12   36   0.005  -0.385  -0.017
    1UNL    H13   37  -0.042  -0.365   0.150
    1UNL    H14   38   0.206  -0.266   0.045
    1UNL    H15   39   0.136  -0.208   0.195
    1UNL    H16   40   0.277  -0.024  -0.348
    1UNL    H17   41   0.430   0.156  -0.351
    1UNL    H18   42   0.446   0.317  -0.160
    1UNL    H19   43   0.351   0.228   0.064
    1UNL    H20   44   0.115   0.227   0.142
    1UNL    H21   45   0.130   0.222   0.382
    1UNL    H22   46   0.090   0.077   0.466
    1UNL    H23   47   0.195   0.057   0.306
    1UNL    H24   48  -0.050   0.226  -0.031
    1UNL    H25   49  -0.144   0.231   0.113
    1UNL    H26   50  -0.063  -0.067   0.152
   0.00000   0.00000   0.00000   0.00000   0.00000   0.00000   0.00000   0.00000   0.00000
Generated with MDTraj, t= 40.0
 50
    1UNL     C1    1  -0.266   0.111  -0.226
    1UNL     C2    2  -0.160   0.019  -0.159
    1UNL     C3    3  -0.148   0.030  -0.003
    1UNL     C4    4  -0.294   0.010   0.052
    1UNL     C5    5  -0.358  -0.132   0.029
    1UNL     C6    6  -0.260  -0.234   0.079
    1UNL     N1    7  -0.125  -0.220   0.026
    1UNL     C7    8  -0.014  -0.309   0.087
    1UNL     C8    9   0.119  -0.228   0.081
    1UNL     C9   10   0.083  -0.084   0.019
    1UNL    C10   11   0.113  -0.080  -0.133
    1UNL     O1   12   0.079  -0.160  -0.218
    1UNL    C11   13   0.204   0.028  -0.157
    1UNL    C12   14   0.274   0.067  -0.273
    1UNL    C13   15   0.366   0.168  -0.263
    1UNL    C14   16   0.398   0.231  -0.139
    1UNL    C15   17   0.339   0.176  -0.026
    1UNL    C16   18   0.233   0.083  -0.035
    1UNL     N2   19   0.146   0.045   0.071
    1UNL    C17   20   0.047   0.149   0.128
    1UNL     O2   21   0.011   0.122   0.257
    1UNL    C18   22   0.124   0.090   0.341
    1UNL    C19   23  -0.078   0.161   0.041
    1UNL    C20   24  -0.068  -0.088   0.053
    1UNL     H1   25  -0.256   0.207  -0.190
    1UNL     H2   26  -0.360   0.065  -0.205
    1UNL     H3   27  -0.267   0.119  -0.334
    1UNL     H4   28  -0.059   0.045  -0.203
    1UNL     H5   29  -0.188  -0.086  -0.190
    1UNL     H6   30  -0.366   0.090   0.020
    1UNL     H7   31  -0.289   0.016   0.163
    1UNL     H8   32  -0.381  -0.146  -0.080
    1UNL     H9   33  -0.450  -0.155   0.075
    1UNL    H10   34  -0.261  -0.231   0.197
    1UNL    H11   35  -0.292  -0.342   0.065
    1UNL    H12   36  -0.011  -0.410   0.038
    1UNL    H13   37  -0.039  -0.332   0.193
    1UNL    H14   38   0.197  -0.264   0.013
    1UNL    H15   39   0.158  -0.208   0.175
    1UNL    H16   40   0.252   0.024  -0.370
    1UNL    H17   41   0.399   0.230  -0.351
    1UNL    H18   42   0.479   0.298  -0.138
    1UNL    H19   43   0.351   0.223   0.064
    1UNL    H20   44   0.105   0.251   0.125
    1UNL    H21   45   0.158   0.189   0.385
    1UNL    H22   46   0.088   0.035   0.425
    1UNL    H23   47   0.194   0.039   0.273
    1UNL    H24   48  -0.045   0.215  -0.044
    1UNL    H25   49  -0.147   0.226   0.098
    1UNL    H26   50  -0.078  -0.071   0.162
   0.00000   0.00000   0.00000   0.00000   0.00000   0.00000   0.00000   0.00000   0.00000
Generated with MDTraj, t= 41.0
 50
    1UNL     C1    1  -0.257   0.109  -0.228
    1UNL     C2    2  -0.169   0.011  -0.162
    1UNL     C3    3  -0.158   0.028  -0.012
    1UNL     C4    4  -0.295   0.022   0.062
    1UNL     C5    5  -0.351  -0.123   0.055
    1UNL     C6    6  -0.254  -0.232   0.110
    1UNL     N1    7  -0.127  -0.219   0.040
    1UNL     C7    8  -0.009  -0.306   0.069
    1UNL     C8    9   0.115  -0.225   0.076
    1UNL     C9   10   0.077  -0.084   0.011
    1UNL    C10   11   0.116  -0.080  -0.132
    1UNL     O1   12   0.056  -0.146  -0.215
    1UNL    C11   13   0.229   0.020  -0.148
    1UNL    C12   14   0.312   0.046  -0.255
    1UNL    C13   15   0.382   0.169  -0.253
    1UNL    C14   16   0.388   0.246  -0.135
    1UNL    C15   17   0.311   0.206  -0.029
    1UNL    C16   18   0.238   0.091  -0.033
    1UNL     N2   19   0.148   0.037   0.059
    1UNL    C17   20   0.045   0.140   0.116
    1UNL     O2   21   0.009   0.098   0.247
    1UNL    C18   22   0.121   0.068   0.329
    1UNL    C19   23  -0.083   0.164   0.023
    1UNL    C20   24  -0.074  -0.082   0.046
    1UNL     H1   25  -0.235   0.204  -0.197
    1UNL     H2   26  -0.355   0.083  -0.204
    1UNL     H3   27  -0.260   0.120  -0.337
    1UNL     H4   28  -0.069   0.021  -0.209
    1UNL     H5   29  -0.189  -0.101  -0.181
    1UNL     H6   30  -0.371   0.090   0.009
    1UNL     H7   31  -0.292   0.049   0.168
    1UNL     H8   32  -0.376  -0.155  -0.052
    1UNL     H9   33  -0.444  -0.128   0.101
    1UNL    H10   34  -0.241  -0.235   0.223
    1UNL    H11   35  -0.298  -0.338   0.093
    1UNL    H12   36   0.005  -0.381  -0.015
    1UNL    H13   37  -0.026  -0.360   0.164
    1UNL    H14   38   0.197  -0.267   0.015
    1UNL    H15   39   0.141  -0.200   0.172
    1UNL    H16   40   0.297  -0.007  -0.347
    1UNL    H17   41   0.437   0.197  -0.338
    1UNL    H18   42   0.433   0.347  -0.134
    1UNL    H19   43   0.319   0.273   0.063
    1UNL    H20   44   0.095   0.245   0.116
    1UNL    H21   45   0.211   0.126   0.292
    1UNL    H22   46   0.095   0.108   0.424
    1UNL    H23   47   0.138  -0.039   0.324
    1UNL    H24   48  -0.054   0.220  -0.063
    1UNL    H25   49  -0.153   0.232   0.076
    1UNL    H26   50  -0.081  -0.056   0.156
   0.00000   0.00000   0.00000   0.00000   0.00000   0.00000   0.00000   0.00000   0.00000
Generated with MDTraj, t= 42.0
 50
    1UNL     C1    1  -0.281   0.129  -0.220
    1UNL     C2    2  -0.187   0.030  -0.158
    1UNL     C3    3  -0.154   0.034  -0.012
    1UNL     C4    4  -0.282   0.013   0.074
    1UNL     C5    5  -0.348  -0.122   0.069
    1UNL     C6    6  -0.246  -0.239   0.097
    1UNL     N1    7  -0.118  -0.222   0.017
    1UNL     C7    8  -0.004  -0.297   0.069
    1UNL     C8    9   0.133  -0.206   0.075
    1UNL     C9   10   0.081  -0.080   0.003
    1UNL    C10   11   0.120  -0.092  -0.141
    1UNL     O1   12   0.093  -0.182  -0.217
    1UNL    C11   13   0.217   0.018  -0.159
    1UNL    C12   14   0.294   0.050  -0.268
    1UNL    C13   15   0.395   0.148  -0.248
    1UNL    C14   16   0.399   0.234  -0.141
    1UNL    C15   17   0.314   0.208  -0.033
    1UNL    C16   18   0.228   0.097  -0.038
    1UNL     N2   19   0.136   0.058   0.052
    1UNL    C17   20   0.043   0.144   0.129
    1UNL     O2   21  -0.007   0.094   0.253
    1UNL    C18   22   0.087   0.066   0.354
    1UNL    C19   23  -0.078   0.169   0.031
    1UNL    C20   24  -0.065  -0.084   0.036
    1UNL     H1   25  -0.232   0.222  -0.228
    1UNL     H2   26  -0.368   0.127  -0.162
    1UNL     H3   27  -0.313   0.101  -0.320
    1UNL     H4   28  -0.089   0.043  -0.210
    1UNL     H5   29  -0.218  -0.073  -0.200
    1UNL     H6   30  -0.369   0.087   0.049
    1UNL     H7   31  -0.262   0.026   0.181
    1UNL     H8   32  -0.396  -0.134  -0.034
    1UNL     H9   33  -0.430  -0.131   0.133
    1UNL    H10   34  -0.229  -0.247   0.206
    1UNL    H11   35  -0.298  -0.343   0.080
    1UNL    H12   36   0.002  -0.385  -0.001
    1UNL    H13   37  -0.029  -0.334   0.169
    1UNL    H14   38   0.208  -0.242   0.002
    1UNL    H15   39   0.171  -0.184   0.171
    1UNL    H16   40   0.277  -0.019  -0.351
    1UNL    H17   41   0.470   0.146  -0.329
    1UNL    H18   42   0.470   0.311  -0.130
    1UNL    H19   43   0.328   0.262   0.054
    1UNL    H20   44   0.094   0.246   0.142
    1UNL    H21   45   0.166  -0.008   0.321
    1UNL    H22   46   0.128   0.157   0.389
    1UNL    H23   47   0.033   0.016   0.431
    1UNL    H24   48  -0.050   0.231  -0.052
    1UNL    H25   49  -0.153   0.227   0.086
    1UNL    H26   50  -0.064  -0.070   0.150
   0.00000   0.00000   0.00000   0.00000   0.00000   0.00000   0.00000   0.00000   0.00000
Generated with MDTraj, t= 43.0
 50
    1UNL     C1    1  -0.275   0.131  -0.211
    1UNL     C2    2  -0.173   0.021  -0.167
    1UNL     C3    3  -0.160   0.031  -0.015
    1UNL     C4    4  -0.290   0.009   0.067
    1UNL     C5    5  -0.357  -0.131   0.050
    1UNL     C6    6  -0.252  -0.245   0.086
    1UNL     N1    7  -0.120  -0.222   0.028
    1UNL     C7    8   0.003  -0.310   0.066
    1UNL     C8    9   0.123  -0.213   0.075
    1UNL     C9   10   0.075  -0.082   0.019
    1UNL    C10   11   0.117  -0.081  -0.124
    1UNL     O1   12   0.078  -0.147  -0.216
    1UNL    C11   13   0.233   0.012  -0.139
    1UNL    C12   14   0.290   0.046  -0.259
    1UNL    C13   15   0.376   0.154  -0.266
    1UNL    C14   16   0.390   0.231  -0.146
    1UNL    C15   17   0.315   0.207  -0.031
    1UNL    C16   18   0.243   0.089  -0.024
    1UNL     N2   19   0.147   0.045   0.070
    1UNL    C17   20   0.044   0.142   0.121
    1UNL     O2   21   0.004   0.115   0.251
    1UNL    C18   22   0.110   0.080   0.339
    1UNL    C19   23  -0.078   0.156   0.025
    1UNL    C20   24  -0.076  -0.084   0.039
    1UNL     H1   25  -0.261   0.222  -0.153
    1UNL     H2   26  -0.369   0.088  -0.202
    1UNL     H3   27  -0.267   0.167  -0.310
    1UNL     H4   28  -0.083   0.027  -0.233
    1UNL     H5   29  -0.205  -0.089  -0.188
    1UNL     H6   30  -0.372   0.088   0.046
    1UNL     H7   31  -0.273   0.018   0.175
    1UNL     H8   32  -0.387  -0.152  -0.057
    1UNL     H9   33  -0.447  -0.139   0.103
    1UNL    H10   34  -0.248  -0.256   0.194
    1UNL    H11   35  -0.287  -0.353   0.054
    1UNL    H12   36   0.021  -0.385  -0.014
    1UNL    H13   37  -0.021  -0.371   0.153
    1UNL    H14   38   0.204  -0.264   0.025
    1UNL    H15   39   0.142  -0.198   0.182
    1UNL    H16   40   0.273  -0.021  -0.342
    1UNL    H17   41   0.419   0.185  -0.362
    1UNL    H18   42   0.476   0.299  -0.152
    1UNL    H19   43   0.320   0.277   0.054
    1UNL    H20   44   0.093   0.246   0.130
    1UNL    H21   45   0.098  -0.028   0.367
    1UNL    H22   46   0.209   0.094   0.297
    1UNL    H23   47   0.117   0.144   0.423
    1UNL    H24   48  -0.050   0.205  -0.068
    1UNL    H25   49  -0.146   0.222   0.080
    1UNL    H26   50  -0.083  -0.073   0.152
   0.00000   0.00000   0.00000   0.00000   0.00000   0.00000   0.00000   0.00000   0.00000
Generated with MDTraj, t= 44.0
 50
    1UNL     C1    1  -0.256   0.087  -0.241
    1UNL     C2    2  -0.146   0.022  -0.158
    1UNL     C3    3  -0.155   0.028  -0.005
    1UNL     C4    4  -0.295   0.017   0.053
    1UNL     C5    5  -0.353  -0.125   0.027
    1UNL     C6    6  -0.269  -0.232   0.095
    1UNL     N1    7  -0.130  -0.221   0.039
    1UNL     C7    8  -0.009  -0.305   0.065
    1UNL     C8    9   0.120  -0.216   0.074
    1UNL     C9   10   0.079  -0.085   0.012
    1UNL    C10   11   0.118  -0.081  -0.139
    1UNL     O1   12   0.067  -0.155  -0.222
    1UNL    C11   13   0.208   0.026  -0.153
    1UNL    C12   14   0.282   0.060  -0.263
    1UNL    C13   15   0.372   0.161  -0.253
    1UNL    C14   16   0.392   0.234  -0.130
    1UNL    C15   17   0.309   0.206  -0.025
    1UNL    C16   18   0.227   0.091  -0.031
    1UNL     N2   19   0.137   0.048   0.065
    1UNL    C17   20   0.041   0.141   0.133
    1UNL     O2   21   0.022   0.095   0.267
    1UNL    C18   22   0.146   0.095   0.330
    1UNL    C19   23  -0.083   0.159   0.046
    1UNL    C20   24  -0.071  -0.085   0.055
    1UNL     H1   25  -0.249   0.196  -0.245
    1UNL     H2   26  -0.352   0.051  -0.217
    1UNL     H3   27  -0.249   0.070  -0.343
    1UNL     H4   28  -0.047   0.061  -0.186
    1UNL     H5   29  -0.131  -0.090  -0.187
    1UNL     H6   30  -0.369   0.097   0.022
    1UNL     H7   31  -0.289   0.028   0.164
    1UNL     H8   32  -0.354  -0.151  -0.081
    1UNL     H9   33  -0.454  -0.136   0.060
    1UNL    H10   34  -0.280  -0.227   0.205
    1UNL    H11   35  -0.314  -0.338   0.075
    1UNL    H12   36  -0.011  -0.387  -0.010
    1UNL    H13   37  -0.019  -0.362   0.156
    1UNL    H14   38   0.189  -0.261   0.007
    1UNL    H15   39   0.168  -0.218   0.175
    1UNL    H16   40   0.253   0.028  -0.361
    1UNL    H17   41   0.434   0.184  -0.335
    1UNL    H18   42   0.453   0.321  -0.131
    1UNL    H19   43   0.310   0.265   0.068
    1UNL    H20   44   0.102   0.236   0.147
    1UNL    H21   45   0.136   0.047   0.431
    1UNL    H22   46   0.211   0.018   0.285
    1UNL    H23   47   0.208   0.182   0.323
    1UNL    H24   48  -0.042   0.213  -0.041
    1UNL    H25   49  -0.157   0.219   0.097
    1UNL    H26   50  -0.072  -0.076   0.166
   0.00000   0.00000   0.00000   0.00000   0.00000   0.00000   0.00000   0.00000   0.00000
Generated with MDTraj, t= 45.0
 50
    1UNL     C1    1  -0.268   0.124  -0.223
    1UNL     C2    2  -0.155   0.052  -0.163
    1UNL     C3    3  -0.157   0.034  -0.011
    1UNL     C4    4  -0.296   0.008   0.057
    1UNL     C5    5  -0.348  -0.134   0.022
    1UNL     C6    6  -0.254  -0.245   0.068
    1UNL     N1    7  -0.119  -0.223   0.022
    1UNL     C7    8  -0.006  -0.296   0.087
    1UNL     C8    9   0.124  -0.214   0.087
    1UNL     C9   10   0.078  -0.087   0.017
    1UNL    C10   11   0.121  -0.099  -0.129
    1UNL     O1   12   0.083  -0.180  -0.209
    1UNL    C11   13   0.216   0.007  -0.150
    1UNL    C12   14   0.280   0.054  -0.266
    1UNL    C13   15   0.364   0.168  -0.267
    1UNL    C14   16   0.380   0.242  -0.150
    1UNL    C15   17   0.320   0.196  -0.034
    1UNL    C16   18   0.227   0.088  -0.032
    1UNL     N2   19   0.137   0.040   0.066
    1UNL    C17   20   0.041   0.150   0.132
    1UNL     O2   21   0.017   0.118   0.275
    1UNL    C18   22   0.126   0.073   0.337
    1UNL    C19   23  -0.091   0.170   0.053
    1UNL    C20   24  -0.068  -0.085   0.039
    1UNL     H1   25  -0.252   0.233  -0.214
    1UNL     H2   26  -0.361   0.083  -0.190
    1UNL     H3   27  -0.257   0.116  -0.324
    1UNL     H4   28  -0.061   0.104  -0.187
    1UNL     H5   29  -0.157  -0.050  -0.219
    1UNL     H6   30  -0.373   0.085   0.037
    1UNL     H7   31  -0.280   0.016   0.169
    1UNL     H8   32  -0.354  -0.148  -0.084
    1UNL     H9   33  -0.449  -0.160   0.059
    1UNL    H10   34  -0.250  -0.256   0.180
    1UNL    H11   35  -0.288  -0.346   0.035
    1UNL    H12   36   0.007  -0.384   0.025
    1UNL    H13   37  -0.031  -0.341   0.181
    1UNL    H14   38   0.205  -0.268   0.047
    1UNL    H15   39   0.165  -0.179   0.188
    1UNL    H16   40   0.266  -0.002  -0.359
    1UNL    H17   41   0.397   0.213  -0.366
    1UNL    H18   42   0.450   0.324  -0.142
    1UNL    H19   43   0.327   0.244   0.057
    1UNL    H20   44   0.104   0.243   0.135
    1UNL    H21   45   0.114   0.049   0.443
    1UNL    H22   46   0.153  -0.027   0.295
    1UNL    H23   47   0.219   0.129   0.322
    1UNL    H24   48  -0.060   0.229  -0.037
    1UNL    H25   49  -0.158   0.226   0.114
    1UNL    H26   50  -0.088  -0.077   0.146
   0.00000   0.00000   0.00000   0.00000   0.00000   0.00000   0.00000   0.00000   0.00000
Generated with MDTraj, t= 46.0
 50
    1UNL     C1    1  -0.226   0.146  -0.223
    1UNL     C2    2  -0.148   0.028  -0.160
    1UNL     C3    3  -0.151   0.029  -0.005
    1UNL     C4    4  -0.294   0.009   0.053
    1UNL     C5    5  -0.352  -0.129   0.032
    1UNL     C6    6  -0.259  -0.243   0.076
    1UNL     N1    7  -0.119  -0.223   0.023
    1UNL     C7    8  -0.004  -0.315   0.061
    1UNL     C8    9   0.114  -0.220   0.091
    1UNL     C9   10   0.080  -0.077   0.024
    1UNL    C10   11   0.120  -0.086  -0.121
    1UNL     O1   12   0.073  -0.165  -0.194
    1UNL    C11   13   0.220   0.016  -0.151
    1UNL    C12   14   0.296   0.036  -0.266
    1UNL    C13   15   0.364   0.159  -0.277
    1UNL    C14   16   0.364   0.247  -0.170
    1UNL    C15   17   0.294   0.218  -0.053
    1UNL    C16   18   0.218   0.107  -0.044
    1UNL     N2   19   0.141   0.054   0.070
    1UNL    C17   20   0.041   0.134   0.138
    1UNL     O2   21   0.009   0.081   0.269
    1UNL    C18   22   0.114   0.083   0.356
    1UNL    C19   23  -0.071   0.157   0.045
    1UNL    C20   24  -0.072  -0.083   0.052
    1UNL     H1   25  -0.197   0.247  -0.194
    1UNL     H2   26  -0.332   0.136  -0.213
    1UNL     H3   27  -0.199   0.159  -0.323
    1UNL     H4   28  -0.045   0.032  -0.201
    1UNL     H5   29  -0.195  -0.074  -0.186
    1UNL     H6   30  -0.354   0.084   0.005
    1UNL     H7   31  -0.296   0.030   0.166
    1UNL     H8   32  -0.382  -0.142  -0.069
    1UNL     H9   33  -0.447  -0.144   0.087
    1UNL    H10   34  -0.258  -0.257   0.190
    1UNL    H11   35  -0.288  -0.340   0.038
    1UNL    H12   36   0.016  -0.382  -0.021
    1UNL    H13   37  -0.035  -0.377   0.142
    1UNL    H14   38   0.205  -0.253   0.046
    1UNL    H15   39   0.134  -0.213   0.201
    1UNL    H16   40   0.309  -0.031  -0.347
    1UNL    H17   41   0.417   0.182  -0.362
    1UNL    H18   42   0.417   0.340  -0.180
    1UNL    H19   43   0.308   0.279   0.041
    1UNL    H20   44   0.097   0.229   0.159
    1UNL    H21   45   0.102   0.021   0.444
    1UNL    H22   46   0.210   0.043   0.310
    1UNL    H23   47   0.144   0.186   0.385
    1UNL    H24   48  -0.019   0.206  -0.042
    1UNL    H25   49  -0.136   0.224   0.099
    1UNL    H26   50  -0.094  -0.074   0.157
   0.00000   0.00000   0.00000   0.00000   0.00000   0.00000   0.00000   0.00000   0.00000
Generated with MDTraj, t= 47.0
 50
    1UNL     C1    1  -0.238   0.144  -0.223
    1UNL     C2    2  -0.143   0.032  -0.165
    1UNL     C3    3  -0.143   0.034  -0.010
    1UNL     C4    4  -0.289   0.019   0.043
    1UNL     C5    5  -0.349  -0.121   0.025
    1UNL     C6    6  -0.262  -0.233   0.099
    1UNL     N1    7  -0.123  -0.223   0.036
    1UNL     C7    8  -0.012  -0.313   0.083
    1UNL     C8    9   0.121  -0.226   0.086
    1UNL     C9   10   0.079  -0.091   0.014
    1UNL    C10   11   0.120  -0.097  -0.130
    1UNL     O1   12   0.096  -0.189  -0.206
    1UNL    C11   13   0.204   0.022  -0.159
    1UNL    C12   14   0.282   0.058  -0.266
    1UNL    C13   15   0.350   0.178  -0.273
    1UNL    C14   16   0.364   0.251  -0.158
    1UNL    C15   17   0.304   0.211  -0.040
    1UNL    C16   18   0.222   0.097  -0.044
    1UNL     N2   19   0.139   0.045   0.061
    1UNL    C17   20   0.048   0.131   0.138
    1UNL     O2   21   0.005   0.077   0.269
    1UNL    C18   22   0.109   0.081   0.360
    1UNL    C19   23  -0.072   0.164   0.041
    1UNL    C20   24  -0.065  -0.088   0.044
    1UNL     H1   25  -0.214   0.246  -0.214
    1UNL     H2   26  -0.340   0.123  -0.198
    1UNL     H3   27  -0.223   0.141  -0.329
    1UNL     H4   28  -0.035   0.042  -0.196
    1UNL     H5   29  -0.176  -0.072  -0.197
    1UNL     H6   30  -0.359   0.091   0.007
    1UNL     H7   31  -0.275   0.038   0.156
    1UNL     H8   32  -0.353  -0.146  -0.075
    1UNL     H9   33  -0.456  -0.128   0.052
    1UNL    H10   34  -0.243  -0.221   0.212
    1UNL    H11   35  -0.296  -0.332   0.082
    1UNL    H12   36  -0.006  -0.390   0.009
    1UNL    H13   37  -0.045  -0.349   0.178
    1UNL    H14   38   0.198  -0.278   0.024
    1UNL    H15   39   0.150  -0.207   0.190
    1UNL    H16   40   0.288  -0.016  -0.346
    1UNL    H17   41   0.418   0.205  -0.360
    1UNL    H18   42   0.410   0.349  -0.154
    1UNL    H19   43   0.326   0.262   0.048
    1UNL    H20   44   0.089   0.233   0.159
    1UNL    H21   45   0.101   0.025   0.451
    1UNL    H22   46   0.209   0.050   0.314
    1UNL    H23   47   0.126   0.187   0.386
    1UNL    H24   48  -0.032   0.225  -0.044
    1UNL    H25   49  -0.144   0.224   0.094
    1UNL    H26   50  -0.064  -0.077   0.153
   0.00000   0.00000   0.00000   0.00000   0.00000   0.00000   0.00000   0.00000   0.00000
Generated with MDTraj, t= 48.0
 50
    1UNL     C1    1  -0.245   0.124  -0.229
    1UNL     C2    2  -0.154   0.027  -0.170
    1UNL     C3    3  -0.147   0.036  -0.018
    1UNL     C4    4  -0.288   0.021   0.053
    1UNL     C5    5  -0.341  -0.120   0.032
    1UNL     C6    6  -0.258  -0.242   0.068
    1UNL     N1    7  -0.118  -0.221   0.023
    1UNL     C7    8  -0.011  -0.302   0.089
    1UNL     C8    9   0.123  -0.218   0.093
    1UNL     C9   10   0.082  -0.087   0.018
    1UNL    C10   11   0.119  -0.096  -0.124
    1UNL     O1   12   0.080  -0.176  -0.208
    1UNL    C11   13   0.219   0.005  -0.145
    1UNL    C12   14   0.275   0.055  -0.266
    1UNL    C13   15   0.326   0.181  -0.261
    1UNL    C14   16   0.352   0.256  -0.147
    1UNL    C15   17   0.321   0.194  -0.030
    1UNL    C16   18   0.239   0.081  -0.025
    1UNL     N2   19   0.143   0.043   0.071
    1UNL    C17   20   0.050   0.142   0.127
    1UNL     O2   21   0.014   0.108   0.262
    1UNL    C18   22   0.122   0.060   0.340
    1UNL    C19   23  -0.076   0.167   0.035
    1UNL    C20   24  -0.070  -0.082   0.044
    1UNL     H1   25  -0.219   0.220  -0.204
    1UNL     H2   26  -0.345   0.088  -0.209
    1UNL     H3   27  -0.223   0.114  -0.334
    1UNL     H4   28  -0.050   0.053  -0.211
    1UNL     H5   29  -0.180  -0.080  -0.197
    1UNL     H6   30  -0.356   0.096   0.017
    1UNL     H7   31  -0.275   0.036   0.167
    1UNL     H8   32  -0.365  -0.130  -0.067
    1UNL     H9   33  -0.439  -0.132   0.080
    1UNL    H10   34  -0.256  -0.252   0.182
    1UNL    H11   35  -0.285  -0.337   0.025
    1UNL    H12   36  -0.003  -0.389   0.028
    1UNL    H13   37  -0.044  -0.322   0.190
    1UNL    H14   38   0.200  -0.275   0.028
    1UNL    H15   39   0.154  -0.203   0.194
    1UNL    H16   40   0.277  -0.011  -0.350
    1UNL    H17   41   0.344   0.225  -0.354
    1UNL    H18   42   0.416   0.342  -0.157
    1UNL    H19   43   0.329   0.246   0.065
    1UNL    H20   44   0.087   0.245   0.141
    1UNL    H21   45   0.091   0.063   0.440
    1UNL    H22   46   0.156  -0.043   0.313
    1UNL    H23   47   0.209   0.128   0.339
    1UNL    H24   48  -0.046   0.240  -0.044
    1UNL    H25   49  -0.146   0.225   0.096
    1UNL    H26   50  -0.080  -0.070   0.154
   0.00000   0.00000   0.00000   0.00000   0.00000   0.00000   0.00000   0.00000   0.00000
Generated with MDTraj, t= 49.0
 50
    1UNL     C1    1  -0.242   0.104  -0.232
    1UNL     C2    2  -0.151   0.008  -0.162
    1UNL     C3    3  -0.142   0.028  -0.006
    1UNL     C4    4  -0.283   0.019   0.054
    1UNL     C5    5  -0.351  -0.122   0.028
    1UNL     C6    6  -0.263  -0.228   0.091
    1UNL     N1    7  -0.122  -0.218   0.030
    1UNL     C7    8  -0.007  -0.312   0.049
    1UNL     C8    9   0.115  -0.224   0.072
    1UNL     C9   10   0.082  -0.082   0.023
    1UNL    C10   11   0.117  -0.083  -0.125
    1UNL     O1   12   0.078  -0.159  -0.208
    1UNL    C11   13   0.206   0.025  -0.152
    1UNL    C12   14   0.278   0.050  -0.264
    1UNL    C13   15   0.359   0.160  -0.262
    1UNL    C14   16   0.372   0.237  -0.146
    1UNL    C15   17   0.307   0.209  -0.035
    1UNL    C16   18   0.222   0.102  -0.040
    1UNL     N2   19   0.142   0.050   0.068
    1UNL    C17   20   0.046   0.147   0.139
    1UNL     O2   21   0.009   0.091   0.267
    1UNL    C18   22   0.121   0.078   0.351
    1UNL    C19   23  -0.077   0.165   0.044
    1UNL    C20   24  -0.066  -0.084   0.053
    1UNL     H1   25  -0.215   0.201  -0.208
    1UNL     H2   26  -0.341   0.071  -0.209
    1UNL     H3   27  -0.237   0.094  -0.340
    1UNL     H4   28  -0.046   0.024  -0.204
    1UNL     H5   29  -0.168  -0.101  -0.192
    1UNL     H6   30  -0.343   0.099   0.013
    1UNL     H7   31  -0.273   0.028   0.168
    1UNL     H8   32  -0.376  -0.144  -0.072
    1UNL     H9   33  -0.449  -0.124   0.075
    1UNL    H10   34  -0.252  -0.217   0.202
    1UNL    H11   35  -0.301  -0.326   0.062
    1UNL    H12   36   0.008  -0.378  -0.034
    1UNL    H13   37  -0.022  -0.371   0.139
    1UNL    H14   38   0.197  -0.266   0.001
    1UNL    H15   39   0.154  -0.214   0.171
    1UNL    H16   40   0.248  -0.008  -0.351
    1UNL    H17   41   0.425   0.183  -0.348
    1UNL    H18   42   0.436   0.325  -0.145
    1UNL    H19   43   0.317   0.277   0.050
    1UNL    H20   44   0.101   0.241   0.153
    1UNL    H21   45   0.087   0.047   0.445
    1UNL    H22   46   0.193   0.009   0.302
    1UNL    H23   47   0.164   0.178   0.371
    1UNL    H24   48  -0.032   0.214  -0.044
    1UNL    H25   49  -0.153   0.234   0.085
    1UNL    H26   50  -0.078  -0.076   0.165
   0.00000   0.00000   0.00000   0.00000   0.00000   0.00000   0.00000   0.00000   0.00000
Generated with MDTraj, t= 50.0
 50
    1UNL     C1    1  -0.288   0.138  -0.203
    1UNL     C2    2  -0.172   0.041  -0.167
    1UNL     C3    3  -0.158   0.034  -0.018
    1UNL     C4    4  -0.293   0.008   0.058
    1UNL     C5    5  -0.347  -0.136   0.037
    1UNL     C6    6  -0.252  -0.240   0.092
    1UNL     N1    7  -0.118  -0.220   0.025
    1UNL     C7    8  -0.006  -0.301   0.084
    1UNL     C8    9   0.120  -0.208   0.088
    1UNL     C9   10   0.081  -0.085   0.006
    1UNL    C10   11   0.126  -0.093  -0.134
    1UNL     O1   12   0.087  -0.168  -0.219
    1UNL    C11   13   0.229   0.013  -0.144
    1UNL    C12   14   0.296   0.048  -0.259
    1UNL    C13   15   0.382   0.158  -0.257
    1UNL    C14   16   0.399   0.235  -0.148
    1UNL    C15   17   0.315   0.207  -0.036
    1UNL    C16   18   0.228   0.096  -0.034
    1UNL     N2   19   0.136   0.044   0.056
    1UNL    C17   20   0.034   0.135   0.124
    1UNL     O2   21   0.008   0.086   0.255
    1UNL    C18   22   0.118   0.085   0.347
    1UNL    C19   23  -0.093   0.162   0.042
    1UNL    C20   24  -0.069  -0.083   0.031
    1UNL     H1   25  -0.265   0.234  -0.167
    1UNL     H2   26  -0.380   0.095  -0.173
    1UNL     H3   27  -0.312   0.150  -0.308
    1UNL     H4   28  -0.071   0.068  -0.212
    1UNL     H5   29  -0.181  -0.064  -0.209
    1UNL     H6   30  -0.374   0.079   0.038
    1UNL     H7   31  -0.266   0.015   0.167
    1UNL     H8   32  -0.374  -0.163  -0.066
    1UNL     H9   33  -0.443  -0.152   0.083
    1UNL    H10   34  -0.243  -0.231   0.200
    1UNL    H11   35  -0.284  -0.343   0.059
    1UNL    H12   36   0.005  -0.389   0.024
    1UNL    H13   37  -0.021  -0.344   0.184
    1UNL    H14   38   0.222  -0.245   0.051
    1UNL    H15   39   0.145  -0.170   0.187
    1UNL    H16   40   0.290   0.006  -0.358
    1UNL    H17   41   0.439   0.183  -0.347
    1UNL    H18   42   0.466   0.319  -0.149
    1UNL    H19   43   0.317   0.261   0.053
    1UNL    H20   44   0.089   0.227   0.137
    1UNL    H21   45   0.086   0.021   0.422
    1UNL    H22   46   0.210   0.055   0.292
    1UNL    H23   47   0.120   0.182   0.399
    1UNL    H24   48  -0.061   0.226  -0.041
    1UNL    H25   49  -0.162   0.224   0.105
    1UNL    H26   50  -0.081  -0.070   0.145
   0.00000   0.00000   0.00000   0.00000   0.00000   0.00000   0.00000   0.00000   0.00000
Generated with MDTraj, t= 51.0
 50
    1UNL     C1    1  -0.253   0.125  -0.223
    1UNL     C2    2  -0.163   0.026  -0.155
    1UNL     C3    3  -0.159   0.029  -0.005
    1UNL     C4    4  -0.294   0.001   0.073
    1UNL     C5    5  -0.358  -0.138   0.070
    1UNL     C6    6  -0.256  -0.256   0.082
    1UNL     N1    7  -0.120  -0.224   0.017
    1UNL     C7    8  -0.006  -0.298   0.064
    1UNL     C8    9   0.123  -0.214   0.068
    1UNL     C9   10   0.077  -0.078   0.013
    1UNL    C10   11   0.118  -0.082  -0.141
    1UNL     O1   12   0.068  -0.160  -0.219
    1UNL    C11   13   0.224   0.013  -0.157
    1UNL    C12   14   0.303   0.048  -0.262
    1UNL    C13   15   0.403   0.148  -0.242
    1UNL    C14   16   0.397   0.233  -0.134
    1UNL    C15   17   0.306   0.213  -0.036
    1UNL    C16   18   0.224   0.098  -0.041
    1UNL     N2   19   0.132   0.058   0.058
    1UNL    C17   20   0.036   0.157   0.128
    1UNL     O2   21   0.004   0.112   0.259
    1UNL    C18   22   0.121   0.073   0.329
    1UNL    C19   23  -0.093   0.161   0.043
    1UNL    C20   24  -0.068  -0.087   0.043
    1UNL     H1   25  -0.220   0.226  -0.209
    1UNL     H2   26  -0.354   0.102  -0.208
    1UNL     H3   27  -0.254   0.113  -0.330
    1UNL     H4   28  -0.059   0.035  -0.198
    1UNL     H5   29  -0.196  -0.079  -0.187
    1UNL     H6   30  -0.369   0.071   0.026
    1UNL     H7   31  -0.280   0.034   0.176
    1UNL     H8   32  -0.416  -0.156  -0.026
    1UNL     H9   33  -0.442  -0.136   0.135
    1UNL    H10   34  -0.235  -0.261   0.186
    1UNL    H11   35  -0.295  -0.354   0.036
    1UNL    H12   36   0.012  -0.384   0.000
    1UNL    H13   37  -0.038  -0.349   0.157
    1UNL    H14   38   0.219  -0.249   0.023
    1UNL    H15   39   0.152  -0.194   0.175
    1UNL    H16   40   0.312  -0.019  -0.347
    1UNL    H17   41   0.463   0.168  -0.327
    1UNL    H18   42   0.464   0.317  -0.129
    1UNL    H19   43   0.302   0.285   0.049
    1UNL    H20   44   0.083   0.252   0.136
    1UNL    H21   45   0.094   0.074   0.430
    1UNL    H22   46   0.153  -0.021   0.282
    1UNL    H23   47   0.189   0.160   0.311
    1UNL    H24   48  -0.078   0.231  -0.039
    1UNL    H25   49  -0.168   0.211   0.111
    1UNL    H26   50  -0.073  -0.081   0.157
   0.00000   0.00000   0.00000   0.00000   0.00000   0.00000   0.00000   0.00000   0.00000
Generated with MDTraj, t= 52.0
 50
    1UNL     C1    1  -0.275   0.108  -0.222
    1UNL     C2    2  -0.169   0.017  -0.165
    1UNL     C3    3  -0.163   0.029  -0.012
    1UNL     C4    4  -0.307   0.009   0.055
    1UNL     C5    5  -0.352  -0.138   0.033
    1UNL     C6    6  -0.251  -0.238   0.106
    1UNL     N1    7  -0.117  -0.220   0.040
    1UNL     C7    8  -0.001  -0.312   0.054
    1UNL     C8    9   0.122  -0.216   0.066
    1UNL     C9   10   0.081  -0.082   0.018
    1UNL    C10   11   0.115  -0.074  -0.127
    1UNL     O1   12   0.060  -0.142  -0.211
    1UNL    C11   13   0.220   0.023  -0.150
    1UNL    C12   14   0.295   0.061  -0.260
    1UNL    C13   15   0.381   0.164  -0.258
    1UNL    C14   16   0.400   0.227  -0.133
    1UNL    C15   17   0.323   0.197  -0.024
    1UNL    C16   18   0.240   0.087  -0.025
    1UNL     N2   19   0.150   0.042   0.068
    1UNL    C17   20   0.040   0.138   0.122
    1UNL     O2   21   0.007   0.109   0.259
    1UNL    C18   22   0.127   0.086   0.335
    1UNL    C19   23  -0.082   0.160   0.025
    1UNL    C20   24  -0.076  -0.082   0.050
    1UNL     H1   25  -0.239   0.211  -0.214
    1UNL     H2   26  -0.373   0.088  -0.188
    1UNL     H3   27  -0.297   0.099  -0.326
    1UNL     H4   28  -0.074   0.057  -0.211
    1UNL     H5   29  -0.184  -0.092  -0.201
    1UNL     H6   30  -0.383   0.084   0.014
    1UNL     H7   31  -0.299   0.026   0.159
    1UNL     H8   32  -0.362  -0.151  -0.081
    1UNL     H9   33  -0.452  -0.158   0.055
    1UNL    H10   34  -0.251  -0.219   0.211
    1UNL    H11   35  -0.281  -0.345   0.073
    1UNL    H12   36  -0.002  -0.378  -0.033
    1UNL    H13   37  -0.025  -0.380   0.139
    1UNL    H14   38   0.207  -0.243   0.003
    1UNL    H15   39   0.154  -0.230   0.177
    1UNL    H16   40   0.283   0.007  -0.352
    1UNL    H17   41   0.445   0.188  -0.345
    1UNL    H18   42   0.467   0.312  -0.141
    1UNL    H19   43   0.332   0.249   0.065
    1UNL    H20   44   0.088   0.232   0.124
    1UNL    H21   45   0.104   0.066   0.437
    1UNL    H22   46   0.178   0.012   0.274
    1UNL    H23   47   0.177   0.188   0.329
    1UNL    H24   48  -0.054   0.220  -0.062
    1UNL    H25   49  -0.153   0.226   0.084
    1UNL    H26   50  -0.082  -0.059   0.159
   0.00000   0.00000   0.00000   0.00000   0.00000   0.00000   0.00000   0.00000   0.00000
Generated with MDTraj, t= 53.0
 50
    1UNL     C1    1  -0.285   0.103  -0.225
    1UNL     C2    2  -0.170   0.027  -0.157
    1UNL     C3    3  -0.147   0.032  -0.007
    1UNL     C4    4  -0.290   0.014   0.064
    1UNL     C5    5  -0.356  -0.128   0.049
    1UNL     C6    6  -0.259  -0.242   0.073
    1UNL     N1    7  -0.122  -0.217   0.019
    1UNL     C7    8  -0.007  -0.302   0.090
    1UNL     C8    9   0.129  -0.226   0.067
    1UNL     C9   10   0.082  -0.090   0.012
    1UNL    C10   11   0.118  -0.087  -0.141
    1UNL     O1   12   0.080  -0.158  -0.234
    1UNL    C11   13   0.214   0.028  -0.155
    1UNL    C12   14   0.281   0.065  -0.268
    1UNL    C13   15   0.370   0.166  -0.254
    1UNL    C14   16   0.394   0.239  -0.136
    1UNL    C15   17   0.334   0.191  -0.022
    1UNL    C16   18   0.234   0.086  -0.033
    1UNL     N2   19   0.144   0.037   0.064
    1UNL    C17   20   0.047   0.137   0.133
    1UNL     O2   21   0.002   0.095   0.260
    1UNL    C18   22   0.104   0.111   0.356
    1UNL    C19   23  -0.065   0.158   0.033
    1UNL    C20   24  -0.065  -0.085   0.045
    1UNL     H1   25  -0.274   0.211  -0.205
    1UNL     H2   26  -0.381   0.063  -0.206
    1UNL     H3   27  -0.286   0.105  -0.329
    1UNL     H4   28  -0.071   0.058  -0.201
    1UNL     H5   29  -0.192  -0.085  -0.179
    1UNL     H6   30  -0.364   0.092   0.023
    1UNL     H7   31  -0.276   0.033   0.168
    1UNL     H8   32  -0.416  -0.138  -0.048
    1UNL     H9   33  -0.436  -0.129   0.115
    1UNL    H10   34  -0.244  -0.248   0.178
    1UNL    H11   35  -0.303  -0.335   0.019
    1UNL    H12   36  -0.007  -0.403   0.047
    1UNL    H13   37  -0.025  -0.306   0.202
    1UNL    H14   38   0.189  -0.287   0.000
    1UNL    H15   39   0.184  -0.207   0.167
    1UNL    H16   40   0.261   0.005  -0.355
    1UNL    H17   41   0.423   0.194  -0.339
    1UNL    H18   42   0.472   0.313  -0.135
    1UNL    H19   43   0.344   0.252   0.071
    1UNL    H20   44   0.097   0.228   0.136
    1UNL    H21   45   0.070   0.063   0.447
    1UNL    H22   46   0.192   0.066   0.308
    1UNL    H23   47   0.118   0.223   0.379
    1UNL    H24   48  -0.017   0.202  -0.055
    1UNL    H25   49  -0.135   0.240   0.067
    1UNL    H26   50  -0.062  -0.073   0.153
   0.00000   0.00000   0.00000   0.00000   0.00000   0.00000   0.00000   0.00000   0.00000
Generated with MDTraj, t= 54.0
 50
    1UNL     C1    1  -0.242   0.122  -0.226
    1UNL     C2    2  -0.162   0.018  -0.157
    1UNL     C3    3  -0.152   0.035  -0.008
    1UNL     C4    4  -0.296   0.023   0.060
    1UNL     C5    5  -0.342  -0.126   0.065
    1UNL     C6    6  -0.242  -0.241   0.098
    1UNL     N1    7  -0.115  -0.221   0.026
    1UNL     C7    8  -0.002  -0.308   0.044
    1UNL     C8    9   0.116  -0.222   0.083
    1UNL     C9   10   0.082  -0.090   0.014
    1UNL    C10   11   0.116  -0.085  -0.134
    1UNL     O1   12   0.074  -0.153  -0.221
    1UNL    C11   13   0.218   0.013  -0.150
    1UNL    C12   14   0.297   0.044  -0.263
    1UNL    C13   15   0.368   0.167  -0.259
    1UNL    C14   16   0.372   0.244  -0.143
    1UNL    C15   17   0.303   0.204  -0.027
    1UNL    C16   18   0.223   0.092  -0.032
    1UNL     N2   19   0.144   0.035   0.067
    1UNL    C17   20   0.047   0.136   0.125
    1UNL     O2   21  -0.000   0.100   0.251
    1UNL    C18   22   0.104   0.086   0.342
    1UNL    C19   23  -0.078   0.166   0.033
    1UNL    C20   24  -0.073  -0.083   0.049
    1UNL     H1   25  -0.216   0.224  -0.193
    1UNL     H2   26  -0.344   0.095  -0.210
    1UNL     H3   27  -0.234   0.125  -0.330
    1UNL     H4   28  -0.057   0.028  -0.193
    1UNL     H5   29  -0.193  -0.091  -0.176
    1UNL     H6   30  -0.372   0.091   0.008
    1UNL     H7   31  -0.288   0.055   0.162
    1UNL     H8   32  -0.394  -0.136  -0.036
    1UNL     H9   33  -0.422  -0.132   0.130
    1UNL    H10   34  -0.221  -0.233   0.204
    1UNL    H11   35  -0.289  -0.341   0.069
    1UNL    H12   36   0.016  -0.353  -0.056
    1UNL    H13   37  -0.015  -0.380   0.131
    1UNL    H14   38   0.211  -0.259   0.043
    1UNL    H15   39   0.119  -0.207   0.197
    1UNL    H16   40   0.299  -0.021  -0.349
    1UNL    H17   41   0.429   0.186  -0.349
    1UNL    H18   42   0.436   0.331  -0.140
    1UNL    H19   43   0.312   0.272   0.054
    1UNL    H20   44   0.103   0.223   0.130
    1UNL    H21   45   0.065   0.036   0.432
    1UNL    H22   46   0.173   0.021   0.289
    1UNL    H23   47   0.154   0.184   0.374
    1UNL    H24   48  -0.035   0.196  -0.064
    1UNL    H25   49  -0.139   0.255   0.065
    1UNL    H26   50  -0.078  -0.071   0.154
   0.00000   0.00000   0.00000   0.00000   0.00000   0.00000   0.00000   0.00000   0.00000
Generated with MDTraj, t= 55.0
 50
    1UNL     C1    1  -0.241   0.138  -0.222
    1UNL     C2    2  -0.174   0.018  -0.156
    1UNL     C3    3  -0.156   0.035  -0.002
    1UNL     C4    4  -0.293   0.009   0.059
    1UNL     C5    5  -0.355  -0.131   0.034
    1UNL     C6    6  -0.255  -0.236   0.094
    1UNL     N1    7  -0.120  -0.223   0.031
    1UNL     C7    8  -0.010  -0.309   0.080
    1UNL     C8    9   0.125  -0.216   0.090
    1UNL     C9   10   0.080  -0.077   0.023
    1UNL    C10   11   0.122  -0.088  -0.130
    1UNL     O1   12   0.093  -0.173  -0.213
    1UNL    C11   13   0.213   0.025  -0.157
    1UNL    C12   14   0.287   0.057  -0.268
    1UNL    C13   15   0.372   0.166  -0.261
    1UNL    C14   16   0.380   0.243  -0.150
    1UNL    C15   17   0.306   0.204  -0.038
    1UNL    C16   18   0.229   0.096  -0.038
    1UNL     N2   19   0.145   0.056   0.064
    1UNL    C17   20   0.045   0.150   0.125
    1UNL     O2   21   0.003   0.089   0.246
    1UNL    C18   22   0.108   0.053   0.331
    1UNL    C19   23  -0.080   0.166   0.035
    1UNL    C20   24  -0.070  -0.085   0.054
    1UNL     H1   25  -0.175   0.223  -0.224
    1UNL     H2   26  -0.338   0.151  -0.176
    1UNL     H3   27  -0.271   0.114  -0.320
    1UNL     H4   28  -0.067   0.012  -0.190
    1UNL     H5   29  -0.218  -0.082  -0.186
    1UNL     H6   30  -0.364   0.087   0.023
    1UNL     H7   31  -0.279   0.026   0.165
    1UNL     H8   32  -0.378  -0.143  -0.076
    1UNL     H9   33  -0.451  -0.134   0.076
    1UNL    H10   34  -0.246  -0.218   0.203
    1UNL    H11   35  -0.283  -0.341   0.069
    1UNL    H12   36   0.010  -0.391   0.007
    1UNL    H13   37  -0.036  -0.348   0.183
    1UNL    H14   38   0.210  -0.264   0.037
    1UNL    H15   39   0.168  -0.189   0.189
    1UNL    H16   40   0.271  -0.001  -0.357
    1UNL    H17   41   0.440   0.182  -0.339
    1UNL    H18   42   0.426   0.341  -0.151
    1UNL    H19   43   0.313   0.259   0.055
    1UNL    H20   44   0.098   0.237   0.143
    1UNL    H21   45   0.077   0.042   0.438
    1UNL    H22   46   0.138  -0.043   0.300
    1UNL    H23   47   0.202   0.117   0.328
    1UNL    H24   48  -0.052   0.218  -0.061
    1UNL    H25   49  -0.151   0.239   0.079
    1UNL    H26   50  -0.074  -0.078   0.160
   0.00000   0.00000   0.00000   0.00000   0.00000   0.00000   0.00000   0.00000   0.00000
Generated with MDTraj, t= 56.0
 50
    1UNL     C1    1  -0.249   0.126  -0.242
    1UNL     C2    2  -0.145   0.042  -0.167
    1UNL     C3    3  -0.152   0.039  -0.015
    1UNL     C4    4  -0.296   0.014   0.046
    1UNL     C5    5  -0.348  -0.133   0.047
    1UNL     C6    6  -0.247  -0.245   0.088
    1UNL     N1    7  -0.118  -0.220   0.021
    1UNL     C7    8  -0.012  -0.300   0.088
    1UNL     C8    9   0.119  -0.224   0.078
    1UNL     C9   10   0.083  -0.094   0.009
    1UNL    C10   11   0.117  -0.096  -0.131
    1UNL     O1   12   0.070  -0.168  -0.218
    1UNL    C11   13   0.211   0.015  -0.145
    1UNL    C12   14   0.273   0.052  -0.266
    1UNL    C13   15   0.360   0.163  -0.264
    1UNL    C14   16   0.371   0.246  -0.149
    1UNL    C15   17   0.306   0.213  -0.032
    1UNL    C16   18   0.226   0.094  -0.030
    1UNL     N2   19   0.147   0.034   0.072
    1UNL    C17   20   0.053   0.135   0.132
    1UNL     O2   21   0.014   0.100   0.266
    1UNL    C18   22   0.117   0.085   0.359
    1UNL    C19   23  -0.076   0.160   0.046
    1UNL    C20   24  -0.069  -0.082   0.036
    1UNL     H1   25  -0.279   0.212  -0.190
    1UNL     H2   26  -0.324   0.057  -0.280
    1UNL     H3   27  -0.209   0.156  -0.337
    1UNL     H4   28  -0.040   0.069  -0.200
    1UNL     H5   29  -0.145  -0.066  -0.202
    1UNL     H6   30  -0.357   0.079  -0.013
    1UNL     H7   31  -0.301   0.058   0.147
    1UNL     H8   32  -0.384  -0.156  -0.055
    1UNL     H9   33  -0.441  -0.135   0.101
    1UNL    H10   34  -0.224  -0.247   0.199
    1UNL    H11   35  -0.285  -0.340   0.054
    1UNL    H12   36  -0.005  -0.398   0.035
    1UNL    H13   37  -0.041  -0.325   0.194
    1UNL    H14   38   0.200  -0.276   0.015
    1UNL    H15   39   0.170  -0.212   0.173
    1UNL    H16   40   0.268  -0.011  -0.355
    1UNL    H17   41   0.402   0.209  -0.355
    1UNL    H18   42   0.438   0.330  -0.146
    1UNL    H19   43   0.322   0.280   0.058
    1UNL    H20   44   0.110   0.220   0.146
    1UNL    H21   45   0.083   0.058   0.462
    1UNL    H22   46   0.185   0.007   0.334
    1UNL    H23   47   0.184   0.172   0.372
    1UNL    H24   48  -0.072   0.242  -0.033
    1UNL    H25   49  -0.143   0.199   0.124
    1UNL    H26   50  -0.072  -0.058   0.141
   0.00000   0.00000   0.00000   0.00000   0.00000   0.00000   0.00000   0.00000   0.00000
Generated with MDTraj, t= 57.0
 50
    1UNL     C1    1  -0.247   0.120  -0.234
    1UNL     C2    2  -0.144   0.026  -0.158
    1UNL     C3    3  -0.152   0.031  -0.004
    1UNL     C4    4  -0.298   0.005   0.043
    1UNL     C5    5  -0.356  -0.134   0.010
    1UNL     C6    6  -0.266  -0.239   0.070
    1UNL     N1    7  -0.125  -0.216   0.031
    1UNL     C7    8  -0.011  -0.311   0.058
    1UNL     C8    9   0.111  -0.225   0.082
    1UNL     C9   10   0.080  -0.082   0.030
    1UNL    C10   11   0.119  -0.092  -0.119
    1UNL     O1   12   0.073  -0.167  -0.200
    1UNL    C11   13   0.214   0.016  -0.146
    1UNL    C12   14   0.273   0.056  -0.266
    1UNL    C13   15   0.356   0.166  -0.268
    1UNL    C14   16   0.371   0.242  -0.147
    1UNL    C15   17   0.304   0.211  -0.035
    1UNL    C16   18   0.234   0.092  -0.030
    1UNL     N2   19   0.148   0.044   0.069
    1UNL    C17   20   0.051   0.140   0.130
    1UNL     O2   21   0.026   0.103   0.263
    1UNL    C18   22   0.138   0.094   0.341
    1UNL    C19   23  -0.077   0.162   0.050
    1UNL    C20   24  -0.067  -0.080   0.067
    1UNL     H1   25  -0.200   0.210  -0.250
    1UNL     H2   26  -0.350   0.123  -0.198
    1UNL     H3   27  -0.271   0.075  -0.330
    1UNL     H4   28  -0.038   0.034  -0.196
    1UNL     H5   29  -0.172  -0.079  -0.184
    1UNL     H6   30  -0.358   0.087   0.019
    1UNL     H7   31  -0.290   0.010   0.155
    1UNL     H8   32  -0.374  -0.143  -0.099
    1UNL     H9   33  -0.453  -0.145   0.065
    1UNL    H10   34  -0.270  -0.240   0.185
    1UNL    H11   35  -0.295  -0.332   0.030
    1UNL    H12   36   0.003  -0.376  -0.032
    1UNL    H13   37  -0.043  -0.381   0.139
    1UNL    H14   38   0.194  -0.277   0.019
    1UNL    H15   39   0.161  -0.231   0.178
    1UNL    H16   40   0.245   0.007  -0.356
    1UNL    H17   41   0.400   0.196  -0.360
    1UNL    H18   42   0.429   0.334  -0.150
    1UNL    H19   43   0.308   0.263   0.052
    1UNL    H20   44   0.100   0.230   0.150
    1UNL    H21   45   0.122   0.027   0.428
    1UNL    H22   46   0.225   0.056   0.295
    1UNL    H23   47   0.166   0.189   0.382
    1UNL    H24   48  -0.061   0.237  -0.034
    1UNL    H25   49  -0.146   0.211   0.120
    1UNL    H26   50  -0.070  -0.060   0.174
   0.00000   0.00000   0.00000   0.00000   0.00000   0.00000   0.00000   0.00000   0.00000
Generated with MDTraj, t= 58.0
 50
    1UNL     C1    1  -0.244   0.151  -0.211
    1UNL     C2    2  -0.161   0.034  -0.155
    1UNL     C3    3  -0.156   0.033  -0.005
    1UNL     C4    4  -0.294   0.008   0.060
    1UNL     C5    5  -0.353  -0.138   0.009
    1UNL     C6    6  -0.261  -0.247   0.066
    1UNL     N1    7  -0.122  -0.220   0.030
    1UNL     C7    8  -0.003  -0.308   0.076
    1UNL     C8    9   0.122  -0.217   0.099
    1UNL     C9   10   0.084  -0.086   0.021
    1UNL    C10   11   0.126  -0.097  -0.125
    1UNL     O1   12   0.089  -0.177  -0.204
    1UNL    C11   13   0.214   0.011  -0.156
    1UNL    C12   14   0.278   0.051  -0.272
    1UNL    C13   15   0.366   0.158  -0.266
    1UNL    C14   16   0.374   0.238  -0.152
    1UNL    C15   17   0.296   0.213  -0.040
    1UNL    C16   18   0.226   0.092  -0.038
    1UNL     N2   19   0.142   0.048   0.064
    1UNL    C17   20   0.043   0.145   0.129
    1UNL     O2   21   0.015   0.094   0.259
    1UNL    C18   22   0.128   0.082   0.337
    1UNL    C19   23  -0.091   0.172   0.054
    1UNL    C20   24  -0.069  -0.081   0.050
    1UNL     H1   25  -0.197   0.239  -0.184
    1UNL     H2   26  -0.351   0.150  -0.198
    1UNL     H3   27  -0.250   0.146  -0.321
    1UNL     H4   28  -0.054   0.041  -0.191
    1UNL     H5   29  -0.193  -0.066  -0.193
    1UNL     H6   30  -0.359   0.085   0.040
    1UNL     H7   31  -0.274   0.015   0.171
    1UNL     H8   32  -0.354  -0.148  -0.099
    1UNL     H9   33  -0.455  -0.146   0.058
    1UNL    H10   34  -0.267  -0.259   0.181
    1UNL    H11   35  -0.283  -0.340   0.021
    1UNL    H12   36   0.006  -0.379  -0.008
    1UNL    H13   37  -0.032  -0.364   0.167
    1UNL    H14   38   0.218  -0.268   0.059
    1UNL    H15   39   0.155  -0.199   0.200
    1UNL    H16   40   0.266  -0.007  -0.363
    1UNL    H17   41   0.434   0.180  -0.350
    1UNL    H18   42   0.439   0.323  -0.153
    1UNL    H19   43   0.291   0.272   0.057
    1UNL    H20   44   0.091   0.236   0.150
    1UNL    H21   45   0.102   0.107   0.443
    1UNL    H22   46   0.171  -0.015   0.340
    1UNL    H23   47   0.203   0.147   0.303
    1UNL    H24   48  -0.057   0.231  -0.037
    1UNL    H25   49  -0.168   0.234   0.100
    1UNL    H26   50  -0.073  -0.065   0.161
   0.00000   0.00000   0.00000   0.00000   0.00000   0.00000   0.00000   0.00000   0.00000
Generated with MDTraj, t= 59.0
 50
    1UNL     C1    1  -0.243   0.143  -0.239
    1UNL     C2    2  -0.150   0.048  -0.167
    1UNL     C3    3  -0.159   0.037  -0.010
    1UNL     C4    4  -0.298   0.014   0.047
    1UNL     C5    5  -0.338  -0.134   0.044
    1UNL     C6    6  -0.239  -0.239   0.092
    1UNL     N1    7  -0.113  -0.221   0.024
    1UNL     C7    8  -0.004  -0.303   0.077
    1UNL     C8    9   0.123  -0.217   0.092
    1UNL     C9   10   0.082  -0.086   0.014
    1UNL    C10   11   0.115  -0.094  -0.135
    1UNL     O1   12   0.078  -0.165  -0.228
    1UNL    C11   13   0.220   0.005  -0.145
    1UNL    C12   14   0.288   0.034  -0.258
    1UNL    C13   15   0.367   0.154  -0.261
    1UNL    C14   16   0.372   0.243  -0.156
    1UNL    C15   17   0.290   0.220  -0.047
    1UNL    C16   18   0.217   0.095  -0.040
    1UNL     N2   19   0.133   0.044   0.068
    1UNL    C17   20   0.043   0.136   0.137
    1UNL     O2   21   0.008   0.101   0.272
    1UNL    C18   22   0.123   0.062   0.346
    1UNL    C19   23  -0.090   0.163   0.061
    1UNL    C20   24  -0.071  -0.084   0.042
    1UNL     H1   25  -0.262   0.230  -0.181
    1UNL     H2   26  -0.327   0.089  -0.275
    1UNL     H3   27  -0.206   0.170  -0.337
    1UNL     H4   28  -0.045   0.080  -0.192
    1UNL     H5   29  -0.162  -0.053  -0.213
    1UNL     H6   30  -0.368   0.072  -0.008
    1UNL     H7   31  -0.303   0.054   0.150
    1UNL     H8   32  -0.358  -0.151  -0.061
    1UNL     H9   33  -0.432  -0.149   0.114
    1UNL    H10   34  -0.227  -0.241   0.207
    1UNL    H11   35  -0.281  -0.336   0.067
    1UNL    H12   36   0.017  -0.380   0.000
    1UNL    H13   37  -0.040  -0.344   0.172
    1UNL    H14   38   0.215  -0.273   0.052
    1UNL    H15   39   0.149  -0.191   0.195
    1UNL    H16   40   0.289  -0.031  -0.343
    1UNL    H17   41   0.417   0.173  -0.353
    1UNL    H18   42   0.443   0.325  -0.150
    1UNL    H19   43   0.279   0.297   0.026
    1UNL    H20   44   0.096   0.229   0.145
    1UNL    H21   45   0.088   0.008   0.439
    1UNL    H22   46   0.187  -0.006   0.291
    1UNL    H23   47   0.177   0.150   0.362
    1UNL    H24   48  -0.076   0.238  -0.021
    1UNL    H25   49  -0.159   0.216   0.129
    1UNL    H26   50  -0.081  -0.078   0.157
   0.00000   0.00000   0.00000   0.00000   0.00000   0.00000   0.00000   0.00000   0.00000
Generated with MDTraj, t= 60.0
 50
    1UNL     C1    1  -0.251   0.108  -0.238
    1UNL     C2    2  -0.168   0.012  -0.155
    1UNL     C3    3  -0.154   0.035  -0.001
    1UNL     C4    4  -0.300   0.012   0.053
    1UNL     C5    5  -0.363  -0.122   0.018
    1UNL     C6    6  -0.264  -0.232   0.076
    1UNL     N1    7  -0.118  -0.219   0.031
    1UNL     C7    8  -0.010  -0.314   0.080
    1UNL     C8    9   0.122  -0.226   0.085
    1UNL     C9   10   0.084  -0.082   0.024
    1UNL    C10   11   0.120  -0.082  -0.120
    1UNL     O1   12   0.085  -0.162  -0.204
    1UNL    C11   13   0.210   0.031  -0.156
    1UNL    C12   14   0.280   0.062  -0.269
    1UNL    C13   15   0.365   0.169  -0.270
    1UNL    C14   16   0.380   0.239  -0.149
    1UNL    C15   17   0.313   0.207  -0.031
    1UNL    C16   18   0.231   0.099  -0.034
    1UNL     N2   19   0.140   0.052   0.063
    1UNL    C17   20   0.052   0.142   0.134
    1UNL     O2   21   0.012   0.087   0.262
    1UNL    C18   22   0.133   0.066   0.339
    1UNL    C19   23  -0.075   0.167   0.043
    1UNL    C20   24  -0.066  -0.082   0.055
    1UNL     H1   25  -0.223   0.212  -0.222
    1UNL     H2   26  -0.356   0.091  -0.227
    1UNL     H3   27  -0.247   0.081  -0.339
    1UNL     H4   28  -0.066   0.014  -0.198
    1UNL     H5   29  -0.206  -0.092  -0.167
    1UNL     H6   30  -0.360   0.099   0.022
    1UNL     H7   31  -0.300   0.025   0.162
    1UNL     H8   32  -0.362  -0.136  -0.088
    1UNL     H9   33  -0.477  -0.115   0.051
    1UNL    H10   34  -0.277  -0.219   0.186
    1UNL    H11   35  -0.297  -0.336   0.058
    1UNL    H12   36   0.000  -0.386  -0.002
    1UNL    H13   37  -0.021  -0.355   0.180
    1UNL    H14   38   0.204  -0.274   0.027
    1UNL    H15   39   0.156  -0.210   0.192
    1UNL    H16   40   0.254   0.015  -0.364
    1UNL    H17   41   0.430   0.184  -0.357
    1UNL    H18   42   0.442   0.327  -0.150
    1UNL    H19   43   0.322   0.257   0.061
    1UNL    H20   44   0.098   0.240   0.148
    1UNL    H21   45   0.118  -0.029   0.399
    1UNL    H22   46   0.220   0.058   0.271
    1UNL    H23   47   0.140   0.154   0.394
    1UNL    H24   48  -0.057   0.217  -0.054
    1UNL    H25   49  -0.138   0.239   0.099
    1UNL    H26   50  -0.073  -0.076   0.169
   0.00000   0.00000   0.00000   0.00000   0.00000   0.00000   0.00000   0.00000   0.00000
Generated with MDTraj, t= 61.0
 50
    1UNL     C1    1  -0.275   0.122  -0.226
    1UNL     C2    2  -0.158   0.038  -0.162
    1UNL     C3    3  -0.148   0.034  -0.005
    1UNL     C4    4  -0.291   0.023   0.059
    1UNL     C5    5  -0.338  -0.123   0.034
    1UNL     C6    6  -0.246  -0.237   0.090
    1UNL     N1    7  -0.116  -0.218   0.023
    1UNL     C7    8  -0.006  -0.319   0.061
    1UNL     C8    9   0.125  -0.232   0.081
    1UNL     C9   10   0.084  -0.093   0.022
    1UNL    C10   11   0.119  -0.093  -0.127
    1UNL     O1   12   0.073  -0.175  -0.203
    1UNL    C11   13   0.215   0.015  -0.151
    1UNL    C12   14   0.285   0.060  -0.264
    1UNL    C13   15   0.355   0.181  -0.262
    1UNL    C14   16   0.370   0.251  -0.142
    1UNL    C15   17   0.319   0.197  -0.029
    1UNL    C16   18   0.234   0.084  -0.030
    1UNL     N2   19   0.146   0.032   0.071
    1UNL    C17   20   0.052   0.134   0.120
    1UNL     O2   21   0.000   0.107   0.250
    1UNL    C18   22   0.108   0.086   0.343
    1UNL    C19   23  -0.073   0.164   0.031
    1UNL    C20   24  -0.065  -0.085   0.048
    1UNL     H1   25  -0.269   0.224  -0.185
    1UNL     H2   26  -0.370   0.077  -0.207
    1UNL     H3   27  -0.279   0.120  -0.329
    1UNL     H4   28  -0.060   0.079  -0.194
    1UNL     H5   29  -0.157  -0.068  -0.196
    1UNL     H6   30  -0.357   0.103   0.014
    1UNL     H7   31  -0.284   0.058   0.161
    1UNL     H8   32  -0.357  -0.124  -0.072
    1UNL     H9   33  -0.449  -0.139   0.069
    1UNL    H10   34  -0.233  -0.245   0.196
    1UNL    H11   35  -0.300  -0.334   0.065
    1UNL    H12   36   0.009  -0.390  -0.021
    1UNL    H13   37  -0.029  -0.364   0.155
    1UNL    H14   38   0.216  -0.263   0.026
    1UNL    H15   39   0.150  -0.222   0.194
    1UNL    H16   40   0.270  -0.007  -0.347
    1UNL    H17   41   0.391   0.229  -0.349
    1UNL    H18   42   0.441   0.333  -0.134
    1UNL    H19   43   0.340   0.240   0.074
    1UNL    H20   44   0.110   0.228   0.126
    1UNL    H21   45   0.054   0.122   0.436
    1UNL    H22   46   0.129  -0.025   0.348
    1UNL    H23   47   0.186   0.151   0.316
    1UNL    H24   48  -0.051   0.230  -0.053
    1UNL    H25   49  -0.148   0.223   0.092
    1UNL    H26   50  -0.076  -0.077   0.160
   0.00000   0.00000   0.00000   0.00000   0.00000   0.00000   0.00000   0.00000   0.00000
Generated with MDTraj, t= 62.0
 50
    1UNL     C1    1  -0.236   0.114  -0.252
    1UNL     C2    2  -0.161   0.022  -0.157
    1UNL     C3    3  -0.152   0.028  -0.004
    1UNL     C4    4  -0.294   0.016   0.070
    1UNL     C5    5  -0.356  -0.125   0.079
    1UNL     C6    6  -0.258  -0.243   0.083
    1UNL     N1    7  -0.124  -0.229   0.017
    1UNL     C7    8  -0.008  -0.310   0.074
    1UNL     C8    9   0.119  -0.225   0.077
    1UNL     C9   10   0.084  -0.088   0.012
    1UNL    C10   11   0.118  -0.081  -0.140
    1UNL     O1   12   0.070  -0.153  -0.224
    1UNL    C11   13   0.216   0.026  -0.152
    1UNL    C12   14   0.298   0.054  -0.262
    1UNL    C13   15   0.378   0.165  -0.258
    1UNL    C14   16   0.378   0.253  -0.148
    1UNL    C15   17   0.312   0.211  -0.036
    1UNL    C16   18   0.232   0.096  -0.037
    1UNL     N2   19   0.148   0.043   0.064
    1UNL    C17   20   0.047   0.141   0.133
    1UNL     O2   21  -0.003   0.092   0.257
    1UNL    C18   22   0.109   0.079   0.347
    1UNL    C19   23  -0.082   0.168   0.043
    1UNL    C20   24  -0.067  -0.092   0.044
    1UNL     H1   25  -0.193   0.213  -0.234
    1UNL     H2   26  -0.340   0.109  -0.227
    1UNL     H3   27  -0.235   0.080  -0.351
    1UNL     H4   28  -0.057   0.012  -0.189
    1UNL     H5   29  -0.208  -0.079  -0.169
    1UNL     H6   30  -0.361   0.095   0.017
    1UNL     H7   31  -0.284   0.053   0.168
    1UNL     H8   32  -0.417  -0.132  -0.009
    1UNL     H9   33  -0.442  -0.123   0.162
    1UNL    H10   34  -0.254  -0.278   0.181
    1UNL    H11   35  -0.302  -0.334   0.028
    1UNL    H12   36   0.010  -0.396   0.012
    1UNL    H13   37  -0.038  -0.344   0.170
    1UNL    H14   38   0.204  -0.274   0.027
    1UNL    H15   39   0.153  -0.212   0.187
    1UNL    H16   40   0.294  -0.010  -0.352
    1UNL    H17   41   0.424   0.196  -0.352
    1UNL    H18   42   0.433   0.347  -0.150
    1UNL    H19   43   0.329   0.252   0.056
    1UNL    H20   44   0.099   0.235   0.168
    1UNL    H21   45   0.085   0.167   0.413
    1UNL    H22   46   0.090  -0.022   0.398
    1UNL    H23   47   0.201   0.090   0.295
    1UNL    H24   48  -0.047   0.227  -0.041
    1UNL    H25   49  -0.159   0.234   0.094
    1UNL    H26   50  -0.076  -0.081   0.154
   0.00000   0.00000   0.00000   0.00000   0.00000   0.00000   0.00000   0.00000   0.00000
Generated with MDTraj, t= 63.0
 50
    1UNL     C1    1  -0.270   0.143  -0.211
    1UNL     C2    2  -0.180   0.027  -0.171
    1UNL     C3    3  -0.159   0.026  -0.014
    1UNL     C4    4  -0.297   0.010   0.056
    1UNL     C5    5  -0.348  -0.139   0.040
    1UNL     C6    6  -0.249  -0.232   0.108
    1UNL     N1    7  -0.116  -0.227   0.042
    1UNL     C7    8   0.005  -0.319   0.074
    1UNL     C8    9   0.123  -0.216   0.082
    1UNL     C9   10   0.081  -0.085   0.020
    1UNL    C10   11   0.118  -0.079  -0.130
    1UNL     O1   12   0.091  -0.156  -0.217
    1UNL    C11   13   0.210   0.031  -0.158
    1UNL    C12   14   0.293   0.055  -0.264
    1UNL    C13   15   0.386   0.158  -0.256
    1UNL    C14   16   0.398   0.237  -0.140
    1UNL    C15   17   0.312   0.212  -0.032
    1UNL    C16   18   0.232   0.099  -0.036
    1UNL     N2   19   0.142   0.045   0.063
    1UNL    C17   20   0.035   0.135   0.120
    1UNL     O2   21   0.000   0.109   0.251
    1UNL    C18   22   0.109   0.055   0.330
    1UNL    C19   23  -0.089   0.160   0.027
    1UNL    C20   24  -0.068  -0.091   0.045
    1UNL     H1   25  -0.213   0.229  -0.184
    1UNL     H2   26  -0.357   0.149  -0.151
    1UNL     H3   27  -0.312   0.143  -0.309
    1UNL     H4   28  -0.079   0.035  -0.214
    1UNL     H5   29  -0.220  -0.071  -0.208
    1UNL     H6   30  -0.376   0.079   0.009
    1UNL     H7   31  -0.286   0.039   0.156
    1UNL     H8   32  -0.360  -0.163  -0.064
    1UNL     H9   33  -0.459  -0.143   0.079
    1UNL    H10   34  -0.234  -0.206   0.208
    1UNL    H11   35  -0.286  -0.340   0.118
    1UNL    H12   36   0.009  -0.394  -0.004
    1UNL    H13   37  -0.022  -0.373   0.161
    1UNL    H14   38   0.218  -0.250   0.035
    1UNL    H15   39   0.155  -0.207   0.191
    1UNL    H16   40   0.281   0.005  -0.357
    1UNL    H17   41   0.448   0.185  -0.339
    1UNL    H18   42   0.462   0.322  -0.137
    1UNL    H19   43   0.342   0.253   0.066
    1UNL    H20   44   0.097   0.229   0.140
    1UNL    H21   45   0.194   0.118   0.300
    1UNL    H22   46   0.074   0.076   0.436
    1UNL    H23   47   0.129  -0.051   0.313
    1UNL    H24   48  -0.049   0.211  -0.059
    1UNL    H25   49  -0.163   0.227   0.079
    1UNL    H26   50  -0.077  -0.071   0.151
   0.00000   0.00000   0.00000   0.00000   0.00000   0.00000   0.00000   0.00000   0.00000
Generated with MDTraj, t= 64.0
 50
    1UNL     C1    1  -0.264   0.108  -0.224
    1UNL     C2    2  -0.164   0.013  -0.156
    1UNL     C3    3  -0.157   0.026  -0.003
    1UNL     C4    4  -0.292   0.011   0.063
    1UNL     C5    5  -0.355  -0.128   0.047
    1UNL     C6    6  -0.258  -0.243   0.080
    1UNL     N1    7  -0.118  -0.214   0.026
    1UNL     C7    8   0.008  -0.300   0.066
    1UNL     C8    9   0.134  -0.208   0.076
    1UNL     C9   10   0.080  -0.082   0.012
    1UNL    C10   11   0.115  -0.078  -0.138
    1UNL     O1   12   0.068  -0.148  -0.226
    1UNL    C11   13   0.220   0.016  -0.151
    1UNL    C12   14   0.291   0.051  -0.261
    1UNL    C13   15   0.381   0.157  -0.249
    1UNL    C14   16   0.390   0.234  -0.137
    1UNL    C15   17   0.314   0.203  -0.023
    1UNL    C16   18   0.231   0.093  -0.035
    1UNL     N2   19   0.137   0.049   0.059
    1UNL    C17   20   0.040   0.143   0.122
    1UNL     O2   21   0.007   0.107   0.257
    1UNL    C18   22   0.119   0.073   0.341
    1UNL    C19   23  -0.092   0.162   0.033
    1UNL    C20   24  -0.070  -0.085   0.055
    1UNL     H1   25  -0.269   0.195  -0.169
    1UNL     H2   26  -0.363   0.069  -0.215
    1UNL     H3   27  -0.262   0.124  -0.333
    1UNL     H4   28  -0.066   0.030  -0.202
    1UNL     H5   29  -0.185  -0.096  -0.175
    1UNL     H6   30  -0.362   0.090   0.019
    1UNL     H7   31  -0.278   0.033   0.166
    1UNL     H8   32  -0.394  -0.136  -0.052
    1UNL     H9   33  -0.447  -0.129   0.119
    1UNL    H10   34  -0.253  -0.260   0.184
    1UNL    H11   35  -0.290  -0.345   0.038
    1UNL    H12   36   0.014  -0.375  -0.011
    1UNL    H13   37  -0.013  -0.349   0.159
    1UNL    H14   38   0.229  -0.249   0.029
    1UNL    H15   39   0.162  -0.193   0.182
    1UNL    H16   40   0.275  -0.004  -0.353
    1UNL    H17   41   0.427   0.190  -0.341
    1UNL    H18   42   0.478   0.298  -0.126
    1UNL    H19   43   0.326   0.252   0.074
    1UNL    H20   44   0.102   0.239   0.128
    1UNL    H21   45   0.203   0.110   0.286
    1UNL    H22   46   0.110   0.123   0.441
    1UNL    H23   47   0.136  -0.036   0.352
    1UNL    H24   48  -0.076   0.225  -0.054
    1UNL    H25   49  -0.168   0.214   0.098
    1UNL    H26   50  -0.069  -0.080   0.161
   0.00000   0.00000   0.00000   0.00000   0.00000   0.00000   0.00000   0.00000   0.00000
Generated with MDTraj, t= 65.0
 50
    1UNL     C1    1  -0.276   0.087  -0.232
    1UNL     C2    2  -0.162   0.019  -0.161
    1UNL     C3    3  -0.156   0.034  -0.013
    1UNL     C4    4  -0.301   0.015   0.058
    1UNL     C5    5  -0.359  -0.128   0.040
    1UNL     C6    6  -0.255  -0.237   0.083
    1UNL     N1    7  -0.115  -0.215   0.020
    1UNL     C7    8   0.002  -0.299   0.063
    1UNL     C8    9   0.131  -0.212   0.067
    1UNL     C9   10   0.083  -0.078   0.010
    1UNL    C10   11   0.116  -0.087  -0.138
    1UNL     O1   12   0.065  -0.159  -0.224
    1UNL    C11   13   0.227   0.008  -0.145
    1UNL    C12   14   0.293   0.049  -0.264
    1UNL    C13   15   0.367   0.165  -0.255
    1UNL    C14   16   0.388   0.233  -0.134
    1UNL    C15   17   0.314   0.198  -0.021
    1UNL    C16   18   0.238   0.082  -0.022
    1UNL     N2   19   0.138   0.050   0.069
    1UNL    C17   20   0.047   0.148   0.135
    1UNL     O2   21   0.013   0.114   0.266
    1UNL    C18   22   0.123   0.084   0.343
    1UNL    C19   23  -0.087   0.170   0.049
    1UNL    C20   24  -0.067  -0.083   0.039
    1UNL     H1   25  -0.275   0.186  -0.199
    1UNL     H2   26  -0.368   0.051  -0.194
    1UNL     H3   27  -0.285   0.069  -0.342
    1UNL     H4   28  -0.069   0.051  -0.208
    1UNL     H5   29  -0.174  -0.088  -0.188
    1UNL     H6   30  -0.376   0.091   0.028
    1UNL     H7   31  -0.286   0.022   0.164
    1UNL     H8   32  -0.379  -0.155  -0.062
    1UNL     H9   33  -0.456  -0.134   0.103
    1UNL    H10   34  -0.241  -0.240   0.190
    1UNL    H11   35  -0.280  -0.339   0.051
    1UNL    H12   36   0.019  -0.378  -0.011
    1UNL    H13   37  -0.016  -0.339   0.161
    1UNL    H14   38   0.216  -0.265   0.007
    1UNL    H15   39   0.169  -0.195   0.167
    1UNL    H16   40   0.253   0.020  -0.362
    1UNL    H17   41   0.413   0.198  -0.347
    1UNL    H18   42   0.467   0.304  -0.127
    1UNL    H19   43   0.326   0.255   0.064
    1UNL    H20   44   0.105   0.249   0.139
    1UNL    H21   45   0.191   0.163   0.355
    1UNL    H22   46   0.092   0.046   0.440
    1UNL    H23   47   0.175   0.001   0.290
    1UNL    H24   48  -0.083   0.252  -0.023
    1UNL    H25   49  -0.156   0.209   0.128
    1UNL    H26   50  -0.072  -0.077   0.146
   0.00000   0.00000   0.00000   0.00000   0.00000   0.00000   0.00000   0.00000   0.00000
Generated with MDTraj, t= 66.0
 50
    1UNL     C1    1  -0.266   0.121  -0.214
    1UNL     C2    2  -0.168   0.016  -0.171
    1UNL     C3    3  -0.154   0.021  -0.016
    1UNL     C4    4  -0.295   0.016   0.049
    1UNL     C5    5  -0.345  -0.126   0.031
    1UNL     C6    6  -0.258  -0.232   0.097
    1UNL     N1    7  -0.121  -0.216   0.035
    1UNL     C7    8  -0.011  -0.311   0.076
    1UNL     C8    9   0.124  -0.225   0.078
    1UNL     C9   10   0.080  -0.083   0.020
    1UNL    C10   11   0.117  -0.081  -0.131
    1UNL     O1   12   0.078  -0.166  -0.206
    1UNL    C11   13   0.217   0.027  -0.152
    1UNL    C12   14   0.287   0.066  -0.266
    1UNL    C13   15   0.381   0.167  -0.263
    1UNL    C14   16   0.392   0.236  -0.139
    1UNL    C15   17   0.311   0.210  -0.034
    1UNL    C16   18   0.232   0.098  -0.032
    1UNL     N2   19   0.143   0.053   0.064
    1UNL    C17   20   0.041   0.137   0.129
    1UNL     O2   21   0.009   0.084   0.257
    1UNL    C18   22   0.122   0.084   0.341
    1UNL    C19   23  -0.087   0.152   0.031
    1UNL    C20   24  -0.071  -0.086   0.050
    1UNL     H1   25  -0.236   0.212  -0.170
    1UNL     H2   26  -0.368   0.111  -0.185
    1UNL     H3   27  -0.281   0.120  -0.323
    1UNL     H4   28  -0.071   0.028  -0.220
    1UNL     H5   29  -0.196  -0.084  -0.208
    1UNL     H6   30  -0.359   0.086  -0.001
    1UNL     H7   31  -0.291   0.041   0.155
    1UNL     H8   32  -0.339  -0.145  -0.075
    1UNL     H9   33  -0.449  -0.152   0.071
    1UNL    H10   34  -0.246  -0.218   0.206
    1UNL    H11   35  -0.289  -0.330   0.079
    1UNL    H12   36  -0.000  -0.388  -0.001
    1UNL    H13   37  -0.018  -0.354   0.176
    1UNL    H14   38   0.200  -0.268   0.001
    1UNL    H15   39   0.174  -0.218   0.174
    1UNL    H16   40   0.243   0.031  -0.357
    1UNL    H17   41   0.444   0.204  -0.341
    1UNL    H18   42   0.463   0.317  -0.134
    1UNL    H19   43   0.328   0.278   0.055
    1UNL    H20   44   0.088   0.244   0.137
    1UNL    H21   45   0.130   0.170   0.398
    1UNL    H22   46   0.134   0.001   0.410
    1UNL    H23   47   0.215   0.074   0.282
    1UNL    H24   48  -0.057   0.208  -0.059
    1UNL    H25   49  -0.163   0.215   0.079
    1UNL    H26   50  -0.075  -0.070   0.157
   0.00000   0.00000   0.00000   0.00000   0.00000   0.00000   0.00000   0.00000   0.00000
Generated with MDTraj, t= 67.0
 50
    1UNL     C1    1  -0.223   0.140  -0.228
    1UNL     C2    2  -0.151   0.025  -0.161
    1UNL     C3    3  -0.145   0.029  -0.006
    1UNL     C4    4  -0.290   0.010   0.059
    1UNL     C5    5  -0.353  -0.131   0.064
    1UNL     C6    6  -0.255  -0.251   0.086
    1UNL     N1    7  -0.120  -0.225   0.025
    1UNL     C7    8  -0.008  -0.307   0.076
    1UNL     C8    9   0.125  -0.224   0.089
    1UNL     C9   10   0.085  -0.089   0.015
    1UNL    C10   11   0.121  -0.086  -0.132
    1UNL     O1   12   0.070  -0.157  -0.215
    1UNL    C11   13   0.228   0.018  -0.149
    1UNL    C12   14   0.293   0.050  -0.271
    1UNL    C13   15   0.372   0.162  -0.266
    1UNL    C14   16   0.373   0.248  -0.157
    1UNL    C15   17   0.301   0.215  -0.046
    1UNL    C16   18   0.222   0.100  -0.036
    1UNL     N2   19   0.132   0.050   0.058
    1UNL    C17   20   0.036   0.141   0.131
    1UNL     O2   21  -0.006   0.099   0.260
    1UNL    C18   22   0.102   0.068   0.346
    1UNL    C19   23  -0.086   0.168   0.042
    1UNL    C20   24  -0.065  -0.092   0.040
    1UNL     H1   25  -0.171   0.228  -0.191
    1UNL     H2   26  -0.327   0.162  -0.211
    1UNL     H3   27  -0.213   0.129  -0.332
    1UNL     H4   28  -0.051   0.018  -0.207
    1UNL     H5   29  -0.188  -0.075  -0.190
    1UNL     H6   30  -0.357   0.076   0.014
    1UNL     H7   31  -0.269   0.047   0.162
    1UNL     H8   32  -0.411  -0.167  -0.022
    1UNL     H9   33  -0.421  -0.134   0.156
    1UNL    H10   34  -0.238  -0.269   0.195
    1UNL    H11   35  -0.283  -0.339   0.041
    1UNL    H12   36   0.013  -0.390   0.006
    1UNL    H13   37  -0.033  -0.352   0.173
    1UNL    H14   38   0.215  -0.274   0.043
    1UNL    H15   39   0.156  -0.211   0.195
    1UNL    H16   40   0.275  -0.013  -0.361
    1UNL    H17   41   0.414   0.197  -0.362
    1UNL    H18   42   0.444   0.331  -0.160
    1UNL    H19   43   0.309   0.270   0.042
    1UNL    H20   44   0.102   0.237   0.150
    1UNL    H21   45   0.177   0.139   0.356
    1UNL    H22   46   0.072   0.057   0.450
    1UNL    H23   47   0.151  -0.032   0.328
    1UNL    H24   48  -0.042   0.222  -0.045
    1UNL    H25   49  -0.160   0.232   0.089
    1UNL    H26   50  -0.063  -0.075   0.151
   0.00000   0.00000   0.00000   0.00000   0.00000   0.00000   0.00000   0.00000   0.00000
Generated with MDTraj, t= 68.0
 50
    1UNL     C1    1  -0.267   0.124  -0.228
    1UNL     C2    2  -0.151   0.042  -0.170
    1UNL     C3    3  -0.146   0.038  -0.016
    1UNL     C4    4  -0.289   0.018   0.053
    1UNL     C5    5  -0.346  -0.118   0.040
    1UNL     C6    6  -0.251  -0.236   0.090
    1UNL     N1    7  -0.115  -0.220   0.026
    1UNL     C7    8  -0.003  -0.313   0.070
    1UNL     C8    9   0.115  -0.219   0.094
    1UNL     C9   10   0.081  -0.089   0.019
    1UNL    C10   11   0.129  -0.102  -0.126
    1UNL     O1   12   0.091  -0.181  -0.211
    1UNL    C11   13   0.218   0.011  -0.154
    1UNL    C12   14   0.289   0.050  -0.264
    1UNL    C13   15   0.346   0.181  -0.267
    1UNL    C14   16   0.374   0.249  -0.150
    1UNL    C15   17   0.305   0.209  -0.039
    1UNL    C16   18   0.225   0.093  -0.039
    1UNL     N2   19   0.143   0.042   0.066
    1UNL    C17   20   0.048   0.141   0.132
    1UNL     O2   21   0.001   0.098   0.264
    1UNL    C18   22   0.111   0.065   0.339
    1UNL    C19   23  -0.082   0.165   0.044
    1UNL    C20   24  -0.070  -0.085   0.048
    1UNL     H1   25  -0.230   0.227  -0.212
    1UNL     H2   26  -0.368   0.127  -0.187
    1UNL     H3   27  -0.274   0.095  -0.326
    1UNL     H4   28  -0.051   0.067  -0.212
    1UNL     H5   29  -0.165  -0.061  -0.209
    1UNL     H6   30  -0.350   0.096   0.022
    1UNL     H7   31  -0.269   0.028   0.161
    1UNL     H8   32  -0.366  -0.137  -0.070
    1UNL     H9   33  -0.440  -0.142   0.097
    1UNL    H10   34  -0.238  -0.220   0.201
    1UNL    H11   35  -0.290  -0.330   0.076
    1UNL    H12   36   0.017  -0.386  -0.011
    1UNL    H13   37  -0.038  -0.374   0.158
    1UNL    H14   38   0.216  -0.260   0.074
    1UNL    H15   39   0.123  -0.202   0.207
    1UNL    H16   40   0.280  -0.006  -0.352
    1UNL    H17   41   0.380   0.215  -0.360
    1UNL    H18   42   0.441   0.331  -0.142
    1UNL    H19   43   0.342   0.247   0.059
    1UNL    H20   44   0.116   0.234   0.158
    1UNL    H21   45   0.171   0.147   0.369
    1UNL    H22   46   0.078   0.024   0.435
    1UNL    H23   47   0.174  -0.018   0.295
    1UNL    H24   48  -0.049   0.222  -0.047
    1UNL    H25   49  -0.150   0.224   0.100
    1UNL    H26   50  -0.078  -0.061   0.159
   0.00000   0.00000   0.00000   0.00000   0.00000   0.00000   0.00000   0.00000   0.00000
Generated with MDTraj, t= 69.0
 50
    1UNL     C1    1  -0.267   0.078  -0.237
    1UNL     C2    2  -0.147   0.021  -0.158
    1UNL     C3    3  -0.146   0.036  -0.001
    1UNL     C4    4  -0.295   0.029   0.050
    1UNL     C5    5  -0.349  -0.106   0.010
    1UNL     C6    6  -0.274  -0.228   0.074
    1UNL     N1    7  -0.122  -0.221   0.036
    1UNL     C7    8  -0.014  -0.314   0.079
    1UNL     C8    9   0.120  -0.226   0.078
    1UNL     C9   10   0.088  -0.082   0.024
    1UNL    C10   11   0.123  -0.086  -0.126
    1UNL     O1   12   0.084  -0.169  -0.207
    1UNL    C11   13   0.200   0.030  -0.159
    1UNL    C12   14   0.276   0.058  -0.270
    1UNL    C13   15   0.359   0.169  -0.267
    1UNL    C14   16   0.365   0.252  -0.153
    1UNL    C15   17   0.310   0.210  -0.030
    1UNL    C16   18   0.228   0.099  -0.037
    1UNL     N2   19   0.147   0.050   0.068
    1UNL    C17   20   0.050   0.135   0.138
    1UNL     O2   21   0.019   0.077   0.273
    1UNL    C18   22   0.136   0.079   0.351
    1UNL    C19   23  -0.074   0.168   0.042
    1UNL    C20   24  -0.067  -0.084   0.053
    1UNL     H1   25  -0.306   0.162  -0.179
    1UNL     H2   26  -0.354   0.024  -0.275
    1UNL     H3   27  -0.227   0.116  -0.325
    1UNL     H4   28  -0.051   0.047  -0.207
    1UNL     H5   29  -0.151  -0.089  -0.169
    1UNL     H6   30  -0.350   0.104   0.003
    1UNL     H7   31  -0.290   0.038   0.160
    1UNL     H8   32  -0.349  -0.127  -0.107
    1UNL     H9   33  -0.455  -0.104   0.041
    1UNL    H10   34  -0.288  -0.228   0.183
    1UNL    H11   35  -0.309  -0.320   0.039
    1UNL    H12   36  -0.025  -0.402   0.011
    1UNL    H13   37  -0.044  -0.341   0.184
    1UNL    H14   38   0.201  -0.277   0.028
    1UNL    H15   39   0.161  -0.214   0.185
    1UNL    H16   40   0.280  -0.006  -0.361
    1UNL    H17   41   0.412   0.206  -0.358
    1UNL    H18   42   0.429   0.342  -0.156
    1UNL    H19   43   0.340   0.253   0.064
    1UNL    H20   44   0.110   0.230   0.168
    1UNL    H21   45   0.147   0.172   0.406
    1UNL    H22   46   0.124  -0.000   0.428
    1UNL    H23   47   0.233   0.054   0.294
    1UNL    H24   48  -0.035   0.222  -0.048
    1UNL    H25   49  -0.145   0.229   0.094
    1UNL    H26   50  -0.068  -0.068   0.166
   0.00000   0.00000   0.00000   0.00000   0.00000   0.00000   0.00000   0.00000   0.00000
Generated with MDTraj, t= 70.0
 50
    1UNL     C1    1  -0.232   0.143  -0.244
    1UNL     C2    2  -0.149   0.038  -0.167
    1UNL     C3    3  -0.154   0.032  -0.008
    1UNL     C4    4  -0.295   0.015   0.049
    1UNL     C5    5  -0.349  -0.137   0.037
    1UNL     C6    6  -0.247  -0.247   0.085
    1UNL     N1    7  -0.115  -0.222   0.021
    1UNL     C7    8   0.006  -0.309   0.072
    1UNL     C8    9   0.127  -0.216   0.082
    1UNL     C9   10   0.076  -0.080   0.026
    1UNL    C10   11   0.111  -0.088  -0.127
    1UNL     O1   12   0.070  -0.165  -0.208
    1UNL    C11   13   0.211   0.010  -0.141
    1UNL    C12   14   0.285   0.045  -0.255
    1UNL    C13   15   0.349   0.164  -0.270
    1UNL    C14   16   0.360   0.248  -0.160
    1UNL    C15   17   0.315   0.199  -0.036
    1UNL    C16   18   0.231   0.083  -0.029
    1UNL     N2   19   0.136   0.043   0.070
    1UNL    C17   20   0.044   0.140   0.130
    1UNL     O2   21   0.009   0.109   0.268
    1UNL    C18   22   0.129   0.072   0.339
    1UNL    C19   23  -0.088   0.165   0.050
    1UNL    C20   24  -0.075  -0.087   0.054
    1UNL     H1   25  -0.198   0.242  -0.217
    1UNL     H2   26  -0.340   0.146  -0.234
    1UNL     H3   27  -0.221   0.132  -0.350
    1UNL     H4   28  -0.047   0.056  -0.206
    1UNL     H5   29  -0.183  -0.062  -0.198
    1UNL     H6   30  -0.354   0.084  -0.006
    1UNL     H7   31  -0.281   0.038   0.156
    1UNL     H8   32  -0.364  -0.149  -0.080
    1UNL     H9   33  -0.449  -0.146   0.080
    1UNL    H10   34  -0.249  -0.248   0.194
    1UNL    H11   35  -0.278  -0.347   0.063
    1UNL    H12   36   0.024  -0.373  -0.017
    1UNL    H13   37  -0.015  -0.370   0.166
    1UNL    H14   38   0.209  -0.256   0.024
    1UNL    H15   39   0.167  -0.206   0.189
    1UNL    H16   40   0.285  -0.022  -0.336
    1UNL    H17   41   0.370   0.194  -0.368
    1UNL    H18   42   0.404   0.343  -0.168
    1UNL    H19   43   0.324   0.247   0.058
    1UNL    H20   44   0.100   0.242   0.131
    1UNL    H21   45   0.214   0.134   0.307
    1UNL    H22   46   0.107   0.087   0.446
    1UNL    H23   47   0.158  -0.037   0.321
    1UNL    H24   48  -0.082   0.240  -0.033
    1UNL    H25   49  -0.153   0.209   0.125
    1UNL    H26   50  -0.080  -0.086   0.168
   0.00000   0.00000   0.00000   0.00000   0.00000   0.00000   0.00000   0.00000   0.00000
Generated with MDTraj, t= 71.0
 50
    1UNL     C1    1  -0.248   0.145  -0.223
    1UNL     C2    2  -0.153   0.042  -0.161
    1UNL     C3    3  -0.158   0.032  -0.007
    1UNL     C4    4  -0.296   0.013   0.064
    1UNL     C5    5  -0.347  -0.135   0.037
    1UNL     C6    6  -0.259  -0.244   0.082
    1UNL     N1    7  -0.122  -0.223   0.032
    1UNL     C7    8  -0.004  -0.307   0.081
    1UNL     C8    9   0.122  -0.214   0.082
    1UNL     C9   10   0.084  -0.084   0.007
    1UNL    C10   11   0.122  -0.091  -0.136
    1UNL     O1   12   0.098  -0.184  -0.204
    1UNL    C11   13   0.206   0.022  -0.159
    1UNL    C12   14   0.288   0.042  -0.266
    1UNL    C13   15   0.363   0.157  -0.266
    1UNL    C14   16   0.378   0.240  -0.149
    1UNL    C15   17   0.303   0.216  -0.036
    1UNL    C16   18   0.217   0.105  -0.042
    1UNL     N2   19   0.133   0.046   0.059
    1UNL    C17   20   0.049   0.135   0.133
    1UNL     O2   21   0.007   0.092   0.260
    1UNL    C18   22   0.123   0.078   0.346
    1UNL    C19   23  -0.085   0.166   0.052
    1UNL    C20   24  -0.069  -0.089   0.036
    1UNL     H1   25  -0.229   0.243  -0.193
    1UNL     H2   26  -0.350   0.129  -0.195
    1UNL     H3   27  -0.245   0.143  -0.334
    1UNL     H4   28  -0.045   0.061  -0.183
    1UNL     H5   29  -0.190  -0.050  -0.208
    1UNL     H6   30  -0.364   0.084   0.018
    1UNL     H7   31  -0.285   0.029   0.171
    1UNL     H8   32  -0.377  -0.153  -0.075
    1UNL     H9   33  -0.441  -0.134   0.093
    1UNL    H10   34  -0.259  -0.246   0.186
    1UNL    H11   35  -0.311  -0.337   0.058
    1UNL    H12   36   0.017  -0.391   0.011
    1UNL    H13   37  -0.026  -0.345   0.185
    1UNL    H14   38   0.213  -0.255   0.034
    1UNL    H15   39   0.148  -0.191   0.185
    1UNL    H16   40   0.282  -0.025  -0.353
    1UNL    H17   41   0.441   0.173  -0.344
    1UNL    H18   42   0.433   0.336  -0.154
    1UNL    H19   43   0.316   0.266   0.062
    1UNL    H20   44   0.101   0.235   0.140
    1UNL    H21   45   0.198   0.154   0.315
    1UNL    H22   46   0.074   0.095   0.443
    1UNL    H23   47   0.164  -0.024   0.339
    1UNL    H24   48  -0.070   0.232  -0.034
    1UNL    H25   49  -0.149   0.221   0.122
    1UNL    H26   50  -0.060  -0.081   0.146
   0.00000   0.00000   0.00000   0.00000   0.00000   0.00000   0.00000   0.00000   0.00000
Generated with MDTraj, t= 72.0
 50
    1UNL     C1    1  -0.279   0.088  -0.223
    1UNL     C2    2  -0.151   0.033  -0.167
    1UNL     C3    3  -0.151   0.026  -0.011
    1UNL     C4    4  -0.288   0.015   0.053
    1UNL     C5    5  -0.356  -0.119   0.025
    1UNL     C6    6  -0.267  -0.229   0.085
    1UNL     N1    7  -0.129  -0.215   0.030
    1UNL     C7    8  -0.014  -0.308   0.072
    1UNL     C8    9   0.110  -0.220   0.092
    1UNL     C9   10   0.080  -0.080   0.026
    1UNL    C10   11   0.118  -0.089  -0.121
    1UNL     O1   12   0.072  -0.157  -0.214
    1UNL    C11   13   0.227   0.015  -0.148
    1UNL    C12   14   0.294   0.050  -0.262
    1UNL    C13   15   0.376   0.163  -0.265
    1UNL    C14   16   0.373   0.255  -0.158
    1UNL    C15   17   0.305   0.214  -0.045
    1UNL    C16   18   0.235   0.097  -0.036
    1UNL     N2   19   0.147   0.050   0.067
    1UNL    C17   20   0.057   0.144   0.136
    1UNL     O2   21   0.021   0.081   0.256
    1UNL    C18   22   0.128   0.065   0.350
    1UNL    C19   23  -0.073   0.166   0.039
    1UNL    C20   24  -0.071  -0.083   0.053
    1UNL     H1   25  -0.323   0.169  -0.172
    1UNL     H2   26  -0.359   0.020  -0.231
    1UNL     H3   27  -0.274   0.128  -0.328
    1UNL     H4   28  -0.064   0.091  -0.202
    1UNL     H5   29  -0.140  -0.069  -0.202
    1UNL     H6   30  -0.342   0.110   0.036
    1UNL     H7   31  -0.254   0.019   0.156
    1UNL     H8   32  -0.354  -0.126  -0.087
    1UNL     H9   33  -0.463  -0.126   0.051
    1UNL    H10   34  -0.282  -0.225   0.186
    1UNL    H11   35  -0.302  -0.329   0.055
    1UNL    H12   36   0.006  -0.380  -0.009
    1UNL    H13   37  -0.036  -0.363   0.167
    1UNL    H14   38   0.202  -0.263   0.042
    1UNL    H15   39   0.138  -0.203   0.193
    1UNL    H16   40   0.278  -0.014  -0.347
    1UNL    H17   41   0.441   0.184  -0.346
    1UNL    H18   42   0.438   0.338  -0.148
    1UNL    H19   43   0.290   0.276   0.038
    1UNL    H20   44   0.103   0.242   0.161
    1UNL    H21   45   0.106   0.146   0.425
    1UNL    H22   46   0.106  -0.035   0.386
    1UNL    H23   47   0.223   0.079   0.302
    1UNL    H24   48  -0.036   0.210  -0.052
    1UNL    H25   49  -0.143   0.240   0.083
    1UNL    H26   50  -0.072  -0.067   0.159
   0.00000   0.00000   0.00000   0.00000   0.00000   0.00000   0.00000   0.00000   0.00000
Generated with MDTraj, t= 73.0
 50
    1UNL     C1    1  -0.241   0.110  -0.240
    1UNL     C2    2  -0.158   0.015  -0.159
    1UNL     C3    3  -0.156   0.037  -0.010
    1UNL     C4    4  -0.289   0.010   0.069
    1UNL     C5    5  -0.347  -0.131   0.043
    1UNL     C6    6  -0.253  -0.246   0.095
    1UNL     N1    7  -0.125  -0.215   0.031
    1UNL     C7    8  -0.007  -0.305   0.066
    1UNL     C8    9   0.117  -0.216   0.078
    1UNL     C9   10   0.082  -0.080   0.014
    1UNL    C10   11   0.120  -0.087  -0.131
    1UNL     O1   12   0.069  -0.165  -0.211
    1UNL    C11   13   0.214   0.022  -0.148
    1UNL    C12   14   0.266   0.065  -0.272
    1UNL    C13   15   0.364   0.169  -0.265
    1UNL    C14   16   0.391   0.230  -0.143
    1UNL    C15   17   0.320   0.199  -0.031
    1UNL    C16   18   0.233   0.092  -0.028
    1UNL     N2   19   0.143   0.047   0.071
    1UNL    C17   20   0.048   0.140   0.121
    1UNL     O2   21   0.013   0.131   0.263
    1UNL    C18   22   0.107   0.053   0.343
    1UNL    C19   23  -0.078   0.170   0.031
    1UNL    C20   24  -0.074  -0.083   0.044
    1UNL     H1   25  -0.186   0.199  -0.259
    1UNL     H2   26  -0.327   0.138  -0.185
    1UNL     H3   27  -0.273   0.070  -0.341
    1UNL     H4   28  -0.059   0.020  -0.206
    1UNL     H5   29  -0.202  -0.084  -0.172
    1UNL     H6   30  -0.358   0.092   0.042
    1UNL     H7   31  -0.259   0.024   0.171
    1UNL     H8   32  -0.372  -0.152  -0.061
    1UNL     H9   33  -0.448  -0.135   0.093
    1UNL    H10   34  -0.243  -0.251   0.197
    1UNL    H11   35  -0.290  -0.345   0.063
    1UNL    H12   36  -0.001  -0.383  -0.010
    1UNL    H13   37  -0.029  -0.356   0.163
    1UNL    H14   38   0.206  -0.254   0.021
    1UNL    H15   39   0.157  -0.201   0.176
    1UNL    H16   40   0.234   0.015  -0.359
    1UNL    H17   41   0.412   0.203  -0.356
    1UNL    H18   42   0.475   0.298  -0.128
    1UNL    H19   43   0.329   0.262   0.061
    1UNL    H20   44   0.108   0.232   0.127
    1UNL    H21   45   0.070   0.056   0.449
    1UNL    H22   46   0.104  -0.044   0.297
    1UNL    H23   47   0.203   0.097   0.333
    1UNL    H24   48  -0.047   0.224  -0.056
    1UNL    H25   49  -0.152   0.232   0.088
    1UNL    H26   50  -0.078  -0.070   0.149
   0.00000   0.00000   0.00000   0.00000   0.00000   0.00000   0.00000   0.00000   0.00000
Generated with MDTraj, t= 74.0
 50
    1UNL     C1    1  -0.259   0.142  -0.232
    1UNL     C2    2  -0.171   0.031  -0.165
    1UNL     C3    3  -0.150   0.035  -0.015
    1UNL     C4    4  -0.285   0.007   0.066
    1UNL     C5    5  -0.342  -0.131   0.062
    1UNL     C6    6  -0.242  -0.242   0.108
    1UNL     N1    7  -0.120  -0.220   0.028
    1UNL     C7    8  -0.005  -0.299   0.085
    1UNL     C8    9   0.123  -0.216   0.071
    1UNL     C9   10   0.078  -0.083   0.010
    1UNL    C10   11   0.116  -0.091  -0.139
    1UNL     O1   12   0.071  -0.163  -0.224
    1UNL    C11   13   0.223   0.008  -0.152
    1UNL    C12   14   0.279   0.055  -0.265
    1UNL    C13   15   0.365   0.164  -0.254
    1UNL    C14   16   0.393   0.230  -0.130
    1UNL    C15   17   0.313   0.198  -0.022
    1UNL    C16   18   0.237   0.084  -0.031
    1UNL     N2   19   0.142   0.047   0.062
    1UNL    C17   20   0.045   0.140   0.123
    1UNL     O2   21  -0.011   0.091   0.250
    1UNL    C18   22   0.105   0.087   0.338
    1UNL    C19   23  -0.071   0.162   0.019
    1UNL    C20   24  -0.067  -0.088   0.040
    1UNL     H1   25  -0.231   0.238  -0.192
    1UNL     H2   26  -0.364   0.124  -0.216
    1UNL     H3   27  -0.243   0.148  -0.340
    1UNL     H4   28  -0.069   0.039  -0.207
    1UNL     H5   29  -0.204  -0.068  -0.198
    1UNL     H6   30  -0.358   0.085   0.033
    1UNL     H7   31  -0.262   0.031   0.166
    1UNL     H8   32  -0.388  -0.150  -0.031
    1UNL     H9   33  -0.433  -0.141   0.131
    1UNL    H10   34  -0.218  -0.211   0.205
    1UNL    H11   35  -0.263  -0.350   0.114
    1UNL    H12   36  -0.006  -0.390   0.024
    1UNL    H13   37  -0.024  -0.327   0.190
    1UNL    H14   38   0.193  -0.268   0.003
    1UNL    H15   39   0.181  -0.191   0.160
    1UNL    H16   40   0.248   0.010  -0.363
    1UNL    H17   41   0.413   0.203  -0.346
    1UNL    H18   42   0.432   0.330  -0.134
    1UNL    H19   43   0.314   0.252   0.070
    1UNL    H20   44   0.092   0.231   0.151
    1UNL    H21   45   0.082   0.058   0.445
    1UNL    H22   46   0.176   0.023   0.290
    1UNL    H23   47   0.149   0.182   0.337
    1UNL    H24   48  -0.029   0.197  -0.073
    1UNL    H25   49  -0.148   0.233   0.061
    1UNL    H26   50  -0.065  -0.070   0.145
   0.00000   0.00000   0.00000   0.00000   0.00000   0.00000   0.00000   0.00000   0.00000
Generated with MDTraj, t= 75.0
 50
    1UNL     C1    1  -0.277   0.085  -0.215
    1UNL     C2    2  -0.166   0.009  -0.154
    1UNL     C3    3  -0.154   0.038  -0.002
    1UNL     C4    4  -0.299   0.018   0.075
    1UNL     C5    5  -0.353  -0.119   0.044
    1UNL     C6    6  -0.262  -0.230   0.097
    1UNL     N1    7  -0.127  -0.210   0.034
    1UNL     C7    8  -0.018  -0.306   0.060
    1UNL     C8    9   0.115  -0.228   0.060
    1UNL     C9   10   0.078  -0.085   0.013
    1UNL    C10   11   0.120  -0.078  -0.136
    1UNL     O1   12   0.082  -0.144  -0.228
    1UNL    C11   13   0.227   0.020  -0.151
    1UNL    C12   14   0.303   0.048  -0.263
    1UNL    C13   15   0.392   0.153  -0.258
    1UNL    C14   16   0.391   0.242  -0.149
    1UNL    C15   17   0.312   0.210  -0.039
    1UNL    C16   18   0.232   0.096  -0.037
    1UNL     N2   19   0.145   0.043   0.065
    1UNL    C17   20   0.046   0.133   0.130
    1UNL     O2   21   0.012   0.081   0.256
    1UNL    C18   22   0.106   0.097   0.355
    1UNL    C19   23  -0.072   0.169   0.026
    1UNL    C20   24  -0.072  -0.078   0.051
    1UNL     H1   25  -0.259   0.191  -0.188
    1UNL     H2   26  -0.379   0.057  -0.182
    1UNL     H3   27  -0.278   0.089  -0.320
    1UNL     H4   28  -0.071   0.030  -0.207
    1UNL     H5   29  -0.159  -0.099  -0.166
    1UNL     H6   30  -0.377   0.097   0.059
    1UNL     H7   31  -0.272   0.025   0.177
    1UNL     H8   32  -0.359  -0.140  -0.058
    1UNL     H9   33  -0.464  -0.128   0.072
    1UNL    H10   34  -0.242  -0.231   0.201
    1UNL    H11   35  -0.295  -0.330   0.070
    1UNL    H12   36  -0.023  -0.373  -0.025
    1UNL    H13   37  -0.039  -0.365   0.150
    1UNL    H14   38   0.175  -0.270  -0.017
    1UNL    H15   39   0.173  -0.239   0.155
    1UNL    H16   40   0.319  -0.024  -0.336
    1UNL    H17   41   0.443   0.175  -0.347
    1UNL    H18   42   0.452   0.330  -0.152
    1UNL    H19   43   0.306   0.272   0.049
    1UNL    H20   44   0.104   0.216   0.159
    1UNL    H21   45   0.075   0.023   0.436
    1UNL    H22   46   0.204   0.078   0.317
    1UNL    H23   47   0.109   0.195   0.392
    1UNL    H24   48  -0.025   0.199  -0.067
    1UNL    H25   49  -0.142   0.250   0.061
    1UNL    H26   50  -0.069  -0.062   0.156
   0.00000   0.00000   0.00000   0.00000   0.00000   0.00000   0.00000   0.00000   0.00000
Generated with MDTraj, t= 76.0
 50
    1UNL     C1    1  -0.289   0.107  -0.225
    1UNL     C2    2  -0.173   0.035  -0.162
    1UNL     C3    3  -0.151   0.034  -0.010
    1UNL     C4    4  -0.290   0.007   0.055
    1UNL     C5    5  -0.344  -0.145   0.046
    1UNL     C6    6  -0.245  -0.251   0.081
    1UNL     N1    7  -0.121  -0.217   0.014
    1UNL     C7    8  -0.002  -0.302   0.053
    1UNL     C8    9   0.117  -0.206   0.090
    1UNL     C9   10   0.076  -0.077   0.019
    1UNL    C10   11   0.114  -0.086  -0.131
    1UNL     O1   12   0.063  -0.162  -0.213
    1UNL    C11   13   0.203   0.024  -0.151
    1UNL    C12   14   0.281   0.051  -0.262
    1UNL    C13   15   0.371   0.157  -0.252
    1UNL    C14   16   0.395   0.221  -0.131
    1UNL    C15   17   0.331   0.187  -0.017
    1UNL    C16   18   0.231   0.088  -0.031
    1UNL     N2   19   0.142   0.047   0.067
    1UNL    C17   20   0.050   0.159   0.127
    1UNL     O2   21   0.021   0.127   0.259
    1UNL    C18   22   0.131   0.084   0.328
    1UNL    C19   23  -0.078   0.165   0.037
    1UNL    C20   24  -0.075  -0.085   0.044
    1UNL     H1   25  -0.272   0.214  -0.197
    1UNL     H2   26  -0.387   0.064  -0.188
    1UNL     H3   27  -0.279   0.108  -0.328
    1UNL     H4   28  -0.076   0.049  -0.213
    1UNL     H5   29  -0.183  -0.071  -0.190
    1UNL     H6   30  -0.358   0.072  -0.007
    1UNL     H7   31  -0.301   0.037   0.155
    1UNL     H8   32  -0.385  -0.157  -0.048
    1UNL     H9   33  -0.435  -0.164   0.113
    1UNL    H10   34  -0.227  -0.265   0.187
    1UNL    H11   35  -0.271  -0.343   0.038
    1UNL    H12   36   0.026  -0.369  -0.026
    1UNL    H13   37  -0.031  -0.362   0.138
    1UNL    H14   38   0.215  -0.237   0.071
    1UNL    H15   39   0.102  -0.203   0.203
    1UNL    H16   40   0.271  -0.017  -0.350
    1UNL    H17   41   0.443   0.176  -0.337
    1UNL    H18   42   0.477   0.294  -0.123
    1UNL    H19   43   0.348   0.237   0.080
    1UNL    H20   44   0.103   0.250   0.125
    1UNL    H21   45   0.119   0.086   0.441
    1UNL    H22   46   0.157  -0.018   0.301
    1UNL    H23   47   0.217   0.135   0.297
    1UNL    H24   48  -0.048   0.213  -0.057
    1UNL    H25   49  -0.159   0.226   0.082
    1UNL    H26   50  -0.087  -0.081   0.154
   0.00000   0.00000   0.00000   0.00000   0.00000   0.00000   0.00000   0.00000   0.00000
Generated with MDTraj, t= 77.0
 50
    1UNL     C1    1  -0.245   0.126  -0.222
    1UNL     C2    2  -0.152   0.028  -0.151
    1UNL     C3    3  -0.159   0.029  -0.000
    1UNL     C4    4  -0.308   0.004   0.054
    1UNL     C5    5  -0.357  -0.149   0.036
    1UNL     C6    6  -0.259  -0.259   0.085
    1UNL     N1    7  -0.117  -0.226   0.039
    1UNL     C7    8  -0.010  -0.306   0.089
    1UNL     C8    9   0.118  -0.219   0.069
    1UNL     C9   10   0.071  -0.080   0.008
    1UNL    C10   11   0.108  -0.080  -0.145
    1UNL     O1   12   0.061  -0.146  -0.235
    1UNL    C11   13   0.207   0.025  -0.160
    1UNL    C12   14   0.303   0.047  -0.258
    1UNL    C13   15   0.386   0.156  -0.258
    1UNL    C14   16   0.394   0.234  -0.141
    1UNL    C15   17   0.318   0.194  -0.030
    1UNL    C16   18   0.224   0.093  -0.036
    1UNL     N2   19   0.133   0.043   0.056
    1UNL    C17   20   0.044   0.144   0.122
    1UNL     O2   21   0.019   0.111   0.257
    1UNL    C18   22   0.130   0.102   0.344
    1UNL    C19   23  -0.089   0.167   0.050
    1UNL    C20   24  -0.071  -0.082   0.056
    1UNL     H1   25  -0.195   0.223  -0.199
    1UNL     H2   26  -0.348   0.119  -0.179
    1UNL     H3   27  -0.237   0.126  -0.329
    1UNL     H4   28  -0.049   0.050  -0.180
    1UNL     H5   29  -0.162  -0.076  -0.188
    1UNL     H6   30  -0.393   0.072   0.022
    1UNL     H7   31  -0.297   0.012   0.159
    1UNL     H8   32  -0.379  -0.176  -0.062
    1UNL     H9   33  -0.458  -0.152   0.091
    1UNL    H10   34  -0.255  -0.261   0.195
    1UNL    H11   35  -0.276  -0.354   0.048
    1UNL    H12   36  -0.002  -0.395   0.029
    1UNL    H13   37  -0.025  -0.331   0.192
    1UNL    H14   38   0.192  -0.263   0.005
    1UNL    H15   39   0.163  -0.206   0.170
    1UNL    H16   40   0.306  -0.016  -0.344
    1UNL    H17   41   0.456   0.168  -0.333
    1UNL    H18   42   0.463   0.313  -0.138
    1UNL    H19   43   0.328   0.247   0.059
    1UNL    H20   44   0.096   0.233   0.119
    1UNL    H21   45   0.114   0.142   0.450
    1UNL    H22   46   0.166   0.000   0.365
    1UNL    H23   47   0.218   0.145   0.305
    1UNL    H24   48  -0.083   0.235  -0.037
    1UNL    H25   49  -0.154   0.215   0.123
    1UNL    H26   50  -0.069  -0.064   0.167
   0.00000   0.00000   0.00000   0.00000   0.00000   0.00000   0.00000   0.00000   0.00000
Generated with MDTraj, t= 78.0
 50
    1UNL     C1    1  -0.263   0.137  -0.212
    1UNL     C2    2  -0.156   0.037  -0.163
    1UNL     C3    3  -0.160   0.031  -0.010
    1UNL     C4    4  -0.307   0.009   0.045
    1UNL     C5    5  -0.355  -0.138   0.034
    1UNL     C6    6  -0.258  -0.239   0.097
    1UNL     N1    7  -0.121  -0.218   0.032
    1UNL     C7    8  -0.010  -0.310   0.073
    1UNL     C8    9   0.119  -0.223   0.083
    1UNL     C9   10   0.079  -0.081   0.019
    1UNL    C10   11   0.116  -0.086  -0.127
    1UNL     O1   12   0.081  -0.166  -0.209
    1UNL    C11   13   0.218   0.014  -0.152
    1UNL    C12   14   0.299   0.041  -0.261
    1UNL    C13   15   0.384   0.150  -0.256
    1UNL    C14   16   0.375   0.244  -0.154
    1UNL    C15   17   0.312   0.209  -0.035
    1UNL    C16   18   0.226   0.099  -0.042
    1UNL     N2   19   0.144   0.054   0.064
    1UNL    C17   20   0.046   0.144   0.127
    1UNL     O2   21   0.015   0.083   0.256
    1UNL    C18   22   0.129   0.084   0.337
    1UNL    C19   23  -0.084   0.164   0.036
    1UNL    C20   24  -0.072  -0.083   0.050
    1UNL     H1   25  -0.246   0.241  -0.176
    1UNL     H2   26  -0.363   0.101  -0.189
    1UNL     H3   27  -0.265   0.160  -0.320
    1UNL     H4   28  -0.053   0.060  -0.194
    1UNL     H5   29  -0.177  -0.068  -0.196
    1UNL     H6   30  -0.379   0.071  -0.014
    1UNL     H7   31  -0.320   0.035   0.147
    1UNL     H8   32  -0.367  -0.155  -0.073
    1UNL     H9   33  -0.454  -0.162   0.084
    1UNL    H10   34  -0.235  -0.211   0.203
    1UNL    H11   35  -0.294  -0.335   0.094
    1UNL    H12   36   0.002  -0.372  -0.015
    1UNL    H13   37  -0.029  -0.372   0.158
    1UNL    H14   38   0.205  -0.266   0.033
    1UNL    H15   39   0.148  -0.206   0.185
    1UNL    H16   40   0.301  -0.028  -0.343
    1UNL    H17   41   0.441   0.171  -0.350
    1UNL    H18   42   0.428   0.341  -0.167
    1UNL    H19   43   0.312   0.279   0.052
    1UNL    H20   44   0.097   0.233   0.139
    1UNL    H21   45   0.140  -0.010   0.400
    1UNL    H22   46   0.228   0.088   0.287
    1UNL    H23   47   0.132   0.169   0.402
    1UNL    H24   48  -0.060   0.224  -0.056
    1UNL    H25   49  -0.157   0.222   0.090
    1UNL    H26   50  -0.086  -0.064   0.162
   0.00000   0.00000   0.00000   0.00000   0.00000   0.00000   0.00000   0.00000   0.00000
Generated with MDTraj, t= 79.0
 50
    1UNL     C1    1  -0.254   0.117  -0.224
    1UNL     C2    2  -0.158   0.024  -0.156
    1UNL     C3    3  -0.145   0.038  -0.002
    1UNL     C4    4  -0.283   0.021   0.063
    1UNL     C5    5  -0.351  -0.118   0.039
    1UNL     C6    6  -0.258  -0.238   0.066
    1UNL     N1    7  -0.118  -0.212   0.009
    1UNL     C7    8  -0.008  -0.304   0.066
    1UNL     C8    9   0.126  -0.219   0.085
    1UNL     C9   10   0.085  -0.082   0.026
    1UNL    C10   11   0.122  -0.098  -0.120
    1UNL     O1   12   0.098  -0.188  -0.197
    1UNL    C11   13   0.206   0.019  -0.150
    1UNL    C12   14   0.274   0.045  -0.270
    1UNL    C13   15   0.352   0.160  -0.267
    1UNL    C14   16   0.376   0.236  -0.155
    1UNL    C15   17   0.302   0.213  -0.040
    1UNL    C16   18   0.219   0.099  -0.035
    1UNL     N2   19   0.148   0.045   0.076
    1UNL    C17   20   0.053   0.146   0.135
    1UNL     O2   21   0.008   0.122   0.264
    1UNL    C18   22   0.103   0.054   0.337
    1UNL    C19   23  -0.070   0.173   0.040
    1UNL    C20   24  -0.068  -0.083   0.047
    1UNL     H1   25  -0.217   0.220  -0.238
    1UNL     H2   26  -0.355   0.114  -0.184
    1UNL     H3   27  -0.272   0.091  -0.333
    1UNL     H4   28  -0.060   0.036  -0.204
    1UNL     H5   29  -0.204  -0.078  -0.173
    1UNL     H6   30  -0.351   0.087   0.003
    1UNL     H7   31  -0.281   0.039   0.169
    1UNL     H8   32  -0.395  -0.136  -0.066
    1UNL     H9   33  -0.432  -0.120   0.115
    1UNL    H10   34  -0.253  -0.257   0.176
    1UNL    H11   35  -0.282  -0.321   0.010
    1UNL    H12   36   0.006  -0.396   0.010
    1UNL    H13   37  -0.045  -0.333   0.162
    1UNL    H14   38   0.201  -0.265   0.017
    1UNL    H15   39   0.174  -0.213   0.175
    1UNL    H16   40   0.253  -0.021  -0.357
    1UNL    H17   41   0.410   0.179  -0.354
    1UNL    H18   42   0.426   0.329  -0.162
    1UNL    H19   43   0.326   0.272   0.044
    1UNL    H20   44   0.111   0.231   0.149
    1UNL    H21   45   0.148  -0.024   0.275
    1UNL    H22   46   0.186   0.108   0.388
    1UNL    H23   47   0.046   0.010   0.419
    1UNL    H24   48  -0.039   0.226  -0.054
    1UNL    H25   49  -0.140   0.238   0.089
    1UNL    H26   50  -0.089  -0.082   0.160
   0.00000   0.00000   0.00000   0.00000   0.00000   0.00000   0.00000   0.00000   0.00000
Generated with MDTraj, t= 80.0
 50
    1UNL     C1    1  -0.233   0.119  -0.233
    1UNL     C2    2  -0.141   0.023  -0.165
    1UNL     C3    3  -0.148   0.033  -0.015
    1UNL     C4    4  -0.290   0.030   0.041
    1UNL     C5    5  -0.349  -0.115   0.036
    1UNL     C6    6  -0.254  -0.222   0.099
    1UNL     N1    7  -0.119  -0.216   0.028
    1UNL     C7    8  -0.006  -0.304   0.086
    1UNL     C8    9   0.116  -0.217   0.093
    1UNL     C9   10   0.082  -0.092   0.014
    1UNL    C10   11   0.121  -0.095  -0.127
    1UNL     O1   12   0.068  -0.160  -0.214
    1UNL    C11   13   0.230   0.004  -0.147
    1UNL    C12   14   0.268   0.058  -0.270
    1UNL    C13   15   0.335   0.178  -0.275
    1UNL    C14   16   0.355   0.248  -0.155
    1UNL    C15   17   0.303   0.204  -0.037
    1UNL    C16   18   0.246   0.081  -0.027
    1UNL     N2   19   0.152   0.033   0.065
    1UNL    C17   20   0.052   0.127   0.130
    1UNL     O2   21   0.007   0.068   0.256
    1UNL    C18   22   0.104   0.083   0.363
    1UNL    C19   23  -0.073   0.168   0.036
    1UNL    C20   24  -0.067  -0.083   0.051
    1UNL     H1   25  -0.226   0.221  -0.197
    1UNL     H2   26  -0.333   0.079  -0.244
    1UNL     H3   27  -0.198   0.133  -0.343
    1UNL     H4   28  -0.039   0.052  -0.195
    1UNL     H5   29  -0.170  -0.082  -0.197
    1UNL     H6   30  -0.354   0.098  -0.025
    1UNL     H7   31  -0.270   0.045   0.147
    1UNL     H8   32  -0.368  -0.148  -0.077
    1UNL     H9   33  -0.443  -0.127   0.090
    1UNL    H10   34  -0.236  -0.199   0.207
    1UNL    H11   35  -0.290  -0.318   0.082
    1UNL    H12   36   0.002  -0.389   0.019
    1UNL    H13   37  -0.026  -0.343   0.184
    1UNL    H14   38   0.200  -0.270   0.047
    1UNL    H15   39   0.147  -0.190   0.189
    1UNL    H16   40   0.241   0.006  -0.354
    1UNL    H17   41   0.375   0.219  -0.368
    1UNL    H18   42   0.413   0.341  -0.159
    1UNL    H19   43   0.311   0.271   0.047
    1UNL    H20   44   0.101   0.213   0.160
    1UNL    H21   45   0.202   0.047   0.333
    1UNL    H22   46   0.123   0.185   0.403
    1UNL    H23   47   0.063   0.025   0.445
    1UNL    H24   48  -0.035   0.220  -0.056
    1UNL    H25   49  -0.137   0.242   0.081
    1UNL    H26   50  -0.065  -0.072   0.164
   0.00000   0.00000   0.00000   0.00000   0.00000   0.00000   0.00000   0.00000   0.00000
Generated with MDTraj, t= 81.0
 50
    1UNL     C1    1  -0.226   0.134  -0.222
    1UNL     C2    2  -0.141   0.022  -0.162
    1UNL     C3    3  -0.148   0.027  -0.008
    1UNL     C4    4  -0.296   0.025   0.049
    1UNL     C5    5  -0.348  -0.120   0.019
    1UNL     C6    6  -0.266  -0.227   0.092
    1UNL     N1    7  -0.125  -0.225   0.038
    1UNL     C7    8  -0.014  -0.314   0.087
    1UNL     C8    9   0.122  -0.232   0.078
    1UNL     C9   10   0.083  -0.096   0.013
    1UNL    C10   11   0.125  -0.100  -0.132
    1UNL     O1   12   0.089  -0.183  -0.213
    1UNL    C11   13   0.210   0.016  -0.157
    1UNL    C12   14   0.260   0.070  -0.277
    1UNL    C13   15   0.355   0.171  -0.260
    1UNL    C14   16   0.366   0.246  -0.143
    1UNL    C15   17   0.294   0.209  -0.036
    1UNL    C16   18   0.223   0.089  -0.038
    1UNL     N2   19   0.137   0.045   0.064
    1UNL    C17   20   0.046   0.139   0.131
    1UNL     O2   21   0.014   0.091   0.266
    1UNL    C18   22   0.130   0.095   0.347
    1UNL    C19   23  -0.076   0.160   0.040
    1UNL    C20   24  -0.067  -0.089   0.052
    1UNL     H1   25  -0.200   0.233  -0.188
    1UNL     H2   26  -0.334   0.111  -0.219
    1UNL     H3   27  -0.208   0.148  -0.336
    1UNL     H4   28  -0.033   0.024  -0.188
    1UNL     H5   29  -0.176  -0.080  -0.194
    1UNL     H6   30  -0.361   0.101  -0.006
    1UNL     H7   31  -0.275   0.023   0.157
    1UNL     H8   32  -0.350  -0.154  -0.095
    1UNL     H9   33  -0.449  -0.128   0.059
    1UNL    H10   34  -0.245  -0.183   0.192
    1UNL    H11   35  -0.318  -0.320   0.096
    1UNL    H12   36  -0.007  -0.411   0.036
    1UNL    H13   37  -0.042  -0.333   0.189
    1UNL    H14   38   0.192  -0.286   0.018
    1UNL    H15   39   0.169  -0.209   0.173
    1UNL    H16   40   0.237   0.018  -0.375
    1UNL    H17   41   0.409   0.213  -0.344
    1UNL    H18   42   0.444   0.318  -0.133
    1UNL    H19   43   0.293   0.270   0.055
    1UNL    H20   44   0.097   0.229   0.144
    1UNL    H21   45   0.205   0.024   0.318
    1UNL    H22   46   0.178   0.195   0.336
    1UNL    H23   47   0.093   0.081   0.449
    1UNL    H24   48  -0.053   0.228  -0.045
    1UNL    H25   49  -0.139   0.219   0.105
    1UNL    H26   50  -0.059  -0.074   0.162
   0.00000   0.00000   0.00000   0.00000   0.00000   0.00000   0.00000   0.00000   0.00000
Generated with MDTraj, t= 82.0
 50
    1UNL     C1    1  -0.264   0.134  -0.229
    1UNL     C2    2  -0.156   0.039  -0.165
    1UNL     C3    3  -0.155   0.037  -0.007
    1UNL     C4    4  -0.297   0.015   0.056
    1UNL     C5    5  -0.355  -0.133   0.033
    1UNL     C6    6  -0.252  -0.252   0.059
    1UNL     N1    7  -0.114  -0.220   0.006
    1UNL     C7    8  -0.004  -0.303   0.063
    1UNL     C8    9   0.120  -0.213   0.098
    1UNL     C9   10   0.080  -0.080   0.027
    1UNL    C10   11   0.125  -0.099  -0.113
    1UNL     O1   12   0.076  -0.173  -0.195
    1UNL    C11   13   0.225   0.005  -0.136
    1UNL    C12   14   0.288   0.034  -0.256
    1UNL    C13   15   0.354   0.153  -0.270
    1UNL    C14   16   0.381   0.231  -0.159
    1UNL    C15   17   0.304   0.217  -0.047
    1UNL    C16   18   0.225   0.101  -0.033
    1UNL     N2   19   0.139   0.054   0.065
    1UNL    C17   20   0.048   0.150   0.130
    1UNL     O2   21   0.022   0.114   0.273
    1UNL    C18   22   0.138   0.067   0.334
    1UNL    C19   23  -0.091   0.164   0.062
    1UNL    C20   24  -0.076  -0.082   0.040
    1UNL     H1   25  -0.227   0.238  -0.217
    1UNL     H2   26  -0.365   0.108  -0.187
    1UNL     H3   27  -0.271   0.117  -0.338
    1UNL     H4   28  -0.051   0.052  -0.203
    1UNL     H5   29  -0.178  -0.065  -0.203
    1UNL     H6   30  -0.354   0.096   0.002
    1UNL     H7   31  -0.277   0.025   0.163
    1UNL     H8   32  -0.395  -0.140  -0.074
    1UNL     H9   33  -0.450  -0.152   0.088
    1UNL    H10   34  -0.258  -0.269   0.169
    1UNL    H11   35  -0.272  -0.340   0.002
    1UNL    H12   36   0.024  -0.375  -0.015
    1UNL    H13   37  -0.036  -0.361   0.149
    1UNL    H14   38   0.203  -0.253   0.053
    1UNL    H15   39   0.142  -0.206   0.207
    1UNL    H16   40   0.267  -0.019  -0.344
    1UNL    H17   41   0.395   0.181  -0.364
    1UNL    H18   42   0.437   0.323  -0.166
    1UNL    H19   43   0.310   0.279   0.037
    1UNL    H20   44   0.099   0.241   0.131
    1UNL    H21   45   0.202   0.014   0.266
    1UNL    H22   46   0.184   0.166   0.360
    1UNL    H23   47   0.105   0.008   0.419
    1UNL    H24   48  -0.091   0.252  -0.004
    1UNL    H25   49  -0.150   0.200   0.147
    1UNL    H26   50  -0.091  -0.090   0.147
   0.00000   0.00000   0.00000   0.00000   0.00000   0.00000   0.00000   0.00000   0.00000
Generated with MDTraj, t= 83.0
 50
    1UNL     C1    1  -0.261   0.128  -0.219
    1UNL     C2    2  -0.152   0.047  -0.153
    1UNL     C3    3  -0.152   0.032  -0.000
    1UNL     C4    4  -0.299   0.003   0.048
    1UNL     C5    5  -0.354  -0.129   0.021
    1UNL     C6    6  -0.264  -0.240   0.073
    1UNL     N1    7  -0.116  -0.219   0.044
    1UNL     C7    8   0.000  -0.311   0.074
    1UNL     C8    9   0.130  -0.218   0.081
    1UNL     C9   10   0.080  -0.077   0.021
    1UNL    C10   11   0.114  -0.081  -0.132
    1UNL     O1   12   0.070  -0.168  -0.201
    1UNL    C11   13   0.213   0.019  -0.161
    1UNL    C12   14   0.301   0.034  -0.266
    1UNL    C13   15   0.394   0.138  -0.262
    1UNL    C14   16   0.386   0.231  -0.159
    1UNL    C15   17   0.302   0.219  -0.050
    1UNL    C16   18   0.217   0.108  -0.049
    1UNL     N2   19   0.129   0.058   0.056
    1UNL    C17   20   0.035   0.145   0.131
    1UNL     O2   21   0.022   0.082   0.259
    1UNL    C18   22   0.132   0.079   0.352
    1UNL    C19   23  -0.101   0.164   0.066
    1UNL    C20   24  -0.066  -0.083   0.058
    1UNL     H1   25  -0.264   0.233  -0.177
    1UNL     H2   26  -0.359   0.069  -0.214
    1UNL     H3   27  -0.240   0.141  -0.322
    1UNL     H4   28  -0.053   0.086  -0.187
    1UNL     H5   29  -0.151  -0.054  -0.200
    1UNL     H6   30  -0.359   0.079  -0.011
    1UNL     H7   31  -0.287   0.023   0.155
    1UNL     H8   32  -0.374  -0.149  -0.086
    1UNL     H9   33  -0.463  -0.128   0.057
    1UNL    H10   34  -0.278  -0.250   0.180
    1UNL    H11   35  -0.299  -0.323   0.016
    1UNL    H12   36   0.007  -0.383  -0.010
    1UNL    H13   37  -0.013  -0.372   0.163
    1UNL    H14   38   0.208  -0.265   0.033
    1UNL    H15   39   0.163  -0.200   0.185
    1UNL    H16   40   0.312  -0.040  -0.345
    1UNL    H17   41   0.463   0.160  -0.347
    1UNL    H18   42   0.446   0.321  -0.166
    1UNL    H19   43   0.306   0.296   0.030
    1UNL    H20   44   0.081   0.238   0.150
    1UNL    H21   45   0.206   0.007   0.329
    1UNL    H22   46   0.157   0.189   0.360
    1UNL    H23   47   0.076   0.050   0.441
    1UNL    H24   48  -0.088   0.245  -0.005
    1UNL    H25   49  -0.168   0.208   0.142
    1UNL    H26   50  -0.066  -0.078   0.165
   0.00000   0.00000   0.00000   0.00000   0.00000   0.00000   0.00000   0.00000   0.00000
Generated with MDTraj, t= 84.0
 50
    1UNL     C1    1  -0.244   0.142  -0.226
    1UNL     C2    2  -0.165   0.028  -0.169
    1UNL     C3    3  -0.153   0.027  -0.014
    1UNL     C4    4  -0.303   0.010   0.044
    1UNL     C5    5  -0.346  -0.132   0.026
    1UNL     C6    6  -0.263  -0.245   0.095
    1UNL     N1    7  -0.119  -0.227   0.053
    1UNL     C7    8   0.003  -0.315   0.085
    1UNL     C8    9   0.127  -0.226   0.084
    1UNL     C9   10   0.077  -0.094   0.015
    1UNL    C10   11   0.109  -0.087  -0.132
    1UNL     O1   12   0.064  -0.154  -0.221
    1UNL    C11   13   0.213   0.014  -0.152
    1UNL    C12   14   0.286   0.058  -0.261
    1UNL    C13   15   0.367   0.168  -0.258
    1UNL    C14   16   0.382   0.241  -0.143
    1UNL    C15   17   0.321   0.196  -0.024
    1UNL    C16   18   0.230   0.087  -0.036
    1UNL     N2   19   0.138   0.039   0.062
    1UNL    C17   20   0.041   0.146   0.121
    1UNL     O2   21   0.018   0.103   0.257
    1UNL    C18   22   0.142   0.094   0.333
    1UNL    C19   23  -0.097   0.160   0.045
    1UNL    C20   24  -0.071  -0.087   0.053
    1UNL     H1   25  -0.212   0.245  -0.191
    1UNL     H2   26  -0.356   0.132  -0.210
    1UNL     H3   27  -0.239   0.156  -0.332
    1UNL     H4   28  -0.060   0.037  -0.205
    1UNL     H5   29  -0.204  -0.066  -0.215
    1UNL     H6   30  -0.357   0.094  -0.008
    1UNL     H7   31  -0.291   0.035   0.150
    1UNL     H8   32  -0.375  -0.142  -0.077
    1UNL     H9   33  -0.452  -0.140   0.071
    1UNL    H10   34  -0.276  -0.231   0.200
    1UNL    H11   35  -0.297  -0.343   0.068
    1UNL    H12   36   0.011  -0.397   0.012
    1UNL    H13   37  -0.014  -0.365   0.182
    1UNL    H14   38   0.211  -0.265   0.030
    1UNL    H15   39   0.162  -0.209   0.186
    1UNL    H16   40   0.286   0.003  -0.358
    1UNL    H17   41   0.426   0.188  -0.342
    1UNL    H18   42   0.455   0.319  -0.143
    1UNL    H19   43   0.334   0.229   0.075
    1UNL    H20   44   0.093   0.239   0.123
    1UNL    H21   45   0.219   0.061   0.268
    1UNL    H22   46   0.149   0.197   0.380
    1UNL    H23   47   0.121   0.015   0.405
    1UNL    H24   48  -0.079   0.231  -0.033
    1UNL    H25   49  -0.171   0.211   0.110
    1UNL    H26   50  -0.068  -0.062   0.157
   0.00000   0.00000   0.00000   0.00000   0.00000   0.00000   0.00000   0.00000   0.00000
Generated with MDTraj, t= 85.0
 50
    1UNL     C1    1  -0.262   0.106  -0.246
    1UNL     C2    2  -0.172   0.009  -0.166
    1UNL     C3    3  -0.146   0.035  -0.011
    1UNL     C4    4  -0.291   0.032   0.063
    1UNL     C5    5  -0.348  -0.112   0.056
    1UNL     C6    6  -0.255  -0.238   0.081
    1UNL     N1    7  -0.123  -0.222   0.017
    1UNL     C7    8  -0.006  -0.310   0.062
    1UNL     C8    9   0.123  -0.227   0.081
    1UNL     C9   10   0.086  -0.090   0.017
    1UNL    C10   11   0.124  -0.091  -0.133
    1UNL     O1   12   0.083  -0.158  -0.226
    1UNL    C11   13   0.213   0.022  -0.152
    1UNL    C12   14   0.276   0.058  -0.264
    1UNL    C13   15   0.346   0.173  -0.259
    1UNL    C14   16   0.383   0.235  -0.140
    1UNL    C15   17   0.326   0.192  -0.027
    1UNL    C16   18   0.235   0.088  -0.032
    1UNL     N2   19   0.150   0.034   0.071
    1UNL    C17   20   0.046   0.133   0.137
    1UNL     O2   21   0.001   0.113   0.268
    1UNL    C18   22   0.118   0.100   0.348
    1UNL    C19   23  -0.070   0.159   0.046
    1UNL    C20   24  -0.070  -0.088   0.043
    1UNL     H1   25  -0.229   0.214  -0.241
    1UNL     H2   26  -0.367   0.098  -0.212
    1UNL     H3   27  -0.271   0.087  -0.353
    1UNL     H4   28  -0.076   0.018  -0.223
    1UNL     H5   29  -0.213  -0.093  -0.181
    1UNL     H6   30  -0.345   0.122   0.020
    1UNL     H7   31  -0.260   0.058   0.166
    1UNL     H8   32  -0.408  -0.129  -0.028
    1UNL     H9   33  -0.437  -0.101   0.132
    1UNL    H10   34  -0.238  -0.255   0.182
    1UNL    H11   35  -0.299  -0.328   0.036
    1UNL    H12   36   0.006  -0.394  -0.010
    1UNL    H13   37  -0.041  -0.360   0.156
    1UNL    H14   38   0.213  -0.271   0.030
    1UNL    H15   39   0.146  -0.216   0.182
    1UNL    H16   40   0.244   0.008  -0.348
    1UNL    H17   41   0.401   0.199  -0.352
    1UNL    H18   42   0.460   0.312  -0.135
    1UNL    H19   43   0.351   0.237   0.071
    1UNL    H20   44   0.098   0.229   0.149
    1UNL    H21   45   0.144  -0.001   0.334
    1UNL    H22   46   0.192   0.180   0.314
    1UNL    H23   47   0.081   0.113   0.450
    1UNL    H24   48  -0.046   0.225  -0.033
    1UNL    H25   49  -0.143   0.216   0.108
    1UNL    H26   50  -0.079  -0.080   0.151
   0.00000   0.00000   0.00000   0.00000   0.00000   0.00000   0.00000   0.00000   0.00000
Generated with MDTraj, t= 86.0
 50
    1UNL     C1    1  -0.280   0.102  -0.213
    1UNL     C2    2  -0.167   0.018  -0.154
    1UNL     C3    3  -0.144   0.036  -0.006
    1UNL     C4    4  -0.285   0.026   0.073
    1UNL     C5    5  -0.347  -0.105   0.045
    1UNL     C6    6  -0.250  -0.211   0.091
    1UNL     N1    7  -0.112  -0.216   0.028
    1UNL     C7    8  -0.009  -0.315   0.060
    1UNL     C8    9   0.126  -0.237   0.078
    1UNL     C9   10   0.093  -0.093   0.018
    1UNL    C10   11   0.122  -0.087  -0.130
    1UNL     O1   12   0.074  -0.160  -0.212
    1UNL    C11   13   0.219   0.022  -0.155
    1UNL    C12   14   0.297   0.053  -0.269
    1UNL    C13   15   0.380   0.166  -0.265
    1UNL    C14   16   0.375   0.243  -0.148
    1UNL    C15   17   0.313   0.203  -0.033
    1UNL    C16   18   0.239   0.086  -0.030
    1UNL     N2   19   0.146   0.041   0.065
    1UNL    C17   20   0.043   0.137   0.120
    1UNL     O2   21  -0.010   0.095   0.252
    1UNL    C18   22   0.087   0.069   0.348
    1UNL    C19   23  -0.073   0.167   0.024
    1UNL    C20   24  -0.057  -0.085   0.049
    1UNL     H1   25  -0.292   0.204  -0.173
    1UNL     H2   26  -0.374   0.050  -0.199
    1UNL     H3   27  -0.279   0.117  -0.325
    1UNL     H4   28  -0.071   0.046  -0.205
    1UNL     H5   29  -0.191  -0.088  -0.172
    1UNL     H6   30  -0.337   0.118   0.031
    1UNL     H7   31  -0.257   0.041   0.179
    1UNL     H8   32  -0.367  -0.102  -0.056
    1UNL     H9   33  -0.457  -0.121   0.082
    1UNL    H10   34  -0.229  -0.192   0.190
    1UNL    H11   35  -0.296  -0.310   0.085
    1UNL    H12   36  -0.019  -0.382  -0.030
    1UNL    H13   37  -0.038  -0.371   0.152
    1UNL    H14   38   0.219  -0.272   0.022
    1UNL    H15   39   0.143  -0.223   0.179
    1UNL    H16   40   0.286  -0.010  -0.363
    1UNL    H17   41   0.423   0.208  -0.352
    1UNL    H18   42   0.437   0.330  -0.150
    1UNL    H19   43   0.298   0.279   0.039
    1UNL    H20   44   0.086   0.237   0.140
    1UNL    H21   45   0.136  -0.019   0.317
    1UNL    H22   46   0.152   0.162   0.343
    1UNL    H23   47   0.038   0.059   0.447
    1UNL    H24   48  -0.030   0.204  -0.065
    1UNL    H25   49  -0.149   0.242   0.056
    1UNL    H26   50  -0.061  -0.072   0.158
   0.00000   0.00000   0.00000   0.00000   0.00000   0.00000   0.00000   0.00000   0.00000
Generated with MDTraj, t= 87.0
 50
    1UNL     C1    1  -0.254   0.132  -0.234
    1UNL     C2    2  -0.180   0.019  -0.160
    1UNL     C3    3  -0.161   0.029  -0.008
    1UNL     C4    4  -0.301   0.013   0.068
    1UNL     C5    5  -0.351  -0.128   0.057
    1UNL     C6    6  -0.249  -0.231   0.104
    1UNL     N1    7  -0.117  -0.219   0.032
    1UNL     C7    8  -0.004  -0.295   0.092
    1UNL     C8    9   0.129  -0.215   0.086
    1UNL     C9   10   0.083  -0.083   0.016
    1UNL    C10   11   0.119  -0.086  -0.133
    1UNL     O1   12   0.063  -0.159  -0.211
    1UNL    C11   13   0.230   0.016  -0.152
    1UNL    C12   14   0.300   0.057  -0.268
    1UNL    C13   15   0.388   0.164  -0.257
    1UNL    C14   16   0.403   0.239  -0.144
    1UNL    C15   17   0.316   0.207  -0.040
    1UNL    C16   18   0.229   0.094  -0.038
    1UNL     N2   19   0.139   0.048   0.059
    1UNL    C17   20   0.036   0.140   0.115
    1UNL     O2   21  -0.000   0.094   0.249
    1UNL    C18   22   0.106   0.040   0.321
    1UNL    C19   23  -0.089   0.163   0.035
    1UNL    C20   24  -0.067  -0.081   0.045
    1UNL     H1   25  -0.208   0.227  -0.208
    1UNL     H2   26  -0.354   0.143  -0.198
    1UNL     H3   27  -0.261   0.129  -0.350
    1UNL     H4   28  -0.073   0.019  -0.195
    1UNL     H5   29  -0.221  -0.079  -0.186
    1UNL     H6   30  -0.371   0.080   0.012
    1UNL     H7   31  -0.284   0.052   0.172
    1UNL     H8   32  -0.376  -0.147  -0.041
    1UNL     H9   33  -0.456  -0.127   0.109
    1UNL    H10   34  -0.235  -0.226   0.207
    1UNL    H11   35  -0.287  -0.330   0.072
    1UNL    H12   36   0.014  -0.386   0.031
    1UNL    H13   37  -0.039  -0.323   0.195
    1UNL    H14   38   0.201  -0.263   0.015
    1UNL    H15   39   0.178  -0.186   0.178
    1UNL    H16   40   0.288   0.003  -0.355
    1UNL    H17   41   0.446   0.189  -0.348
    1UNL    H18   42   0.466   0.326  -0.131
    1UNL    H19   43   0.329   0.255   0.056
    1UNL    H20   44   0.088   0.238   0.125
    1UNL    H21   45   0.191   0.065   0.265
    1UNL    H22   46   0.120   0.106   0.411
    1UNL    H23   47   0.094  -0.068   0.346
    1UNL    H24   48  -0.072   0.222  -0.053
    1UNL    H25   49  -0.158   0.219   0.100
    1UNL    H26   50  -0.071  -0.063   0.157
   0.00000   0.00000   0.00000   0.00000   0.00000   0.00000   0.00000   0.00000   0.00000
Generated with MDTraj, t= 88.0
 50
    1UNL     C1    1  -0.242   0.136  -0.240
    1UNL     C2    2  -0.168   0.024  -0.164
    1UNL     C3    3  -0.160   0.034  -0.011
    1UNL     C4    4  -0.303   0.009   0.051
    1UNL     C5    5  -0.356  -0.141   0.057
    1UNL     C6    6  -0.248  -0.244   0.105
    1UNL     N1    7  -0.124  -0.226   0.025
    1UNL     C7    8  -0.005  -0.309   0.076
    1UNL     C8    9   0.121  -0.222   0.067
    1UNL     C9   10   0.082  -0.086   0.006
    1UNL    C10   11   0.115  -0.084  -0.137
    1UNL     O1   12   0.074  -0.157  -0.224
    1UNL    C11   13   0.216   0.016  -0.154
    1UNL    C12   14   0.283   0.051  -0.268
    1UNL    C13   15   0.386   0.146  -0.254
    1UNL    C14   16   0.400   0.219  -0.135
    1UNL    C15   17   0.305   0.211  -0.036
    1UNL    C16   18   0.221   0.102  -0.042
    1UNL     N2   19   0.139   0.050   0.062
    1UNL    C17   20   0.043   0.151   0.136
    1UNL     O2   21   0.010   0.114   0.268
    1UNL    C18   22   0.123   0.087   0.341
    1UNL    C19   23  -0.086   0.162   0.054
    1UNL    C20   24  -0.072  -0.086   0.041
    1UNL     H1   25  -0.178   0.223  -0.239
    1UNL     H2   26  -0.331   0.165  -0.186
    1UNL     H3   27  -0.269   0.102  -0.346
    1UNL     H4   28  -0.065   0.013  -0.202
    1UNL     H5   29  -0.210  -0.078  -0.173
    1UNL     H6   30  -0.369   0.071  -0.014
    1UNL     H7   31  -0.300   0.048   0.156
    1UNL     H8   32  -0.402  -0.165  -0.037
    1UNL     H9   33  -0.445  -0.143   0.131
    1UNL    H10   34  -0.230  -0.223   0.206
    1UNL    H11   35  -0.282  -0.348   0.086
    1UNL    H12   36   0.001  -0.399   0.011
    1UNL    H13   37  -0.018  -0.350   0.180
    1UNL    H14   38   0.198  -0.264   0.003
    1UNL    H15   39   0.167  -0.200   0.171
    1UNL    H16   40   0.265  -0.001  -0.362
    1UNL    H17   41   0.457   0.158  -0.330
    1UNL    H18   42   0.473   0.298  -0.132
    1UNL    H19   43   0.332   0.251   0.062
    1UNL    H20   44   0.101   0.249   0.140
    1UNL    H21   45   0.203   0.151   0.319
    1UNL    H22   46   0.119   0.089   0.454
    1UNL    H23   47   0.149  -0.017   0.310
    1UNL    H24   48  -0.078   0.237  -0.023
    1UNL    H25   49  -0.161   0.193   0.125
    1UNL    H26   50  -0.073  -0.078   0.155
   0.00000   0.00000   0.00000   0.00000   0.00000   0.00000   0.00000   0.00000   0.00000
Generated with MDTraj, t= 89.0
 50
    1UNL     C1    1  -0.277   0.129  -0.202
    1UNL     C2    2  -0.173   0.029  -0.161
    1UNL     C3    3  -0.155   0.037  -0.007
    1UNL     C4    4  -0.292   0.016   0.057
    1UNL     C5    5  -0.350  -0.128   0.023
    1UNL     C6    6  -0.257  -0.246   0.068
    1UNL     N1    7  -0.116  -0.220   0.030
    1UNL     C7    8  -0.006  -0.316   0.055
    1UNL     C8    9   0.117  -0.225   0.084
    1UNL     C9   10   0.077  -0.091   0.026
    1UNL    C10   11   0.116  -0.088  -0.124
    1UNL     O1   12   0.071  -0.154  -0.217
    1UNL    C11   13   0.224   0.006  -0.141
    1UNL    C12   14   0.281   0.047  -0.260
    1UNL    C13   15   0.371   0.151  -0.260
    1UNL    C14   16   0.387   0.229  -0.145
    1UNL    C15   17   0.314   0.199  -0.031
    1UNL    C16   18   0.245   0.077  -0.022
    1UNL     N2   19   0.142   0.039   0.064
    1UNL    C17   20   0.044   0.140   0.119
    1UNL     O2   21   0.025   0.100   0.251
    1UNL    C18   22   0.129   0.133   0.344
    1UNL    C19   23  -0.081   0.167   0.030
    1UNL    C20   24  -0.070  -0.083   0.058
    1UNL     H1   25  -0.278   0.220  -0.139
    1UNL     H2   26  -0.378   0.084  -0.193
    1UNL     H3   27  -0.262   0.149  -0.309
    1UNL     H4   28  -0.072   0.038  -0.202
    1UNL     H5   29  -0.194  -0.076  -0.191
    1UNL     H6   30  -0.369   0.088   0.023
    1UNL     H7   31  -0.269   0.025   0.168
    1UNL     H8   32  -0.376  -0.138  -0.087
    1UNL     H9   33  -0.448  -0.135   0.078
    1UNL    H10   34  -0.253  -0.247   0.174
    1UNL    H11   35  -0.290  -0.340   0.017
    1UNL    H12   36   0.006  -0.388  -0.027
    1UNL    H13   37  -0.033  -0.377   0.144
    1UNL    H14   38   0.204  -0.271   0.038
    1UNL    H15   39   0.141  -0.207   0.198
    1UNL    H16   40   0.258  -0.001  -0.357
    1UNL    H17   41   0.398   0.195  -0.359
    1UNL    H18   42   0.459   0.309  -0.149
    1UNL    H19   43   0.301   0.271   0.045
    1UNL    H20   44   0.096   0.243   0.130
    1UNL    H21   45   0.150   0.231   0.375
    1UNL    H22   46   0.126   0.064   0.433
    1UNL    H23   47   0.221   0.087   0.304
    1UNL    H24   48  -0.062   0.214  -0.068
    1UNL    H25   49  -0.156   0.222   0.082
    1UNL    H26   50  -0.080  -0.075   0.171
   0.00000   0.00000   0.00000   0.00000   0.00000   0.00000   0.00000   0.00000   0.00000
Generated with MDTraj, t= 90.0
 50
    1UNL     C1    1  -0.262   0.097  -0.231
    1UNL     C2    2  -0.154   0.027  -0.149
    1UNL     C3    3  -0.150   0.040   0.000
    1UNL     C4    4  -0.292   0.015   0.059
    1UNL     C5    5  -0.355  -0.123   0.031
    1UNL     C6    6  -0.267  -0.242   0.071
    1UNL     N1    7  -0.123  -0.214   0.031
    1UNL     C7    8  -0.009  -0.301   0.065
    1UNL     C8    9   0.125  -0.219   0.075
    1UNL     C9   10   0.080  -0.090   0.015
    1UNL    C10   11   0.116  -0.093  -0.136
    1UNL     O1   12   0.077  -0.164  -0.224
    1UNL    C11   13   0.204   0.018  -0.157
    1UNL    C12   14   0.277   0.048  -0.271
    1UNL    C13   15   0.366   0.150  -0.257
    1UNL    C14   16   0.388   0.224  -0.140
    1UNL    C15   17   0.313   0.199  -0.029
    1UNL    C16   18   0.225   0.089  -0.039
    1UNL     N2   19   0.143   0.045   0.056
    1UNL    C17   20   0.055   0.143   0.128
    1UNL     O2   21   0.023   0.094   0.263
    1UNL    C18   22   0.120   0.115   0.359
    1UNL    C19   23  -0.078   0.180   0.053
    1UNL    C20   24  -0.069  -0.080   0.060
    1UNL     H1   25  -0.261   0.208  -0.218
    1UNL     H2   26  -0.365   0.064  -0.198
    1UNL     H3   27  -0.250   0.062  -0.329
    1UNL     H4   28  -0.059   0.063  -0.187
    1UNL     H5   29  -0.147  -0.082  -0.167
    1UNL     H6   30  -0.347   0.100   0.013
    1UNL     H7   31  -0.294   0.027   0.173
    1UNL     H8   32  -0.376  -0.138  -0.085
    1UNL     H9   33  -0.454  -0.135   0.082
    1UNL    H10   34  -0.276  -0.258   0.176
    1UNL    H11   35  -0.297  -0.327   0.007
    1UNL    H12   36  -0.004  -0.382  -0.008
    1UNL    H13   37  -0.028  -0.356   0.160
    1UNL    H14   38   0.200  -0.273   0.013
    1UNL    H15   39   0.167  -0.212   0.181
    1UNL    H16   40   0.258   0.005  -0.361
    1UNL    H17   41   0.421   0.178  -0.342
    1UNL    H18   42   0.471   0.295  -0.133
    1UNL    H19   43   0.317   0.260   0.064
    1UNL    H20   44   0.114   0.242   0.140
    1UNL    H21   45   0.191   0.193   0.356
    1UNL    H22   46   0.082   0.095   0.463
    1UNL    H23   47   0.187   0.027   0.350
    1UNL    H24   48  -0.057   0.233  -0.043
    1UNL    H25   49  -0.150   0.233   0.109
    1UNL    H26   50  -0.065  -0.062   0.170
   0.00000   0.00000   0.00000   0.00000   0.00000   0.00000   0.00000   0.00000   0.00000
Generated with MDTraj, t= 91.0
 50
    1UNL     C1    1  -0.250   0.141  -0.246
    1UNL     C2    2  -0.159   0.034  -0.175
    1UNL     C3    3  -0.156   0.036  -0.014
    1UNL     C4    4  -0.306   0.009   0.043
    1UNL     C5    5  -0.350  -0.143   0.046
    1UNL     C6    6  -0.245  -0.239   0.103
    1UNL     N1    7  -0.118  -0.214   0.039
    1UNL     C7    8  -0.008  -0.303   0.092
    1UNL     C8    9   0.122  -0.216   0.089
    1UNL     C9   10   0.077  -0.078   0.023
    1UNL    C10   11   0.109  -0.091  -0.126
    1UNL     O1   12   0.070  -0.159  -0.217
    1UNL    C11   13   0.217   0.007  -0.148
    1UNL    C12   14   0.286   0.036  -0.263
    1UNL    C13   15   0.360   0.157  -0.259
    1UNL    C14   16   0.377   0.239  -0.145
    1UNL    C15   17   0.309   0.207  -0.034
    1UNL    C16   18   0.228   0.093  -0.037
    1UNL     N2   19   0.146   0.045   0.069
    1UNL    C17   20   0.052   0.147   0.126
    1UNL     O2   21   0.018   0.103   0.254
    1UNL    C18   22   0.121   0.053   0.326
    1UNL    C19   23  -0.076   0.171   0.045
    1UNL    C20   24  -0.073  -0.072   0.049
    1UNL     H1   25  -0.225   0.247  -0.218
    1UNL     H2   26  -0.359   0.133  -0.215
    1UNL     H3   27  -0.250   0.128  -0.351
    1UNL     H4   28  -0.061   0.048  -0.213
    1UNL     H5   29  -0.188  -0.064  -0.216
    1UNL     H6   30  -0.379   0.063  -0.018
    1UNL     H7   31  -0.305   0.056   0.146
    1UNL     H8   32  -0.385  -0.183  -0.061
    1UNL     H9   33  -0.439  -0.166   0.109
    1UNL    H10   34  -0.225  -0.229   0.210
    1UNL    H11   35  -0.273  -0.339   0.077
    1UNL    H12   36   0.007  -0.385   0.023
    1UNL    H13   37  -0.034  -0.354   0.186
    1UNL    H14   38   0.210  -0.274   0.040
    1UNL    H15   39   0.151  -0.202   0.196
    1UNL    H16   40   0.276  -0.031  -0.355
    1UNL    H17   41   0.428   0.180  -0.342
    1UNL    H18   42   0.445   0.321  -0.152
    1UNL    H19   43   0.342   0.256   0.052
    1UNL    H20   44   0.114   0.246   0.135
    1UNL    H21   45   0.175   0.123   0.384
    1UNL    H22   46   0.085  -0.034   0.388
    1UNL    H23   47   0.210   0.015   0.274
    1UNL    H24   48  -0.058   0.230  -0.047
    1UNL    H25   49  -0.152   0.213   0.105
    1UNL    H26   50  -0.074  -0.046   0.156
   0.00000   0.00000   0.00000   0.00000   0.00000   0.00000   0.00000   0.00000   0.00000
Generated with MDTraj, t= 92.0
 50
    1UNL     C1    1  -0.225   0.146  -0.226
    1UNL     C2    2  -0.167   0.027  -0.154
    1UNL     C3    3  -0.153   0.035   0.001
    1UNL     C4    4  -0.297   0.014   0.067
    1UNL     C5    5  -0.350  -0.128   0.045
    1UNL     C6    6  -0.258  -0.241   0.091
    1UNL     N1    7  -0.119  -0.214   0.036
    1UNL     C7    8  -0.018  -0.306   0.090
    1UNL     C8    9   0.116  -0.229   0.087
    1UNL     C9   10   0.086  -0.082   0.014
    1UNL    C10   11   0.118  -0.086  -0.129
    1UNL     O1   12   0.098  -0.177  -0.205
    1UNL    C11   13   0.206   0.029  -0.160
    1UNL    C12   14   0.290   0.051  -0.270
    1UNL    C13   15   0.384   0.149  -0.269
    1UNL    C14   16   0.371   0.243  -0.171
    1UNL    C15   17   0.298   0.215  -0.053
    1UNL    C16   18   0.220   0.101  -0.041
    1UNL     N2   19   0.150   0.045   0.065
    1UNL    C17   20   0.044   0.144   0.126
    1UNL     O2   21   0.001   0.089   0.250
    1UNL    C18   22   0.098   0.053   0.341
    1UNL    C19   23  -0.077   0.168   0.032
    1UNL    C20   24  -0.063  -0.075   0.058
    1UNL     H1   25  -0.172   0.244  -0.227
    1UNL     H2   26  -0.324   0.181  -0.192
    1UNL     H3   27  -0.242   0.115  -0.328
    1UNL     H4   28  -0.070   0.007  -0.194
    1UNL     H5   29  -0.232  -0.059  -0.175
    1UNL     H6   30  -0.360   0.094   0.026
    1UNL     H7   31  -0.295   0.027   0.180
    1UNL     H8   32  -0.371  -0.148  -0.066
    1UNL     H9   33  -0.450  -0.141   0.093
    1UNL    H10   34  -0.248  -0.246   0.202
    1UNL    H11   35  -0.282  -0.337   0.057
    1UNL    H12   36  -0.016  -0.389   0.022
    1UNL    H13   37  -0.044  -0.343   0.189
    1UNL    H14   38   0.197  -0.282   0.019
    1UNL    H15   39   0.155  -0.227   0.190
    1UNL    H16   40   0.295  -0.023  -0.343
    1UNL    H17   41   0.452   0.154  -0.353
    1UNL    H18   42   0.431   0.335  -0.177
    1UNL    H19   43   0.304   0.277   0.038
    1UNL    H20   44   0.101   0.241   0.159
    1UNL    H21   45   0.074   0.102   0.433
    1UNL    H22   46   0.112  -0.058   0.362
    1UNL    H23   47   0.197   0.101   0.329
    1UNL    H24   48  -0.040   0.202  -0.067
    1UNL    H25   49  -0.152   0.231   0.075
    1UNL    H26   50  -0.053  -0.060   0.163
   0.00000   0.00000   0.00000   0.00000   0.00000   0.00000   0.00000   0.00000   0.00000
Generated with MDTraj, t= 93.0
 50
    1UNL     C1    1  -0.253   0.126  -0.238
    1UNL     C2    2  -0.155   0.038  -0.160
    1UNL     C3    3  -0.144   0.044  -0.005
    1UNL     C4    4  -0.289   0.021   0.058
    1UNL     C5    5  -0.344  -0.125   0.043
    1UNL     C6    6  -0.249  -0.228   0.100
    1UNL     N1    7  -0.123  -0.215   0.019
    1UNL     C7    8  -0.018  -0.307   0.058
    1UNL     C8    9   0.107  -0.226   0.102
    1UNL     C9   10   0.084  -0.090   0.024
    1UNL    C10   11   0.127  -0.101  -0.123
    1UNL     O1   12   0.080  -0.181  -0.203
    1UNL    C11   13   0.213   0.010  -0.151
    1UNL    C12   14   0.282   0.052  -0.261
    1UNL    C13   15   0.351   0.172  -0.272
    1UNL    C14   16   0.356   0.247  -0.156
    1UNL    C15   17   0.305   0.203  -0.034
    1UNL    C16   18   0.236   0.078  -0.030
    1UNL     N2   19   0.150   0.032   0.073
    1UNL    C17   20   0.056   0.136   0.125
    1UNL     O2   21   0.004   0.095   0.247
    1UNL    C18   22   0.112   0.086   0.340
    1UNL    C19   23  -0.059   0.172   0.034
    1UNL    C20   24  -0.066  -0.083   0.046
    1UNL     H1   25  -0.270   0.228  -0.206
    1UNL     H2   26  -0.354   0.089  -0.241
    1UNL     H3   27  -0.215   0.114  -0.344
    1UNL     H4   28  -0.057   0.067  -0.195
    1UNL     H5   29  -0.174  -0.066  -0.186
    1UNL     H6   30  -0.359   0.085   0.003
    1UNL     H7   31  -0.286   0.049   0.167
    1UNL     H8   32  -0.360  -0.144  -0.063
    1UNL     H9   33  -0.445  -0.137   0.090
    1UNL    H10   34  -0.216  -0.223   0.208
    1UNL    H11   35  -0.283  -0.324   0.084
    1UNL    H12   36   0.003  -0.367  -0.029
    1UNL    H13   37  -0.058  -0.370   0.136
    1UNL    H14   38   0.210  -0.268   0.069
    1UNL    H15   39   0.110  -0.195   0.208
    1UNL    H16   40   0.256  -0.007  -0.350
    1UNL    H17   41   0.391   0.204  -0.366
    1UNL    H18   42   0.396   0.345  -0.162
    1UNL    H19   43   0.312   0.268   0.051
    1UNL    H20   44   0.121   0.230   0.152
    1UNL    H21   45   0.086   0.011   0.413
    1UNL    H22   46   0.222   0.080   0.307
    1UNL    H23   47   0.118   0.174   0.406
    1UNL    H24   48  -0.032   0.224  -0.059
    1UNL    H25   49  -0.125   0.229   0.100
    1UNL    H26   50  -0.069  -0.077   0.153
   0.00000   0.00000   0.00000   0.00000   0.00000   0.00000   0.00000   0.00000   0.00000
Generated with MDTraj, t= 94.0
 50
    1UNL     C1    1  -0.245   0.099  -0.247
    1UNL     C2    2  -0.151   0.013  -0.156
    1UNL     C3    3  -0.151   0.038  -0.002
    1UNL     C4    4  -0.294   0.024   0.066
    1UNL     C5    5  -0.351  -0.115   0.024
    1UNL     C6    6  -0.263  -0.232   0.064
    1UNL     N1    7  -0.120  -0.219   0.024
    1UNL     C7    8  -0.019  -0.304   0.098
    1UNL     C8    9   0.113  -0.227   0.089
    1UNL     C9   10   0.083  -0.092   0.021
    1UNL    C10   11   0.117  -0.096  -0.127
    1UNL     O1   12   0.076  -0.163  -0.219
    1UNL    C11   13   0.202   0.019  -0.155
    1UNL    C12   14   0.263   0.063  -0.271
    1UNL    C13   15   0.345   0.170  -0.264
    1UNL    C14   16   0.374   0.243  -0.145
    1UNL    C15   17   0.312   0.201  -0.030
    1UNL    C16   18   0.231   0.088  -0.038
    1UNL     N2   19   0.156   0.031   0.067
    1UNL    C17   20   0.070   0.135   0.130
    1UNL     O2   21   0.016   0.107   0.261
    1UNL    C18   22   0.121   0.091   0.352
    1UNL    C19   23  -0.056   0.164   0.040
    1UNL    C20   24  -0.077  -0.080   0.054
    1UNL     H1   25  -0.224   0.204  -0.241
    1UNL     H2   26  -0.347   0.092  -0.220
    1UNL     H3   27  -0.236   0.053  -0.352
    1UNL     H4   28  -0.051   0.038  -0.189
    1UNL     H5   29  -0.159  -0.093  -0.173
    1UNL     H6   30  -0.359   0.107   0.032
    1UNL     H7   31  -0.279   0.028   0.176
    1UNL     H8   32  -0.362  -0.115  -0.080
    1UNL     H9   33  -0.456  -0.125   0.063
    1UNL    H10   34  -0.269  -0.247   0.175
    1UNL    H11   35  -0.285  -0.325   0.024
    1UNL    H12   36  -0.019  -0.403   0.056
    1UNL    H13   37  -0.053  -0.317   0.199
    1UNL    H14   38   0.179  -0.282   0.018
    1UNL    H15   39   0.174  -0.207   0.184
    1UNL    H16   40   0.242   0.021  -0.371
    1UNL    H17   41   0.388   0.206  -0.359
    1UNL    H18   42   0.450   0.320  -0.154
    1UNL    H19   43   0.324   0.251   0.063
    1UNL    H20   44   0.128   0.235   0.133
    1UNL    H21   45   0.109  -0.007   0.398
    1UNL    H22   46   0.221   0.119   0.304
    1UNL    H23   47   0.123   0.163   0.433
    1UNL    H24   48  -0.019   0.208  -0.052
    1UNL    H25   49  -0.123   0.236   0.087
    1UNL    H26   50  -0.089  -0.068   0.160
   0.00000   0.00000   0.00000   0.00000   0.00000   0.00000   0.00000   0.00000   0.00000
Generated with MDTraj, t= 95.0
 50
    1UNL     C1    1  -0.251   0.132  -0.235
    1UNL     C2    2  -0.156   0.039  -0.161
    1UNL     C3    3  -0.160   0.036  -0.011
    1UNL     C4    4  -0.309   0.015   0.041
    1UNL     C5    5  -0.349  -0.137   0.027
    1UNL     C6    6  -0.252  -0.222   0.106
    1UNL     N1    7  -0.121  -0.220   0.034
    1UNL     C7    8  -0.000  -0.305   0.069
    1UNL     C8    9   0.125  -0.216   0.090
    1UNL     C9   10   0.082  -0.082   0.027
    1UNL    C10   11   0.114  -0.089  -0.125
    1UNL     O1   12   0.079  -0.165  -0.210
    1UNL    C11   13   0.215   0.015  -0.148
    1UNL    C12   14   0.272   0.046  -0.271
    1UNL    C13   15   0.366   0.146  -0.263
    1UNL    C14   16   0.381   0.233  -0.155
    1UNL    C15   17   0.313   0.208  -0.040
    1UNL    C16   18   0.238   0.089  -0.032
    1UNL     N2   19   0.142   0.050   0.067
    1UNL    C17   20   0.042   0.143   0.128
    1UNL     O2   21   0.016   0.089   0.260
    1UNL    C18   22   0.123   0.066   0.341
    1UNL    C19   23  -0.087   0.170   0.042
    1UNL    C20   24  -0.070  -0.082   0.050
    1UNL     H1   25  -0.276   0.217  -0.172
    1UNL     H2   26  -0.345   0.083  -0.254
    1UNL     H3   27  -0.213   0.153  -0.340
    1UNL     H4   28  -0.051   0.049  -0.190
    1UNL     H5   29  -0.167  -0.064  -0.190
    1UNL     H6   30  -0.375   0.084  -0.017
    1UNL     H7   31  -0.317   0.044   0.146
    1UNL     H8   32  -0.358  -0.170  -0.070
    1UNL     H9   33  -0.449  -0.157   0.076
    1UNL    H10   34  -0.233  -0.177   0.207
    1UNL    H11   35  -0.287  -0.318   0.128
    1UNL    H12   36   0.012  -0.369  -0.017
    1UNL    H13   37  -0.020  -0.372   0.150
    1UNL    H14   38   0.209  -0.273   0.049
    1UNL    H15   39   0.150  -0.198   0.204
    1UNL    H16   40   0.263  -0.029  -0.344
    1UNL    H17   41   0.429   0.170  -0.343
    1UNL    H18   42   0.446   0.319  -0.151
    1UNL    H19   43   0.321   0.272   0.050
    1UNL    H20   44   0.085   0.249   0.134
    1UNL    H21   45   0.080   0.022   0.427
    1UNL    H22   46   0.194  -0.005   0.288
    1UNL    H23   47   0.174   0.159   0.362
    1UNL    H24   48  -0.051   0.216  -0.049
    1UNL    H25   49  -0.149   0.251   0.088
    1UNL    H26   50  -0.077  -0.060   0.158
   0.00000   0.00000   0.00000   0.00000   0.00000   0.00000   0.00000   0.00000   0.00000
Generated with MDTraj, t= 96.0
 50
    1UNL     C1    1  -0.247   0.146  -0.212
    1UNL     C2    2  -0.171   0.031  -0.149
    1UNL     C3    3  -0.158   0.034   0.004
    1UNL     C4    4  -0.294   0.014   0.068
    1UNL     C5    5  -0.353  -0.126   0.038
    1UNL     C6    6  -0.257  -0.251   0.062
    1UNL     N1    7  -0.117  -0.218   0.020
    1UNL     C7    8  -0.002  -0.301   0.081
    1UNL     C8    9   0.126  -0.208   0.076
    1UNL     C9   10   0.077  -0.083   0.014
    1UNL    C10   11   0.117  -0.093  -0.131
    1UNL     O1   12   0.082  -0.177  -0.209
    1UNL    C11   13   0.223   0.007  -0.146
    1UNL    C12   14   0.306   0.027  -0.257
    1UNL    C13   15   0.389   0.142  -0.259
    1UNL    C14   16   0.386   0.229  -0.151
    1UNL    C15   17   0.285   0.222  -0.058
    1UNL    C16   18   0.222   0.102  -0.041
    1UNL     N2   19   0.139   0.048   0.062
    1UNL    C17   20   0.038   0.144   0.122
    1UNL     O2   21   0.010   0.108   0.257
    1UNL    C18   22   0.121   0.077   0.335
    1UNL    C19   23  -0.094   0.167   0.050
    1UNL    C20   24  -0.072  -0.082   0.053
    1UNL     H1   25  -0.188   0.238  -0.209
    1UNL     H2   26  -0.342   0.167  -0.160
    1UNL     H3   27  -0.276   0.104  -0.310
    1UNL     H4   28  -0.076   0.011  -0.201
    1UNL     H5   29  -0.221  -0.058  -0.178
    1UNL     H6   30  -0.368   0.095   0.039
    1UNL     H7   31  -0.274   0.029   0.174
    1UNL     H8   32  -0.387  -0.136  -0.059
    1UNL     H9   33  -0.445  -0.142   0.099
    1UNL    H10   34  -0.264  -0.290   0.163
    1UNL    H11   35  -0.295  -0.330   0.002
    1UNL    H12   36   0.011  -0.385   0.013
    1UNL    H13   37  -0.020  -0.341   0.179
    1UNL    H14   38   0.204  -0.243   0.005
    1UNL    H15   39   0.170  -0.192   0.180
    1UNL    H16   40   0.316  -0.047  -0.341
    1UNL    H17   41   0.468   0.152  -0.335
    1UNL    H18   42   0.443   0.321  -0.150
    1UNL    H19   43   0.272   0.291   0.019
    1UNL    H20   44   0.085   0.247   0.129
    1UNL    H21   45   0.104   0.106   0.435
    1UNL    H22   46   0.127  -0.036   0.344
    1UNL    H23   47   0.203   0.134   0.290
    1UNL    H24   48  -0.075   0.233  -0.032
    1UNL    H25   49  -0.162   0.222   0.119
    1UNL    H26   50  -0.070  -0.075   0.165
   0.00000   0.00000   0.00000   0.00000   0.00000   0.00000   0.00000   0.00000   0.00000
Generated with MDTraj, t= 97.0
 50
    1UNL     C1    1  -0.263   0.128  -0.225
    1UNL     C2    2  -0.163   0.024  -0.170
    1UNL     C3    3  -0.158   0.033  -0.014
    1UNL     C4    4  -0.299   0.008   0.045
    1UNL     C5    5  -0.358  -0.131   0.041
    1UNL     C6    6  -0.255  -0.238   0.092
    1UNL     N1    7  -0.120  -0.216   0.033
    1UNL     C7    8  -0.005  -0.310   0.059
    1UNL     C8    9   0.117  -0.220   0.086
    1UNL     C9   10   0.076  -0.085   0.020
    1UNL    C10   11   0.122  -0.092  -0.127
    1UNL     O1   12   0.067  -0.166  -0.208
    1UNL    C11   13   0.225   0.009  -0.148
    1UNL    C12   14   0.284   0.050  -0.266
    1UNL    C13   15   0.379   0.151  -0.257
    1UNL    C14   16   0.388   0.228  -0.142
    1UNL    C15   17   0.318   0.197  -0.029
    1UNL    C16   18   0.234   0.089  -0.033
    1UNL     N2   19   0.138   0.047   0.062
    1UNL    C17   20   0.045   0.150   0.127
    1UNL     O2   21   0.015   0.111   0.261
    1UNL    C18   22   0.140   0.097   0.332
    1UNL    C19   23  -0.089   0.162   0.050
    1UNL    C20   24  -0.072  -0.081   0.041
    1UNL     H1   25  -0.259   0.226  -0.173
    1UNL     H2   26  -0.372   0.100  -0.223
    1UNL     H3   27  -0.247   0.132  -0.330
    1UNL     H4   28  -0.063   0.053  -0.207
    1UNL     H5   29  -0.170  -0.074  -0.211
    1UNL     H6   30  -0.371   0.078  -0.008
    1UNL     H7   31  -0.303   0.041   0.148
    1UNL     H8   32  -0.398  -0.159  -0.056
    1UNL     H9   33  -0.442  -0.137   0.112
    1UNL    H10   34  -0.264  -0.235   0.198
    1UNL    H11   35  -0.289  -0.337   0.067
    1UNL    H12   36   0.029  -0.375  -0.023
    1UNL    H13   37  -0.038  -0.371   0.142
    1UNL    H14   38   0.210  -0.252   0.028
    1UNL    H15   39   0.139  -0.203   0.189
    1UNL    H16   40   0.259   0.015  -0.359
    1UNL    H17   41   0.431   0.185  -0.342
    1UNL    H18   42   0.442   0.322  -0.141
    1UNL    H19   43   0.315   0.261   0.062
    1UNL    H20   44   0.090   0.249   0.154
    1UNL    H21   45   0.123   0.064   0.432
    1UNL    H22   46   0.188   0.006   0.288
    1UNL    H23   47   0.185   0.197   0.318
    1UNL    H24   48  -0.083   0.250  -0.011
    1UNL    H25   49  -0.152   0.191   0.139
    1UNL    H26   50  -0.078  -0.071   0.156
   0.00000   0.00000   0.00000   0.00000   0.00000   0.00000   0.00000   0.00000   0.00000
Generated with MDTraj, t= 98.0
 50
    1UNL     C1    1  -0.260   0.091  -0.239
    1UNL     C2    2  -0.150   0.014  -0.164
    1UNL     C3    3  -0.149   0.025  -0.016
    1UNL     C4    4  -0.298   0.020   0.049
    1UNL     C5    5  -0.361  -0.120   0.033
    1UNL     C6    6  -0.263  -0.231   0.083
    1UNL     N1    7  -0.120  -0.211   0.041
    1UNL     C7    8  -0.016  -0.303   0.091
    1UNL     C8    9   0.121  -0.230   0.079
    1UNL     C9   10   0.083  -0.093   0.012
    1UNL    C10   11   0.114  -0.085  -0.135
    1UNL     O1   12   0.059  -0.144  -0.224
    1UNL    C11   13   0.207   0.023  -0.156
    1UNL    C12   14   0.275   0.069  -0.265
    1UNL    C13   15   0.371   0.166  -0.262
    1UNL    C14   16   0.399   0.228  -0.143
    1UNL    C15   17   0.334   0.187  -0.029
    1UNL    C16   18   0.228   0.091  -0.037
    1UNL     N2   19   0.143   0.040   0.066
    1UNL    C17   20   0.044   0.139   0.128
    1UNL     O2   21   0.020   0.104   0.266
    1UNL    C18   22   0.135   0.103   0.356
    1UNL    C19   23  -0.085   0.154   0.040
    1UNL    C20   24  -0.067  -0.084   0.055
    1UNL     H1   25  -0.254   0.203  -0.229
    1UNL     H2   26  -0.366   0.075  -0.204
    1UNL     H3   27  -0.269   0.061  -0.340
    1UNL     H4   28  -0.056   0.053  -0.204
    1UNL     H5   29  -0.154  -0.087  -0.195
    1UNL     H6   30  -0.369   0.096   0.007
    1UNL     H7   31  -0.298   0.036   0.157
    1UNL     H8   32  -0.380  -0.146  -0.075
    1UNL     H9   33  -0.454  -0.119   0.089
    1UNL    H10   34  -0.273  -0.235   0.186
    1UNL    H11   35  -0.306  -0.329   0.055
    1UNL    H12   36  -0.029  -0.394   0.028
    1UNL    H13   37  -0.032  -0.333   0.194
    1UNL    H14   38   0.196  -0.282   0.009
    1UNL    H15   39   0.166  -0.216   0.173
    1UNL    H16   40   0.250   0.021  -0.363
    1UNL    H17   41   0.423   0.202  -0.352
    1UNL    H18   42   0.483   0.295  -0.136
    1UNL    H19   43   0.343   0.234   0.064
    1UNL    H20   44   0.096   0.235   0.140
    1UNL    H21   45   0.125   0.009   0.408
    1UNL    H22   46   0.226   0.094   0.291
    1UNL    H23   47   0.128   0.195   0.417
    1UNL    H24   48  -0.066   0.233  -0.031
    1UNL    H25   49  -0.155   0.196   0.116
    1UNL    H26   50  -0.073  -0.070   0.169
   0.00000   0.00000   0.00000   0.00000   0.00000   0.00000   0.00000   0.00000   0.00000
Generated with MDTraj, t= 99.0
 50
    1UNL     C1    1  -0.278   0.122  -0.211
    1UNL     C2    2  -0.168   0.029  -0.159
    1UNL     C3    3  -0.141   0.031  -0.010
    1UNL     C4    4  -0.283   0.027   0.056
    1UNL     C5    5  -0.349  -0.115   0.048
    1UNL     C6    6  -0.257  -0.233   0.086
    1UNL     N1    7  -0.116  -0.221   0.026
    1UNL     C7    8  -0.005  -0.312   0.072
    1UNL     C8    9   0.126  -0.223   0.091
    1UNL     C9   10   0.094  -0.086   0.020
    1UNL    C10   11   0.125  -0.094  -0.130
    1UNL     O1   12   0.074  -0.165  -0.211
    1UNL    C11   13   0.223   0.012  -0.155
    1UNL    C12   14   0.303   0.043  -0.262
    1UNL    C13   15   0.362   0.165  -0.267
    1UNL    C14   16   0.383   0.233  -0.145
    1UNL    C15   17   0.313   0.200  -0.035
    1UNL    C16   18   0.230   0.089  -0.039
    1UNL     N2   19   0.142   0.042   0.066
    1UNL    C17   20   0.042   0.145   0.122
    1UNL     O2   21  -0.005   0.108   0.254
    1UNL    C18   22   0.099   0.074   0.338
    1UNL    C19   23  -0.078   0.169   0.032
    1UNL    C20   24  -0.059  -0.085   0.043
    1UNL     H1   25  -0.268   0.224  -0.167
    1UNL     H2   26  -0.381   0.092  -0.182
    1UNL     H3   27  -0.290   0.122  -0.319
    1UNL     H4   28  -0.079   0.044  -0.223
    1UNL     H5   29  -0.204  -0.068  -0.181
    1UNL     H6   30  -0.353   0.102   0.017
    1UNL     H7   31  -0.266   0.048   0.163
    1UNL     H8   32  -0.383  -0.123  -0.062
    1UNL     H9   33  -0.436  -0.120   0.110
    1UNL    H10   34  -0.259  -0.245   0.189
    1UNL    H11   35  -0.307  -0.330   0.061
    1UNL    H12   36  -0.005  -0.393  -0.005
    1UNL    H13   37  -0.037  -0.357   0.166
    1UNL    H14   38   0.214  -0.280   0.051
    1UNL    H15   39   0.148  -0.191   0.190
    1UNL    H16   40   0.307  -0.027  -0.342
    1UNL    H17   41   0.425   0.180  -0.353
    1UNL    H18   42   0.448   0.320  -0.154
    1UNL    H19   43   0.321   0.253   0.061
    1UNL    H20   44   0.095   0.238   0.121
    1UNL    H21   45   0.051   0.060   0.434
    1UNL    H22   46   0.142  -0.017   0.288
    1UNL    H23   47   0.175   0.154   0.329
    1UNL    H24   48  -0.042   0.237  -0.046
    1UNL    H25   49  -0.151   0.233   0.087
    1UNL    H26   50  -0.072  -0.074   0.155
   0.00000   0.00000   0.00000   0.00000   0.00000   0.00000   0.00000   0.00000   0.00000
