[ moleculetype ]
; name        nrexcl
res           1

[ atoms ]
;    nr  type  resnr resid  atom  cgnr     charge       mass
      1 TC3       1 res   C1        1      0.000     36.000
      2 TC5       1 res   C2        2      0.000     36.000
      3 TC3       1 res   C3        3      0.000     36.000
      4 TN6d      1 res   C4        4      0.000     36.000
      5 TC3       1 res   C5        5      0.000     36.000
      6 TN6d      1 res   C6        6      0.000     36.000
      7 TN6a      1 res   C7        7      0.000     36.000
      8 TC5       1 res   C8        8      0.000     36.000
      9 TC5       1 res   C9        9      0.000     36.000
     10 TC5       1 res   C10      10      0.000     36.000
     11 TC3       1 res   C11      11      0.000     36.000
     12 TN3r      1 res   C12      12      0.000     36.000

[ constraints ]
;  ai    aj   funct      b0(nm)
    1     2     1      0.32781
    2     3     1      0.25429
   11    12     1      0.32562
    4     5     1      0.30600
    2     6     1      0.21297
    6     8     1      0.18981
    3     4     1      0.25086
    7     8     1      0.23460
    5     6     1      0.27645
    6    11     1      0.26071
    8    10     1      0.24929
    6     7     1      0.23883
    2    11     1      0.24972
    9    10     1      0.28944
    2     4     1      0.25478
    8     9     1      0.24820

[ bonds ]
;  ai    aj   funct      b0(nm)          k(kJ/mol/nm^2)

[ angles ]
;  ai    aj    ak  funct     th0(deg)        k(kJ/mol/rad^2)
    1     2     3     1     67.17041           397.16
    1     2     4     1    103.36930           314.65
    1     2     6     1    101.44992           383.39
    1     2    11     1     76.50936           837.71
    2     3     4     1     60.56757          2509.34
    2     4     3     1     60.37963          2465.11
    2     4     5     1     64.89209          2216.72
    2     6     5     1     75.52817          2817.89
    2     6     7     1     90.13425          1353.24
    2     6     8     1    134.48159           762.42
    2     6    11     1     62.66640          3007.34
    2    11     6     1     49.25551          3970.25
    2    11    12     1     78.35774           616.33
    3     2     4     1     59.05262          2201.14
    3     2     6     1    168.03092           710.42
    3     2    11     1    107.23258          1264.88
    3     4     5     1    124.77410          1351.59
    4     2     6     1    127.01606          1063.41
    4     2    11     1    163.14617           748.55
    4     5     6     1     91.86022          2728.38
    5     6     7     1     73.21968           806.57
    5     6     8     1    125.83092           888.94
    5     6    11     1    136.08279          1795.33
    6     2    11     1     68.07820          1837.64
    6     7     8     1     47.25962          8445.07
    6     8     7     1     67.54409          3833.28
    6     8     9     1    162.17059          1408.53
    6     8    10     1    125.68461          2336.60
    6    11    12     1     63.88950           687.74
    7     6     8     1     65.19631          4995.03
    7     6    11     1    117.07031           473.08
    7     8     9     1     95.30278          1935.08
    7     8    10     1    164.93565          1123.74
    8     6    11     1     94.15302           908.04
    8     9    10     1     54.59529         11541.03
    8    10     9     1     54.24801          7588.66
    9     8    10     1     71.15670          6839.72

[ dihedrals ]
;  ai    aj    ak    al  funct   phi0(deg)        k(kJ/mol)   mult
    1     2     3     4     1    -55.11876       11.487      1
    1     2     4     3     1    126.59718        9.989      1
    1     2     4     5     1    -60.31009        9.220      1
    1     2     6     5     1     57.00029        9.945      1
    1     2     6     7     1    130.88671        8.574      1
    1     2     6     8     1   -175.11563        8.579      1
    1     2     6    11     1   -109.98800        6.343      1
    1     2    11     6     1     75.21544        9.937      1
    1     2    11    12     1      9.25444       12.802      1
    2     3     4     5     1    173.07695       11.479      1
    2     4     5     6     1    176.00948        6.326      1
    2     6     5     4     1   -175.06523        7.060      1
    2     6     7     8     1    -39.97069        7.802      1
    2     6     8     7     1    117.90929        9.278      1
    2     6     8     9     1    118.85534       24.412      1
    2     6     8    10     1    -67.22443       12.890      1
    2     6    11    12     1    -83.01320        8.485      1
    2    11     6     5     1    161.94534        9.337      1
    2    11     6     7     1   -105.95146        7.725      1
    2    11     6     8     1    -40.99374        7.018      1
    3     2     4     5     1     -5.02241       10.061      1
    3     2     6     5     1     50.20241       24.068      1
    3     2     6     7     1    122.40015       25.235      1
    3     2     6     8     1    175.92041       24.537      1
    3     2     6    11     1   -118.26910       25.712      1
    3     2    11     6     1     11.92397        7.834      1
    3     2    11    12     1    -56.07164        9.354      1
    3     4     2     6     1     12.92573       10.050      1
    3     4     2    11     1   -148.79676       22.713      1
    3     4     5     6     1   -175.18596       14.340      1
    4     2     6     5     1    173.97689       10.744      1
    4     2     6     7     1   -113.98447       12.187      1
    4     2     6     8     1    -59.99631       12.171      1
    4     2     6    11     1      5.12141       10.048      1
    4     2    11     6     1    -15.33446       20.215      1
    4     2    11    12     1    -80.12571       22.877      1
    4     3     2     6     1    -50.47289       24.592      1
    4     3     2    11     1      9.05758       10.013      1
    4     5     6     7     1     89.25026        7.102      1
    4     5     6     8     1     49.96458       10.772      1
    4     5     6    11     1   -161.82378       12.206      1
    5     4     2     6     1   -173.06723       10.018      1
    5     4     2    11     1     28.55380       20.879      1
    5     6     2    11     1    -13.94137        7.830      1
    5     6     7     8     1     35.94651        9.273      1
    5     6     8     7     1   -137.11470       10.066      1
    5     6     8     9     1   -133.89089       23.748      1
    5     6     8    10     1     39.30592       12.917      1
    5     6    11    12     1   -100.70939        9.990      1
    6     2    11    12     1    114.95815        7.042      1
    6     7     8     9     1      0.91917        9.995      1
    6     7     8    10     1     11.82273       27.262      1
    6     8     9    10     1     -6.37233       24.035      1
    6     8    10     9     1      3.78036       13.538      1
    7     6     2    11     1     58.06623        7.844      1
    7     6     8     9     1   -178.23142       23.965      1
    7     6     8    10     1     -5.69782       13.619      1
    7     6    11    12     1     -7.98812        7.792      1
    7     8     6    11     1     61.96471        9.257      1
    7     8     9    10     1     -4.66642       11.459      1
    7     8    10     9     1    169.20540       27.710      1
    8     6     2    11     1    112.07682        9.252      1
    8     6    11    12     1     56.01597        9.241      1
    8     7     6    11     1    -98.97348        8.496      1
    9     8     6    11     1     61.01787       23.789      1
   10     8     6    11     1   -120.15483       13.600      1
