[ moleculetype ]
; name        nrexcl
res           1

[ atoms ]
;    nr  type  resnr resid  atom  cgnr     charge       mass
      1 TN6a      1 res   C1        1      0.000     36.000
      2 TC5       1 res   C2        2      0.000     36.000
      3 TC5       1 res   C3        3      0.000     36.000
      4 TC5       1 res   C4        4      0.000     36.000
      5 TN2a      1 res   C5        5      0.000     36.000

[ constraints ]
;  ai    aj   funct      b0(nm)
    1     2     1      0.21836
    2     3     1      0.24987
    1     5     1      0.17465
    2     5     1      0.17170
    3     4     1      0.29110
    2     4     1      0.24989

[ bonds ]
;  ai    aj   funct      b0(nm)          k(kJ/mol/nm^2)

[ angles ]
;  ai    aj    ak  funct     th0(deg)        k(kJ/mol/rad^2)
    1     2     3     1    132.05104          3383.83
    1     2     4     1    155.27430          2783.45
    1     2     5     1     51.51014          5067.27
    1     5     2     1     78.17703          3289.18
    2     1     5     1     50.31292          7231.25
    2     3     4     1     54.37665         12227.44
    2     4     3     1     54.37052         12908.55
    3     2     4     1     71.25282          4339.88
    3     2     5     1    173.17198          1155.74
    4     2     5     1    104.48656          4014.94

[ dihedrals ]
;  ai    aj    ak    al  funct   phi0(deg)        k(kJ/mol)   mult
    1     2     3     4     1      1.02711       14.328      1
    1     2     4     3     1     -0.60213       21.602      1
    1     5     2     3     1     -0.95069       26.803      1
    1     5     2     4     1      1.87714       12.210      1
    3     2     1     5     1     -2.44618       12.246      1
    3     4     2     5     1     -1.91004       10.780      1
    4     2     1     5     1   -178.42161       21.019      1
    4     3     2     5     1   -179.49999       28.637      1
