[ moleculetype ]
; name        nrexcl
res           1

[ atoms ]
;    nr  type  resnr resid  atom  cgnr     charge       mass
      1 X2        1 res   C1        1      0.000     72.000
      2 TN6a      1 res   C2        2      0.000     36.000
      3 TN6a      1 res   C3        3      0.000     36.000
      4 TN6d      1 res   C4        4      0.000     36.000
      5 TN6a      1 res   C5        5      0.000     36.000
      6 TC6       1 res   C6        6      0.000     36.000

[ constraints ]
;  ai    aj   funct      b0(nm)
    1     2     1      0.23039
    3     5     1      0.19827
    2     3     1      0.19875
    2     5     1      0.19808
    3     4     1      0.21297

[ bonds ]
;  ai    aj   funct      b0(nm)          k(kJ/mol/nm^2)
    5     6     1      0.27324           6360.1

[ angles ]
;  ai    aj    ak  funct     th0(deg)        k(kJ/mol/rad^2)
    1     2     3     1    163.60873          1235.97
    1     2     5     1    104.22872          1704.13
    2     3     4     1    102.87328          1219.30
    2     3     5     1     59.85660          4072.87
    2     5     3     1     60.18763          5346.40
    2     5     6     1    146.87287           161.57
    3     2     5     1     59.95572          3347.45
    3     5     6     1    116.76432            22.49
    4     3     5     1    161.85550          1069.26

[ dihedrals ]
;  ai    aj    ak    al  funct   phi0(deg)        k(kJ/mol)   mult
    1     2     3     4     1     -1.57792       21.917      1
    1     2     3     5     1   -178.68879       22.706      1
    1     2     5     3     1      0.92483       10.016      1
    1     2     5     6     1    160.08558        3.618      1
    2     3     5     6     1      2.08861       25.047      1
    2     5     3     4     1    177.78035       24.368      1
    3     2     5     6     1    -18.44831        6.343      1
    4     3     2     5     1     -0.12798       10.789      1
    4     3     5     6     1      2.48268       30.623      1
