[ moleculetype ]
; name        nrexcl
res           1

[ atoms ]
;    nr  type resnr resid  atom  cgnr     charge       mass
      1 N4a       1 res   C1        1      0.000     72.000
      2 TN4a      1 res   C2        2      0.000     36.000
      3 TN6       1 res   C3        3      0.000     36.000
      4 SN6       1 res   C4        4      0.000     54.000
      5 SC4       1 res   C5        5      0.000     54.000
      6 TC3       1 res   C6        6      0.000     36.000
      7 SC4       1 res   C7        7      0.000     54.000
      8 TC3       1 res   C8        8      0.000     36.000
      9 SC4       1 res   C9        9      0.000     54.000
     10 SC5       1 res   C10      10      0.000     54.000
     11 SC4       1 res   C11      11      0.000     54.000
     12 TC3       1 res   C12      12      0.000     36.000
     13 SN4a      1 res   C13      13      0.000     54.000
     14 SN4a      1 res   C14      14      0.000     54.000
     15 TP1       1 res   C15      15      0.000     36.000
     16 TN6       1 res   C16      16      0.000     36.000
     17 TN6       1 res   C17      17      0.000     36.000
     18 TN6       1 res   C18      18      0.000     36.000
     19 TC3       1 res   C19      19      0.000     36.000
     20 SC4       1 res   C20      20      0.000     54.000
     21 TN6       1 res   C21      21      0.000     36.000
     22 TN6       1 res   C22      22      0.000     36.000
     23 SN4a      1 res   C23      23      0.000     54.000
     24 TP1       1 res   C24      24      0.000     36.000
     25 TN6       1 res   C25      25      0.000     36.000
     26 TN6       1 res   C26      26      0.000     36.000
     27 TN6       1 res   C27      27      0.000     36.000
     28 TN6       1 res   C28      28      0.000     36.000

[ bonds ]
;  ai    aj   funct      b0(nm)        k
    1     2     1      0.33696    20000
    2     3     1      0.26952    20000
    2    28     1      0.22442    20000
    3     4     1      0.33928    20000
    3    21     1      0.22706    20000
    4     5     1      0.27589    20000
    4    20     1      0.37846    20000
    5     6     1      0.32307    20000
    5     7     1      0.33644    20000
    5    20     1      0.32906    20000
    6     7     1      0.28484    20000
    7     8     1      0.27903    20000
    7     9     1      0.31139    20000
    8     9     1      0.34238    20000
    9    10     1      0.39154    20000
    9    19     1      0.28045    20000
   10    11     1      0.30289    20000
   10    12     1      0.29877    20000
   10    13     1      0.27993    20000
   10    19     1      0.36657    20000
   11    12     1      0.29277    20000
   13    14     1      0.21893    20000
   14    15     1      0.31673    20000
   14    16     1      0.31036    20000
   14    18     1      0.24520    20000
   16    17     1      0.24848    20000
   17    18     1      0.24755    20000
   21    22     1      0.22998    20000
   22    23     1      0.26151    20000
   22    28     1      0.24260    20000
   23    24     1      0.29974    20000
   23    25     1      0.30433    20000
   23    27     1      0.25154    20000
   25    26     1      0.25331    20000
   26    27     1      0.21114    20000
