1TPCN04779
29
    1res  C1    1   -1.119  -0.164   0.085
    1res  C2    2   -0.907   0.088  -0.054
    1res  C3    3   -0.691   0.127   0.148
    1res  C4    4   -0.926   0.079   0.310
    1res  C5    5   -0.740  -0.186  -0.133
    1res  C6    6   -0.450  -0.140  -0.218
    1res  C7    7   -0.354  -0.198   0.110
    1res  C8    8   -0.303   0.045  -0.015
    1res  C9    9   -0.003  -0.097  -0.176
    1res  C10   10    0.098  -0.142   0.060
    1res  C11   11    0.190   0.063   0.132
    1res  C12   12    0.391   0.133   0.335
    1res  C13   13    0.210   0.201   0.504
    1res  C14   14    0.525   0.013   0.513
    1res  C15   15    0.583  -0.122   0.349
    1res  C16   16    0.516  -0.017   0.157
    1res  C17   17    0.572  -0.244   0.030
    1res  C18   18    0.503  -0.575   0.063
    1res  C19   19    0.580  -0.408  -0.180
    1res  C20   20    0.483  -0.184  -0.273
    1res  C21   21    0.609  -0.076  -0.133
    1res  C22   22    0.709   0.090  -0.207
    1res  C23   23    0.600   0.275  -0.323
    1res  C24   24    0.902   0.320  -0.339
    1res  C25   25    0.869   0.313  -0.082
    1res  C26   26    0.912   0.098  -0.060
    1res  C27   27    0.049   0.242   0.054
    1res  C28   28   -0.176   0.155  -0.225
    1res  C29   29   -0.615   0.085  -0.241
  10.00000  10.00000  10.00000
