1TPCN03297
15
    1res  C1    1    0.170   0.386  -0.086
    1res  C2    2    0.260   0.163  -0.042
    1res  C3    3    0.430   0.060   0.020
    1res  C4    4    0.264  -0.112  -0.020
    1res  C5    5   -0.002  -0.202  -0.044
    1res  C6    6   -0.220  -0.132   0.134
    1res  C7    7   -0.212   0.128  -0.122
    1res  C8    8   -0.279   0.382  -0.120
    1res  C9    9   -0.497   0.255  -0.023
    1res  C10   10   -0.386   0.120   0.143
    1res  C11   11   -0.150  -0.426   0.077
    1res  C12   12   -0.059  -0.470  -0.144
    1res  C13   13    0.169  -0.439  -0.015
    1res  C14   14    0.526  -0.147   0.066
    1res  C15   15    0.619   0.128   0.075
  10.00000  10.00000  10.00000
