[ moleculetype ]
; name        nrexcl
res           1

[ atoms ]
;    nr  type resnr resid  atom  cgnr     charge       mass
      1 SN2a      1 res   C1        1      0.000     54.000
      2 TC5       1 res   C2        2      0.000     36.000
      3 TC5       1 res   C3        3      0.000     36.000
      4 TN6       1 res   C4        4      0.000     36.000
      5 SN4a      1 res   C5        5      0.000     54.000
      6 TN3r      1 res   C6        6      0.000     36.000
      7 SN4a      1 res   C7        7      0.000     54.000
      8 TN6       1 res   C8        8      0.000     36.000
      9 TN6       1 res   C9        9      0.000     36.000
     10 TN6       1 res   C10      10      0.000     36.000
     11 TN6       1 res   C11      11      0.000     36.000
     12 TN6       1 res   C12      12      0.000     36.000
     13 TN6       1 res   C13      13      0.000     36.000
     14 TN6a      1 res   C14      14      0.000     36.000
     15 TN4a      1 res   C15      15      0.000     36.000

[ bonds ]
;  ai    aj   funct      b0(nm)        k
    1     2     1      0.24467    20000
    2     3     1      0.20817    20000
    2     4     1      0.27605    20000
    3     4     1      0.24220    20000
    3    14     1      0.23227    20000
    3    15     1      0.20917    20000
    4     5     1      0.28164    20000
    5     6     1      0.29024    20000
    5    11     1      0.29472    20000
    5    13     1      0.29357    20000
    6     7     1      0.36483    20000
    7     8     1      0.26239    20000
    7    10     1      0.31726    20000
    8     9     1      0.27103    20000
    9    10     1      0.24094    20000
   11    12     1      0.24248    20000
   12    13     1      0.26353    20000
   14    15     1      0.29064    20000
