[ moleculetype ]
; name        nrexcl
res           1

[ atoms ]
;    nr  type  resnr resid  atom  cgnr     charge       mass
      1 TC4       1 res   C1        1      0.000     36.000
      2 SN6       1 res   C2        2      0.000     54.000
      3 SN5a      1 res   C3        3      0.000     54.000
      4 SC5       1 res   C4        4      0.000     54.000
      5 N4a       1 res   C5        5      0.000     72.000
      6 TC5       1 res   C6        6      0.000     36.000
      7 TC5       1 res   C7        7      0.000     36.000
      8 TC5       1 res   C8        8      0.000     36.000
      9 TN6       1 res   C9        9      0.000     36.000
     10 TN4a      1 res   C10      10      0.000     36.000
     11 TC3       1 res   C11      11      0.000     36.000
     12 TP1       1 res   C12      12      0.000     36.000
     13 SN4a      1 res   C13      13      0.000     54.000
     14 TC5       1 res   C14      14      0.000     36.000
     15 TC5       1 res   C15      15      0.000     36.000
     16 TC5       1 res   C16      16      0.000     36.000
     17 TN6       1 res   C17      17      0.000     36.000
     18 TN6       1 res   C18      18      0.000     36.000

[ bonds ]
;  ai    aj   funct      b0(nm)          k(kJ/mol/nm^2)
    1     2     1      0.36444          36862.0
    1     3     1      0.35792         100818.4
    1     9     1      0.26364          29515.7
    2     3     1      0.28701          71191.4
    2     4     1      0.28348          31964.8
    3     4     1      0.31867         272194.7
    4     5     1      0.34580          22452.0
    4     9     1      0.22610         113961.7
    5     6     1      0.32876           7407.8
    6     7     1      0.25568         174743.2
    6     8     1      0.29786         189246.0
    7     8     1      0.28786         150437.3
    9    10     1      0.21159          52239.6
   10    11     1      0.26033          73646.9
   10    18     1      0.23699          79985.6
   11    12     1      0.22430          38499.0
   11    13     1      0.20766           2788.8
   11    17     1      0.28692          30718.8
   13    14     1      0.24586          66589.5
   14    15     1      0.25602         207329.2
   14    16     1      0.29758         186822.5
   15    16     1      0.28770         181848.9
   17    18     1      0.25050           7755.1

[ angles ]
;  ai    aj    ak  funct     th0(deg)        k(kJ/mol/rad^2)
    1     2     3     1     65.38346          4313.04
    1     2     4     1     73.93267          2021.56
    1     3     2     1     67.80334          2013.15
    1     3     4     1     71.17154          3465.25
    1     9     4     1    107.30574          1179.51
    1     9    10     1     83.09366           225.34
    2     1     3     1     46.81302          3757.74
    2     1     9     1     74.92037          2137.47
    2     3     4     1     55.51833          2286.09
    2     4     3     1     56.56825          3377.61
    2     4     5     1    111.74794          1076.43
    2     4     9     1     99.41505          1683.92
    3     1     9     1     58.04642          3296.18
    3     2     4     1     67.91341          3855.98
    3     4     5     1     55.68913          1721.57
    3     4     9     1     67.60950          2657.77
    4     5     6     1    119.44733            40.13
    4     9    10     1    117.76060           200.42
    5     4     9     1     60.67152          1694.58
    5     6     7     1    154.70684           113.49
    5     6     8     1     94.52157           111.91
    6     7     8     1     66.15689          5634.65
    6     8     7     1     51.72407         10423.60
    7     6     8     1     62.11901          6040.10
    9    10    11     1    145.70691           111.69
    9    10    18     1     76.14514           305.01
   10    11    12     1     67.07368           828.46
   10    11    13     1    136.03869            65.12
   10    11    17     1     67.81134           466.73
   10    18    17     1     77.65430           544.65
   11    10    18     1     99.16646          1061.97
   11    13    14     1    157.26397           115.06
   11    17    18     1     89.35021           792.47
   12    11    13     1    147.90169           233.01
   12    11    17     1     88.40513           508.79
   13    11    17     1     98.20645            19.65
   13    14    15     1    145.30776           883.31
   13    14    16     1     83.66430          1353.66
   14    15    16     1     66.07018          5197.87
   14    16    15     1     51.83997         10961.16
   15    14    16     1     62.08985          5101.45
