[ moleculetype ]
; name        nrexcl
res           1

[ atoms ]
;    nr  type resnr resid  atom  cgnr     charge       mass
      1 SC4       1 res   C1        1      0.000     54.000
      2 TN6a      1 res   C2        2      0.000     36.000
      3 SN6       1 res   C3        3      0.000     54.000
      4 SN6       1 res   C4        4      0.000     54.000
      5 SC5       1 res   C5        5      0.000     54.000
      6 TC4       1 res   C6        6      0.000     36.000
      7 TP1       1 res   C7        7      0.000     36.000
      8 SC3       1 res   C8        8      0.000     54.000
      9 TP1       1 res   C9        9      0.000     36.000
     10 TC3       1 res   C10      10      0.000     36.000

[ bonds ]
;  ai    aj   funct      b0(nm)        k
    1     2     1      0.26421    20000
    1     3     1      0.32734    20000
    1    10     1      0.33607    20000
    2     3     1      0.33316    20000
    3     4     1      0.32608    20000
    3     5     1      0.32202    20000
    4     5     1      0.26819    20000
    5     6     1      0.36889    20000
    5     8     1      0.29795    20000
    5     9     1      0.25998    20000
    5    10     1      0.33869    20000
    6     7     1      0.26405    20000
    6     8     1      0.36229    20000
