1TPCN02969
10
    1res  C1    1    0.467   0.100   0.077
    1res  C2    2    0.230   0.184   0.157
    1res  C3    3    0.242   0.078  -0.159
    1res  C4    4   -0.003   0.242  -0.019
    1res  C5    5   -0.009  -0.024   0.016
    1res  C6    6   -0.357   0.074   0.091
    1res  C7    7   -0.396   0.104  -0.169
    1res  C8    8   -0.217  -0.219  -0.069
    1res  C9    9   -0.089  -0.160   0.222
    1res  C10   10    0.293  -0.176  -0.005
  10.00000  10.00000  10.00000
