[ moleculetype ]
; name        nrexcl
res           1

[ atoms ]
;    nr  type resnr resid  atom  cgnr     charge       mass
      1 SC4       1 res   C1        1      0.000     54.000
      2 TC3       1 res   C2        2      0.000     36.000
      3 SC5       1 res   C3        3      0.000     54.000
      4 SP2       1 res   C4        4      0.000     54.000
      5 TC3       1 res   C5        5      0.000     36.000
      6 SC4       1 res   C6        6      0.000     54.000
      7 TC3       1 res   C7        7      0.000     36.000
      8 SC4       1 res   C8        8      0.000     54.000
      9 SC4       1 res   C9        9      0.000     54.000
     10 TC3       1 res   C10      10      0.000     36.000
     11 TN6       1 res   C11      11      0.000     36.000
     12 SN4a      1 res   C12      12      0.000     54.000
     13 TN6       1 res   C13      13      0.000     36.000
     14 TN6       1 res   C14      14      0.000     36.000
     15 TN6       1 res   C15      15      0.000     36.000
     16 TC4       1 res   C16      16      0.000     36.000
     17 SP2       1 res   C17      17      0.000     54.000
     18 TC3       1 res   C18      18      0.000     36.000

[ bonds ]
;  ai    aj   funct      b0(nm)        k
    1     2     1      0.29625    20000
    1     3     1      0.27793    20000
    2     3     1      0.28191    20000
    3     4     1      0.32213    20000
    3     5     1      0.36916    20000
    3     6     1      0.33184    20000
    5     6     1      0.29490    20000
    6     7     1      0.39328    20000
    6     8     1      0.29394    20000
    7     8     1      0.29634    20000
    8     9     1      0.37952    20000
    8    18     1      0.30671    20000
    9    10     1      0.27838    20000
    9    16     1      0.38907    20000
    9    18     1      0.31040    20000
   10    11     1      0.25126    20000
   11    12     1      0.32728    20000
   11    16     1      0.27596    20000
   12    13     1      0.26651    20000
   12    15     1      0.29869    20000
   13    14     1      0.24161    20000
   14    15     1      0.23888    20000
   16    17     1      0.29816    20000
