[ moleculetype ]
; name        nrexcl
res           1

[ atoms ]
;    nr  type  resnr resid  atom  cgnr     charge       mass
      1 TX2       1 res   C1        1      0.000     36.000
      2 TX3       1 res   C2        2      0.000     36.000
      3 TX3       1 res   C3        3      0.000     36.000
      4 TX3       1 res   C4        4      0.000     36.000
      5 TX3       1 res   C5        5      0.000     36.000
      6 TX3       1 res   C6        6      0.000     36.000

[ bonds ]
;  ai    aj   funct      b0(nm)          k(kJ/mol/nm^2)
    1     2     1      0.22569          93960.0
    1     6     1      0.22675         118741.5
    2     3     1      0.21616          73049.2
    3     4     1      0.22376         112045.6
    4     5     1      0.23014         107242.3
    5     6     1      0.22326         107923.5

[ angles ]
;  ai    aj    ak  funct     th0(deg)        k(kJ/mol/rad^2)
    1     2     3     1    100.40654           534.92
    1     6     5     1     95.29394          2119.82
    2     1     6     1    103.61315           734.31
    2     3     4     1     97.82108          1378.97
    3     4     5     1     95.40559           621.67
    4     5     6     1     96.35693           708.51

[ dihedrals ]
;  ai    aj    ak    al  funct   phi0(deg)        k(kJ/mol)   mult
    1     2     3     4     1    104.85765        8.555      1
    1     2     3     4     1     29.71320        8.403      2
    1     2     3     4     1    -45.43557        8.153      3
    1     6     5     4     1    -99.04500        7.068      1
    1     6     5     4     1    -18.09043        6.984      2
    1     6     5     4     1     62.86325        6.847      3
    2     1     6     5     1    105.91173        9.312      1
    2     1     6     5     1     31.82185        9.115      2
    2     1     6     5     1    -42.27141        8.792      3
    2     3     4     5     1    -96.93274        7.066      1
    2     3     4     5     1    -13.86482        6.982      2
    2     3     4     5     1     69.20445        6.844      3
    3     2     1     6     1   -104.89563       11.532      1
    3     2     1     6     1    -29.80855       11.127      2
    3     2     1     6     1     45.24212       10.473      3
    3     4     5     6     1     92.02593        9.367      1
    3     4     5     6     1      4.05250        9.166      2
    3     4     5     6     1    -83.91959        8.836      3
