[ moleculetype ]
; name        nrexcl
res           1

[ atoms ]
;    nr  type  resnr resid  atom  cgnr     charge       mass
      1 N4a       1 res   C1        1      0.000     72.000
      2 TC5       1 res   C2        2      0.000     36.000
      3 TC3       1 res   C3        3      0.000     36.000
      4 TN6d      1 res   C4        4      0.000     36.000
      5 TC3       1 res   C5        5      0.000     36.000
      6 TC5       1 res   C6        6      0.000     36.000
      7 TN6d      1 res   C7        7      0.000     36.000
      8 TC5       1 res   C8        8      0.000     36.000
      9 TC5       1 res   C9        9      0.000     36.000
     10 TC5       1 res   C10      10      0.000     36.000
     11 SN6       1 res   C11      11      0.000     54.000
     12 SP1       1 res   C12      12      0.000     54.000

[ constraints ]
;  ai    aj   funct      b0(nm)
    1     2     1      0.36751
    2     3     1      0.29072
   11    12     1      0.25104
    4     5     1      0.30637
    2     6     1      0.23645
    3    11     1      0.26661
    6     8     1      0.18427
    3     4     1      0.25813
    7     8     1      0.21746
    5     6     1      0.25730
    8    10     1      0.24991
    9    10     1      0.29108
    6     7     1      0.21666
    2    11     1      0.30114
    2     4     1      0.28198
    8     9     1      0.25016

[ bonds ]
;  ai    aj   funct      b0(nm)          k(kJ/mol/nm^2)

[ angles ]
;  ai    aj    ak  funct     th0(deg)        k(kJ/mol/rad^2)
    1     2     3     1     79.76903           838.21
    1     2     4     1    132.41300           847.50
    1     2     6     1     89.16031           220.38
    1     2    11     1     95.67467           159.12
    2     3     4     1     61.48873          4809.36
    2     3    11     1     65.24428          4213.16
    2     4     3     1     64.95467          5636.19
    2     4     5     1     58.17287          2053.96
    2     6     5     1     70.85734          2582.02
    2     6     7     1    106.82412           964.56
    2     6     8     1    168.67138           455.48
    2    11     3     1     61.24262          6056.92
    2    11    12     1     84.40377          1478.69
    3     2     4     1     53.55663          4123.61
    3     2     6     1     84.85672          1161.88
    3     2    11     1     53.51304          3752.36
    3     4     5     1    114.81649           589.09
    3    11    12     1    144.61710           931.42
    4     2     6     1     82.60410           312.00
    4     2    11     1     62.41812          2926.42
    4     3    11     1     70.40941          1682.74
    4     5     6     1     74.59160           398.48
    5     6     7     1    169.54557           294.20
    5     6     8     1    117.85228           843.48
    6     2    11     1    135.74710           574.43
    6     7     8     1     50.23970          4797.03
    6     8     7     1     64.65815          3860.53
    6     8     9     1    160.88739          1218.20
    6     8    10     1    126.84454          1564.78
    7     6     8     1     65.10211          3897.41
    7     8     9     1     96.86539          1266.20
    7     8    10     1    166.51418          1029.59
    8     9    10     1     54.36320          7782.49
    8    10     9     1     54.44249          7527.13
    9     8    10     1     71.19435          5492.25

[ dihedrals ]
;  ai    aj    ak    al  funct   phi0(deg)        k(kJ/mol)   mult
    1     2     3     4     1     -4.47763       13.632      1
    1     2     3    11     1     74.78668       12.980      1
    1     2     4     3     1    173.26802       17.016      1
    1     2     4     5     1    -39.33636       15.696      1
    1     2     6     5     1    -17.09308       11.447      1
    1     2     6     7     1    152.09993       13.639      1
    1     2     6     8     1    175.55787       24.895      1
    1     2    11     3     1   -108.08074        9.302      1
    1     2    11    12     1     73.04012       14.352      1
    2     3     4     5     1    148.07409        9.262      1
    2     3    11    12     1    176.31444       21.421      1
    2     4     3    11     1    108.94777        3.997      1
    2     4     5     6     1    126.99662        7.069      1
    2     6     5     4     1   -121.93841        7.759      1
    2     6     7     8     1     -6.05342       12.201      1
    2     6     8     7     1    154.19659       28.960      1
    2     6     8     9     1    150.52919       26.213      1
    2     6     8    10     1    -29.54274       26.075      1
    2    11     3     4     1   -113.01976        4.010      1
    3     2     4     5     1    -35.82172       10.746      1
    3     2     6     5     1     61.96787        9.262      1
    3     2     6     7     1   -129.91903       12.223      1
    3     2     6     8     1   -105.33049       27.524      1
    3     2    11    12     1     -1.65158       14.964      1
    3     4     2     6     1     91.93780        7.739      1
    3     4     2    11     1   -116.03301        4.783      1
    3     4     5     6     1    161.77886       13.592      1
    3    11     2     4     1    117.88341        4.749      1
    3    11     2     6     1    159.43792       12.939      1
    4     2     3    11     1    -98.14236        6.231      1
    4     2     6     5     1    115.41027        7.060      1
    4     2     6     7     1    -75.93565       12.227      1
    4     2     6     8     1    -53.66730       27.713      1
    4     2    11    12     1    -65.72739       14.984      1
    4     3     2     6     1    -94.86303       10.057      1
    4     3     2    11     1     98.14236        6.231      1
    4     3    11    12     1   -116.41300       20.728      1
    4     5     6     7     1   -176.83475       26.851      1
    4     5     6     8     1     52.94284       12.933      1
    5     4     2     6     1   -123.45229        5.538      1
    5     4     2    11     1     29.06266       10.030      1
    5     4     3    11     1     77.17965        8.526      1
    5     6     2    11     1     77.99997        7.846      1
    5     6     7     8     1     46.82979       31.491      1
    5     6     8     7     1    -11.88024       12.272      1
    5     6     8     9     1    -10.25882       23.966      1
    5     6     8    10     1    168.03954       16.449      1
    6     2     3    11     1    -14.54809       10.045      1
    6     2    11    12     1    -24.60884       11.452      1
    6     7     8     9     1      0.13028       10.716      1
    6     7     8    10     1      9.31899       29.638      1
    6     8     9    10     1     -1.11909       24.558      1
    6     8    10     9     1      1.15394       14.293      1
    7     6     2    11     1   -111.98563       13.677      1
    7     6     8     9     1    179.09536       22.200      1
    7     6     8    10     1     -3.06151       15.671      1
    7     8     9    10     1     -2.91012       12.881      1
    7     8    10     9     1    173.83724       29.212      1
    8     6     2    11     1    -88.53674       26.594      1
