[ moleculetype ]
; name        nrexcl
res           1

[ atoms ]
;    nr  type  resnr resid  atom  cgnr     charge       mass
      1 TC5       1 res   C1        1      0.000     36.000
      2 TC3       1 res   C2        2      0.000     36.000
      3 TN4a      1 res   C3        3      0.000     36.000
      4 SP4       1 res   C4        4      0.000     54.000
      5 TN4a      1 res   C5        5      0.000     36.000
      6 TP1       1 res   C6        6      0.000     36.000
      7 SP4       1 res   C7        7      0.000     54.000
      8 TC5       1 res   C8        8      0.000     36.000
      9 N4a       1 res   C9        9      0.000     72.000
     10 TC4       1 res   C10      10      0.000     36.000
     11 SN6d      1 res   C11      11      0.000     54.000
     12 SP2       1 res   C12      12      0.000     54.000
     13 TC5       1 res   C13      13      0.000     36.000
     14 TN6d      1 res   C14      14      0.000     36.000
     15 TC5       1 res   C15      15      0.000     36.000
     16 TC5       1 res   C16      16      0.000     36.000
     17 TC5       1 res   C17      17      0.000     36.000

[ constraints ]
;  ai    aj   funct      b0(nm)
    4     5     1      0.31957
    5     7     1      0.28658
   13    14     1      0.21734
   15    17     1      0.24999
   11    13     1      0.21720
    2    10     1      0.24679
   14    15     1      0.21928
    5     6     1      0.22904
    4     7     1      0.30297
   15    16     1      0.24978
   10    11     1      0.30371
    2     3     1      0.26323
   11    12     1      0.25628
    3     8     1      0.26504
   16    17     1      0.29153
   13    15     1      0.18364
   10    13     1      0.26535
    3     4     1      0.33431
    2     8     1      0.29534
    8     9     1      0.35998

[ bonds ]
;  ai    aj   funct      b0(nm)          k(kJ/mol/nm^2)
    1     2     1      0.26489          14038.3

[ angles ]
;  ai    aj    ak  funct     th0(deg)        k(kJ/mol/rad^2)
    1     2     3     1     72.64570            95.65
    1     2     8     1     82.76397            85.57
    1     2    10     1    159.50567           160.51
    2     3     4     1     83.42494          1489.85
    2     3     8     1     67.98559          4865.12
    2     8     3     1     55.72022          5366.21
    2     8     9     1     86.57225           692.80
    2    10    11     1    143.58432           189.33
    2    10    13     1    109.81052           243.97
    3     2     8     1     56.29417          8784.59
    3     2    10     1    102.04625          1003.70
    3     4     5     1     79.59526           575.63
    3     4     7     1    131.39041           284.26
    3     8     9     1    141.74581           487.77
    4     3     8     1    108.92324           621.96
    4     5     6     1     99.33632           276.69
    4     5     7     1     59.68155          3214.23
    4     7     5     1     65.59217          3212.96
    5     4     7     1     54.72627          6472.00
    6     5     7     1     92.15854           775.47
    8     2    10     1     80.31100          1220.21
   10    11    12     1    124.13401           462.54
   10    11    13     1     58.46036          2695.30
   10    13    11     1     77.30800          1709.83
   10    13    14     1     79.86041          1496.23
   10    13    15     1    140.48735           971.34
   11    10    13     1     44.23143          5671.57
   11    13    14     1    149.99257          1202.92
   11    13    15     1    140.92678          1704.50
   12    11    13     1    172.41577           602.96
   13    14    15     1     49.74033          5898.60
   13    15    14     1     64.58110          3720.18
   13    15    16     1    160.87430          1833.38
   13    15    17     1    126.82878          1876.28
   14    13    15     1     65.67854          3625.86
   14    15    16     1     96.94960          1885.94
   14    15    17     1    167.46196          1220.46
   15    16    17     1     54.34519          8174.87
   15    17    16     1     54.28131          8053.96
   16    15    17     1     71.37352          5746.32

[ dihedrals ]
;  ai    aj    ak    al  funct   phi0(deg)        k(kJ/mol)   mult
    1     2     3     4     1     29.10440       15.692      1
    1     2     3     8     1    -81.92714       13.648      1
    1     2     8     3     1    103.15999       12.946      1
    1     2     8     9     1    -79.02188       17.144      1
    1     2    10    11     1    -41.08981       25.835      1
    1     2    10    13     1    -77.79795       21.953      1
    2     3     4     5     1   -114.03209       15.133      1
    2     3     4     7     1   -130.05350       10.783      1
    2     3     8     9     1    173.93454       15.070      1
    2     8     3     4     1    106.18821        7.728      1
    2    10    11    12     1    -52.13143       16.361      1
    2    10    11    13     1    123.85602       12.179      1
    2    10    13    11     1    -32.66717        9.256      1
    2    10    13    14     1    131.23032        9.984      1
    2    10    13    15     1    157.99936       15.050      1
    3     2     8     9     1     -4.92197       11.483      1
    3     2    10    11     1     45.90008       10.711      1
    3     2    10    13     1      5.91939       10.761      1
    3     4     5     6     1    -71.87865       13.728      1
    3     4     5     7     1     15.96790       13.694      1
    3     4     7     5     1   -161.83038       15.124      1
    3     8     2    10     1    -68.97329        5.586      1
    4     3     2     8     1    -66.02579        9.209      1
    4     3     2    10     1   -135.04047        7.058      1
    4     3     8     9     1     98.68350       15.745      1
    4     7     5     6     1    -79.87781        9.304      1
    5     4     3     8     1    -49.86221       15.078      1
    6     5     4     7     1     92.07284        6.270      1
    7     4     3     8     1    -66.62671       11.436      1
    8     2    10    11     1     -5.96395       10.718      1
    8     2    10    13     1    -46.89011       10.069      1
    8     3     2    10     1    108.17035        6.260      1
    9     8     2    10     1    107.96885       12.159      1
   10    11    13    14     1    141.08976       12.930      1
   10    11    13    15     1     -9.04559       14.380      1
   10    13    11    12     1    -44.84200       15.599      1
   10    13    14    15     1    -19.82511        9.315      1
   10    13    15    14     1    149.14194       12.930      1
   10    13    15    16     1    148.78050       22.787      1
   10    13    15    17     1    -26.91058       15.724      1
   11    10    13    14     1    -18.08443        7.817      1
   11    10    13    15     1      8.03607       13.668      1
   11    13    14    15     1     21.61903       15.033      1
   11    13    15    14     1    -15.07341       12.966      1
   11    13    15    16     1    -15.34754       23.882      1
   11    13    15    17     1    166.91257       17.079      1
   12    11    10    13     1      2.99568       12.909      1
   12    11    13    14     1    -78.21872       13.448      1
   12    11    13    15     1    127.25803       14.370      1
   13    14    15    16     1      1.04697       10.015      1
   13    14    15    17     1     -9.30813       26.082      1
   13    15    16    17     1      0.71973       21.368      1
   13    15    17    16     1     -0.98370       12.888      1
   14    13    15    16     1   -178.84364       23.445      1
   14    13    15    17     1      4.23855       10.748      1
   14    15    16    17     1      3.39464        8.547      1
   14    15    17    16     1   -173.44533       27.451      1
