[ moleculetype ]
; name        nrexcl
res           1

[ atoms ]
;    nr  type resnr resid  atom  cgnr     charge       mass
      1 SC4       1 res   C1        1      0.000     54.000
      2 SC5       1 res   C2        2      0.000     54.000
      3 SC4       1 res   C3        3      0.000     54.000
      4 TC3       1 res   C4        4      0.000     36.000
      5 SC4       1 res   C5        5      0.000     54.000
      6 SC4       1 res   C6        6      0.000     54.000
      7 TC3       1 res   C7        7      0.000     36.000
      8 TN6       1 res   C8        8      0.000     36.000
      9 TC4       1 res   C9        9      0.000     36.000
     10 TP1       1 res   C10      10      0.000     36.000
     11 TC3       1 res   C11      11      0.000     36.000
     12 TC3       1 res   C12      12      0.000     36.000
     13 SP2       1 res   C13      13      0.000     54.000
     14 SN6       1 res   C14      14      0.000     54.000
     15 SN4a      1 res   C15      15      0.000     54.000
     16 TP1       1 res   C16      16      0.000     36.000
     17 TN6       1 res   C17      17      0.000     36.000
     18 TN6       1 res   C18      18      0.000     36.000
     19 TN6       1 res   C19      19      0.000     36.000
     20 SN4a      1 res   C20      20      0.000     54.000
     21 TP1       1 res   C21      21      0.000     36.000
     22 TN6       1 res   C22      22      0.000     36.000
     23 TN6       1 res   C23      23      0.000     36.000
     24 TN6       1 res   C24      24      0.000     36.000

[ bonds ]
;  ai    aj   funct      b0(nm)        k
    1     2     1      0.28053    20000
    1    14     1      0.29876    20000
    2     3     1      0.30240    20000
    2    12     1      0.32008    20000
    2    13     1      0.38843    20000
    2    14     1      0.27255    20000
    3     4     1      0.34601    20000
    3     5     1      0.26718    20000
    3    12     1      0.31237    20000
    4     5     1      0.37708    20000
    5     6     1      0.25574    20000
    5    11     1      0.30115    20000
    6     7     1      0.31505    20000
    6     9     1      0.40617    20000
    6    11     1      0.36697    20000
    7     8     1      0.27573    20000
    8     9     1      0.27723    20000
    9    10     1      0.26231    20000
   14    15     1      0.38731    20000
   15    16     1      0.31405    20000
   15    17     1      0.29670    20000
   15    19     1      0.26214    20000
   17    18     1      0.24846    20000
   18    19     1      0.22656    20000
   19    20     1      0.24827    20000
   20    21     1      0.32549    20000
   20    22     1      0.29567    20000
   20    24     1      0.27391    20000
   22    23     1      0.24925    20000
   23    24     1      0.25511    20000
