1TPCN04557
23
    1res  C1    1   -0.009  -0.397  -0.003
    1res  C2    2    0.051  -0.084   0.218
    1res  C3    3   -0.147   0.083  -0.129
    1res  C4    4   -0.335  -0.149  -0.144
    1res  C5    5   -0.388   0.209  -0.068
    1res  C6    6   -0.601  -0.053   0.020
    1res  C7    7   -0.763  -0.035  -0.183
    1res  C8    8   -0.949   0.141  -0.072
    1res  C9    9   -0.850   0.026   0.176
    1res  C10   10   -0.822   0.311   0.167
    1res  C11   11   -0.466   0.113   0.192
    1res  C12   12   -0.021   0.151   0.095
    1res  C13   13    0.182  -0.089  -0.027
    1res  C14   14    0.317   0.107  -0.207
    1res  C15   15    0.529   0.235  -0.305
    1res  C16   16    0.607   0.123  -0.113
    1res  C17   17    0.800   0.009   0.065
    1res  C18   18    0.679   0.005   0.290
    1res  C19   19    1.009   0.025   0.206
    1res  C20   20    1.092   0.078   0.019
    1res  C21   21    0.943   0.075  -0.153
    1res  C22   22    0.515  -0.103  -0.109
    1res  C23   23    0.220  -0.292  -0.033
  10.00000  10.00000  10.00000
