[ moleculetype ]
; name        nrexcl
res           1

[ atoms ]
;    nr  type resnr resid  atom  cgnr     charge       mass
      1 SC4       1 res   C1        1      0.000     54.000
      2 TC3       1 res   C2        2      0.000     36.000
      3 TC5       1 res   C3        3      0.000     36.000
      4 SN4a      1 res   C4        4      0.000     54.000
      5 SN4a      1 res   C5        5      0.000     54.000
      6 TN3r      1 res   C6        6      0.000     36.000
      7 SN4a      1 res   C7        7      0.000     54.000
      8 TP1       1 res   C8        8      0.000     36.000
      9 TN6       1 res   C9        9      0.000     36.000
     10 TN4a      1 res   C10      10      0.000     36.000
     11 TC4       1 res   C11      11      0.000     36.000
     12 TN6       1 res   C12      12      0.000     36.000
     13 TN6       1 res   C13      13      0.000     36.000
     14 TN6       1 res   C14      14      0.000     36.000
     15 TN6       1 res   C15      15      0.000     36.000
     16 TN6       1 res   C16      16      0.000     36.000
     17 TN6       1 res   C17      17      0.000     36.000
     18 TN6       1 res   C18      18      0.000     36.000
     19 TN6       1 res   C19      19      0.000     36.000
     20 TC3       1 res   C20      20      0.000     36.000
     21 SC4       1 res   C21      21      0.000     54.000
     22 TC3       1 res   C22      22      0.000     36.000
     23 SC4       1 res   C23      23      0.000     54.000
     24 SC4       1 res   C24      24      0.000     54.000
     25 SC3       1 res   C25      25      0.000     54.000
     26 TN6       1 res   C26      26      0.000     36.000
     27 TN4a      1 res   C27      27      0.000     36.000
     28 TN6       1 res   C28      28      0.000     36.000
     29 TN6       1 res   C29      29      0.000     36.000
     30 TN6       1 res   C30      30      0.000     36.000
     31 TC4       1 res   C31      31      0.000     36.000
     32 TP1       1 res   C32      32      0.000     36.000
     33 TC3       1 res   C33      33      0.000     36.000

[ bonds ]
;  ai    aj   funct      b0(nm)        k
    1     2     1      0.29939    20000
    1     3     1      0.29833    20000
    2     3     1      0.29117    20000
    3     4     1      0.24143    20000
    3    20     1      0.28923    20000
    3    21     1      0.33186    20000
    4     5     1      0.28640    20000
    5     6     1      0.29122    20000
    5    17     1      0.24844    20000
    5    19     1      0.27657    20000
    6     7     1      0.33073    20000
    7     8     1      0.28598    20000
    7     9     1      0.26317    20000
    7    16     1      0.27301    20000
    9    10     1      0.21267    20000
    9    15     1      0.24501    20000
   10    11     1      0.25866    20000
   10    14     1      0.25886    20000
   11    12     1      0.27037    20000
   12    13     1      0.24613    20000
   13    14     1      0.24400    20000
   15    16     1      0.23261    20000
   17    18     1      0.28295    20000
   18    19     1      0.23853    20000
   20    21     1      0.30228    20000
   21    22     1      0.35648    20000
   21    23     1      0.27417    20000
   22    23     1      0.29109    20000
   23    24     1      0.36772    20000
   23    33     1      0.25185    20000
   24    25     1      0.29493    20000
   24    31     1      0.28730    20000
   24    33     1      0.36124    20000
   25    26     1      0.29155    20000
   25    31     1      0.33353    20000
   26    27     1      0.26338    20000
   26    30     1      0.21862    20000
   27    28     1      0.22366    20000
   28    29     1      0.21223    20000
   29    30     1      0.26546    20000
   31    32     1      0.28319    20000
