[ moleculetype ]
; name        nrexcl
res           1

[ atoms ]
;    nr  type resnr resid  atom  cgnr     charge       mass
      1 SN4a      1 res   C1        1      0.000     54.000
      2 SN6       1 res   C2        2      0.000     54.000
      3 TN4a      1 res   C3        3      0.000     36.000
      4 TP1       1 res   C4        4      0.000     36.000
      5 TN6       1 res   C5        5      0.000     36.000
      6 TC3       1 res   C6        6      0.000     36.000
      7 SC4       1 res   C7        7      0.000     54.000
      8 SC4       1 res   C8        8      0.000     54.000
      9 SC3       1 res   C9        9      0.000     54.000
     10 SN4a      1 res   C10      10      0.000     54.000
     11 SC4       1 res   C11      11      0.000     54.000
     12 TC3       1 res   C12      12      0.000     36.000
     13 SC3       1 res   C13      13      0.000     54.000
     14 SC2       1 res   C14      14      0.000     54.000
     15 SC2       1 res   C15      15      0.000     54.000
     16 P4        1 res   C16      16      0.000     72.000
     17 P1        1 res   C17      17      0.000     72.000
     18 TN6       1 res   C18      18      0.000     36.000

[ bonds ]
;  ai    aj   funct      b0(nm)        k
    1     2     1      0.36586    20000
    2     3     1      0.28744    20000
    2    18     1      0.24280    20000
    3     4     1      0.24168    20000
    3     5     1      0.23468    20000
    5     6     1      0.22413    20000
    5    18     1      0.21108    20000
    6     7     1      0.35234    20000
    6    11     1      0.25979    20000
    7     8     1      0.39272    20000
    7     9     1      0.28224    20000
    7    11     1      0.27791    20000
    8     9     1      0.32362    20000
    9    10     1      0.41668    20000
   11    12     1      0.31206    20000
   11    13     1      0.32038    20000
   12    13     1      0.30338    20000
   13    14     1      0.26491    20000
   14    15     1      0.33051    20000
   15    16     1      0.29801    20000
   16    17     1      0.26670    20000
