Generated with MDTraj, t= 0.0
 85
    1UNL     C1    1  -0.453   0.109   0.103
    1UNL     C2    2  -0.421   0.012   0.018
    1UNL     C3    3  -0.319   0.035  -0.089
    1UNL     O1    4  -0.200  -0.038  -0.066
    1UNL     C4    5  -0.101  -0.007  -0.163
    1UNL     O2    6  -0.085   0.134  -0.182
    1UNL     C5    7  -0.043   0.200  -0.062
    1UNL     C6    8  -0.046   0.352  -0.080
    1UNL     O3    9  -0.067   0.420   0.041
    1UNL     C7   10  -0.194   0.398   0.085
    1UNL     O4   11  -0.275   0.332   0.024
    1UNL     C8   12  -0.227   0.457   0.218
    1UNL     C9   13  -0.374   0.477   0.237
    1UNL     O5   14  -0.423   0.587   0.219
    1UNL     O6   15  -0.448   0.371   0.275
    1UNL    C10   16   0.094   0.147  -0.013
    1UNL     O7   17   0.135   0.213   0.105
    1UNL    C11   18   0.083  -0.006   0.007
    1UNL     O8   19   0.197  -0.071   0.060
    1UNL    C12   20   0.035  -0.071  -0.125
    1UNL     O9   21   0.124  -0.056  -0.237
    1UNL    C13   22   0.262  -0.063  -0.208
    1UNL    O10   23   0.319   0.056  -0.153
    1UNL    C14   24   0.444   0.029  -0.088
    1UNL    C15   25   0.512   0.159  -0.045
    1UNL    O11   26   0.592   0.136   0.068
    1UNL    C16   27   0.513   0.104   0.175
    1UNL    O12   28   0.393   0.116   0.179
    1UNL    C17   29   0.585   0.044   0.292
    1UNL    C18   30   0.587  -0.106   0.282
    1UNL    O13   31   0.577  -0.161   0.175
    1UNL    O14   32   0.603  -0.173   0.397
    1UNL    C19   33   0.537  -0.069  -0.166
    1UNL    O15   34   0.536  -0.197  -0.104
    1UNL    C20   35   0.497  -0.082  -0.316
    1UNL    O16   36   0.542   0.028  -0.393
    1UNL    C21   37   0.343  -0.102  -0.335
    1UNL    O17   38   0.312  -0.235  -0.373
    1UNL    C22   39  -0.481  -0.125   0.032
    1UNL    C23   40  -0.578  -0.160  -0.084
    1UNL    C24   41  -0.624  -0.302  -0.079
    1UNL    C25   42  -0.561  -0.399  -0.013
    1UNL    C26   43  -0.616  -0.537  -0.015
    1UNL    C27   44  -0.435  -0.374   0.067
    1UNL    C28   45  -0.373  -0.235   0.044
    1UNL     H1   46  -0.523   0.094   0.182
    1UNL     H2   47  -0.406   0.205   0.096
    1UNL     H3   48  -0.358   0.007  -0.187
    1UNL     H4   49  -0.292   0.142  -0.094
    1UNL     H5   50  -0.135  -0.047  -0.259
    1UNL     H6   51  -0.117   0.174   0.015
    1UNL     H7   52   0.048   0.388  -0.124
    1UNL     H8   53  -0.128   0.380  -0.147
    1UNL     H9   54  -0.189   0.391   0.297
    1UNL    H10   55  -0.176   0.553   0.229
    1UNL    H11   56  -0.540   0.402   0.283
    1UNL    H12   57   0.169   0.167  -0.091
    1UNL    H13   58   0.226   0.185   0.133
    1UNL    H14   59   0.004  -0.022   0.083
    1UNL    H15   60   0.256  -0.008   0.108
    1UNL    H16   61   0.024  -0.179  -0.110
    1UNL    H17   62   0.275  -0.143  -0.133
    1UNL    H18   63   0.416  -0.024   0.004
    1UNL    H19   64   0.437   0.235  -0.017
    1UNL    H20   65   0.574   0.201  -0.125
    1UNL    H21   66   0.687   0.082   0.295
    1UNL    H22   67   0.536   0.073   0.384
    1UNL    H23   68   0.603  -0.268   0.375
    1UNL    H24   69   0.640  -0.032  -0.160
    1UNL    H25   70   0.553  -0.189  -0.007
    1UNL    H26   71   0.544  -0.173  -0.357
    1UNL    H27   72   0.639   0.039  -0.385
    1UNL    H28   73   0.311  -0.036  -0.417
    1UNL    H29   74   0.215  -0.247  -0.375
    1UNL    H30   75  -0.539  -0.128   0.125
    1UNL    H31   76  -0.527  -0.143  -0.179
    1UNL    H32   77  -0.663  -0.092  -0.083
    1UNL    H33   78  -0.714  -0.327  -0.132
    1UNL    H34   79  -0.616  -0.577  -0.116
    1UNL    H35   80  -0.558  -0.604   0.048
    1UNL    H36   81  -0.719  -0.538   0.021
    1UNL    H37   82  -0.458  -0.387   0.173
    1UNL    H38   83  -0.362  -0.452   0.043
    1UNL    H39   84  -0.302  -0.209   0.123
    1UNL    H40   85  -0.314  -0.236  -0.049
   0.00000   0.00000   0.00000   0.00000   0.00000   0.00000   0.00000   0.00000   0.00000
Generated with MDTraj, t= 1.0
 85
    1UNL     C1    1  -0.448   0.121   0.096
    1UNL     C2    2  -0.420   0.021   0.010
    1UNL     C3    3  -0.318   0.049  -0.096
    1UNL     O1    4  -0.203  -0.040  -0.078
    1UNL     C4    5  -0.098  -0.008  -0.171
    1UNL     O2    6  -0.077   0.133  -0.188
    1UNL     C5    7  -0.036   0.200  -0.067
    1UNL     C6    8  -0.037   0.356  -0.098
    1UNL     O3    9  -0.064   0.417   0.021
    1UNL     C7   10  -0.188   0.399   0.074
    1UNL     O4   11  -0.278   0.345   0.009
    1UNL     C8   12  -0.226   0.454   0.220
    1UNL     C9   13  -0.370   0.459   0.240
    1UNL     O5   14  -0.432   0.561   0.237
    1UNL     O6   15  -0.435   0.339   0.268
    1UNL    C10   16   0.102   0.147  -0.020
    1UNL     O7   17   0.142   0.224   0.098
    1UNL    C11   18   0.076  -0.006   0.007
    1UNL     O8   19   0.181  -0.069   0.080
    1UNL    C12   20   0.035  -0.077  -0.122
    1UNL     O9   21   0.129  -0.067  -0.232
    1UNL    C13   22   0.260  -0.065  -0.194
    1UNL    O10   23   0.314   0.054  -0.144
    1UNL    C14   24   0.452   0.035  -0.086
    1UNL    C15   25   0.510   0.170  -0.041
    1UNL    O11   26   0.594   0.145   0.071
    1UNL    C16   27   0.524   0.102   0.179
    1UNL    O12   28   0.403   0.112   0.188
    1UNL    C17   29   0.594   0.042   0.286
    1UNL    C18   30   0.589  -0.106   0.281
    1UNL    O13   31   0.557  -0.162   0.178
    1UNL    O14   32   0.640  -0.173   0.389
    1UNL    C19   33   0.544  -0.069  -0.160
    1UNL    O15   34   0.529  -0.193  -0.099
    1UNL    C20   35   0.493  -0.087  -0.305
    1UNL    O16   36   0.530   0.029  -0.386
    1UNL    C21   37   0.337  -0.104  -0.320
    1UNL    O17   38   0.302  -0.229  -0.366
    1UNL    C22   39  -0.489  -0.117   0.034
    1UNL    C23   40  -0.614  -0.147  -0.061
    1UNL    C24   41  -0.647  -0.300  -0.059
    1UNL    C25   42  -0.568  -0.400  -0.008
    1UNL    C26   43  -0.605  -0.544  -0.012
    1UNL    C27   44  -0.431  -0.372   0.044
    1UNL    C28   45  -0.379  -0.230   0.011
    1UNL     H1   46  -0.490   0.099   0.199
    1UNL     H2   47  -0.410   0.216   0.094
    1UNL     H3   48  -0.354   0.041  -0.202
    1UNL     H4   49  -0.290   0.158  -0.086
    1UNL     H5   50  -0.124  -0.051  -0.272
    1UNL     H6   51  -0.113   0.180   0.005
    1UNL     H7   52   0.051   0.397  -0.145
    1UNL     H8   53  -0.118   0.370  -0.165
    1UNL     H9   54  -0.182   0.379   0.284
    1UNL    H10   55  -0.174   0.545   0.238
    1UNL    H11   56  -0.535   0.343   0.276
    1UNL    H12   57   0.178   0.162  -0.095
    1UNL    H13   58   0.230   0.194   0.130
    1UNL    H14   59  -0.008   0.003   0.077
    1UNL    H15   60   0.238  -0.009   0.136
    1UNL    H16   61   0.011  -0.181  -0.112
    1UNL    H17   62   0.270  -0.136  -0.110
    1UNL    H18   63   0.437  -0.010   0.014
    1UNL    H19   64   0.437   0.240   0.000
    1UNL    H20   65   0.560   0.216  -0.123
    1UNL    H21   66   0.695   0.085   0.279
    1UNL    H22   67   0.554   0.071   0.377
    1UNL    H23   68   0.677  -0.266   0.366
    1UNL    H24   69   0.646  -0.048  -0.133
    1UNL    H25   70   0.555  -0.186  -0.004
    1UNL    H26   71   0.539  -0.183  -0.343
    1UNL    H27   72   0.620   0.055  -0.390
    1UNL    H28   73   0.324  -0.032  -0.401
    1UNL    H29   74   0.202  -0.246  -0.348
    1UNL    H30   75  -0.523  -0.141   0.135
    1UNL    H31   76  -0.597  -0.109  -0.163
    1UNL    H32   77  -0.692  -0.092  -0.020
    1UNL    H33   78  -0.742  -0.328  -0.096
    1UNL    H34   79  -0.677  -0.558  -0.084
    1UNL    H35   80  -0.526  -0.614  -0.026
    1UNL    H36   81  -0.664  -0.565   0.087
    1UNL    H37   82  -0.422  -0.386   0.152
    1UNL    H38   83  -0.357  -0.442  -0.001
    1UNL    H39   84  -0.295  -0.207   0.077
    1UNL    H40   85  -0.337  -0.232  -0.092
   0.00000   0.00000   0.00000   0.00000   0.00000   0.00000   0.00000   0.00000   0.00000
Generated with MDTraj, t= 2.0
 85
    1UNL     C1    1  -0.478   0.123   0.060
    1UNL     C2    2  -0.429   0.015   0.003
    1UNL     C3    3  -0.323   0.045  -0.095
    1UNL     O1    4  -0.199  -0.023  -0.060
    1UNL     C4    5  -0.106  -0.003  -0.163
    1UNL     O2    6  -0.097   0.135  -0.184
    1UNL     C5    7  -0.048   0.198  -0.063
    1UNL     C6    8  -0.036   0.353  -0.088
    1UNL     O3    9  -0.065   0.427   0.021
    1UNL     C7   10  -0.193   0.414   0.062
    1UNL     O4   11  -0.276   0.350   0.002
    1UNL     C8   12  -0.227   0.457   0.198
    1UNL     C9   13  -0.367   0.454   0.245
    1UNL     O5   14  -0.442   0.547   0.255
    1UNL     O6   15  -0.412   0.331   0.279
    1UNL    C10   16   0.091   0.155  -0.015
    1UNL     O7   17   0.135   0.222   0.108
    1UNL    C11   18   0.080   0.005   0.004
    1UNL     O8   19   0.194  -0.059   0.062
    1UNL    C12   20   0.027  -0.064  -0.122
    1UNL     O9   21   0.123  -0.057  -0.235
    1UNL    C13   22   0.259  -0.069  -0.203
    1UNL    O10   23   0.310   0.049  -0.149
    1UNL    C14   24   0.438   0.024  -0.084
    1UNL    C15   25   0.504   0.151  -0.041
    1UNL    O11   26   0.591   0.125   0.065
    1UNL    C16   27   0.520   0.105   0.177
    1UNL    O12   28   0.398   0.122   0.188
    1UNL    C17   29   0.590   0.045   0.297
    1UNL    C18   30   0.613  -0.097   0.278
    1UNL    O13   31   0.567  -0.164   0.186
    1UNL    O14   32   0.659  -0.154   0.390
    1UNL    C19   33   0.539  -0.078  -0.152
    1UNL    O15   34   0.530  -0.212  -0.101
    1UNL    C20   35   0.501  -0.083  -0.303
    1UNL    O16   36   0.548   0.033  -0.376
    1UNL    C21   37   0.353  -0.109  -0.332
    1UNL    O17   38   0.330  -0.241  -0.370
    1UNL    C22   39  -0.468  -0.126   0.035
    1UNL    C23   40  -0.604  -0.147  -0.034
    1UNL    C24   41  -0.656  -0.290  -0.036
    1UNL    C25   42  -0.580  -0.395  -0.002
    1UNL    C26   43  -0.634  -0.536  -0.018
    1UNL    C27   44  -0.429  -0.384   0.022
    1UNL    C28   45  -0.363  -0.237  -0.004
    1UNL     H1   46  -0.567   0.111   0.124
    1UNL     H2   47  -0.440   0.221   0.051
    1UNL     H3   48  -0.370   0.016  -0.195
    1UNL     H4   49  -0.302   0.159  -0.106
    1UNL     H5   50  -0.139  -0.046  -0.264
    1UNL     H6   51  -0.124   0.186   0.012
    1UNL     H7   52   0.057   0.382  -0.138
    1UNL     H8   53  -0.109   0.376  -0.160
    1UNL     H9   54  -0.157   0.398   0.257
    1UNL    H10   55  -0.199   0.560   0.198
    1UNL    H11   56  -0.495   0.326   0.330
    1UNL    H12   57   0.170   0.174  -0.086
    1UNL    H13   58   0.226   0.187   0.143
    1UNL    H14   59   0.004  -0.012   0.082
    1UNL    H15   60   0.244  -0.021   0.138
    1UNL    H16   61   0.001  -0.164  -0.104
    1UNL    H17   62   0.258  -0.149  -0.126
    1UNL    H18   63   0.391  -0.016   0.008
    1UNL    H19   64   0.435   0.233  -0.018
    1UNL    H20   65   0.570   0.180  -0.120
    1UNL    H21   66   0.682   0.089   0.328
    1UNL    H22   67   0.530   0.060   0.380
    1UNL    H23   68   0.659  -0.256   0.374
    1UNL    H24   69   0.639  -0.047  -0.146
    1UNL    H25   70   0.543  -0.209   0.001
    1UNL    H26   71   0.564  -0.171  -0.342
    1UNL    H27   72   0.642   0.056  -0.373
    1UNL    H28   73   0.317  -0.048  -0.417
    1UNL    H29   74   0.233  -0.262  -0.350
    1UNL    H30   75  -0.485  -0.142   0.141
    1UNL    H31   76  -0.590  -0.101  -0.134
    1UNL    H32   77  -0.673  -0.092   0.017
    1UNL    H33   78  -0.764  -0.309  -0.068
    1UNL    H34   79  -0.728  -0.547  -0.064
    1UNL    H35   80  -0.571  -0.601  -0.071
    1UNL    H36   81  -0.647  -0.581   0.086
    1UNL    H37   82  -0.397  -0.411   0.122
    1UNL    H38   83  -0.381  -0.459  -0.050
    1UNL    H39   84  -0.269  -0.233   0.051
    1UNL    H40   85  -0.338  -0.215  -0.111
   0.00000   0.00000   0.00000   0.00000   0.00000   0.00000   0.00000   0.00000   0.00000
Generated with MDTraj, t= 3.0
 85
    1UNL     C1    1  -0.466   0.118   0.079
    1UNL     C2    2  -0.426   0.020  -0.003
    1UNL     C3    3  -0.317   0.044  -0.111
    1UNL     O1    4  -0.208  -0.034  -0.080
    1UNL     C4    5  -0.102  -0.013  -0.174
    1UNL     O2    6  -0.089   0.137  -0.187
    1UNL     C5    7  -0.047   0.198  -0.066
    1UNL     C6    8  -0.051   0.353  -0.093
    1UNL     O3    9  -0.070   0.413   0.027
    1UNL     C7   10  -0.200   0.406   0.076
    1UNL     O4   11  -0.287   0.345   0.015
    1UNL     C8   12  -0.231   0.489   0.199
    1UNL     C9   13  -0.371   0.457   0.256
    1UNL     O5   14  -0.462   0.536   0.257
    1UNL     O6   15  -0.384   0.327   0.301
    1UNL    C10   16   0.092   0.145  -0.015
    1UNL     O7   17   0.141   0.213   0.100
    1UNL    C11   18   0.083  -0.003   0.001
    1UNL     O8   19   0.196  -0.061   0.056
    1UNL    C12   20   0.038  -0.076  -0.130
    1UNL     O9   21   0.135  -0.060  -0.238
    1UNL    C13   22   0.271  -0.063  -0.204
    1UNL    O10   23   0.330   0.061  -0.163
    1UNL    C14   24   0.447   0.034  -0.082
    1UNL    C15   25   0.520   0.154  -0.041
    1UNL    O11   26   0.598   0.139   0.075
    1UNL    C16   27   0.515   0.104   0.180
    1UNL    O12   28   0.393   0.115   0.182
    1UNL    C17   29   0.575   0.052   0.311
    1UNL    C18   30   0.614  -0.097   0.288
    1UNL    O13   31   0.588  -0.154   0.182
    1UNL    O14   32   0.675  -0.149   0.396
    1UNL    C19   33   0.534  -0.076  -0.147
    1UNL    O15   34   0.509  -0.206  -0.087
    1UNL    C20   35   0.505  -0.091  -0.303
    1UNL    O16   36   0.543   0.017  -0.379
    1UNL    C21   37   0.355  -0.113  -0.331
    1UNL    O17   38   0.316  -0.247  -0.368
    1UNL    C22   39  -0.476  -0.121   0.018
    1UNL    C23   40  -0.619  -0.140  -0.030
    1UNL    C24   41  -0.663  -0.284  -0.025
    1UNL    C25   42  -0.584  -0.390  -0.001
    1UNL    C26   43  -0.635  -0.533  -0.002
    1UNL    C27   44  -0.437  -0.374   0.010
    1UNL    C28   45  -0.386  -0.236  -0.037
    1UNL     H1   46  -0.546   0.099   0.141
    1UNL     H2   47  -0.405   0.215   0.091
    1UNL     H3   48  -0.361   0.020  -0.214
    1UNL     H4   49  -0.291   0.157  -0.114
    1UNL     H5   50  -0.132  -0.041  -0.281
    1UNL     H6   51  -0.128   0.191   0.001
    1UNL     H7   52   0.037   0.387  -0.152
    1UNL     H8   53  -0.129   0.376  -0.162
    1UNL     H9   54  -0.156   0.474   0.277
    1UNL    H10   55  -0.232   0.592   0.172
    1UNL    H11   56  -0.476   0.318   0.328
    1UNL    H12   57   0.161   0.172  -0.093
    1UNL    H13   58   0.228   0.184   0.126
    1UNL    H14   59   0.004  -0.020   0.076
    1UNL    H15   60   0.270  -0.007   0.094
    1UNL    H16   61   0.028  -0.177  -0.106
    1UNL    H17   62   0.272  -0.144  -0.126
    1UNL    H18   63   0.397  -0.006   0.008
    1UNL    H19   64   0.449   0.239  -0.023
    1UNL    H20   65   0.595   0.182  -0.114
    1UNL    H21   66   0.650   0.115   0.342
    1UNL    H22   67   0.509   0.057   0.393
    1UNL    H23   68   0.697  -0.244   0.379
    1UNL    H24   69   0.634  -0.054  -0.139
    1UNL    H25   70   0.522  -0.197   0.005
    1UNL    H26   71   0.565  -0.181  -0.340
    1UNL    H27   72   0.641   0.032  -0.360
    1UNL    H28   73   0.327  -0.066  -0.428
    1UNL    H29   74   0.225  -0.278  -0.359
    1UNL    H30   75  -0.476  -0.124   0.127
    1UNL    H31   76  -0.625  -0.110  -0.135
    1UNL    H32   77  -0.680  -0.080   0.027
    1UNL    H33   78  -0.762  -0.302  -0.036
    1UNL    H34   79  -0.733  -0.548  -0.050
    1UNL    H35   80  -0.567  -0.597  -0.053
    1UNL    H36   81  -0.639  -0.566   0.096
    1UNL    H37   82  -0.410  -0.402   0.115
    1UNL    H38   83  -0.392  -0.455  -0.055
    1UNL    H39   84  -0.282  -0.213  -0.022
    1UNL    H40   85  -0.400  -0.236  -0.150
   0.00000   0.00000   0.00000   0.00000   0.00000   0.00000   0.00000   0.00000   0.00000
Generated with MDTraj, t= 4.0
 85
    1UNL     C1    1  -0.441   0.111   0.079
    1UNL     C2    2  -0.412   0.009  -0.002
    1UNL     C3    3  -0.317   0.021  -0.116
    1UNL     O1    4  -0.200  -0.045  -0.101
    1UNL     C4    5  -0.095   0.001  -0.186
    1UNL     O2    6  -0.078   0.141  -0.195
    1UNL     C5    7  -0.041   0.200  -0.075
    1UNL     C6    8  -0.047   0.357  -0.081
    1UNL     O3    9  -0.067   0.423   0.039
    1UNL     C7   10  -0.204   0.408   0.073
    1UNL     O4   11  -0.288   0.349   0.006
    1UNL     C8   12  -0.247   0.496   0.192
    1UNL     C9   13  -0.373   0.448   0.266
    1UNL     O5   14  -0.477   0.512   0.263
    1UNL     O6   15  -0.358   0.334   0.327
    1UNL    C10   16   0.094   0.147  -0.026
    1UNL     O7   17   0.141   0.200   0.099
    1UNL    C11   18   0.069  -0.003  -0.007
    1UNL     O8   19   0.173  -0.071   0.064
    1UNL    C12   20   0.037  -0.060  -0.145
    1UNL     O9   21   0.132  -0.045  -0.249
    1UNL    C13   22   0.265  -0.053  -0.212
    1UNL    O10   23   0.322   0.060  -0.155
    1UNL    C14   24   0.448   0.028  -0.080
    1UNL    C15   25   0.510   0.160  -0.038
    1UNL    O11   26   0.598   0.142   0.072
    1UNL    C16   27   0.515   0.111   0.177
    1UNL    O12   28   0.394   0.120   0.174
    1UNL    C17   29   0.583   0.057   0.295
    1UNL    C18   30   0.608  -0.091   0.288
    1UNL    O13   31   0.594  -0.161   0.191
    1UNL    O14   32   0.683  -0.137   0.394
    1UNL    C19   33   0.537  -0.079  -0.144
    1UNL    O15   34   0.540  -0.204  -0.073
    1UNL    C20   35   0.505  -0.101  -0.299
    1UNL    O16   36   0.564  -0.004  -0.378
    1UNL    C21   37   0.355  -0.107  -0.327
    1UNL    O17   38   0.310  -0.241  -0.353
    1UNL    C22   39  -0.476  -0.129   0.021
    1UNL    C23   40  -0.623  -0.145  -0.025
    1UNL    C24   41  -0.681  -0.281  -0.016
    1UNL    C25   42  -0.603  -0.389  -0.009
    1UNL    C26   43  -0.659  -0.520   0.018
    1UNL    C27   44  -0.448  -0.374  -0.020
    1UNL    C28   45  -0.391  -0.241  -0.034
    1UNL     H1   46  -0.486   0.103   0.170
    1UNL     H2   47  -0.394   0.206   0.049
    1UNL     H3   48  -0.365  -0.011  -0.214
    1UNL     H4   49  -0.300   0.134  -0.131
    1UNL     H5   50  -0.119  -0.021  -0.296
    1UNL     H6   51  -0.121   0.172  -0.014
    1UNL     H7   52   0.053   0.388  -0.129
    1UNL     H8   53  -0.112   0.388  -0.164
    1UNL     H9   54  -0.178   0.512   0.274
    1UNL    H10   55  -0.267   0.596   0.164
    1UNL    H11   56  -0.449   0.317   0.364
    1UNL    H12   57   0.177   0.162  -0.094
    1UNL    H13   58   0.238   0.174   0.112
    1UNL    H14   59  -0.019  -0.008   0.060
    1UNL    H15   60   0.193  -0.038   0.155
    1UNL    H16   61   0.019  -0.162  -0.134
    1UNL    H17   62   0.252  -0.120  -0.122
    1UNL    H18   63   0.415  -0.023   0.013
    1UNL    H19   64   0.441   0.236   0.016
    1UNL    H20   65   0.560   0.209  -0.122
    1UNL    H21   66   0.667   0.102   0.329
    1UNL    H22   67   0.515   0.075   0.376
    1UNL    H23   68   0.714  -0.226   0.381
    1UNL    H24   69   0.630  -0.035  -0.132
    1UNL    H25   70   0.550  -0.185   0.030
    1UNL    H26   71   0.550  -0.196  -0.337
    1UNL    H27   72   0.666  -0.004  -0.365
    1UNL    H28   73   0.337  -0.031  -0.407
    1UNL    H29   74   0.216  -0.234  -0.338
    1UNL    H30   75  -0.492  -0.129   0.129
    1UNL    H31   76  -0.618  -0.122  -0.129
    1UNL    H32   77  -0.692  -0.078   0.022
    1UNL    H33   78  -0.793  -0.290   0.001
    1UNL    H34   79  -0.738  -0.539  -0.060
    1UNL    H35   80  -0.582  -0.593   0.011
    1UNL    H36   81  -0.696  -0.517   0.111
    1UNL    H37   82  -0.414  -0.414   0.082
    1UNL    H38   83  -0.413  -0.454  -0.091
    1UNL    H39   84  -0.289  -0.242   0.009
    1UNL    H40   85  -0.372  -0.205  -0.140
   0.00000   0.00000   0.00000   0.00000   0.00000   0.00000   0.00000   0.00000   0.00000
Generated with MDTraj, t= 5.0
 85
    1UNL     C1    1  -0.444   0.092   0.087
    1UNL     C2    2  -0.410  -0.001   0.002
    1UNL     C3    3  -0.321   0.028  -0.113
    1UNL     O1    4  -0.204  -0.042  -0.096
    1UNL     C4    5  -0.106   0.002  -0.189
    1UNL     O2    6  -0.089   0.148  -0.193
    1UNL     C5    7  -0.046   0.208  -0.071
    1UNL     C6    8  -0.057   0.361  -0.075
    1UNL     O3    9  -0.077   0.436   0.037
    1UNL     C7   10  -0.209   0.424   0.068
    1UNL     O4   11  -0.293   0.375  -0.001
    1UNL     C8   12  -0.242   0.493   0.187
    1UNL     C9   13  -0.359   0.428   0.261
    1UNL     O5   14  -0.474   0.470   0.251
    1UNL     O6   15  -0.325   0.321   0.335
    1UNL    C10   16   0.078   0.154  -0.011
    1UNL     O7   17   0.110   0.205   0.117
    1UNL    C11   18   0.075  -0.006  -0.009
    1UNL     O8   19   0.203  -0.062   0.031
    1UNL    C12   20   0.035  -0.058  -0.152
    1UNL     O9   21   0.130  -0.052  -0.256
    1UNL    C13   22   0.264  -0.059  -0.215
    1UNL    O10   23   0.329   0.052  -0.165
    1UNL    C14   24   0.450   0.028  -0.079
    1UNL    C15   25   0.511   0.153  -0.035
    1UNL    O11   26   0.601   0.130   0.081
    1UNL    C16   27   0.517   0.106   0.184
    1UNL    O12   28   0.397   0.107   0.186
    1UNL    C17   29   0.598   0.069   0.303
    1UNL    C18   30   0.629  -0.078   0.301
    1UNL    O13   31   0.591  -0.145   0.209
    1UNL    O14   32   0.692  -0.124   0.411
    1UNL    C19   33   0.542  -0.078  -0.153
    1UNL    O15   34   0.527  -0.198  -0.072
    1UNL    C20   35   0.508  -0.100  -0.305
    1UNL    O16   36   0.579  -0.018  -0.394
    1UNL    C21   37   0.350  -0.101  -0.334
    1UNL    O17   38   0.328  -0.241  -0.368
    1UNL    C22   39  -0.477  -0.133   0.018
    1UNL    C23   40  -0.618  -0.135  -0.041
    1UNL    C24   41  -0.680  -0.267  -0.005
    1UNL    C25   42  -0.613  -0.382  -0.007
    1UNL    C26   43  -0.689  -0.506   0.021
    1UNL    C27   44  -0.464  -0.384  -0.012
    1UNL    C28   45  -0.400  -0.252  -0.048
    1UNL     H1   46  -0.505   0.073   0.180
    1UNL     H2   47  -0.410   0.191   0.065
    1UNL     H3   48  -0.359   0.010  -0.217
    1UNL     H4   49  -0.290   0.136  -0.128
    1UNL     H5   50  -0.131  -0.028  -0.294
    1UNL     H6   51  -0.124   0.186  -0.006
    1UNL     H7   52   0.034   0.403  -0.133
    1UNL     H8   53  -0.136   0.388  -0.151
    1UNL     H9   54  -0.158   0.505   0.253
    1UNL    H10   55  -0.274   0.590   0.157
    1UNL    H11   56  -0.415   0.292   0.370
    1UNL    H12   57   0.168   0.170  -0.074
    1UNL    H13   58   0.205   0.178   0.138
    1UNL    H14   59  -0.006  -0.036   0.059
    1UNL    H15   60   0.235  -0.020   0.113
    1UNL    H16   61   0.017  -0.162  -0.142
    1UNL    H17   62   0.278  -0.140  -0.141
    1UNL    H18   63   0.410  -0.026   0.010
    1UNL    H19   64   0.422   0.216  -0.000
    1UNL    H20   65   0.570   0.206  -0.109
    1UNL    H21   66   0.684   0.129   0.318
    1UNL    H22   67   0.541   0.086   0.390
    1UNL    H23   68   0.692  -0.218   0.417
    1UNL    H24   69   0.641  -0.050  -0.134
    1UNL    H25   70   0.546  -0.182   0.018
    1UNL    H26   71   0.528  -0.204  -0.336
    1UNL    H27   72   0.677  -0.029  -0.373
    1UNL    H28   73   0.343  -0.043  -0.429
    1UNL    H29   74   0.231  -0.259  -0.359
    1UNL    H30   75  -0.483  -0.157   0.126
    1UNL    H31   76  -0.616  -0.132  -0.144
    1UNL    H32   77  -0.676  -0.049  -0.004
    1UNL    H33   78  -0.782  -0.273   0.027
    1UNL    H34   79  -0.741  -0.543  -0.066
    1UNL    H35   80  -0.630  -0.581   0.065
    1UNL    H36   81  -0.763  -0.481   0.100
    1UNL    H37   82  -0.437  -0.409   0.099
    1UNL    H38   83  -0.434  -0.476  -0.069
    1UNL    H39   84  -0.295  -0.240  -0.017
    1UNL    H40   85  -0.394  -0.261  -0.162
   0.00000   0.00000   0.00000   0.00000   0.00000   0.00000   0.00000   0.00000   0.00000
Generated with MDTraj, t= 6.0
 85
    1UNL     C1    1  -0.438   0.117   0.073
    1UNL     C2    2  -0.417   0.014  -0.005
    1UNL     C3    3  -0.323   0.021  -0.121
    1UNL     O1    4  -0.198  -0.042  -0.081
    1UNL     C4    5  -0.093  -0.009  -0.171
    1UNL     O2    6  -0.072   0.132  -0.189
    1UNL     C5    7  -0.046   0.199  -0.067
    1UNL     C6    8  -0.044   0.353  -0.088
    1UNL     O3    9  -0.077   0.420   0.037
    1UNL     C7   10  -0.213   0.404   0.059
    1UNL     O4   11  -0.287   0.347  -0.018
    1UNL     C8   12  -0.259   0.481   0.187
    1UNL     C9   13  -0.348   0.406   0.272
    1UNL     O5   14  -0.466   0.421   0.257
    1UNL     O6   15  -0.297   0.309   0.346
    1UNL    C10   16   0.095   0.146  -0.021
    1UNL     O7   17   0.138   0.220   0.089
    1UNL    C11   18   0.079  -0.006   0.003
    1UNL     O8   19   0.185  -0.078   0.058
    1UNL    C12   20   0.042  -0.067  -0.133
    1UNL     O9   21   0.133  -0.041  -0.242
    1UNL    C13   22   0.276  -0.053  -0.220
    1UNL    O10   23   0.332   0.067  -0.170
    1UNL    C14   24   0.446   0.037  -0.084
    1UNL    C15   25   0.514   0.158  -0.041
    1UNL    O11   26   0.590   0.139   0.077
    1UNL    C16   27   0.503   0.114   0.180
    1UNL    O12   28   0.385   0.128   0.170
    1UNL    C17   29   0.561   0.063   0.310
    1UNL    C18   30   0.623  -0.077   0.293
    1UNL    O13   31   0.615  -0.153   0.200
    1UNL    O14   32   0.681  -0.115   0.412
    1UNL    C19   33   0.540  -0.071  -0.144
    1UNL    O15   34   0.536  -0.194  -0.063
    1UNL    C20   35   0.513  -0.105  -0.293
    1UNL    O16   36   0.573  -0.011  -0.384
    1UNL    C21   37   0.359  -0.106  -0.339
    1UNL    O17   38   0.310  -0.235  -0.393
    1UNL    C22   39  -0.490  -0.114   0.015
    1UNL    C23   40  -0.632  -0.124  -0.037
    1UNL    C24   41  -0.696  -0.257  -0.012
    1UNL    C25   42  -0.623  -0.369  -0.010
    1UNL    C26   43  -0.693  -0.497   0.014
    1UNL    C27   44  -0.477  -0.374   0.010
    1UNL    C28   45  -0.409  -0.235  -0.039
    1UNL     H1   46  -0.510   0.107   0.158
    1UNL     H2   47  -0.394   0.204   0.053
    1UNL     H3   48  -0.356  -0.019  -0.217
    1UNL     H4   49  -0.297   0.121  -0.160
    1UNL     H5   50  -0.114  -0.043  -0.274
    1UNL     H6   51  -0.130   0.187  -0.007
    1UNL     H7   52   0.057   0.392  -0.126
    1UNL     H8   53  -0.110   0.397  -0.166
    1UNL     H9   54  -0.168   0.511   0.235
    1UNL    H10   55  -0.310   0.569   0.150
    1UNL    H11   56  -0.370   0.251   0.378
    1UNL    H12   57   0.166   0.154  -0.107
    1UNL    H13   58   0.225   0.199   0.123
    1UNL    H14   59  -0.009  -0.008   0.067
    1UNL    H15   60   0.222  -0.011   0.119
    1UNL    H16   61   0.040  -0.174  -0.114
    1UNL    H17   62   0.286  -0.121  -0.137
    1UNL    H18   63   0.386  -0.013  -0.006
    1UNL    H19   64   0.447   0.249  -0.040
    1UNL    H20   65   0.595   0.169  -0.112
    1UNL    H21   66   0.642   0.131   0.344
    1UNL    H22   67   0.494   0.076   0.390
    1UNL    H23   68   0.709  -0.205   0.394
    1UNL    H24   69   0.640  -0.033  -0.145
    1UNL    H25   70   0.571  -0.175   0.027
    1UNL    H26   71   0.544  -0.206  -0.311
    1UNL    H27   72   0.669  -0.019  -0.374
    1UNL    H28   73   0.350  -0.026  -0.415
    1UNL    H29   74   0.210  -0.221  -0.376
    1UNL    H30   75  -0.491  -0.132   0.125
    1UNL    H31   76  -0.632  -0.096  -0.136
    1UNL    H32   77  -0.691  -0.050   0.022
    1UNL    H33   78  -0.801  -0.270  -0.002
    1UNL    H34   79  -0.733  -0.548  -0.065
    1UNL    H35   80  -0.638  -0.563   0.075
    1UNL    H36   81  -0.780  -0.471   0.087
    1UNL    H37   82  -0.454  -0.389   0.123
    1UNL    H38   83  -0.434  -0.463  -0.046
    1UNL    H39   84  -0.306  -0.256  -0.001
    1UNL    H40   85  -0.397  -0.222  -0.151
   0.00000   0.00000   0.00000   0.00000   0.00000   0.00000   0.00000   0.00000   0.00000
Generated with MDTraj, t= 7.0
 85
    1UNL     C1    1  -0.483   0.136   0.057
    1UNL     C2    2  -0.429   0.032  -0.005
    1UNL     C3    3  -0.316   0.043  -0.100
    1UNL     O1    4  -0.204  -0.048  -0.085
    1UNL     C4    5  -0.100  -0.017  -0.182
    1UNL     O2    6  -0.078   0.126  -0.206
    1UNL     C5    7  -0.041   0.202  -0.082
    1UNL     C6    8  -0.045   0.354  -0.098
    1UNL     O3    9  -0.085   0.424   0.022
    1UNL     C7   10  -0.210   0.401   0.047
    1UNL     O4   11  -0.287   0.343  -0.024
    1UNL     C8   12  -0.260   0.464   0.175
    1UNL     C9   13  -0.332   0.363   0.256
    1UNL     O5   14  -0.452   0.352   0.252
    1UNL     O6   15  -0.254   0.291   0.345
    1UNL    C10   16   0.101   0.150  -0.029
    1UNL     O7   17   0.142   0.234   0.085
    1UNL    C11   18   0.082  -0.004   0.002
    1UNL     O8   19   0.191  -0.078   0.053
    1UNL    C12   20   0.035  -0.078  -0.135
    1UNL     O9   21   0.139  -0.057  -0.232
    1UNL    C13   22   0.283  -0.064  -0.197
    1UNL    O10   23   0.328   0.060  -0.136
    1UNL    C14   24   0.459   0.031  -0.068
    1UNL    C15   25   0.524   0.160  -0.038
    1UNL    O11   26   0.588   0.165   0.085
    1UNL    C16   27   0.503   0.124   0.190
    1UNL    O12   28   0.382   0.127   0.185
    1UNL    C17   29   0.578   0.066   0.312
    1UNL    C18   30   0.617  -0.072   0.294
    1UNL    O13   31   0.605  -0.128   0.188
    1UNL    O14   32   0.676  -0.125   0.402
    1UNL    C19   33   0.543  -0.074  -0.145
    1UNL    O15   34   0.541  -0.201  -0.080
    1UNL    C20   35   0.509  -0.103  -0.299
    1UNL    O16   36   0.578  -0.005  -0.388
    1UNL    C21   37   0.351  -0.095  -0.327
    1UNL    O17   38   0.306  -0.219  -0.380
    1UNL    C22   39  -0.489  -0.104   0.037
    1UNL    C23   40  -0.633  -0.121  -0.032
    1UNL    C24   41  -0.701  -0.248  -0.027
    1UNL    C25   42  -0.637  -0.362  -0.007
    1UNL    C26   43  -0.707  -0.490   0.002
    1UNL    C27   44  -0.490  -0.357   0.025
    1UNL    C28   45  -0.412  -0.228  -0.015
    1UNL     H1   46  -0.563   0.126   0.132
    1UNL     H2   47  -0.443   0.228   0.040
    1UNL     H3   48  -0.357   0.029  -0.196
    1UNL     H4   49  -0.287   0.147  -0.097
    1UNL     H5   50  -0.131  -0.054  -0.278
    1UNL     H6   51  -0.108   0.171  -0.008
    1UNL     H7   52   0.046   0.406  -0.136
    1UNL     H8   53  -0.113   0.380  -0.177
    1UNL     H9   54  -0.179   0.518   0.218
    1UNL    H10   55  -0.332   0.530   0.128
    1UNL    H11   56  -0.311   0.229   0.393
    1UNL    H12   57   0.184   0.155  -0.104
    1UNL    H13   58   0.228   0.199   0.126
    1UNL    H14   59   0.004  -0.014   0.079
    1UNL    H15   60   0.232  -0.011   0.115
    1UNL    H16   61   0.022  -0.182  -0.100
    1UNL    H17   62   0.299  -0.141  -0.122
    1UNL    H18   63   0.430  -0.017   0.027
    1UNL    H19   64   0.457   0.245  -0.016
    1UNL    H20   65   0.588   0.178  -0.119
    1UNL    H21   66   0.675   0.126   0.318
    1UNL    H22   67   0.539   0.088   0.408
    1UNL    H23   68   0.714  -0.212   0.367
    1UNL    H24   69   0.644  -0.033  -0.150
    1UNL    H25   70   0.569  -0.193   0.020
    1UNL    H26   71   0.535  -0.200  -0.330
    1UNL    H27   72   0.668  -0.031  -0.387
    1UNL    H28   73   0.338  -0.015  -0.402
    1UNL    H29   74   0.210  -0.231  -0.360
    1UNL    H30   75  -0.499  -0.096   0.150
    1UNL    H31   76  -0.623  -0.088  -0.135
    1UNL    H32   77  -0.693  -0.043   0.015
    1UNL    H33   78  -0.811  -0.254  -0.046
    1UNL    H34   79  -0.751  -0.521  -0.089
    1UNL    H35   80  -0.649  -0.566   0.051
    1UNL    H36   81  -0.789  -0.468   0.076
    1UNL    H37   82  -0.467  -0.360   0.138
    1UNL    H38   83  -0.436  -0.443  -0.028
    1UNL    H39   84  -0.310  -0.211   0.031
    1UNL    H40   85  -0.397  -0.238  -0.126
   0.00000   0.00000   0.00000   0.00000   0.00000   0.00000   0.00000   0.00000   0.00000
Generated with MDTraj, t= 8.0
 85
    1UNL     C1    1  -0.466   0.145   0.043
    1UNL     C2    2  -0.428   0.031  -0.013
    1UNL     C3    3  -0.320   0.031  -0.116
    1UNL     O1    4  -0.203  -0.030  -0.064
    1UNL     C4    5  -0.100  -0.012  -0.156
    1UNL     O2    6  -0.081   0.125  -0.189
    1UNL     C5    7  -0.047   0.207  -0.074
    1UNL     C6    8  -0.048   0.357  -0.107
    1UNL     O3    9  -0.084   0.430   0.001
    1UNL     C7   10  -0.215   0.409   0.032
    1UNL     O4   11  -0.291   0.363  -0.051
    1UNL     C8   12  -0.267   0.453   0.169
    1UNL     C9   13  -0.301   0.338   0.256
    1UNL     O5   14  -0.410   0.290   0.251
    1UNL     O6   15  -0.212   0.275   0.337
    1UNL    C10   16   0.085   0.161  -0.013
    1UNL     O7   17   0.117   0.239   0.100
    1UNL    C11   18   0.077   0.006   0.019
    1UNL     O8   19   0.184  -0.058   0.078
    1UNL    C12   20   0.031  -0.070  -0.111
    1UNL     O9   21   0.117  -0.073  -0.223
    1UNL    C13   22   0.262  -0.071  -0.202
    1UNL    O10   23   0.307   0.040  -0.139
    1UNL    C14   24   0.440   0.029  -0.075
    1UNL    C15   25   0.509   0.159  -0.037
    1UNL    O11   26   0.597   0.135   0.069
    1UNL    C16   27   0.522   0.119   0.177
    1UNL    O12   28   0.401   0.131   0.186
    1UNL    C17   29   0.594   0.080   0.296
    1UNL    C18   30   0.616  -0.071   0.298
    1UNL    O13   31   0.583  -0.140   0.203
    1UNL    O14   32   0.677  -0.133   0.405
    1UNL    C19   33   0.540  -0.059  -0.148
    1UNL    O15   34   0.565  -0.185  -0.086
    1UNL    C20   35   0.502  -0.085  -0.293
    1UNL    O16   36   0.568   0.007  -0.381
    1UNL    C21   37   0.345  -0.094  -0.325
    1UNL    O17   38   0.327  -0.220  -0.377
    1UNL    C22   39  -0.506  -0.097   0.017
    1UNL    C23   40  -0.641  -0.110  -0.053
    1UNL    C24   41  -0.696  -0.243  -0.035
    1UNL    C25   42  -0.628  -0.355  -0.002
    1UNL    C26   43  -0.699  -0.491  -0.006
    1UNL    C27   44  -0.485  -0.351   0.042
    1UNL    C28   45  -0.418  -0.229  -0.010
    1UNL     H1   46  -0.548   0.150   0.112
    1UNL     H2   47  -0.411   0.239   0.027
    1UNL     H3   48  -0.352  -0.015  -0.204
    1UNL     H4   49  -0.303   0.135  -0.133
    1UNL     H5   50  -0.125  -0.062  -0.247
    1UNL     H6   51  -0.119   0.187   0.001
    1UNL     H7   52   0.047   0.396  -0.142
    1UNL     H8   53  -0.107   0.394  -0.187
    1UNL     H9   54  -0.186   0.509   0.210
    1UNL    H10   55  -0.360   0.510   0.150
    1UNL    H11   56  -0.259   0.211   0.390
    1UNL    H12   57   0.158   0.187  -0.095
    1UNL    H13   58   0.205   0.230   0.135
    1UNL    H14   59  -0.012   0.002   0.084
    1UNL    H15   60   0.219   0.007   0.141
    1UNL    H16   61   0.014  -0.178  -0.081
    1UNL    H17   62   0.275  -0.153  -0.131
    1UNL    H18   63   0.419  -0.016   0.022
    1UNL    H19   64   0.431   0.217   0.014
    1UNL    H20   65   0.570   0.219  -0.100
    1UNL    H21   66   0.688   0.142   0.301
    1UNL    H22   67   0.538   0.116   0.387
    1UNL    H23   68   0.653  -0.232   0.404
    1UNL    H24   69   0.645  -0.020  -0.152
    1UNL    H25   70   0.578  -0.173   0.006
    1UNL    H26   71   0.525  -0.188  -0.311
    1UNL    H27   72   0.663  -0.013  -0.376
    1UNL    H28   73   0.317  -0.028  -0.406
    1UNL    H29   74   0.237  -0.246  -0.364
    1UNL    H30   75  -0.541  -0.086   0.125
    1UNL    H31   76  -0.622  -0.086  -0.164
    1UNL    H32   77  -0.708  -0.033  -0.017
    1UNL    H33   78  -0.796  -0.253  -0.051
    1UNL    H34   79  -0.754  -0.510  -0.104
    1UNL    H35   80  -0.631  -0.573   0.017
    1UNL    H36   81  -0.769  -0.492   0.071
    1UNL    H37   82  -0.481  -0.348   0.156
    1UNL    H38   83  -0.418  -0.438   0.008
    1UNL    H39   84  -0.312  -0.224   0.031
    1UNL    H40   85  -0.404  -0.229  -0.121
   0.00000   0.00000   0.00000   0.00000   0.00000   0.00000   0.00000   0.00000   0.00000
Generated with MDTraj, t= 9.0
 85
    1UNL     C1    1  -0.476   0.144   0.011
    1UNL     C2    2  -0.444   0.026  -0.035
    1UNL     C3    3  -0.323   0.032  -0.128
    1UNL     O1    4  -0.208  -0.034  -0.080
    1UNL     C4    5  -0.098  -0.008  -0.161
    1UNL     O2    6  -0.072   0.130  -0.186
    1UNL     C5    7  -0.036   0.199  -0.067
    1UNL     C6    8  -0.045   0.348  -0.094
    1UNL     O3    9  -0.084   0.419   0.017
    1UNL     C7   10  -0.220   0.426   0.039
    1UNL     O4   11  -0.299   0.386  -0.044
    1UNL     C8   12  -0.269   0.464   0.178
    1UNL     C9   13  -0.264   0.333   0.260
    1UNL     O5   14  -0.375   0.289   0.278
    1UNL     O6   15  -0.150   0.283   0.302
    1UNL    C10   16   0.097   0.151  -0.011
    1UNL     O7   17   0.136   0.235   0.095
    1UNL    C11   18   0.084   0.000   0.029
    1UNL     O8   19   0.198  -0.057   0.079
    1UNL    C12   20   0.033  -0.074  -0.109
    1UNL     O9   21   0.122  -0.077  -0.215
    1UNL    C13   22   0.260  -0.063  -0.184
    1UNL    O10   23   0.311   0.060  -0.146
    1UNL    C14   24   0.443   0.041  -0.081
    1UNL    C15   25   0.504   0.180  -0.039
    1UNL    O11   26   0.586   0.175   0.079
    1UNL    C16   27   0.515   0.135   0.187
    1UNL    O12   28   0.392   0.133   0.197
    1UNL    C17   29   0.593   0.069   0.303
    1UNL    C18   30   0.611  -0.078   0.300
    1UNL    O13   31   0.580  -0.138   0.198
    1UNL    O14   32   0.661  -0.128   0.412
    1UNL    C19   33   0.537  -0.066  -0.155
    1UNL    O15   34   0.533  -0.190  -0.080
    1UNL    C20   35   0.488  -0.095  -0.305
    1UNL    O16   36   0.521   0.019  -0.381
    1UNL    C21   37   0.331  -0.120  -0.312
    1UNL    O17   38   0.302  -0.248  -0.365
    1UNL    C22   39  -0.509  -0.101   0.001
    1UNL    C23   40  -0.640  -0.124  -0.071
    1UNL    C24   41  -0.693  -0.263  -0.067
    1UNL    C25   42  -0.627  -0.362  -0.008
    1UNL    C26   43  -0.701  -0.498   0.006
    1UNL    C27   44  -0.483  -0.353   0.041
    1UNL    C28   45  -0.409  -0.223  -0.003
    1UNL     H1   46  -0.548   0.150   0.082
    1UNL     H2   47  -0.419   0.240  -0.012
    1UNL     H3   48  -0.353  -0.012  -0.216
    1UNL     H4   49  -0.282   0.127  -0.148
    1UNL     H5   50  -0.112  -0.056  -0.255
    1UNL     H6   51  -0.104   0.170   0.011
    1UNL     H7   52   0.043   0.396  -0.136
    1UNL     H8   53  -0.113   0.371  -0.172
    1UNL     H9   54  -0.199   0.531   0.223
    1UNL    H10   55  -0.374   0.497   0.190
    1UNL    H11   56  -0.166   0.206   0.358
    1UNL    H12   57   0.175   0.167  -0.089
    1UNL    H13   58   0.222   0.198   0.138
    1UNL    H14   59   0.000  -0.025   0.098
    1UNL    H15   60   0.264   0.011   0.116
    1UNL    H16   61   0.016  -0.186  -0.086
    1UNL    H17   62   0.281  -0.136  -0.104
    1UNL    H18   63   0.412  -0.003   0.012
    1UNL    H19   64   0.420   0.246  -0.007
    1UNL    H20   65   0.564   0.233  -0.111
    1UNL    H21   66   0.696   0.108   0.313
    1UNL    H22   67   0.544   0.102   0.405
    1UNL    H23   68   0.654  -0.227   0.409
    1UNL    H24   69   0.647  -0.035  -0.163
    1UNL    H25   70   0.543  -0.180   0.023
    1UNL    H26   71   0.547  -0.167  -0.363
    1UNL    H27   72   0.618   0.051  -0.377
    1UNL    H28   73   0.297  -0.047  -0.385
    1UNL    H29   74   0.203  -0.253  -0.357
    1UNL    H30   75  -0.534  -0.096   0.113
    1UNL    H31   76  -0.617  -0.101  -0.184
    1UNL    H32   77  -0.719  -0.057  -0.037
    1UNL    H33   78  -0.800  -0.277  -0.102
    1UNL    H34   79  -0.750  -0.532  -0.093
    1UNL    H35   80  -0.635  -0.580   0.036
    1UNL    H36   81  -0.773  -0.499   0.078
    1UNL    H37   82  -0.476  -0.348   0.154
    1UNL    H38   83  -0.430  -0.455   0.018
    1UNL    H39   84  -0.306  -0.195   0.043
    1UNL    H40   85  -0.382  -0.237  -0.108
   0.00000   0.00000   0.00000   0.00000   0.00000   0.00000   0.00000   0.00000   0.00000
Generated with MDTraj, t= 10.0
 85
    1UNL     C1    1  -0.483   0.141   0.035
    1UNL     C2    2  -0.450   0.033  -0.033
    1UNL     C3    3  -0.328   0.034  -0.130
    1UNL     O1    4  -0.214  -0.033  -0.079
    1UNL     C4    5  -0.106  -0.008  -0.162
    1UNL     O2    6  -0.094   0.130  -0.186
    1UNL     C5    7  -0.055   0.208  -0.070
    1UNL     C6    8  -0.043   0.359  -0.094
    1UNL     O3    9  -0.075   0.429   0.026
    1UNL     C7   10  -0.211   0.428   0.046
    1UNL     O4   11  -0.289   0.382  -0.035
    1UNL     C8   12  -0.257   0.461   0.177
    1UNL     C9   13  -0.248   0.330   0.264
    1UNL     O5   14  -0.348   0.276   0.313
    1UNL     O6   15  -0.120   0.288   0.299
    1UNL    C10   16   0.081   0.153  -0.019
    1UNL     O7   17   0.132   0.226   0.091
    1UNL    C11   18   0.073   0.003   0.021
    1UNL     O8   19   0.180  -0.066   0.079
    1UNL    C12   20   0.030  -0.071  -0.115
    1UNL     O9   21   0.117  -0.068  -0.224
    1UNL    C13   22   0.258  -0.072  -0.193
    1UNL    O10   23   0.313   0.056  -0.153
    1UNL    C14   24   0.438   0.038  -0.085
    1UNL    C15   25   0.499   0.174  -0.049
    1UNL    O11   26   0.581   0.158   0.064
    1UNL    C16   27   0.508   0.129   0.176
    1UNL    O12   28   0.386   0.130   0.177
    1UNL    C17   29   0.577   0.085   0.295
    1UNL    C18   30   0.598  -0.066   0.286
    1UNL    O13   31   0.598  -0.135   0.185
    1UNL    O14   32   0.627  -0.122   0.406
    1UNL    C19   33   0.531  -0.065  -0.145
    1UNL    O15   34   0.523  -0.194  -0.086
    1UNL    C20   35   0.495  -0.077  -0.287
    1UNL    O16   36   0.528   0.029  -0.360
    1UNL    C21   37   0.343  -0.124  -0.308
    1UNL    O17   38   0.338  -0.267  -0.312
    1UNL    C22   39  -0.517  -0.097  -0.009
    1UNL    C23   40  -0.625  -0.130  -0.108
    1UNL    C24   41  -0.684  -0.272  -0.083
    1UNL    C25   42  -0.624  -0.365  -0.007
    1UNL    C26   43  -0.688  -0.500   0.011
    1UNL    C27   44  -0.481  -0.348   0.044
    1UNL    C28   45  -0.412  -0.213   0.004
    1UNL     H1   46  -0.556   0.142   0.112
    1UNL     H2   47  -0.432   0.236   0.021
    1UNL     H3   48  -0.344  -0.011  -0.223
    1UNL     H4   49  -0.290   0.133  -0.146
    1UNL     H5   50  -0.124  -0.061  -0.256
    1UNL     H6   51  -0.133   0.184   0.002
    1UNL     H7   52   0.054   0.395  -0.132
    1UNL     H8   53  -0.105   0.383  -0.181
    1UNL     H9   54  -0.202   0.537   0.229
    1UNL    H10   55  -0.361   0.488   0.171
    1UNL    H11   56  -0.133   0.225   0.373
    1UNL    H12   57   0.158   0.171  -0.097
    1UNL    H13   58   0.223   0.203   0.114
    1UNL    H14   59  -0.006  -0.007   0.099
    1UNL    H15   60   0.229  -0.010   0.140
    1UNL    H16   61   0.023  -0.183  -0.086
    1UNL    H17   62   0.270  -0.150  -0.115
    1UNL    H18   63   0.401   0.007   0.011
    1UNL    H19   64   0.426   0.257  -0.021
    1UNL    H20   65   0.558   0.203  -0.136
    1UNL    H21   66   0.673   0.144   0.307
    1UNL    H22   67   0.514   0.110   0.390
    1UNL    H23   68   0.655  -0.208   0.376
    1UNL    H24   69   0.635  -0.021  -0.116
    1UNL    H25   70   0.543  -0.180   0.007
    1UNL    H26   71   0.563  -0.164  -0.313
    1UNL    H27   72   0.624   0.055  -0.327
    1UNL    H28   73   0.310  -0.090  -0.406
    1UNL    H29   74   0.258  -0.302  -0.260
    1UNL    H30   75  -0.567  -0.094   0.094
    1UNL    H31   76  -0.583  -0.134  -0.216
    1UNL    H32   77  -0.710  -0.059  -0.106
    1UNL    H33   78  -0.779  -0.282  -0.126
    1UNL    H34   79  -0.721  -0.536  -0.088
    1UNL    H35   80  -0.637  -0.581   0.062
    1UNL    H36   81  -0.780  -0.486   0.072
    1UNL    H37   82  -0.476  -0.379   0.153
    1UNL    H38   83  -0.414  -0.432  -0.002
    1UNL    H39   84  -0.311  -0.178   0.050
    1UNL    H40   85  -0.378  -0.226  -0.099
   0.00000   0.00000   0.00000   0.00000   0.00000   0.00000   0.00000   0.00000   0.00000
Generated with MDTraj, t= 11.0
 85
    1UNL     C1    1  -0.466   0.131   0.064
    1UNL     C2    2  -0.435   0.036  -0.021
    1UNL     C3    3  -0.334   0.051  -0.127
    1UNL     O1    4  -0.213  -0.014  -0.093
    1UNL     C4    5  -0.110   0.008  -0.193
    1UNL     O2    6  -0.085   0.144  -0.214
    1UNL     C5    7  -0.054   0.216  -0.098
    1UNL     C6    8  -0.062   0.373  -0.122
    1UNL     O3    9  -0.084   0.435   0.006
    1UNL     C7   10  -0.211   0.408   0.052
    1UNL     O4   11  -0.292   0.348  -0.018
    1UNL     C8   12  -0.235   0.450   0.197
    1UNL     C9   13  -0.234   0.327   0.293
    1UNL     O5   14  -0.341   0.273   0.316
    1UNL     O6   15  -0.115   0.289   0.332
    1UNL    C10   16   0.082   0.155  -0.032
    1UNL     O7   17   0.107   0.222   0.094
    1UNL    C11   18   0.064   0.003  -0.003
    1UNL     O8   19   0.173  -0.058   0.064
    1UNL    C12   20   0.024  -0.069  -0.136
    1UNL     O9   21   0.125  -0.072  -0.228
    1UNL    C13   22   0.264  -0.078  -0.187
    1UNL    O10   23   0.302   0.056  -0.143
    1UNL    C14   24   0.425   0.034  -0.072
    1UNL    C15   25   0.487   0.173  -0.047
    1UNL    O11   26   0.582   0.157   0.067
    1UNL    C16   27   0.508   0.124   0.179
    1UNL    O12   28   0.387   0.125   0.177
    1UNL    C17   29   0.590   0.085   0.302
    1UNL    C18   30   0.590  -0.064   0.299
    1UNL    O13   31   0.587  -0.128   0.196
    1UNL    O14   32   0.606  -0.108   0.426
    1UNL    C19   33   0.526  -0.062  -0.147
    1UNL    O15   34   0.544  -0.183  -0.076
    1UNL    C20   35   0.490  -0.086  -0.295
    1UNL    O16   36   0.516   0.021  -0.384
    1UNL    C21   37   0.343  -0.141  -0.304
    1UNL    O17   38   0.332  -0.288  -0.310
    1UNL    C22   39  -0.503  -0.103  -0.005
    1UNL    C23   40  -0.594  -0.135  -0.122
    1UNL    C24   41  -0.666  -0.269  -0.096
    1UNL    C25   42  -0.617  -0.358  -0.011
    1UNL    C26   43  -0.688  -0.488  -0.006
    1UNL    C27   44  -0.482  -0.345   0.063
    1UNL    C28   45  -0.405  -0.217   0.030
    1UNL     H1   46  -0.536   0.127   0.154
    1UNL     H2   47  -0.418   0.221   0.053
    1UNL     H3   48  -0.370  -0.000  -0.213
    1UNL     H4   49  -0.318   0.158  -0.141
    1UNL     H5   50  -0.147  -0.040  -0.286
    1UNL     H6   51  -0.141   0.197  -0.033
    1UNL     H7   52   0.031   0.395  -0.182
    1UNL     H8   53  -0.138   0.408  -0.198
    1UNL     H9   54  -0.159   0.505   0.248
    1UNL    H10   55  -0.323   0.508   0.213
    1UNL    H11   56  -0.121   0.200   0.376
    1UNL    H12   57   0.165   0.175  -0.100
    1UNL    H13   58   0.193   0.199   0.141
    1UNL    H14   59  -0.025  -0.004   0.064
    1UNL    H15   60   0.229   0.011   0.111
    1UNL    H16   61  -0.008  -0.175  -0.106
    1UNL    H17   62   0.259  -0.140  -0.095
    1UNL    H18   63   0.388  -0.007   0.020
    1UNL    H19   64   0.405   0.249  -0.024
    1UNL    H20   65   0.536   0.207  -0.140
    1UNL    H21   66   0.699   0.128   0.298
    1UNL    H22   67   0.546   0.123   0.399
    1UNL    H23   68   0.631  -0.199   0.416
    1UNL    H24   69   0.634  -0.019  -0.139
    1UNL    H25   70   0.559  -0.168   0.022
    1UNL    H26   71   0.549  -0.174  -0.339
    1UNL    H27   72   0.593   0.085  -0.376
    1UNL    H28   73   0.298  -0.104  -0.397
    1UNL    H29   74   0.241  -0.319  -0.278
    1UNL    H30   75  -0.580  -0.083   0.079
    1UNL    H31   76  -0.538  -0.146  -0.218
    1UNL    H32   77  -0.671  -0.053  -0.140
    1UNL    H33   78  -0.760  -0.284  -0.146
    1UNL    H34   79  -0.694  -0.520  -0.106
    1UNL    H35   80  -0.650  -0.567   0.060
    1UNL    H36   81  -0.799  -0.466   0.033
    1UNL    H37   82  -0.495  -0.354   0.176
    1UNL    H38   83  -0.426  -0.442   0.036
    1UNL    H39   84  -0.321  -0.185   0.106
    1UNL    H40   85  -0.342  -0.221  -0.060
   0.00000   0.00000   0.00000   0.00000   0.00000   0.00000   0.00000   0.00000   0.00000
Generated with MDTraj, t= 12.0
 85
    1UNL     C1    1  -0.436   0.109   0.103
    1UNL     C2    2  -0.438   0.034  -0.003
    1UNL     C3    3  -0.334   0.057  -0.113
    1UNL     O1    4  -0.224  -0.039  -0.099
    1UNL     C4    5  -0.117   0.001  -0.187
    1UNL     O2    6  -0.093   0.140  -0.210
    1UNL     C5    7  -0.052   0.211  -0.096
    1UNL     C6    8  -0.053   0.361  -0.107
    1UNL     O3    9  -0.061   0.426   0.010
    1UNL     C7   10  -0.186   0.403   0.067
    1UNL     O4   11  -0.280   0.356   0.005
    1UNL     C8   12  -0.199   0.450   0.199
    1UNL     C9   13  -0.229   0.333   0.292
    1UNL     O5   14  -0.333   0.270   0.284
    1UNL     O6   15  -0.126   0.298   0.373
    1UNL    C10   16   0.083   0.161  -0.051
    1UNL     O7   17   0.130   0.234   0.058
    1UNL    C11   18   0.069   0.012  -0.007
    1UNL     O8   19   0.184  -0.055   0.069
    1UNL    C12   20   0.017  -0.064  -0.134
    1UNL     O9   21   0.111  -0.059  -0.238
    1UNL    C13   22   0.251  -0.077  -0.207
    1UNL    O10   23   0.311   0.048  -0.171
    1UNL    C14   24   0.424   0.033  -0.084
    1UNL    C15   25   0.476   0.175  -0.041
    1UNL    O11   26   0.555   0.157   0.077
    1UNL    C16   27   0.475   0.138   0.181
    1UNL    O12   28   0.355   0.138   0.186
    1UNL    C17   29   0.551   0.092   0.299
    1UNL    C18   30   0.570  -0.056   0.309
    1UNL    O13   31   0.586  -0.134   0.219
    1UNL    O14   32   0.590  -0.096   0.435
    1UNL    C19   33   0.533  -0.055  -0.153
    1UNL    O15   34   0.557  -0.171  -0.083
    1UNL    C20   35   0.489  -0.107  -0.298
    1UNL    O16   36   0.516  -0.007  -0.397
    1UNL    C21   37   0.333  -0.143  -0.320
    1UNL    O17   38   0.318  -0.283  -0.321
    1UNL    C22   39  -0.515  -0.097   0.002
    1UNL    C23   40  -0.576  -0.142  -0.131
    1UNL    C24   41  -0.632  -0.277  -0.120
    1UNL    C25   42  -0.595  -0.362  -0.031
    1UNL    C26   43  -0.680  -0.486  -0.013
    1UNL    C27   44  -0.484  -0.339   0.065
    1UNL    C28   45  -0.415  -0.208   0.044
    1UNL     H1   46  -0.491   0.084   0.194
    1UNL     H2   47  -0.367   0.179   0.115
    1UNL     H3   48  -0.381   0.053  -0.211
    1UNL     H4   49  -0.292   0.158  -0.095
    1UNL     H5   50  -0.136  -0.037  -0.292
    1UNL     H6   51  -0.125   0.193  -0.013
    1UNL     H7   52   0.032   0.399  -0.170
    1UNL     H8   53  -0.141   0.387  -0.175
    1UNL     H9   54  -0.110   0.503   0.227
    1UNL    H10   55  -0.285   0.510   0.215
    1UNL    H11   56  -0.161   0.229   0.436
    1UNL    H12   57   0.156   0.166  -0.133
    1UNL    H13   58   0.217   0.198   0.091
    1UNL    H14   59  -0.015   0.000   0.064
    1UNL    H15   60   0.224   0.015   0.124
    1UNL    H16   61   0.013  -0.170  -0.094
    1UNL    H17   62   0.255  -0.145  -0.120
    1UNL    H18   63   0.382  -0.014   0.006
    1UNL    H19   64   0.393   0.252  -0.026
    1UNL    H20   65   0.541   0.221  -0.116
    1UNL    H21   66   0.659   0.139   0.313
    1UNL    H22   67   0.483   0.129   0.380
    1UNL    H23   68   0.601  -0.193   0.435
    1UNL    H24   69   0.637  -0.013  -0.168
    1UNL    H25   70   0.573  -0.149   0.019
    1UNL    H26   71   0.565  -0.192  -0.314
    1UNL    H27   72   0.607   0.013  -0.386
    1UNL    H28   73   0.307  -0.099  -0.420
    1UNL    H29   74   0.225  -0.310  -0.299
    1UNL    H30   75  -0.598  -0.089   0.082
    1UNL    H31   76  -0.504  -0.131  -0.212
    1UNL    H32   77  -0.662  -0.068  -0.161
    1UNL    H33   78  -0.723  -0.309  -0.177
    1UNL    H34   79  -0.669  -0.545  -0.102
    1UNL    H35   80  -0.654  -0.543   0.081
    1UNL    H36   81  -0.790  -0.459   0.004
    1UNL    H37   82  -0.533  -0.340   0.168
    1UNL    H38   83  -0.409  -0.425   0.060
    1UNL    H39   84  -0.356  -0.163   0.134
    1UNL    H40   85  -0.332  -0.232  -0.024
   0.00000   0.00000   0.00000   0.00000   0.00000   0.00000   0.00000   0.00000   0.00000
Generated with MDTraj, t= 13.0
 85
    1UNL     C1    1  -0.455   0.121   0.084
    1UNL     C2    2  -0.435   0.026  -0.003
    1UNL     C3    3  -0.333   0.042  -0.113
    1UNL     O1    4  -0.206  -0.014  -0.075
    1UNL     C4    5  -0.116   0.001  -0.181
    1UNL     O2    6  -0.105   0.138  -0.214
    1UNL     C5    7  -0.055   0.212  -0.105
    1UNL     C6    8  -0.062   0.373  -0.122
    1UNL     O3    9  -0.059   0.435  -0.003
    1UNL     C7   10  -0.173   0.413   0.071
    1UNL     O4   11  -0.274   0.365   0.023
    1UNL     C8   12  -0.174   0.455   0.216
    1UNL     C9   13  -0.215   0.350   0.312
    1UNL     O5   14  -0.317   0.292   0.302
    1UNL     O6   15  -0.130   0.328   0.407
    1UNL    C10   16   0.082   0.158  -0.047
    1UNL     O7   17   0.119   0.234   0.065
    1UNL    C11   18   0.062   0.010  -0.008
    1UNL     O8   19   0.175  -0.052   0.060
    1UNL    C12   20   0.017  -0.068  -0.138
    1UNL     O9   21   0.108  -0.072  -0.248
    1UNL    C13   22   0.241  -0.075  -0.206
    1UNL    O10   23   0.304   0.056  -0.173
    1UNL    C14   24   0.427   0.033  -0.096
    1UNL    C15   25   0.485   0.172  -0.037
    1UNL    O11   26   0.559   0.162   0.081
    1UNL    C16   27   0.467   0.129   0.178
    1UNL    O12   28   0.349   0.124   0.165
    1UNL    C17   29   0.529   0.095   0.306
    1UNL    C18   30   0.564  -0.049   0.306
    1UNL    O13   31   0.571  -0.103   0.200
    1UNL    O14   32   0.576  -0.107   0.431
    1UNL    C19   33   0.529  -0.066  -0.158
    1UNL    O15   34   0.553  -0.174  -0.070
    1UNL    C20   35   0.490  -0.117  -0.300
    1UNL    O16   36   0.554  -0.036  -0.398
    1UNL    C21   37   0.330  -0.135  -0.320
    1UNL    O17   38   0.310  -0.272  -0.340
    1UNL    C22   39  -0.502  -0.105   0.001
    1UNL    C23   40  -0.546  -0.164  -0.128
    1UNL    C24   41  -0.618  -0.285  -0.122
    1UNL    C25   42  -0.594  -0.380  -0.039
    1UNL    C26   43  -0.668  -0.508  -0.054
    1UNL    C27   44  -0.505  -0.354   0.083
    1UNL    C28   45  -0.422  -0.219   0.071
    1UNL     H1   46  -0.533   0.106   0.162
    1UNL     H2   47  -0.418   0.225   0.081
    1UNL     H3   48  -0.364  -0.007  -0.208
    1UNL     H4   49  -0.319   0.149  -0.143
    1UNL     H5   50  -0.156  -0.045  -0.278
    1UNL     H6   51  -0.132   0.201  -0.022
    1UNL     H7   52   0.023   0.416  -0.180
    1UNL     H8   53  -0.150   0.409  -0.184
    1UNL     H9   54  -0.072   0.481   0.243
    1UNL    H10   55  -0.232   0.543   0.232
    1UNL    H11   56  -0.165   0.255   0.465
    1UNL    H12   57   0.160   0.160  -0.122
    1UNL    H13   58   0.206   0.202   0.105
    1UNL    H14   59  -0.028   0.006   0.055
    1UNL    H15   60   0.227   0.010   0.117
    1UNL    H16   61  -0.009  -0.171  -0.105
    1UNL    H17   62   0.251  -0.147  -0.121
    1UNL    H18   63   0.395  -0.010   0.002
    1UNL    H19   64   0.416   0.253  -0.003
    1UNL    H20   65   0.551   0.218  -0.108
    1UNL    H21   66   0.618   0.163   0.315
    1UNL    H22   67   0.454   0.111   0.390
    1UNL    H23   68   0.572  -0.209   0.432
    1UNL    H24   69   0.619  -0.004  -0.174
    1UNL    H25   70   0.558  -0.151   0.022
    1UNL    H26   71   0.524  -0.223  -0.314
    1UNL    H27   72   0.649  -0.045  -0.390
    1UNL    H28   73   0.294  -0.097  -0.420
    1UNL    H29   74   0.221  -0.291  -0.314
    1UNL    H30   75  -0.594  -0.094   0.068
    1UNL    H31   76  -0.460  -0.179  -0.191
    1UNL    H32   77  -0.603  -0.076  -0.183
    1UNL    H33   78  -0.697  -0.300  -0.186
    1UNL    H34   79  -0.630  -0.560  -0.148
    1UNL    H35   80  -0.651  -0.571   0.040
    1UNL    H36   81  -0.776  -0.501  -0.061
    1UNL    H37   82  -0.569  -0.341   0.177
    1UNL    H38   83  -0.428  -0.435   0.098
    1UNL    H39   84  -0.391  -0.210   0.182
    1UNL    H40   85  -0.324  -0.229   0.021
   0.00000   0.00000   0.00000   0.00000   0.00000   0.00000   0.00000   0.00000   0.00000
Generated with MDTraj, t= 14.0
 85
    1UNL     C1    1  -0.450   0.103   0.092
    1UNL     C2    2  -0.445   0.023  -0.011
    1UNL     C3    3  -0.341   0.049  -0.116
    1UNL     O1    4  -0.235  -0.038  -0.108
    1UNL     C4    5  -0.118  -0.007  -0.183
    1UNL     O2    6  -0.110   0.134  -0.208
    1UNL     C5    7  -0.065   0.206  -0.092
    1UNL     C6    8  -0.064   0.361  -0.122
    1UNL     O3    9  -0.068   0.433  -0.003
    1UNL     C7   10  -0.173   0.411   0.073
    1UNL     O4   11  -0.267   0.347   0.034
    1UNL     C8   12  -0.173   0.477   0.216
    1UNL     C9   13  -0.211   0.372   0.311
    1UNL     O5   14  -0.311   0.301   0.313
    1UNL     O6   15  -0.114   0.367   0.417
    1UNL    C10   16   0.067   0.157  -0.033
    1UNL     O7   17   0.091   0.216   0.088
    1UNL    C11   18   0.054   0.012  -0.003
    1UNL     O8   19   0.173  -0.043   0.054
    1UNL    C12   20   0.020  -0.063  -0.135
    1UNL     O9   21   0.114  -0.060  -0.248
    1UNL    C13   22   0.245  -0.069  -0.213
    1UNL    O10   23   0.305   0.057  -0.159
    1UNL    C14   24   0.427   0.034  -0.080
    1UNL    C15   25   0.497   0.167  -0.047
    1UNL    O11   26   0.572   0.166   0.068
    1UNL    C16   27   0.488   0.140   0.173
    1UNL    O12   28   0.366   0.150   0.180
    1UNL    C17   29   0.559   0.095   0.301
    1UNL    C18   30   0.568  -0.055   0.304
    1UNL    O13   31   0.571  -0.128   0.207
    1UNL    O14   32   0.564  -0.109   0.428
    1UNL    C19   33   0.523  -0.069  -0.151
    1UNL    O15   34   0.545  -0.195  -0.071
    1UNL    C20   35   0.487  -0.118  -0.292
    1UNL    O16   36   0.566  -0.050  -0.390
    1UNL    C21   37   0.333  -0.126  -0.324
    1UNL    O17   38   0.287  -0.250  -0.368
    1UNL    C22   39  -0.520  -0.110  -0.014
    1UNL    C23   40  -0.548  -0.171  -0.155
    1UNL    C24   41  -0.603  -0.307  -0.140
    1UNL    C25   42  -0.580  -0.386  -0.041
    1UNL    C26   43  -0.637  -0.519  -0.043
    1UNL    C27   44  -0.516  -0.335   0.087
    1UNL    C28   45  -0.436  -0.207   0.069
    1UNL     H1   46  -0.502   0.092   0.179
    1UNL     H2   47  -0.381   0.186   0.102
    1UNL     H3   48  -0.385   0.058  -0.221
    1UNL     H4   49  -0.295   0.150  -0.108
    1UNL     H5   50  -0.136  -0.049  -0.289
    1UNL     H6   51  -0.143   0.195  -0.009
    1UNL     H7   52   0.014   0.394  -0.190
    1UNL     H8   53  -0.154   0.393  -0.179
    1UNL     H9   54  -0.082   0.530   0.235
    1UNL    H10   55  -0.245   0.555   0.203
    1UNL    H11   56  -0.140   0.289   0.468
    1UNL    H12   57   0.153   0.172  -0.100
    1UNL    H13   58   0.181   0.195   0.117
    1UNL    H14   59  -0.029   0.018   0.069
    1UNL    H15   60   0.233   0.024   0.092
    1UNL    H16   61   0.005  -0.167  -0.114
    1UNL    H17   62   0.245  -0.137  -0.127
    1UNL    H18   63   0.385  -0.022   0.009
    1UNL    H19   64   0.414   0.234  -0.026
    1UNL    H20   65   0.559   0.209  -0.123
    1UNL    H21   66   0.659   0.134   0.297
    1UNL    H22   67   0.507   0.135   0.394
    1UNL    H23   68   0.561  -0.209   0.415
    1UNL    H24   69   0.625  -0.035  -0.157
    1UNL    H25   70   0.552  -0.170   0.028
    1UNL    H26   71   0.515  -0.224  -0.293
    1UNL    H27   72   0.661  -0.081  -0.395
    1UNL    H28   73   0.321  -0.059  -0.413
    1UNL    H29   74   0.199  -0.251  -0.331
    1UNL    H30   75  -0.614  -0.089   0.046
    1UNL    H31   76  -0.459  -0.163  -0.218
    1UNL    H32   77  -0.628  -0.111  -0.212
    1UNL    H33   78  -0.668  -0.354  -0.220
    1UNL    H34   79  -0.581  -0.577  -0.130
    1UNL    H35   80  -0.625  -0.574   0.056
    1UNL    H36   81  -0.739  -0.525  -0.066
    1UNL    H37   82  -0.596  -0.298   0.162
    1UNL    H38   83  -0.447  -0.411   0.132
    1UNL    H39   84  -0.410  -0.153   0.166
    1UNL    H40   85  -0.338  -0.242   0.027
   0.00000   0.00000   0.00000   0.00000   0.00000   0.00000   0.00000   0.00000   0.00000
Generated with MDTraj, t= 15.0
 85
    1UNL     C1    1  -0.451   0.108   0.068
    1UNL     C2    2  -0.438   0.026  -0.032
    1UNL     C3    3  -0.330   0.044  -0.132
    1UNL     O1    4  -0.219  -0.032  -0.102
    1UNL     C4    5  -0.110  -0.007  -0.186
    1UNL     O2    6  -0.092   0.134  -0.207
    1UNL     C5    7  -0.054   0.204  -0.081
    1UNL     C6    8  -0.055   0.361  -0.101
    1UNL     O3    9  -0.065   0.426   0.025
    1UNL     C7   10  -0.192   0.413   0.073
    1UNL     O4   11  -0.287   0.359   0.024
    1UNL     C8   12  -0.218   0.476   0.204
    1UNL     C9   13  -0.209   0.384   0.314
    1UNL     O5   14  -0.294   0.302   0.334
    1UNL     O6   15  -0.111   0.402   0.402
    1UNL    C10   16   0.080   0.150  -0.027
    1UNL     O7   17   0.119   0.210   0.091
    1UNL    C11   18   0.056  -0.001  -0.007
    1UNL     O8   19   0.158  -0.063   0.077
    1UNL    C12   20   0.019  -0.069  -0.143
    1UNL     O9   21   0.115  -0.053  -0.245
    1UNL    C13   22   0.243  -0.067  -0.207
    1UNL    O10   23   0.308   0.060  -0.155
    1UNL    C14   24   0.423   0.033  -0.080
    1UNL    C15   25   0.504   0.156  -0.062
    1UNL    O11   26   0.576   0.151   0.058
    1UNL    C16   27   0.501   0.136   0.168
    1UNL    O12   28   0.379   0.145   0.162
    1UNL    C17   29   0.562   0.086   0.294
    1UNL    C18   30   0.556  -0.063   0.312
    1UNL    O13   31   0.561  -0.136   0.212
    1UNL    O14   32   0.560  -0.094   0.441
    1UNL    C19   33   0.509  -0.080  -0.147
    1UNL    O15   34   0.510  -0.195  -0.069
    1UNL    C20   35   0.474  -0.122  -0.294
    1UNL    O16   36   0.555  -0.041  -0.385
    1UNL    C21   37   0.322  -0.104  -0.328
    1UNL    O17   38   0.270  -0.217  -0.394
    1UNL    C22   39  -0.511  -0.105  -0.017
    1UNL    C23   40  -0.538  -0.167  -0.153
    1UNL    C24   41  -0.581  -0.317  -0.143
    1UNL    C25   42  -0.570  -0.395  -0.037
    1UNL    C26   43  -0.622  -0.540  -0.040
    1UNL    C27   44  -0.522  -0.343   0.097
    1UNL    C28   45  -0.447  -0.205   0.081
    1UNL     H1   46  -0.523   0.102   0.146
    1UNL     H2   47  -0.395   0.204   0.072
    1UNL     H3   48  -0.367   0.014  -0.238
    1UNL     H4   49  -0.311   0.155  -0.139
    1UNL     H5   50  -0.138  -0.043  -0.290
    1UNL     H6   51  -0.139   0.179  -0.008
    1UNL     H7   52   0.030   0.399  -0.151
    1UNL     H8   53  -0.135   0.388  -0.170
    1UNL     H9   54  -0.143   0.554   0.200
    1UNL    H10   55  -0.303   0.542   0.190
    1UNL    H11   56  -0.133   0.344   0.476
    1UNL    H12   57   0.167   0.152  -0.094
    1UNL    H13   58   0.214   0.198   0.114
    1UNL    H14   59  -0.032  -0.004   0.059
    1UNL    H15   60   0.226   0.001   0.105
    1UNL    H16   61   0.002  -0.173  -0.131
    1UNL    H17   62   0.251  -0.146  -0.131
    1UNL    H18   63   0.379  -0.007   0.018
    1UNL    H19   64   0.431   0.234  -0.047
    1UNL    H20   65   0.570   0.184  -0.143
    1UNL    H21   66   0.666   0.105   0.299
    1UNL    H22   67   0.507   0.142   0.373
    1UNL    H23   68   0.567  -0.191   0.447
    1UNL    H24   69   0.607  -0.039  -0.157
    1UNL    H25   70   0.532  -0.176   0.029
    1UNL    H26   71   0.501  -0.224  -0.309
    1UNL    H27   72   0.652  -0.076  -0.380
    1UNL    H28   73   0.332  -0.024  -0.403
    1UNL    H29   74   0.171  -0.229  -0.374
    1UNL    H30   75  -0.612  -0.069   0.019
    1UNL    H31   76  -0.448  -0.166  -0.218
    1UNL    H32   77  -0.607  -0.100  -0.208
    1UNL    H33   78  -0.627  -0.365  -0.222
    1UNL    H34   79  -0.550  -0.596  -0.109
    1UNL    H35   80  -0.621  -0.587   0.063
    1UNL    H36   81  -0.724  -0.557  -0.078
    1UNL    H37   82  -0.619  -0.335   0.161
    1UNL    H38   83  -0.449  -0.410   0.146
    1UNL    H39   84  -0.446  -0.165   0.184
    1UNL    H40   85  -0.337  -0.204   0.053
   0.00000   0.00000   0.00000   0.00000   0.00000   0.00000   0.00000   0.00000   0.00000
Generated with MDTraj, t= 16.0
 85
    1UNL     C1    1  -0.496   0.124   0.053
    1UNL     C2    2  -0.452   0.029  -0.024
    1UNL     C3    3  -0.332   0.061  -0.120
    1UNL     O1    4  -0.226  -0.024  -0.085
    1UNL     C4    5  -0.120   0.006  -0.176
    1UNL     O2    6  -0.104   0.149  -0.187
    1UNL     C5    7  -0.061   0.208  -0.056
    1UNL     C6    8  -0.055   0.356  -0.084
    1UNL     O3    9  -0.084   0.431   0.032
    1UNL     C7   10  -0.217   0.428   0.068
    1UNL     O4   11  -0.299   0.380  -0.009
    1UNL     C8   12  -0.253   0.483   0.207
    1UNL     C9   13  -0.224   0.392   0.316
    1UNL     O5   14  -0.277   0.282   0.330
    1UNL     O6   15  -0.112   0.429   0.384
    1UNL    C10   16   0.076   0.154  -0.014
    1UNL     O7   17   0.122   0.212   0.100
    1UNL    C11   18   0.060   0.001   0.002
    1UNL     O8   19   0.186  -0.062   0.043
    1UNL    C12   20   0.010  -0.064  -0.130
    1UNL     O9   21   0.105  -0.059  -0.238
    1UNL    C13   22   0.248  -0.070  -0.217
    1UNL    O10   23   0.306   0.047  -0.149
    1UNL    C14   24   0.436   0.025  -0.085
    1UNL    C15   25   0.516   0.161  -0.071
    1UNL    O11   26   0.581   0.144   0.057
    1UNL    C16   27   0.501   0.124   0.169
    1UNL    O12   28   0.379   0.112   0.158
    1UNL    C17   29   0.568   0.088   0.292
    1UNL    C18   30   0.549  -0.061   0.302
    1UNL    O13   31   0.535  -0.144   0.212
    1UNL    O14   32   0.560  -0.106   0.429
    1UNL    C19   33   0.519  -0.101  -0.143
    1UNL    O15   34   0.482  -0.215  -0.073
    1UNL    C20   35   0.494  -0.118  -0.299
    1UNL    O16   36   0.573  -0.032  -0.382
    1UNL    C21   37   0.343  -0.098  -0.337
    1UNL    O17   38   0.300  -0.219  -0.409
    1UNL    C22   39  -0.504  -0.114  -0.012
    1UNL    C23   40  -0.509  -0.184  -0.157
    1UNL    C24   41  -0.565  -0.327  -0.145
    1UNL    C25   42  -0.563  -0.393  -0.031
    1UNL    C26   43  -0.614  -0.533  -0.029
    1UNL    C27   44  -0.512  -0.335   0.101
    1UNL    C28   45  -0.432  -0.201   0.090
    1UNL     H1   46  -0.575   0.106   0.125
    1UNL     H2   47  -0.454   0.221   0.045
    1UNL     H3   48  -0.374   0.050  -0.230
    1UNL     H4   49  -0.307   0.170  -0.104
    1UNL     H5   50  -0.153  -0.023  -0.279
    1UNL     H6   51  -0.147   0.197   0.022
    1UNL     H7   52   0.044   0.376  -0.112
    1UNL     H8   53  -0.115   0.396  -0.166
    1UNL     H9   54  -0.214   0.583   0.216
    1UNL    H10   55  -0.359   0.505   0.213
    1UNL    H11   56  -0.096   0.364   0.451
    1UNL    H12   57   0.147   0.176  -0.097
    1UNL    H13   58   0.214   0.178   0.120
    1UNL    H14   59  -0.023  -0.017   0.074
    1UNL    H15   60   0.252   0.006   0.073
    1UNL    H16   61  -0.014  -0.166  -0.114
    1UNL    H17   62   0.256  -0.155  -0.148
    1UNL    H18   63   0.412  -0.011   0.020
    1UNL    H19   64   0.462   0.257  -0.062
    1UNL    H20   65   0.587   0.163  -0.155
    1UNL    H21   66   0.671   0.111   0.272
    1UNL    H22   67   0.531   0.121   0.387
    1UNL    H23   68   0.559  -0.200   0.422
    1UNL    H24   69   0.622  -0.078  -0.134
    1UNL    H25   70   0.502  -0.199   0.017
    1UNL    H26   71   0.507  -0.222  -0.315
    1UNL    H27   72   0.668  -0.066  -0.374
    1UNL    H28   73   0.325  -0.014  -0.404
    1UNL    H29   74   0.201  -0.219  -0.407
    1UNL    H30   75  -0.611  -0.115   0.019
    1UNL    H31   76  -0.408  -0.193  -0.207
    1UNL    H32   77  -0.568  -0.132  -0.227
    1UNL    H33   78  -0.587  -0.389  -0.236
    1UNL    H34   79  -0.537  -0.587  -0.084
    1UNL    H35   80  -0.624  -0.569   0.076
    1UNL    H36   81  -0.719  -0.553  -0.082
    1UNL    H37   82  -0.598  -0.322   0.176
    1UNL    H38   83  -0.451  -0.417   0.143
    1UNL    H39   84  -0.411  -0.146   0.183
    1UNL    H40   85  -0.326  -0.223   0.053
   0.00000   0.00000   0.00000   0.00000   0.00000   0.00000   0.00000   0.00000   0.00000
Generated with MDTraj, t= 17.0
 85
    1UNL     C1    1  -0.490   0.135   0.042
    1UNL     C2    2  -0.439   0.036  -0.026
    1UNL     C3    3  -0.325   0.069  -0.114
    1UNL     O1    4  -0.216  -0.022  -0.095
    1UNL     C4    5  -0.114   0.012  -0.185
    1UNL     O2    6  -0.091   0.149  -0.187
    1UNL     C5    7  -0.057   0.207  -0.060
    1UNL     C6    8  -0.060   0.359  -0.079
    1UNL     O3    9  -0.101   0.421   0.048
    1UNL     C7   10  -0.237   0.415   0.060
    1UNL     O4   11  -0.320   0.367  -0.014
    1UNL     C8   12  -0.286   0.470   0.183
    1UNL     C9   13  -0.223   0.382   0.293
    1UNL     O5   14  -0.267   0.271   0.313
    1UNL     O6   15  -0.133   0.443   0.375
    1UNL    C10   16   0.075   0.154  -0.011
    1UNL     O7   17   0.124   0.218   0.107
    1UNL    C11   18   0.055  -0.003  -0.001
    1UNL     O8   19   0.170  -0.056   0.067
    1UNL    C12   20   0.014  -0.062  -0.140
    1UNL     O9   21   0.105  -0.044  -0.248
    1UNL    C13   22   0.245  -0.055  -0.214
    1UNL    O10   23   0.313   0.060  -0.163
    1UNL    C14   24   0.423   0.021  -0.091
    1UNL    C15   25   0.508   0.148  -0.059
    1UNL    O11   26   0.588   0.119   0.059
    1UNL    C16   27   0.513   0.119   0.172
    1UNL    O12   28   0.401   0.166   0.176
    1UNL    C17   29   0.579   0.055   0.287
    1UNL    C18   30   0.548  -0.094   0.293
    1UNL    O13   31   0.515  -0.153   0.192
    1UNL    O14   32   0.566  -0.141   0.420
    1UNL    C19   33   0.506  -0.096  -0.151
    1UNL    O15   34   0.487  -0.210  -0.069
    1UNL    C20   35   0.485  -0.115  -0.304
    1UNL    O16   36   0.558  -0.023  -0.372
    1UNL    C21   37   0.332  -0.103  -0.333
    1UNL    O17   38   0.279  -0.231  -0.379
    1UNL    C22   39  -0.495  -0.105  -0.021
    1UNL    C23   40  -0.486  -0.184  -0.158
    1UNL    C24   41  -0.542  -0.323  -0.138
    1UNL    C25   42  -0.543  -0.385  -0.019
    1UNL    C26   43  -0.597  -0.520  -0.014
    1UNL    C27   44  -0.484  -0.331   0.114
    1UNL    C28   45  -0.434  -0.186   0.100
    1UNL     H1   46  -0.566   0.112   0.118
    1UNL     H2   47  -0.456   0.231   0.046
    1UNL     H3   48  -0.364   0.062  -0.226
    1UNL     H4   49  -0.294   0.178  -0.098
    1UNL     H5   50  -0.139  -0.008  -0.290
    1UNL     H6   51  -0.145   0.191   0.017
    1UNL     H7   52   0.037   0.394  -0.108
    1UNL     H8   53  -0.124   0.395  -0.162
    1UNL     H9   54  -0.257   0.571   0.204
    1UNL    H10   55  -0.396   0.475   0.187
    1UNL    H11   56  -0.087   0.386   0.440
    1UNL    H12   57   0.161   0.171  -0.082
    1UNL    H13   58   0.217   0.203   0.125
    1UNL    H14   59  -0.035  -0.023   0.061
    1UNL    H15   60   0.180  -0.011   0.154
    1UNL    H16   61   0.002  -0.167  -0.125
    1UNL    H17   62   0.259  -0.139  -0.144
    1UNL    H18   63   0.379  -0.026   0.004
    1UNL    H19   64   0.444   0.238  -0.040
    1UNL    H20   65   0.583   0.170  -0.140
    1UNL    H21   66   0.687   0.062   0.277
    1UNL    H22   67   0.545   0.100   0.373
    1UNL    H23   68   0.552  -0.233   0.428
    1UNL    H24   69   0.611  -0.076  -0.145
    1UNL    H25   70   0.505  -0.195   0.032
    1UNL    H26   71   0.528  -0.208  -0.333
    1UNL    H27   72   0.653  -0.014  -0.360
    1UNL    H28   73   0.325  -0.031  -0.414
    1UNL    H29   74   0.185  -0.227  -0.377
    1UNL    H30   75  -0.603  -0.107   0.009
    1UNL    H31   76  -0.375  -0.202  -0.182
    1UNL    H32   77  -0.535  -0.140  -0.239
    1UNL    H33   78  -0.568  -0.376  -0.229
    1UNL    H34   79  -0.523  -0.582  -0.063
    1UNL    H35   80  -0.607  -0.548   0.095
    1UNL    H36   81  -0.704  -0.542  -0.058
    1UNL    H37   82  -0.550  -0.354   0.203
    1UNL    H38   83  -0.397  -0.396   0.140
    1UNL    H39   84  -0.440  -0.130   0.192
    1UNL    H40   85  -0.318  -0.188   0.096
   0.00000   0.00000   0.00000   0.00000   0.00000   0.00000   0.00000   0.00000   0.00000
Generated with MDTraj, t= 18.0
 85
    1UNL     C1    1  -0.487   0.135   0.056
    1UNL     C2    2  -0.445   0.046  -0.032
    1UNL     C3    3  -0.333   0.072  -0.128
    1UNL     O1    4  -0.225  -0.015  -0.109
    1UNL     C4    5  -0.115   0.023  -0.191
    1UNL     O2    6  -0.091   0.163  -0.196
    1UNL     C5    7  -0.053   0.218  -0.068
    1UNL     C6    8  -0.052   0.372  -0.084
    1UNL     O3    9  -0.097   0.433   0.030
    1UNL     C7   10  -0.236   0.411   0.041
    1UNL     O4   11  -0.311   0.365  -0.042
    1UNL     C8   12  -0.292   0.448   0.176
    1UNL     C9   13  -0.247   0.367   0.297
    1UNL     O5   14  -0.272   0.248   0.314
    1UNL     O6   15  -0.174   0.444   0.381
    1UNL    C10   16   0.077   0.162  -0.020
    1UNL     O7   17   0.129   0.227   0.096
    1UNL    C11   18   0.057   0.010   0.003
    1UNL     O8   19   0.172  -0.057   0.041
    1UNL    C12   20   0.014  -0.050  -0.137
    1UNL     O9   21   0.104  -0.041  -0.247
    1UNL    C13   22   0.243  -0.058  -0.207
    1UNL    O10   23   0.317   0.060  -0.155
    1UNL    C14   24   0.433   0.030  -0.086
    1UNL    C15   25   0.528   0.155  -0.049
    1UNL    O11   26   0.604   0.128   0.070
    1UNL    C16   27   0.514   0.106   0.171
    1UNL    O12   28   0.394   0.129   0.180
    1UNL    C17   29   0.587   0.040   0.292
    1UNL    C18   30   0.552  -0.106   0.292
    1UNL    O13   31   0.512  -0.166   0.199
    1UNL    O14   32   0.559  -0.172   0.405
    1UNL    C19   33   0.508  -0.089  -0.148
    1UNL    O15   34   0.468  -0.208  -0.075
    1UNL    C20   35   0.477  -0.106  -0.305
    1UNL    O16   36   0.529  -0.005  -0.380
    1UNL    C21   37   0.320  -0.111  -0.325
    1UNL    O17   38   0.269  -0.245  -0.346
    1UNL    C22   39  -0.497  -0.099  -0.015
    1UNL    C23   40  -0.484  -0.177  -0.148
    1UNL    C24   41  -0.507  -0.326  -0.123
    1UNL    C25   42  -0.513  -0.386  -0.002
    1UNL    C26   43  -0.570  -0.527   0.010
    1UNL    C27   44  -0.472  -0.315   0.121
    1UNL    C28   45  -0.423  -0.172   0.102
    1UNL     H1   46  -0.559   0.109   0.138
    1UNL     H2   47  -0.467   0.242   0.067
    1UNL     H3   48  -0.364   0.067  -0.242
    1UNL     H4   49  -0.289   0.176  -0.118
    1UNL     H5   50  -0.139  -0.008  -0.289
    1UNL     H6   51  -0.141   0.189   0.002
    1UNL     H7   52   0.049   0.410  -0.101
    1UNL     H8   53  -0.111   0.402  -0.178
    1UNL     H9   54  -0.290   0.548   0.212
    1UNL    H10   55  -0.397   0.421   0.180
    1UNL    H11   56  -0.150   0.392   0.462
    1UNL    H12   57   0.162   0.168  -0.098
    1UNL    H13   58   0.224   0.194   0.120
    1UNL    H14   59  -0.025  -0.002   0.077
    1UNL    H15   60   0.225  -0.004   0.102
    1UNL    H16   61  -0.006  -0.156  -0.118
    1UNL    H17   62   0.256  -0.133  -0.127
    1UNL    H18   63   0.400  -0.009   0.015
    1UNL    H19   64   0.460   0.242  -0.027
    1UNL    H20   65   0.599   0.190  -0.128
    1UNL    H21   66   0.694   0.042   0.294
    1UNL    H22   67   0.546   0.090   0.373
    1UNL    H23   68   0.529  -0.263   0.392
    1UNL    H24   69   0.615  -0.069  -0.126
    1UNL    H25   70   0.482  -0.195   0.020
    1UNL    H26   71   0.530  -0.200  -0.328
    1UNL    H27   72   0.618   0.011  -0.358
    1UNL    H28   73   0.295  -0.041  -0.405
    1UNL    H29   74   0.174  -0.247  -0.332
    1UNL    H30   75  -0.604  -0.091   0.017
    1UNL    H31   76  -0.380  -0.166  -0.190
    1UNL    H32   77  -0.556  -0.134  -0.211
    1UNL    H33   78  -0.510  -0.384  -0.210
    1UNL    H34   79  -0.505  -0.595  -0.049
    1UNL    H35   80  -0.557  -0.562   0.118
    1UNL    H36   81  -0.676  -0.549  -0.006
    1UNL    H37   82  -0.557  -0.313   0.192
    1UNL    H38   83  -0.390  -0.366   0.178
    1UNL    H39   84  -0.422  -0.117   0.194
    1UNL    H40   85  -0.312  -0.161   0.071
   0.00000   0.00000   0.00000   0.00000   0.00000   0.00000   0.00000   0.00000   0.00000
Generated with MDTraj, t= 19.0
 85
    1UNL     C1    1  -0.498   0.147   0.037
    1UNL     C2    2  -0.447   0.043  -0.027
    1UNL     C3    3  -0.334   0.069  -0.121
    1UNL     O1    4  -0.219  -0.002  -0.099
    1UNL     C4    5  -0.111   0.033  -0.180
    1UNL     O2    6  -0.099   0.172  -0.186
    1UNL     C5    7  -0.054   0.232  -0.063
    1UNL     C6    8  -0.053   0.387  -0.072
    1UNL     O3    9  -0.105   0.444   0.039
    1UNL     C7   10  -0.241   0.430   0.049
    1UNL     O4   11  -0.304   0.373  -0.032
    1UNL     C8   12  -0.294   0.478   0.176
    1UNL     C9   13  -0.268   0.365   0.282
    1UNL     O5   14  -0.288   0.248   0.254
    1UNL     O6   15  -0.214   0.411   0.394
    1UNL    C10   16   0.075   0.175  -0.020
    1UNL     O7   17   0.147   0.248   0.085
    1UNL    C11   18   0.058   0.022  -0.001
    1UNL     O8   19   0.153  -0.054   0.058
    1UNL    C12   20   0.022  -0.036  -0.144
    1UNL     O9   21   0.115  -0.033  -0.254
    1UNL    C13   22   0.248  -0.064  -0.221
    1UNL    O10   23   0.306   0.053  -0.158
    1UNL    C14   24   0.417   0.009  -0.085
    1UNL    C15   25   0.504   0.137  -0.044
    1UNL    O11   26   0.578   0.112   0.067
    1UNL    C16   27   0.490   0.084   0.169
    1UNL    O12   28   0.374   0.105   0.161
    1UNL    C17   29   0.554   0.024   0.288
    1UNL    C18   30   0.542  -0.125   0.295
    1UNL    O13   31   0.535  -0.185   0.190
    1UNL    O14   32   0.558  -0.177   0.426
    1UNL    C19   33   0.510  -0.098  -0.160
    1UNL    O15   34   0.492  -0.218  -0.098
    1UNL    C20   35   0.486  -0.098  -0.315
    1UNL    O16   36   0.544   0.016  -0.378
    1UNL    C21   37   0.335  -0.124  -0.331
    1UNL    O17   38   0.310  -0.263  -0.358
    1UNL    C22   39  -0.488  -0.097  -0.002
    1UNL    C23   40  -0.484  -0.182  -0.132
    1UNL    C24   41  -0.513  -0.325  -0.102
    1UNL    C25   42  -0.496  -0.380   0.019
    1UNL    C26   43  -0.508  -0.527   0.027
    1UNL    C27   44  -0.471  -0.299   0.138
    1UNL    C28   45  -0.409  -0.161   0.112
    1UNL     H1   46  -0.578   0.141   0.097
    1UNL     H2   47  -0.463   0.248   0.019
    1UNL     H3   48  -0.376   0.047  -0.229
    1UNL     H4   49  -0.305   0.180  -0.116
    1UNL     H5   50  -0.135  -0.001  -0.275
    1UNL     H6   51  -0.137   0.203   0.013
    1UNL     H7   52   0.052   0.419  -0.093
    1UNL     H8   53  -0.113   0.424  -0.164
    1UNL     H9   54  -0.234   0.561   0.208
    1UNL    H10   55  -0.394   0.518   0.179
    1UNL    H11   56  -0.188   0.334   0.450
    1UNL    H12   57   0.139   0.192  -0.115
    1UNL    H13   58   0.227   0.202   0.111
    1UNL    H14   59  -0.033   0.016   0.061
    1UNL    H15   60   0.219  -0.001   0.112
    1UNL    H16   61   0.012  -0.147  -0.130
    1UNL    H17   62   0.245  -0.138  -0.138
    1UNL    H18   63   0.379  -0.031   0.013
    1UNL    H19   64   0.450   0.232  -0.030
    1UNL    H20   65   0.579   0.155  -0.124
    1UNL    H21   66   0.650   0.061   0.281
    1UNL    H22   67   0.504   0.057   0.375
    1UNL    H23   68   0.537  -0.276   0.421
    1UNL    H24   69   0.615  -0.056  -0.144
    1UNL    H25   70   0.503  -0.211  -0.001
    1UNL    H26   71   0.517  -0.197  -0.361
    1UNL    H27   72   0.635   0.031  -0.355
    1UNL    H28   73   0.294  -0.076  -0.422
    1UNL    H29   74   0.214  -0.288  -0.360
    1UNL    H30   75  -0.594  -0.085   0.032
    1UNL    H31   76  -0.380  -0.164  -0.161
    1UNL    H32   77  -0.547  -0.146  -0.209
    1UNL    H33   78  -0.523  -0.399  -0.187
    1UNL    H34   79  -0.450  -0.570  -0.064
    1UNL    H35   80  -0.452  -0.564   0.119
    1UNL    H36   81  -0.604  -0.569   0.037
    1UNL    H37   82  -0.560  -0.278   0.195
    1UNL    H38   83  -0.401  -0.355   0.207
    1UNL    H39   84  -0.417  -0.085   0.187
    1UNL    H40   85  -0.296  -0.169   0.093
   0.00000   0.00000   0.00000   0.00000   0.00000   0.00000   0.00000   0.00000   0.00000
Generated with MDTraj, t= 20.0
 85
    1UNL     C1    1  -0.509   0.153   0.045
    1UNL     C2    2  -0.451   0.056  -0.023
    1UNL     C3    3  -0.337   0.084  -0.124
    1UNL     O1    4  -0.226  -0.001  -0.109
    1UNL     C4    5  -0.112   0.025  -0.193
    1UNL     O2    6  -0.081   0.165  -0.214
    1UNL     C5    7  -0.051   0.224  -0.088
    1UNL     C6    8  -0.061   0.383  -0.092
    1UNL     O3    9  -0.086   0.437   0.029
    1UNL     C7   10  -0.227   0.440   0.045
    1UNL     O4   11  -0.313   0.425  -0.038
    1UNL     C8   12  -0.265   0.467   0.184
    1UNL     C9   13  -0.285   0.349   0.268
    1UNL     O5   14  -0.337   0.246   0.230
    1UNL     O6   15  -0.267   0.375   0.404
    1UNL    C10   16   0.083   0.170  -0.035
    1UNL     O7   17   0.125   0.240   0.091
    1UNL    C11   18   0.070   0.015  -0.007
    1UNL     O8   19   0.179  -0.047   0.035
    1UNL    C12   20   0.014  -0.051  -0.145
    1UNL     O9   21   0.102  -0.048  -0.253
    1UNL    C13   22   0.239  -0.072  -0.217
    1UNL    O10   23   0.308   0.042  -0.158
    1UNL    C14   24   0.428   0.010  -0.079
    1UNL    C15   25   0.499   0.135  -0.027
    1UNL    O11   26   0.568   0.101   0.090
    1UNL    C16   27   0.486   0.088   0.196
    1UNL    O12   28   0.370   0.112   0.199
    1UNL    C17   29   0.549   0.020   0.315
    1UNL    C18   30   0.547  -0.131   0.297
    1UNL    O13   31   0.550  -0.185   0.189
    1UNL    O14   32   0.541  -0.209   0.403
    1UNL    C19   33   0.523  -0.084  -0.155
    1UNL    O15   34   0.533  -0.214  -0.110
    1UNL    C20   35   0.475  -0.107  -0.315
    1UNL    O16   36   0.525   0.011  -0.389
    1UNL    C21   37   0.319  -0.122  -0.341
    1UNL    O17   38   0.277  -0.245  -0.379
    1UNL    C22   39  -0.487  -0.083   0.004
    1UNL    C23   40  -0.478  -0.173  -0.119
    1UNL    C24   41  -0.490  -0.314  -0.083
    1UNL    C25   42  -0.457  -0.370   0.037
    1UNL    C26   43  -0.472  -0.515   0.057
    1UNL    C27   44  -0.430  -0.283   0.156
    1UNL    C28   45  -0.395  -0.138   0.115
    1UNL     H1   46  -0.588   0.133   0.115
    1UNL     H2   47  -0.453   0.252   0.046
    1UNL     H3   48  -0.380   0.063  -0.228
    1UNL     H4   49  -0.306   0.194  -0.112
    1UNL     H5   50  -0.143  -0.015  -0.284
    1UNL     H6   51  -0.132   0.193  -0.014
    1UNL     H7   52   0.024   0.434  -0.139
    1UNL     H8   53  -0.152   0.404  -0.162
    1UNL     H9   54  -0.190   0.528   0.231
    1UNL    H10   55  -0.352   0.531   0.186
    1UNL    H11   56  -0.293   0.288   0.443
    1UNL    H12   57   0.166   0.184  -0.115
    1UNL    H13   58   0.201   0.194   0.133
    1UNL    H14   59  -0.011  -0.010   0.063
    1UNL    H15   60   0.228   0.006   0.101
    1UNL    H16   61  -0.008  -0.159  -0.120
    1UNL    H17   62   0.248  -0.153  -0.142
    1UNL    H18   63   0.383  -0.051   0.003
    1UNL    H19   64   0.429   0.211   0.004
    1UNL    H20   65   0.557   0.187  -0.105
    1UNL    H21   66   0.646   0.049   0.319
    1UNL    H22   67   0.495   0.057   0.401
    1UNL    H23   68   0.540  -0.301   0.358
    1UNL    H24   69   0.635  -0.060  -0.169
    1UNL    H25   70   0.534  -0.212  -0.004
    1UNL    H26   71   0.535  -0.199  -0.347
    1UNL    H27   72   0.624   0.017  -0.374
    1UNL    H28   73   0.290  -0.053  -0.425
    1UNL    H29   74   0.176  -0.254  -0.379
    1UNL    H30   75  -0.595  -0.099   0.036
    1UNL    H31   76  -0.389  -0.163  -0.171
    1UNL    H32   77  -0.554  -0.134  -0.186
    1UNL    H33   78  -0.510  -0.381  -0.157
    1UNL    H34   79  -0.418  -0.566  -0.031
    1UNL    H35   80  -0.428  -0.544   0.154
    1UNL    H36   81  -0.574  -0.546   0.067
    1UNL    H37   82  -0.523  -0.282   0.210
    1UNL    H38   83  -0.354  -0.320   0.230
    1UNL    H39   84  -0.402  -0.081   0.207
    1UNL    H40   85  -0.290  -0.117   0.084
   0.00000   0.00000   0.00000   0.00000   0.00000   0.00000   0.00000   0.00000   0.00000
Generated with MDTraj, t= 21.0
 85
    1UNL     C1    1  -0.518   0.178  -0.009
    1UNL     C2    2  -0.449   0.070  -0.044
    1UNL     C3    3  -0.332   0.079  -0.136
    1UNL     O1    4  -0.219  -0.008  -0.099
    1UNL     C4    5  -0.116   0.019  -0.193
    1UNL     O2    6  -0.087   0.162  -0.210
    1UNL     C5    7  -0.057   0.220  -0.083
    1UNL     C6    8  -0.049   0.374  -0.091
    1UNL     O3    9  -0.076   0.442   0.027
    1UNL     C7   10  -0.204   0.433   0.056
    1UNL     O4   11  -0.288   0.400  -0.027
    1UNL     C8   12  -0.257   0.469   0.201
    1UNL     C9   13  -0.316   0.346   0.268
    1UNL     O5   14  -0.351   0.247   0.211
    1UNL     O6   15  -0.306   0.357   0.404
    1UNL    C10   16   0.069   0.153  -0.033
    1UNL     O7   17   0.120   0.226   0.084
    1UNL    C11   18   0.042  -0.003  -0.001
    1UNL     O8   19   0.132  -0.072   0.068
    1UNL    C12   20   0.006  -0.061  -0.145
    1UNL     O9   21   0.103  -0.041  -0.243
    1UNL    C13   22   0.237  -0.058  -0.206
    1UNL    O10   23   0.302   0.058  -0.146
    1UNL    C14   24   0.429   0.024  -0.096
    1UNL    C15   25   0.495   0.142  -0.022
    1UNL    O11   26   0.559   0.106   0.097
    1UNL    C16   27   0.468   0.071   0.193
    1UNL    O12   28   0.350   0.094   0.177
    1UNL    C17   29   0.521  -0.007   0.318
    1UNL    C18   30   0.537  -0.150   0.286
    1UNL    O13   31   0.549  -0.181   0.167
    1UNL    O14   32   0.532  -0.225   0.395
    1UNL    C19   33   0.520  -0.071  -0.178
    1UNL    O15   34   0.549  -0.192  -0.115
    1UNL    C20   35   0.471  -0.097  -0.316
    1UNL    O16   36   0.547  -0.017  -0.414
    1UNL    C21   37   0.319  -0.105  -0.335
    1UNL    O17   38   0.281  -0.226  -0.375
    1UNL    C22   39  -0.475  -0.066   0.011
    1UNL    C23   40  -0.467  -0.171  -0.107
    1UNL    C24   41  -0.463  -0.313  -0.063
    1UNL    C25   42  -0.419  -0.353   0.057
    1UNL    C26   43  -0.444  -0.496   0.094
    1UNL    C27   44  -0.387  -0.251   0.162
    1UNL    C28   45  -0.367  -0.107   0.115
    1UNL     H1   46  -0.594   0.177   0.066
    1UNL     H2   47  -0.480   0.264  -0.045
    1UNL     H3   48  -0.358   0.058  -0.243
    1UNL     H4   49  -0.292   0.185  -0.129
    1UNL     H5   50  -0.146  -0.017  -0.288
    1UNL     H6   51  -0.141   0.201  -0.013
    1UNL     H7   52   0.048   0.402  -0.129
    1UNL     H8   53  -0.125   0.403  -0.170
    1UNL     H9   54  -0.178   0.515   0.259
    1UNL    H10   55  -0.321   0.553   0.187
    1UNL    H11   56  -0.319   0.270   0.443
    1UNL    H12   57   0.151   0.171  -0.114
    1UNL    H13   58   0.205   0.188   0.125
    1UNL    H14   59  -0.050  -0.007   0.062
    1UNL    H15   60   0.205  -0.014   0.101
    1UNL    H16   61  -0.004  -0.173  -0.132
    1UNL    H17   62   0.255  -0.134  -0.127
    1UNL    H18   63   0.394  -0.031  -0.005
    1UNL    H19   64   0.420   0.214  -0.000
    1UNL    H20   65   0.574   0.198  -0.071
    1UNL    H21   66   0.618   0.030   0.338
    1UNL    H22   67   0.461   0.011   0.404
    1UNL    H23   68   0.553  -0.317   0.363
    1UNL    H24   69   0.622  -0.019  -0.191
    1UNL    H25   70   0.560  -0.185  -0.022
    1UNL    H26   71   0.498  -0.207  -0.341
    1UNL    H27   72   0.649  -0.031  -0.401
    1UNL    H28   73   0.294  -0.044  -0.427
    1UNL    H29   74   0.180  -0.227  -0.386
    1UNL    H30   75  -0.577  -0.075   0.057
    1UNL    H31   76  -0.377  -0.156  -0.153
    1UNL    H32   77  -0.540  -0.164  -0.186
    1UNL    H33   78  -0.494  -0.398  -0.132
    1UNL    H34   79  -0.373  -0.563   0.047
    1UNL    H35   80  -0.450  -0.509   0.202
    1UNL    H36   81  -0.549  -0.528   0.064
    1UNL    H37   82  -0.467  -0.251   0.233
    1UNL    H38   83  -0.298  -0.294   0.213
    1UNL    H39   84  -0.369  -0.032   0.194
    1UNL    H40   85  -0.264  -0.103   0.088
   0.00000   0.00000   0.00000   0.00000   0.00000   0.00000   0.00000   0.00000   0.00000
Generated with MDTraj, t= 22.0
 85
    1UNL     C1    1  -0.543   0.176  -0.040
    1UNL     C2    2  -0.460   0.073  -0.068
    1UNL     C3    3  -0.344   0.108  -0.148
    1UNL     O1    4  -0.241  -0.000  -0.144
    1UNL     C4    5  -0.117   0.041  -0.208
    1UNL     O2    6  -0.078   0.176  -0.213
    1UNL     C5    7  -0.048   0.228  -0.084
    1UNL     C6    8  -0.031   0.379  -0.081
    1UNL     O3    9  -0.077   0.434   0.042
    1UNL     C7   10  -0.210   0.417   0.061
    1UNL     O4   11  -0.277   0.366  -0.029
    1UNL     C8   12  -0.274   0.446   0.186
    1UNL     C9   13  -0.318   0.334   0.269
    1UNL     O5   14  -0.345   0.225   0.229
    1UNL     O6   15  -0.332   0.364   0.402
    1UNL    C10   16   0.070   0.153  -0.019
    1UNL     O7   17   0.099   0.196   0.118
    1UNL    C11   18   0.049  -0.008  -0.015
    1UNL     O8   19   0.151  -0.085   0.026
    1UNL    C12   20   0.006  -0.046  -0.164
    1UNL     O9   21   0.109  -0.028  -0.255
    1UNL    C13   22   0.243  -0.062  -0.218
    1UNL    O10   23   0.308   0.052  -0.148
    1UNL    C14   24   0.427   0.014  -0.081
    1UNL    C15   25   0.485   0.145  -0.021
    1UNL    O11   26   0.551   0.112   0.098
    1UNL    C16   27   0.462   0.062   0.194
    1UNL    O12   28   0.339   0.062   0.193
    1UNL    C17   29   0.521  -0.002   0.315
    1UNL    C18   30   0.529  -0.150   0.285
    1UNL    O13   31   0.543  -0.200   0.173
    1UNL    O14   32   0.525  -0.237   0.390
    1UNL    C19   33   0.529  -0.065  -0.169
    1UNL    O15   34   0.578  -0.189  -0.121
    1UNL    C20   35   0.479  -0.103  -0.313
    1UNL    O16   36   0.541  -0.014  -0.408
    1UNL    C21   37   0.326  -0.099  -0.346
    1UNL    O17   38   0.282  -0.222  -0.398
    1UNL    C22   39  -0.480  -0.065   0.000
    1UNL    C23   40  -0.465  -0.185  -0.092
    1UNL    C24   41  -0.476  -0.316  -0.025
    1UNL    C25   42  -0.411  -0.328   0.096
    1UNL    C26   43  -0.390  -0.466   0.151
    1UNL    C27   44  -0.374  -0.209   0.184
    1UNL    C28   45  -0.368  -0.078   0.104
    1UNL     H1   46  -0.642   0.175   0.021
    1UNL     H2   47  -0.528   0.271  -0.087
    1UNL     H3   48  -0.370   0.123  -0.252
    1UNL     H4   49  -0.287   0.199  -0.118
    1UNL     H5   50  -0.135   0.021  -0.312
    1UNL     H6   51  -0.136   0.205  -0.023
    1UNL     H7   52   0.074   0.390  -0.089
    1UNL     H8   53  -0.078   0.430  -0.165
    1UNL     H9   54  -0.204   0.511   0.238
    1UNL    H10   55  -0.363   0.500   0.167
    1UNL    H11   56  -0.370   0.285   0.443
    1UNL    H12   57   0.166   0.184  -0.078
    1UNL    H13   58   0.182   0.153   0.145
    1UNL    H14   59  -0.037  -0.029   0.050
    1UNL    H15   60   0.216  -0.030   0.080
    1UNL    H16   61  -0.030  -0.152  -0.173
    1UNL    H17   62   0.251  -0.134  -0.135
    1UNL    H18   63   0.401  -0.044   0.006
    1UNL    H19   64   0.420   0.225   0.006
    1UNL    H20   65   0.553   0.194  -0.091
    1UNL    H21   66   0.619   0.048   0.325
    1UNL    H22   67   0.472   0.006   0.406
    1UNL    H23   68   0.548  -0.322   0.350
    1UNL    H24   69   0.621   0.001  -0.164
    1UNL    H25   70   0.571  -0.186  -0.017
    1UNL    H26   71   0.497  -0.214  -0.335
    1UNL    H27   72   0.643  -0.022  -0.403
    1UNL    H28   73   0.299  -0.022  -0.422
    1UNL    H29   74   0.190  -0.215  -0.428
    1UNL    H30   75  -0.585  -0.056   0.043
    1UNL    H31   76  -0.371  -0.183  -0.142
    1UNL    H32   77  -0.541  -0.182  -0.167
    1UNL    H33   78  -0.511  -0.403  -0.074
    1UNL    H34   79  -0.301  -0.514   0.126
    1UNL    H35   80  -0.400  -0.464   0.259
    1UNL    H36   81  -0.480  -0.535   0.125
    1UNL    H37   82  -0.455  -0.203   0.256
    1UNL    H38   83  -0.282  -0.230   0.240
    1UNL    H39   84  -0.351   0.002   0.180
    1UNL    H40   85  -0.282  -0.073   0.048
   0.00000   0.00000   0.00000   0.00000   0.00000   0.00000   0.00000   0.00000   0.00000
Generated with MDTraj, t= 23.0
 85
    1UNL     C1    1  -0.543   0.185  -0.090
    1UNL     C2    2  -0.449   0.086  -0.088
    1UNL     C3    3  -0.340   0.085  -0.191
    1UNL     O1    4  -0.229  -0.001  -0.152
    1UNL     C4    5  -0.114   0.047  -0.228
    1UNL     O2    6  -0.081   0.186  -0.210
    1UNL     C5    7  -0.050   0.214  -0.072
    1UNL     C6    8  -0.042   0.366  -0.052
    1UNL     O3    9  -0.107   0.400   0.071
    1UNL     C7   10  -0.242   0.402   0.062
    1UNL     O4   11  -0.307   0.378  -0.041
    1UNL     C8   12  -0.308   0.445   0.186
    1UNL     C9   13  -0.325   0.320   0.280
    1UNL     O5   14  -0.318   0.209   0.235
    1UNL     O6   15  -0.359   0.349   0.404
    1UNL    C10   16   0.071   0.133  -0.015
    1UNL     O7   17   0.097   0.169   0.118
    1UNL    C11   18   0.046  -0.024  -0.036
    1UNL     O8   19   0.138  -0.105   0.012
    1UNL    C12   20   0.008  -0.045  -0.188
    1UNL     O9   21   0.107  -0.021  -0.283
    1UNL    C13   22   0.238  -0.051  -0.242
    1UNL    O10   23   0.298   0.061  -0.179
    1UNL    C14   24   0.409   0.017  -0.093
    1UNL    C15   25   0.465   0.131  -0.009
    1UNL    O11   26   0.542   0.077   0.098
    1UNL    C16   27   0.470   0.051   0.207
    1UNL    O12   28   0.348   0.072   0.212
    1UNL    C17   29   0.536  -0.021   0.316
    1UNL    C18   30   0.532  -0.170   0.296
    1UNL    O13   31   0.553  -0.203   0.181
    1UNL    O14   32   0.518  -0.247   0.406
    1UNL    C19   33   0.518  -0.057  -0.174
    1UNL    O15   34   0.573  -0.174  -0.111
    1UNL    C20   35   0.484  -0.097  -0.321
    1UNL    O16   36   0.561  -0.012  -0.410
    1UNL    C21   37   0.336  -0.088  -0.360
    1UNL    O17   38   0.300  -0.215  -0.421
    1UNL    C22   39  -0.466  -0.032   0.005
    1UNL    C23   40  -0.465  -0.171  -0.071
    1UNL    C24   41  -0.423  -0.291   0.004
    1UNL    C25   42  -0.386  -0.296   0.136
    1UNL    C26   43  -0.365  -0.424   0.212
    1UNL    C27   44  -0.371  -0.163   0.206
    1UNL    C28   45  -0.348  -0.045   0.107
    1UNL     H1   46  -0.628   0.182  -0.031
    1UNL     H2   47  -0.538   0.274  -0.146
    1UNL     H3   48  -0.369   0.061  -0.290
    1UNL     H4   49  -0.295   0.186  -0.200
    1UNL     H5   50  -0.129   0.035  -0.336
    1UNL     H6   51  -0.136   0.169  -0.027
    1UNL     H7   52   0.059   0.393  -0.053
    1UNL     H8   53  -0.086   0.411  -0.139
    1UNL     H9   54  -0.259   0.521   0.244
    1UNL    H10   55  -0.405   0.481   0.161
    1UNL    H11   56  -0.389   0.266   0.447
    1UNL    H12   57   0.172   0.156  -0.071
    1UNL    H13   58   0.188   0.136   0.155
    1UNL    H14   59  -0.041  -0.053   0.026
    1UNL    H15   60   0.193  -0.067   0.082
    1UNL    H16   61  -0.010  -0.153  -0.197
    1UNL    H17   62   0.253  -0.131  -0.169
    1UNL    H18   63   0.356  -0.062  -0.044
    1UNL    H19   64   0.389   0.199   0.029
    1UNL    H20   65   0.528   0.195  -0.076
    1UNL    H21   66   0.643   0.004   0.335
    1UNL    H22   67   0.483   0.009   0.402
    1UNL    H23   68   0.506  -0.339   0.389
    1UNL    H24   69   0.606   0.011  -0.175
    1UNL    H25   70   0.561  -0.176  -0.013
    1UNL    H26   71   0.523  -0.196  -0.348
    1UNL    H27   72   0.656  -0.025  -0.383
    1UNL    H28   73   0.321  -0.009  -0.435
    1UNL    H29   74   0.215  -0.213  -0.460
    1UNL    H30   75  -0.560  -0.011   0.066
    1UNL    H31   76  -0.391  -0.155  -0.154
    1UNL    H32   77  -0.556  -0.191  -0.119
    1UNL    H33   78  -0.432  -0.385  -0.050
    1UNL    H34   79  -0.278  -0.480   0.191
    1UNL    H35   80  -0.385  -0.414   0.318
    1UNL    H36   81  -0.455  -0.485   0.180
    1UNL    H37   82  -0.460  -0.139   0.263
    1UNL    H38   83  -0.288  -0.180   0.274
    1UNL    H39   84  -0.330   0.049   0.155
    1UNL    H40   85  -0.254  -0.068   0.068
   0.00000   0.00000   0.00000   0.00000   0.00000   0.00000   0.00000   0.00000   0.00000
Generated with MDTraj, t= 24.0
 85
    1UNL     C1    1  -0.532   0.185  -0.097
    1UNL     C2    2  -0.454   0.076  -0.106
    1UNL     C3    3  -0.331   0.088  -0.197
    1UNL     O1    4  -0.233  -0.006  -0.175
    1UNL     C4    5  -0.106   0.038  -0.233
    1UNL     O2    6  -0.084   0.173  -0.211
    1UNL     C5    7  -0.064   0.199  -0.078
    1UNL     C6    8  -0.064   0.351  -0.044
    1UNL     O3    9  -0.132   0.372   0.081
    1UNL     C7   10  -0.266   0.393   0.061
    1UNL     O4   11  -0.328   0.392  -0.045
    1UNL     C8   12  -0.349   0.428   0.185
    1UNL     C9   13  -0.346   0.319   0.290
    1UNL     O5   14  -0.287   0.212   0.277
    1UNL     O6   15  -0.384   0.364   0.416
    1UNL    C10   16   0.066   0.135  -0.023
    1UNL     O7   17   0.079   0.157   0.115
    1UNL    C11   18   0.054  -0.023  -0.045
    1UNL     O8   19   0.158  -0.104  -0.010
    1UNL    C12   20   0.009  -0.056  -0.194
    1UNL     O9   21   0.116  -0.037  -0.289
    1UNL    C13   22   0.248  -0.051  -0.242
    1UNL    O10   23   0.302   0.054  -0.158
    1UNL    C14   24   0.423   0.014  -0.090
    1UNL    C15   25   0.466   0.136  -0.009
    1UNL    O11   26   0.538   0.100   0.112
    1UNL    C16   27   0.448   0.034   0.194
    1UNL    O12   28   0.327   0.016   0.177
    1UNL    C17   29   0.518  -0.029   0.314
    1UNL    C18   30   0.534  -0.176   0.290
    1UNL    O13   31   0.559  -0.226   0.183
    1UNL    O14   32   0.521  -0.261   0.393
    1UNL    C19   33   0.538  -0.059  -0.171
    1UNL    O15   34   0.561  -0.191  -0.112
    1UNL    C20   35   0.498  -0.088  -0.320
    1UNL    O16   36   0.584  -0.023  -0.406
    1UNL    C21   37   0.353  -0.067  -0.358
    1UNL    O17   38   0.298  -0.176  -0.444
    1UNL    C22   39  -0.463  -0.036  -0.010
    1UNL    C23   40  -0.428  -0.177  -0.068
    1UNL    C24   41  -0.415  -0.283   0.029
    1UNL    C25   42  -0.382  -0.255   0.159
    1UNL    C26   43  -0.338  -0.366   0.251
    1UNL    C27   44  -0.347  -0.115   0.211
    1UNL    C28   45  -0.356  -0.003   0.103
    1UNL     H1   46  -0.603   0.195  -0.019
    1UNL     H2   47  -0.504   0.276  -0.162
    1UNL     H3   48  -0.366   0.079  -0.295
    1UNL     H4   49  -0.292   0.188  -0.191
    1UNL     H5   50  -0.119   0.030  -0.346
    1UNL     H6   51  -0.149   0.160  -0.028
    1UNL     H7   52   0.032   0.395  -0.037
    1UNL     H8   53  -0.120   0.407  -0.119
    1UNL     H9   54  -0.318   0.519   0.234
    1UNL    H10   55  -0.454   0.440   0.168
    1UNL    H11   56  -0.354   0.298   0.484
    1UNL    H12   57   0.153   0.195  -0.074
    1UNL    H13   58   0.158   0.113   0.141
    1UNL    H14   59  -0.029  -0.055   0.020
    1UNL    H15   60   0.210  -0.056   0.062
    1UNL    H16   61  -0.031  -0.157  -0.197
    1UNL    H17   62   0.261  -0.140  -0.180
    1UNL    H18   63   0.386  -0.058  -0.018
    1UNL    H19   64   0.369   0.187   0.013
    1UNL    H20   65   0.532   0.215  -0.059
    1UNL    H21   66   0.616   0.011   0.337
    1UNL    H22   67   0.453  -0.012   0.405
    1UNL    H23   68   0.521  -0.351   0.362
    1UNL    H24   69   0.626   0.004  -0.155
    1UNL    H25   70   0.568  -0.192  -0.018
    1UNL    H26   71   0.520  -0.191  -0.344
    1UNL    H27   72   0.670  -0.046  -0.374
    1UNL    H28   73   0.345   0.030  -0.407
    1UNL    H29   74   0.203  -0.154  -0.460
    1UNL    H30   75  -0.565  -0.056   0.038
    1UNL    H31   76  -0.331  -0.160  -0.128
    1UNL    H32   77  -0.501  -0.194  -0.140
    1UNL    H33   78  -0.430  -0.386  -0.008
    1UNL    H34   79  -0.247  -0.420   0.218
    1UNL    H35   80  -0.337  -0.337   0.355
    1UNL    H36   81  -0.417  -0.434   0.247
    1UNL    H37   82  -0.421  -0.094   0.290
    1UNL    H38   83  -0.251  -0.115   0.260
    1UNL    H39   84  -0.371   0.088   0.151
    1UNL    H40   85  -0.267   0.005   0.042
   0.00000   0.00000   0.00000   0.00000   0.00000   0.00000   0.00000   0.00000   0.00000
Generated with MDTraj, t= 25.0
 85
    1UNL     C1    1  -0.546   0.150  -0.137
    1UNL     C2    2  -0.442   0.070  -0.116
    1UNL     C3    3  -0.330   0.075  -0.215
    1UNL     O1    4  -0.231  -0.012  -0.188
    1UNL     C4    5  -0.109   0.036  -0.257
    1UNL     O2    6  -0.095   0.178  -0.221
    1UNL     C5    7  -0.064   0.197  -0.084
    1UNL     C6    8  -0.066   0.352  -0.035
    1UNL     O3    9  -0.139   0.379   0.083
    1UNL     C7   10  -0.275   0.374   0.065
    1UNL     O4   11  -0.330   0.332  -0.034
    1UNL     C8   12  -0.360   0.413   0.181
    1UNL     C9   13  -0.340   0.334   0.310
    1UNL     O5   14  -0.297   0.221   0.302
    1UNL     O6   15  -0.388   0.389   0.423
    1UNL    C10   16   0.057   0.122  -0.029
    1UNL     O7   17   0.079   0.150   0.105
    1UNL    C11   18   0.035  -0.033  -0.064
    1UNL     O8   19   0.117  -0.125   0.003
    1UNL    C12   20   0.015  -0.050  -0.220
    1UNL     O9   21   0.127  -0.008  -0.298
    1UNL    C13   22   0.253  -0.046  -0.252
    1UNL    O10   23   0.305   0.044  -0.150
    1UNL    C14   24   0.421   0.002  -0.082
    1UNL    C15   25   0.469   0.120   0.004
    1UNL    O11   26   0.538   0.073   0.117
    1UNL    C16   27   0.439   0.018   0.197
    1UNL    O12   28   0.321   0.029   0.183
    1UNL    C17   29   0.495  -0.048   0.320
    1UNL    C18   30   0.532  -0.187   0.282
    1UNL    O13   31   0.565  -0.202   0.168
    1UNL    O14   32   0.531  -0.283   0.383
    1UNL    C19   33   0.529  -0.066  -0.164
    1UNL    O15   34   0.570  -0.195  -0.108
    1UNL    C20   35   0.497  -0.088  -0.317
    1UNL    O16   36   0.596  -0.031  -0.404
    1UNL    C21   37   0.360  -0.040  -0.361
    1UNL    O17   38   0.301  -0.126  -0.465
    1UNL    C22   39  -0.435  -0.027  -0.008
    1UNL    C23   40  -0.411  -0.173  -0.063
    1UNL    C24   41  -0.377  -0.263   0.051
    1UNL    C25   42  -0.367  -0.225   0.182
    1UNL    C26   43  -0.327  -0.332   0.285
    1UNL    C27   44  -0.361  -0.085   0.230
    1UNL    C28   45  -0.343   0.014   0.111
    1UNL     H1   46  -0.618   0.164  -0.062
    1UNL     H2   47  -0.532   0.218  -0.220
    1UNL     H3   48  -0.366   0.067  -0.312
    1UNL     H4   49  -0.297   0.174  -0.199
    1UNL     H5   50  -0.121   0.031  -0.371
    1UNL     H6   51  -0.145   0.150  -0.033
    1UNL     H7   52   0.030   0.397  -0.025
    1UNL     H8   53  -0.127   0.424  -0.100
    1UNL     H9   54  -0.339   0.516   0.197
    1UNL    H10   55  -0.458   0.400   0.137
    1UNL    H11   56  -0.390   0.330   0.503
    1UNL    H12   57   0.150   0.159  -0.091
    1UNL    H13   58   0.167   0.110   0.143
    1UNL    H14   59  -0.066  -0.066  -0.032
    1UNL    H15   60   0.177  -0.082   0.067
    1UNL    H16   61   0.010  -0.156  -0.233
    1UNL    H17   62   0.247  -0.147  -0.214
    1UNL    H18   63   0.394  -0.073  -0.007
    1UNL    H19   64   0.388   0.181   0.048
    1UNL    H20   65   0.532   0.191  -0.059
    1UNL    H21   66   0.575   0.019   0.350
    1UNL    H22   67   0.419  -0.052   0.409
    1UNL    H23   68   0.557  -0.371   0.345
    1UNL    H24   69   0.610   0.002  -0.144
    1UNL    H25   70   0.575  -0.191  -0.004
    1UNL    H26   71   0.503  -0.189  -0.349
    1UNL    H27   72   0.684  -0.052  -0.380
    1UNL    H28   73   0.365   0.062  -0.396
    1UNL    H29   74   0.202  -0.107  -0.482
    1UNL    H30   75  -0.540  -0.043   0.036
    1UNL    H31   76  -0.324  -0.172  -0.138
    1UNL    H32   77  -0.496  -0.206  -0.117
    1UNL    H33   78  -0.379  -0.363   0.028
    1UNL    H34   79  -0.244  -0.399   0.251
    1UNL    H35   80  -0.315  -0.300   0.387
    1UNL    H36   81  -0.409  -0.392   0.296
    1UNL    H37   82  -0.453  -0.062   0.286
    1UNL    H38   83  -0.278  -0.081   0.300
    1UNL    H39   84  -0.363   0.117   0.120
    1UNL    H40   85  -0.234  -0.001   0.088
   0.00000   0.00000   0.00000   0.00000   0.00000   0.00000   0.00000   0.00000   0.00000
Generated with MDTraj, t= 26.0
 85
    1UNL     C1    1  -0.586   0.102  -0.150
    1UNL     C2    2  -0.462   0.047  -0.136
    1UNL     C3    3  -0.342   0.078  -0.230
    1UNL     O1    4  -0.233  -0.002  -0.195
    1UNL     C4    5  -0.106   0.045  -0.258
    1UNL     O2    6  -0.084   0.183  -0.233
    1UNL     C5    7  -0.070   0.202  -0.099
    1UNL     C6    8  -0.067   0.356  -0.065
    1UNL     O3    9  -0.130   0.387   0.060
    1UNL     C7   10  -0.261   0.348   0.066
    1UNL     O4   11  -0.316   0.273  -0.007
    1UNL     C8   12  -0.337   0.413   0.182
    1UNL     C9   13  -0.339   0.331   0.304
    1UNL     O5   14  -0.351   0.210   0.312
    1UNL     O6   15  -0.361   0.407   0.419
    1UNL    C10   16   0.055   0.136  -0.032
    1UNL     O7   17   0.046   0.137   0.112
    1UNL    C11   18   0.043  -0.019  -0.069
    1UNL     O8   19   0.149  -0.110  -0.027
    1UNL    C12   20   0.020  -0.033  -0.216
    1UNL     O9   21   0.126   0.014  -0.303
    1UNL    C13   22   0.254  -0.018  -0.260
    1UNL    O10   23   0.307   0.061  -0.152
    1UNL    C14   24   0.421   0.001  -0.079
    1UNL    C15   25   0.459   0.102   0.024
    1UNL    O11   26   0.523   0.055   0.135
    1UNL    C16   27   0.428   0.009   0.221
    1UNL    O12   28   0.309   0.017   0.204
    1UNL    C17   29   0.480  -0.079   0.333
    1UNL    C18   30   0.538  -0.208   0.289
    1UNL    O13   31   0.572  -0.230   0.177
    1UNL    O14   32   0.549  -0.307   0.379
    1UNL    C19   33   0.540  -0.051  -0.171
    1UNL    O15   34   0.585  -0.175  -0.110
    1UNL    C20   35   0.491  -0.097  -0.322
    1UNL    O16   36   0.594  -0.063  -0.415
    1UNL    C21   37   0.361  -0.023  -0.365
    1UNL    O17   38   0.302  -0.078  -0.485
    1UNL    C22   39  -0.445  -0.044  -0.013
    1UNL    C23   40  -0.391  -0.181  -0.039
    1UNL    C24   41  -0.350  -0.258   0.085
    1UNL    C25   42  -0.352  -0.204   0.207
    1UNL    C26   43  -0.314  -0.284   0.329
    1UNL    C27   44  -0.361  -0.053   0.221
    1UNL    C28   45  -0.372   0.030   0.096
    1UNL     H1   46  -0.675   0.077  -0.084
    1UNL     H2   47  -0.605   0.165  -0.231
    1UNL     H3   48  -0.376   0.051  -0.325
    1UNL     H4   49  -0.325   0.184  -0.234
    1UNL     H5   50  -0.120   0.038  -0.372
    1UNL     H6   51  -0.158   0.149  -0.065
    1UNL     H7   52   0.030   0.409  -0.057
    1UNL     H8   53  -0.124   0.412  -0.148
    1UNL     H9   54  -0.281   0.502   0.202
    1UNL    H10   55  -0.437   0.442   0.154
    1UNL    H11   56  -0.363   0.346   0.495
    1UNL    H12   57   0.154   0.186  -0.071
    1UNL    H13   58   0.129   0.098   0.144
    1UNL    H14   59  -0.051  -0.045  -0.020
    1UNL    H15   60   0.191  -0.066   0.049
    1UNL    H16   61   0.004  -0.139  -0.230
    1UNL    H17   62   0.239  -0.118  -0.221
    1UNL    H18   63   0.366  -0.087  -0.040
    1UNL    H19   64   0.373   0.164   0.048
    1UNL    H20   65   0.537   0.160  -0.033
    1UNL    H21   66   0.553  -0.026   0.401
    1UNL    H22   67   0.386  -0.094   0.396
    1UNL    H23   68   0.584  -0.381   0.318
    1UNL    H24   69   0.622   0.016  -0.165
    1UNL    H25   70   0.582  -0.178  -0.014
    1UNL    H26   71   0.492  -0.203  -0.329
    1UNL    H27   72   0.679  -0.090  -0.377
    1UNL    H28   73   0.387   0.081  -0.384
    1UNL    H29   74   0.209  -0.056  -0.491
    1UNL    H30   75  -0.551  -0.065   0.028
    1UNL    H31   76  -0.304  -0.174  -0.106
    1UNL    H32   77  -0.471  -0.245  -0.084
    1UNL    H33   78  -0.338  -0.368   0.059
    1UNL    H34   79  -0.227  -0.346   0.310
    1UNL    H35   80  -0.306  -0.230   0.420
    1UNL    H36   81  -0.394  -0.350   0.352
    1UNL    H37   82  -0.454  -0.034   0.279
    1UNL    H38   83  -0.276  -0.018   0.278
    1UNL    H39   84  -0.414   0.128   0.121
    1UNL    H40   85  -0.273   0.046   0.043
   0.00000   0.00000   0.00000   0.00000   0.00000   0.00000   0.00000   0.00000   0.00000
Generated with MDTraj, t= 27.0
 85
    1UNL     C1    1  -0.577   0.030  -0.209
    1UNL     C2    2  -0.454   0.006  -0.157
    1UNL     C3    3  -0.344   0.058  -0.233
    1UNL     O1    4  -0.223  -0.021  -0.204
    1UNL     C4    5  -0.110   0.043  -0.262
    1UNL     O2    6  -0.101   0.182  -0.221
    1UNL     C5    7  -0.068   0.207  -0.090
    1UNL     C6    8  -0.073   0.365  -0.066
    1UNL     O3    9  -0.125   0.397   0.058
    1UNL     C7   10  -0.258   0.371   0.080
    1UNL     O4   11  -0.321   0.307   0.003
    1UNL     C8   12  -0.315   0.446   0.201
    1UNL     C9   13  -0.350   0.348   0.312
    1UNL     O5   14  -0.404   0.243   0.287
    1UNL     O6   15  -0.301   0.389   0.431
    1UNL    C10   16   0.055   0.133  -0.039
    1UNL     O7   17   0.077   0.167   0.097
    1UNL    C11   18   0.036  -0.024  -0.079
    1UNL     O8   19   0.141  -0.111  -0.032
    1UNL    C12   20   0.022  -0.031  -0.227
    1UNL     O9   21   0.127   0.036  -0.299
    1UNL    C13   22   0.255   0.003  -0.257
    1UNL    O10   23   0.307   0.080  -0.152
    1UNL    C14   24   0.410   0.014  -0.080
    1UNL    C15   25   0.451   0.104   0.036
    1UNL    O11   26   0.500   0.026   0.140
    1UNL    C16   27   0.403  -0.033   0.211
    1UNL    O12   28   0.287  -0.010   0.190
    1UNL    C17   29   0.445  -0.123   0.327
    1UNL    C18   30   0.532  -0.237   0.276
    1UNL    O13   31   0.559  -0.243   0.156
    1UNL    O14   32   0.563  -0.323   0.380
    1UNL    C19   33   0.526  -0.023  -0.176
    1UNL    O15   34   0.630  -0.095  -0.112
    1UNL    C20   35   0.475  -0.092  -0.307
    1UNL    O16   36   0.588  -0.118  -0.394
    1UNL    C21   37   0.358  -0.013  -0.365
    1UNL    O17   38   0.316  -0.073  -0.486
    1UNL    C22   39  -0.439  -0.067  -0.025
    1UNL    C23   40  -0.364  -0.199  -0.022
    1UNL    C24   41  -0.327  -0.254   0.115
    1UNL    C25   42  -0.335  -0.187   0.228
    1UNL    C26   43  -0.292  -0.245   0.356
    1UNL    C27   44  -0.376  -0.046   0.233
    1UNL    C28   45  -0.392   0.022   0.097
    1UNL     H1   46  -0.676  -0.005  -0.169
    1UNL     H2   47  -0.597   0.086  -0.296
    1UNL     H3   48  -0.358   0.078  -0.337
    1UNL     H4   49  -0.333   0.162  -0.193
    1UNL     H5   50  -0.129   0.049  -0.376
    1UNL     H6   51  -0.149   0.152  -0.039
    1UNL     H7   52   0.025   0.414  -0.085
    1UNL     H8   53  -0.148   0.413  -0.140
    1UNL     H9   54  -0.256   0.521   0.247
    1UNL    H10   55  -0.407   0.495   0.170
    1UNL    H11   56  -0.320   0.321   0.496
    1UNL    H12   57   0.151   0.167  -0.096
    1UNL    H13   58   0.148   0.116   0.142
    1UNL    H14   59  -0.062  -0.043  -0.036
    1UNL    H15   60   0.188  -0.068   0.047
    1UNL    H16   61   0.016  -0.136  -0.255
    1UNL    H17   62   0.233  -0.098  -0.219
    1UNL    H18   63   0.353  -0.065  -0.024
    1UNL    H19   64   0.364   0.156   0.067
    1UNL    H20   65   0.531   0.177   0.011
    1UNL    H21   66   0.505  -0.055   0.400
    1UNL    H22   67   0.358  -0.156   0.389
    1UNL    H23   68   0.630  -0.385   0.340
    1UNL    H24   69   0.563   0.074  -0.198
    1UNL    H25   70   0.601  -0.136  -0.029
    1UNL    H26   71   0.440  -0.194  -0.296
    1UNL    H27   72   0.671  -0.130  -0.334
    1UNL    H28   73   0.384   0.090  -0.393
    1UNL    H29   74   0.226  -0.040  -0.504
    1UNL    H30   75  -0.548  -0.089   0.009
    1UNL    H31   76  -0.270  -0.186  -0.066
    1UNL    H32   77  -0.420  -0.282  -0.076
    1UNL    H33   78  -0.317  -0.357   0.114
    1UNL    H34   79  -0.201  -0.290   0.342
    1UNL    H35   80  -0.293  -0.179   0.439
    1UNL    H36   81  -0.363  -0.324   0.386
    1UNL    H37   82  -0.475  -0.050   0.283
    1UNL    H38   83  -0.303   0.003   0.297
    1UNL    H39   84  -0.461   0.112   0.095
    1UNL    H40   85  -0.288   0.061   0.082
   0.00000   0.00000   0.00000   0.00000   0.00000   0.00000   0.00000   0.00000   0.00000
Generated with MDTraj, t= 28.0
 85
    1UNL     C1    1  -0.555  -0.065  -0.239
    1UNL     C2    2  -0.463  -0.019  -0.151
    1UNL     C3    3  -0.357   0.068  -0.214
    1UNL     O1    4  -0.230  -0.011  -0.206
    1UNL     C4    5  -0.126   0.055  -0.269
    1UNL     O2    6  -0.109   0.195  -0.244
    1UNL     C5    7  -0.092   0.214  -0.105
    1UNL     C6    8  -0.078   0.367  -0.061
    1UNL     O3    9  -0.110   0.402   0.071
    1UNL     C7   10  -0.249   0.402   0.083
    1UNL     O4   11  -0.323   0.371  -0.006
    1UNL     C8   12  -0.311   0.447   0.203
    1UNL     C9   13  -0.339   0.346   0.310
    1UNL     O5   14  -0.435   0.274   0.300
    1UNL     O6   15  -0.257   0.339   0.411
    1UNL    C10   16   0.039   0.139  -0.050
    1UNL     O7   17   0.063   0.160   0.084
    1UNL    C11   18   0.028  -0.012  -0.081
    1UNL     O8   19   0.127  -0.110  -0.045
    1UNL    C12   20   0.008  -0.020  -0.235
    1UNL     O9   21   0.123   0.037  -0.304
    1UNL    C13   22   0.259   0.001  -0.246
    1UNL    O10   23   0.309   0.092  -0.143
    1UNL    C14   24   0.412   0.033  -0.070
    1UNL    C15   25   0.455   0.113   0.060
    1UNL    O11   26   0.495   0.024   0.158
    1UNL    C16   27   0.388  -0.042   0.217
    1UNL    O12   28   0.270  -0.020   0.191
    1UNL    C17   29   0.424  -0.161   0.301
    1UNL    C18   30   0.525  -0.250   0.234
    1UNL    O13   31   0.548  -0.249   0.115
    1UNL    O14   32   0.591  -0.338   0.308
    1UNL    C19   33   0.529  -0.003  -0.158
    1UNL    O15   34   0.644  -0.064  -0.097
    1UNL    C20   35   0.490  -0.091  -0.275
    1UNL    O16   36   0.601  -0.122  -0.356
    1UNL    C21   37   0.369  -0.034  -0.348
    1UNL    O17   38   0.328  -0.133  -0.443
    1UNL    C22   39  -0.446  -0.082  -0.013
    1UNL    C23   40  -0.345  -0.194  -0.007
    1UNL    C24   41  -0.290  -0.233   0.127
    1UNL    C25   42  -0.319  -0.164   0.233
    1UNL    C26   43  -0.278  -0.206   0.373
    1UNL    C27   44  -0.406  -0.042   0.228
    1UNL    C28   45  -0.405   0.023   0.090
    1UNL     H1   46  -0.628  -0.134  -0.218
    1UNL     H2   47  -0.559  -0.048  -0.350
    1UNL     H3   48  -0.370   0.093  -0.319
    1UNL     H4   49  -0.349   0.177  -0.180
    1UNL     H5   50  -0.140   0.052  -0.382
    1UNL     H6   51  -0.180   0.169  -0.058
    1UNL     H7   52   0.025   0.401  -0.076
    1UNL     H8   53  -0.141   0.431  -0.131
    1UNL     H9   54  -0.244   0.518   0.244
    1UNL    H10   55  -0.404   0.496   0.184
    1UNL    H11   56  -0.305   0.275   0.467
    1UNL    H12   57   0.135   0.181  -0.102
    1UNL    H13   58   0.136   0.096   0.114
    1UNL    H14   59  -0.068  -0.042  -0.042
    1UNL    H15   60   0.162  -0.087   0.041
    1UNL    H16   61   0.005  -0.129  -0.257
    1UNL    H17   62   0.227  -0.094  -0.202
    1UNL    H18   63   0.376  -0.062  -0.020
    1UNL    H19   64   0.373   0.149   0.117
    1UNL    H20   65   0.527   0.192   0.038
    1UNL    H21   66   0.468  -0.127   0.405
    1UNL    H22   67   0.338  -0.224   0.330
    1UNL    H23   68   0.652  -0.383   0.247
    1UNL    H24   69   0.581   0.080  -0.202
    1UNL    H25   70   0.614  -0.128  -0.021
    1UNL    H26   71   0.469  -0.195  -0.239
    1UNL    H27   72   0.682  -0.115  -0.293
    1UNL    H28   73   0.397   0.055  -0.408
    1UNL    H29   74   0.232  -0.117  -0.469
    1UNL    H30   75  -0.539  -0.129   0.040
    1UNL    H31   76  -0.266  -0.174  -0.073
    1UNL    H32   77  -0.396  -0.289  -0.050
    1UNL    H33   78  -0.237  -0.332   0.134
    1UNL    H34   79  -0.178  -0.227   0.381
    1UNL    H35   80  -0.316  -0.141   0.446
    1UNL    H36   81  -0.330  -0.303   0.391
    1UNL    H37   82  -0.506  -0.084   0.252
    1UNL    H38   83  -0.371   0.025   0.308
    1UNL    H39   84  -0.477   0.114   0.098
    1UNL    H40   85  -0.306   0.057   0.061
   0.00000   0.00000   0.00000   0.00000   0.00000   0.00000   0.00000   0.00000   0.00000
Generated with MDTraj, t= 29.0
 85
    1UNL     C1    1  -0.524  -0.108  -0.247
    1UNL     C2    2  -0.447  -0.033  -0.169
    1UNL     C3    3  -0.342   0.053  -0.221
    1UNL     O1    4  -0.213  -0.005  -0.207
    1UNL     C4    5  -0.102   0.067  -0.267
    1UNL     O2    6  -0.086   0.205  -0.232
    1UNL     C5    7  -0.073   0.225  -0.090
    1UNL     C6    8  -0.069   0.377  -0.066
    1UNL     O3    9  -0.121   0.409   0.067
    1UNL     C7   10  -0.251   0.404   0.078
    1UNL     O4   11  -0.324   0.367  -0.013
    1UNL     C8   12  -0.305   0.445   0.214
    1UNL     C9   13  -0.323   0.323   0.296
    1UNL     O5   14  -0.421   0.253   0.284
    1UNL     O6   15  -0.217   0.290   0.376
    1UNL    C10   16   0.041   0.134  -0.018
    1UNL     O7   17   0.028   0.142   0.120
    1UNL    C11   18   0.020  -0.011  -0.066
    1UNL     O8   19   0.107  -0.109  -0.018
    1UNL    C12   20   0.018  -0.019  -0.228
    1UNL     O9   21   0.134   0.014  -0.299
    1UNL    C13   22   0.257  -0.019  -0.227
    1UNL    O10   23   0.292   0.082  -0.135
    1UNL    C14   24   0.398   0.033  -0.060
    1UNL    C15   25   0.427   0.121   0.070
    1UNL    O11   26   0.475   0.045   0.175
    1UNL    C16   27   0.381  -0.046   0.216
    1UNL    O12   28   0.261  -0.030   0.195
    1UNL    C17   29   0.433  -0.171   0.270
    1UNL    C18   30   0.515  -0.260   0.176
    1UNL    O13   31   0.488  -0.260   0.056
    1UNL    O14   32   0.614  -0.335   0.239
    1UNL    C19   33   0.526   0.018  -0.150
    1UNL    O15   34   0.635  -0.022  -0.069
    1UNL    C20   35   0.499  -0.092  -0.254
    1UNL    O16   36   0.595  -0.093  -0.356
    1UNL    C21   37   0.362  -0.062  -0.326
    1UNL    O17   38   0.315  -0.173  -0.402
    1UNL    C22   39  -0.451  -0.078  -0.028
    1UNL    C23   40  -0.334  -0.182  -0.006
    1UNL    C24   41  -0.289  -0.209   0.139
    1UNL    C25   42  -0.312  -0.129   0.240
    1UNL    C26   43  -0.257  -0.137   0.381
    1UNL    C27   44  -0.410  -0.014   0.221
    1UNL    C28   45  -0.430   0.037   0.074
    1UNL     H1   46  -0.595  -0.179  -0.208
    1UNL     H2   47  -0.534  -0.108  -0.358
    1UNL     H3   48  -0.364   0.085  -0.324
    1UNL     H4   49  -0.346   0.150  -0.159
    1UNL     H5   50  -0.122   0.067  -0.378
    1UNL     H6   51  -0.167   0.198  -0.040
    1UNL     H7   52   0.030   0.413  -0.082
    1UNL     H8   53  -0.130   0.424  -0.146
    1UNL     H9   54  -0.249   0.519   0.266
    1UNL    H10   55  -0.403   0.484   0.193
    1UNL    H11   56  -0.231   0.196   0.402
    1UNL    H12   57   0.147   0.176  -0.038
    1UNL    H13   58   0.100   0.096   0.162
    1UNL    H14   59  -0.082  -0.037  -0.034
    1UNL    H15   60   0.163  -0.087   0.065
    1UNL    H16   61  -0.000  -0.129  -0.247
    1UNL    H17   62   0.215  -0.107  -0.174
    1UNL    H18   63   0.351  -0.063  -0.025
    1UNL    H19   64   0.341   0.169   0.112
    1UNL    H20   65   0.505   0.198   0.050
    1UNL    H21   66   0.501  -0.154   0.357
    1UNL    H22   67   0.344  -0.225   0.313
    1UNL    H23   68   0.649  -0.407   0.188
    1UNL    H24   69   0.550   0.109  -0.205
    1UNL    H25   70   0.609  -0.101  -0.027
    1UNL    H26   71   0.490  -0.190  -0.199
    1UNL    H27   72   0.679  -0.099  -0.313
    1UNL    H28   73   0.373   0.025  -0.395
    1UNL    H29   74   0.219  -0.166  -0.422
    1UNL    H30   75  -0.552  -0.132  -0.002
    1UNL    H31   76  -0.250  -0.146  -0.063
    1UNL    H32   77  -0.348  -0.280  -0.065
    1UNL    H33   78  -0.240  -0.302   0.157
    1UNL    H34   79  -0.158  -0.100   0.385
    1UNL    H35   80  -0.325  -0.101   0.453
    1UNL    H36   81  -0.248  -0.244   0.399
    1UNL    H37   82  -0.510  -0.045   0.257
    1UNL    H38   83  -0.370   0.066   0.285
    1UNL    H39   84  -0.527   0.104   0.066
    1UNL    H40   85  -0.344   0.102   0.054
   0.00000   0.00000   0.00000   0.00000   0.00000   0.00000   0.00000   0.00000   0.00000
Generated with MDTraj, t= 30.0
 85
    1UNL     C1    1  -0.544  -0.095  -0.267
    1UNL     C2    2  -0.467  -0.036  -0.174
    1UNL     C3    3  -0.347   0.056  -0.220
    1UNL     O1    4  -0.233  -0.013  -0.194
    1UNL     C4    5  -0.109   0.044  -0.249
    1UNL     O2    6  -0.095   0.178  -0.218
    1UNL     C5    7  -0.074   0.207  -0.074
    1UNL     C6    8  -0.049   0.357  -0.064
    1UNL     O3    9  -0.095   0.395   0.062
    1UNL     C7   10  -0.231   0.379   0.066
    1UNL     O4   11  -0.308   0.330  -0.021
    1UNL     C8   12  -0.294   0.424   0.192
    1UNL     C9   13  -0.309   0.314   0.294
    1UNL     O5   14  -0.419   0.281   0.331
    1UNL     O6   15  -0.196   0.268   0.355
    1UNL    C10   16   0.046   0.123  -0.015
    1UNL     O7   17   0.044   0.138   0.125
    1UNL    C11   18   0.022  -0.026  -0.056
    1UNL     O8   19   0.110  -0.123   0.006
    1UNL    C12   20   0.013  -0.042  -0.214
    1UNL     O9   21   0.126  -0.002  -0.281
    1UNL    C13   22   0.253  -0.027  -0.220
    1UNL    O10   23   0.287   0.081  -0.134
    1UNL    C14   24   0.391   0.036  -0.049
    1UNL    C15   25   0.421   0.125   0.076
    1UNL    O11   26   0.476   0.038   0.178
    1UNL    C16   27   0.383  -0.042   0.234
    1UNL    O12   28   0.265  -0.017   0.241
    1UNL    C17   29   0.438  -0.175   0.274
    1UNL    C18   30   0.499  -0.240   0.154
    1UNL    O13   31   0.463  -0.215   0.039
    1UNL    O14   32   0.602  -0.320   0.167
    1UNL    C19   33   0.520   0.018  -0.134
    1UNL    O15   34   0.638  -0.017  -0.055
    1UNL    C20   35   0.497  -0.085  -0.253
    1UNL    O16   36   0.608  -0.067  -0.343
    1UNL    C21   37   0.356  -0.056  -0.326
    1UNL    O17   38   0.320  -0.166  -0.401
    1UNL    C22   39  -0.458  -0.075  -0.031
    1UNL    C23   40  -0.346  -0.180  -0.017
    1UNL    C24   41  -0.272  -0.180   0.116
    1UNL    C25   42  -0.311  -0.101   0.214
    1UNL    C26   43  -0.250  -0.084   0.350
    1UNL    C27   44  -0.440  -0.020   0.200
    1UNL    C28   45  -0.432   0.049   0.061
    1UNL     H1   46  -0.623  -0.168  -0.246
    1UNL     H2   47  -0.542  -0.069  -0.365
    1UNL     H3   48  -0.354   0.068  -0.331
    1UNL     H4   49  -0.342   0.155  -0.157
    1UNL     H5   50  -0.125   0.036  -0.358
    1UNL     H6   51  -0.165   0.174  -0.022
    1UNL     H7   52   0.054   0.369  -0.081
    1UNL     H8   53  -0.094   0.413  -0.145
    1UNL     H9   54  -0.228   0.502   0.229
    1UNL    H10   55  -0.384   0.470   0.159
    1UNL    H11   56  -0.217   0.203   0.428
    1UNL    H12   57   0.150   0.165  -0.050
    1UNL    H13   58   0.121   0.087   0.167
    1UNL    H14   59  -0.079  -0.046  -0.016
    1UNL    H15   60   0.165  -0.084   0.076
    1UNL    H16   61  -0.007  -0.150  -0.241
    1UNL    H17   62   0.230  -0.121  -0.164
    1UNL    H18   63   0.343  -0.059  -0.020
    1UNL    H19   64   0.324   0.163   0.109
    1UNL    H20   65   0.487   0.216   0.060
    1UNL    H21   66   0.510  -0.157   0.351
    1UNL    H22   67   0.363  -0.248   0.322
    1UNL    H23   68   0.640  -0.340   0.079
    1UNL    H24   69   0.542   0.118  -0.179
    1UNL    H25   70   0.608  -0.091   0.011
    1UNL    H26   71   0.496  -0.194  -0.221
    1UNL    H27   72   0.695  -0.073  -0.302
    1UNL    H28   73   0.379   0.037  -0.385
    1UNL    H29   74   0.226  -0.167  -0.421
    1UNL    H30   75  -0.564  -0.120  -0.009
    1UNL    H31   76  -0.274  -0.189  -0.105
    1UNL    H32   77  -0.395  -0.282  -0.029
    1UNL    H33   78  -0.188  -0.245   0.125
    1UNL    H34   79  -0.168  -0.011   0.355
    1UNL    H35   80  -0.329  -0.064   0.417
    1UNL    H36   81  -0.209  -0.171   0.385
    1UNL    H37   82  -0.522  -0.092   0.210
    1UNL    H38   83  -0.453   0.059   0.272
    1UNL    H39   84  -0.507   0.138   0.053
    1UNL    H40   85  -0.328   0.088   0.047
   0.00000   0.00000   0.00000   0.00000   0.00000   0.00000   0.00000   0.00000   0.00000
Generated with MDTraj, t= 31.0
 85
    1UNL     C1    1  -0.574  -0.012  -0.267
    1UNL     C2    2  -0.477  -0.016  -0.179
    1UNL     C3    3  -0.336   0.026  -0.224
    1UNL     O1    4  -0.226  -0.043  -0.178
    1UNL     C4    5  -0.108   0.013  -0.248
    1UNL     O2    6  -0.088   0.148  -0.230
    1UNL     C5    7  -0.076   0.182  -0.084
    1UNL     C6    8  -0.065   0.331  -0.066
    1UNL     O3    9  -0.104   0.385   0.053
    1UNL     C7   10  -0.236   0.358   0.079
    1UNL     O4   11  -0.305   0.278   0.013
    1UNL     C8   12  -0.294   0.426   0.205
    1UNL     C9   13  -0.305   0.328   0.313
    1UNL     O5   14  -0.414   0.306   0.368
    1UNL     O6   15  -0.188   0.266   0.352
    1UNL    C10   16   0.036   0.107  -0.016
    1UNL     O7   17   0.035   0.129   0.123
    1UNL    C11   18   0.032  -0.043  -0.050
    1UNL     O8   19   0.138  -0.129  -0.003
    1UNL    C12   20   0.019  -0.064  -0.202
    1UNL     O9   21   0.128  -0.029  -0.279
    1UNL    C13   22   0.262  -0.021  -0.216
    1UNL    O10   23   0.290   0.083  -0.120
    1UNL    C14   24   0.414   0.055  -0.044
    1UNL    C15   25   0.425   0.144   0.082
    1UNL    O11   26   0.478   0.060   0.178
    1UNL    C16   27   0.384  -0.037   0.214
    1UNL    O12   28   0.262  -0.026   0.214
    1UNL    C17   29   0.448  -0.160   0.261
    1UNL    C18   30   0.501  -0.246   0.156
    1UNL    O13   31   0.448  -0.241   0.048
    1UNL    O14   32   0.604  -0.327   0.188
    1UNL    C19   33   0.536   0.043  -0.135
    1UNL    O15   34   0.643  -0.016  -0.061
    1UNL    C20   35   0.506  -0.069  -0.249
    1UNL    O16   36   0.615  -0.072  -0.334
    1UNL    C21   37   0.377  -0.031  -0.323
    1UNL    O17   38   0.341  -0.126  -0.417
    1UNL    C22   39  -0.496  -0.077  -0.043
    1UNL    C23   40  -0.403  -0.200  -0.004
    1UNL    C24   41  -0.298  -0.169   0.102
    1UNL    C25   42  -0.307  -0.074   0.190
    1UNL    C26   43  -0.210  -0.047   0.300
    1UNL    C27   44  -0.430   0.014   0.194
    1UNL    C28   45  -0.497   0.042   0.059
    1UNL     H1   46  -0.678  -0.045  -0.233
    1UNL     H2   47  -0.557   0.032  -0.364
    1UNL     H3   48  -0.341   0.013  -0.334
    1UNL     H4   49  -0.329   0.134  -0.178
    1UNL     H5   50  -0.113  -0.019  -0.352
    1UNL     H6   51  -0.168   0.145  -0.036
    1UNL     H7   52   0.031   0.365  -0.092
    1UNL     H8   53  -0.135   0.368  -0.140
    1UNL     H9   54  -0.223   0.506   0.217
    1UNL    H10   55  -0.391   0.464   0.191
    1UNL    H11   56  -0.203   0.224   0.441
    1UNL    H12   57   0.137   0.151  -0.052
    1UNL    H13   58   0.107   0.081   0.173
    1UNL    H14   59  -0.068  -0.078  -0.014
    1UNL    H15   60   0.179  -0.097   0.083
    1UNL    H16   61   0.009  -0.174  -0.227
    1UNL    H17   62   0.266  -0.123  -0.169
    1UNL    H18   63   0.392  -0.049  -0.015
    1UNL    H19   64   0.328   0.175   0.126
    1UNL    H20   65   0.482   0.241   0.063
    1UNL    H21   66   0.524  -0.141   0.333
    1UNL    H22   67   0.363  -0.212   0.314
    1UNL    H23   68   0.623  -0.370   0.100
    1UNL    H24   69   0.565   0.145  -0.173
    1UNL    H25   70   0.620  -0.090  -0.010
    1UNL    H26   71   0.495  -0.174  -0.203
    1UNL    H27   72   0.696  -0.094  -0.279
    1UNL    H28   73   0.396   0.069  -0.369
    1UNL    H29   74   0.242  -0.114  -0.423
    1UNL    H30   75  -0.607  -0.114  -0.048
    1UNL    H31   76  -0.352  -0.232  -0.106
    1UNL    H32   77  -0.457  -0.299   0.010
    1UNL    H33   78  -0.212  -0.240   0.112
    1UNL    H34   79  -0.130   0.019   0.265
    1UNL    H35   80  -0.265  -0.000   0.376
    1UNL    H36   81  -0.163  -0.124   0.344
    1UNL    H37   82  -0.507  -0.035   0.251
    1UNL    H38   83  -0.399   0.101   0.251
    1UNL    H39   84  -0.600   0.095   0.068
    1UNL    H40   85  -0.430   0.123   0.014
   0.00000   0.00000   0.00000   0.00000   0.00000   0.00000   0.00000   0.00000   0.00000
Generated with MDTraj, t= 32.0
 85
    1UNL     C1    1  -0.585   0.048  -0.256
    1UNL     C2    2  -0.483  -0.004  -0.193
    1UNL     C3    3  -0.345  -0.001  -0.266
    1UNL     O1    4  -0.232  -0.077  -0.209
    1UNL     C4    5  -0.115  -0.021  -0.260
    1UNL     O2    6  -0.107   0.116  -0.229
    1UNL     C5    7  -0.099   0.150  -0.090
    1UNL     C6    8  -0.099   0.307  -0.070
    1UNL     O3    9  -0.116   0.357   0.057
    1UNL     C7   10  -0.245   0.350   0.094
    1UNL     O4   11  -0.330   0.288   0.034
    1UNL     C8   12  -0.284   0.421   0.227
    1UNL     C9   13  -0.296   0.325   0.347
    1UNL     O5   14  -0.407   0.286   0.381
    1UNL     O6   15  -0.183   0.281   0.404
    1UNL    C10   16   0.027   0.082  -0.028
    1UNL     O7   17   0.040   0.105   0.115
    1UNL    C11   18   0.035  -0.066  -0.064
    1UNL     O8   19   0.146  -0.141  -0.011
    1UNL    C12   20   0.026  -0.086  -0.222
    1UNL     O9   21   0.133  -0.004  -0.287
    1UNL    C13   22   0.259  -0.022  -0.222
    1UNL    O10   23   0.284   0.082  -0.131
    1UNL    C14   24   0.402   0.040  -0.051
    1UNL    C15   25   0.428   0.129   0.072
    1UNL    O11   26   0.490   0.056   0.174
    1UNL    C16   27   0.404  -0.024   0.237
    1UNL    O12   28   0.285  -0.004   0.236
    1UNL    C17   29   0.462  -0.148   0.301
    1UNL    C18   30   0.522  -0.237   0.191
    1UNL    O13   31   0.512  -0.213   0.074
    1UNL    O14   32   0.596  -0.340   0.238
    1UNL    C19   33   0.537   0.032  -0.134
    1UNL    O15   34   0.642  -0.031  -0.072
    1UNL    C20   35   0.507  -0.054  -0.256
    1UNL    O16   36   0.613  -0.055  -0.343
    1UNL    C21   37   0.372  -0.024  -0.330
    1UNL    O17   38   0.348  -0.122  -0.435
    1UNL    C22   39  -0.508  -0.048  -0.047
    1UNL    C23   40  -0.425  -0.175  -0.012
    1UNL    C24   41  -0.303  -0.150   0.079
    1UNL    C25   42  -0.306  -0.052   0.170
    1UNL    C26   43  -0.189   0.006   0.242
    1UNL    C27   44  -0.434   0.023   0.193
    1UNL    C28   45  -0.503   0.060   0.069
    1UNL     H1   46  -0.677   0.056  -0.214
    1UNL     H2   47  -0.579   0.080  -0.358
    1UNL     H3   48  -0.362  -0.051  -0.362
    1UNL     H4   49  -0.303   0.108  -0.267
    1UNL     H5   50  -0.120  -0.024  -0.366
    1UNL     H6   51  -0.184   0.112  -0.032
    1UNL     H7   52  -0.009   0.348  -0.110
    1UNL     H8   53  -0.179   0.350  -0.137
    1UNL     H9   54  -0.201   0.480   0.263
    1UNL    H10   55  -0.363   0.490   0.206
    1UNL    H11   56  -0.204   0.223   0.483
    1UNL    H12   57   0.115   0.139  -0.076
    1UNL    H13   58   0.126   0.077   0.145
    1UNL    H14   59  -0.060  -0.111  -0.027
    1UNL    H15   60   0.174  -0.107   0.077
    1UNL    H16   61   0.044  -0.192  -0.253
    1UNL    H17   62   0.264  -0.126  -0.179
    1UNL    H18   63   0.377  -0.060  -0.015
    1UNL    H19   64   0.346   0.192   0.114
    1UNL    H20   65   0.510   0.204   0.048
    1UNL    H21   66   0.535  -0.110   0.372
    1UNL    H22   67   0.390  -0.202   0.357
    1UNL    H23   68   0.633  -0.379   0.153
    1UNL    H24   69   0.566   0.137  -0.169
    1UNL    H25   70   0.615  -0.100   0.000
    1UNL    H26   71   0.495  -0.161  -0.225
    1UNL    H27   72   0.695  -0.084  -0.286
    1UNL    H28   73   0.369   0.078  -0.375
    1UNL    H29   74   0.262  -0.097  -0.481
    1UNL    H30   75  -0.620  -0.078  -0.036
    1UNL    H31   76  -0.405  -0.229  -0.116
    1UNL    H32   77  -0.494  -0.254   0.028
    1UNL    H33   78  -0.215  -0.196   0.053
    1UNL    H34   79  -0.186   0.113   0.226
    1UNL    H35   80  -0.206  -0.019   0.342
    1UNL    H36   81  -0.095  -0.024   0.204
    1UNL    H37   82  -0.490  -0.042   0.256
    1UNL    H38   83  -0.425   0.114   0.256
    1UNL    H39   84  -0.606   0.104   0.099
    1UNL    H40   85  -0.456   0.153   0.021
   0.00000   0.00000   0.00000   0.00000   0.00000   0.00000   0.00000   0.00000   0.00000
Generated with MDTraj, t= 33.0
 85
    1UNL     C1    1  -0.558   0.085  -0.254
    1UNL     C2    2  -0.471  -0.001  -0.205
    1UNL     C3    3  -0.348  -0.027  -0.286
    1UNL     O1    4  -0.233  -0.070  -0.206
    1UNL     C4    5  -0.120  -0.012  -0.262
    1UNL     O2    6  -0.109   0.126  -0.230
    1UNL     C5    7  -0.100   0.143  -0.087
    1UNL     C6    8  -0.116   0.297  -0.057
    1UNL     O3    9  -0.124   0.321   0.076
    1UNL     C7   10  -0.254   0.350   0.118
    1UNL     O4   11  -0.351   0.332   0.052
    1UNL     C8   12  -0.257   0.402   0.254
    1UNL     C9   13  -0.279   0.304   0.368
    1UNL     O5   14  -0.384   0.239   0.367
    1UNL     O6   15  -0.187   0.299   0.469
    1UNL    C10   16   0.031   0.079  -0.031
    1UNL     O7   17   0.045   0.111   0.108
    1UNL    C11   18   0.033  -0.064  -0.066
    1UNL     O8   19   0.136  -0.143  -0.016
    1UNL    C12   20   0.017  -0.081  -0.218
    1UNL     O9   21   0.122  -0.015  -0.292
    1UNL    C13   22   0.250  -0.037  -0.236
    1UNL    O10   23   0.283   0.048  -0.130
    1UNL    C14   24   0.409   0.029  -0.065
    1UNL    C15   25   0.420   0.133   0.052
    1UNL    O11   26   0.484   0.067   0.162
    1UNL    C16   27   0.401  -0.025   0.218
    1UNL    O12   28   0.284  -0.043   0.190
    1UNL    C17   29   0.469  -0.122   0.321
    1UNL    C18   30   0.543  -0.228   0.249
    1UNL    O13   31   0.573  -0.221   0.133
    1UNL    O14   32   0.570  -0.337   0.324
    1UNL    C19   33   0.525   0.024  -0.161
    1UNL    O15   34   0.641   0.003  -0.084
    1UNL    C20   35   0.498  -0.068  -0.281
    1UNL    O16   36   0.591  -0.036  -0.381
    1UNL    C21   37   0.358  -0.032  -0.344
    1UNL    O17   38   0.326  -0.127  -0.449
    1UNL    C22   39  -0.496  -0.057  -0.067
    1UNL    C23   40  -0.394  -0.174  -0.024
    1UNL    C24   41  -0.288  -0.129   0.074
    1UNL    C25   42  -0.305  -0.028   0.159
    1UNL    C26   43  -0.209   0.019   0.256
    1UNL    C27   44  -0.430   0.049   0.156
    1UNL    C28   45  -0.507   0.062   0.024
    1UNL     H1   46  -0.645   0.113  -0.199
    1UNL     H2   47  -0.561   0.148  -0.351
    1UNL     H3   48  -0.361  -0.110  -0.352
    1UNL     H4   49  -0.307   0.065  -0.338
    1UNL     H5   50  -0.134  -0.004  -0.367
    1UNL     H6   51  -0.185   0.083  -0.053
    1UNL     H7   52  -0.032   0.359  -0.092
    1UNL     H8   53  -0.211   0.328  -0.115
    1UNL     H9   54  -0.173   0.463   0.276
    1UNL    H10   55  -0.344   0.464   0.263
    1UNL    H11   56  -0.221   0.229   0.529
    1UNL    H12   57   0.114   0.125  -0.093
    1UNL    H13   58   0.131   0.074   0.150
    1UNL    H14   59  -0.059  -0.105  -0.018
    1UNL    H15   60   0.192  -0.109   0.061
    1UNL    H16   61   0.019  -0.190  -0.230
    1UNL    H17   62   0.256  -0.140  -0.191
    1UNL    H18   63   0.414  -0.066  -0.010
    1UNL    H19   64   0.320   0.166   0.077
    1UNL    H20   65   0.474   0.229   0.037
    1UNL    H21   66   0.547  -0.066   0.374
    1UNL    H22   67   0.402  -0.159   0.389
    1UNL    H23   68   0.614  -0.403   0.265
    1UNL    H24   69   0.550   0.130  -0.200
    1UNL    H25   70   0.618  -0.064  -0.022
    1UNL    H26   71   0.505  -0.175  -0.258
    1UNL    H27   72   0.685  -0.047  -0.350
    1UNL    H28   73   0.361   0.071  -0.383
    1UNL    H29   74   0.245  -0.110  -0.498
    1UNL    H30   75  -0.597  -0.110  -0.084
    1UNL    H31   76  -0.339  -0.215  -0.118
    1UNL    H32   77  -0.454  -0.263   0.011
    1UNL    H33   78  -0.195  -0.191   0.069
    1UNL    H34   79  -0.199   0.120   0.240
    1UNL    H35   80  -0.252  -0.006   0.349
    1UNL    H36   81  -0.106  -0.017   0.232
    1UNL    H37   82  -0.497   0.020   0.233
    1UNL    H38   83  -0.404   0.150   0.186
    1UNL    H39   84  -0.618   0.093   0.034
    1UNL    H40   85  -0.464   0.157  -0.022
   0.00000   0.00000   0.00000   0.00000   0.00000   0.00000   0.00000   0.00000   0.00000
Generated with MDTraj, t= 34.0
 85
    1UNL     C1    1  -0.568   0.069  -0.296
    1UNL     C2    2  -0.462   0.016  -0.233
    1UNL     C3    3  -0.347  -0.034  -0.317
    1UNL     O1    4  -0.229  -0.080  -0.248
    1UNL     C4    5  -0.118   0.001  -0.273
    1UNL     O2    6  -0.130   0.134  -0.219
    1UNL     C5    7  -0.111   0.140  -0.073
    1UNL     C6    8  -0.114   0.286  -0.030
    1UNL     O3    9  -0.125   0.323   0.109
    1UNL     C7   10  -0.252   0.345   0.153
    1UNL     O4   11  -0.347   0.329   0.085
    1UNL     C8   12  -0.265   0.410   0.290
    1UNL     C9   13  -0.272   0.309   0.400
    1UNL     O5   14  -0.343   0.215   0.390
    1UNL     O6   15  -0.196   0.323   0.510
    1UNL    C10   16   0.020   0.077  -0.028
    1UNL     O7   17   0.032   0.079   0.116
    1UNL    C11   18   0.018  -0.069  -0.075
    1UNL     O8   19   0.122  -0.159  -0.021
    1UNL    C12   20   0.011  -0.077  -0.231
    1UNL     O9   21   0.123  -0.043  -0.318
    1UNL    C13   22   0.249  -0.049  -0.253
    1UNL    O10   23   0.282   0.060  -0.164
    1UNL    C14   24   0.390   0.027  -0.078
    1UNL    C15   25   0.411   0.130   0.031
    1UNL    O11   26   0.482   0.081   0.141
    1UNL    C16   27   0.404  -0.013   0.213
    1UNL    O12   28   0.290  -0.045   0.183
    1UNL    C17   29   0.470  -0.080   0.324
    1UNL    C18   30   0.556  -0.200   0.279
    1UNL    O13   31   0.622  -0.183   0.180
    1UNL    O14   32   0.553  -0.318   0.351
    1UNL    C19   33   0.518   0.012  -0.156
    1UNL    O15   34   0.639  -0.043  -0.088
    1UNL    C20   35   0.504  -0.062  -0.298
    1UNL    O16   36   0.612  -0.033  -0.391
    1UNL    C21   37   0.366  -0.056  -0.360
    1UNL    O17   38   0.328  -0.147  -0.459
    1UNL    C22   39  -0.484  -0.030  -0.082
    1UNL    C23   40  -0.406  -0.157  -0.035
    1UNL    C24   41  -0.304  -0.129   0.074
    1UNL    C25   42  -0.322  -0.028   0.161
    1UNL    C26   43  -0.219  -0.013   0.263
    1UNL    C27   44  -0.443   0.056   0.158
    1UNL    C28   45  -0.457   0.093   0.001
    1UNL     H1   46  -0.663   0.093  -0.256
    1UNL     H2   47  -0.563   0.083  -0.398
    1UNL     H3   48  -0.393  -0.111  -0.377
    1UNL     H4   49  -0.316   0.052  -0.379
    1UNL     H5   50  -0.118   0.020  -0.380
    1UNL     H6   51  -0.185   0.081  -0.020
    1UNL     H7   52  -0.020   0.330  -0.070
    1UNL     H8   53  -0.200   0.347  -0.077
    1UNL     H9   54  -0.184   0.478   0.301
    1UNL    H10   55  -0.354   0.471   0.291
    1UNL    H11   56  -0.206   0.246   0.568
    1UNL    H12   57   0.108   0.131  -0.076
    1UNL    H13   58   0.117   0.036   0.134
    1UNL    H14   59  -0.077  -0.105  -0.024
    1UNL    H15   60   0.179  -0.118   0.046
    1UNL    H16   61  -0.015  -0.179  -0.247
    1UNL    H17   62   0.245  -0.135  -0.183
    1UNL    H18   63   0.376  -0.071  -0.031
    1UNL    H19   64   0.316   0.165   0.062
    1UNL    H20   65   0.460   0.213  -0.017
    1UNL    H21   66   0.538  -0.008   0.366
    1UNL    H22   67   0.397  -0.111   0.393
    1UNL    H23   68   0.599  -0.392   0.308
    1UNL    H24   69   0.541   0.121  -0.186
    1UNL    H25   70   0.614  -0.084  -0.005
    1UNL    H26   71   0.519  -0.167  -0.278
    1UNL    H27   72   0.695  -0.027  -0.347
    1UNL    H28   73   0.365   0.042  -0.408
    1UNL    H29   74   0.238  -0.133  -0.495
    1UNL    H30   75  -0.595  -0.053  -0.074
    1UNL    H31   76  -0.358  -0.202  -0.123
    1UNL    H32   77  -0.480  -0.235   0.003
    1UNL    H33   78  -0.218  -0.192   0.074
    1UNL    H34   79  -0.124   0.020   0.233
    1UNL    H35   80  -0.262   0.047   0.342
    1UNL    H36   81  -0.186  -0.105   0.316
    1UNL    H37   82  -0.520  -0.006   0.192
    1UNL    H38   83  -0.438   0.140   0.222
    1UNL    H39   84  -0.538   0.176   0.001
    1UNL    H40   85  -0.372   0.150  -0.044
   0.00000   0.00000   0.00000   0.00000   0.00000   0.00000   0.00000   0.00000   0.00000
Generated with MDTraj, t= 35.0
 85
    1UNL     C1    1  -0.583   0.056  -0.311
    1UNL     C2    2  -0.481  -0.006  -0.255
    1UNL     C3    3  -0.344   0.018  -0.317
    1UNL     O1    4  -0.243  -0.048  -0.247
    1UNL     C4    5  -0.115   0.008  -0.275
    1UNL     O2    6  -0.107   0.136  -0.215
    1UNL     C5    7  -0.098   0.130  -0.069
    1UNL     C6    8  -0.114   0.269  -0.014
    1UNL     O3    9  -0.122   0.270   0.132
    1UNL     C7   10  -0.237   0.333   0.169
    1UNL     O4   11  -0.329   0.358   0.094
    1UNL     C8   12  -0.238   0.405   0.308
    1UNL     C9   13  -0.256   0.319   0.423
    1UNL     O5   14  -0.325   0.223   0.418
    1UNL     O6   15  -0.191   0.352   0.542
    1UNL    C10   16   0.027   0.050  -0.027
    1UNL     O7   17   0.030   0.043   0.112
    1UNL    C11   18   0.031  -0.091  -0.093
    1UNL     O8   19   0.148  -0.164  -0.048
    1UNL    C12   20   0.013  -0.073  -0.246
    1UNL     O9   21   0.120  -0.027  -0.320
    1UNL    C13   22   0.242  -0.039  -0.258
    1UNL    O10   23   0.278   0.051  -0.154
    1UNL    C14   24   0.397   0.028  -0.085
    1UNL    C15   25   0.407   0.130   0.031
    1UNL    O11   26   0.475   0.097   0.145
    1UNL    C16   27   0.399   0.014   0.222
    1UNL    O12   28   0.285  -0.022   0.199
    1UNL    C17   29   0.476  -0.048   0.337
    1UNL    C18   30   0.556  -0.162   0.279
    1UNL    O13   31   0.615  -0.151   0.172
    1UNL    O14   32   0.557  -0.280   0.351
    1UNL    C19   33   0.521   0.010  -0.175
    1UNL    O15   34   0.638  -0.041  -0.106
    1UNL    C20   35   0.490  -0.093  -0.289
    1UNL    O16   36   0.606  -0.082  -0.373
    1UNL    C21   37   0.360  -0.053  -0.361
    1UNL    O17   38   0.323  -0.158  -0.445
    1UNL    C22   39  -0.498  -0.027  -0.105
    1UNL    C23   40  -0.427  -0.163  -0.061
    1UNL    C24   41  -0.346  -0.161   0.063
    1UNL    C25   42  -0.336  -0.056   0.146
    1UNL    C26   43  -0.254  -0.059   0.272
    1UNL    C27   44  -0.422   0.062   0.122
    1UNL    C28   45  -0.454   0.097  -0.028
    1UNL     H1   46  -0.682   0.055  -0.251
    1UNL     H2   47  -0.578   0.092  -0.409
    1UNL     H3   48  -0.338  -0.016  -0.420
    1UNL     H4   49  -0.340   0.125  -0.339
    1UNL     H5   50  -0.105   0.024  -0.386
    1UNL     H6   51  -0.182   0.073  -0.032
    1UNL     H7   52  -0.024   0.332  -0.024
    1UNL     H8   53  -0.198   0.331  -0.062
    1UNL     H9   54  -0.143   0.449   0.321
    1UNL    H10   55  -0.308   0.488   0.306
    1UNL    H11   56  -0.217   0.289   0.608
    1UNL    H12   57   0.120   0.098  -0.074
    1UNL    H13   58   0.114   0.012   0.155
    1UNL    H14   59  -0.060  -0.146  -0.055
    1UNL    H15   60   0.190  -0.119   0.033
    1UNL    H16   61  -0.002  -0.168  -0.293
    1UNL    H17   62   0.241  -0.137  -0.209
    1UNL    H18   63   0.386  -0.074  -0.044
    1UNL    H19   64   0.308   0.167   0.050
    1UNL    H20   65   0.454   0.213  -0.021
    1UNL    H21   66   0.536   0.020   0.387
    1UNL    H22   67   0.411  -0.104   0.405
    1UNL    H23   68   0.607  -0.350   0.306
    1UNL    H24   69   0.545   0.111  -0.226
    1UNL    H25   70   0.609  -0.071  -0.011
    1UNL    H26   71   0.490  -0.188  -0.240
    1UNL    H27   72   0.681  -0.082  -0.314
    1UNL    H28   73   0.375   0.032  -0.425
    1UNL    H29   74   0.232  -0.145  -0.489
    1UNL    H30   75  -0.608  -0.033  -0.079
    1UNL    H31   76  -0.367  -0.191  -0.143
    1UNL    H32   77  -0.510  -0.242  -0.059
    1UNL    H33   78  -0.289  -0.249   0.083
    1UNL    H34   79  -0.161   0.001   0.276
    1UNL    H35   80  -0.319  -0.040   0.356
    1UNL    H36   81  -0.203  -0.152   0.293
    1UNL    H37   82  -0.512   0.043   0.172
    1UNL    H38   83  -0.371   0.136   0.176
    1UNL    H39   84  -0.534   0.181  -0.030
    1UNL    H40   85  -0.368   0.151  -0.067
   0.00000   0.00000   0.00000   0.00000   0.00000   0.00000   0.00000   0.00000   0.00000
Generated with MDTraj, t= 36.0
 85
    1UNL     C1    1  -0.550  -0.027  -0.357
    1UNL     C2    2  -0.478   0.032  -0.260
    1UNL     C3    3  -0.335   0.067  -0.291
    1UNL     O1    4  -0.243  -0.032  -0.264
    1UNL     C4    5  -0.111   0.023  -0.273
    1UNL     O2    6  -0.092   0.141  -0.199
    1UNL     C5    7  -0.107   0.122  -0.059
    1UNL     C6    8  -0.111   0.267  -0.007
    1UNL     O3    9  -0.118   0.272   0.138
    1UNL     C7   10  -0.220   0.361   0.179
    1UNL     O4   11  -0.304   0.405   0.100
    1UNL     C8   12  -0.207   0.404   0.316
    1UNL     C9   13  -0.235   0.297   0.422
    1UNL     O5   14  -0.280   0.192   0.389
    1UNL     O6   15  -0.207   0.327   0.548
    1UNL    C10   16   0.012   0.042  -0.006
    1UNL     O7   17   0.012   0.027   0.132
    1UNL    C11   18   0.013  -0.100  -0.073
    1UNL     O8   19   0.120  -0.189  -0.030
    1UNL    C12   20  -0.001  -0.081  -0.233
    1UNL     O9   21   0.117  -0.048  -0.311
    1UNL    C13   22   0.235  -0.054  -0.242
    1UNL    O10   23   0.266   0.057  -0.162
    1UNL    C14   24   0.382   0.046  -0.085
    1UNL    C15   25   0.407   0.160   0.012
    1UNL    O11   26   0.477   0.112   0.124
    1UNL    C16   27   0.402   0.016   0.185
    1UNL    O12   28   0.285  -0.015   0.163
    1UNL    C17   29   0.473  -0.047   0.302
    1UNL    C18   30   0.557  -0.163   0.259
    1UNL    O13   31   0.593  -0.174   0.141
    1UNL    O14   32   0.591  -0.243   0.357
    1UNL    C19   33   0.515   0.016  -0.165
    1UNL    O15   34   0.638   0.001  -0.095
    1UNL    C20   35   0.492  -0.098  -0.260
    1UNL    O16   36   0.608  -0.128  -0.340
    1UNL    C21   37   0.365  -0.062  -0.342
    1UNL    O17   38   0.346  -0.160  -0.439
    1UNL    C22   39  -0.498  -0.009  -0.113
    1UNL    C23   40  -0.432  -0.153  -0.076
    1UNL    C24   41  -0.353  -0.154   0.047
    1UNL    C25   42  -0.355  -0.060   0.145
    1UNL    C26   43  -0.260  -0.066   0.262
    1UNL    C27   44  -0.464   0.049   0.132
    1UNL    C28   45  -0.478   0.100  -0.008
    1UNL     H1   46  -0.632  -0.088  -0.325
    1UNL     H2   47  -0.515  -0.036  -0.456
    1UNL     H3   48  -0.336   0.117  -0.390
    1UNL     H4   49  -0.306   0.151  -0.235
    1UNL     H5   50  -0.080   0.050  -0.380
    1UNL     H6   51  -0.199   0.070  -0.037
    1UNL     H7   52  -0.030   0.326  -0.045
    1UNL     H8   53  -0.199   0.327  -0.044
    1UNL     H9   54  -0.110   0.444   0.328
    1UNL    H10   55  -0.276   0.486   0.333
    1UNL    H11   56  -0.242   0.257   0.604
    1UNL    H12   57   0.103   0.097  -0.049
    1UNL    H13   58   0.107   0.017   0.158
    1UNL    H14   59  -0.081  -0.148  -0.039
    1UNL    H15   60   0.178  -0.132   0.029
    1UNL    H16   61  -0.034  -0.174  -0.277
    1UNL    H17   62   0.244  -0.145  -0.183
    1UNL    H18   63   0.361  -0.044  -0.022
    1UNL    H19   64   0.308   0.205   0.030
    1UNL    H20   65   0.463   0.243  -0.035
    1UNL    H21   66   0.532   0.016   0.358
    1UNL    H22   67   0.390  -0.085   0.365
    1UNL    H23   68   0.652  -0.310   0.321
    1UNL    H24   69   0.534   0.108  -0.228
    1UNL    H25   70   0.629  -0.056  -0.016
    1UNL    H26   71   0.472  -0.188  -0.208
    1UNL    H27   72   0.695  -0.127  -0.292
    1UNL    H28   73   0.367   0.032  -0.395
    1UNL    H29   74   0.264  -0.145  -0.488
    1UNL    H30   75  -0.610  -0.023  -0.107
    1UNL    H31   76  -0.383  -0.186  -0.163
    1UNL    H32   77  -0.513  -0.231  -0.064
    1UNL    H33   78  -0.284  -0.243   0.050
    1UNL    H34   79  -0.152  -0.055   0.222
    1UNL    H35   80  -0.297   0.005   0.335
    1UNL    H36   81  -0.261  -0.164   0.296
    1UNL    H37   82  -0.551  -0.004   0.156
    1UNL    H38   83  -0.451   0.125   0.203
    1UNL    H39   84  -0.571   0.169  -0.005
    1UNL    H40   85  -0.398   0.163  -0.039
   0.00000   0.00000   0.00000   0.00000   0.00000   0.00000   0.00000   0.00000   0.00000
Generated with MDTraj, t= 37.0
 85
    1UNL     C1    1  -0.542  -0.033  -0.361
    1UNL     C2    2  -0.471   0.009  -0.257
    1UNL     C3    3  -0.333   0.063  -0.284
    1UNL     O1    4  -0.231  -0.023  -0.253
    1UNL     C4    5  -0.101   0.028  -0.280
    1UNL     O2    6  -0.091   0.152  -0.210
    1UNL     C5    7  -0.085   0.143  -0.069
    1UNL     C6    8  -0.084   0.289  -0.003
    1UNL     O3    9  -0.104   0.291   0.143
    1UNL     C7   10  -0.195   0.375   0.185
    1UNL     O4   11  -0.271   0.434   0.110
    1UNL     C8   12  -0.208   0.397   0.336
    1UNL     C9   13  -0.237   0.276   0.418
    1UNL     O5   14  -0.279   0.170   0.370
    1UNL     O6   15  -0.218   0.285   0.552
    1UNL    C10   16   0.032   0.055  -0.015
    1UNL     O7   17   0.029   0.051   0.123
    1UNL    C11   18   0.017  -0.087  -0.078
    1UNL     O8   19   0.118  -0.175  -0.033
    1UNL    C12   20   0.002  -0.087  -0.233
    1UNL     O9   21   0.121  -0.067  -0.320
    1UNL    C13   22   0.237  -0.051  -0.247
    1UNL    O10   23   0.265   0.066  -0.173
    1UNL    C14   24   0.372   0.044  -0.081
    1UNL    C15   25   0.377   0.160   0.015
    1UNL    O11   26   0.443   0.127   0.138
    1UNL    C16   27   0.393   0.015   0.203
    1UNL    O12   28   0.282  -0.031   0.186
    1UNL    C17   29   0.483  -0.046   0.304
    1UNL    C18   30   0.556  -0.160   0.242
    1UNL    O13   31   0.551  -0.175   0.120
    1UNL    O14   32   0.645  -0.232   0.316
    1UNL    C19   33   0.504   0.022  -0.163
    1UNL    O15   34   0.616   0.017  -0.077
    1UNL    C20   35   0.496  -0.102  -0.253
    1UNL    O16   36   0.601  -0.112  -0.342
    1UNL    C21   37   0.368  -0.103  -0.334
    1UNL    O17   38   0.341  -0.227  -0.396
    1UNL    C22   39  -0.516  -0.024  -0.119
    1UNL    C23   40  -0.450  -0.161  -0.075
    1UNL    C24   41  -0.357  -0.148   0.040
    1UNL    C25   42  -0.366  -0.052   0.136
    1UNL    C26   43  -0.267  -0.051   0.255
    1UNL    C27   44  -0.470   0.052   0.130
    1UNL    C28   45  -0.505   0.093  -0.015
    1UNL     H1   46  -0.622  -0.096  -0.353
    1UNL     H2   47  -0.499  -0.021  -0.466
    1UNL     H3   48  -0.326   0.081  -0.392
    1UNL     H4   49  -0.323   0.162  -0.244
    1UNL     H5   50  -0.094   0.050  -0.391
    1UNL     H6   51  -0.176   0.096  -0.032
    1UNL     H7   52   0.002   0.341  -0.038
    1UNL     H8   53  -0.159   0.352  -0.052
    1UNL     H9   54  -0.122   0.442   0.384
    1UNL    H10   55  -0.286   0.466   0.362
    1UNL    H11   56  -0.249   0.199   0.590
    1UNL    H12   57   0.130   0.102  -0.047
    1UNL    H13   58   0.118   0.022   0.156
    1UNL    H14   59  -0.072  -0.125  -0.025
    1UNL    H15   60   0.162  -0.145   0.048
    1UNL    H16   61  -0.047  -0.185  -0.253
    1UNL    H17   62   0.248  -0.130  -0.173
    1UNL    H18   63   0.351  -0.051  -0.029
    1UNL    H19   64   0.281   0.206   0.048
    1UNL    H20   65   0.425   0.248  -0.037
    1UNL    H21   66   0.549   0.030   0.342
    1UNL    H22   67   0.423  -0.086   0.385
    1UNL    H23   68   0.681  -0.296   0.250
    1UNL    H24   69   0.522   0.118  -0.218
    1UNL    H25   70   0.590  -0.038  -0.002
    1UNL    H26   71   0.508  -0.190  -0.190
    1UNL    H27   72   0.689  -0.107  -0.292
    1UNL    H28   73   0.391  -0.042  -0.422
    1UNL    H29   74   0.257  -0.220  -0.445
    1UNL    H30   75  -0.626  -0.034  -0.123
    1UNL    H31   76  -0.400  -0.208  -0.156
    1UNL    H32   77  -0.527  -0.234  -0.047
    1UNL    H33   78  -0.295  -0.229   0.056
    1UNL    H34   79  -0.206   0.044   0.248
    1UNL    H35   80  -0.330  -0.056   0.346
    1UNL    H36   81  -0.198  -0.131   0.250
    1UNL    H37   82  -0.553   0.009   0.177
    1UNL    H38   83  -0.435   0.132   0.190
    1UNL    H39   84  -0.604   0.150  -0.022
    1UNL    H40   85  -0.425   0.156  -0.056
   0.00000   0.00000   0.00000   0.00000   0.00000   0.00000   0.00000   0.00000   0.00000
Generated with MDTraj, t= 38.0
 85
    1UNL     C1    1  -0.585   0.004  -0.355
    1UNL     C2    2  -0.490   0.012  -0.261
    1UNL     C3    3  -0.347   0.044  -0.302
    1UNL     O1    4  -0.245  -0.019  -0.226
    1UNL     C4    5  -0.114   0.022  -0.259
    1UNL     O2    6  -0.096   0.154  -0.207
    1UNL     C5    7  -0.096   0.156  -0.066
    1UNL     C6    8  -0.089   0.300  -0.009
    1UNL     O3    9  -0.088   0.288   0.131
    1UNL     C7   10  -0.182   0.375   0.182
    1UNL     O4   11  -0.265   0.437   0.110
    1UNL     C8   12  -0.185   0.391   0.331
    1UNL     C9   13  -0.248   0.277   0.405
    1UNL     O5   14  -0.339   0.212   0.350
    1UNL     O6   15  -0.205   0.258   0.530
    1UNL    C10   16   0.021   0.069  -0.009
    1UNL     O7   17   0.019   0.063   0.126
    1UNL    C11   18   0.010  -0.075  -0.066
    1UNL     O8   19   0.111  -0.156  -0.013
    1UNL    C12   20  -0.005  -0.080  -0.219
    1UNL     O9   21   0.114  -0.076  -0.298
    1UNL    C13   22   0.234  -0.076  -0.232
    1UNL    O10   23   0.258   0.039  -0.158
    1UNL    C14   24   0.373   0.034  -0.068
    1UNL    C15   25   0.375   0.148   0.034
    1UNL    O11   26   0.456   0.109   0.147
    1UNL    C16   27   0.396   0.012   0.218
    1UNL    O12   28   0.281  -0.017   0.200
    1UNL    C17   29   0.488  -0.071   0.306
    1UNL    C18   30   0.575  -0.165   0.225
    1UNL    O13   31   0.547  -0.187   0.110
    1UNL    O14   32   0.686  -0.222   0.281
    1UNL    C19   33   0.500   0.030  -0.154
    1UNL    O15   34   0.611   0.035  -0.084
    1UNL    C20   35   0.502  -0.096  -0.247
    1UNL    O16   36   0.601  -0.068  -0.345
    1UNL    C21   37   0.363  -0.109  -0.328
    1UNL    O17   38   0.344  -0.242  -0.360
    1UNL    C22   39  -0.516  -0.029  -0.119
    1UNL    C23   40  -0.459  -0.169  -0.083
    1UNL    C24   41  -0.349  -0.166   0.020
    1UNL    C25   42  -0.350  -0.072   0.118
    1UNL    C26   43  -0.236  -0.048   0.212
    1UNL    C27   44  -0.451   0.040   0.116
    1UNL    C28   45  -0.467   0.089  -0.032
    1UNL     H1   46  -0.685  -0.027  -0.345
    1UNL     H2   47  -0.548   0.023  -0.457
    1UNL     H3   48  -0.330   0.016  -0.410
    1UNL     H4   49  -0.333   0.149  -0.293
    1UNL     H5   50  -0.116   0.033  -0.370
    1UNL     H6   51  -0.191   0.112  -0.032
    1UNL     H7   52   0.005   0.343  -0.029
    1UNL     H8   53  -0.160   0.371  -0.049
    1UNL     H9   54  -0.083   0.417   0.361
    1UNL    H10   55  -0.240   0.480   0.355
    1UNL    H11   56  -0.249   0.178   0.568
    1UNL    H12   57   0.116   0.110  -0.046
    1UNL    H13   58   0.111   0.049   0.158
    1UNL    H14   59  -0.072  -0.121  -0.011
    1UNL    H15   60   0.150  -0.120   0.073
    1UNL    H16   61  -0.043  -0.186  -0.239
    1UNL    H17   62   0.237  -0.160  -0.163
    1UNL    H18   63   0.366  -0.064  -0.020
    1UNL    H19   64   0.278   0.194   0.067
    1UNL    H20   65   0.432   0.236  -0.007
    1UNL    H21   66   0.555   0.003   0.357
    1UNL    H22   67   0.432  -0.121   0.379
    1UNL    H23   68   0.714  -0.295   0.221
    1UNL    H24   69   0.500   0.118  -0.221
    1UNL    H25   70   0.611  -0.043  -0.019
    1UNL    H26   71   0.525  -0.191  -0.196
    1UNL    H27   72   0.680  -0.034  -0.300
    1UNL    H28   73   0.347  -0.045  -0.416
    1UNL    H29   74   0.250  -0.267  -0.391
    1UNL    H30   75  -0.624  -0.027  -0.108
    1UNL    H31   76  -0.430  -0.231  -0.166
    1UNL    H32   77  -0.534  -0.222  -0.035
    1UNL    H33   78  -0.275  -0.252   0.024
    1UNL    H34   79  -0.172   0.040   0.192
    1UNL    H35   80  -0.270  -0.033   0.314
    1UNL    H36   81  -0.155  -0.127   0.229
    1UNL    H37   82  -0.541   0.007   0.159
    1UNL    H38   83  -0.402   0.112   0.175
    1UNL    H39   84  -0.547   0.168  -0.036
    1UNL    H40   85  -0.369   0.120  -0.078
   0.00000   0.00000   0.00000   0.00000   0.00000   0.00000   0.00000   0.00000   0.00000
Generated with MDTraj, t= 39.0
 85
    1UNL     C1    1  -0.585   0.044  -0.342
    1UNL     C2    2  -0.481   0.013  -0.266
    1UNL     C3    3  -0.341   0.035  -0.307
    1UNL     O1    4  -0.252  -0.063  -0.245
    1UNL     C4    5  -0.126  -0.007  -0.250
    1UNL     O2    6  -0.115   0.130  -0.199
    1UNL     C5    7  -0.107   0.146  -0.054
    1UNL     C6    8  -0.103   0.288  -0.025
    1UNL     O3    9  -0.082   0.318   0.112
    1UNL     C7   10  -0.187   0.388   0.164
    1UNL     O4   11  -0.282   0.433   0.101
    1UNL     C8   12  -0.193   0.396   0.315
    1UNL     C9   13  -0.266   0.279   0.373
    1UNL     O5   14  -0.375   0.243   0.334
    1UNL     O6   15  -0.206   0.218   0.479
    1UNL    C10   16   0.015   0.072   0.003
    1UNL     O7   17   0.033   0.082   0.139
    1UNL    C11   18   0.004  -0.080  -0.037
    1UNL     O8   19   0.094  -0.170   0.030
    1UNL    C12   20  -0.010  -0.098  -0.196
    1UNL     O9   21   0.114  -0.080  -0.269
    1UNL    C13   22   0.233  -0.069  -0.199
    1UNL    O10   23   0.259   0.052  -0.122
    1UNL    C14   24   0.389   0.035  -0.055
    1UNL    C15   25   0.396   0.146   0.052
    1UNL    O11   26   0.469   0.093   0.162
    1UNL    C16   27   0.395  -0.015   0.218
    1UNL    O12   28   0.277  -0.034   0.204
    1UNL    C17   29   0.484  -0.116   0.295
    1UNL    C18   30   0.597  -0.163   0.212
    1UNL    O13   31   0.585  -0.178   0.095
    1UNL    O14   32   0.708  -0.216   0.273
    1UNL    C19   33   0.504   0.034  -0.154
    1UNL    O15   34   0.635   0.032  -0.095
    1UNL    C20   35   0.485  -0.081  -0.260
    1UNL    O16   36   0.589  -0.068  -0.357
    1UNL    C21   37   0.340  -0.082  -0.320
    1UNL    O17   38   0.313  -0.200  -0.384
    1UNL    C22   39  -0.508  -0.020  -0.127
    1UNL    C23   40  -0.440  -0.156  -0.095
    1UNL    C24   41  -0.338  -0.154   0.016
    1UNL    C25   42  -0.330  -0.064   0.118
    1UNL    C26   43  -0.237  -0.068   0.228
    1UNL    C27   44  -0.412   0.064   0.114
    1UNL    C28   45  -0.470   0.100  -0.023
    1UNL     H1   46  -0.687   0.049  -0.295
    1UNL     H2   47  -0.576   0.070  -0.439
    1UNL     H3   48  -0.331   0.015  -0.419
    1UNL     H4   49  -0.302   0.129  -0.274
    1UNL     H5   50  -0.112   0.007  -0.358
    1UNL     H6   51  -0.201   0.103  -0.019
    1UNL     H7   52  -0.026   0.333  -0.084
    1UNL     H8   53  -0.197   0.336  -0.048
    1UNL     H9   54  -0.090   0.410   0.347
    1UNL    H10   55  -0.244   0.487   0.336
    1UNL    H11   56  -0.255   0.132   0.496
    1UNL    H12   57   0.093   0.117  -0.052
    1UNL    H13   58   0.126   0.063   0.166
    1UNL    H14   59  -0.090  -0.114   0.003
    1UNL    H15   60   0.141  -0.120   0.103
    1UNL    H16   61  -0.046  -0.203  -0.227
    1UNL    H17   62   0.242  -0.151  -0.130
    1UNL    H18   63   0.389  -0.063  -0.003
    1UNL    H19   64   0.294   0.170   0.084
    1UNL    H20   65   0.446   0.244   0.030
    1UNL    H21   66   0.527  -0.064   0.387
    1UNL    H22   67   0.425  -0.195   0.333
    1UNL    H23   68   0.773  -0.253   0.210
    1UNL    H24   69   0.499   0.129  -0.204
    1UNL    H25   70   0.624  -0.022  -0.016
    1UNL    H26   71   0.499  -0.182  -0.210
    1UNL    H27   72   0.669  -0.044  -0.314
    1UNL    H28   73   0.319   0.005  -0.385
    1UNL    H29   74   0.221  -0.235  -0.404
    1UNL    H30   75  -0.614  -0.032  -0.120
    1UNL    H31   76  -0.397  -0.195  -0.187
    1UNL    H32   77  -0.509  -0.229  -0.073
    1UNL    H33   78  -0.285  -0.244   0.029
    1UNL    H34   79  -0.158   0.006   0.218
    1UNL    H35   80  -0.291  -0.051   0.324
    1UNL    H36   81  -0.179  -0.169   0.234
    1UNL    H37   82  -0.486   0.048   0.187
    1UNL    H38   83  -0.351   0.143   0.141
    1UNL    H39   84  -0.567   0.153  -0.010
    1UNL    H40   85  -0.392   0.164  -0.077
   0.00000   0.00000   0.00000   0.00000   0.00000   0.00000   0.00000   0.00000   0.00000
Generated with MDTraj, t= 40.0
 85
    1UNL     C1    1  -0.573   0.066  -0.326
    1UNL     C2    2  -0.476   0.024  -0.245
    1UNL     C3    3  -0.342  -0.001  -0.315
    1UNL     O1    4  -0.247  -0.048  -0.211
    1UNL     C4    5  -0.116  -0.003  -0.245
    1UNL     O2    6  -0.093   0.131  -0.210
    1UNL     C5    7  -0.089   0.146  -0.068
    1UNL     C6    8  -0.084   0.298  -0.034
    1UNL     O3    9  -0.095   0.334   0.104
    1UNL     C7   10  -0.214   0.378   0.136
    1UNL     O4   11  -0.306   0.403   0.063
    1UNL     C8   12  -0.242   0.400   0.289
    1UNL     C9   13  -0.292   0.278   0.358
    1UNL     O5   14  -0.403   0.237   0.342
    1UNL     O6   15  -0.194   0.206   0.430
    1UNL    C10   16   0.027   0.064  -0.001
    1UNL     O7   17   0.023   0.070   0.142
    1UNL    C11   18   0.013  -0.082  -0.043
    1UNL     O8   19   0.107  -0.169   0.007
    1UNL    C12   20  -0.001  -0.091  -0.193
    1UNL     O9   21   0.115  -0.054  -0.277
    1UNL    C13   22   0.235  -0.068  -0.212
    1UNL    O10   23   0.257   0.033  -0.109
    1UNL    C14   24   0.394   0.027  -0.054
    1UNL    C15   25   0.409   0.124   0.069
    1UNL    O11   26   0.483   0.064   0.168
    1UNL    C16   27   0.407  -0.034   0.222
    1UNL    O12   28   0.288  -0.043   0.211
    1UNL    C17   29   0.490  -0.139   0.298
    1UNL    C18   30   0.615  -0.176   0.215
    1UNL    O13   31   0.610  -0.171   0.094
    1UNL    O14   32   0.729  -0.211   0.286
    1UNL    C19   33   0.503   0.043  -0.155
    1UNL    O15   34   0.636   0.027  -0.103
    1UNL    C20   35   0.482  -0.072  -0.256
    1UNL    O16   36   0.572  -0.072  -0.367
    1UNL    C21   37   0.346  -0.061  -0.324
    1UNL    O17   38   0.315  -0.160  -0.408
    1UNL    C22   39  -0.508  -0.009  -0.100
    1UNL    C23   40  -0.453  -0.147  -0.060
    1UNL    C24   41  -0.366  -0.158   0.060
    1UNL    C25   42  -0.359  -0.052   0.144
    1UNL    C26   43  -0.261  -0.057   0.256
    1UNL    C27   44  -0.434   0.077   0.121
    1UNL    C28   45  -0.453   0.112  -0.017
    1UNL     H1   46  -0.674   0.079  -0.277
    1UNL     H2   47  -0.556   0.105  -0.423
    1UNL     H3   48  -0.357  -0.088  -0.391
    1UNL     H4   49  -0.299   0.088  -0.357
    1UNL     H5   50  -0.109  -0.002  -0.353
    1UNL     H6   51  -0.183   0.110  -0.031
    1UNL     H7   52   0.007   0.348  -0.062
    1UNL     H8   53  -0.169   0.351  -0.082
    1UNL     H9   54  -0.148   0.429   0.334
    1UNL    H10   55  -0.309   0.483   0.297
    1UNL    H11   56  -0.235   0.125   0.471
    1UNL    H12   57   0.119   0.105  -0.026
    1UNL    H13   58   0.111   0.038   0.182
    1UNL    H14   59  -0.079  -0.115   0.003
    1UNL    H15   60   0.144  -0.135   0.091
    1UNL    H16   61  -0.015  -0.201  -0.219
    1UNL    H17   62   0.244  -0.166  -0.170
    1UNL    H18   63   0.404  -0.076  -0.011
    1UNL    H19   64   0.315   0.153   0.117
    1UNL    H20   65   0.461   0.217   0.041
    1UNL    H21   66   0.518  -0.097   0.397
    1UNL    H22   67   0.431  -0.229   0.324
    1UNL    H23   68   0.806  -0.218   0.227
    1UNL    H24   69   0.497   0.140  -0.198
    1UNL    H25   70   0.637  -0.051  -0.038
    1UNL    H26   71   0.496  -0.176  -0.211
    1UNL    H27   72   0.666  -0.067  -0.339
    1UNL    H28   73   0.343   0.039  -0.375
    1UNL    H29   74   0.219  -0.171  -0.419
    1UNL    H30   75  -0.613  -0.014  -0.088
    1UNL    H31   76  -0.400  -0.187  -0.145
    1UNL    H32   77  -0.534  -0.211  -0.056
    1UNL    H33   78  -0.308  -0.249   0.086
    1UNL    H34   79  -0.217   0.043   0.256
    1UNL    H35   80  -0.321  -0.086   0.348
    1UNL    H36   81  -0.183  -0.132   0.226
    1UNL    H37   82  -0.530   0.075   0.163
    1UNL    H38   83  -0.375   0.151   0.165
    1UNL    H39   84  -0.524   0.198  -0.023
    1UNL    H40   85  -0.351   0.127  -0.067
   0.00000   0.00000   0.00000   0.00000   0.00000   0.00000   0.00000   0.00000   0.00000
Generated with MDTraj, t= 41.0
 85
    1UNL     C1    1  -0.593   0.048  -0.327
    1UNL     C2    2  -0.494   0.012  -0.245
    1UNL     C3    3  -0.350   0.013  -0.291
    1UNL     O1    4  -0.246  -0.042  -0.204
    1UNL     C4    5  -0.116   0.011  -0.247
    1UNL     O2    6  -0.098   0.145  -0.196
    1UNL     C5    7  -0.084   0.149  -0.052
    1UNL     C6    8  -0.061   0.297  -0.009
    1UNL     O3    9  -0.099   0.327   0.119
    1UNL     C7   10  -0.243   0.336   0.125
    1UNL     O4   11  -0.316   0.305   0.036
    1UNL     C8   12  -0.295   0.394   0.249
    1UNL     C9   13  -0.303   0.298   0.363
    1UNL     O5   14  -0.407   0.261   0.403
    1UNL     O6   15  -0.190   0.249   0.407
    1UNL    C10   16   0.036   0.066  -0.005
    1UNL     O7   17   0.033   0.069   0.144
    1UNL    C11   18   0.026  -0.078  -0.058
    1UNL     O8   19   0.128  -0.163  -0.013
    1UNL    C12   20   0.003  -0.085  -0.212
    1UNL     O9   21   0.111  -0.039  -0.298
    1UNL    C13   22   0.243  -0.050  -0.235
    1UNL    O10   23   0.277   0.053  -0.135
    1UNL    C14   24   0.399   0.017  -0.066
    1UNL    C15   25   0.405   0.111   0.062
    1UNL    O11   26   0.486   0.047   0.154
    1UNL    C16   27   0.411  -0.049   0.218
    1UNL    O12   28   0.292  -0.064   0.208
    1UNL    C17   29   0.494  -0.143   0.297
    1UNL    C18   30   0.622  -0.192   0.235
    1UNL    O13   31   0.623  -0.206   0.114
    1UNL    O14   32   0.733  -0.203   0.305
    1UNL    C19   33   0.518   0.031  -0.152
    1UNL    O15   34   0.644  -0.007  -0.089
    1UNL    C20   35   0.500  -0.062  -0.272
    1UNL    O16   36   0.611  -0.040  -0.362
    1UNL    C21   37   0.360  -0.054  -0.344
    1UNL    O17   38   0.352  -0.160  -0.435
    1UNL    C22   39  -0.531  -0.009  -0.096
    1UNL    C23   40  -0.478  -0.143  -0.036
    1UNL    C24   41  -0.377  -0.137   0.077
    1UNL    C25   42  -0.369  -0.026   0.151
    1UNL    C26   43  -0.273  -0.025   0.262
    1UNL    C27   44  -0.464   0.085   0.140
    1UNL    C28   45  -0.486   0.119  -0.009
    1UNL     H1   46  -0.685   0.060  -0.285
    1UNL     H2   47  -0.564   0.067  -0.431
    1UNL     H3   48  -0.340  -0.065  -0.379
    1UNL     H4   49  -0.325   0.117  -0.310
    1UNL     H5   50  -0.115   0.026  -0.353
    1UNL     H6   51  -0.177   0.109  -0.015
    1UNL     H7   52   0.043   0.333  -0.022
    1UNL     H8   53  -0.135   0.360  -0.070
    1UNL     H9   54  -0.232   0.477   0.278
    1UNL    H10   55  -0.394   0.433   0.228
    1UNL    H11   56  -0.213   0.196   0.486
    1UNL    H12   57   0.128   0.101  -0.035
    1UNL    H13   58   0.109   0.022   0.175
    1UNL    H14   59  -0.062  -0.116  -0.007
    1UNL    H15   60   0.160  -0.144   0.082
    1UNL    H16   61  -0.024  -0.185  -0.252
    1UNL    H17   62   0.247  -0.150  -0.196
    1UNL    H18   63   0.378  -0.088  -0.039
    1UNL    H19   64   0.307   0.128   0.102
    1UNL    H20   65   0.453   0.204   0.035
    1UNL    H21   66   0.520  -0.102   0.395
    1UNL    H22   67   0.429  -0.236   0.319
    1UNL    H23   68   0.799  -0.223   0.237
    1UNL    H24   69   0.530   0.127  -0.194
    1UNL    H25   70   0.634  -0.069  -0.019
    1UNL    H26   71   0.518  -0.167  -0.234
    1UNL    H27   72   0.695  -0.039  -0.303
    1UNL    H28   73   0.342   0.040  -0.402
    1UNL    H29   74   0.255  -0.164  -0.467
    1UNL    H30   75  -0.637  -0.021  -0.089
    1UNL    H31   76  -0.435  -0.194  -0.117
    1UNL    H32   77  -0.556  -0.206  -0.002
    1UNL    H33   78  -0.298  -0.212   0.091
    1UNL    H34   79  -0.187   0.047   0.235
    1UNL    H35   80  -0.334   0.013   0.352
    1UNL    H36   81  -0.233  -0.122   0.288
    1UNL    H37   82  -0.548   0.059   0.195
    1UNL    H38   83  -0.416   0.171   0.192
    1UNL    H39   84  -0.570   0.192  -0.022
    1UNL    H40   85  -0.392   0.154  -0.057
   0.00000   0.00000   0.00000   0.00000   0.00000   0.00000   0.00000   0.00000   0.00000
Generated with MDTraj, t= 42.0
 85
    1UNL     C1    1  -0.540  -0.012  -0.341
    1UNL     C2    2  -0.474   0.011  -0.229
    1UNL     C3    3  -0.337   0.071  -0.233
    1UNL     O1    4  -0.236  -0.029  -0.225
    1UNL     C4    5  -0.106   0.025  -0.257
    1UNL     O2    6  -0.087   0.154  -0.201
    1UNL     C5    7  -0.076   0.152  -0.056
    1UNL     C6    8  -0.060   0.299  -0.012
    1UNL     O3    9  -0.120   0.331   0.112
    1UNL     C7   10  -0.252   0.323   0.124
    1UNL     O4   11  -0.316   0.266   0.045
    1UNL     C8   12  -0.311   0.396   0.239
    1UNL     C9   13  -0.297   0.323   0.375
    1UNL     O5   14  -0.400   0.274   0.420
    1UNL     O6   15  -0.176   0.316   0.439
    1UNL    C10   16   0.042   0.063  -0.016
    1UNL     O7   17   0.052   0.051   0.135
    1UNL    C11   18   0.030  -0.082  -0.077
    1UNL     O8   19   0.138  -0.173  -0.041
    1UNL    C12   20   0.007  -0.073  -0.226
    1UNL     O9   21   0.119  -0.023  -0.299
    1UNL    C13   22   0.251  -0.044  -0.242
    1UNL    O10   23   0.286   0.052  -0.145
    1UNL    C14   24   0.400   0.018  -0.066
    1UNL    C15   25   0.410   0.120   0.062
    1UNL    O11   26   0.479   0.042   0.170
    1UNL    C16   27   0.407  -0.066   0.217
    1UNL    O12   28   0.291  -0.085   0.186
    1UNL    C17   29   0.482  -0.151   0.314
    1UNL    C18   30   0.611  -0.196   0.245
    1UNL    O13   31   0.603  -0.233   0.125
    1UNL    O14   32   0.724  -0.201   0.320
    1UNL    C19   33   0.523   0.015  -0.158
    1UNL    O15   34   0.648  -0.013  -0.084
    1UNL    C20   35   0.498  -0.070  -0.282
    1UNL    O16   36   0.599  -0.040  -0.373
    1UNL    C21   37   0.359  -0.043  -0.349
    1UNL    O17   38   0.314  -0.147  -0.442
    1UNL    C22   39  -0.532  -0.036  -0.099
    1UNL    C23   40  -0.444  -0.149  -0.039
    1UNL    C24   41  -0.350  -0.115   0.074
    1UNL    C25   42  -0.371  -0.014   0.161
    1UNL    C26   43  -0.277   0.029   0.261
    1UNL    C27   44  -0.516   0.034   0.150
    1UNL    C28   45  -0.553   0.083   0.002
    1UNL     H1   46  -0.637  -0.055  -0.338
    1UNL     H2   47  -0.483   0.004  -0.440
    1UNL     H3   48  -0.326   0.134  -0.331
    1UNL     H4   49  -0.310   0.123  -0.143
    1UNL     H5   50  -0.103   0.047  -0.364
    1UNL     H6   51  -0.172   0.117  -0.020
    1UNL     H7   52   0.048   0.322  -0.011
    1UNL     H8   53  -0.113   0.364  -0.089
    1UNL     H9   54  -0.262   0.490   0.254
    1UNL    H10   55  -0.417   0.417   0.234
    1UNL    H11   56  -0.195   0.261   0.516
    1UNL    H12   57   0.126   0.106  -0.061
    1UNL    H13   58   0.142   0.013   0.158
    1UNL    H14   59  -0.060  -0.124  -0.032
    1UNL    H15   60   0.176  -0.157   0.046
    1UNL    H16   61  -0.021  -0.164  -0.278
    1UNL    H17   62   0.249  -0.148  -0.211
    1UNL    H18   63   0.373  -0.080  -0.024
    1UNL    H19   64   0.309   0.150   0.088
    1UNL    H20   65   0.470   0.203   0.030
    1UNL    H21   66   0.511  -0.106   0.409
    1UNL    H22   67   0.419  -0.245   0.344
    1UNL    H23   68   0.794  -0.232   0.261
    1UNL    H24   69   0.544   0.113  -0.192
    1UNL    H25   70   0.631  -0.093  -0.021
    1UNL    H26   71   0.507  -0.177  -0.254
    1UNL    H27   72   0.688  -0.042  -0.323
    1UNL    H28   73   0.359   0.052  -0.407
    1UNL    H29   74   0.220  -0.141  -0.467
    1UNL    H30   75  -0.627  -0.081  -0.117
    1UNL    H31   76  -0.379  -0.183  -0.112
    1UNL    H32   77  -0.511  -0.232  -0.015
    1UNL    H33   78  -0.251  -0.145   0.062
    1UNL    H34   79  -0.170   0.049   0.220
    1UNL    H35   80  -0.306   0.124   0.314
    1UNL    H36   81  -0.262  -0.033   0.348
    1UNL    H37   82  -0.581  -0.039   0.186
    1UNL    H38   83  -0.523   0.117   0.224
    1UNL    H39   84  -0.663   0.108   0.003
    1UNL    H40   85  -0.498   0.171  -0.032
   0.00000   0.00000   0.00000   0.00000   0.00000   0.00000   0.00000   0.00000   0.00000
Generated with MDTraj, t= 43.0
 85
    1UNL     C1    1  -0.500  -0.046  -0.352
    1UNL     C2    2  -0.463  -0.011  -0.227
    1UNL     C3    3  -0.346   0.077  -0.214
    1UNL     O1    4  -0.233  -0.009  -0.208
    1UNL     C4    5  -0.111   0.050  -0.263
    1UNL     O2    6  -0.082   0.182  -0.208
    1UNL     C5    7  -0.081   0.168  -0.063
    1UNL     C6    8  -0.063   0.308  -0.001
    1UNL     O3    9  -0.109   0.319   0.130
    1UNL     C7   10  -0.246   0.327   0.129
    1UNL     O4   11  -0.321   0.277   0.046
    1UNL     C8   12  -0.300   0.420   0.240
    1UNL     C9   13  -0.286   0.353   0.375
    1UNL     O5   14  -0.369   0.267   0.403
    1UNL     O6   15  -0.196   0.396   0.460
    1UNL    C10   16   0.026   0.064  -0.017
    1UNL     O7   17   0.014   0.046   0.129
    1UNL    C11   18   0.011  -0.069  -0.089
    1UNL     O8   19   0.106  -0.168  -0.046
    1UNL    C12   20   0.005  -0.051  -0.241
    1UNL     O9   21   0.127  -0.003  -0.307
    1UNL    C13   22   0.254  -0.039  -0.246
    1UNL    O10   23   0.285   0.049  -0.139
    1UNL    C14   24   0.403   0.006  -0.071
    1UNL    C15   25   0.421   0.101   0.049
    1UNL    O11   26   0.481   0.037   0.163
    1UNL    C16   27   0.399  -0.056   0.215
    1UNL    O12   28   0.279  -0.069   0.188
    1UNL    C17   29   0.465  -0.160   0.296
    1UNL    C18   30   0.598  -0.203   0.240
    1UNL    O13   31   0.606  -0.218   0.120
    1UNL    O14   32   0.703  -0.225   0.315
    1UNL    C19   33   0.530   0.007  -0.154
    1UNL    O15   34   0.647  -0.035  -0.085
    1UNL    C20   35   0.502  -0.084  -0.277
    1UNL    O16   36   0.607  -0.070  -0.363
    1UNL    C21   37   0.372  -0.043  -0.350
    1UNL    O17   38   0.327  -0.122  -0.467
    1UNL    C22   39  -0.505  -0.077  -0.091
    1UNL    C23   40  -0.392  -0.168  -0.038
    1UNL    C24   41  -0.326  -0.116   0.085
    1UNL    C25   42  -0.383  -0.026   0.169
    1UNL    C26   43  -0.304   0.025   0.282
    1UNL    C27   44  -0.526  -0.003   0.153
    1UNL    C28   45  -0.571   0.025   0.011
    1UNL     H1   46  -0.572  -0.124  -0.368
    1UNL     H2   47  -0.458  -0.000  -0.434
    1UNL     H3   48  -0.321   0.139  -0.311
    1UNL     H4   49  -0.353   0.133  -0.123
    1UNL     H5   50  -0.129   0.069  -0.370
    1UNL     H6   51  -0.185   0.150  -0.037
    1UNL     H7   52   0.047   0.316   0.008
    1UNL     H8   53  -0.108   0.389  -0.065
    1UNL     H9   54  -0.261   0.519   0.257
    1UNL    H10   55  -0.407   0.430   0.224
    1UNL    H11   56  -0.204   0.356   0.547
    1UNL    H12   57   0.122   0.105  -0.045
    1UNL    H13   58   0.097   0.006   0.168
    1UNL    H14   59  -0.083  -0.119  -0.056
    1UNL    H15   60   0.154  -0.139   0.038
    1UNL    H16   61  -0.011  -0.140  -0.294
    1UNL    H17   62   0.226  -0.137  -0.207
    1UNL    H18   63   0.383  -0.091  -0.027
    1UNL    H19   64   0.323   0.139   0.082
    1UNL    H20   65   0.489   0.178   0.013
    1UNL    H21   66   0.472  -0.132   0.406
    1UNL    H22   67   0.406  -0.256   0.293
    1UNL    H23   68   0.767  -0.275   0.261
    1UNL    H24   69   0.556   0.107  -0.183
    1UNL    H25   70   0.635  -0.093  -0.006
    1UNL    H26   71   0.490  -0.191  -0.255
    1UNL    H27   72   0.694  -0.085  -0.325
    1UNL    H28   73   0.385   0.064  -0.376
    1UNL    H29   74   0.247  -0.085  -0.504
    1UNL    H30   75  -0.583  -0.142  -0.125
    1UNL    H31   76  -0.324  -0.173  -0.115
    1UNL    H32   77  -0.425  -0.269  -0.011
    1UNL    H33   78  -0.212  -0.118   0.092
    1UNL    H34   79  -0.243   0.116   0.243
    1UNL    H35   80  -0.364   0.056   0.366
    1UNL    H36   81  -0.227  -0.045   0.328
    1UNL    H37   82  -0.571  -0.094   0.190
    1UNL    H38   83  -0.560   0.074   0.223
    1UNL    H39   84  -0.683   0.014   0.001
    1UNL    H40   85  -0.552   0.130  -0.012
   0.00000   0.00000   0.00000   0.00000   0.00000   0.00000   0.00000   0.00000   0.00000
Generated with MDTraj, t= 44.0
 85
    1UNL     C1    1  -0.555  -0.066  -0.327
    1UNL     C2    2  -0.467  -0.044  -0.231
    1UNL     C3    3  -0.343   0.033  -0.260
    1UNL     O1    4  -0.215  -0.028  -0.229
    1UNL     C4    5  -0.107   0.053  -0.257
    1UNL     O2    6  -0.090   0.181  -0.191
    1UNL     C5    7  -0.069   0.178  -0.048
    1UNL     C6    8  -0.059   0.320   0.003
    1UNL     O3    9  -0.103   0.355   0.133
    1UNL     C7   10  -0.243   0.359   0.132
    1UNL     O4   11  -0.305   0.306   0.040
    1UNL     C8   12  -0.321   0.421   0.238
    1UNL     C9   13  -0.289   0.374   0.374
    1UNL     O5   14  -0.321   0.260   0.410
    1UNL     O6   15  -0.237   0.457   0.468
    1UNL    C10   16   0.042   0.082  -0.009
    1UNL     O7   17   0.031   0.056   0.129
    1UNL    C11   18   0.039  -0.049  -0.088
    1UNL     O8   19   0.141  -0.142  -0.054
    1UNL    C12   20   0.020  -0.039  -0.240
    1UNL     O9   21   0.128   0.022  -0.313
    1UNL    C13   22   0.253  -0.012  -0.253
    1UNL    O10   23   0.291   0.074  -0.149
    1UNL    C14   24   0.401   0.028  -0.070
    1UNL    C15   25   0.418   0.105   0.060
    1UNL    O11   26   0.477   0.021   0.157
    1UNL    C16   27   0.390  -0.073   0.207
    1UNL    O12   28   0.268  -0.068   0.189
    1UNL    C17   29   0.449  -0.181   0.294
    1UNL    C18   30   0.576  -0.229   0.234
    1UNL    O13   31   0.581  -0.237   0.114
    1UNL    O14   32   0.679  -0.259   0.321
    1UNL    C19   33   0.525   0.016  -0.154
    1UNL    O15   34   0.639  -0.034  -0.091
    1UNL    C20   35   0.488  -0.081  -0.285
    1UNL    O16   36   0.601  -0.102  -0.361
    1UNL    C21   37   0.365  -0.023  -0.358
    1UNL    O17   38   0.328  -0.122  -0.456
    1UNL    C22   39  -0.497  -0.101  -0.094
    1UNL    C23   40  -0.376  -0.185  -0.039
    1UNL    C24   41  -0.315  -0.132   0.093
    1UNL    C25   42  -0.385  -0.059   0.186
    1UNL    C26   43  -0.320   0.004   0.306
    1UNL    C27   44  -0.522  -0.029   0.151
    1UNL    C28   45  -0.532   0.014   0.004
    1UNL     H1   46  -0.654  -0.113  -0.291
    1UNL     H2   47  -0.551  -0.030  -0.425
    1UNL     H3   48  -0.336   0.049  -0.375
    1UNL     H4   49  -0.333   0.126  -0.209
    1UNL     H5   50  -0.122   0.085  -0.363
    1UNL     H6   51  -0.166   0.145  -0.008
    1UNL     H7   52   0.048   0.345  -0.005
    1UNL     H8   53  -0.121   0.377  -0.067
    1UNL     H9   54  -0.304   0.526   0.224
    1UNL    H10   55  -0.426   0.401   0.215
    1UNL    H11   56  -0.230   0.413   0.555
    1UNL    H12   57   0.142   0.123  -0.017
    1UNL    H13   58   0.110   0.020   0.170
    1UNL    H14   59  -0.045  -0.116  -0.056
    1UNL    H15   60   0.175  -0.120   0.037
    1UNL    H16   61   0.002  -0.130  -0.289
    1UNL    H17   62   0.229  -0.112  -0.211
    1UNL    H18   63   0.369  -0.072  -0.042
    1UNL    H19   64   0.321   0.137   0.105
    1UNL    H20   65   0.489   0.187   0.042
    1UNL    H21   66   0.465  -0.143   0.402
    1UNL    H22   67   0.375  -0.261   0.303
    1UNL    H23   68   0.760  -0.289   0.275
    1UNL    H24   69   0.550   0.114  -0.195
    1UNL    H25   70   0.613  -0.106  -0.032
    1UNL    H26   71   0.463  -0.179  -0.252
    1UNL    H27   72   0.676  -0.130  -0.306
    1UNL    H28   73   0.405   0.071  -0.396
    1UNL    H29   74   0.250  -0.091  -0.509
    1UNL    H30   75  -0.584  -0.164  -0.098
    1UNL    H31   76  -0.300  -0.169  -0.110
    1UNL    H32   77  -0.403  -0.291  -0.041
    1UNL    H33   78  -0.212  -0.127   0.105
    1UNL    H34   79  -0.304   0.106   0.260
    1UNL    H35   80  -0.387  -0.002   0.389
    1UNL    H36   81  -0.216  -0.047   0.333
    1UNL    H37   82  -0.581  -0.123   0.154
    1UNL    H38   83  -0.571   0.030   0.227
    1UNL    H39   84  -0.638   0.051  -0.015
    1UNL    H40   85  -0.470   0.101  -0.017
   0.00000   0.00000   0.00000   0.00000   0.00000   0.00000   0.00000   0.00000   0.00000
Generated with MDTraj, t= 45.0
 85
    1UNL     C1    1  -0.571  -0.074  -0.313
    1UNL     C2    2  -0.470  -0.054  -0.229
    1UNL     C3    3  -0.348   0.033  -0.266
    1UNL     O1    4  -0.222  -0.035  -0.248
    1UNL     C4    5  -0.111   0.039  -0.268
    1UNL     O2    6  -0.113   0.170  -0.210
    1UNL     C5    7  -0.097   0.175  -0.067
    1UNL     C6    8  -0.099   0.319  -0.029
    1UNL     O3    9  -0.137   0.347   0.108
    1UNL     C7   10  -0.268   0.349   0.115
    1UNL     O4   11  -0.343   0.293   0.037
    1UNL     C8   12  -0.327   0.433   0.237
    1UNL     C9   13  -0.281   0.380   0.367
    1UNL     O5   14  -0.254   0.263   0.380
    1UNL     O6   15  -0.261   0.480   0.458
    1UNL    C10   16   0.029   0.098  -0.020
    1UNL     O7   17   0.050   0.094   0.120
    1UNL    C11   18   0.031  -0.042  -0.082
    1UNL     O8   19   0.126  -0.139  -0.042
    1UNL    C12   20   0.022  -0.036  -0.231
    1UNL     O9   21   0.131   0.040  -0.295
    1UNL    C13   22   0.254   0.007  -0.233
    1UNL    O10   23   0.297   0.084  -0.128
    1UNL    C14   24   0.411   0.034  -0.057
    1UNL    C15   25   0.432   0.108   0.074
    1UNL    O11   26   0.495   0.019   0.164
    1UNL    C16   27   0.398  -0.067   0.211
    1UNL    O12   28   0.278  -0.056   0.199
    1UNL    C17   29   0.454  -0.186   0.295
    1UNL    C18   30   0.563  -0.257   0.222
    1UNL    O13   31   0.568  -0.272   0.104
    1UNL    O14   32   0.665  -0.311   0.298
    1UNL    C19   33   0.536   0.012  -0.142
    1UNL    O15   34   0.639  -0.063  -0.085
    1UNL    C20   35   0.497  -0.074  -0.276
    1UNL    O16   36   0.606  -0.072  -0.360
    1UNL    C21   37   0.363  -0.012  -0.339
    1UNL    O17   38   0.318  -0.106  -0.439
    1UNL    C22   39  -0.478  -0.097  -0.080
    1UNL    C23   40  -0.345  -0.181  -0.034
    1UNL    C24   41  -0.293  -0.140   0.096
    1UNL    C25   42  -0.363  -0.066   0.186
    1UNL    C26   43  -0.313  -0.042   0.322
    1UNL    C27   44  -0.497  -0.011   0.157
    1UNL    C28   45  -0.504   0.029   0.010
    1UNL     H1   46  -0.664  -0.113  -0.286
    1UNL     H2   47  -0.558  -0.039  -0.413
    1UNL     H3   48  -0.346   0.069  -0.376
    1UNL     H4   49  -0.337   0.115  -0.200
    1UNL     H5   50  -0.114   0.057  -0.379
    1UNL     H6   51  -0.191   0.130  -0.028
    1UNL     H7   52   0.000   0.357  -0.053
    1UNL     H8   53  -0.171   0.370  -0.089
    1UNL     H9   54  -0.286   0.532   0.223
    1UNL    H10   55  -0.434   0.445   0.230
    1UNL    H11   56  -0.236   0.441   0.545
    1UNL    H12   57   0.114   0.156  -0.050
    1UNL    H13   58   0.137   0.050   0.148
    1UNL    H14   59  -0.065  -0.090  -0.049
    1UNL    H15   60   0.183  -0.107   0.032
    1UNL    H16   61   0.025  -0.129  -0.283
    1UNL    H17   62   0.226  -0.092  -0.191
    1UNL    H18   63   0.372  -0.066  -0.036
    1UNL    H19   64   0.336   0.133   0.127
    1UNL    H20   65   0.497   0.197   0.072
    1UNL    H21   66   0.490  -0.133   0.392
    1UNL    H22   67   0.374  -0.250   0.331
    1UNL    H23   68   0.737  -0.336   0.235
    1UNL    H24   69   0.581   0.108  -0.180
    1UNL    H25   70   0.606  -0.122  -0.007
    1UNL    H26   71   0.475  -0.174  -0.246
    1UNL    H27   72   0.690  -0.099  -0.309
    1UNL    H28   73   0.384   0.081  -0.388
    1UNL    H29   74   0.233  -0.069  -0.479
    1UNL    H30   75  -0.562  -0.163  -0.064
    1UNL    H31   76  -0.268  -0.164  -0.118
    1UNL    H32   77  -0.365  -0.287  -0.035
    1UNL    H33   78  -0.188  -0.159   0.121
    1UNL    H34   79  -0.275   0.063   0.321
    1UNL    H35   80  -0.389  -0.066   0.403
    1UNL    H36   81  -0.229  -0.114   0.354
    1UNL    H37   82  -0.580  -0.073   0.203
    1UNL    H38   83  -0.510   0.081   0.209
    1UNL    H39   84  -0.603   0.075  -0.021
    1UNL    H40   85  -0.436   0.113  -0.013
   0.00000   0.00000   0.00000   0.00000   0.00000   0.00000   0.00000   0.00000   0.00000
Generated with MDTraj, t= 46.0
 85
    1UNL     C1    1  -0.551  -0.086  -0.295
    1UNL     C2    2  -0.460  -0.040  -0.211
    1UNL     C3    3  -0.341   0.028  -0.269
    1UNL     O1    4  -0.222  -0.045  -0.250
    1UNL     C4    5  -0.107   0.030  -0.285
    1UNL     O2    6  -0.117   0.169  -0.242
    1UNL     C5    7  -0.116   0.181  -0.097
    1UNL     C6    8  -0.139   0.329  -0.062
    1UNL     O3    9  -0.157   0.367   0.076
    1UNL     C7   10  -0.294   0.340   0.101
    1UNL     O4   11  -0.377   0.292   0.019
    1UNL     C8   12  -0.347   0.393   0.227
    1UNL     C9   13  -0.272   0.355   0.354
    1UNL     O5   14  -0.227   0.249   0.379
    1UNL     O6   15  -0.262   0.458   0.445
    1UNL    C10   16   0.011   0.110  -0.034
    1UNL     O7   17   0.016   0.129   0.110
    1UNL    C11   18   0.009  -0.041  -0.080
    1UNL     O8   19   0.103  -0.125  -0.019
    1UNL    C12   20   0.024  -0.037  -0.232
    1UNL     O9   21   0.140   0.033  -0.276
    1UNL    C13   22   0.260  -0.014  -0.211
    1UNL    O10   23   0.306   0.063  -0.101
    1UNL    C14   24   0.423   0.014  -0.043
    1UNL    C15   25   0.455   0.095   0.084
    1UNL    O11   26   0.507   0.015   0.183
    1UNL    C16   27   0.406  -0.062   0.225
    1UNL    O12   28   0.289  -0.049   0.203
    1UNL    C17   29   0.462  -0.182   0.294
    1UNL    C18   30   0.545  -0.269   0.209
    1UNL    O13   31   0.522  -0.258   0.093
    1UNL    O14   32   0.635  -0.355   0.264
    1UNL    C19   33   0.546   0.007  -0.137
    1UNL    O15   34   0.652  -0.063  -0.078
    1UNL    C20   35   0.514  -0.064  -0.273
    1UNL    O16   36   0.613  -0.041  -0.367
    1UNL    C21   37   0.369  -0.013  -0.319
    1UNL    O17   38   0.323  -0.070  -0.441
    1UNL    C22   39  -0.473  -0.075  -0.065
    1UNL    C23   40  -0.361  -0.178  -0.015
    1UNL    C24   41  -0.303  -0.161   0.121
    1UNL    C25   42  -0.341  -0.066   0.208
    1UNL    C26   43  -0.261  -0.032   0.324
    1UNL    C27   44  -0.460   0.028   0.178
    1UNL    C28   45  -0.470   0.052   0.020
    1UNL     H1   46  -0.621  -0.156  -0.264
    1UNL     H2   47  -0.535  -0.072  -0.407
    1UNL     H3   48  -0.355   0.030  -0.384
    1UNL     H4   49  -0.324   0.124  -0.229
    1UNL     H5   50  -0.106   0.030  -0.396
    1UNL     H6   51  -0.208   0.122  -0.077
    1UNL     H7   52  -0.060   0.392  -0.102
    1UNL     H8   53  -0.225   0.361  -0.113
    1UNL     H9   54  -0.346   0.501   0.229
    1UNL    H10   55  -0.449   0.355   0.236
    1UNL    H11   56  -0.230   0.415   0.529
    1UNL    H12   57   0.097   0.160  -0.069
    1UNL    H13   58   0.086   0.079   0.151
    1UNL    H14   59  -0.090  -0.089  -0.058
    1UNL    H15   60   0.165  -0.085   0.050
    1UNL    H16   61   0.041  -0.141  -0.262
    1UNL    H17   62   0.235  -0.118  -0.181
    1UNL    H18   63   0.398  -0.091  -0.020
    1UNL    H19   64   0.369   0.142   0.140
    1UNL    H20   65   0.534   0.171   0.075
    1UNL    H21   66   0.515  -0.146   0.385
    1UNL    H22   67   0.373  -0.235   0.331
    1UNL    H23   68   0.673  -0.406   0.188
    1UNL    H24   69   0.594   0.110  -0.152
    1UNL    H25   70   0.624  -0.136  -0.026
    1UNL    H26   71   0.515  -0.170  -0.257
    1UNL    H27   72   0.711  -0.057  -0.339
    1UNL    H28   73   0.387   0.086  -0.360
    1UNL    H29   74   0.249  -0.019  -0.476
    1UNL    H30   75  -0.572  -0.121  -0.062
    1UNL    H31   76  -0.272  -0.170  -0.092
    1UNL    H32   77  -0.392  -0.282  -0.027
    1UNL    H33   78  -0.204  -0.205   0.137
    1UNL    H34   79  -0.210   0.064   0.301
    1UNL    H35   80  -0.318  -0.015   0.427
    1UNL    H36   81  -0.181  -0.098   0.364
    1UNL    H37   82  -0.560  -0.013   0.216
    1UNL    H38   83  -0.453   0.118   0.232
    1UNL    H39   84  -0.545   0.129  -0.011
    1UNL    H40   85  -0.378   0.107  -0.004
   0.00000   0.00000   0.00000   0.00000   0.00000   0.00000   0.00000   0.00000   0.00000
Generated with MDTraj, t= 47.0
 85
    1UNL     C1    1  -0.558  -0.110  -0.281
    1UNL     C2    2  -0.463  -0.067  -0.202
    1UNL     C3    3  -0.340  -0.000  -0.261
    1UNL     O1    4  -0.221  -0.047  -0.199
    1UNL     C4    5  -0.107   0.026  -0.249
    1UNL     O2    6  -0.103   0.167  -0.217
    1UNL     C5    7  -0.101   0.180  -0.078
    1UNL     C6    8  -0.111   0.327  -0.049
    1UNL     O3    9  -0.167   0.363   0.079
    1UNL     C7   10  -0.299   0.361   0.085
    1UNL     O4   11  -0.368   0.345  -0.015
    1UNL     C8   12  -0.358   0.387   0.212
    1UNL     C9   13  -0.271   0.336   0.330
    1UNL     O5   14  -0.252   0.219   0.334
    1UNL     O6   15  -0.220   0.426   0.411
    1UNL    C10   16   0.027   0.121  -0.021
    1UNL     O7   17   0.024   0.126   0.122
    1UNL    C11   18   0.030  -0.034  -0.062
    1UNL     O8   19   0.138  -0.113  -0.011
    1UNL    C12   20   0.026  -0.040  -0.211
    1UNL     O9   21   0.135   0.021  -0.272
    1UNL    C13   22   0.265  -0.007  -0.223
    1UNL    O10   23   0.300   0.086  -0.118
    1UNL    C14   24   0.409   0.036  -0.048
    1UNL    C15   25   0.444   0.113   0.087
    1UNL    O11   26   0.490   0.015   0.185
    1UNL    C16   27   0.385  -0.060   0.237
    1UNL    O12   28   0.274  -0.018   0.233
    1UNL    C17   29   0.423  -0.195   0.292
    1UNL    C18   30   0.502  -0.277   0.191
    1UNL    O13   31   0.507  -0.261   0.071
    1UNL    O14   32   0.574  -0.382   0.240
    1UNL    C19   33   0.532   0.011  -0.138
    1UNL    O15   34   0.642  -0.050  -0.068
    1UNL    C20   35   0.505  -0.058  -0.275
    1UNL    O16   36   0.614  -0.034  -0.357
    1UNL    C21   37   0.374   0.002  -0.338
    1UNL    O17   38   0.338  -0.068  -0.447
    1UNL    C22   39  -0.476  -0.084  -0.050
    1UNL    C23   40  -0.372  -0.190  -0.013
    1UNL    C24   41  -0.281  -0.152   0.097
    1UNL    C25   42  -0.307  -0.055   0.188
    1UNL    C26   43  -0.205  -0.033   0.307
    1UNL    C27   44  -0.431   0.028   0.179
    1UNL    C28   45  -0.475   0.048   0.036
    1UNL     H1   46  -0.643  -0.160  -0.243
    1UNL     H2   47  -0.553  -0.095  -0.388
    1UNL     H3   48  -0.326  -0.020  -0.374
    1UNL     H4   49  -0.337   0.102  -0.234
    1UNL     H5   50  -0.115   0.019  -0.358
    1UNL     H6   51  -0.186   0.121  -0.039
    1UNL     H7   52  -0.012   0.377  -0.062
    1UNL     H8   53  -0.172   0.379  -0.119
    1UNL     H9   54  -0.357   0.495   0.222
    1UNL    H10   55  -0.457   0.351   0.235
    1UNL    H11   56  -0.149   0.381   0.462
    1UNL    H12   57   0.110   0.173  -0.059
    1UNL    H13   58   0.103   0.074   0.157
    1UNL    H14   59  -0.062  -0.089  -0.031
    1UNL    H15   60   0.188  -0.075   0.064
    1UNL    H16   61   0.026  -0.150  -0.230
    1UNL    H17   62   0.254  -0.108  -0.178
    1UNL    H18   63   0.365  -0.063  -0.020
    1UNL    H19   64   0.356   0.158   0.138
    1UNL    H20   65   0.514   0.194   0.082
    1UNL    H21   66   0.481  -0.188   0.380
    1UNL    H22   67   0.328  -0.249   0.321
    1UNL    H23   68   0.628  -0.414   0.164
    1UNL    H24   69   0.564   0.117  -0.165
    1UNL    H25   70   0.598  -0.123  -0.009
    1UNL    H26   71   0.504  -0.165  -0.253
    1UNL    H27   72   0.700  -0.037  -0.309
    1UNL    H28   73   0.388   0.105  -0.375
    1UNL    H29   74   0.263  -0.015  -0.483
    1UNL    H30   75  -0.577  -0.125  -0.036
    1UNL    H31   76  -0.304  -0.214  -0.102
    1UNL    H32   77  -0.417  -0.291   0.003
    1UNL    H33   78  -0.187  -0.197   0.104
    1UNL    H34   79  -0.118   0.027   0.263
    1UNL    H35   80  -0.244   0.030   0.399
    1UNL    H36   81  -0.163  -0.118   0.359
    1UNL    H37   82  -0.515  -0.011   0.242
    1UNL    H38   83  -0.412   0.125   0.222
    1UNL    H39   84  -0.572   0.104   0.035
    1UNL    H40   85  -0.409   0.121  -0.012
   0.00000   0.00000   0.00000   0.00000   0.00000   0.00000   0.00000   0.00000   0.00000
Generated with MDTraj, t= 48.0
 85
    1UNL     C1    1  -0.561  -0.094  -0.271
    1UNL     C2    2  -0.460  -0.070  -0.191
    1UNL     C3    3  -0.339   0.003  -0.240
    1UNL     O1    4  -0.218  -0.061  -0.198
    1UNL     C4    5  -0.110   0.024  -0.242
    1UNL     O2    6  -0.113   0.164  -0.205
    1UNL     C5    7  -0.089   0.185  -0.067
    1UNL     C6    8  -0.078   0.342  -0.041
    1UNL     O3    9  -0.138   0.369   0.085
    1UNL     C7   10  -0.271   0.369   0.074
    1UNL     O4   11  -0.335   0.345  -0.027
    1UNL     C8   12  -0.344   0.417   0.197
    1UNL     C9   13  -0.284   0.354   0.319
    1UNL     O5   14  -0.326   0.243   0.349
    1UNL     O6   15  -0.178   0.409   0.379
    1UNL    C10   16   0.040   0.110  -0.006
    1UNL     O7   17   0.045   0.129   0.141
    1UNL    C11   18   0.040  -0.047  -0.055
    1UNL     O8   19   0.152  -0.116  -0.011
    1UNL    C12   20   0.025  -0.043  -0.209
    1UNL     O9   21   0.131   0.027  -0.277
    1UNL    C13   22   0.258   0.013  -0.225
    1UNL    O10   23   0.298   0.111  -0.116
    1UNL    C14   24   0.400   0.049  -0.048
    1UNL    C15   25   0.427   0.122   0.090
    1UNL    O11   26   0.470   0.025   0.189
    1UNL    C16   27   0.363  -0.053   0.236
    1UNL    O12   28   0.248  -0.028   0.226
    1UNL    C17   29   0.412  -0.185   0.295
    1UNL    C18   30   0.467  -0.282   0.187
    1UNL    O13   31   0.469  -0.237   0.074
    1UNL    O14   32   0.508  -0.402   0.228
    1UNL    C19   33   0.524   0.042  -0.141
    1UNL    O15   34   0.629  -0.024  -0.073
    1UNL    C20   35   0.495  -0.046  -0.268
    1UNL    O16   36   0.609  -0.035  -0.355
    1UNL    C21   37   0.361   0.001  -0.339
    1UNL    O17   38   0.329  -0.090  -0.443
    1UNL    C22   39  -0.468  -0.108  -0.045
    1UNL    C23   40  -0.360  -0.225  -0.007
    1UNL    C24   41  -0.256  -0.187   0.089
    1UNL    C25   42  -0.273  -0.089   0.179
    1UNL    C26   43  -0.159  -0.031   0.263
    1UNL    C27   44  -0.404  -0.016   0.180
    1UNL    C28   45  -0.438   0.025   0.041
    1UNL     H1   46  -0.661  -0.127  -0.231
    1UNL     H2   47  -0.564  -0.071  -0.370
    1UNL     H3   48  -0.326  -0.008  -0.354
    1UNL     H4   49  -0.333   0.102  -0.204
    1UNL     H5   50  -0.116   0.019  -0.351
    1UNL     H6   51  -0.174   0.136  -0.015
    1UNL     H7   52   0.029   0.379  -0.029
    1UNL     H8   53  -0.121   0.404  -0.121
    1UNL     H9   54  -0.328   0.522   0.224
    1UNL    H10   55  -0.450   0.401   0.191
    1UNL    H11   56  -0.152   0.336   0.441
    1UNL    H12   57   0.119   0.167  -0.041
    1UNL    H13   58   0.118   0.073   0.173
    1UNL    H14   59  -0.053  -0.086  -0.011
    1UNL    H15   60   0.188  -0.092   0.080
    1UNL    H16   61   0.028  -0.150  -0.248
    1UNL    H17   62   0.252  -0.088  -0.178
    1UNL    H18   63   0.361  -0.055  -0.024
    1UNL    H19   64   0.339   0.178   0.124
    1UNL    H20   65   0.501   0.196   0.080
    1UNL    H21   66   0.488  -0.169   0.364
    1UNL    H22   67   0.332  -0.244   0.346
    1UNL    H23   68   0.526  -0.458   0.151
    1UNL    H24   69   0.549   0.147  -0.181
    1UNL    H25   70   0.595  -0.105  -0.027
    1UNL    H26   71   0.499  -0.153  -0.236
    1UNL    H27   72   0.689  -0.027  -0.305
    1UNL    H28   73   0.381   0.091  -0.402
    1UNL    H29   74   0.240  -0.064  -0.485
    1UNL    H30   75  -0.571  -0.141  -0.026
    1UNL    H31   76  -0.322  -0.264  -0.103
    1UNL    H32   77  -0.410  -0.320   0.033
    1UNL    H33   78  -0.155  -0.238   0.092
    1UNL    H34   79  -0.154   0.078   0.220
    1UNL    H35   80  -0.179  -0.036   0.370
    1UNL    H36   81  -0.065  -0.081   0.230
    1UNL    H37   82  -0.485  -0.086   0.210
    1UNL    H38   83  -0.412   0.068   0.256
    1UNL    H39   84  -0.520   0.099   0.029
    1UNL    H40   85  -0.353   0.077  -0.005
   0.00000   0.00000   0.00000   0.00000   0.00000   0.00000   0.00000   0.00000   0.00000
Generated with MDTraj, t= 49.0
 85
    1UNL     C1    1  -0.581  -0.087  -0.246
    1UNL     C2    2  -0.473  -0.067  -0.175
    1UNL     C3    3  -0.353   0.017  -0.238
    1UNL     O1    4  -0.218  -0.036  -0.202
    1UNL     C4    5  -0.113   0.030  -0.268
    1UNL     O2    6  -0.107   0.170  -0.244
    1UNL     C5    7  -0.091   0.193  -0.098
    1UNL     C6    8  -0.072   0.345  -0.067
    1UNL     O3    9  -0.121   0.394   0.055
    1UNL     C7   10  -0.257   0.370   0.076
    1UNL     O4   11  -0.327   0.304   0.003
    1UNL     C8   12  -0.311   0.431   0.197
    1UNL     C9   13  -0.286   0.354   0.322
    1UNL     O5   14  -0.374   0.278   0.365
    1UNL     O6   15  -0.178   0.376   0.399
    1UNL    C10   16   0.028   0.115  -0.029
    1UNL     O7   17   0.024   0.119   0.107
    1UNL    C11   18   0.024  -0.037  -0.066
    1UNL     O8   19   0.118  -0.127  -0.024
    1UNL    C12   20   0.018  -0.042  -0.220
    1UNL     O9   21   0.127   0.025  -0.282
    1UNL    C13   22   0.251  -0.005  -0.226
    1UNL    O10   23   0.285   0.090  -0.114
    1UNL    C14   24   0.397   0.045  -0.034
    1UNL    C15   25   0.423   0.132   0.095
    1UNL    O11   26   0.480   0.049   0.193
    1UNL    C16   27   0.386  -0.037   0.240
    1UNL    O12   28   0.266  -0.030   0.224
    1UNL    C17   29   0.448  -0.159   0.293
    1UNL    C18   30   0.458  -0.266   0.182
    1UNL    O13   31   0.490  -0.236   0.067
    1UNL    O14   32   0.422  -0.393   0.212
    1UNL    C19   33   0.522   0.030  -0.117
    1UNL    O15   34   0.630  -0.034  -0.052
    1UNL    C20   35   0.505  -0.052  -0.252
    1UNL    O16   36   0.614  -0.019  -0.341
    1UNL    C21   37   0.377  -0.004  -0.319
    1UNL    O17   38   0.340  -0.085  -0.429
    1UNL    C22   39  -0.461  -0.121  -0.033
    1UNL    C23   40  -0.341  -0.221  -0.020
    1UNL    C24   41  -0.238  -0.193   0.078
    1UNL    C25   42  -0.244  -0.100   0.172
    1UNL    C26   43  -0.138  -0.090   0.277
    1UNL    C27   44  -0.374  -0.020   0.199
    1UNL    C28   45  -0.449   0.005   0.063
    1UNL     H1   46  -0.668  -0.144  -0.207
    1UNL     H2   47  -0.595  -0.042  -0.341
    1UNL     H3   48  -0.363   0.014  -0.349
    1UNL     H4   49  -0.347   0.117  -0.202
    1UNL     H5   50  -0.120   0.006  -0.373
    1UNL     H6   51  -0.176   0.138  -0.052
    1UNL     H7   52   0.036   0.385  -0.081
    1UNL     H8   53  -0.134   0.394  -0.144
    1UNL     H9   54  -0.279   0.537   0.204
    1UNL    H10   55  -0.417   0.431   0.175
    1UNL    H11   56  -0.190   0.323   0.479
    1UNL    H12   57   0.116   0.159  -0.064
    1UNL    H13   58   0.106   0.075   0.152
    1UNL    H14   59  -0.073  -0.076  -0.033
    1UNL    H15   60   0.152  -0.101   0.063
    1UNL    H16   61   0.018  -0.151  -0.260
    1UNL    H17   62   0.235  -0.103  -0.178
    1UNL    H18   63   0.379  -0.060   0.004
    1UNL    H19   64   0.331   0.184   0.127
    1UNL    H20   65   0.489   0.212   0.072
    1UNL    H21   66   0.550  -0.152   0.327
    1UNL    H22   67   0.381  -0.185   0.371
    1UNL    H23   68   0.419  -0.438   0.127
    1UNL    H24   69   0.567   0.134  -0.131
    1UNL    H25   70   0.587  -0.107  -0.002
    1UNL    H26   71   0.508  -0.165  -0.232
    1UNL    H27   72   0.700  -0.005  -0.299
    1UNL    H28   73   0.386   0.098  -0.363
    1UNL    H29   74   0.244  -0.077  -0.439
    1UNL    H30   75  -0.555  -0.172  -0.005
    1UNL    H31   76  -0.294  -0.227  -0.116
    1UNL    H32   77  -0.377  -0.332  -0.012
    1UNL    H33   78  -0.153  -0.251   0.076
    1UNL    H34   79  -0.106   0.020   0.298
    1UNL    H35   80  -0.162  -0.136   0.368
    1UNL    H36   81  -0.042  -0.135   0.230
    1UNL    H37   82  -0.439  -0.069   0.273
    1UNL    H38   83  -0.355   0.082   0.247
    1UNL    H39   84  -0.550   0.049   0.075
    1UNL    H40   85  -0.401   0.083  -0.000
   0.00000   0.00000   0.00000   0.00000   0.00000   0.00000   0.00000   0.00000   0.00000
Generated with MDTraj, t= 50.0
 85
    1UNL     C1    1  -0.576  -0.050  -0.224
    1UNL     C2    2  -0.457  -0.039  -0.169
    1UNL     C3    3  -0.346   0.018  -0.252
    1UNL     O1    4  -0.219  -0.053  -0.227
    1UNL     C4    5  -0.111   0.021  -0.279
    1UNL     O2    6  -0.109   0.159  -0.246
    1UNL     C5    7  -0.097   0.191  -0.108
    1UNL     C6    8  -0.107   0.348  -0.093
    1UNL     O3    9  -0.121   0.390   0.037
    1UNL     C7   10  -0.246   0.362   0.085
    1UNL     O4   11  -0.315   0.282   0.035
    1UNL     C8   12  -0.293   0.434   0.220
    1UNL     C9   13  -0.293   0.333   0.329
    1UNL     O5   14  -0.383   0.250   0.329
    1UNL     O6   15  -0.194   0.340   0.424
    1UNL    C10   16   0.026   0.121  -0.037
    1UNL     O7   17   0.023   0.143   0.098
    1UNL    C11   18   0.022  -0.032  -0.076
    1UNL     O8   19   0.106  -0.122  -0.015
    1UNL    C12   20   0.023  -0.051  -0.237
    1UNL     O9   21   0.137   0.014  -0.291
    1UNL    C13   22   0.252  -0.006  -0.222
    1UNL    O10   23   0.282   0.095  -0.123
    1UNL    C14   24   0.401   0.052  -0.049
    1UNL    C15   25   0.409   0.142   0.076
    1UNL    O11   26   0.462   0.064   0.177
    1UNL    C16   27   0.371  -0.033   0.216
    1UNL    O12   28   0.249  -0.034   0.204
    1UNL    C17   29   0.433  -0.154   0.291
    1UNL    C18   30   0.442  -0.266   0.192
    1UNL    O13   31   0.523  -0.262   0.102
    1UNL    O14   32   0.344  -0.354   0.215
    1UNL    C19   33   0.531   0.044  -0.125
    1UNL    O15   34   0.626  -0.002  -0.043
    1UNL    C20   35   0.505  -0.049  -0.254
    1UNL    O16   36   0.621  -0.047  -0.335
    1UNL    C21   37   0.377  -0.005  -0.318
    1UNL    O17   38   0.356  -0.092  -0.437
    1UNL    C22   39  -0.432  -0.082  -0.024
    1UNL    C23   40  -0.329  -0.195  -0.021
    1UNL    C24   41  -0.237  -0.207   0.096
    1UNL    C25   42  -0.238  -0.123   0.198
    1UNL    C26   43  -0.130  -0.129   0.303
    1UNL    C27   44  -0.352  -0.025   0.217
    1UNL    C28   45  -0.399   0.035   0.079
    1UNL     H1   46  -0.656  -0.096  -0.182
    1UNL     H2   47  -0.585  -0.025  -0.330
    1UNL     H3   48  -0.362  -0.002  -0.361
    1UNL     H4   49  -0.339   0.120  -0.219
    1UNL     H5   50  -0.124   0.011  -0.386
    1UNL     H6   51  -0.177   0.146  -0.051
    1UNL     H7   52  -0.014   0.398  -0.137
    1UNL     H8   53  -0.192   0.382  -0.153
    1UNL     H9   54  -0.209   0.503   0.227
    1UNL    H10   55  -0.384   0.491   0.218
    1UNL    H11   56  -0.180   0.264   0.483
    1UNL    H12   57   0.108   0.177  -0.074
    1UNL    H13   58   0.086   0.089   0.149
    1UNL    H14   59  -0.076  -0.069  -0.043
    1UNL    H15   60   0.154  -0.072   0.057
    1UNL    H16   61   0.026  -0.166  -0.260
    1UNL    H17   62   0.250  -0.102  -0.167
    1UNL    H18   63   0.383  -0.052  -0.015
    1UNL    H19   64   0.307   0.184   0.095
    1UNL    H20   65   0.471   0.228   0.060
    1UNL    H21   66   0.531  -0.117   0.325
    1UNL    H22   67   0.378  -0.192   0.368
    1UNL    H23   68   0.352  -0.429   0.156
    1UNL    H24   69   0.555   0.151  -0.150
    1UNL    H25   70   0.596  -0.085   0.012
    1UNL    H26   71   0.491  -0.159  -0.226
    1UNL    H27   72   0.702  -0.039  -0.276
    1UNL    H28   73   0.401   0.092  -0.368
    1UNL    H29   74   0.264  -0.113  -0.450
    1UNL    H30   75  -0.531  -0.121   0.007
    1UNL    H31   76  -0.270  -0.201  -0.107
    1UNL    H32   77  -0.381  -0.300  -0.025
    1UNL    H33   78  -0.148  -0.275   0.095
    1UNL    H34   79  -0.079  -0.040   0.351
    1UNL    H35   80  -0.146  -0.185   0.393
    1UNL    H36   81  -0.040  -0.175   0.247
    1UNL    H37   82  -0.430  -0.076   0.274
    1UNL    H38   83  -0.313   0.059   0.282
    1UNL    H39   84  -0.481   0.110   0.088
    1UNL    H40   85  -0.315   0.095   0.047
   0.00000   0.00000   0.00000   0.00000   0.00000   0.00000   0.00000   0.00000   0.00000
Generated with MDTraj, t= 51.0
 85
    1UNL     C1    1  -0.574   0.014  -0.185
    1UNL     C2    2  -0.451  -0.017  -0.150
    1UNL     C3    3  -0.345   0.031  -0.236
    1UNL     O1    4  -0.222  -0.038  -0.207
    1UNL     C4    5  -0.112   0.026  -0.284
    1UNL     O2    6  -0.102   0.163  -0.267
    1UNL     C5    7  -0.092   0.187  -0.124
    1UNL     C6    8  -0.095   0.337  -0.090
    1UNL     O3    9  -0.097   0.365   0.041
    1UNL     C7   10  -0.231   0.354   0.076
    1UNL     O4   11  -0.321   0.309   0.009
    1UNL     C8   12  -0.251   0.397   0.226
    1UNL     C9   13  -0.282   0.290   0.324
    1UNL     O5   14  -0.369   0.208   0.309
    1UNL     O6   15  -0.217   0.303   0.446
    1UNL    C10   16   0.027   0.123  -0.055
    1UNL     O7   17   0.013   0.133   0.084
    1UNL    C11   18   0.036  -0.025  -0.093
    1UNL     O8   19   0.142  -0.102  -0.039
    1UNL    C12   20   0.028  -0.037  -0.247
    1UNL     O9   21   0.138   0.031  -0.311
    1UNL    C13   22   0.255  -0.004  -0.246
    1UNL    O10   23   0.286   0.096  -0.145
    1UNL    C14   24   0.389   0.050  -0.054
    1UNL    C15   25   0.400   0.146   0.070
    1UNL    O11   26   0.446   0.073   0.182
    1UNL    C16   27   0.346  -0.003   0.239
    1UNL    O12   28   0.226   0.024   0.227
    1UNL    C17   29   0.384  -0.129   0.308
    1UNL    C18   30   0.415  -0.223   0.201
    1UNL    O13   31   0.510  -0.215   0.128
    1UNL    O14   32   0.334  -0.337   0.187
    1UNL    C19   33   0.520   0.024  -0.119
    1UNL    O15   34   0.619  -0.036  -0.047
    1UNL    C20   35   0.500  -0.061  -0.250
    1UNL    O16   36   0.620  -0.059  -0.329
    1UNL    C21   37   0.383  -0.016  -0.337
    1UNL    O17   38   0.349  -0.130  -0.429
    1UNL    C22   39  -0.421  -0.090  -0.019
    1UNL    C23   40  -0.323  -0.206  -0.015
    1UNL    C24   41  -0.233  -0.222   0.106
    1UNL    C25   42  -0.231  -0.144   0.213
    1UNL    C26   43  -0.126  -0.143   0.322
    1UNL    C27   44  -0.343  -0.041   0.223
    1UNL    C28   45  -0.370   0.018   0.082
    1UNL     H1   46  -0.660  -0.011  -0.128
    1UNL     H2   47  -0.604   0.057  -0.286
    1UNL     H3   48  -0.377   0.013  -0.339
    1UNL     H4   49  -0.322   0.135  -0.218
    1UNL     H5   50  -0.142   0.007  -0.389
    1UNL     H6   51  -0.175   0.140  -0.074
    1UNL     H7   52  -0.006   0.391  -0.133
    1UNL     H8   53  -0.181   0.383  -0.136
    1UNL     H9   54  -0.166   0.451   0.265
    1UNL    H10   55  -0.336   0.464   0.216
    1UNL    H11   56  -0.263   0.251   0.514
    1UNL    H12   57   0.104   0.186  -0.096
    1UNL    H13   58   0.095   0.108   0.133
    1UNL    H14   59  -0.054  -0.075  -0.054
    1UNL    H15   60   0.165  -0.066   0.051
    1UNL    H16   61   0.030  -0.152  -0.266
    1UNL    H17   62   0.243  -0.097  -0.189
    1UNL    H18   63   0.359  -0.048  -0.016
    1UNL    H19   64   0.307   0.209   0.091
    1UNL    H20   65   0.479   0.219   0.049
    1UNL    H21   66   0.473  -0.107   0.365
    1UNL    H22   67   0.303  -0.162   0.364
    1UNL    H23   68   0.373  -0.389   0.114
    1UNL    H24   69   0.560   0.121  -0.151
    1UNL    H25   70   0.577  -0.090   0.016
    1UNL    H26   71   0.480  -0.170  -0.219
    1UNL    H27   72   0.700  -0.073  -0.268
    1UNL    H28   73   0.405   0.081  -0.388
    1UNL    H29   74   0.248  -0.127  -0.434
    1UNL    H30   75  -0.521  -0.130   0.011
    1UNL    H31   76  -0.258  -0.199  -0.099
    1UNL    H32   77  -0.379  -0.305  -0.030
    1UNL    H33   78  -0.149  -0.285   0.095
    1UNL    H34   79  -0.100  -0.050   0.375
    1UNL    H35   80  -0.146  -0.211   0.411
    1UNL    H36   81  -0.030  -0.173   0.267
    1UNL    H37   82  -0.439  -0.084   0.254
    1UNL    H38   83  -0.318   0.039   0.299
    1UNL    H39   84  -0.448   0.095   0.092
    1UNL    H40   85  -0.284   0.073   0.042
   0.00000   0.00000   0.00000   0.00000   0.00000   0.00000   0.00000   0.00000   0.00000
Generated with MDTraj, t= 52.0
 85
    1UNL     C1    1  -0.568   0.050  -0.149
    1UNL     C2    2  -0.447  -0.000  -0.134
    1UNL     C3    3  -0.345   0.030  -0.247
    1UNL     O1    4  -0.221  -0.038  -0.230
    1UNL     C4    5  -0.107   0.031  -0.288
    1UNL     O2    6  -0.096   0.169  -0.263
    1UNL     C5    7  -0.091   0.204  -0.118
    1UNL     C6    8  -0.078   0.357  -0.102
    1UNL     O3    9  -0.097   0.411   0.033
    1UNL     C7   10  -0.215   0.362   0.082
    1UNL     O4   11  -0.295   0.296   0.021
    1UNL     C8   12  -0.247   0.397   0.223
    1UNL     C9   13  -0.291   0.283   0.322
    1UNL     O5   14  -0.392   0.225   0.296
    1UNL     O6   15  -0.209   0.268   0.431
    1UNL    C10   16   0.009   0.125  -0.038
    1UNL     O7   17  -0.024   0.127   0.105
    1UNL    C11   18   0.020  -0.022  -0.084
    1UNL     O8   19   0.114  -0.105  -0.016
    1UNL    C12   20   0.025  -0.040  -0.235
    1UNL     O9   21   0.140   0.004  -0.310
    1UNL    C13   22   0.262  -0.013  -0.243
    1UNL    O10   23   0.291   0.091  -0.141
    1UNL    C14   24   0.401   0.058  -0.063
    1UNL    C15   25   0.408   0.161   0.059
    1UNL    O11   26   0.441   0.086   0.179
    1UNL    C16   27   0.333   0.019   0.221
    1UNL    O12   28   0.215   0.048   0.198
    1UNL    C17   29   0.366  -0.102   0.306
    1UNL    C18   30   0.386  -0.219   0.212
    1UNL    O13   31   0.485  -0.213   0.146
    1UNL    O14   32   0.309  -0.330   0.215
    1UNL    C19   33   0.534   0.037  -0.144
    1UNL    O15   34   0.637  -0.007  -0.052
    1UNL    C20   35   0.507  -0.071  -0.252
    1UNL    O16   36   0.624  -0.090  -0.335
    1UNL    C21   37   0.383  -0.035  -0.335
    1UNL    O17   38   0.351  -0.133  -0.440
    1UNL    C22   39  -0.417  -0.085  -0.007
    1UNL    C23   40  -0.320  -0.203  -0.025
    1UNL    C24   41  -0.215  -0.219   0.074
    1UNL    C25   42  -0.215  -0.175   0.197
    1UNL    C26   43  -0.111  -0.209   0.305
    1UNL    C27   44  -0.322  -0.089   0.231
    1UNL    C28   45  -0.358   0.002   0.114
    1UNL     H1   46  -0.645   0.042  -0.074
    1UNL     H2   47  -0.598   0.112  -0.225
    1UNL     H3   48  -0.379  -0.005  -0.342
    1UNL     H4   49  -0.325   0.138  -0.250
    1UNL     H5   50  -0.098   0.022  -0.399
    1UNL     H6   51  -0.182   0.161  -0.076
    1UNL     H7   52   0.018   0.396  -0.142
    1UNL     H8   53  -0.146   0.396  -0.172
    1UNL     H9   54  -0.148   0.426   0.257
    1UNL    H10   55  -0.311   0.483   0.234
    1UNL    H11   56  -0.251   0.191   0.476
    1UNL    H12   57   0.106   0.167  -0.058
    1UNL    H13   58   0.053   0.088   0.148
    1UNL    H14   59  -0.077  -0.062  -0.052
    1UNL    H15   60   0.152  -0.070   0.065
    1UNL    H16   61   0.019  -0.153  -0.260
    1UNL    H17   62   0.247  -0.102  -0.179
    1UNL    H18   63   0.382  -0.040  -0.021
    1UNL    H19   64   0.317   0.226   0.077
    1UNL    H20   65   0.492   0.230   0.039
    1UNL    H21   66   0.453  -0.080   0.358
    1UNL    H22   67   0.284  -0.113   0.376
    1UNL    H23   68   0.351  -0.402   0.163
    1UNL    H24   69   0.569   0.128  -0.191
    1UNL    H25   70   0.607  -0.076   0.019
    1UNL    H26   71   0.481  -0.172  -0.206
    1UNL    H27   72   0.701  -0.109  -0.275
    1UNL    H28   73   0.418   0.055  -0.391
    1UNL    H29   74   0.261  -0.174  -0.427
    1UNL    H30   75  -0.511  -0.135   0.029
    1UNL    H31   76  -0.272  -0.186  -0.124
    1UNL    H32   77  -0.376  -0.299  -0.030
    1UNL    H33   78  -0.126  -0.272   0.044
    1UNL    H34   79  -0.099  -0.128   0.373
    1UNL    H35   80  -0.151  -0.304   0.364
    1UNL    H36   81  -0.020  -0.238   0.244
    1UNL    H37   82  -0.409  -0.152   0.263
    1UNL    H38   83  -0.300  -0.021   0.318
    1UNL    H39   84  -0.432   0.078   0.142
    1UNL    H40   85  -0.264   0.057   0.084
   0.00000   0.00000   0.00000   0.00000   0.00000   0.00000   0.00000   0.00000   0.00000
Generated with MDTraj, t= 53.0
 85
    1UNL     C1    1  -0.549   0.102  -0.108
    1UNL     C2    2  -0.445   0.022  -0.122
    1UNL     C3    3  -0.349   0.041  -0.238
    1UNL     O1    4  -0.224  -0.027  -0.232
    1UNL     C4    5  -0.103   0.026  -0.298
    1UNL     O2    6  -0.092   0.166  -0.271
    1UNL     C5    7  -0.097   0.192  -0.126
    1UNL     C6    8  -0.106   0.342  -0.111
    1UNL     O3    9  -0.103   0.376   0.031
    1UNL     C7   10  -0.230   0.354   0.082
    1UNL     O4   11  -0.326   0.296   0.028
    1UNL     C8   12  -0.244   0.407   0.223
    1UNL     C9   13  -0.290   0.287   0.315
    1UNL     O5   14  -0.397   0.236   0.300
    1UNL     O6   15  -0.190   0.236   0.400
    1UNL    C10   16   0.018   0.117  -0.058
    1UNL     O7   17   0.004   0.146   0.085
    1UNL    C11   18   0.012  -0.033  -0.088
    1UNL     O8   19   0.107  -0.108  -0.006
    1UNL    C12   20   0.020  -0.055  -0.240
    1UNL     O9   21   0.132   0.006  -0.301
    1UNL    C13   22   0.251  -0.012  -0.228
    1UNL    O10   23   0.289   0.097  -0.135
    1UNL    C14   24   0.385   0.060  -0.046
    1UNL    C15   25   0.412   0.176   0.058
    1UNL    O11   26   0.460   0.112   0.181
    1UNL    C16   27   0.359   0.032   0.229
    1UNL    O12   28   0.241   0.051   0.204
    1UNL    C17   29   0.412  -0.084   0.316
    1UNL    C18   30   0.392  -0.202   0.224
    1UNL    O13   31   0.448  -0.202   0.116
    1UNL    O14   32   0.307  -0.308   0.253
    1UNL    C19   33   0.514   0.020  -0.123
    1UNL    O15   34   0.612  -0.034  -0.025
    1UNL    C20   35   0.493  -0.077  -0.238
    1UNL    O16   36   0.611  -0.080  -0.321
    1UNL    C21   37   0.363  -0.042  -0.319
    1UNL    O17   38   0.319  -0.143  -0.409
    1UNL    C22   39  -0.404  -0.073  -0.010
    1UNL    C23   40  -0.326  -0.205  -0.045
    1UNL    C24   41  -0.228  -0.264   0.053
    1UNL    C25   42  -0.204  -0.207   0.165
    1UNL    C26   43  -0.091  -0.248   0.250
    1UNL    C27   44  -0.273  -0.082   0.213
    1UNL    C28   45  -0.317   0.007   0.096
    1UNL     H1   46  -0.618   0.098  -0.016
    1UNL     H2   47  -0.564   0.184  -0.172
    1UNL     H3   48  -0.400  -0.002  -0.322
    1UNL     H4   49  -0.320   0.147  -0.253
    1UNL     H5   50  -0.119   0.015  -0.409
    1UNL     H6   51  -0.189   0.147  -0.093
    1UNL     H7   52  -0.020   0.381  -0.167
    1UNL     H8   53  -0.181   0.394  -0.162
    1UNL     H9   54  -0.157   0.458   0.256
    1UNL    H10   55  -0.327   0.477   0.236
    1UNL    H11   56  -0.217   0.146   0.429
    1UNL    H12   57   0.104   0.161  -0.104
    1UNL    H13   58   0.090   0.125   0.131
    1UNL    H14   59  -0.087  -0.064  -0.051
    1UNL    H15   60   0.155  -0.037   0.046
    1UNL    H16   61   0.011  -0.162  -0.276
    1UNL    H17   62   0.231  -0.102  -0.169
    1UNL    H18   63   0.343  -0.026   0.002
    1UNL    H19   64   0.314   0.228   0.075
    1UNL    H20   65   0.481   0.253   0.026
    1UNL    H21   66   0.510  -0.072   0.345
    1UNL    H22   67   0.344  -0.095   0.406
    1UNL    H23   68   0.323  -0.370   0.177
    1UNL    H24   69   0.556   0.113  -0.158
    1UNL    H25   70   0.558  -0.103   0.025
    1UNL    H26   71   0.465  -0.176  -0.194
    1UNL    H27   72   0.681  -0.112  -0.263
    1UNL    H28   73   0.386   0.049  -0.377
    1UNL    H29   74   0.282  -0.094  -0.483
    1UNL    H30   75  -0.495  -0.108   0.044
    1UNL    H31   76  -0.266  -0.177  -0.139
    1UNL    H32   77  -0.399  -0.280  -0.066
    1UNL    H33   78  -0.158  -0.344   0.018
    1UNL    H34   79  -0.094  -0.194   0.347
    1UNL    H35   80  -0.098  -0.361   0.263
    1UNL    H36   81  -0.001  -0.226   0.188
    1UNL    H37   82  -0.370  -0.100   0.271
    1UNL    H38   83  -0.212  -0.028   0.287
    1UNL    H39   84  -0.373   0.093   0.135
    1UNL    H40   85  -0.230   0.057   0.046
   0.00000   0.00000   0.00000   0.00000   0.00000   0.00000   0.00000   0.00000   0.00000
Generated with MDTraj, t= 54.0
 85
    1UNL     C1    1  -0.517   0.140  -0.107
    1UNL     C2    2  -0.426   0.044  -0.104
    1UNL     C3    3  -0.353   0.019  -0.238
    1UNL     O1    4  -0.229  -0.046  -0.228
    1UNL     C4    5  -0.118   0.020  -0.288
    1UNL     O2    6  -0.123   0.164  -0.272
    1UNL     C5    7  -0.112   0.199  -0.129
    1UNL     C6    8  -0.102   0.344  -0.110
    1UNL     O3    9  -0.116   0.397   0.024
    1UNL     C7   10  -0.242   0.358   0.070
    1UNL     O4   11  -0.330   0.302   0.001
    1UNL     C8   12  -0.271   0.374   0.212
    1UNL     C9   13  -0.283   0.259   0.306
    1UNL     O5   14  -0.386   0.204   0.315
    1UNL     O6   15  -0.175   0.218   0.375
    1UNL    C10   16   0.003   0.131  -0.056
    1UNL     O7   17   0.003   0.159   0.078
    1UNL    C11   18   0.014  -0.017  -0.088
    1UNL     O8   19   0.112  -0.092  -0.009
    1UNL    C12   20   0.013  -0.037  -0.238
    1UNL     O9   21   0.124   0.023  -0.304
    1UNL    C13   22   0.253  -0.004  -0.239
    1UNL    O10   23   0.288   0.103  -0.143
    1UNL    C14   24   0.387   0.069  -0.054
    1UNL    C15   25   0.412   0.176   0.055
    1UNL    O11   26   0.464   0.114   0.168
    1UNL    C16   27   0.368   0.039   0.238
    1UNL    O12   28   0.250   0.050   0.220
    1UNL    C17   29   0.423  -0.080   0.312
    1UNL    C18   30   0.381  -0.207   0.243
    1UNL    O13   31   0.414  -0.224   0.126
    1UNL    O14   32   0.323  -0.300   0.322
    1UNL    C19   33   0.518   0.029  -0.123
    1UNL    O15   34   0.605  -0.026  -0.029
    1UNL    C20   35   0.494  -0.078  -0.227
    1UNL    O16   36   0.612  -0.102  -0.305
    1UNL    C21   37   0.368  -0.042  -0.325
    1UNL    O17   38   0.331  -0.158  -0.396
    1UNL    C22   39  -0.402  -0.045   0.018
    1UNL    C23   40  -0.380  -0.185  -0.031
    1UNL    C24   41  -0.255  -0.256   0.031
    1UNL    C25   42  -0.186  -0.215   0.133
    1UNL    C26   43  -0.070  -0.291   0.193
    1UNL    C27   44  -0.228  -0.092   0.208
    1UNL    C28   45  -0.289   0.008   0.109
    1UNL     H1   46  -0.574   0.167  -0.023
    1UNL     H2   47  -0.528   0.190  -0.199
    1UNL     H3   48  -0.412  -0.039  -0.305
    1UNL     H4   49  -0.335   0.123  -0.276
    1UNL     H5   50  -0.126   0.002  -0.398
    1UNL     H6   51  -0.203   0.168  -0.082
    1UNL     H7   52  -0.001   0.378  -0.142
    1UNL     H8   53  -0.157   0.393  -0.186
    1UNL     H9   54  -0.195   0.432   0.261
    1UNL    H10   55  -0.360   0.438   0.210
    1UNL    H11   56  -0.199   0.148   0.438
    1UNL    H12   57   0.091   0.174  -0.099
    1UNL    H13   58   0.080   0.123   0.130
    1UNL    H14   59  -0.077  -0.067  -0.049
    1UNL    H15   60   0.168  -0.040   0.050
    1UNL    H16   61   0.027  -0.145  -0.259
    1UNL    H17   62   0.227  -0.095  -0.183
    1UNL    H18   63   0.342  -0.023  -0.020
    1UNL    H19   64   0.320   0.230   0.083
    1UNL    H20   65   0.480   0.250   0.019
    1UNL    H21   66   0.530  -0.071   0.312
    1UNL    H22   67   0.386  -0.084   0.416
    1UNL    H23   68   0.309  -0.379   0.264
    1UNL    H24   69   0.573   0.109  -0.167
    1UNL    H25   70   0.561  -0.094   0.028
    1UNL    H26   71   0.463  -0.173  -0.185
    1UNL    H27   72   0.679  -0.133  -0.246
    1UNL    H28   73   0.405   0.030  -0.396
    1UNL    H29   74   0.264  -0.128  -0.461
    1UNL    H30   75  -0.498  -0.042   0.076
    1UNL    H31   76  -0.358  -0.183  -0.142
    1UNL    H32   77  -0.464  -0.246  -0.009
    1UNL    H33   78  -0.213  -0.335  -0.020
    1UNL    H34   79  -0.089  -0.323   0.302
    1UNL    H35   80  -0.054  -0.381   0.143
    1UNL    H36   81   0.035  -0.251   0.189
    1UNL    H37   82  -0.294  -0.119   0.298
    1UNL    H38   83  -0.138  -0.043   0.244
    1UNL    H39   84  -0.323   0.102   0.154
    1UNL    H40   85  -0.207   0.045   0.052
   0.00000   0.00000   0.00000   0.00000   0.00000   0.00000   0.00000   0.00000   0.00000
Generated with MDTraj, t= 55.0
 85
    1UNL     C1    1  -0.515   0.139  -0.089
    1UNL     C2    2  -0.433   0.037  -0.101
    1UNL     C3    3  -0.343   0.029  -0.219
    1UNL     O1    4  -0.217  -0.032  -0.202
    1UNL     C4    5  -0.115   0.028  -0.278
    1UNL     O2    6  -0.111   0.174  -0.263
    1UNL     C5    7  -0.102   0.208  -0.123
    1UNL     C6    8  -0.110   0.358  -0.111
    1UNL     O3    9  -0.136   0.416   0.020
    1UNL     C7   10  -0.245   0.369   0.076
    1UNL     O4   11  -0.333   0.308   0.017
    1UNL     C8   12  -0.263   0.396   0.224
    1UNL     C9   13  -0.263   0.274   0.303
    1UNL     O5   14  -0.366   0.207   0.315
    1UNL     O6   15  -0.148   0.225   0.353
    1UNL    C10   16   0.010   0.130  -0.044
    1UNL     O7   17  -0.002   0.156   0.093
    1UNL    C11   18   0.024  -0.022  -0.085
    1UNL     O8   19   0.131  -0.092  -0.017
    1UNL    C12   20   0.019  -0.042  -0.235
    1UNL     O9   21   0.134   0.002  -0.317
    1UNL    C13   22   0.252  -0.001  -0.240
    1UNL    O10   23   0.280   0.109  -0.152
    1UNL    C14   24   0.384   0.063  -0.061
    1UNL    C15   25   0.415   0.172   0.046
    1UNL    O11   26   0.447   0.115   0.167
    1UNL    C16   27   0.340   0.049   0.229
    1UNL    O12   28   0.226   0.055   0.199
    1UNL    C17   29   0.369  -0.057   0.331
    1UNL    C18   30   0.396  -0.193   0.269
    1UNL    O13   31   0.452  -0.210   0.163
    1UNL    O14   32   0.350  -0.295   0.344
    1UNL    C19   33   0.517   0.011  -0.119
    1UNL    O15   34   0.595  -0.053  -0.024
    1UNL    C20   35   0.490  -0.089  -0.237
    1UNL    O16   36   0.605  -0.123  -0.306
    1UNL    C21   37   0.364  -0.043  -0.330
    1UNL    O17   38   0.330  -0.146  -0.419
    1UNL    C22   39  -0.417  -0.062   0.011
    1UNL    C23   40  -0.402  -0.212  -0.037
    1UNL    C24   41  -0.264  -0.274   0.008
    1UNL    C25   42  -0.188  -0.235   0.107
    1UNL    C26   43  -0.050  -0.285   0.138
    1UNL    C27   44  -0.240  -0.120   0.196
    1UNL    C28   45  -0.305  -0.005   0.106
    1UNL     H1   46  -0.572   0.153  -0.003
    1UNL     H2   47  -0.525   0.213  -0.176
    1UNL     H3   48  -0.400  -0.020  -0.296
    1UNL     H4   49  -0.321   0.137  -0.251
    1UNL     H5   50  -0.134   0.000  -0.385
    1UNL     H6   51  -0.196   0.180  -0.077
    1UNL     H7   52  -0.011   0.404  -0.140
    1UNL     H8   53  -0.169   0.407  -0.188
    1UNL     H9   54  -0.182   0.462   0.251
    1UNL    H10   55  -0.356   0.438   0.261
    1UNL    H11   56  -0.169   0.141   0.396
    1UNL    H12   57   0.103   0.175  -0.069
    1UNL    H13   58   0.082   0.127   0.135
    1UNL    H14   59  -0.065  -0.079  -0.051
    1UNL    H15   60   0.160  -0.045   0.066
    1UNL    H16   61   0.003  -0.147  -0.260
    1UNL    H17   62   0.232  -0.081  -0.169
    1UNL    H18   63   0.337  -0.024  -0.016
    1UNL    H19   64   0.328   0.233   0.071
    1UNL    H20   65   0.493   0.235   0.012
    1UNL    H21   66   0.473  -0.030   0.370
    1UNL    H22   67   0.296  -0.068   0.410
    1UNL    H23   68   0.365  -0.382   0.301
    1UNL    H24   69   0.587   0.092  -0.136
    1UNL    H25   70   0.538  -0.110   0.042
    1UNL    H26   71   0.456  -0.179  -0.191
    1UNL    H27   72   0.664  -0.163  -0.240
    1UNL    H28   73   0.393   0.042  -0.389
    1UNL    H29   74   0.239  -0.120  -0.457
    1UNL    H30   75  -0.518  -0.057   0.062
    1UNL    H31   76  -0.404  -0.215  -0.146
    1UNL    H32   77  -0.478  -0.271   0.005
    1UNL    H33   78  -0.223  -0.356  -0.061
    1UNL    H34   79  -0.047  -0.340   0.238
    1UNL    H35   80  -0.019  -0.351   0.064
    1UNL    H36   81   0.030  -0.207   0.138
    1UNL    H37   82  -0.329  -0.157   0.259
    1UNL    H38   83  -0.166  -0.081   0.265
    1UNL    H39   84  -0.340   0.074   0.165
    1UNL    H40   85  -0.229   0.035   0.042
   0.00000   0.00000   0.00000   0.00000   0.00000   0.00000   0.00000   0.00000   0.00000
Generated with MDTraj, t= 56.0
 85
    1UNL     C1    1  -0.573   0.098  -0.098
    1UNL     C2    2  -0.461   0.025  -0.104
    1UNL     C3    3  -0.363   0.053  -0.220
    1UNL     O1    4  -0.237  -0.022  -0.213
    1UNL     C4    5  -0.125   0.031  -0.282
    1UNL     O2    6  -0.121   0.173  -0.267
    1UNL     C5    7  -0.118   0.204  -0.130
    1UNL     C6    8  -0.104   0.358  -0.113
    1UNL     O3    9  -0.096   0.390   0.021
    1UNL     C7   10  -0.220   0.360   0.079
    1UNL     O4   11  -0.308   0.321   0.004
    1UNL     C8   12  -0.242   0.404   0.217
    1UNL     C9   13  -0.235   0.282   0.307
    1UNL     O5   14  -0.338   0.218   0.328
    1UNL     O6   15  -0.121   0.259   0.370
    1UNL    C10   16   0.008   0.139  -0.057
    1UNL     O7   17  -0.009   0.168   0.086
    1UNL    C11   18   0.006  -0.009  -0.084
    1UNL     O8   19   0.104  -0.078  -0.009
    1UNL    C12   20   0.001  -0.036  -0.230
    1UNL     O9   21   0.123   0.012  -0.305
    1UNL    C13   22   0.243  -0.017  -0.237
    1UNL    O10   23   0.277   0.081  -0.141
    1UNL    C14   24   0.387   0.044  -0.052
    1UNL    C15   25   0.419   0.154   0.059
    1UNL    O11   26   0.448   0.096   0.182
    1UNL    C16   27   0.340   0.047   0.254
    1UNL    O12   28   0.225   0.063   0.230
    1UNL    C17   29   0.383  -0.043   0.360
    1UNL    C18   30   0.425  -0.171   0.297
    1UNL    O13   31   0.484  -0.171   0.192
    1UNL    O14   32   0.371  -0.280   0.356
    1UNL    C19   33   0.516  -0.000  -0.127
    1UNL    O15   34   0.614  -0.054  -0.043
    1UNL    C20   35   0.483  -0.100  -0.248
    1UNL    O16   36   0.599  -0.127  -0.320
    1UNL    C21   37   0.364  -0.039  -0.330
    1UNL    O17   38   0.326  -0.133  -0.420
    1UNL    C22   39  -0.432  -0.090  -0.001
    1UNL    C23   40  -0.386  -0.223  -0.076
    1UNL    C24   41  -0.242  -0.258  -0.041
    1UNL    C25   42  -0.194  -0.236   0.079
    1UNL    C26   43  -0.056  -0.297   0.124
    1UNL    C27   44  -0.270  -0.149   0.178
    1UNL    C28   45  -0.344  -0.032   0.113
    1UNL     H1   46  -0.646   0.071  -0.028
    1UNL     H2   47  -0.596   0.186  -0.158
    1UNL     H3   48  -0.402   0.023  -0.317
    1UNL     H4   49  -0.344   0.166  -0.227
    1UNL     H5   50  -0.131  -0.001  -0.388
    1UNL     H6   51  -0.210   0.176  -0.082
    1UNL     H7   52  -0.004   0.385  -0.162
    1UNL     H8   53  -0.173   0.429  -0.163
    1UNL     H9   54  -0.176   0.484   0.248
    1UNL    H10   55  -0.340   0.445   0.203
    1UNL    H11   56  -0.126   0.189   0.437
    1UNL    H12   57   0.099   0.181  -0.085
    1UNL    H13   58   0.073   0.153   0.139
    1UNL    H14   59  -0.086  -0.048  -0.034
    1UNL    H15   60   0.129  -0.039   0.075
    1UNL    H16   61  -0.014  -0.141  -0.243
    1UNL    H17   62   0.226  -0.108  -0.180
    1UNL    H18   63   0.342  -0.041   0.000
    1UNL    H19   64   0.319   0.202   0.065
    1UNL    H20   65   0.496   0.228   0.046
    1UNL    H21   66   0.479  -0.002   0.412
    1UNL    H22   67   0.301  -0.059   0.426
    1UNL    H23   68   0.397  -0.363   0.315
    1UNL    H24   69   0.556   0.094  -0.164
    1UNL    H25   70   0.575  -0.086   0.038
    1UNL    H26   71   0.447  -0.198  -0.229
    1UNL    H27   72   0.672  -0.154  -0.255
    1UNL    H28   73   0.392   0.052  -0.380
    1UNL    H29   74   0.242  -0.099  -0.462
    1UNL    H30   75  -0.527  -0.124   0.051
    1UNL    H31   76  -0.394  -0.200  -0.176
    1UNL    H32   77  -0.447  -0.305  -0.049
    1UNL    H33   78  -0.193  -0.328  -0.099
    1UNL    H34   79  -0.083  -0.386   0.177
    1UNL    H35   80   0.003  -0.317   0.032
    1UNL    H36   81  -0.003  -0.228   0.190
    1UNL    H37   82  -0.351  -0.214   0.225
    1UNL    H38   83  -0.208  -0.112   0.260
    1UNL    H39   84  -0.404   0.020   0.181
    1UNL    H40   85  -0.271   0.037   0.069
   0.00000   0.00000   0.00000   0.00000   0.00000   0.00000   0.00000   0.00000   0.00000
Generated with MDTraj, t= 57.0
 85
    1UNL     C1    1  -0.577   0.083  -0.126
    1UNL     C2    2  -0.467   0.014  -0.146
    1UNL     C3    3  -0.361   0.058  -0.240
    1UNL     O1    4  -0.242  -0.011  -0.205
    1UNL     C4    5  -0.127   0.032  -0.270
    1UNL     O2    6  -0.109   0.177  -0.247
    1UNL     C5    7  -0.108   0.214  -0.110
    1UNL     C6    8  -0.098   0.367  -0.111
    1UNL     O3    9  -0.118   0.427   0.011
    1UNL     C7   10  -0.224   0.377   0.074
    1UNL     O4   11  -0.307   0.313   0.020
    1UNL     C8   12  -0.236   0.412   0.221
    1UNL     C9   13  -0.204   0.291   0.293
    1UNL     O5   14  -0.277   0.193   0.291
    1UNL     O6   15  -0.105   0.292   0.387
    1UNL    C10   16   0.014   0.145  -0.037
    1UNL     O7   17   0.014   0.181   0.106
    1UNL    C11   18  -0.003  -0.007  -0.064
    1UNL     O8   19   0.094  -0.087   0.007
    1UNL    C12   20  -0.010  -0.047  -0.215
    1UNL     O9   21   0.108  -0.004  -0.294
    1UNL    C13   22   0.223  -0.019  -0.218
    1UNL    O10   23   0.264   0.088  -0.121
    1UNL    C14   24   0.369   0.043  -0.041
    1UNL    C15   25   0.408   0.163   0.054
    1UNL    O11   26   0.456   0.117   0.172
    1UNL    C16   27   0.361   0.045   0.230
    1UNL    O12   28   0.245   0.037   0.199
    1UNL    C17   29   0.400  -0.043   0.348
    1UNL    C18   30   0.448  -0.180   0.309
    1UNL    O13   31   0.510  -0.196   0.206
    1UNL    O14   32   0.405  -0.284   0.381
    1UNL    C19   33   0.497   0.012  -0.125
    1UNL    O15   34   0.595  -0.045  -0.039
    1UNL    C20   35   0.470  -0.098  -0.237
    1UNL    O16   36   0.582  -0.095  -0.328
    1UNL    C21   37   0.342  -0.048  -0.315
    1UNL    O17   38   0.295  -0.152  -0.406
    1UNL    C22   39  -0.440  -0.099  -0.045
    1UNL    C23   40  -0.370  -0.226  -0.120
    1UNL    C24   41  -0.243  -0.279  -0.045
    1UNL    C25   42  -0.207  -0.245   0.077
    1UNL    C26   43  -0.084  -0.306   0.142
    1UNL    C27   44  -0.288  -0.155   0.165
    1UNL    C28   45  -0.357  -0.044   0.080
    1UNL     H1   46  -0.640   0.051  -0.040
    1UNL     H2   47  -0.607   0.169  -0.175
    1UNL     H3   48  -0.390   0.034  -0.343
    1UNL     H4   49  -0.337   0.170  -0.227
    1UNL     H5   50  -0.137   0.006  -0.376
    1UNL     H6   51  -0.206   0.187  -0.077
    1UNL     H7   52  -0.008   0.414  -0.164
    1UNL     H8   53  -0.176   0.402  -0.185
    1UNL     H9   54  -0.159   0.486   0.244
    1UNL    H10   55  -0.331   0.449   0.251
    1UNL    H11   56  -0.114   0.207   0.435
    1UNL    H12   57   0.104   0.181  -0.077
    1UNL    H13   58   0.086   0.133   0.151
    1UNL    H14   59  -0.095  -0.046  -0.013
    1UNL    H15   60   0.139  -0.034   0.082
    1UNL    H16   61  -0.031  -0.150  -0.212
    1UNL    H17   62   0.203  -0.112  -0.164
    1UNL    H18   63   0.344  -0.044   0.021
    1UNL    H19   64   0.322   0.230   0.082
    1UNL    H20   65   0.483   0.223   0.003
    1UNL    H21   66   0.479   0.008   0.411
    1UNL    H22   67   0.309  -0.061   0.410
    1UNL    H23   68   0.435  -0.365   0.340
    1UNL    H24   69   0.535   0.106  -0.167
    1UNL    H25   70   0.559  -0.102   0.030
    1UNL    H26   71   0.472  -0.196  -0.196
    1UNL    H27   72   0.668  -0.107  -0.275
    1UNL    H28   73   0.365   0.047  -0.363
    1UNL    H29   74   0.215  -0.126  -0.453
    1UNL    H30   75  -0.533  -0.139   0.004
    1UNL    H31   76  -0.349  -0.200  -0.217
    1UNL    H32   77  -0.440  -0.304  -0.121
    1UNL    H33   78  -0.186  -0.361  -0.093
    1UNL    H34   79  -0.109  -0.407   0.147
    1UNL    H35   80   0.012  -0.286   0.077
    1UNL    H36   81  -0.064  -0.273   0.241
    1UNL    H37   82  -0.372  -0.219   0.208
    1UNL    H38   83  -0.229  -0.113   0.247
    1UNL    H39   84  -0.411   0.022   0.140
    1UNL    H40   85  -0.279   0.014   0.029
   0.00000   0.00000   0.00000   0.00000   0.00000   0.00000   0.00000   0.00000   0.00000
Generated with MDTraj, t= 58.0
 85
    1UNL     C1    1  -0.610   0.057  -0.174
    1UNL     C2    2  -0.486   0.011  -0.156
    1UNL     C3    3  -0.369   0.057  -0.242
    1UNL     O1    4  -0.246  -0.007  -0.204
    1UNL     C4    5  -0.133   0.039  -0.268
    1UNL     O2    6  -0.115   0.183  -0.252
    1UNL     C5    7  -0.102   0.220  -0.117
    1UNL     C6    8  -0.094   0.371  -0.092
    1UNL     O3    9  -0.122   0.411   0.035
    1UNL     C7   10  -0.246   0.384   0.080
    1UNL     O4   11  -0.330   0.355   0.002
    1UNL     C8   12  -0.268   0.374   0.236
    1UNL     C9   13  -0.186   0.267   0.310
    1UNL     O5   14  -0.197   0.153   0.274
    1UNL     O6   15  -0.102   0.311   0.403
    1UNL    C10   16   0.020   0.149  -0.054
    1UNL     O7   17   0.050   0.195   0.079
    1UNL    C11   18   0.003  -0.002  -0.071
    1UNL     O8   19   0.096  -0.081  -0.000
    1UNL    C12   20  -0.002  -0.033  -0.218
    1UNL     O9   21   0.116   0.009  -0.291
    1UNL    C13   22   0.233  -0.015  -0.225
    1UNL    O10   23   0.280   0.100  -0.147
    1UNL    C14   24   0.377   0.056  -0.050
    1UNL    C15   25   0.397   0.170   0.058
    1UNL    O11   26   0.453   0.121   0.180
    1UNL    C16   27   0.365   0.041   0.254
    1UNL    O12   28   0.245   0.051   0.235
    1UNL    C17   29   0.436  -0.044   0.353
    1UNL    C18   30   0.463  -0.184   0.296
    1UNL    O13   31   0.487  -0.195   0.175
    1UNL    O14   32   0.466  -0.286   0.386
    1UNL    C19   33   0.511   0.016  -0.124
    1UNL    O15   34   0.618  -0.028  -0.034
    1UNL    C20   35   0.483  -0.099  -0.231
    1UNL    O16   36   0.587  -0.100  -0.328
    1UNL    C21   37   0.357  -0.064  -0.313
    1UNL    O17   38   0.308  -0.192  -0.371
    1UNL    C22   39  -0.457  -0.093  -0.048
    1UNL    C23   40  -0.399  -0.227  -0.109
    1UNL    C24   41  -0.288  -0.296  -0.033
    1UNL    C25   42  -0.252  -0.259   0.087
    1UNL    C26   43  -0.140  -0.327   0.155
    1UNL    C27   44  -0.321  -0.137   0.162
    1UNL    C28   45  -0.385  -0.030   0.066
    1UNL     H1   46  -0.695   0.028  -0.105
    1UNL     H2   47  -0.640   0.122  -0.249
    1UNL     H3   48  -0.386   0.031  -0.348
    1UNL     H4   49  -0.361   0.171  -0.224
    1UNL     H5   50  -0.141   0.018  -0.373
    1UNL     H6   51  -0.199   0.191  -0.082
    1UNL     H7   52   0.008   0.410  -0.115
    1UNL     H8   53  -0.153   0.430  -0.165
    1UNL     H9   54  -0.240   0.465   0.289
    1UNL    H10   55  -0.373   0.358   0.251
    1UNL    H11   56  -0.063   0.227   0.436
    1UNL    H12   57   0.103   0.176  -0.113
    1UNL    H13   58   0.123   0.149   0.132
    1UNL    H14   59  -0.095  -0.037  -0.033
    1UNL    H15   60   0.134  -0.035   0.076
    1UNL    H16   61  -0.018  -0.137  -0.229
    1UNL    H17   62   0.206  -0.106  -0.168
    1UNL    H18   63   0.340  -0.034   0.004
    1UNL    H19   64   0.297   0.217   0.083
    1UNL    H20   65   0.461   0.251   0.019
    1UNL    H21   66   0.527   0.014   0.373
    1UNL    H22   67   0.376  -0.049   0.453
    1UNL    H23   68   0.478  -0.365   0.329
    1UNL    H24   69   0.535   0.105  -0.187
    1UNL    H25   70   0.572  -0.082   0.044
    1UNL    H26   71   0.482  -0.200  -0.193
    1UNL    H27   72   0.677  -0.102  -0.286
    1UNL    H28   73   0.370   0.011  -0.393
    1UNL    H29   74   0.232  -0.181  -0.437
    1UNL    H30   75  -0.559  -0.117  -0.007
    1UNL    H31   76  -0.354  -0.206  -0.202
    1UNL    H32   77  -0.474  -0.296  -0.125
    1UNL    H33   78  -0.241  -0.380  -0.083
    1UNL    H34   79  -0.173  -0.425   0.176
    1UNL    H35   80  -0.036  -0.327   0.112
    1UNL    H36   81  -0.124  -0.294   0.256
    1UNL    H37   82  -0.396  -0.177   0.235
    1UNL    H38   83  -0.239  -0.087   0.214
    1UNL    H39   84  -0.449   0.040   0.110
    1UNL    H40   85  -0.308   0.034   0.017
   0.00000   0.00000   0.00000   0.00000   0.00000   0.00000   0.00000   0.00000   0.00000
Generated with MDTraj, t= 59.0
 85
    1UNL     C1    1  -0.595   0.033  -0.240
    1UNL     C2    2  -0.477   0.016  -0.180
    1UNL     C3    3  -0.352   0.080  -0.229
    1UNL     O1    4  -0.245  -0.004  -0.204
    1UNL     C4    5  -0.128   0.044  -0.259
    1UNL     O2    6  -0.105   0.188  -0.239
    1UNL     C5    7  -0.095   0.225  -0.105
    1UNL     C6    8  -0.099   0.374  -0.071
    1UNL     O3    9  -0.133   0.401   0.063
    1UNL     C7   10  -0.269   0.355   0.091
    1UNL     O4   11  -0.352   0.329   0.008
    1UNL     C8   12  -0.296   0.332   0.230
    1UNL     C9   13  -0.181   0.244   0.291
    1UNL     O5   14  -0.177   0.131   0.250
    1UNL     O6   15  -0.098   0.292   0.390
    1UNL    C10   16   0.026   0.159  -0.042
    1UNL     O7   17   0.054   0.209   0.092
    1UNL    C11   18   0.012   0.003  -0.053
    1UNL     O8   19   0.110  -0.070   0.017
    1UNL    C12   20  -0.000  -0.039  -0.200
    1UNL     O9   21   0.120  -0.013  -0.282
    1UNL    C13   22   0.238  -0.024  -0.215
    1UNL    O10   23   0.282   0.097  -0.145
    1UNL    C14   24   0.386   0.060  -0.048
    1UNL    C15   25   0.417   0.176   0.047
    1UNL    O11   26   0.469   0.118   0.168
    1UNL    C16   27   0.372   0.049   0.228
    1UNL    O12   28   0.253   0.049   0.202
    1UNL    C17   29   0.423  -0.044   0.335
    1UNL    C18   30   0.469  -0.171   0.273
    1UNL    O13   31   0.483  -0.179   0.154
    1UNL    O14   32   0.522  -0.269   0.349
    1UNL    C19   33   0.509   0.010  -0.123
    1UNL    O15   34   0.625  -0.012  -0.036
    1UNL    C20   35   0.477  -0.108  -0.221
    1UNL    O16   36   0.596  -0.123  -0.290
    1UNL    C21   37   0.362  -0.072  -0.309
    1UNL    O17   38   0.321  -0.190  -0.378
    1UNL    C22   39  -0.469  -0.067  -0.058
    1UNL    C23   40  -0.443  -0.218  -0.095
    1UNL    C24   41  -0.342  -0.287  -0.005
    1UNL    C25   42  -0.297  -0.244   0.111
    1UNL    C26   43  -0.183  -0.307   0.185
    1UNL    C27   44  -0.346  -0.111   0.165
    1UNL    C28   45  -0.371  -0.017   0.048
    1UNL     H1   46  -0.682  -0.018  -0.213
    1UNL     H2   47  -0.609   0.105  -0.320
    1UNL     H3   48  -0.362   0.095  -0.339
    1UNL     H4   49  -0.328   0.176  -0.169
    1UNL     H5   50  -0.132   0.033  -0.365
    1UNL     H6   51  -0.180   0.190  -0.052
    1UNL     H7   52  -0.009   0.426  -0.101
    1UNL     H8   53  -0.174   0.432  -0.123
    1UNL     H9   54  -0.312   0.426   0.280
    1UNL    H10   55  -0.385   0.271   0.238
    1UNL    H11   56  -0.045   0.214   0.417
    1UNL    H12   57   0.114   0.190  -0.091
    1UNL    H13   58   0.115   0.155   0.145
    1UNL    H14   59  -0.079  -0.022   0.003
    1UNL    H15   60   0.155  -0.014   0.088
    1UNL    H16   61  -0.022  -0.145  -0.205
    1UNL    H17   62   0.218  -0.110  -0.149
    1UNL    H18   63   0.346  -0.024   0.013
    1UNL    H19   64   0.315   0.222   0.069
    1UNL    H20   65   0.483   0.258   0.012
    1UNL    H21   66   0.507  -0.006   0.393
    1UNL    H22   67   0.331  -0.068   0.405
    1UNL    H23   68   0.554  -0.339   0.286
    1UNL    H24   69   0.536   0.102  -0.182
    1UNL    H25   70   0.602  -0.072   0.035
    1UNL    H26   71   0.466  -0.201  -0.164
    1UNL    H27   72   0.668  -0.098  -0.232
    1UNL    H28   73   0.394   0.014  -0.374
    1UNL    H29   74   0.247  -0.178  -0.443
    1UNL    H30   75  -0.571  -0.059  -0.011
    1UNL    H31   76  -0.408  -0.226  -0.197
    1UNL    H32   77  -0.528  -0.275  -0.093
    1UNL    H33   78  -0.301  -0.375  -0.045
    1UNL    H34   79  -0.201  -0.416   0.179
    1UNL    H35   80  -0.088  -0.277   0.166
    1UNL    H36   81  -0.199  -0.289   0.291
    1UNL    H37   82  -0.442  -0.138   0.215
    1UNL    H38   83  -0.276  -0.065   0.237
    1UNL    H39   84  -0.386   0.085   0.075
    1UNL    H40   85  -0.277  -0.015  -0.008
   0.00000   0.00000   0.00000   0.00000   0.00000   0.00000   0.00000   0.00000   0.00000
Generated with MDTraj, t= 60.0
 85
    1UNL     C1    1  -0.579   0.030  -0.282
    1UNL     C2    2  -0.475   0.026  -0.199
    1UNL     C3    3  -0.340   0.073  -0.248
    1UNL     O1    4  -0.235  -0.003  -0.203
    1UNL     C4    5  -0.113   0.046  -0.256
    1UNL     O2    6  -0.087   0.188  -0.240
    1UNL     C5    7  -0.092   0.222  -0.102
    1UNL     C6    8  -0.113   0.366  -0.079
    1UNL     O3    9  -0.165   0.405   0.053
    1UNL     C7   10  -0.271   0.329   0.088
    1UNL     O4   11  -0.337   0.262   0.010
    1UNL     C8   12  -0.295   0.322   0.245
    1UNL     C9   13  -0.197   0.214   0.291
    1UNL     O5   14  -0.218   0.100   0.260
    1UNL     O6   15  -0.093   0.249   0.372
    1UNL    C10   16   0.037   0.167  -0.035
    1UNL     O7   17   0.046   0.203   0.104
    1UNL    C11   18   0.024   0.008  -0.040
    1UNL     O8   19   0.124  -0.063   0.028
    1UNL    C12   20   0.012  -0.031  -0.185
    1UNL     O9   21   0.122  -0.009  -0.271
    1UNL    C13   22   0.243  -0.022  -0.204
    1UNL    O10   23   0.289   0.093  -0.136
    1UNL    C14   24   0.400   0.053  -0.044
    1UNL    C15   25   0.422   0.172   0.051
    1UNL    O11   26   0.483   0.134   0.174
    1UNL    C16   27   0.389   0.059   0.239
    1UNL    O12   28   0.267   0.064   0.228
    1UNL    C17   29   0.450  -0.042   0.331
    1UNL    C18   30   0.505  -0.162   0.253
    1UNL    O13   31   0.491  -0.163   0.135
    1UNL    O14   32   0.564  -0.257   0.329
    1UNL    C19   33   0.524   0.017  -0.129
    1UNL    O15   34   0.645  -0.021  -0.071
    1UNL    C20   35   0.481  -0.106  -0.212
    1UNL    O16   36   0.584  -0.149  -0.298
    1UNL    C21   37   0.359  -0.073  -0.298
    1UNL    O17   38   0.307  -0.178  -0.381
    1UNL    C22   39  -0.488  -0.049  -0.068
    1UNL    C23   40  -0.461  -0.201  -0.090
    1UNL    C24   41  -0.370  -0.270   0.008
    1UNL    C25   42  -0.345  -0.220   0.128
    1UNL    C26   43  -0.241  -0.285   0.217
    1UNL    C27   44  -0.389  -0.083   0.165
    1UNL    C28   45  -0.403   0.004   0.047
    1UNL     H1   46  -0.671  -0.015  -0.263
    1UNL     H2   47  -0.569   0.079  -0.386
    1UNL     H3   48  -0.326   0.062  -0.357
    1UNL     H4   49  -0.324   0.181  -0.210
    1UNL     H5   50  -0.111   0.034  -0.363
    1UNL     H6   51  -0.180   0.177  -0.063
    1UNL     H7   52  -0.025   0.421  -0.103
    1UNL     H8   53  -0.180   0.402  -0.155
    1UNL     H9   54  -0.280   0.412   0.302
    1UNL    H10   55  -0.395   0.286   0.274
    1UNL    H11   56  -0.023   0.182   0.363
    1UNL    H12   57   0.121   0.206  -0.085
    1UNL    H13   58   0.123   0.157   0.151
    1UNL    H14   59  -0.070  -0.018   0.007
    1UNL    H15   60   0.172  -0.017   0.099
    1UNL    H16   61  -0.014  -0.139  -0.185
    1UNL    H17   62   0.227  -0.103  -0.131
    1UNL    H18   63   0.364  -0.039   0.006
    1UNL    H19   64   0.329   0.231   0.078
    1UNL    H20   65   0.489   0.241   0.000
    1UNL    H21   66   0.536   0.005   0.382
    1UNL    H22   67   0.375  -0.079   0.410
    1UNL    H23   68   0.591  -0.341   0.285
    1UNL    H24   69   0.543   0.099  -0.202
    1UNL    H25   70   0.618  -0.057   0.022
    1UNL    H26   71   0.454  -0.197  -0.150
    1UNL    H27   72   0.678  -0.140  -0.272
    1UNL    H28   73   0.385   0.014  -0.364
    1UNL    H29   74   0.222  -0.155  -0.417
    1UNL    H30   75  -0.592  -0.039  -0.028
    1UNL    H31   76  -0.413  -0.204  -0.189
    1UNL    H32   77  -0.550  -0.251  -0.110
    1UNL    H33   78  -0.323  -0.369  -0.021
    1UNL    H34   79  -0.244  -0.390   0.183
    1UNL    H35   80  -0.151  -0.236   0.216
    1UNL    H36   81  -0.282  -0.278   0.316
    1UNL    H37   82  -0.493  -0.084   0.202
    1UNL    H38   83  -0.317  -0.041   0.242
    1UNL    H39   84  -0.449   0.097   0.083
    1UNL    H40   85  -0.307   0.031   0.012
   0.00000   0.00000   0.00000   0.00000   0.00000   0.00000   0.00000   0.00000   0.00000
Generated with MDTraj, t= 61.0
 85
    1UNL     C1    1  -0.584   0.057  -0.300
    1UNL     C2    2  -0.488   0.014  -0.216
    1UNL     C3    3  -0.350   0.071  -0.240
    1UNL     O1    4  -0.240  -0.008  -0.194
    1UNL     C4    5  -0.121   0.030  -0.248
    1UNL     O2    6  -0.104   0.172  -0.244
    1UNL     C5    7  -0.086   0.218  -0.105
    1UNL     C6    8  -0.119   0.367  -0.085
    1UNL     O3    9  -0.137   0.401   0.051
    1UNL     C7   10  -0.253   0.339   0.094
    1UNL     O4   11  -0.335   0.284   0.017
    1UNL     C8   12  -0.272   0.320   0.239
    1UNL     C9   13  -0.203   0.205   0.309
    1UNL     O5   14  -0.241   0.091   0.288
    1UNL     O6   15  -0.091   0.229   0.388
    1UNL    C10   16   0.041   0.158  -0.035
    1UNL     O7   17   0.058   0.203   0.099
    1UNL    C11   18   0.019  -0.006  -0.038
    1UNL     O8   19   0.120  -0.064   0.041
    1UNL    C12   20   0.004  -0.040  -0.189
    1UNL     O9   21   0.117  -0.000  -0.267
    1UNL    C13   22   0.248  -0.014  -0.201
    1UNL    O10   23   0.303   0.102  -0.135
    1UNL    C14   24   0.422   0.068  -0.054
    1UNL    C15   25   0.451   0.177   0.045
    1UNL    O11   26   0.521   0.124   0.155
    1UNL    C16   27   0.424   0.069   0.245
    1UNL    O12   28   0.305   0.096   0.234
    1UNL    C17   29   0.468  -0.038   0.334
    1UNL    C18   30   0.526  -0.156   0.259
    1UNL    O13   31   0.512  -0.181   0.141
    1UNL    O14   32   0.600  -0.245   0.335
    1UNL    C19   33   0.536   0.015  -0.132
    1UNL    O15   34   0.651  -0.020  -0.063
    1UNL    C20   35   0.489  -0.107  -0.225
    1UNL    O16   36   0.584  -0.119  -0.328
    1UNL    C21   37   0.360  -0.070  -0.298
    1UNL    O17   38   0.309  -0.183  -0.358
    1UNL    C22   39  -0.513  -0.078  -0.103
    1UNL    C23   40  -0.444  -0.217  -0.115
    1UNL    C24   41  -0.379  -0.266   0.010
    1UNL    C25   42  -0.399  -0.219   0.131
    1UNL    C26   43  -0.317  -0.259   0.245
    1UNL    C27   44  -0.481  -0.102   0.150
    1UNL    C28   45  -0.473  -0.006   0.029
    1UNL     H1   46  -0.685   0.032  -0.290
    1UNL     H2   47  -0.563   0.117  -0.385
    1UNL     H3   48  -0.341   0.085  -0.347
    1UNL     H4   49  -0.332   0.167  -0.183
    1UNL     H5   50  -0.118   0.013  -0.355
    1UNL     H6   51  -0.170   0.171  -0.060
    1UNL     H7   52  -0.032   0.426  -0.105
    1UNL     H8   53  -0.194   0.406  -0.153
    1UNL     H9   54  -0.244   0.411   0.289
    1UNL    H10   55  -0.383   0.315   0.239
    1UNL    H11   56  -0.058   0.143   0.420
    1UNL    H12   57   0.125   0.181  -0.094
    1UNL    H13   58   0.143   0.171   0.141
    1UNL    H14   59  -0.071  -0.032   0.014
    1UNL    H15   60   0.174  -0.003   0.101
    1UNL    H16   61  -0.003  -0.152  -0.197
    1UNL    H17   62   0.234  -0.094  -0.125
    1UNL    H18   63   0.383  -0.023  -0.006
    1UNL    H19   64   0.364   0.233   0.083
    1UNL    H20   65   0.521   0.246   0.004
    1UNL    H21   66   0.545   0.013   0.400
    1UNL    H22   67   0.388  -0.079   0.396
    1UNL    H23   68   0.639  -0.317   0.282
    1UNL    H24   69   0.580   0.092  -0.199
    1UNL    H25   70   0.616  -0.079   0.002
    1UNL    H26   71   0.477  -0.194  -0.150
    1UNL    H27   72   0.676  -0.130  -0.289
    1UNL    H28   73   0.387   0.004  -0.378
    1UNL    H29   74   0.215  -0.171  -0.392
    1UNL    H30   75  -0.624  -0.094  -0.096
    1UNL    H31   76  -0.370  -0.202  -0.194
    1UNL    H32   77  -0.512  -0.289  -0.158
    1UNL    H33   78  -0.304  -0.336   0.000
    1UNL    H34   79  -0.306  -0.365   0.242
    1UNL    H35   80  -0.221  -0.206   0.258
    1UNL    H36   81  -0.370  -0.238   0.331
    1UNL    H37   82  -0.585  -0.133   0.166
    1UNL    H38   83  -0.444  -0.038   0.240
    1UNL    H39   84  -0.520   0.091   0.052
    1UNL    H40   85  -0.369   0.018   0.018
   0.00000   0.00000   0.00000   0.00000   0.00000   0.00000   0.00000   0.00000   0.00000
Generated with MDTraj, t= 62.0
 85
    1UNL     C1    1  -0.572   0.061  -0.319
    1UNL     C2    2  -0.475   0.014  -0.239
    1UNL     C3    3  -0.336   0.061  -0.262
    1UNL     O1    4  -0.233  -0.016  -0.199
    1UNL     C4    5  -0.109   0.030  -0.239
    1UNL     O2    6  -0.098   0.179  -0.218
    1UNL     C5    7  -0.091   0.211  -0.073
    1UNL     C6    8  -0.112   0.362  -0.064
    1UNL     O3    9  -0.131   0.395   0.073
    1UNL     C7   10  -0.243   0.339   0.116
    1UNL     O4   11  -0.326   0.286   0.039
    1UNL     C8   12  -0.272   0.330   0.263
    1UNL     C9   13  -0.222   0.202   0.313
    1UNL     O5   14  -0.285   0.104   0.273
    1UNL     O6   15  -0.115   0.196   0.389
    1UNL    C10   16   0.043   0.157  -0.025
    1UNL     O7   17   0.081   0.198   0.107
    1UNL    C11   18   0.036  -0.002  -0.028
    1UNL     O8   19   0.127  -0.083   0.037
    1UNL    C12   20   0.016  -0.046  -0.175
    1UNL     O9   21   0.121  -0.013  -0.263
    1UNL    C13   22   0.249  -0.022  -0.200
    1UNL    O10   23   0.302   0.089  -0.137
    1UNL    C14   24   0.422   0.060  -0.059
    1UNL    C15   25   0.459   0.186   0.023
    1UNL    O11   26   0.513   0.139   0.150
    1UNL    C16   27   0.424   0.067   0.212
    1UNL    O12   28   0.309   0.050   0.179
    1UNL    C17   29   0.471  -0.031   0.331
    1UNL    C18   30   0.550  -0.141   0.270
    1UNL    O13   31   0.535  -0.164   0.153
    1UNL    O14   32   0.616  -0.209   0.362
    1UNL    C19   33   0.538   0.012  -0.144
    1UNL    O15   34   0.658  -0.025  -0.077
    1UNL    C20   35   0.489  -0.097  -0.247
    1UNL    O16   36   0.589  -0.105  -0.351
    1UNL    C21   37   0.350  -0.079  -0.304
    1UNL    O17   38   0.306  -0.188  -0.366
    1UNL    C22   39  -0.501  -0.083  -0.118
    1UNL    C23   40  -0.409  -0.201  -0.110
    1UNL    C24   41  -0.371  -0.246   0.030
    1UNL    C25   42  -0.428  -0.206   0.145
    1UNL    C26   43  -0.391  -0.253   0.273
    1UNL    C27   44  -0.533  -0.093   0.141
    1UNL    C28   45  -0.510  -0.000   0.012
    1UNL     H1   46  -0.681   0.030  -0.304
    1UNL     H2   47  -0.547   0.126  -0.398
    1UNL     H3   48  -0.319   0.049  -0.367
    1UNL     H4   49  -0.330   0.167  -0.227
    1UNL     H5   50  -0.102   0.004  -0.347
    1UNL     H6   51  -0.170   0.159  -0.025
    1UNL     H7   52  -0.031   0.414  -0.113
    1UNL     H8   53  -0.201   0.404  -0.116
    1UNL     H9   54  -0.221   0.418   0.296
    1UNL    H10   55  -0.377   0.338   0.293
    1UNL    H11   56  -0.090   0.102   0.395
    1UNL    H12   57   0.118   0.182  -0.095
    1UNL    H13   58   0.158   0.143   0.125
    1UNL    H14   59  -0.052  -0.023   0.031
    1UNL    H15   60   0.187  -0.036   0.096
    1UNL    H16   61  -0.008  -0.157  -0.175
    1UNL    H17   62   0.242  -0.102  -0.123
    1UNL    H18   63   0.385  -0.022   0.002
    1UNL    H19   64   0.373   0.246   0.049
    1UNL    H20   65   0.537   0.245  -0.020
    1UNL    H21   66   0.542   0.013   0.410
    1UNL    H22   67   0.390  -0.068   0.387
    1UNL    H23   68   0.659  -0.280   0.311
    1UNL    H24   69   0.569   0.091  -0.215
    1UNL    H25   70   0.641  -0.067   0.013
    1UNL    H26   71   0.477  -0.199  -0.195
    1UNL    H27   72   0.683  -0.113  -0.318
    1UNL    H28   73   0.365  -0.011  -0.391
    1UNL    H29   74   0.213  -0.175  -0.398
    1UNL    H30   75  -0.605  -0.122  -0.135
    1UNL    H31   76  -0.318  -0.181  -0.168
    1UNL    H32   77  -0.455  -0.289  -0.163
    1UNL    H33   78  -0.279  -0.310   0.033
    1UNL    H34   79  -0.366  -0.350   0.277
    1UNL    H35   80  -0.311  -0.196   0.327
    1UNL    H36   81  -0.472  -0.243   0.336
    1UNL    H37   82  -0.636  -0.128   0.132
    1UNL    H38   83  -0.523  -0.031   0.239
    1UNL    H39   84  -0.584   0.081   0.002
    1UNL    H40   85  -0.421   0.055   0.029
   0.00000   0.00000   0.00000   0.00000   0.00000   0.00000   0.00000   0.00000   0.00000
Generated with MDTraj, t= 63.0
 85
    1UNL     C1    1  -0.568   0.029  -0.324
    1UNL     C2    2  -0.466   0.011  -0.239
    1UNL     C3    3  -0.337   0.081  -0.269
    1UNL     O1    4  -0.224   0.005  -0.214
    1UNL     C4    5  -0.101   0.052  -0.248
    1UNL     O2    6  -0.081   0.188  -0.228
    1UNL     C5    7  -0.077   0.205  -0.081
    1UNL     C6    8  -0.090   0.356  -0.040
    1UNL     O3    9  -0.122   0.369   0.098
    1UNL     C7   10  -0.245   0.323   0.124
    1UNL     O4   11  -0.323   0.301   0.028
    1UNL     C8   12  -0.284   0.314   0.268
    1UNL     C9   13  -0.258   0.175   0.321
    1UNL     O5   14  -0.327   0.078   0.287
    1UNL     O6   15  -0.156   0.153   0.405
    1UNL    C10   16   0.042   0.137  -0.017
    1UNL     O7   17   0.039   0.162   0.127
    1UNL    C11   18   0.029  -0.015  -0.041
    1UNL     O8   19   0.128  -0.084   0.024
    1UNL    C12   20   0.015  -0.031  -0.199
    1UNL     O9   21   0.131  -0.027  -0.290
    1UNL    C13   22   0.255  -0.038  -0.224
    1UNL    O10   23   0.300   0.067  -0.145
    1UNL    C14   24   0.419   0.041  -0.071
    1UNL    C15   25   0.437   0.170   0.013
    1UNL    O11   26   0.508   0.140   0.132
    1UNL    C16   27   0.431   0.070   0.228
    1UNL    O12   28   0.310   0.065   0.228
    1UNL    C17   29   0.501   0.007   0.336
    1UNL    C18   30   0.580  -0.114   0.280
    1UNL    O13   31   0.596  -0.140   0.160
    1UNL    O14   32   0.634  -0.198   0.376
    1UNL    C19   33   0.533   0.012  -0.163
    1UNL    O15   34   0.655  -0.015  -0.101
    1UNL    C20   35   0.496  -0.102  -0.254
    1UNL    O16   36   0.600  -0.120  -0.353
    1UNL    C21   37   0.360  -0.082  -0.327
    1UNL    O17   38   0.315  -0.193  -0.393
    1UNL    C22   39  -0.489  -0.070  -0.113
    1UNL    C23   40  -0.396  -0.189  -0.093
    1UNL    C24   41  -0.406  -0.246   0.055
    1UNL    C25   42  -0.466  -0.179   0.158
    1UNL    C26   43  -0.438  -0.218   0.303
    1UNL    C27   44  -0.532  -0.050   0.129
    1UNL    C28   45  -0.484   0.030   0.008
    1UNL     H1   46  -0.660  -0.024  -0.301
    1UNL     H2   47  -0.565   0.092  -0.404
    1UNL     H3   48  -0.323   0.092  -0.372
    1UNL     H4   49  -0.337   0.177  -0.216
    1UNL     H5   50  -0.091   0.035  -0.361
    1UNL     H6   51  -0.165   0.160  -0.039
    1UNL     H7   52  -0.007   0.424  -0.061
    1UNL     H8   53  -0.173   0.404  -0.100
    1UNL     H9   54  -0.234   0.390   0.327
    1UNL    H10   55  -0.389   0.340   0.273
    1UNL    H11   56  -0.154   0.056   0.425
    1UNL    H12   57   0.131   0.170  -0.067
    1UNL    H13   58   0.128   0.141   0.174
    1UNL    H14   59  -0.064  -0.034   0.017
    1UNL    H15   60   0.181  -0.032   0.093
    1UNL    H16   61  -0.026  -0.137  -0.212
    1UNL    H17   62   0.243  -0.122  -0.151
    1UNL    H18   63   0.390  -0.037  -0.002
    1UNL    H19   64   0.344   0.212   0.053
    1UNL    H20   65   0.507   0.239  -0.031
    1UNL    H21   66   0.553   0.085   0.398
    1UNL    H22   67   0.426  -0.032   0.399
    1UNL    H23   68   0.677  -0.263   0.319
    1UNL    H24   69   0.561   0.100  -0.222
    1UNL    H25   70   0.633  -0.064  -0.013
    1UNL    H26   71   0.489  -0.185  -0.174
    1UNL    H27   72   0.690  -0.123  -0.319
    1UNL    H28   73   0.376  -0.002  -0.400
    1UNL    H29   74   0.224  -0.171  -0.417
    1UNL    H30   75  -0.592  -0.114  -0.116
    1UNL    H31   76  -0.292  -0.152  -0.106
    1UNL    H32   77  -0.413  -0.267  -0.177
    1UNL    H33   78  -0.345  -0.327   0.087
    1UNL    H34   79  -0.396  -0.312   0.307
    1UNL    H35   80  -0.369  -0.153   0.360
    1UNL    H36   81  -0.527  -0.221   0.357
    1UNL    H37   82  -0.640  -0.068   0.131
    1UNL    H38   83  -0.507   0.017   0.222
    1UNL    H39   84  -0.534   0.128  -0.005
    1UNL    H40   85  -0.387   0.069   0.021
   0.00000   0.00000   0.00000   0.00000   0.00000   0.00000   0.00000   0.00000   0.00000
Generated with MDTraj, t= 64.0
 85
    1UNL     C1    1  -0.530   0.000  -0.348
    1UNL     C2    2  -0.459   0.028  -0.237
    1UNL     C3    3  -0.329   0.096  -0.256
    1UNL     O1    4  -0.225  -0.007  -0.226
    1UNL     C4    5  -0.097   0.042  -0.258
    1UNL     O2    6  -0.078   0.176  -0.211
    1UNL     C5    7  -0.080   0.185  -0.062
    1UNL     C6    8  -0.086   0.337  -0.019
    1UNL     O3    9  -0.132   0.362   0.106
    1UNL     C7   10  -0.254   0.304   0.129
    1UNL     O4   11  -0.327   0.263   0.041
    1UNL     C8   12  -0.295   0.293   0.271
    1UNL     C9   13  -0.268   0.164   0.332
    1UNL     O5   14  -0.342   0.075   0.300
    1UNL     O6   15  -0.172   0.146   0.428
    1UNL    C10   16   0.048   0.116  -0.018
    1UNL     O7   17   0.064   0.128   0.123
    1UNL    C11   18   0.046  -0.032  -0.056
    1UNL     O8   19   0.148  -0.117  -0.006
    1UNL    C12   20   0.024  -0.051  -0.214
    1UNL     O9   21   0.132  -0.034  -0.312
    1UNL    C13   22   0.252  -0.038  -0.236
    1UNL    O10   23   0.288   0.080  -0.164
    1UNL    C14   24   0.402   0.055  -0.083
    1UNL    C15   25   0.428   0.177   0.011
    1UNL    O11   26   0.510   0.139   0.122
    1UNL    C16   27   0.436   0.065   0.210
    1UNL    O12   28   0.317   0.045   0.198
    1UNL    C17   29   0.517   0.010   0.326
    1UNL    C18   30   0.600  -0.102   0.286
    1UNL    O13   31   0.637  -0.109   0.172
    1UNL    O14   32   0.638  -0.182   0.384
    1UNL    C19   33   0.530   0.019  -0.166
    1UNL    O15   34   0.649   0.006  -0.088
    1UNL    C20   35   0.498  -0.098  -0.254
    1UNL    O16   36   0.612  -0.134  -0.331
    1UNL    C21   37   0.365  -0.076  -0.336
    1UNL    O17   38   0.333  -0.190  -0.405
    1UNL    C22   39  -0.496  -0.034  -0.103
    1UNL    C23   40  -0.402  -0.153  -0.079
    1UNL    C24   41  -0.408  -0.198   0.068
    1UNL    C25   42  -0.488  -0.140   0.164
    1UNL    C26   43  -0.496  -0.202   0.301
    1UNL    C27   44  -0.571  -0.013   0.138
    1UNL    C28   45  -0.507   0.060   0.024
    1UNL     H1   46  -0.623  -0.049  -0.330
    1UNL     H2   47  -0.501   0.019  -0.455
    1UNL     H3   48  -0.315   0.119  -0.357
    1UNL     H4   49  -0.313   0.182  -0.192
    1UNL     H5   50  -0.090   0.050  -0.372
    1UNL     H6   51  -0.167   0.136  -0.017
    1UNL     H7   52   0.011   0.389  -0.013
    1UNL     H8   53  -0.140   0.400  -0.098
    1UNL     H9   54  -0.239   0.362   0.336
    1UNL    H10   55  -0.398   0.322   0.274
    1UNL    H11   56  -0.184   0.060   0.473
    1UNL    H12   57   0.131   0.161  -0.072
    1UNL    H13   58   0.151   0.098   0.148
    1UNL    H14   59  -0.045  -0.081  -0.010
    1UNL    H15   60   0.191  -0.066   0.068
    1UNL    H16   61  -0.013  -0.156  -0.219
    1UNL    H17   62   0.240  -0.126  -0.167
    1UNL    H18   63   0.374  -0.032  -0.023
    1UNL    H19   64   0.339   0.218   0.062
    1UNL    H20   65   0.486   0.246  -0.053
    1UNL    H21   66   0.581   0.079   0.377
    1UNL    H22   67   0.452  -0.028   0.405
    1UNL    H23   68   0.716  -0.236   0.356
    1UNL    H24   69   0.557   0.090  -0.245
    1UNL    H25   70   0.637  -0.024   0.002
    1UNL    H26   71   0.478  -0.187  -0.188
    1UNL    H27   72   0.695  -0.132  -0.281
    1UNL    H28   73   0.377  -0.010  -0.421
    1UNL    H29   74   0.237  -0.186  -0.429
    1UNL    H30   75  -0.593  -0.091  -0.108
    1UNL    H31   76  -0.297  -0.123  -0.109
    1UNL    H32   77  -0.431  -0.242  -0.150
    1UNL    H33   78  -0.345  -0.275   0.107
    1UNL    H34   79  -0.449  -0.300   0.299
    1UNL    H35   80  -0.436  -0.147   0.366
    1UNL    H36   81  -0.600  -0.195   0.329
    1UNL    H37   82  -0.677  -0.033   0.109
    1UNL    H38   83  -0.582   0.043   0.236
    1UNL    H39   84  -0.549   0.155  -0.010
    1UNL    H40   85  -0.410   0.093   0.056
   0.00000   0.00000   0.00000   0.00000   0.00000   0.00000   0.00000   0.00000   0.00000
Generated with MDTraj, t= 65.0
 85
    1UNL     C1    1  -0.515   0.021  -0.350
    1UNL     C2    2  -0.452   0.021  -0.233
    1UNL     C3    3  -0.320   0.085  -0.225
    1UNL     O1    4  -0.214  -0.014  -0.218
    1UNL     C4    5  -0.094   0.043  -0.263
    1UNL     O2    6  -0.077   0.174  -0.216
    1UNL     C5    7  -0.056   0.174  -0.069
    1UNL     C6    8  -0.066   0.317  -0.008
    1UNL     O3    9  -0.115   0.310   0.122
    1UNL     C7   10  -0.249   0.287   0.132
    1UNL     O4   11  -0.317   0.264   0.038
    1UNL     C8   12  -0.302   0.294   0.281
    1UNL     C9   13  -0.272   0.166   0.358
    1UNL     O5   14  -0.332   0.066   0.332
    1UNL     O6   15  -0.176   0.166   0.451
    1UNL    C10   16   0.059   0.100  -0.026
    1UNL     O7   17   0.077   0.119   0.112
    1UNL    C11   18   0.038  -0.047  -0.069
    1UNL     O8   19   0.135  -0.132  -0.004
    1UNL    C12   20   0.028  -0.052  -0.230
    1UNL     O9   21   0.144  -0.032  -0.313
    1UNL    C13   22   0.264  -0.038  -0.235
    1UNL    O10   23   0.299   0.084  -0.165
    1UNL    C14   24   0.422   0.078  -0.085
    1UNL    C15   25   0.438   0.201   0.003
    1UNL    O11   26   0.480   0.168   0.141
    1UNL    C16   27   0.435   0.055   0.191
    1UNL    O12   28   0.346  -0.013   0.148
    1UNL    C17   29   0.506   0.018   0.314
    1UNL    C18   30   0.607  -0.092   0.281
    1UNL    O13   31   0.647  -0.115   0.169
    1UNL    O14   32   0.649  -0.170   0.382
    1UNL    C19   33   0.544   0.041  -0.169
    1UNL    O15   34   0.660   0.028  -0.093
    1UNL    C20   35   0.516  -0.093  -0.258
    1UNL    O16   36   0.622  -0.124  -0.342
    1UNL    C21   37   0.383  -0.076  -0.335
    1UNL    O17   38   0.348  -0.195  -0.393
    1UNL    C22   39  -0.516  -0.053  -0.119
    1UNL    C23   40  -0.422  -0.155  -0.048
    1UNL    C24   41  -0.457  -0.193   0.093
    1UNL    C25   42  -0.543  -0.125   0.174
    1UNL    C26   43  -0.550  -0.154   0.316
    1UNL    C27   44  -0.620  -0.010   0.111
    1UNL    C28   45  -0.573   0.056  -0.022
    1UNL     H1   46  -0.609  -0.019  -0.358
    1UNL     H2   47  -0.466   0.061  -0.441
    1UNL     H3   48  -0.303   0.148  -0.308
    1UNL     H4   49  -0.308   0.135  -0.131
    1UNL     H5   50  -0.100   0.064  -0.375
    1UNL     H6   51  -0.145   0.126  -0.026
    1UNL     H7   52   0.029   0.369  -0.017
    1UNL     H8   53  -0.135   0.388  -0.067
    1UNL     H9   54  -0.243   0.379   0.319
    1UNL    H10   55  -0.406   0.312   0.298
    1UNL    H11   56  -0.156   0.072   0.469
    1UNL    H12   57   0.137   0.147  -0.086
    1UNL    H13   58   0.165   0.090   0.156
    1UNL    H14   59  -0.060  -0.085  -0.026
    1UNL    H15   60   0.205  -0.084   0.044
    1UNL    H16   61  -0.004  -0.156  -0.244
    1UNL    H17   62   0.239  -0.118  -0.161
    1UNL    H18   63   0.400  -0.001  -0.015
    1UNL    H19   64   0.336   0.246   0.004
    1UNL    H20   65   0.520   0.263  -0.042
    1UNL    H21   66   0.558   0.099   0.348
    1UNL    H22   67   0.437  -0.011   0.396
    1UNL    H23   68   0.704  -0.247   0.356
    1UNL    H24   69   0.566   0.123  -0.236
    1UNL    H25   70   0.660  -0.031  -0.012
    1UNL    H26   71   0.502  -0.170  -0.180
    1UNL    H27   72   0.708  -0.118  -0.289
    1UNL    H28   73   0.392  -0.007  -0.418
    1UNL    H29   74   0.250  -0.188  -0.416
    1UNL    H30   75  -0.600  -0.119  -0.150
    1UNL    H31   76  -0.321  -0.100  -0.043
    1UNL    H32   77  -0.401  -0.247  -0.117
    1UNL    H33   78  -0.389  -0.265   0.147
    1UNL    H34   79  -0.532  -0.262   0.338
    1UNL    H35   80  -0.471  -0.116   0.364
    1UNL    H36   81  -0.644  -0.112   0.349
    1UNL    H37   82  -0.730  -0.039   0.113
    1UNL    H38   83  -0.618   0.080   0.179
    1UNL    H39   84  -0.644   0.125  -0.067
    1UNL    H40   85  -0.487   0.121  -0.002
   0.00000   0.00000   0.00000   0.00000   0.00000   0.00000   0.00000   0.00000   0.00000
Generated with MDTraj, t= 66.0
 85
    1UNL     C1    1  -0.530   0.005  -0.359
    1UNL     C2    2  -0.458   0.012  -0.244
    1UNL     C3    3  -0.321   0.075  -0.230
    1UNL     O1    4  -0.221  -0.024  -0.214
    1UNL     C4    5  -0.092   0.024  -0.256
    1UNL     O2    6  -0.076   0.151  -0.205
    1UNL     C5    7  -0.071   0.151  -0.059
    1UNL     C6    8  -0.064   0.301  -0.001
    1UNL     O3    9  -0.110   0.320   0.132
    1UNL     C7   10  -0.246   0.274   0.131
    1UNL     O4   11  -0.317   0.233   0.044
    1UNL     C8   12  -0.303   0.284   0.269
    1UNL     C9   13  -0.274   0.160   0.357
    1UNL     O5   14  -0.339   0.060   0.341
    1UNL     O6   15  -0.178   0.179   0.457
    1UNL    C10   16   0.056   0.087  -0.014
    1UNL     O7   17   0.069   0.093   0.129
    1UNL    C11   18   0.059  -0.055  -0.062
    1UNL     O8   19   0.169  -0.145  -0.013
    1UNL    C12   20   0.035  -0.066  -0.218
    1UNL     O9   21   0.143  -0.038  -0.304
    1UNL    C13   22   0.271  -0.027  -0.251
    1UNL    O10   23   0.304   0.089  -0.174
    1UNL    C14   24   0.424   0.068  -0.086
    1UNL    C15   25   0.439   0.186   0.007
    1UNL    O11   26   0.515   0.146   0.124
    1UNL    C16   27   0.436   0.055   0.205
    1UNL    O12   28   0.326   0.010   0.174
    1UNL    C17   29   0.523   0.004   0.314
    1UNL    C18   30   0.618  -0.097   0.265
    1UNL    O13   31   0.638  -0.105   0.146
    1UNL    O14   32   0.673  -0.176   0.363
    1UNL    C19   33   0.547   0.060  -0.176
    1UNL    O15   34   0.666   0.038  -0.098
    1UNL    C20   35   0.532  -0.069  -0.264
    1UNL    O16   36   0.644  -0.074  -0.350
    1UNL    C21   37   0.391  -0.068  -0.345
    1UNL    O17   38   0.364  -0.204  -0.383
    1UNL    C22   39  -0.517  -0.043  -0.113
    1UNL    C23   40  -0.426  -0.133  -0.033
    1UNL    C24   41  -0.467  -0.153   0.116
    1UNL    C25   42  -0.575  -0.085   0.169
    1UNL    C26   43  -0.605  -0.107   0.307
    1UNL    C27   44  -0.668  -0.003   0.085
    1UNL    C28   45  -0.587   0.066  -0.026
    1UNL     H1   46  -0.622  -0.052  -0.368
    1UNL     H2   47  -0.492   0.055  -0.446
    1UNL     H3   48  -0.296   0.122  -0.322
    1UNL     H4   49  -0.314   0.137  -0.142
    1UNL     H5   50  -0.097   0.038  -0.367
    1UNL     H6   51  -0.163   0.105  -0.016
    1UNL     H7   52   0.036   0.340   0.003
    1UNL     H8   53  -0.112   0.374  -0.074
    1UNL     H9   54  -0.273   0.377   0.322
    1UNL    H10   55  -0.407   0.287   0.239
    1UNL    H11   56  -0.173   0.091   0.499
    1UNL    H12   57   0.138   0.142  -0.056
    1UNL    H13   58   0.156   0.062   0.153
    1UNL    H14   59  -0.028  -0.102  -0.010
    1UNL    H15   60   0.217  -0.093   0.056
    1UNL    H16   61   0.007  -0.169  -0.234
    1UNL    H17   62   0.264  -0.100  -0.166
    1UNL    H18   63   0.413  -0.022  -0.023
    1UNL    H19   64   0.343   0.229   0.044
    1UNL    H20   65   0.507   0.257  -0.050
    1UNL    H21   66   0.572   0.088   0.350
    1UNL    H22   67   0.465  -0.036   0.398
    1UNL    H23   68   0.716  -0.251   0.317
    1UNL    H24   69   0.564   0.145  -0.242
    1UNL    H25   70   0.637   0.001  -0.008
    1UNL    H26   71   0.539  -0.164  -0.215
    1UNL    H27   72   0.728  -0.049  -0.307
    1UNL    H28   73   0.412  -0.014  -0.437
    1UNL    H29   74   0.271  -0.216  -0.411
    1UNL    H30   75  -0.602  -0.107  -0.146
    1UNL    H31   76  -0.317  -0.097  -0.035
    1UNL    H32   77  -0.425  -0.235  -0.088
    1UNL    H33   78  -0.403  -0.195   0.185
    1UNL    H34   79  -0.619  -0.208   0.350
    1UNL    H35   80  -0.525  -0.079   0.372
    1UNL    H36   81  -0.688  -0.045   0.334
    1UNL    H37   82  -0.749  -0.063   0.031
    1UNL    H38   83  -0.720   0.071   0.150
    1UNL    H39   84  -0.635   0.138  -0.089
    1UNL    H40   85  -0.513   0.126   0.030
   0.00000   0.00000   0.00000   0.00000   0.00000   0.00000   0.00000   0.00000   0.00000
Generated with MDTraj, t= 67.0
 85
    1UNL     C1    1  -0.505  -0.021  -0.355
    1UNL     C2    2  -0.443  -0.001  -0.240
    1UNL     C3    3  -0.303   0.055  -0.245
    1UNL     O1    4  -0.205  -0.041  -0.219
    1UNL     C4    5  -0.077   0.010  -0.253
    1UNL     O2    6  -0.059   0.142  -0.200
    1UNL     C5    7  -0.065   0.143  -0.060
    1UNL     C6    8  -0.092   0.299  -0.025
    1UNL     O3    9  -0.138   0.316   0.113
    1UNL     C7   10  -0.263   0.263   0.128
    1UNL     O4   11  -0.329   0.205   0.048
    1UNL     C8   12  -0.321   0.275   0.272
    1UNL     C9   13  -0.294   0.150   0.361
    1UNL     O5   14  -0.353   0.048   0.343
    1UNL     O6   15  -0.191   0.167   0.451
    1UNL    C10   16   0.056   0.075   0.001
    1UNL     O7   17   0.049   0.095   0.142
    1UNL    C11   18   0.064  -0.073  -0.041
    1UNL     O8   19   0.181  -0.134   0.016
    1UNL    C12   20   0.042  -0.089  -0.204
    1UNL     O9   21   0.155  -0.068  -0.290
    1UNL    C13   22   0.277  -0.055  -0.230
    1UNL    O10   23   0.291   0.064  -0.146
    1UNL    C14   24   0.422   0.065  -0.072
    1UNL    C15   25   0.425   0.180   0.024
    1UNL    O11   26   0.514   0.148   0.133
    1UNL    C16   27   0.451   0.065   0.215
    1UNL    O12   28   0.334   0.034   0.221
    1UNL    C17   29   0.547  -0.015   0.308
    1UNL    C18   30   0.633  -0.120   0.239
    1UNL    O13   31   0.656  -0.127   0.120
    1UNL    O14   32   0.703  -0.196   0.325
    1UNL    C19   33   0.535   0.067  -0.173
    1UNL    O15   34   0.660   0.065  -0.109
    1UNL    C20   35   0.526  -0.050  -0.278
    1UNL    O16   36   0.624  -0.041  -0.376
    1UNL    C21   37   0.386  -0.046  -0.347
    1UNL    O17   38   0.360  -0.171  -0.417
    1UNL    C22   39  -0.505  -0.050  -0.115
    1UNL    C23   40  -0.410  -0.093  -0.007
    1UNL    C24   41  -0.472  -0.104   0.132
    1UNL    C25   42  -0.586  -0.040   0.168
    1UNL    C26   43  -0.635  -0.059   0.305
    1UNL    C27   44  -0.657   0.040   0.070
    1UNL    C28   45  -0.590   0.073  -0.062
    1UNL     H1   46  -0.605  -0.076  -0.357
    1UNL     H2   47  -0.457   0.010  -0.441
    1UNL     H3   48  -0.280   0.092  -0.343
    1UNL     H4   49  -0.290   0.128  -0.166
    1UNL     H5   50  -0.070   0.016  -0.362
    1UNL     H6   51  -0.153   0.083  -0.027
    1UNL     H7   52  -0.012   0.366  -0.043
    1UNL     H8   53  -0.166   0.345  -0.096
    1UNL     H9   54  -0.266   0.356   0.322
    1UNL    H10   55  -0.428   0.296   0.265
    1UNL    H11   56  -0.155   0.078   0.464
    1UNL    H12   57   0.151   0.112  -0.034
    1UNL    H13   58   0.144   0.082   0.182
    1UNL    H14   59  -0.016  -0.125   0.013
    1UNL    H15   60   0.237  -0.085   0.082
    1UNL    H16   61   0.011  -0.189  -0.230
    1UNL    H17   62   0.287  -0.145  -0.163
    1UNL    H18   63   0.419  -0.029  -0.013
    1UNL    H19   64   0.328   0.202   0.071
    1UNL    H20   65   0.465   0.267  -0.032
    1UNL    H21   66   0.613   0.059   0.354
    1UNL    H22   67   0.494  -0.052   0.392
    1UNL    H23   68   0.757  -0.246   0.262
    1UNL    H24   69   0.533   0.167  -0.218
    1UNL    H25   70   0.669   0.007  -0.034
    1UNL    H26   71   0.540  -0.141  -0.228
    1UNL    H27   72   0.706  -0.022  -0.332
    1UNL    H28   73   0.372   0.043  -0.410
    1UNL    H29   74   0.265  -0.175  -0.428
    1UNL    H30   75  -0.572  -0.132  -0.142
    1UNL    H31   76  -0.335  -0.007  -0.009
    1UNL    H32   77  -0.346  -0.185  -0.035
    1UNL    H33   78  -0.417  -0.150   0.220
    1UNL    H34   79  -0.626  -0.150   0.360
    1UNL    H35   80  -0.578   0.014   0.374
    1UNL    H36   81  -0.734  -0.025   0.315
    1UNL    H37   82  -0.758  -0.014   0.049
    1UNL    H38   83  -0.686   0.138   0.112
    1UNL    H39   84  -0.664   0.112  -0.127
    1UNL    H40   85  -0.516   0.156  -0.047
   0.00000   0.00000   0.00000   0.00000   0.00000   0.00000   0.00000   0.00000   0.00000
Generated with MDTraj, t= 68.0
 85
    1UNL     C1    1  -0.515  -0.091  -0.359
    1UNL     C2    2  -0.449  -0.045  -0.252
    1UNL     C3    3  -0.306   0.015  -0.267
    1UNL     O1    4  -0.199  -0.063  -0.198
    1UNL     C4    5  -0.074  -0.013  -0.231
    1UNL     O2    6  -0.065   0.124  -0.196
    1UNL     C5    7  -0.066   0.138  -0.053
    1UNL     C6    8  -0.095   0.286  -0.009
    1UNL     O3    9  -0.138   0.300   0.123
    1UNL     C7   10  -0.267   0.256   0.131
    1UNL     O4   11  -0.330   0.215   0.036
    1UNL     C8   12  -0.332   0.256   0.266
    1UNL     C9   13  -0.304   0.142   0.359
    1UNL     O5   14  -0.370   0.039   0.354
    1UNL     O6   15  -0.194   0.160   0.432
    1UNL    C10   16   0.062   0.092   0.002
    1UNL     O7   17   0.092   0.131   0.131
    1UNL    C11   18   0.074  -0.063  -0.022
    1UNL     O8   19   0.178  -0.145   0.045
    1UNL    C12   20   0.047  -0.096  -0.169
    1UNL     O9   21   0.152  -0.078  -0.264
    1UNL    C13   22   0.282  -0.061  -0.213
    1UNL    O10   23   0.290   0.052  -0.123
    1UNL    C14   24   0.430   0.063  -0.063
    1UNL    C15   25   0.425   0.177   0.043
    1UNL    O11   26   0.505   0.153   0.155
    1UNL    C16   27   0.458   0.039   0.219
    1UNL    O12   28   0.346  -0.001   0.203
    1UNL    C17   29   0.558  -0.032   0.303
    1UNL    C18   30   0.636  -0.122   0.211
    1UNL    O13   31   0.628  -0.103   0.089
    1UNL    O14   32   0.718  -0.212   0.271
    1UNL    C19   33   0.542   0.076  -0.170
    1UNL    O15   34   0.674   0.078  -0.104
    1UNL    C20   35   0.529  -0.031  -0.279
    1UNL    O16   36   0.615  -0.001  -0.386
    1UNL    C21   37   0.384  -0.032  -0.334
    1UNL    O17   38   0.368  -0.139  -0.426
    1UNL    C22   39  -0.509  -0.037  -0.115
    1UNL    C23   40  -0.413  -0.073  -0.004
    1UNL    C24   41  -0.479  -0.069   0.129
    1UNL    C25   42  -0.592   0.001   0.162
    1UNL    C26   43  -0.650  -0.011   0.292
    1UNL    C27   44  -0.661   0.084   0.053
    1UNL    C28   45  -0.586   0.099  -0.077
    1UNL     H1   46  -0.619  -0.116  -0.349
    1UNL     H2   47  -0.466  -0.109  -0.449
    1UNL     H3   48  -0.274   0.014  -0.373
    1UNL     H4   49  -0.298   0.117  -0.225
    1UNL     H5   50  -0.054  -0.022  -0.335
    1UNL     H6   51  -0.150   0.078  -0.021
    1UNL     H7   52  -0.016   0.351  -0.029
    1UNL     H8   53  -0.176   0.335  -0.067
    1UNL     H9   54  -0.301   0.353   0.303
    1UNL    H10   55  -0.443   0.250   0.252
    1UNL    H11   56  -0.190   0.077   0.484
    1UNL    H12   57   0.131   0.145  -0.062
    1UNL    H13   58   0.174   0.087   0.153
    1UNL    H14   59  -0.018  -0.089   0.027
    1UNL    H15   60   0.244  -0.094   0.093
    1UNL    H16   61   0.023  -0.202  -0.179
    1UNL    H17   62   0.310  -0.154  -0.159
    1UNL    H18   63   0.435  -0.041  -0.022
    1UNL    H19   64   0.324   0.180   0.076
    1UNL    H20   65   0.466   0.275   0.013
    1UNL    H21   66   0.623   0.041   0.357
    1UNL    H22   67   0.501  -0.080   0.374
    1UNL    H23   68   0.750  -0.276   0.206
    1UNL    H24   69   0.532   0.174  -0.220
    1UNL    H25   70   0.673  -0.006  -0.045
    1UNL    H26   71   0.554  -0.130  -0.253
    1UNL    H27   72   0.705  -0.012  -0.351
    1UNL    H28   73   0.360   0.056  -0.399
    1UNL    H29   74   0.271  -0.170  -0.428
    1UNL    H30   75  -0.585  -0.116  -0.114
    1UNL    H31   76  -0.326  -0.012  -0.011
    1UNL    H32   77  -0.373  -0.176  -0.033
    1UNL    H33   78  -0.428  -0.118   0.206
    1UNL    H34   79  -0.678  -0.108   0.320
    1UNL    H35   80  -0.569   0.032   0.362
    1UNL    H36   81  -0.730   0.063   0.292
    1UNL    H37   82  -0.765   0.039   0.027
    1UNL    H38   83  -0.681   0.183   0.097
    1UNL    H39   84  -0.652   0.111  -0.158
    1UNL    H40   85  -0.523   0.191  -0.074
   0.00000   0.00000   0.00000   0.00000   0.00000   0.00000   0.00000   0.00000   0.00000
Generated with MDTraj, t= 69.0
 85
    1UNL     C1    1  -0.481  -0.147  -0.345
    1UNL     C2    2  -0.442  -0.072  -0.247
    1UNL     C3    3  -0.315  -0.004  -0.255
    1UNL     O1    4  -0.202  -0.084  -0.201
    1UNL     C4    5  -0.083  -0.010  -0.222
    1UNL     O2    6  -0.094   0.125  -0.174
    1UNL     C5    7  -0.078   0.128  -0.035
    1UNL     C6    8  -0.094   0.281   0.002
    1UNL     O3    9  -0.143   0.298   0.130
    1UNL     C7   10  -0.274   0.260   0.138
    1UNL     O4   11  -0.336   0.226   0.037
    1UNL     C8   12  -0.338   0.267   0.272
    1UNL     C9   13  -0.291   0.150   0.350
    1UNL     O5   14  -0.362   0.054   0.363
    1UNL     O6   15  -0.172   0.156   0.410
    1UNL    C10   16   0.059   0.072   0.011
    1UNL     O7   17   0.081   0.103   0.150
    1UNL    C11   18   0.063  -0.084  -0.027
    1UNL     O8   19   0.188  -0.143   0.027
    1UNL    C12   20   0.046  -0.092  -0.177
    1UNL     O9   21   0.153  -0.050  -0.267
    1UNL    C13   22   0.281  -0.028  -0.209
    1UNL    O10   23   0.299   0.088  -0.126
    1UNL    C14   24   0.429   0.078  -0.056
    1UNL    C15   25   0.438   0.187   0.060
    1UNL    O11   26   0.534   0.137   0.149
    1UNL    C16   27   0.472   0.032   0.212
    1UNL    O12   28   0.354   0.005   0.213
    1UNL    C17   29   0.565  -0.059   0.286
    1UNL    C18   30   0.643  -0.139   0.194
    1UNL    O13   31   0.636  -0.131   0.074
    1UNL    O14   32   0.724  -0.231   0.247
    1UNL    C19   33   0.533   0.103  -0.170
    1UNL    O15   34   0.671   0.103  -0.117
    1UNL    C20   35   0.528  -0.009  -0.267
    1UNL    O16   36   0.609   0.023  -0.385
    1UNL    C21   37   0.384  -0.031  -0.322
    1UNL    O17   38   0.373  -0.156  -0.385
    1UNL    C22   39  -0.523  -0.065  -0.121
    1UNL    C23   40  -0.444  -0.101   0.005
    1UNL    C24   41  -0.517  -0.070   0.132
    1UNL    C25   42  -0.610   0.027   0.141
    1UNL    C26   43  -0.675   0.058   0.271
    1UNL    C27   44  -0.649   0.104   0.021
    1UNL    C28   45  -0.563   0.090  -0.104
    1UNL     H1   46  -0.570  -0.204  -0.333
    1UNL     H2   47  -0.412  -0.159  -0.435
    1UNL     H3   48  -0.291   0.019  -0.363
    1UNL     H4   49  -0.311   0.092  -0.197
    1UNL     H5   50  -0.069   0.006  -0.324
    1UNL     H6   51  -0.158   0.067   0.009
    1UNL     H7   52  -0.004   0.334  -0.004
    1UNL     H8   53  -0.156   0.336  -0.071
    1UNL     H9   54  -0.289   0.350   0.322
    1UNL    H10   55  -0.448   0.286   0.261
    1UNL    H11   56  -0.156   0.084   0.476
    1UNL    H12   57   0.135   0.120  -0.043
    1UNL    H13   58   0.171   0.076   0.188
    1UNL    H14   59  -0.025  -0.125   0.017
    1UNL    H15   60   0.234  -0.084   0.094
    1UNL    H16   61   0.017  -0.196  -0.202
    1UNL    H17   62   0.299  -0.113  -0.142
    1UNL    H18   63   0.447  -0.027  -0.021
    1UNL    H19   64   0.354   0.201   0.124
    1UNL    H20   65   0.478   0.280   0.023
    1UNL    H21   66   0.635  -0.005   0.354
    1UNL    H22   67   0.512  -0.128   0.345
    1UNL    H23   68   0.770  -0.293   0.182
    1UNL    H24   69   0.524   0.204  -0.214
    1UNL    H25   70   0.689   0.037  -0.051
    1UNL    H26   71   0.564  -0.096  -0.218
    1UNL    H27   72   0.705   0.013  -0.357
    1UNL    H28   73   0.341   0.045  -0.394
    1UNL    H29   74   0.282  -0.180  -0.402
    1UNL    H30   75  -0.607  -0.132  -0.124
    1UNL    H31   76  -0.347  -0.056  -0.006
    1UNL    H32   77  -0.419  -0.209   0.005
    1UNL    H33   78  -0.488  -0.121   0.226
    1UNL    H34   79  -0.769   0.006   0.286
    1UNL    H35   80  -0.595   0.047   0.347
    1UNL    H36   81  -0.697   0.169   0.264
    1UNL    H37   82  -0.760   0.081   0.007
    1UNL    H38   83  -0.644   0.209   0.057
    1UNL    H39   84  -0.612   0.132  -0.188
    1UNL    H40   85  -0.468   0.147  -0.097
   0.00000   0.00000   0.00000   0.00000   0.00000   0.00000   0.00000   0.00000   0.00000
Generated with MDTraj, t= 70.0
 85
    1UNL     C1    1  -0.449  -0.220  -0.297
    1UNL     C2    2  -0.434  -0.106  -0.232
    1UNL     C3    3  -0.312  -0.021  -0.242
    1UNL     O1    4  -0.193  -0.084  -0.190
    1UNL     C4    5  -0.074  -0.013  -0.224
    1UNL     O2    6  -0.090   0.129  -0.178
    1UNL     C5    7  -0.089   0.129  -0.036
    1UNL     C6    8  -0.098   0.282  -0.003
    1UNL     O3    9  -0.155   0.298   0.125
    1UNL     C7   10  -0.277   0.264   0.140
    1UNL     O4   11  -0.353   0.233   0.050
    1UNL     C8   12  -0.321   0.275   0.287
    1UNL     C9   13  -0.290   0.149   0.355
    1UNL     O5   14  -0.377   0.061   0.368
    1UNL     O6   15  -0.169   0.138   0.417
    1UNL    C10   16   0.049   0.073   0.017
    1UNL     O7   17   0.049   0.064   0.159
    1UNL    C11   18   0.071  -0.073  -0.039
    1UNL     O8   19   0.192  -0.144   0.009
    1UNL    C12   20   0.057  -0.082  -0.188
    1UNL     O9   21   0.163  -0.025  -0.275
    1UNL    C13   22   0.293  -0.010  -0.211
    1UNL    O10   23   0.309   0.111  -0.129
    1UNL    C14   24   0.434   0.102  -0.063
    1UNL    C15   25   0.435   0.190   0.060
    1UNL    O11   26   0.519   0.131   0.163
    1UNL    C16   27   0.470   0.018   0.211
    1UNL    O12   28   0.353  -0.002   0.209
    1UNL    C17   29   0.562  -0.075   0.268
    1UNL    C18   30   0.649  -0.152   0.168
    1UNL    O13   31   0.658  -0.129   0.050
    1UNL    O14   32   0.719  -0.249   0.230
    1UNL    C19   33   0.550   0.106  -0.165
    1UNL    O15   34   0.684   0.108  -0.115
    1UNL    C20   35   0.536  -0.007  -0.262
    1UNL    O16   36   0.625   0.025  -0.373
    1UNL    C21   37   0.394  -0.025  -0.317
    1UNL    O17   38   0.375  -0.151  -0.376
    1UNL    C22   39  -0.537  -0.070  -0.118
    1UNL    C23   40  -0.481  -0.118   0.011
    1UNL    C24   41  -0.540  -0.051   0.136
    1UNL    C25   42  -0.622   0.056   0.128
    1UNL    C26   43  -0.668   0.118   0.259
    1UNL    C27   44  -0.672   0.110  -0.003
    1UNL    C28   45  -0.566   0.087  -0.109
    1UNL     H1   46  -0.527  -0.280  -0.274
    1UNL     H2   47  -0.378  -0.242  -0.376
    1UNL     H3   48  -0.296   0.002  -0.353
    1UNL     H4   49  -0.319   0.074  -0.181
    1UNL     H5   50  -0.062   0.006  -0.327
    1UNL     H6   51  -0.168   0.066   0.011
    1UNL     H7   52  -0.003   0.328  -0.006
    1UNL     H8   53  -0.148   0.342  -0.084
    1UNL     H9   54  -0.284   0.359   0.346
    1UNL    H10   55  -0.432   0.274   0.286
    1UNL    H11   56  -0.163   0.054   0.468
    1UNL    H12   57   0.130   0.135  -0.016
    1UNL    H13   58   0.139   0.038   0.197
    1UNL    H14   59  -0.007  -0.136   0.004
    1UNL    H15   60   0.232  -0.096   0.083
    1UNL    H16   61   0.052  -0.191  -0.212
    1UNL    H17   62   0.311  -0.096  -0.146
    1UNL    H18   63   0.433   0.000  -0.018
    1UNL    H19   64   0.338   0.194   0.105
    1UNL    H20   65   0.471   0.292   0.038
    1UNL    H21   66   0.634  -0.021   0.329
    1UNL    H22   67   0.514  -0.149   0.336
    1UNL    H23   68   0.785  -0.286   0.169
    1UNL    H24   69   0.532   0.203  -0.216
    1UNL    H25   70   0.688   0.051  -0.033
    1UNL    H26   71   0.566  -0.105  -0.231
    1UNL    H27   72   0.719   0.025  -0.339
    1UNL    H28   73   0.374   0.055  -0.394
    1UNL    H29   74   0.283  -0.165  -0.404
    1UNL    H30   75  -0.628  -0.124  -0.131
    1UNL    H31   76  -0.373  -0.113   0.014
    1UNL    H32   77  -0.503  -0.221   0.016
    1UNL    H33   78  -0.509  -0.089   0.233
    1UNL    H34   79  -0.763   0.072   0.309
    1UNL    H35   80  -0.584   0.126   0.323
    1UNL    H36   81  -0.699   0.226   0.241
    1UNL    H37   82  -0.775   0.073  -0.028
    1UNL    H38   83  -0.676   0.220   0.022
    1UNL    H39   84  -0.594   0.111  -0.208
    1UNL    H40   85  -0.482   0.151  -0.080
   0.00000   0.00000   0.00000   0.00000   0.00000   0.00000   0.00000   0.00000   0.00000
Generated with MDTraj, t= 71.0
 85
    1UNL     C1    1  -0.423  -0.250  -0.237
    1UNL     C2    2  -0.424  -0.129  -0.195
    1UNL     C3    3  -0.309  -0.043  -0.232
    1UNL     O1    4  -0.183  -0.100  -0.216
    1UNL     C4    5  -0.075  -0.014  -0.252
    1UNL     O2    6  -0.100   0.123  -0.203
    1UNL     C5    7  -0.073   0.124  -0.056
    1UNL     C6    8  -0.100   0.269  -0.004
    1UNL     O3    9  -0.127   0.285   0.134
    1UNL     C7   10  -0.264   0.258   0.157
    1UNL     O4   11  -0.345   0.228   0.071
    1UNL     C8   12  -0.302   0.276   0.294
    1UNL     C9   13  -0.305   0.140   0.370
    1UNL     O5   14  -0.406   0.074   0.365
    1UNL     O6   15  -0.198   0.107   0.442
    1UNL    C10   16   0.066   0.071  -0.009
    1UNL     O7   17   0.082   0.101   0.130
    1UNL    C11   18   0.075  -0.072  -0.060
    1UNL     O8   19   0.179  -0.150   0.001
    1UNL    C12   20   0.063  -0.074  -0.214
    1UNL     O9   21   0.165  -0.014  -0.288
    1UNL    C13   22   0.293  -0.015  -0.221
    1UNL    O10   23   0.307   0.088  -0.119
    1UNL    C14   24   0.433   0.086  -0.054
    1UNL    C15   25   0.445   0.185   0.070
    1UNL    O11   26   0.529   0.127   0.164
    1UNL    C16   27   0.461   0.014   0.214
    1UNL    O12   28   0.343  -0.007   0.190
    1UNL    C17   29   0.548  -0.087   0.284
    1UNL    C18   30   0.631  -0.147   0.176
    1UNL    O13   31   0.634  -0.098   0.064
    1UNL    O14   32   0.693  -0.257   0.211
    1UNL    C19   33   0.546   0.104  -0.157
    1UNL    O15   34   0.673   0.124  -0.100
    1UNL    C20   35   0.541  -0.009  -0.262
    1UNL    O16   36   0.645   0.021  -0.354
    1UNL    C21   37   0.405  -0.011  -0.324
    1UNL    O17   38   0.394  -0.105  -0.425
    1UNL    C22   39  -0.531  -0.084  -0.099
    1UNL    C23   40  -0.486  -0.110   0.048
    1UNL    C24   41  -0.548  -0.020   0.155
    1UNL    C25   42  -0.636   0.081   0.134
    1UNL    C26   43  -0.685   0.163   0.241
    1UNL    C27   44  -0.677   0.107  -0.011
    1UNL    C28   45  -0.565   0.076  -0.113
    1UNL     H1   46  -0.514  -0.312  -0.216
    1UNL     H2   47  -0.338  -0.290  -0.292
    1UNL     H3   48  -0.316  -0.019  -0.344
    1UNL     H4   49  -0.307   0.049  -0.169
    1UNL     H5   50  -0.069  -0.005  -0.360
    1UNL     H6   51  -0.153   0.056  -0.015
    1UNL     H7   52  -0.017   0.333  -0.024
    1UNL     H8   53  -0.177   0.325  -0.068
    1UNL     H9   54  -0.218   0.337   0.330
    1UNL    H10   55  -0.397   0.332   0.300
    1UNL    H11   56  -0.218   0.022   0.487
    1UNL    H12   57   0.126   0.141  -0.066
    1UNL    H13   58   0.165   0.066   0.161
    1UNL    H14   59  -0.022  -0.122  -0.032
    1UNL    H15   60   0.231  -0.100   0.072
    1UNL    H16   61   0.053  -0.179  -0.251
    1UNL    H17   62   0.309  -0.108  -0.167
    1UNL    H18   63   0.436  -0.016  -0.013
    1UNL    H19   64   0.347   0.206   0.113
    1UNL    H20   65   0.496   0.281   0.042
    1UNL    H21   66   0.618  -0.040   0.350
    1UNL    H22   67   0.496  -0.169   0.349
    1UNL    H23   68   0.737  -0.273   0.124
    1UNL    H24   69   0.525   0.198  -0.211
    1UNL    H25   70   0.682   0.039  -0.057
    1UNL    H26   71   0.568  -0.110  -0.223
    1UNL    H27   72   0.726   0.015  -0.300
    1UNL    H28   73   0.394   0.095  -0.359
    1UNL    H29   74   0.304  -0.089  -0.467
    1UNL    H30   75  -0.620  -0.139  -0.119
    1UNL    H31   76  -0.377  -0.107   0.054
    1UNL    H32   77  -0.508  -0.208   0.071
    1UNL    H33   78  -0.520  -0.054   0.250
    1UNL    H34   79  -0.792   0.143   0.288
    1UNL    H35   80  -0.605   0.163   0.313
    1UNL    H36   81  -0.690   0.272   0.216
    1UNL    H37   82  -0.765   0.044  -0.030
    1UNL    H38   83  -0.708   0.216  -0.023
    1UNL    H39   84  -0.594   0.110  -0.211
    1UNL    H40   85  -0.474   0.124  -0.084
   0.00000   0.00000   0.00000   0.00000   0.00000   0.00000   0.00000   0.00000   0.00000
Generated with MDTraj, t= 72.0
 85
    1UNL     C1    1  -0.406  -0.275  -0.192
    1UNL     C2    2  -0.414  -0.146  -0.162
    1UNL     C3    3  -0.306  -0.053  -0.224
    1UNL     O1    4  -0.178  -0.110  -0.204
    1UNL     C4    5  -0.070  -0.028  -0.250
    1UNL     O2    6  -0.083   0.108  -0.214
    1UNL     C5    7  -0.078   0.120  -0.072
    1UNL     C6    8  -0.111   0.258  -0.035
    1UNL     O3    9  -0.120   0.280   0.109
    1UNL     C7   10  -0.245   0.243   0.156
    1UNL     O4   11  -0.336   0.191   0.095
    1UNL     C8   12  -0.266   0.262   0.310
    1UNL     C9   13  -0.320   0.151   0.393
    1UNL     O5   14  -0.433   0.114   0.389
    1UNL     O6   15  -0.223   0.075   0.454
    1UNL    C10   16   0.056   0.081  -0.023
    1UNL     O7   17   0.071   0.097   0.113
    1UNL    C11   18   0.089  -0.064  -0.070
    1UNL     O8   19   0.213  -0.130  -0.030
    1UNL    C12   20   0.077  -0.076  -0.226
    1UNL     O9   21   0.170  -0.003  -0.305
    1UNL    C13   22   0.298   0.006  -0.241
    1UNL    O10   23   0.305   0.111  -0.143
    1UNL    C14   24   0.424   0.099  -0.063
    1UNL    C15   25   0.427   0.182   0.067
    1UNL    O11   26   0.501   0.125   0.164
    1UNL    C16   27   0.445   0.013   0.213
    1UNL    O12   28   0.328  -0.022   0.202
    1UNL    C17   29   0.546  -0.076   0.283
    1UNL    C18   30   0.621  -0.164   0.184
    1UNL    O13   31   0.640  -0.134   0.068
    1UNL    O14   32   0.666  -0.281   0.239
    1UNL    C19   33   0.552   0.113  -0.151
    1UNL    O15   34   0.673   0.098  -0.088
    1UNL    C20   35   0.550   0.011  -0.269
    1UNL    O16   36   0.651   0.041  -0.369
    1UNL    C21   37   0.411   0.017  -0.335
    1UNL    O17   38   0.400  -0.074  -0.448
    1UNL    C22   39  -0.514  -0.084  -0.067
    1UNL    C23   40  -0.471  -0.079   0.076
    1UNL    C24   41  -0.565  -0.006   0.166
    1UNL    C25   42  -0.642   0.095   0.125
    1UNL    C26   43  -0.723   0.178   0.223
    1UNL    C27   44  -0.663   0.125  -0.022
    1UNL    C28   45  -0.548   0.068  -0.111
    1UNL     H1   46  -0.481  -0.347  -0.157
    1UNL     H2   47  -0.329  -0.308  -0.246
    1UNL     H3   48  -0.318  -0.044  -0.338
    1UNL     H4   49  -0.302   0.045  -0.175
    1UNL     H5   50  -0.075  -0.033  -0.362
    1UNL     H6   51  -0.150   0.043  -0.029
    1UNL     H7   52  -0.040   0.322  -0.085
    1UNL     H8   53  -0.211   0.291  -0.081
    1UNL     H9   54  -0.173   0.301   0.360
    1UNL    H10   55  -0.350   0.332   0.317
    1UNL    H11   56  -0.260  -0.011   0.479
    1UNL    H12   57   0.126   0.151  -0.067
    1UNL    H13   58   0.165   0.065   0.141
    1UNL    H14   59   0.011  -0.132  -0.021
    1UNL    H15   60   0.250  -0.112   0.061
    1UNL    H16   61   0.088  -0.184  -0.250
    1UNL    H17   62   0.317  -0.089  -0.193
    1UNL    H18   63   0.427  -0.004  -0.036
    1UNL    H19   64   0.325   0.183   0.109
    1UNL    H20   65   0.453   0.291   0.044
    1UNL    H21   66   0.609  -0.008   0.340
    1UNL    H22   67   0.490  -0.140   0.362
    1UNL    H23   68   0.687  -0.346   0.170
    1UNL    H24   69   0.555   0.212  -0.202
    1UNL    H25   70   0.676   0.034  -0.013
    1UNL    H26   71   0.575  -0.096  -0.235
    1UNL    H27   72   0.736   0.024  -0.330
    1UNL    H28   73   0.401   0.121  -0.370
    1UNL    H29   74   0.315  -0.075  -0.495
    1UNL    H30   75  -0.603  -0.142  -0.072
    1UNL    H31   76  -0.373  -0.035   0.067
    1UNL    H32   77  -0.453  -0.174   0.113
    1UNL    H33   78  -0.564  -0.039   0.276
    1UNL    H34   79  -0.834   0.165   0.224
    1UNL    H35   80  -0.671   0.163   0.326
    1UNL    H36   81  -0.703   0.286   0.202
    1UNL    H37   82  -0.758   0.087  -0.058
    1UNL    H38   83  -0.658   0.239  -0.027
    1UNL    H39   84  -0.575   0.059  -0.217
    1UNL    H40   85  -0.464   0.128  -0.098
   0.00000   0.00000   0.00000   0.00000   0.00000   0.00000   0.00000   0.00000   0.00000
Generated with MDTraj, t= 73.0
 85
    1UNL     C1    1  -0.389  -0.277  -0.119
    1UNL     C2    2  -0.400  -0.151  -0.145
    1UNL     C3    3  -0.305  -0.080  -0.228
    1UNL     O1    4  -0.168  -0.127  -0.207
    1UNL     C4    5  -0.076  -0.033  -0.263
    1UNL     O2    6  -0.103   0.094  -0.217
    1UNL     C5    7  -0.080   0.106  -0.075
    1UNL     C6    8  -0.116   0.252  -0.038
    1UNL     O3    9  -0.119   0.296   0.103
    1UNL     C7   10  -0.222   0.227   0.157
    1UNL     O4   11  -0.296   0.150   0.104
    1UNL     C8   12  -0.244   0.256   0.302
    1UNL     C9   13  -0.327   0.148   0.382
    1UNL     O5   14  -0.443   0.171   0.406
    1UNL     O6   15  -0.260   0.038   0.431
    1UNL    C10   16   0.061   0.059  -0.017
    1UNL     O7   17   0.055   0.058   0.126
    1UNL    C11   18   0.096  -0.073  -0.085
    1UNL     O8   19   0.221  -0.124  -0.047
    1UNL    C12   20   0.084  -0.069  -0.239
    1UNL     O9   21   0.167   0.017  -0.312
    1UNL    C13   22   0.297   0.032  -0.253
    1UNL    O10   23   0.307   0.126  -0.149
    1UNL    C14   24   0.422   0.101  -0.069
    1UNL    C15   25   0.431   0.181   0.058
    1UNL    O11   26   0.516   0.123   0.143
    1UNL    C16   27   0.451   0.021   0.211
    1UNL    O12   28   0.331  -0.007   0.206
    1UNL    C17   29   0.542  -0.071   0.289
    1UNL    C18   30   0.598  -0.182   0.207
    1UNL    O13   31   0.624  -0.162   0.091
    1UNL    O14   32   0.617  -0.303   0.278
    1UNL    C19   33   0.556   0.119  -0.160
    1UNL    O15   34   0.670   0.083  -0.087
    1UNL    C20   35   0.552   0.033  -0.294
    1UNL    O16   36   0.650   0.090  -0.371
    1UNL    C21   37   0.410   0.045  -0.358
    1UNL    O17   38   0.390  -0.056  -0.460
    1UNL    C22   39  -0.497  -0.076  -0.058
    1UNL    C23   40  -0.465  -0.066   0.094
    1UNL    C24   41  -0.557   0.019   0.173
    1UNL    C25   42  -0.638   0.106   0.117
    1UNL    C26   43  -0.741   0.171   0.209
    1UNL    C27   44  -0.652   0.124  -0.029
    1UNL    C28   45  -0.525   0.077  -0.098
    1UNL     H1   46  -0.454  -0.332  -0.048
    1UNL     H2   47  -0.319  -0.334  -0.181
    1UNL     H3   48  -0.333  -0.095  -0.338
    1UNL     H4   49  -0.302   0.025  -0.203
    1UNL     H5   50  -0.088  -0.043  -0.376
    1UNL     H6   51  -0.147   0.027  -0.026
    1UNL     H7   52  -0.041   0.319  -0.081
    1UNL     H8   53  -0.207   0.283  -0.103
    1UNL     H9   54  -0.139   0.256   0.345
    1UNL    H10   55  -0.291   0.354   0.316
    1UNL    H11   56  -0.327  -0.011   0.481
    1UNL    H12   57   0.138   0.135  -0.034
    1UNL    H13   58   0.147   0.037   0.156
    1UNL    H14   59   0.022  -0.151  -0.046
    1UNL    H15   60   0.255  -0.103   0.046
    1UNL    H16   61   0.107  -0.173  -0.267
    1UNL    H17   62   0.315  -0.063  -0.206
    1UNL    H18   63   0.414  -0.002  -0.038
    1UNL    H19   64   0.333   0.184   0.108
    1UNL    H20   65   0.461   0.288   0.036
    1UNL    H21   66   0.618  -0.007   0.342
    1UNL    H22   67   0.473  -0.109   0.367
    1UNL    H23   68   0.671  -0.372   0.234
    1UNL    H24   69   0.565   0.228  -0.174
    1UNL    H25   70   0.661  -0.015  -0.055
    1UNL    H26   71   0.561  -0.081  -0.278
    1UNL    H27   72   0.738   0.077  -0.332
    1UNL    H28   73   0.391   0.142  -0.403
    1UNL    H29   74   0.300  -0.056  -0.493
    1UNL    H30   75  -0.586  -0.135  -0.059
    1UNL    H31   76  -0.367  -0.033   0.112
    1UNL    H32   77  -0.461  -0.166   0.127
    1UNL    H33   78  -0.554   0.012   0.274
    1UNL    H34   79  -0.832   0.114   0.219
    1UNL    H35   80  -0.685   0.187   0.313
    1UNL    H36   81  -0.760   0.274   0.165
    1UNL    H37   82  -0.736   0.062  -0.058
    1UNL    H38   83  -0.666   0.234  -0.058
    1UNL    H39   84  -0.521   0.098  -0.206
    1UNL    H40   85  -0.447   0.124  -0.049
   0.00000   0.00000   0.00000   0.00000   0.00000   0.00000   0.00000   0.00000   0.00000
Generated with MDTraj, t= 74.0
 85
    1UNL     C1    1  -0.339  -0.286  -0.075
    1UNL     C2    2  -0.373  -0.163  -0.107
    1UNL     C3    3  -0.296  -0.084  -0.217
    1UNL     O1    4  -0.156  -0.130  -0.219
    1UNL     C4    5  -0.074  -0.024  -0.268
    1UNL     O2    6  -0.096   0.105  -0.218
    1UNL     C5    7  -0.078   0.109  -0.077
    1UNL     C6    8  -0.094   0.252  -0.031
    1UNL     O3    9  -0.083   0.265   0.108
    1UNL     C7   10  -0.201   0.210   0.160
    1UNL     O4   11  -0.286   0.155   0.094
    1UNL     C8   12  -0.216   0.232   0.306
    1UNL     C9   13  -0.334   0.152   0.360
    1UNL     O5   14  -0.435   0.210   0.388
    1UNL     O6   15  -0.314   0.022   0.383
    1UNL    C10   16   0.060   0.059  -0.022
    1UNL     O7   17   0.065   0.055   0.120
    1UNL    C11   18   0.089  -0.077  -0.091
    1UNL     O8   19   0.204  -0.150  -0.047
    1UNL    C12   20   0.079  -0.071  -0.248
    1UNL     O9   21   0.165   0.029  -0.304
    1UNL    C13   22   0.296   0.023  -0.247
    1UNL    O10   23   0.310   0.107  -0.135
    1UNL    C14   24   0.430   0.092  -0.063
    1UNL    C15   25   0.443   0.188   0.053
    1UNL    O11   26   0.513   0.134   0.163
    1UNL    C16   27   0.444   0.028   0.215
    1UNL    O12   28   0.329   0.003   0.184
    1UNL    C17   29   0.515  -0.069   0.307
    1UNL    C18   30   0.573  -0.176   0.221
    1UNL    O13   31   0.603  -0.155   0.106
    1UNL    O14   32   0.568  -0.302   0.275
    1UNL    C19   33   0.554   0.113  -0.165
    1UNL    O15   34   0.681   0.067  -0.105
    1UNL    C20   35   0.535   0.046  -0.308
    1UNL    O16   36   0.629   0.106  -0.387
    1UNL    C21   37   0.394   0.066  -0.356
    1UNL    O17   38   0.362  -0.012  -0.469
    1UNL    C22   39  -0.490  -0.093  -0.040
    1UNL    C23   40  -0.479  -0.082   0.110
    1UNL    C24   41  -0.584  -0.004   0.178
    1UNL    C25   42  -0.637   0.101   0.124
    1UNL    C26   43  -0.715   0.197   0.201
    1UNL    C27   44  -0.614   0.133  -0.027
    1UNL    C28   45  -0.503   0.058  -0.088
    1UNL     H1   46  -0.382  -0.336   0.001
    1UNL     H2   47  -0.254  -0.330  -0.129
    1UNL     H3   48  -0.333  -0.107  -0.321
    1UNL     H4   49  -0.296   0.022  -0.205
    1UNL     H5   50  -0.090  -0.019  -0.383
    1UNL     H6   51  -0.156   0.039  -0.031
    1UNL     H7   52  -0.015   0.309  -0.079
    1UNL     H8   53  -0.184   0.309  -0.073
    1UNL     H9   54  -0.119   0.197   0.352
    1UNL    H10   55  -0.238   0.337   0.327
    1UNL    H11   56  -0.397  -0.018   0.412
    1UNL    H12   57   0.120   0.143  -0.058
    1UNL    H13   58   0.155   0.033   0.153
    1UNL    H14   59  -0.001  -0.139  -0.064
    1UNL    H15   60   0.253  -0.112   0.034
    1UNL    H16   61   0.099  -0.174  -0.283
    1UNL    H17   62   0.322  -0.077  -0.218
    1UNL    H18   63   0.428  -0.011  -0.028
    1UNL    H19   64   0.342   0.205   0.090
    1UNL    H20   65   0.475   0.292   0.023
    1UNL    H21   66   0.591  -0.013   0.377
    1UNL    H22   67   0.439  -0.112   0.369
    1UNL    H23   68   0.619  -0.363   0.218
    1UNL    H24   69   0.571   0.221  -0.180
    1UNL    H25   70   0.647   0.014  -0.034
    1UNL    H26   71   0.566  -0.066  -0.308
    1UNL    H27   72   0.721   0.066  -0.374
    1UNL    H28   73   0.390   0.172  -0.377
    1UNL    H29   74   0.262  -0.009  -0.475
    1UNL    H30   75  -0.580  -0.142  -0.069
    1UNL    H31   76  -0.390  -0.034   0.126
    1UNL    H32   77  -0.471  -0.174   0.167
    1UNL    H33   78  -0.597  -0.029   0.286
    1UNL    H34   79  -0.759   0.153   0.292
    1UNL    H35   80  -0.648   0.283   0.237
    1UNL    H36   81  -0.797   0.250   0.138
    1UNL    H37   82  -0.705   0.118  -0.085
    1UNL    H38   83  -0.585   0.244  -0.027
    1UNL    H39   84  -0.516   0.057  -0.197
    1UNL    H40   85  -0.414   0.109  -0.069
   0.00000   0.00000   0.00000   0.00000   0.00000   0.00000   0.00000   0.00000   0.00000
Generated with MDTraj, t= 75.0
 85
    1UNL     C1    1  -0.310  -0.259  -0.030
    1UNL     C2    2  -0.355  -0.156  -0.096
    1UNL     C3    3  -0.284  -0.104  -0.218
    1UNL     O1    4  -0.145  -0.147  -0.223
    1UNL     C4    5  -0.062  -0.037  -0.266
    1UNL     O2    6  -0.095   0.096  -0.216
    1UNL     C5    7  -0.079   0.105  -0.075
    1UNL     C6    8  -0.097   0.250  -0.041
    1UNL     O3    9  -0.098   0.270   0.093
    1UNL     C7   10  -0.210   0.214   0.152
    1UNL     O4   11  -0.301   0.176   0.082
    1UNL     C8   12  -0.204   0.181   0.305
    1UNL     C9   13  -0.336   0.147   0.360
    1UNL     O5   14  -0.429   0.226   0.368
    1UNL     O6   15  -0.357   0.016   0.385
    1UNL    C10   16   0.053   0.051  -0.019
    1UNL     O7   17   0.044   0.039   0.125
    1UNL    C11   18   0.096  -0.080  -0.089
    1UNL     O8   19   0.224  -0.136  -0.045
    1UNL    C12   20   0.082  -0.074  -0.240
    1UNL     O9   21   0.167   0.019  -0.305
    1UNL    C13   22   0.295   0.039  -0.253
    1UNL    O10   23   0.313   0.117  -0.136
    1UNL    C14   24   0.434   0.099  -0.067
    1UNL    C15   25   0.437   0.194   0.054
    1UNL    O11   26   0.500   0.134   0.165
    1UNL    C16   27   0.435   0.028   0.215
    1UNL    O12   28   0.321   0.005   0.190
    1UNL    C17   29   0.506  -0.068   0.296
    1UNL    C18   30   0.561  -0.177   0.208
    1UNL    O13   31   0.618  -0.150   0.107
    1UNL    O14   32   0.551  -0.305   0.250
    1UNL    C19   33   0.566   0.110  -0.159
    1UNL    O15   34   0.679   0.043  -0.103
    1UNL    C20   35   0.545   0.047  -0.300
    1UNL    O16   36   0.641   0.099  -0.396
    1UNL    C21   37   0.401   0.082  -0.354
    1UNL    O17   38   0.371   0.014  -0.482
    1UNL    C22   39  -0.484  -0.092  -0.045
    1UNL    C23   40  -0.490  -0.097   0.114
    1UNL    C24   41  -0.577   0.008   0.186
    1UNL    C25   42  -0.636   0.109   0.132
    1UNL    C26   43  -0.698   0.211   0.219
    1UNL    C27   44  -0.625   0.136  -0.013
    1UNL    C28   45  -0.507   0.065  -0.083
    1UNL     H1   46  -0.360  -0.296   0.055
    1UNL     H2   47  -0.210  -0.301  -0.055
    1UNL     H3   48  -0.341  -0.136  -0.307
    1UNL     H4   49  -0.276   0.001  -0.216
    1UNL     H5   50  -0.082  -0.019  -0.380
    1UNL     H6   51  -0.146   0.032  -0.019
    1UNL     H7   52  -0.026   0.315  -0.089
    1UNL     H8   53  -0.194   0.284  -0.085
    1UNL     H9   54  -0.135   0.096   0.334
    1UNL    H10   55  -0.178   0.278   0.348
    1UNL    H11   56  -0.452   0.003   0.407
    1UNL    H12   57   0.120   0.135  -0.041
    1UNL    H13   58   0.135   0.026   0.161
    1UNL    H14   59   0.020  -0.154  -0.063
    1UNL    H15   60   0.254  -0.086   0.031
    1UNL    H16   61   0.107  -0.176  -0.276
    1UNL    H17   62   0.320  -0.062  -0.221
    1UNL    H18   63   0.435  -0.004  -0.025
    1UNL    H19   64   0.338   0.214   0.088
    1UNL    H20   65   0.481   0.294   0.038
    1UNL    H21   66   0.596  -0.017   0.346
    1UNL    H22   67   0.438  -0.108   0.371
    1UNL    H23   68   0.579  -0.360   0.175
    1UNL    H24   69   0.583   0.215  -0.187
    1UNL    H25   70   0.657  -0.004  -0.013
    1UNL    H26   71   0.562  -0.067  -0.293
    1UNL    H27   72   0.712   0.028  -0.413
    1UNL    H28   73   0.396   0.190  -0.363
    1UNL    H29   74   0.274   0.025  -0.489
    1UNL    H30   75  -0.564  -0.147  -0.086
    1UNL    H31   76  -0.399  -0.085   0.161
    1UNL    H32   77  -0.530  -0.192   0.146
    1UNL    H33   78  -0.581  -0.007   0.296
    1UNL    H34   79  -0.767   0.162   0.296
    1UNL    H35   80  -0.626   0.270   0.278
    1UNL    H36   81  -0.759   0.299   0.170
    1UNL    H37   82  -0.716   0.088  -0.053
    1UNL    H38   83  -0.626   0.248  -0.028
    1UNL    H39   84  -0.522   0.076  -0.190
    1UNL    H40   85  -0.411   0.122  -0.066
   0.00000   0.00000   0.00000   0.00000   0.00000   0.00000   0.00000   0.00000   0.00000
Generated with MDTraj, t= 76.0
 85
    1UNL     C1    1  -0.293  -0.250  -0.011
    1UNL     C2    2  -0.353  -0.155  -0.081
    1UNL     C3    3  -0.285  -0.098  -0.206
    1UNL     O1    4  -0.147  -0.136  -0.215
    1UNL     C4    5  -0.062  -0.039  -0.277
    1UNL     O2    6  -0.097   0.096  -0.236
    1UNL     C5    7  -0.083   0.105  -0.091
    1UNL     C6    8  -0.121   0.250  -0.042
    1UNL     O3    9  -0.122   0.269   0.094
    1UNL     C7   10  -0.219   0.196   0.148
    1UNL     O4   11  -0.312   0.141   0.095
    1UNL     C8   12  -0.214   0.179   0.298
    1UNL     C9   13  -0.343   0.141   0.374
    1UNL     O5   14  -0.431   0.230   0.376
    1UNL     O6   15  -0.346   0.029   0.444
    1UNL    C10   16   0.057   0.059  -0.034
    1UNL     O7   17   0.052   0.050   0.111
    1UNL    C11   18   0.096  -0.081  -0.098
    1UNL     O8   19   0.225  -0.130  -0.061
    1UNL    C12   20   0.082  -0.078  -0.251
    1UNL     O9   21   0.168   0.024  -0.310
    1UNL    C13   22   0.296   0.035  -0.253
    1UNL    O10   23   0.310   0.125  -0.142
    1UNL    C14   24   0.427   0.100  -0.069
    1UNL    C15   25   0.438   0.180   0.063
    1UNL    O11   26   0.518   0.116   0.152
    1UNL    C16   27   0.443   0.019   0.219
    1UNL    O12   28   0.323   0.017   0.212
    1UNL    C17   29   0.518  -0.084   0.290
    1UNL    C18   30   0.561  -0.189   0.193
    1UNL    O13   31   0.609  -0.153   0.089
    1UNL    O14   32   0.550  -0.314   0.232
    1UNL    C19   33   0.561   0.127  -0.157
    1UNL    O15   34   0.676   0.096  -0.077
    1UNL    C20   35   0.549   0.050  -0.288
    1UNL    O16   36   0.646   0.078  -0.383
    1UNL    C21   37   0.408   0.071  -0.346
    1UNL    O17   38   0.398  -0.008  -0.472
    1UNL    C22   39  -0.487  -0.088  -0.039
    1UNL    C23   40  -0.497  -0.087   0.114
    1UNL    C24   41  -0.577   0.015   0.183
    1UNL    C25   42  -0.635   0.112   0.120
    1UNL    C26   43  -0.699   0.232   0.196
    1UNL    C27   44  -0.633   0.125  -0.029
    1UNL    C28   45  -0.502   0.057  -0.088
    1UNL     H1   46  -0.342  -0.308   0.068
    1UNL     H2   47  -0.200  -0.289  -0.042
    1UNL     H3   48  -0.324  -0.141  -0.297
    1UNL     H4   49  -0.293   0.006  -0.204
    1UNL     H5   50  -0.086  -0.038  -0.390
    1UNL     H6   51  -0.147   0.028  -0.039
    1UNL     H7   52  -0.055   0.327  -0.074
    1UNL     H8   53  -0.219   0.273  -0.085
    1UNL     H9   54  -0.139   0.097   0.302
    1UNL    H10   55  -0.175   0.273   0.342
    1UNL    H11   56  -0.416   0.031   0.514
    1UNL    H12   57   0.125   0.140  -0.065
    1UNL    H13   58   0.143   0.042   0.148
    1UNL    H14   59   0.022  -0.150  -0.065
    1UNL    H15   60   0.257  -0.091   0.029
    1UNL    H16   61   0.106  -0.175  -0.301
    1UNL    H17   62   0.312  -0.069  -0.221
    1UNL    H18   63   0.435  -0.008  -0.040
    1UNL    H19   64   0.349   0.199   0.115
    1UNL    H20   65   0.487   0.279   0.053
    1UNL    H21   66   0.616  -0.049   0.319
    1UNL    H22   67   0.474  -0.137   0.378
    1UNL    H23   68   0.565  -0.371   0.154
    1UNL    H24   69   0.566   0.233  -0.183
    1UNL    H25   70   0.667   0.015  -0.021
    1UNL    H26   71   0.562  -0.057  -0.254
    1UNL    H27   72   0.611   0.150  -0.442
    1UNL    H28   73   0.403   0.178  -0.368
    1UNL    H29   74   0.309  -0.006  -0.507
    1UNL    H30   75  -0.568  -0.145  -0.077
    1UNL    H31   76  -0.399  -0.078   0.148
    1UNL    H32   77  -0.527  -0.188   0.139
    1UNL    H33   78  -0.569   0.015   0.286
    1UNL    H34   79  -0.809   0.192   0.222
    1UNL    H35   80  -0.650   0.255   0.292
    1UNL    H36   81  -0.699   0.328   0.138
    1UNL    H37   82  -0.728   0.084  -0.071
    1UNL    H38   83  -0.623   0.235  -0.049
    1UNL    H39   84  -0.507   0.045  -0.195
    1UNL    H40   85  -0.409   0.122  -0.065
   0.00000   0.00000   0.00000   0.00000   0.00000   0.00000   0.00000   0.00000   0.00000
Generated with MDTraj, t= 77.0
 85
    1UNL     C1    1  -0.291  -0.249  -0.035
    1UNL     C2    2  -0.357  -0.154  -0.095
    1UNL     C3    3  -0.293  -0.104  -0.216
    1UNL     O1    4  -0.156  -0.139  -0.228
    1UNL     C4    5  -0.064  -0.032  -0.265
    1UNL     O2    6  -0.101   0.099  -0.221
    1UNL     C5    7  -0.092   0.103  -0.076
    1UNL     C6    8  -0.136   0.247  -0.034
    1UNL     O3    9  -0.137   0.267   0.109
    1UNL     C7   10  -0.206   0.170   0.179
    1UNL     O4   11  -0.260   0.077   0.123
    1UNL     C8   12  -0.209   0.201   0.325
    1UNL     C9   13  -0.336   0.160   0.382
    1UNL     O5   14  -0.445   0.221   0.365
    1UNL     O6   15  -0.336   0.055   0.467
    1UNL    C10   16   0.054   0.074  -0.024
    1UNL     O7   17   0.069   0.099   0.113
    1UNL    C11   18   0.091  -0.069  -0.079
    1UNL     O8   19   0.212  -0.123  -0.053
    1UNL    C12   20   0.083  -0.070  -0.232
    1UNL     O9   21   0.164   0.029  -0.300
    1UNL    C13   22   0.300   0.032  -0.247
    1UNL    O10   23   0.313   0.132  -0.142
    1UNL    C14   24   0.427   0.109  -0.062
    1UNL    C15   25   0.423   0.192   0.063
    1UNL    O11   26   0.486   0.131   0.168
    1UNL    C16   27   0.431   0.009   0.200
    1UNL    O12   28   0.317  -0.022   0.181
    1UNL    C17   29   0.524  -0.082   0.265
    1UNL    C18   30   0.576  -0.189   0.162
    1UNL    O13   31   0.606  -0.156   0.050
    1UNL    O14   32   0.570  -0.320   0.199
    1UNL    C19   33   0.553   0.126  -0.147
    1UNL    O15   34   0.675   0.106  -0.076
    1UNL    C20   35   0.547   0.043  -0.280
    1UNL    O16   36   0.654   0.076  -0.363
    1UNL    C21   37   0.414   0.050  -0.345
    1UNL    O17   38   0.409  -0.047  -0.451
    1UNL    C22   39  -0.482  -0.090  -0.040
    1UNL    C23   40  -0.480  -0.074   0.120
    1UNL    C24   41  -0.568   0.033   0.167
    1UNL    C25   42  -0.638   0.122   0.100
    1UNL    C26   43  -0.705   0.246   0.161
    1UNL    C27   44  -0.647   0.109  -0.048
    1UNL    C28   45  -0.515   0.048  -0.103
    1UNL     H1   46  -0.323  -0.288   0.064
    1UNL     H2   47  -0.206  -0.290  -0.071
    1UNL     H3   48  -0.352  -0.134  -0.301
    1UNL     H4   49  -0.286  -0.001  -0.213
    1UNL     H5   50  -0.067  -0.033  -0.381
    1UNL     H6   51  -0.158   0.029  -0.030
    1UNL     H7   52  -0.073   0.321  -0.078
    1UNL     H8   53  -0.238   0.270  -0.067
    1UNL     H9   54  -0.133   0.147   0.383
    1UNL    H10   55  -0.201   0.314   0.335
    1UNL    H11   56  -0.430   0.047   0.496
    1UNL    H12   57   0.116   0.148  -0.080
    1UNL    H13   58   0.156   0.055   0.138
    1UNL    H14   59   0.019  -0.132  -0.035
    1UNL    H15   60   0.250  -0.099   0.030
    1UNL    H16   61   0.117  -0.167  -0.275
    1UNL    H17   62   0.311  -0.071  -0.207
    1UNL    H18   63   0.430  -0.001  -0.037
    1UNL    H19   64   0.322   0.192   0.095
    1UNL    H20   65   0.455   0.299   0.060
    1UNL    H21   66   0.607  -0.039   0.308
    1UNL    H22   67   0.476  -0.149   0.342
    1UNL    H23   68   0.618  -0.374   0.132
    1UNL    H24   69   0.560   0.229  -0.183
    1UNL    H25   70   0.649   0.034  -0.024
    1UNL    H26   71   0.558  -0.065  -0.254
    1UNL    H27   72   0.727   0.110  -0.309
    1UNL    H28   73   0.403   0.148  -0.398
    1UNL    H29   74   0.318  -0.039  -0.494
    1UNL    H30   75  -0.558  -0.159  -0.065
    1UNL    H31   76  -0.373  -0.069   0.142
    1UNL    H32   77  -0.514  -0.164   0.164
    1UNL    H33   78  -0.550   0.049   0.280
    1UNL    H34   79  -0.774   0.198   0.236
    1UNL    H35   80  -0.623   0.304   0.217
    1UNL    H36   81  -0.746   0.313   0.082
    1UNL    H37   82  -0.721   0.025  -0.069
    1UNL    H38   83  -0.670   0.203  -0.098
    1UNL    H39   84  -0.513   0.045  -0.213
    1UNL    H40   85  -0.424   0.107  -0.071
   0.00000   0.00000   0.00000   0.00000   0.00000   0.00000   0.00000   0.00000   0.00000
Generated with MDTraj, t= 78.0
 85
    1UNL     C1    1  -0.309  -0.259  -0.046
    1UNL     C2    2  -0.367  -0.159  -0.111
    1UNL     C3    3  -0.289  -0.093  -0.225
    1UNL     O1    4  -0.155  -0.133  -0.226
    1UNL     C4    5  -0.071  -0.023  -0.264
    1UNL     O2    6  -0.101   0.105  -0.217
    1UNL     C5    7  -0.090   0.113  -0.074
    1UNL     C6    8  -0.137   0.249  -0.025
    1UNL     O3    9  -0.138   0.268   0.120
    1UNL     C7   10  -0.189   0.170   0.201
    1UNL     O4   11  -0.221   0.064   0.159
    1UNL     C8   12  -0.202   0.207   0.342
    1UNL     C9   13  -0.341   0.168   0.395
    1UNL     O5   14  -0.436   0.223   0.342
    1UNL     O6   15  -0.336   0.079   0.493
    1UNL    C10   16   0.049   0.075  -0.025
    1UNL     O7   17   0.063   0.093   0.112
    1UNL    C11   18   0.082  -0.073  -0.088
    1UNL     O8   19   0.199  -0.124  -0.044
    1UNL    C12   20   0.076  -0.068  -0.238
    1UNL     O9   21   0.165   0.016  -0.307
    1UNL    C13   22   0.295   0.024  -0.238
    1UNL    O10   23   0.302   0.126  -0.135
    1UNL    C14   24   0.420   0.108  -0.052
    1UNL    C15   25   0.423   0.192   0.078
    1UNL    O11   26   0.513   0.127   0.162
    1UNL    C16   27   0.451   0.014   0.214
    1UNL    O12   28   0.331  -0.009   0.203
    1UNL    C17   29   0.546  -0.094   0.258
    1UNL    C18   30   0.588  -0.184   0.141
    1UNL    O13   31   0.598  -0.130   0.035
    1UNL    O14   32   0.599  -0.321   0.166
    1UNL    C19   33   0.548   0.137  -0.144
    1UNL    O15   34   0.662   0.132  -0.067
    1UNL    C20   35   0.543   0.031  -0.267
    1UNL    O16   36   0.651   0.062  -0.357
    1UNL    C21   37   0.404   0.034  -0.338
    1UNL    O17   38   0.408  -0.068  -0.434
    1UNL    C22   39  -0.501  -0.098  -0.059
    1UNL    C23   40  -0.500  -0.087   0.098
    1UNL    C24   41  -0.563   0.039   0.151
    1UNL    C25   42  -0.641   0.120   0.084
    1UNL    C26   43  -0.693   0.254   0.150
    1UNL    C27   44  -0.661   0.094  -0.065
    1UNL    C28   45  -0.534   0.035  -0.126
    1UNL     H1   46  -0.345  -0.302   0.048
    1UNL     H2   47  -0.208  -0.292  -0.074
    1UNL     H3   48  -0.319  -0.128  -0.323
    1UNL     H4   49  -0.297   0.011  -0.227
    1UNL     H5   50  -0.087  -0.028  -0.376
    1UNL     H6   51  -0.159   0.040  -0.035
    1UNL     H7   52  -0.070   0.327  -0.062
    1UNL     H8   53  -0.234   0.278  -0.063
    1UNL     H9   54  -0.125   0.161   0.404
    1UNL    H10   55  -0.190   0.321   0.344
    1UNL    H11   56  -0.427   0.061   0.523
    1UNL    H12   57   0.125   0.140  -0.074
    1UNL    H13   58   0.148   0.053   0.142
    1UNL    H14   59   0.006  -0.139  -0.051
    1UNL    H15   60   0.232  -0.091   0.050
    1UNL    H16   61   0.098  -0.167  -0.283
    1UNL    H17   62   0.305  -0.075  -0.187
    1UNL    H18   63   0.422  -0.001  -0.027
    1UNL    H19   64   0.329   0.208   0.127
    1UNL    H20   65   0.464   0.294   0.054
    1UNL    H21   66   0.634  -0.060   0.302
    1UNL    H22   67   0.492  -0.160   0.330
    1UNL    H23   68   0.637  -0.371   0.090
    1UNL    H24   69   0.540   0.241  -0.181
    1UNL    H25   70   0.640   0.065   0.009
    1UNL    H26   71   0.567  -0.064  -0.222
    1UNL    H27   72   0.650   0.153  -0.388
    1UNL    H28   73   0.387   0.129  -0.395
    1UNL    H29   74   0.317  -0.079  -0.465
    1UNL    H30   75  -0.583  -0.160  -0.087
    1UNL    H31   76  -0.393  -0.074   0.132
    1UNL    H32   77  -0.538  -0.174   0.144
    1UNL    H33   78  -0.551   0.049   0.254
    1UNL    H34   79  -0.720   0.230   0.250
    1UNL    H35   80  -0.607   0.335   0.167
    1UNL    H36   81  -0.771   0.317   0.098
    1UNL    H37   82  -0.738   0.009  -0.069
    1UNL    H38   83  -0.687   0.182  -0.122
    1UNL    H39   84  -0.545   0.018  -0.236
    1UNL    H40   85  -0.455   0.111  -0.114
   0.00000   0.00000   0.00000   0.00000   0.00000   0.00000   0.00000   0.00000   0.00000
Generated with MDTraj, t= 79.0
 85
    1UNL     C1    1  -0.354  -0.286  -0.093
    1UNL     C2    2  -0.383  -0.162  -0.127
    1UNL     C3    3  -0.294  -0.088  -0.220
    1UNL     O1    4  -0.157  -0.135  -0.224
    1UNL     C4    5  -0.061  -0.035  -0.260
    1UNL     O2    6  -0.094   0.090  -0.206
    1UNL     C5    7  -0.089   0.099  -0.058
    1UNL     C6    8  -0.131   0.237  -0.007
    1UNL     O3    9  -0.135   0.266   0.135
    1UNL     C7   10  -0.209   0.169   0.190
    1UNL     O4   11  -0.278   0.086   0.138
    1UNL     C8   12  -0.198   0.162   0.341
    1UNL     C9   13  -0.332   0.176   0.403
    1UNL     O5   14  -0.424   0.233   0.354
    1UNL     O6   15  -0.348   0.113   0.520
    1UNL    C10   16   0.051   0.068  -0.006
    1UNL     O7   17   0.060   0.070   0.135
    1UNL    C11   18   0.086  -0.084  -0.068
    1UNL     O8   19   0.212  -0.135  -0.028
    1UNL    C12   20   0.083  -0.085  -0.220
    1UNL     O9   21   0.166   0.008  -0.290
    1UNL    C13   22   0.300   0.021  -0.231
    1UNL    O10   23   0.306   0.124  -0.129
    1UNL    C14   24   0.437   0.121  -0.057
    1UNL    C15   25   0.437   0.199   0.073
    1UNL    O11   26   0.511   0.131   0.177
    1UNL    C16   27   0.451   0.013   0.217
    1UNL    O12   28   0.333  -0.006   0.203
    1UNL    C17   29   0.544  -0.098   0.260
    1UNL    C18   30   0.590  -0.176   0.133
    1UNL    O13   31   0.617  -0.124   0.025
    1UNL    O14   32   0.626  -0.306   0.152
    1UNL    C19   33   0.558   0.149  -0.154
    1UNL    O15   34   0.679   0.136  -0.092
    1UNL    C20   35   0.547   0.036  -0.272
    1UNL    O16   36   0.650   0.064  -0.371
    1UNL    C21   37   0.403   0.037  -0.337
    1UNL    O17   38   0.390  -0.061  -0.435
    1UNL    C22   39  -0.509  -0.101  -0.075
    1UNL    C23   40  -0.488  -0.071   0.082
    1UNL    C24   41  -0.552   0.058   0.138
    1UNL    C25   42  -0.637   0.132   0.075
    1UNL    C26   43  -0.694   0.256   0.140
    1UNL    C27   44  -0.678   0.099  -0.069
    1UNL    C28   45  -0.560   0.027  -0.142
    1UNL     H1   46  -0.411  -0.351  -0.042
    1UNL     H2   47  -0.259  -0.326  -0.131
    1UNL     H3   48  -0.341  -0.088  -0.319
    1UNL     H4   49  -0.288   0.013  -0.193
    1UNL     H5   50  -0.070  -0.036  -0.370
    1UNL     H6   51  -0.158   0.029  -0.018
    1UNL     H7   52  -0.058   0.312  -0.045
    1UNL     H8   53  -0.225   0.268  -0.051
    1UNL     H9   54  -0.145   0.068   0.366
    1UNL    H10   55  -0.138   0.247   0.386
    1UNL    H11   56  -0.433   0.151   0.551
    1UNL    H12   57   0.121   0.144  -0.052
    1UNL    H13   58   0.149   0.040   0.166
    1UNL    H14   59   0.012  -0.156  -0.030
    1UNL    H15   60   0.240  -0.088   0.049
    1UNL    H16   61   0.115  -0.182  -0.261
    1UNL    H17   62   0.318  -0.076  -0.176
    1UNL    H18   63   0.449   0.014  -0.031
    1UNL    H19   64   0.333   0.219   0.100
    1UNL    H20   65   0.480   0.302   0.051
    1UNL    H21   66   0.628  -0.043   0.302
    1UNL    H22   67   0.502  -0.159   0.335
    1UNL    H23   68   0.654  -0.346   0.067
    1UNL    H24   69   0.546   0.253  -0.191
    1UNL    H25   70   0.677   0.054  -0.044
    1UNL    H26   71   0.572  -0.060  -0.236
    1UNL    H27   72   0.717   0.138  -0.363
    1UNL    H28   73   0.386   0.132  -0.396
    1UNL    H29   74   0.297  -0.077  -0.446
    1UNL    H30   75  -0.590  -0.169  -0.086
    1UNL    H31   76  -0.377  -0.054   0.108
    1UNL    H32   77  -0.518  -0.153   0.141
    1UNL    H33   78  -0.526   0.077   0.241
    1UNL    H34   79  -0.729   0.236   0.239
    1UNL    H35   80  -0.620   0.338   0.163
    1UNL    H36   81  -0.771   0.318   0.086
    1UNL    H37   82  -0.751   0.011  -0.059
    1UNL    H38   83  -0.721   0.184  -0.117
    1UNL    H39   84  -0.580   0.025  -0.255
    1UNL    H40   85  -0.473   0.090  -0.134
   0.00000   0.00000   0.00000   0.00000   0.00000   0.00000   0.00000   0.00000   0.00000
Generated with MDTraj, t= 80.0
 85
    1UNL     C1    1  -0.403  -0.307  -0.165
    1UNL     C2    2  -0.414  -0.173  -0.149
    1UNL     C3    3  -0.296  -0.085  -0.198
    1UNL     O1    4  -0.164  -0.132  -0.174
    1UNL     C4    5  -0.073  -0.040  -0.232
    1UNL     O2    6  -0.086   0.096  -0.182
    1UNL     C5    7  -0.073   0.092  -0.043
    1UNL     C6    8  -0.104   0.232   0.011
    1UNL     O3    9  -0.105   0.236   0.146
    1UNL     C7   10  -0.217   0.172   0.196
    1UNL     O4   11  -0.293   0.112   0.125
    1UNL     C8   12  -0.215   0.158   0.344
    1UNL     C9   13  -0.346   0.188   0.411
    1UNL     O5   14  -0.430   0.256   0.363
    1UNL     O6   15  -0.336   0.134   0.539
    1UNL    C10   16   0.062   0.040   0.005
    1UNL     O7   17   0.068   0.044   0.151
    1UNL    C11   18   0.097  -0.097  -0.064
    1UNL     O8   19   0.221  -0.146  -0.028
    1UNL    C12   20   0.073  -0.086  -0.212
    1UNL     O9   21   0.159   0.004  -0.282
    1UNL    C13   22   0.300   0.019  -0.234
    1UNL    O10   23   0.311   0.111  -0.122
    1UNL    C14   24   0.443   0.109  -0.058
    1UNL    C15   25   0.453   0.199   0.063
    1UNL    O11   26   0.532   0.129   0.156
    1UNL    C16   27   0.462   0.016   0.200
    1UNL    O12   28   0.341   0.005   0.193
    1UNL    C17   29   0.545  -0.100   0.258
    1UNL    C18   30   0.601  -0.170   0.148
    1UNL    O13   31   0.642  -0.115   0.046
    1UNL    O14   32   0.636  -0.296   0.172
    1UNL    C19   33   0.550   0.147  -0.164
    1UNL    O15   34   0.675   0.133  -0.103
    1UNL    C20   35   0.544   0.056  -0.287
    1UNL    O16   36   0.634   0.097  -0.382
    1UNL    C21   37   0.404   0.047  -0.343
    1UNL    O17   38   0.383  -0.046  -0.444
    1UNL    C22   39  -0.525  -0.099  -0.086
    1UNL    C23   40  -0.499  -0.076   0.067
    1UNL    C24   41  -0.570   0.040   0.126
    1UNL    C25   42  -0.640   0.126   0.059
    1UNL    C26   43  -0.674   0.263   0.118
    1UNL    C27   44  -0.691   0.096  -0.084
    1UNL    C28   45  -0.573   0.029  -0.155
    1UNL     H1   46  -0.479  -0.383  -0.149
    1UNL     H2   47  -0.310  -0.343  -0.218
    1UNL     H3   48  -0.308  -0.073  -0.307
    1UNL     H4   49  -0.307   0.016  -0.161
    1UNL     H5   50  -0.106  -0.035  -0.335
    1UNL     H6   51  -0.149   0.031  -0.003
    1UNL     H7   52  -0.024   0.307  -0.020
    1UNL     H8   53  -0.199   0.274  -0.021
    1UNL     H9   54  -0.206   0.047   0.362
    1UNL    H10   55  -0.119   0.205   0.381
    1UNL    H11   56  -0.418   0.162   0.584
    1UNL    H12   57   0.135   0.118  -0.034
    1UNL    H13   58   0.160   0.035   0.190
    1UNL    H14   59   0.026  -0.179  -0.031
    1UNL    H15   60   0.259  -0.084   0.043
    1UNL    H16   61   0.097  -0.180  -0.263
    1UNL    H17   62   0.316  -0.082  -0.187
    1UNL    H18   63   0.472   0.008  -0.028
    1UNL    H19   64   0.351   0.211   0.097
    1UNL    H20   65   0.497   0.302   0.038
    1UNL    H21   66   0.629  -0.053   0.311
    1UNL    H22   67   0.488  -0.157   0.319
    1UNL    H23   68   0.681  -0.330   0.094
    1UNL    H24   69   0.548   0.256  -0.189
    1UNL    H25   70   0.670   0.062  -0.040
    1UNL    H26   71   0.562  -0.043  -0.258
    1UNL    H27   72   0.681   0.019  -0.428
    1UNL    H28   73   0.382   0.144  -0.395
    1UNL    H29   74   0.283  -0.050  -0.461
    1UNL    H30   75  -0.611  -0.162  -0.098
    1UNL    H31   76  -0.384  -0.065   0.075
    1UNL    H32   77  -0.525  -0.160   0.130
    1UNL    H33   78  -0.538   0.061   0.232
    1UNL    H34   79  -0.745   0.242   0.201
    1UNL    H35   80  -0.595   0.315   0.165
    1UNL    H36   81  -0.718   0.330   0.039
    1UNL    H37   82  -0.785   0.034  -0.071
    1UNL    H38   83  -0.706   0.189  -0.133
    1UNL    H39   84  -0.593  -0.002  -0.264
    1UNL    H40   85  -0.495   0.100  -0.167
   0.00000   0.00000   0.00000   0.00000   0.00000   0.00000   0.00000   0.00000   0.00000
Generated with MDTraj, t= 81.0
 85
    1UNL     C1    1  -0.414  -0.287  -0.218
    1UNL     C2    2  -0.413  -0.161  -0.175
    1UNL     C3    3  -0.299  -0.071  -0.202
    1UNL     O1    4  -0.171  -0.130  -0.194
    1UNL     C4    5  -0.071  -0.043  -0.225
    1UNL     O2    6  -0.088   0.090  -0.163
    1UNL     C5    7  -0.074   0.085  -0.024
    1UNL     C6    8  -0.097   0.231   0.025
    1UNL     O3    9  -0.097   0.242   0.165
    1UNL     C7   10  -0.199   0.177   0.214
    1UNL     O4   11  -0.277   0.119   0.141
    1UNL     C8   12  -0.219   0.164   0.361
    1UNL     C9   13  -0.354   0.197   0.408
    1UNL     O5   14  -0.450   0.233   0.350
    1UNL     O6   15  -0.370   0.169   0.537
    1UNL    C10   16   0.072   0.040   0.017
    1UNL     O7   17   0.089   0.035   0.167
    1UNL    C11   18   0.107  -0.097  -0.047
    1UNL     O8   19   0.234  -0.149  -0.024
    1UNL    C12   20   0.075  -0.098  -0.200
    1UNL     O9   21   0.159  -0.005  -0.278
    1UNL    C13   22   0.289   0.013  -0.234
    1UNL    O10   23   0.300   0.106  -0.127
    1UNL    C14   24   0.431   0.100  -0.069
    1UNL    C15   25   0.432   0.181   0.061
    1UNL    O11   26   0.522   0.127   0.150
    1UNL    C16   27   0.482   0.013   0.207
    1UNL    O12   28   0.368  -0.025   0.210
    1UNL    C17   29   0.591  -0.069   0.272
    1UNL    C18   30   0.638  -0.165   0.169
    1UNL    O13   31   0.668  -0.129   0.056
    1UNL    O14   32   0.644  -0.295   0.209
    1UNL    C19   33   0.545   0.136  -0.177
    1UNL    O15   34   0.676   0.124  -0.118
    1UNL    C20   35   0.527   0.067  -0.312
    1UNL    O16   36   0.618   0.113  -0.403
    1UNL    C21   37   0.376   0.054  -0.353
    1UNL    O17   38   0.356  -0.041  -0.459
    1UNL    C22   39  -0.537  -0.112  -0.106
    1UNL    C23   40  -0.508  -0.080   0.049
    1UNL    C24   41  -0.541   0.054   0.105
    1UNL    C25   42  -0.634   0.130   0.056
    1UNL    C26   43  -0.675   0.260   0.122
    1UNL    C27   44  -0.693   0.094  -0.078
    1UNL    C28   45  -0.590   0.021  -0.168
    1UNL     H1   46  -0.498  -0.349  -0.191
    1UNL     H2   47  -0.336  -0.329  -0.267
    1UNL     H3   48  -0.305  -0.016  -0.299
    1UNL     H4   49  -0.307   0.005  -0.124
    1UNL     H5   50  -0.093  -0.017  -0.324
    1UNL     H6   51  -0.142   0.015   0.015
    1UNL     H7   52  -0.015   0.297  -0.022
    1UNL     H8   53  -0.187   0.275  -0.015
    1UNL     H9   54  -0.193   0.055   0.384
    1UNL    H10   55  -0.149   0.227   0.421
    1UNL    H11   56  -0.457   0.201   0.568
    1UNL    H12   57   0.145   0.121  -0.017
    1UNL    H13   58   0.182   0.017   0.184
    1UNL    H14   59   0.041  -0.179  -0.002
    1UNL    H15   60   0.279  -0.124   0.060
    1UNL    H16   61   0.089  -0.195  -0.248
    1UNL    H17   62   0.324  -0.088  -0.196
    1UNL    H18   63   0.454  -0.001  -0.037
    1UNL    H19   64   0.335   0.196   0.105
    1UNL    H20   65   0.481   0.279   0.031
    1UNL    H21   66   0.675  -0.008   0.307
    1UNL    H22   67   0.547  -0.121   0.352
    1UNL    H23   68   0.677  -0.358   0.142
    1UNL    H24   69   0.541   0.245  -0.196
    1UNL    H25   70   0.681   0.030  -0.088
    1UNL    H26   71   0.556  -0.032  -0.294
    1UNL    H27   72   0.572   0.190  -0.441
    1UNL    H28   73   0.344   0.155  -0.389
    1UNL    H29   74   0.259  -0.045  -0.480
    1UNL    H30   75  -0.612  -0.185  -0.124
    1UNL    H31   76  -0.400  -0.099   0.075
    1UNL    H32   77  -0.561  -0.162   0.103
    1UNL    H33   78  -0.487   0.080   0.188
    1UNL    H34   79  -0.780   0.241   0.165
    1UNL    H35   80  -0.610   0.280   0.202
    1UNL    H36   81  -0.670   0.332   0.040
    1UNL    H37   82  -0.771   0.015  -0.062
    1UNL    H38   83  -0.739   0.180  -0.122
    1UNL    H39   84  -0.639   0.008  -0.272
    1UNL    H40   85  -0.503   0.077  -0.193
   0.00000   0.00000   0.00000   0.00000   0.00000   0.00000   0.00000   0.00000   0.00000
Generated with MDTraj, t= 82.0
 85
    1UNL     C1    1  -0.417  -0.269  -0.256
    1UNL     C2    2  -0.415  -0.149  -0.194
    1UNL     C3    3  -0.304  -0.052  -0.215
    1UNL     O1    4  -0.182  -0.106  -0.177
    1UNL     C4    5  -0.077  -0.027  -0.216
    1UNL     O2    6  -0.079   0.106  -0.159
    1UNL     C5    7  -0.061   0.095  -0.020
    1UNL     C6    8  -0.101   0.230   0.038
    1UNL     O3    9  -0.102   0.242   0.177
    1UNL     C7   10  -0.198   0.173   0.245
    1UNL     O4   11  -0.254   0.080   0.185
    1UNL     C8   12  -0.233   0.189   0.388
    1UNL     C9   13  -0.383   0.199   0.415
    1UNL     O5   14  -0.469   0.210   0.331
    1UNL     O6   15  -0.409   0.197   0.550
    1UNL    C10   16   0.077   0.032   0.014
    1UNL     O7   17   0.109   0.039   0.158
    1UNL    C11   18   0.099  -0.108  -0.053
    1UNL     O8   19   0.226  -0.163  -0.032
    1UNL    C12   20   0.062  -0.097  -0.197
    1UNL     O9   21   0.152  -0.024  -0.288
    1UNL    C13   22   0.281  -0.004  -0.243
    1UNL    O10   23   0.295   0.083  -0.135
    1UNL    C14   24   0.424   0.088  -0.071
    1UNL    C15   25   0.431   0.178   0.057
    1UNL    O11   26   0.532   0.142   0.145
    1UNL    C16   27   0.500   0.021   0.200
    1UNL    O12   28   0.388  -0.025   0.197
    1UNL    C17   29   0.609  -0.048   0.266
    1UNL    C18   30   0.664  -0.162   0.176
    1UNL    O13   31   0.690  -0.136   0.060
    1UNL    O14   32   0.677  -0.289   0.229
    1UNL    C19   33   0.537   0.121  -0.169
    1UNL    O15   34   0.665   0.087  -0.118
    1UNL    C20   35   0.522   0.054  -0.305
    1UNL    O16   36   0.601   0.139  -0.399
    1UNL    C21   37   0.374   0.052  -0.354
    1UNL    O17   38   0.366  -0.031  -0.475
    1UNL    C22   39  -0.536  -0.106  -0.102
    1UNL    C23   40  -0.484  -0.071   0.043
    1UNL    C24   41  -0.539   0.053   0.099
    1UNL    C25   42  -0.635   0.123   0.044
    1UNL    C26   43  -0.664   0.259   0.105
    1UNL    C27   44  -0.707   0.084  -0.076
    1UNL    C28   45  -0.609   0.015  -0.165
    1UNL     H1   46  -0.500  -0.342  -0.228
    1UNL     H2   47  -0.338  -0.304  -0.318
    1UNL     H3   48  -0.299  -0.033  -0.327
    1UNL     H4   49  -0.309   0.049  -0.169
    1UNL     H5   50  -0.096  -0.006  -0.316
    1UNL     H6   51  -0.138   0.026   0.003
    1UNL     H7   52  -0.037   0.317   0.000
    1UNL     H8   53  -0.195   0.248  -0.010
    1UNL     H9   54  -0.193   0.100   0.448
    1UNL    H10   55  -0.177   0.278   0.424
    1UNL    H11   56  -0.500   0.228   0.572
    1UNL    H12   57   0.149   0.107  -0.027
    1UNL    H13   58   0.204   0.008   0.180
    1UNL    H14   59   0.025  -0.179  -0.005
    1UNL    H15   60   0.278  -0.134   0.046
    1UNL    H16   61   0.056  -0.196  -0.245
    1UNL    H17   62   0.329  -0.099  -0.210
    1UNL    H18   63   0.440  -0.012  -0.033
    1UNL    H19   64   0.337   0.169   0.107
    1UNL    H20   65   0.457   0.283   0.030
    1UNL    H21   66   0.690   0.016   0.287
    1UNL    H22   67   0.573  -0.098   0.358
    1UNL    H23   68   0.732  -0.349   0.172
    1UNL    H24   69   0.522   0.226  -0.201
    1UNL    H25   70   0.668   0.002  -0.072
    1UNL    H26   71   0.577  -0.038  -0.311
    1UNL    H27   72   0.577   0.101  -0.483
    1UNL    H28   73   0.347   0.156  -0.373
    1UNL    H29   74   0.273  -0.028  -0.495
    1UNL    H30   75  -0.606  -0.185  -0.091
    1UNL    H31   76  -0.372  -0.069   0.038
    1UNL    H32   77  -0.497  -0.158   0.120
    1UNL    H33   78  -0.484   0.091   0.192
    1UNL    H34   79  -0.773   0.278   0.100
    1UNL    H35   80  -0.638   0.267   0.210
    1UNL    H36   81  -0.616   0.329   0.043
    1UNL    H37   82  -0.784   0.016  -0.043
    1UNL    H38   83  -0.744   0.174  -0.127
    1UNL    H39   84  -0.660  -0.025  -0.259
    1UNL    H40   85  -0.543   0.092  -0.206
   0.00000   0.00000   0.00000   0.00000   0.00000   0.00000   0.00000   0.00000   0.00000
Generated with MDTraj, t= 83.0
 85
    1UNL     C1    1  -0.422  -0.261  -0.266
    1UNL     C2    2  -0.421  -0.146  -0.200
    1UNL     C3    3  -0.308  -0.055  -0.227
    1UNL     O1    4  -0.184  -0.114  -0.207
    1UNL     C4    5  -0.080  -0.021  -0.215
    1UNL     O2    6  -0.098   0.102  -0.146
    1UNL     C5    7  -0.075   0.094  -0.001
    1UNL     C6    8  -0.103   0.229   0.063
    1UNL     O3    9  -0.115   0.238   0.202
    1UNL     C7   10  -0.207   0.146   0.255
    1UNL     O4   11  -0.259   0.046   0.204
    1UNL     C8   12  -0.244   0.169   0.399
    1UNL     C9   13  -0.383   0.209   0.422
    1UNL     O5   14  -0.463   0.233   0.330
    1UNL     O6   15  -0.423   0.212   0.548
    1UNL    C10   16   0.068   0.046   0.025
    1UNL     O7   17   0.099   0.042   0.168
    1UNL    C11   18   0.095  -0.090  -0.044
    1UNL     O8   19   0.217  -0.157  -0.024
    1UNL    C12   20   0.064  -0.083  -0.193
    1UNL     O9   21   0.156  -0.005  -0.281
    1UNL    C13   22   0.289  -0.005  -0.235
    1UNL    O10   23   0.309   0.095  -0.135
    1UNL    C14   24   0.437   0.093  -0.080
    1UNL    C15   25   0.444   0.180   0.046
    1UNL    O11   26   0.534   0.136   0.143
    1UNL    C16   27   0.488   0.013   0.190
    1UNL    O12   28   0.381  -0.044   0.169
    1UNL    C17   29   0.594  -0.064   0.269
    1UNL    C18   30   0.674  -0.159   0.184
    1UNL    O13   31   0.674  -0.139   0.065
    1UNL    O14   32   0.727  -0.267   0.239
    1UNL    C19   33   0.543   0.133  -0.187
    1UNL    O15   34   0.679   0.117  -0.124
    1UNL    C20   35   0.534   0.041  -0.313
    1UNL    O16   36   0.613   0.092  -0.425
    1UNL    C21   37   0.388   0.037  -0.356
    1UNL    O17   38   0.376  -0.043  -0.479
    1UNL    C22   39  -0.535  -0.100  -0.113
    1UNL    C23   40  -0.476  -0.056   0.023
    1UNL    C24   41  -0.519   0.074   0.080
    1UNL    C25   42  -0.634   0.131   0.046
    1UNL    C26   43  -0.672   0.254   0.110
    1UNL    C27   44  -0.720   0.064  -0.059
    1UNL    C28   45  -0.624   0.005  -0.174
    1UNL     H1   46  -0.513  -0.312  -0.269
    1UNL     H2   47  -0.341  -0.284  -0.331
    1UNL     H3   48  -0.313  -0.014  -0.334
    1UNL     H4   49  -0.318   0.030  -0.156
    1UNL     H5   50  -0.079   0.006  -0.318
    1UNL     H6   51  -0.141   0.021   0.038
    1UNL     H7   52  -0.016   0.291   0.019
    1UNL     H8   53  -0.186   0.284   0.027
    1UNL     H9   54  -0.229   0.069   0.453
    1UNL    H10   55  -0.175   0.235   0.456
    1UNL    H11   56  -0.517   0.241   0.540
    1UNL    H12   57   0.140   0.123  -0.014
    1UNL    H13   58   0.192   0.015   0.177
    1UNL    H14   59   0.024  -0.162   0.000
    1UNL    H15   60   0.274  -0.105   0.041
    1UNL    H16   61   0.072  -0.181  -0.244
    1UNL    H17   62   0.313  -0.101  -0.188
    1UNL    H18   63   0.465  -0.009  -0.048
    1UNL    H19   64   0.352   0.164   0.097
    1UNL    H20   65   0.462   0.285   0.015
    1UNL    H21   66   0.663  -0.000   0.311
    1UNL    H22   67   0.560  -0.132   0.355
    1UNL    H23   68   0.754  -0.327   0.164
    1UNL    H24   69   0.528   0.238  -0.211
    1UNL    H25   70   0.679   0.056  -0.049
    1UNL    H26   71   0.570  -0.058  -0.282
    1UNL    H27   72   0.550   0.096  -0.499
    1UNL    H28   73   0.352   0.138  -0.376
    1UNL    H29   74   0.279  -0.042  -0.508
    1UNL    H30   75  -0.598  -0.182  -0.089
    1UNL    H31   76  -0.365  -0.064   0.025
    1UNL    H32   77  -0.492  -0.146   0.100
    1UNL    H33   78  -0.443   0.116   0.141
    1UNL    H34   79  -0.758   0.295   0.078
    1UNL    H35   80  -0.686   0.247   0.221
    1UNL    H36   81  -0.601   0.328   0.082
    1UNL    H37   82  -0.774  -0.016  -0.018
    1UNL    H38   83  -0.783   0.144  -0.101
    1UNL    H39   84  -0.684  -0.027  -0.263
    1UNL    H40   85  -0.555   0.080  -0.219
   0.00000   0.00000   0.00000   0.00000   0.00000   0.00000   0.00000   0.00000   0.00000
Generated with MDTraj, t= 84.0
 85
    1UNL     C1    1  -0.436  -0.264  -0.273
    1UNL     C2    2  -0.428  -0.147  -0.209
    1UNL     C3    3  -0.311  -0.052  -0.232
    1UNL     O1    4  -0.186  -0.104  -0.196
    1UNL     C4    5  -0.083  -0.008  -0.227
    1UNL     O2    6  -0.099   0.118  -0.160
    1UNL     C5    7  -0.072   0.100  -0.011
    1UNL     C6    8  -0.112   0.214   0.074
    1UNL     O3    9  -0.118   0.199   0.215
    1UNL     C7   10  -0.217   0.116   0.250
    1UNL     O4   11  -0.282   0.038   0.189
    1UNL     C8   12  -0.251   0.126   0.397
    1UNL     C9   13  -0.377   0.208   0.419
    1UNL     O5   14  -0.427   0.262   0.320
    1UNL     O6   15  -0.421   0.218   0.547
    1UNL    C10   16   0.069   0.052   0.013
    1UNL     O7   17   0.092   0.040   0.151
    1UNL    C11   18   0.092  -0.083  -0.059
    1UNL     O8   19   0.218  -0.135  -0.038
    1UNL    C12   20   0.066  -0.065  -0.208
    1UNL     O9   21   0.153   0.025  -0.281
    1UNL    C13   22   0.287   0.022  -0.226
    1UNL    O10   23   0.309   0.124  -0.131
    1UNL    C14   24   0.437   0.105  -0.071
    1UNL    C15   25   0.462   0.188   0.055
    1UNL    O11   26   0.552   0.113   0.133
    1UNL    C16   27   0.488   0.013   0.199
    1UNL    O12   28   0.366   0.000   0.201
    1UNL    C17   29   0.573  -0.088   0.263
    1UNL    C18   30   0.680  -0.145   0.162
    1UNL    O13   31   0.676  -0.106   0.047
    1UNL    O14   32   0.774  -0.233   0.214
    1UNL    C19   33   0.552   0.109  -0.181
    1UNL    O15   34   0.681   0.104  -0.115
    1UNL    C20   35   0.527   0.009  -0.295
    1UNL    O16   36   0.619   0.033  -0.397
    1UNL    C21   37   0.389   0.030  -0.343
    1UNL    O17   38   0.346  -0.070  -0.436
    1UNL    C22   39  -0.528  -0.107  -0.107
    1UNL    C23   40  -0.463  -0.057   0.024
    1UNL    C24   41  -0.529   0.068   0.087
    1UNL    C25   42  -0.640   0.127   0.047
    1UNL    C26   43  -0.672   0.254   0.118
    1UNL    C27   44  -0.721   0.071  -0.067
    1UNL    C28   45  -0.619   0.001  -0.167
    1UNL     H1   46  -0.522  -0.321  -0.254
    1UNL     H2   47  -0.363  -0.298  -0.355
    1UNL     H3   48  -0.306  -0.032  -0.344
    1UNL     H4   49  -0.325   0.042  -0.175
    1UNL     H5   50  -0.092  -0.001  -0.335
    1UNL     H6   51  -0.139   0.023   0.022
    1UNL     H7   52  -0.039   0.299   0.069
    1UNL     H8   53  -0.195   0.256   0.024
    1UNL     H9   54  -0.262   0.021   0.439
    1UNL    H10   55  -0.166   0.163   0.459
    1UNL    H11   56  -0.495   0.281   0.545
    1UNL    H12   57   0.147   0.124  -0.027
    1UNL    H13   58   0.183   0.002   0.178
    1UNL    H14   59   0.023  -0.157  -0.023
    1UNL    H15   60   0.263  -0.108   0.044
    1UNL    H16   61   0.077  -0.161  -0.262
    1UNL    H17   62   0.306  -0.076  -0.182
    1UNL    H18   63   0.431  -0.002  -0.040
    1UNL    H19   64   0.371   0.199   0.108
    1UNL    H20   65   0.508   0.286   0.030
    1UNL    H21   66   0.612  -0.048   0.355
    1UNL    H22   67   0.497  -0.167   0.295
    1UNL    H23   68   0.816  -0.256   0.128
    1UNL    H24   69   0.546   0.206  -0.229
    1UNL    H25   70   0.680   0.025  -0.051
    1UNL    H26   71   0.546  -0.097  -0.262
    1UNL    H27   72   0.573   0.042  -0.485
    1UNL    H28   73   0.381   0.118  -0.405
    1UNL    H29   74   0.251  -0.078  -0.464
    1UNL    H30   75  -0.584  -0.194  -0.082
    1UNL    H31   76  -0.353  -0.050   0.011
    1UNL    H32   77  -0.459  -0.149   0.098
    1UNL    H33   78  -0.474   0.103   0.171
    1UNL    H34   79  -0.770   0.289   0.115
    1UNL    H35   80  -0.647   0.250   0.224
    1UNL    H36   81  -0.617   0.327   0.063
    1UNL    H37   82  -0.786   0.002  -0.024
    1UNL    H38   83  -0.771   0.151  -0.127
    1UNL    H39   84  -0.664  -0.044  -0.258
    1UNL    H40   85  -0.557   0.087  -0.212
   0.00000   0.00000   0.00000   0.00000   0.00000   0.00000   0.00000   0.00000   0.00000
Generated with MDTraj, t= 85.0
 85
    1UNL     C1    1  -0.410  -0.263  -0.253
    1UNL     C2    2  -0.422  -0.141  -0.201
    1UNL     C3    3  -0.316  -0.046  -0.238
    1UNL     O1    4  -0.188  -0.100  -0.211
    1UNL     C4    5  -0.085  -0.001  -0.221
    1UNL     O2    6  -0.107   0.118  -0.150
    1UNL     C5    7  -0.091   0.103  -0.004
    1UNL     C6    8  -0.144   0.230   0.064
    1UNL     O3    9  -0.153   0.222   0.210
    1UNL     C7   10  -0.215   0.100   0.251
    1UNL     O4   11  -0.246   0.012   0.178
    1UNL     C8   12  -0.248   0.106   0.392
    1UNL     C9   13  -0.364   0.199   0.409
    1UNL     O5   14  -0.422   0.255   0.319
    1UNL     O6   15  -0.395   0.222   0.540
    1UNL    C10   16   0.056   0.060   0.021
    1UNL     O7   17   0.078   0.040   0.167
    1UNL    C11   18   0.084  -0.072  -0.055
    1UNL     O8   19   0.204  -0.139  -0.029
    1UNL    C12   20   0.056  -0.055  -0.206
    1UNL     O9   21   0.151   0.034  -0.267
    1UNL    C13   22   0.285   0.028  -0.220
    1UNL    O10   23   0.320   0.125  -0.123
    1UNL    C14   24   0.454   0.107  -0.070
    1UNL    C15   25   0.471   0.197   0.052
    1UNL    O11   26   0.547   0.121   0.146
    1UNL    C16   27   0.485   0.008   0.189
    1UNL    O12   28   0.367  -0.020   0.175
    1UNL    C17   29   0.584  -0.092   0.253
    1UNL    C18   30   0.680  -0.149   0.155
    1UNL    O13   31   0.657  -0.147   0.038
    1UNL    O14   32   0.801  -0.186   0.210
    1UNL    C19   33   0.563   0.120  -0.180
    1UNL    O15   34   0.694   0.099  -0.138
    1UNL    C20   35   0.530   0.009  -0.283
    1UNL    O16   36   0.638  -0.007  -0.380
    1UNL    C21   37   0.387   0.028  -0.340
    1UNL    O17   38   0.359  -0.073  -0.431
    1UNL    C22   39  -0.543  -0.098  -0.114
    1UNL    C23   40  -0.492  -0.070   0.027
    1UNL    C24   41  -0.542   0.059   0.090
    1UNL    C25   42  -0.650   0.124   0.047
    1UNL    C26   43  -0.686   0.251   0.124
    1UNL    C27   44  -0.718   0.073  -0.077
    1UNL    C28   45  -0.614   0.028  -0.177
    1UNL     H1   46  -0.474  -0.343  -0.227
    1UNL     H2   47  -0.319  -0.279  -0.310
    1UNL     H3   48  -0.319  -0.018  -0.346
    1UNL     H4   49  -0.322   0.044  -0.174
    1UNL     H5   50  -0.093   0.020  -0.331
    1UNL     H6   51  -0.159   0.025   0.026
    1UNL     H7   52  -0.077   0.312   0.029
    1UNL     H8   53  -0.237   0.269   0.034
    1UNL     H9   54  -0.267   0.002   0.431
    1UNL    H10   55  -0.160   0.139   0.454
    1UNL    H11   56  -0.459   0.294   0.545
    1UNL    H12   57   0.121   0.143  -0.026
    1UNL    H13   58   0.172   0.037   0.189
    1UNL    H14   59   0.017  -0.144  -0.012
    1UNL    H15   60   0.251  -0.083   0.037
    1UNL    H16   61   0.070  -0.154  -0.252
    1UNL    H17   62   0.297  -0.064  -0.163
    1UNL    H18   63   0.450  -0.002  -0.048
    1UNL    H19   64   0.375   0.216   0.095
    1UNL    H20   65   0.517   0.296   0.027
    1UNL    H21   66   0.636  -0.040   0.340
    1UNL    H22   67   0.521  -0.169   0.300
    1UNL    H23   68   0.865  -0.192   0.140
    1UNL    H24   69   0.559   0.218  -0.228
    1UNL    H25   70   0.699   0.019  -0.079
    1UNL    H26   71   0.540  -0.087  -0.221
    1UNL    H27   72   0.596  -0.026  -0.469
    1UNL    H28   73   0.359   0.125  -0.380
    1UNL    H29   74   0.273  -0.053  -0.468
    1UNL    H30   75  -0.616  -0.176  -0.111
    1UNL    H31   76  -0.381  -0.087   0.027
    1UNL    H32   77  -0.516  -0.161   0.094
    1UNL    H33   78  -0.490   0.091   0.185
    1UNL    H34   79  -0.785   0.250   0.170
    1UNL    H35   80  -0.615   0.270   0.194
    1UNL    H36   81  -0.687   0.319   0.042
    1UNL    H37   82  -0.780  -0.010  -0.063
    1UNL    H38   83  -0.771   0.161  -0.118
    1UNL    H39   84  -0.654   0.019  -0.279
    1UNL    H40   85  -0.530   0.107  -0.190
   0.00000   0.00000   0.00000   0.00000   0.00000   0.00000   0.00000   0.00000   0.00000
Generated with MDTraj, t= 86.0
 85
    1UNL     C1    1  -0.388  -0.260  -0.231
    1UNL     C2    2  -0.412  -0.136  -0.190
    1UNL     C3    3  -0.311  -0.036  -0.228
    1UNL     O1    4  -0.180  -0.094  -0.215
    1UNL     C4    5  -0.076  -0.001  -0.240
    1UNL     O2    6  -0.101   0.125  -0.169
    1UNL     C5    7  -0.083   0.110  -0.023
    1UNL     C6    8  -0.145   0.218   0.055
    1UNL     O3    9  -0.138   0.204   0.197
    1UNL     C7   10  -0.221   0.107   0.241
    1UNL     O4   11  -0.266   0.027   0.168
    1UNL     C8   12  -0.255   0.116   0.385
    1UNL     C9   13  -0.381   0.186   0.421
    1UNL     O5   14  -0.478   0.197   0.353
    1UNL     O6   15  -0.369   0.239   0.546
    1UNL    C10   16   0.064   0.072  -0.001
    1UNL     O7   17   0.096   0.079   0.140
    1UNL    C11   18   0.078  -0.074  -0.054
    1UNL     O8   19   0.191  -0.147  -0.014
    1UNL    C12   20   0.058  -0.066  -0.214
    1UNL     O9   21   0.150   0.025  -0.281
    1UNL    C13   22   0.283   0.016  -0.230
    1UNL    O10   23   0.315   0.108  -0.123
    1UNL    C14   24   0.446   0.093  -0.065
    1UNL    C15   25   0.467   0.184   0.055
    1UNL    O11   26   0.551   0.119   0.147
    1UNL    C16   27   0.483   0.013   0.198
    1UNL    O12   28   0.362  -0.008   0.199
    1UNL    C17   29   0.578  -0.094   0.253
    1UNL    C18   30   0.678  -0.135   0.157
    1UNL    O13   31   0.649  -0.171   0.047
    1UNL    O14   32   0.807  -0.145   0.197
    1UNL    C19   33   0.563   0.107  -0.169
    1UNL    O15   34   0.682   0.064  -0.119
    1UNL    C20   35   0.533   0.002  -0.286
    1UNL    O16   36   0.630   0.024  -0.395
    1UNL    C21   37   0.389   0.026  -0.340
    1UNL    O17   38   0.372  -0.069  -0.439
    1UNL    C22   39  -0.531  -0.097  -0.108
    1UNL    C23   40  -0.498  -0.074   0.041
    1UNL    C24   41  -0.547   0.056   0.100
    1UNL    C25   42  -0.643   0.132   0.051
    1UNL    C26   43  -0.686   0.246   0.137
    1UNL    C27   44  -0.705   0.106  -0.086
    1UNL    C28   45  -0.603   0.034  -0.175
    1UNL     H1   46  -0.462  -0.338  -0.198
    1UNL     H2   47  -0.302  -0.279  -0.285
    1UNL     H3   48  -0.318  -0.017  -0.335
    1UNL     H4   49  -0.306   0.058  -0.174
    1UNL     H5   50  -0.090   0.015  -0.352
    1UNL     H6   51  -0.145   0.024   0.010
    1UNL     H7   52  -0.108   0.321   0.034
    1UNL     H8   53  -0.247   0.228   0.024
    1UNL     H9   54  -0.267   0.014   0.427
    1UNL    H10   55  -0.166   0.151   0.447
    1UNL    H11   56  -0.455   0.259   0.585
    1UNL    H12   57   0.131   0.135  -0.068
    1UNL    H13   58   0.180   0.036   0.170
    1UNL    H14   59  -0.000  -0.139  -0.016
    1UNL    H15   60   0.244  -0.096   0.055
    1UNL    H16   61   0.068  -0.168  -0.250
    1UNL    H17   62   0.306  -0.084  -0.192
    1UNL    H18   63   0.443  -0.015  -0.038
    1UNL    H19   64   0.376   0.212   0.107
    1UNL    H20   65   0.522   0.278   0.025
    1UNL    H21   66   0.622  -0.051   0.353
    1UNL    H22   67   0.518  -0.180   0.282
    1UNL    H23   68   0.860  -0.172   0.118
    1UNL    H24   69   0.576   0.211  -0.201
    1UNL    H25   70   0.675  -0.002  -0.054
    1UNL    H26   71   0.553  -0.107  -0.251
    1UNL    H27   72   0.581  -0.014  -0.470
    1UNL    H28   73   0.395   0.121  -0.395
    1UNL    H29   74   0.280  -0.073  -0.477
    1UNL    H30   75  -0.605  -0.173  -0.121
    1UNL    H31   76  -0.388  -0.087   0.062
    1UNL    H32   77  -0.537  -0.165   0.092
    1UNL    H33   78  -0.501   0.083   0.186
    1UNL    H34   79  -0.747   0.217   0.226
    1UNL    H35   80  -0.608   0.299   0.175
    1UNL    H36   81  -0.749   0.300   0.074
    1UNL    H37   82  -0.790   0.044  -0.068
    1UNL    H38   83  -0.735   0.198  -0.135
    1UNL    H39   84  -0.640   0.006  -0.274
    1UNL    H40   85  -0.530   0.118  -0.208
   0.00000   0.00000   0.00000   0.00000   0.00000   0.00000   0.00000   0.00000   0.00000
Generated with MDTraj, t= 87.0
 85
    1UNL     C1    1  -0.422  -0.272  -0.208
    1UNL     C2    2  -0.425  -0.142  -0.191
    1UNL     C3    3  -0.309  -0.056  -0.233
    1UNL     O1    4  -0.175  -0.108  -0.199
    1UNL     C4    5  -0.075  -0.012  -0.225
    1UNL     O2    6  -0.103   0.111  -0.160
    1UNL     C5    7  -0.076   0.113  -0.016
    1UNL     C6    8  -0.129   0.243   0.042
    1UNL     O3    9  -0.143   0.239   0.183
    1UNL     C7   10  -0.233   0.145   0.219
    1UNL     O4   11  -0.296   0.081   0.137
    1UNL     C8   12  -0.247   0.111   0.364
    1UNL     C9   13  -0.371   0.160   0.426
    1UNL     O5   14  -0.480   0.123   0.396
    1UNL     O6   15  -0.345   0.254   0.519
    1UNL    C10   16   0.074   0.076   0.015
    1UNL     O7   17   0.092   0.061   0.156
    1UNL    C11   18   0.106  -0.061  -0.055
    1UNL     O8   19   0.231  -0.114  -0.031
    1UNL    C12   20   0.064  -0.065  -0.204
    1UNL     O9   21   0.160   0.003  -0.291
    1UNL    C13   22   0.292   0.010  -0.248
    1UNL    O10   23   0.312   0.107  -0.145
    1UNL    C14   24   0.439   0.078  -0.080
    1UNL    C15   25   0.456   0.161   0.049
    1UNL    O11   26   0.534   0.097   0.149
    1UNL    C16   27   0.475  -0.009   0.211
    1UNL    O12   28   0.355  -0.027   0.202
    1UNL    C17   29   0.569  -0.098   0.283
    1UNL    C18   30   0.672  -0.130   0.175
    1UNL    O13   31   0.632  -0.162   0.064
    1UNL    O14   32   0.808  -0.126   0.210
    1UNL    C19   33   0.566   0.094  -0.170
    1UNL    O15   34   0.682   0.068  -0.101
    1UNL    C20   35   0.542   0.015  -0.310
    1UNL    O16   36   0.632   0.052  -0.408
    1UNL    C21   37   0.398   0.031  -0.364
    1UNL    O17   38   0.372  -0.065  -0.458
    1UNL    C22   39  -0.540  -0.082  -0.110
    1UNL    C23   40  -0.514  -0.081   0.041
    1UNL    C24   41  -0.573   0.038   0.112
    1UNL    C25   42  -0.660   0.126   0.063
    1UNL    C26   43  -0.677   0.249   0.140
    1UNL    C27   44  -0.699   0.114  -0.086
    1UNL    C28   45  -0.581   0.058  -0.168
    1UNL     H1   46  -0.510  -0.336  -0.180
    1UNL     H2   47  -0.334  -0.310  -0.251
    1UNL     H3   48  -0.315  -0.037  -0.340
    1UNL     H4   49  -0.316   0.038  -0.183
    1UNL     H5   50  -0.088   0.007  -0.339
    1UNL     H6   51  -0.144   0.038   0.033
    1UNL     H7   52  -0.062   0.331   0.025
    1UNL     H8   53  -0.222   0.280  -0.003
    1UNL     H9   54  -0.224   0.005   0.382
    1UNL    H10   55  -0.164   0.153   0.431
    1UNL    H11   56  -0.433   0.270   0.561
    1UNL    H12   57   0.136   0.156  -0.033
    1UNL    H13   58   0.184   0.053   0.192
    1UNL    H14   59   0.034  -0.131  -0.005
    1UNL    H15   60   0.274  -0.077   0.048
    1UNL    H16   61   0.077  -0.169  -0.236
    1UNL    H17   62   0.315  -0.088  -0.207
    1UNL    H18   63   0.436  -0.028  -0.049
    1UNL    H19   64   0.365   0.202   0.096
    1UNL    H20   65   0.525   0.250   0.031
    1UNL    H21   66   0.606  -0.039   0.375
    1UNL    H22   67   0.513  -0.183   0.326
    1UNL    H23   68   0.862  -0.179   0.144
    1UNL    H24   69   0.582   0.201  -0.190
    1UNL    H25   70   0.670  -0.017  -0.041
    1UNL    H26   71   0.561  -0.096  -0.287
    1UNL    H27   72   0.612   0.013  -0.493
    1UNL    H28   73   0.364   0.130  -0.407
    1UNL    H29   74   0.298  -0.036  -0.520
    1UNL    H30   75  -0.629  -0.139  -0.127
    1UNL    H31   76  -0.399  -0.080   0.045
    1UNL    H32   77  -0.543  -0.170   0.095
    1UNL    H33   78  -0.514   0.060   0.206
    1UNL    H34   79  -0.699   0.234   0.244
    1UNL    H35   80  -0.590   0.314   0.139
    1UNL    H36   81  -0.758   0.303   0.108
    1UNL    H37   82  -0.790   0.058  -0.104
    1UNL    H38   83  -0.717   0.212  -0.112
    1UNL    H39   84  -0.607   0.050  -0.275
    1UNL    H40   85  -0.492   0.127  -0.177
   0.00000   0.00000   0.00000   0.00000   0.00000   0.00000   0.00000   0.00000   0.00000
Generated with MDTraj, t= 88.0
 85
    1UNL     C1    1  -0.409  -0.260  -0.200
    1UNL     C2    2  -0.417  -0.132  -0.168
    1UNL     C3    3  -0.298  -0.045  -0.193
    1UNL     O1    4  -0.176  -0.115  -0.183
    1UNL     C4    5  -0.082  -0.021  -0.234
    1UNL     O2    6  -0.091   0.111  -0.181
    1UNL     C5    7  -0.073   0.110  -0.040
    1UNL     C6    8  -0.099   0.244   0.022
    1UNL     O3    9  -0.113   0.228   0.158
    1UNL     C7   10  -0.230   0.167   0.198
    1UNL     O4   11  -0.325   0.135   0.123
    1UNL     C8   12  -0.230   0.114   0.338
    1UNL     C9   13  -0.357   0.147   0.416
    1UNL     O5   14  -0.450   0.068   0.419
    1UNL     O6   15  -0.352   0.267   0.480
    1UNL    C10   16   0.066   0.054   0.002
    1UNL     O7   17   0.077   0.045   0.146
    1UNL    C11   18   0.091  -0.087  -0.062
    1UNL     O8   19   0.211  -0.149  -0.018
    1UNL    C12   20   0.061  -0.084  -0.213
    1UNL     O9   21   0.161  -0.010  -0.294
    1UNL    C13   22   0.290   0.009  -0.245
    1UNL    O10   23   0.312   0.099  -0.132
    1UNL    C14   24   0.441   0.075  -0.074
    1UNL    C15   25   0.448   0.172   0.051
    1UNL    O11   26   0.528   0.113   0.151
    1UNL    C16   27   0.467   0.008   0.209
    1UNL    O12   28   0.347  -0.009   0.210
    1UNL    C17   29   0.562  -0.104   0.269
    1UNL    C18   30   0.680  -0.136   0.192
    1UNL    O13   31   0.672  -0.157   0.072
    1UNL    O14   32   0.799  -0.153   0.247
    1UNL    C19   33   0.554   0.103  -0.168
    1UNL    O15   34   0.673   0.081  -0.102
    1UNL    C20   35   0.534   0.028  -0.311
    1UNL    O16   36   0.617   0.060  -0.410
    1UNL    C21   37   0.389   0.045  -0.361
    1UNL    O17   38   0.360  -0.038  -0.467
    1UNL    C22   39  -0.537  -0.074  -0.102
    1UNL    C23   40  -0.519  -0.089   0.047
    1UNL    C24   41  -0.575   0.032   0.119
    1UNL    C25   42  -0.659   0.127   0.065
    1UNL    C26   43  -0.705   0.237   0.153
    1UNL    C27   44  -0.680   0.136  -0.079
    1UNL    C28   45  -0.561   0.075  -0.152
    1UNL     H1   46  -0.492  -0.319  -0.184
    1UNL     H2   47  -0.319  -0.298  -0.248
    1UNL     H3   48  -0.307  -0.011  -0.294
    1UNL     H4   49  -0.296   0.038  -0.126
    1UNL     H5   50  -0.106  -0.014  -0.349
    1UNL     H6   51  -0.148   0.039   0.008
    1UNL     H7   52  -0.021   0.316  -0.008
    1UNL     H8   53  -0.193   0.297  -0.005
    1UNL     H9   54  -0.212   0.005   0.343
    1UNL    H10   55  -0.133   0.144   0.390
    1UNL    H11   56  -0.442   0.275   0.520
    1UNL    H12   57   0.143   0.124  -0.035
    1UNL    H13   58   0.168   0.014   0.164
    1UNL    H14   59   0.004  -0.147  -0.019
    1UNL    H15   60   0.254  -0.100   0.059
    1UNL    H16   61   0.058  -0.188  -0.248
    1UNL    H17   62   0.319  -0.090  -0.210
    1UNL    H18   63   0.453  -0.027  -0.034
    1UNL    H19   64   0.350   0.187   0.098
    1UNL    H20   65   0.487   0.276   0.028
    1UNL    H21   66   0.596  -0.073   0.367
    1UNL    H22   67   0.500  -0.199   0.290
    1UNL    H23   68   0.849  -0.199   0.172
    1UNL    H24   69   0.551   0.210  -0.192
    1UNL    H25   70   0.664   0.002  -0.050
    1UNL    H26   71   0.560  -0.081  -0.292
    1UNL    H27   72   0.595   0.019  -0.496
    1UNL    H28   73   0.379   0.150  -0.404
    1UNL    H29   74   0.265  -0.061  -0.471
    1UNL    H30   75  -0.622  -0.130  -0.134
    1UNL    H31   76  -0.408  -0.102   0.072
    1UNL    H32   77  -0.563  -0.178   0.082
    1UNL    H33   78  -0.539   0.040   0.219
    1UNL    H34   79  -0.691   0.210   0.249
    1UNL    H35   80  -0.641   0.327   0.133
    1UNL    H36   81  -0.806   0.263   0.143
    1UNL    H37   82  -0.764   0.068  -0.092
    1UNL    H38   83  -0.702   0.233  -0.107
    1UNL    H39   84  -0.571   0.076  -0.264
    1UNL    H40   85  -0.468   0.132  -0.138
   0.00000   0.00000   0.00000   0.00000   0.00000   0.00000   0.00000   0.00000   0.00000
Generated with MDTraj, t= 89.0
 85
    1UNL     C1    1  -0.425  -0.254  -0.183
    1UNL     C2    2  -0.421  -0.125  -0.157
    1UNL     C3    3  -0.313  -0.045  -0.222
    1UNL     O1    4  -0.185  -0.108  -0.214
    1UNL     C4    5  -0.078  -0.025  -0.248
    1UNL     O2    6  -0.090   0.103  -0.186
    1UNL     C5    7  -0.070   0.096  -0.044
    1UNL     C6    8  -0.072   0.235   0.013
    1UNL     O3    9  -0.096   0.234   0.147
    1UNL     C7   10  -0.216   0.174   0.178
    1UNL     O4   11  -0.312   0.150   0.101
    1UNL     C8   12  -0.220   0.129   0.320
    1UNL     C9   13  -0.352   0.140   0.386
    1UNL     O5   14  -0.431   0.048   0.394
    1UNL     O6   15  -0.386   0.264   0.432
    1UNL    C10   16   0.064   0.035   0.000
    1UNL     O7   17   0.077   0.032   0.142
    1UNL    C11   18   0.084  -0.108  -0.063
    1UNL     O8   19   0.207  -0.178  -0.039
    1UNL    C12   20   0.064  -0.092  -0.214
    1UNL     O9   21   0.161  -0.003  -0.283
    1UNL    C13   22   0.290   0.005  -0.240
    1UNL    O10   23   0.317   0.084  -0.120
    1UNL    C14   24   0.450   0.078  -0.068
    1UNL    C15   25   0.455   0.175   0.056
    1UNL    O11   26   0.523   0.115   0.165
    1UNL    C16   27   0.466  -0.006   0.199
    1UNL    O12   28   0.353  -0.034   0.165
    1UNL    C17   29   0.553  -0.091   0.281
    1UNL    C18   30   0.679  -0.131   0.204
    1UNL    O13   31   0.673  -0.116   0.081
    1UNL    O14   32   0.783  -0.187   0.272
    1UNL    C19   33   0.556   0.123  -0.164
    1UNL    O15   34   0.689   0.106  -0.113
    1UNL    C20   35   0.542   0.042  -0.302
    1UNL    O16   36   0.630   0.070  -0.408
    1UNL    C21   37   0.388   0.052  -0.352
    1UNL    O17   38   0.367  -0.041  -0.457
    1UNL    C22   39  -0.536  -0.063  -0.073
    1UNL    C23   40  -0.514  -0.064   0.079
    1UNL    C24   41  -0.585   0.041   0.153
    1UNL    C25   42  -0.672   0.128   0.096
    1UNL    C26   43  -0.727   0.235   0.185
    1UNL    C27   44  -0.694   0.133  -0.049
    1UNL    C28   45  -0.577   0.074  -0.126
    1UNL     H1   46  -0.496  -0.313  -0.133
    1UNL     H2   47  -0.344  -0.302  -0.247
    1UNL     H3   48  -0.331  -0.030  -0.328
    1UNL     H4   49  -0.301   0.047  -0.168
    1UNL     H5   50  -0.089  -0.006  -0.363
    1UNL     H6   51  -0.157   0.030  -0.009
    1UNL     H7   52   0.025   0.287  -0.001
    1UNL     H8   53  -0.147   0.292  -0.045
    1UNL     H9   54  -0.184   0.024   0.326
    1UNL    H10   55  -0.136   0.180   0.378
    1UNL    H11   56  -0.484   0.262   0.450
    1UNL    H12   57   0.155   0.090  -0.034
    1UNL    H13   58   0.162  -0.015   0.167
    1UNL    H14   59   0.000  -0.161  -0.008
    1UNL    H15   60   0.269  -0.126   0.017
    1UNL    H16   61   0.075  -0.194  -0.258
    1UNL    H17   62   0.318  -0.097  -0.218
    1UNL    H18   63   0.473  -0.022  -0.032
    1UNL    H19   64   0.354   0.204   0.082
    1UNL    H20   65   0.510   0.271   0.035
    1UNL    H21   66   0.580  -0.033   0.366
    1UNL    H22   67   0.491  -0.183   0.318
    1UNL    H23   68   0.853  -0.202   0.204
    1UNL    H24   69   0.534   0.231  -0.184
    1UNL    H25   70   0.700   0.044  -0.032
    1UNL    H26   71   0.555  -0.067  -0.288
    1UNL    H27   72   0.586   0.028  -0.488
    1UNL    H28   73   0.369   0.160  -0.379
    1UNL    H29   74   0.274  -0.072  -0.447
    1UNL    H30   75  -0.619  -0.131  -0.086
    1UNL    H31   76  -0.401  -0.041   0.094
    1UNL    H32   77  -0.520  -0.162   0.116
    1UNL    H33   78  -0.567   0.043   0.257
    1UNL    H34   79  -0.733   0.187   0.277
    1UNL    H35   80  -0.653   0.314   0.186
    1UNL    H36   81  -0.822   0.272   0.152
    1UNL    H37   82  -0.783   0.071  -0.069
    1UNL    H38   83  -0.704   0.233  -0.074
    1UNL    H39   84  -0.594   0.060  -0.238
    1UNL    H40   85  -0.491   0.140  -0.119
   0.00000   0.00000   0.00000   0.00000   0.00000   0.00000   0.00000   0.00000   0.00000
Generated with MDTraj, t= 90.0
 85
    1UNL     C1    1  -0.424  -0.254  -0.157
    1UNL     C2    2  -0.415  -0.122  -0.147
    1UNL     C3    3  -0.305  -0.043  -0.209
    1UNL     O1    4  -0.179  -0.102  -0.196
    1UNL     C4    5  -0.078  -0.025  -0.251
    1UNL     O2    6  -0.085   0.103  -0.194
    1UNL     C5    7  -0.060   0.104  -0.056
    1UNL     C6    8  -0.072   0.248   0.005
    1UNL     O3    9  -0.087   0.242   0.147
    1UNL     C7   10  -0.197   0.179   0.187
    1UNL     O4   11  -0.289   0.137   0.118
    1UNL     C8   12  -0.221   0.157   0.334
    1UNL     C9   13  -0.360   0.148   0.381
    1UNL     O5   14  -0.404   0.037   0.400
    1UNL     O6   15  -0.427   0.265   0.386
    1UNL    C10   16   0.068   0.026  -0.013
    1UNL     O7   17   0.069   0.024   0.129
    1UNL    C11   18   0.088  -0.108  -0.091
    1UNL     O8   19   0.208  -0.178  -0.060
    1UNL    C12   20   0.063  -0.085  -0.242
    1UNL     O9   21   0.155   0.001  -0.310
    1UNL    C13   22   0.282   0.005  -0.253
    1UNL    O10   23   0.301   0.091  -0.135
    1UNL    C14   24   0.430   0.082  -0.075
    1UNL    C15   25   0.420   0.160   0.062
    1UNL    O11   26   0.515   0.111   0.154
    1UNL    C16   27   0.461  -0.005   0.202
    1UNL    O12   28   0.354  -0.051   0.172
    1UNL    C17   29   0.558  -0.081   0.287
    1UNL    C18   30   0.675  -0.133   0.205
    1UNL    O13   31   0.702  -0.091   0.096
    1UNL    O14   32   0.763  -0.220   0.262
    1UNL    C19   33   0.546   0.126  -0.162
    1UNL    O15   34   0.676   0.107  -0.089
    1UNL    C20   35   0.538   0.039  -0.296
    1UNL    O16   36   0.637   0.079  -0.386
    1UNL    C21   37   0.392   0.044  -0.356
    1UNL    O17   38   0.401  -0.067  -0.449
    1UNL    C22   39  -0.528  -0.052  -0.070
    1UNL    C23   40  -0.498  -0.044   0.084
    1UNL    C24   41  -0.579   0.045   0.161
    1UNL    C25   42  -0.673   0.126   0.111
    1UNL    C26   43  -0.751   0.202   0.207
    1UNL    C27   44  -0.693   0.140  -0.039
    1UNL    C28   45  -0.576   0.078  -0.125
    1UNL     H1   46  -0.500  -0.305  -0.106
    1UNL     H2   47  -0.352  -0.305  -0.213
    1UNL     H3   48  -0.321  -0.038  -0.317
    1UNL     H4   49  -0.293   0.056  -0.169
    1UNL     H5   50  -0.107  -0.005  -0.362
    1UNL     H6   51  -0.155   0.051  -0.017
    1UNL     H7   52   0.018   0.302  -0.025
    1UNL     H8   53  -0.157   0.305  -0.037
    1UNL     H9   54  -0.155   0.075   0.369
    1UNL    H10   55  -0.179   0.245   0.392
    1UNL    H11   56  -0.518   0.245   0.417
    1UNL    H12   57   0.155   0.086  -0.048
    1UNL    H13   58   0.158  -0.002   0.157
    1UNL    H14   59   0.005  -0.178  -0.065
    1UNL    H15   60   0.257  -0.116  -0.002
    1UNL    H16   61   0.072  -0.184  -0.295
    1UNL    H17   62   0.302  -0.100  -0.231
    1UNL    H18   63   0.439  -0.025  -0.060
    1UNL    H19   64   0.319   0.169   0.099
    1UNL    H20   65   0.449   0.262   0.029
    1UNL    H21   66   0.604  -0.016   0.360
    1UNL    H22   67   0.512  -0.167   0.340
    1UNL    H23   68   0.840  -0.226   0.204
    1UNL    H24   69   0.538   0.236  -0.183
    1UNL    H25   70   0.684   0.023  -0.038
    1UNL    H26   71   0.566  -0.062  -0.270
    1UNL    H27   72   0.623   0.039  -0.474
    1UNL    H28   73   0.373   0.145  -0.399
    1UNL    H29   74   0.304  -0.086  -0.467
    1UNL    H30   75  -0.614  -0.119  -0.068
    1UNL    H31   76  -0.388  -0.031   0.099
    1UNL    H32   77  -0.517  -0.138   0.128
    1UNL    H33   78  -0.566   0.041   0.275
    1UNL    H34   79  -0.807   0.123   0.268
    1UNL    H35   80  -0.692   0.254   0.273
    1UNL    H36   81  -0.822   0.272   0.168
    1UNL    H37   82  -0.783   0.084  -0.060
    1UNL    H38   83  -0.695   0.244  -0.056
    1UNL    H39   84  -0.604   0.069  -0.236
    1UNL    H40   85  -0.489   0.142  -0.116
   0.00000   0.00000   0.00000   0.00000   0.00000   0.00000   0.00000   0.00000   0.00000
Generated with MDTraj, t= 91.0
 85
    1UNL     C1    1  -0.390  -0.250  -0.148
    1UNL     C2    2  -0.397  -0.121  -0.132
    1UNL     C3    3  -0.301  -0.038  -0.212
    1UNL     O1    4  -0.183  -0.106  -0.240
    1UNL     C4    5  -0.074  -0.010  -0.265
    1UNL     O2    6  -0.073   0.121  -0.192
    1UNL     C5    7  -0.059   0.107  -0.049
    1UNL     C6    8  -0.065   0.244   0.019
    1UNL     O3    9  -0.082   0.260   0.157
    1UNL     C7   10  -0.200   0.198   0.199
    1UNL     O4   11  -0.280   0.151   0.121
    1UNL     C8   12  -0.210   0.198   0.348
    1UNL     C9   13  -0.348   0.160   0.388
    1UNL     O5   14  -0.370   0.049   0.437
    1UNL     O6   15  -0.447   0.254   0.374
    1UNL    C10   16   0.071   0.041  -0.011
    1UNL     O7   17   0.073   0.026   0.127
    1UNL    C11   18   0.090  -0.096  -0.083
    1UNL     O8   19   0.214  -0.171  -0.065
    1UNL    C12   20   0.063  -0.077  -0.238
    1UNL     O9   21   0.165  -0.026  -0.333
    1UNL    C13   22   0.286  -0.007  -0.265
    1UNL    O10   23   0.285   0.092  -0.161
    1UNL    C14   24   0.406   0.091  -0.082
    1UNL    C15   25   0.393   0.164   0.058
    1UNL    O11   26   0.489   0.111   0.153
    1UNL    C16   27   0.455  -0.013   0.199
    1UNL    O12   28   0.348  -0.069   0.185
    1UNL    C17   29   0.567  -0.073   0.280
    1UNL    C18   30   0.675  -0.146   0.201
    1UNL    O13   31   0.702  -0.105   0.093
    1UNL    O14   32   0.733  -0.252   0.264
    1UNL    C19   33   0.523   0.135  -0.161
    1UNL    O15   34   0.646   0.145  -0.089
    1UNL    C20   35   0.539   0.040  -0.288
    1UNL    O16   36   0.642   0.062  -0.377
    1UNL    C21   37   0.402   0.031  -0.358
    1UNL    O17   38   0.411  -0.077  -0.458
    1UNL    C22   39  -0.508  -0.058  -0.061
    1UNL    C23   40  -0.496  -0.064   0.095
    1UNL    C24   41  -0.604   0.007   0.162
    1UNL    C25   42  -0.682   0.103   0.103
    1UNL    C26   43  -0.770   0.179   0.192
    1UNL    C27   44  -0.674   0.145  -0.043
    1UNL    C28   45  -0.543   0.091  -0.107
    1UNL     H1   46  -0.477  -0.310  -0.102
    1UNL     H2   47  -0.316  -0.298  -0.207
    1UNL     H3   48  -0.342  -0.005  -0.308
    1UNL     H4   49  -0.268   0.048  -0.153
    1UNL     H5   50  -0.087   0.020  -0.374
    1UNL     H6   51  -0.152   0.054  -0.008
    1UNL     H7   52   0.030   0.290  -0.003
    1UNL     H8   53  -0.147   0.302  -0.028
    1UNL     H9   54  -0.138   0.131   0.400
    1UNL    H10   55  -0.174   0.303   0.373
    1UNL    H11   56  -0.526   0.209   0.406
    1UNL    H12   57   0.155   0.110  -0.045
    1UNL    H13   58   0.166   0.006   0.161
    1UNL    H14   59   0.008  -0.161  -0.053
    1UNL    H15   60   0.262  -0.137   0.018
    1UNL    H16   61   0.058  -0.185  -0.274
    1UNL    H17   62   0.300  -0.112  -0.231
    1UNL    H18   63   0.419  -0.018  -0.067
    1UNL    H19   64   0.296   0.151   0.096
    1UNL    H20   65   0.401   0.272   0.040
    1UNL    H21   66   0.618  -0.002   0.348
    1UNL    H22   67   0.522  -0.150   0.334
    1UNL    H23   68   0.796  -0.296   0.209
    1UNL    H24   69   0.501   0.240  -0.190
    1UNL    H25   70   0.653   0.076  -0.028
    1UNL    H26   71   0.557  -0.060  -0.256
    1UNL    H27   72   0.628   0.010  -0.458
    1UNL    H28   73   0.380   0.113  -0.425
    1UNL    H29   74   0.323  -0.095  -0.498
    1UNL    H30   75  -0.597  -0.113  -0.092
    1UNL    H31   76  -0.409  -0.015   0.129
    1UNL    H32   77  -0.488  -0.165   0.123
    1UNL    H33   78  -0.637  -0.030   0.256
    1UNL    H34   79  -0.832   0.109   0.258
    1UNL    H35   80  -0.731   0.251   0.258
    1UNL    H36   81  -0.844   0.234   0.139
    1UNL    H37   82  -0.764   0.106  -0.088
    1UNL    H38   83  -0.666   0.253  -0.045
    1UNL    H39   84  -0.548   0.082  -0.222
    1UNL    H40   85  -0.464   0.161  -0.083
   0.00000   0.00000   0.00000   0.00000   0.00000   0.00000   0.00000   0.00000   0.00000
Generated with MDTraj, t= 92.0
 85
    1UNL     C1    1  -0.368  -0.242  -0.121
    1UNL     C2    2  -0.387  -0.112  -0.135
    1UNL     C3    3  -0.301  -0.034  -0.230
    1UNL     O1    4  -0.178  -0.096  -0.213
    1UNL     C4    5  -0.071  -0.016  -0.258
    1UNL     O2    6  -0.073   0.110  -0.197
    1UNL     C5    7  -0.067   0.102  -0.055
    1UNL     C6    8  -0.085   0.243   0.009
    1UNL     O3    9  -0.083   0.244   0.150
    1UNL     C7   10  -0.205   0.194   0.183
    1UNL     O4   11  -0.295   0.160   0.113
    1UNL     C8   12  -0.216   0.213   0.336
    1UNL     C9   13  -0.347   0.166   0.388
    1UNL     O5   14  -0.355   0.055   0.434
    1UNL     O6   15  -0.448   0.257   0.380
    1UNL    C10   16   0.070   0.036  -0.013
    1UNL     O7   17   0.069   0.019   0.129
    1UNL    C11   18   0.081  -0.103  -0.091
    1UNL     O8   19   0.200  -0.180  -0.055
    1UNL    C12   20   0.066  -0.079  -0.241
    1UNL     O9   21   0.176  -0.019  -0.317
    1UNL    C13   22   0.298  -0.009  -0.247
    1UNL    O10   23   0.305   0.087  -0.142
    1UNL    C14   24   0.427   0.081  -0.073
    1UNL    C15   25   0.418   0.188   0.050
    1UNL    O11   26   0.487   0.142   0.165
    1UNL    C16   27   0.450   0.009   0.193
    1UNL    O12   28   0.347  -0.050   0.159
    1UNL    C17   29   0.547  -0.070   0.278
    1UNL    C18   30   0.638  -0.141   0.179
    1UNL    O13   31   0.656  -0.104   0.066
    1UNL    O14   32   0.699  -0.258   0.223
    1UNL    C19   33   0.545   0.118  -0.155
    1UNL    O15   34   0.663   0.119  -0.082
    1UNL    C20   35   0.553   0.026  -0.282
    1UNL    O16   36   0.647   0.082  -0.367
    1UNL    C21   37   0.413   0.018  -0.348
    1UNL    O17   38   0.409  -0.077  -0.460
    1UNL    C22   39  -0.505  -0.051  -0.067
    1UNL    C23   40  -0.495  -0.073   0.091
    1UNL    C24   41  -0.603  -0.005   0.167
    1UNL    C25   42  -0.679   0.096   0.112
    1UNL    C26   43  -0.799   0.139   0.194
    1UNL    C27   44  -0.649   0.157  -0.024
    1UNL    C28   45  -0.522   0.105  -0.089
    1UNL     H1   46  -0.436  -0.308  -0.071
    1UNL     H2   47  -0.292  -0.283  -0.176
    1UNL     H3   48  -0.339  -0.057  -0.331
    1UNL     H4   49  -0.303   0.076  -0.208
    1UNL     H5   50  -0.088   0.010  -0.367
    1UNL     H6   51  -0.151   0.034  -0.020
    1UNL     H7   52   0.002   0.295  -0.023
    1UNL     H8   53  -0.178   0.288  -0.032
    1UNL     H9   54  -0.129   0.159   0.383
    1UNL    H10   55  -0.208   0.318   0.375
    1UNL    H11   56  -0.531   0.234   0.426
    1UNL    H12   57   0.169   0.091  -0.025
    1UNL    H13   58   0.141  -0.038   0.155
    1UNL    H14   59  -0.002  -0.164  -0.059
    1UNL    H15   60   0.250  -0.130   0.010
    1UNL    H16   61   0.063  -0.180  -0.290
    1UNL    H17   62   0.298  -0.105  -0.192
    1UNL    H18   63   0.438  -0.023  -0.037
    1UNL    H19   64   0.317   0.205   0.076
    1UNL    H20   65   0.457   0.287   0.026
    1UNL    H21   66   0.601  -0.003   0.348
    1UNL    H22   67   0.492  -0.140   0.327
    1UNL    H23   68   0.722  -0.311   0.147
    1UNL    H24   69   0.546   0.228  -0.174
    1UNL    H25   70   0.688   0.030  -0.030
    1UNL    H26   71   0.589  -0.067  -0.248
    1UNL    H27   72   0.654   0.025  -0.446
    1UNL    H28   73   0.393   0.117  -0.384
    1UNL    H29   74   0.321  -0.075  -0.499
    1UNL    H30   75  -0.599  -0.093  -0.105
    1UNL    H31   76  -0.401  -0.044   0.122
    1UNL    H32   77  -0.515  -0.175   0.116
    1UNL    H33   78  -0.635  -0.052   0.259
    1UNL    H34   79  -0.819   0.066   0.271
    1UNL    H35   80  -0.788   0.241   0.245
    1UNL    H36   81  -0.882   0.148   0.124
    1UNL    H37   82  -0.720   0.127  -0.095
    1UNL    H38   83  -0.649   0.266  -0.006
    1UNL    H39   84  -0.519   0.140  -0.198
    1UNL    H40   85  -0.432   0.141  -0.040
   0.00000   0.00000   0.00000   0.00000   0.00000   0.00000   0.00000   0.00000   0.00000
Generated with MDTraj, t= 93.0
 85
    1UNL     C1    1  -0.381  -0.249  -0.124
    1UNL     C2    2  -0.391  -0.119  -0.127
    1UNL     C3    3  -0.293  -0.053  -0.229
    1UNL     O1    4  -0.168  -0.119  -0.234
    1UNL     C4    5  -0.060  -0.035  -0.269
    1UNL     O2    6  -0.080   0.093  -0.209
    1UNL     C5    7  -0.066   0.095  -0.064
    1UNL     C6    8  -0.086   0.241  -0.016
    1UNL     O3    9  -0.089   0.250   0.126
    1UNL     C7   10  -0.210   0.204   0.176
    1UNL     O4   11  -0.292   0.173   0.098
    1UNL     C8   12  -0.226   0.198   0.321
    1UNL     C9   13  -0.361   0.157   0.375
    1UNL     O5   14  -0.388   0.042   0.398
    1UNL     O6   15  -0.451   0.260   0.396
    1UNL    C10   16   0.064   0.034  -0.016
    1UNL     O7   17   0.061   0.021   0.123
    1UNL    C11   18   0.092  -0.104  -0.084
    1UNL     O8   19   0.215  -0.163  -0.046
    1UNL    C12   20   0.083  -0.093  -0.236
    1UNL     O9   21   0.172  -0.002  -0.301
    1UNL    C13   22   0.300   0.009  -0.239
    1UNL    O10   23   0.320   0.121  -0.142
    1UNL    C14   24   0.442   0.115  -0.078
    1UNL    C15   25   0.446   0.195   0.060
    1UNL    O11   26   0.519   0.127   0.162
    1UNL    C16   27   0.453   0.022   0.210
    1UNL    O12   28   0.335  -0.007   0.196
    1UNL    C17   29   0.544  -0.084   0.272
    1UNL    C18   30   0.602  -0.174   0.168
    1UNL    O13   31   0.617  -0.136   0.053
    1UNL    O14   32   0.661  -0.283   0.223
    1UNL    C19   33   0.565   0.135  -0.163
    1UNL    O15   34   0.687   0.140  -0.095
    1UNL    C20   35   0.555   0.028  -0.283
    1UNL    O16   36   0.646   0.069  -0.385
    1UNL    C21   37   0.412   0.029  -0.342
    1UNL    O17   38   0.407  -0.067  -0.442
    1UNL    C22   39  -0.495  -0.051  -0.038
    1UNL    C23   40  -0.489  -0.064   0.119
    1UNL    C24   41  -0.615  -0.015   0.182
    1UNL    C25   42  -0.680   0.091   0.125
    1UNL    C26   43  -0.803   0.135   0.198
    1UNL    C27   44  -0.625   0.171   0.011
    1UNL    C28   45  -0.520   0.100  -0.073
    1UNL     H1   46  -0.436  -0.317  -0.062
    1UNL     H2   47  -0.301  -0.295  -0.192
    1UNL     H3   48  -0.336  -0.051  -0.331
    1UNL     H4   49  -0.280   0.056  -0.199
    1UNL     H5   50  -0.070  -0.020  -0.379
    1UNL     H6   51  -0.151   0.037  -0.023
    1UNL     H7   52  -0.016   0.308  -0.059
    1UNL     H8   53  -0.189   0.270  -0.052
    1UNL     H9   54  -0.160   0.122   0.372
    1UNL    H10   55  -0.202   0.300   0.354
    1UNL    H11   56  -0.540   0.230   0.423
    1UNL    H12   57   0.151   0.101  -0.041
    1UNL    H13   58   0.155   0.008   0.159
    1UNL    H14   59   0.007  -0.159  -0.045
    1UNL    H15   60   0.266  -0.118   0.032
    1UNL    H16   61   0.091  -0.192  -0.283
    1UNL    H17   62   0.319  -0.088  -0.186
    1UNL    H18   63   0.441   0.008  -0.049
    1UNL    H19   64   0.356   0.234   0.103
    1UNL    H20   65   0.506   0.286   0.043
    1UNL    H21   66   0.626  -0.031   0.316
    1UNL    H22   67   0.493  -0.139   0.348
    1UNL    H23   68   0.704  -0.331   0.149
    1UNL    H24   69   0.553   0.234  -0.208
    1UNL    H25   70   0.698   0.057  -0.049
    1UNL    H26   71   0.575  -0.073  -0.256
    1UNL    H27   72   0.651  -0.008  -0.448
    1UNL    H28   73   0.406   0.126  -0.389
    1UNL    H29   74   0.321  -0.069  -0.488
    1UNL    H30   75  -0.588  -0.103  -0.073
    1UNL    H31   76  -0.418  -0.002   0.162
    1UNL    H32   77  -0.475  -0.166   0.144
    1UNL    H33   78  -0.661  -0.079   0.264
    1UNL    H34   79  -0.819   0.076   0.282
    1UNL    H35   80  -0.799   0.249   0.222
    1UNL    H36   81  -0.880   0.122   0.117
    1UNL    H37   82  -0.704   0.216  -0.039
    1UNL    H38   83  -0.568   0.252   0.062
    1UNL    H39   84  -0.541   0.101  -0.183
    1UNL    H40   85  -0.423   0.151  -0.064
   0.00000   0.00000   0.00000   0.00000   0.00000   0.00000   0.00000   0.00000   0.00000
Generated with MDTraj, t= 94.0
 85
    1UNL     C1    1  -0.384  -0.275  -0.103
    1UNL     C2    2  -0.392  -0.146  -0.122
    1UNL     C3    3  -0.287  -0.081  -0.205
    1UNL     O1    4  -0.156  -0.124  -0.177
    1UNL     C4    5  -0.068  -0.032  -0.240
    1UNL     O2    6  -0.084   0.106  -0.204
    1UNL     C5    7  -0.069   0.118  -0.059
    1UNL     C6    8  -0.099   0.266  -0.018
    1UNL     O3    9  -0.092   0.278   0.121
    1UNL     C7   10  -0.204   0.211   0.169
    1UNL     O4   11  -0.289   0.170   0.093
    1UNL     C8   12  -0.224   0.184   0.312
    1UNL     C9   13  -0.364   0.150   0.353
    1UNL     O5   14  -0.414   0.043   0.340
    1UNL     O6   15  -0.440   0.252   0.396
    1UNL    C10   16   0.070   0.068  -0.006
    1UNL     O7   17   0.066   0.048   0.134
    1UNL    C11   18   0.107  -0.067  -0.066
    1UNL     O8   19   0.231  -0.126  -0.033
    1UNL    C12   20   0.079  -0.076  -0.221
    1UNL     O9   21   0.167   0.012  -0.297
    1UNL    C13   22   0.293   0.028  -0.243
    1UNL    O10   23   0.315   0.121  -0.135
    1UNL    C14   24   0.435   0.099  -0.068
    1UNL    C15   25   0.445   0.198   0.055
    1UNL    O11   26   0.527   0.130   0.158
    1UNL    C16   27   0.456   0.019   0.207
    1UNL    O12   28   0.334   0.007   0.202
    1UNL    C17   29   0.546  -0.084   0.265
    1UNL    C18   30   0.595  -0.177   0.158
    1UNL    O13   31   0.618  -0.149   0.041
    1UNL    O14   32   0.616  -0.304   0.196
    1UNL    C19   33   0.560   0.110  -0.148
    1UNL    O15   34   0.688   0.084  -0.091
    1UNL    C20   35   0.544   0.024  -0.279
    1UNL    O16   36   0.631   0.066  -0.384
    1UNL    C21   37   0.404   0.037  -0.345
    1UNL    O17   38   0.400  -0.051  -0.455
    1UNL    C22   39  -0.496  -0.069  -0.055
    1UNL    C23   40  -0.472  -0.073   0.096
    1UNL    C24   41  -0.594  -0.025   0.165
    1UNL    C25   42  -0.665   0.084   0.124
    1UNL    C26   43  -0.776   0.139   0.207
    1UNL    C27   44  -0.607   0.156   0.007
    1UNL    C28   45  -0.514   0.081  -0.089
    1UNL     H1   46  -0.443  -0.331  -0.044
    1UNL     H2   47  -0.303  -0.329  -0.150
    1UNL     H3   48  -0.306  -0.100  -0.313
    1UNL     H4   49  -0.280   0.035  -0.204
    1UNL     H5   50  -0.089  -0.037  -0.347
    1UNL     H6   51  -0.148   0.054  -0.022
    1UNL     H7   52  -0.023   0.326  -0.062
    1UNL     H8   53  -0.202   0.308  -0.046
    1UNL     H9   54  -0.156   0.098   0.337
    1UNL    H10   55  -0.193   0.271   0.371
    1UNL    H11   56  -0.528   0.218   0.417
    1UNL    H12   57   0.152   0.142  -0.032
    1UNL    H13   58   0.159   0.032   0.162
    1UNL    H14   59   0.037  -0.140  -0.021
    1UNL    H15   60   0.272  -0.079   0.043
    1UNL    H16   61   0.104  -0.177  -0.251
    1UNL    H17   62   0.322  -0.073  -0.203
    1UNL    H18   63   0.431  -0.007  -0.036
    1UNL    H19   64   0.349   0.221   0.101
    1UNL    H20   65   0.495   0.297   0.036
    1UNL    H21   66   0.628  -0.034   0.298
    1UNL    H22   67   0.499  -0.141   0.349
    1UNL    H23   68   0.663  -0.361   0.126
    1UNL    H24   69   0.572   0.212  -0.179
    1UNL    H25   70   0.663   0.000  -0.034
    1UNL    H26   71   0.572  -0.077  -0.250
    1UNL    H27   72   0.619   0.003  -0.460
    1UNL    H28   73   0.399   0.139  -0.384
    1UNL    H29   74   0.308  -0.037  -0.494
    1UNL    H30   75  -0.588  -0.127  -0.081
    1UNL    H31   76  -0.387  -0.012   0.120
    1UNL    H32   77  -0.458  -0.169   0.134
    1UNL    H33   78  -0.633  -0.077   0.243
    1UNL    H34   79  -0.769   0.120   0.314
    1UNL    H35   80  -0.792   0.249   0.194
    1UNL    H36   81  -0.876   0.097   0.170
    1UNL    H37   82  -0.693   0.191  -0.039
    1UNL    H38   83  -0.555   0.246   0.047
    1UNL    H39   84  -0.544   0.087  -0.196
    1UNL    H40   85  -0.414   0.135  -0.083
   0.00000   0.00000   0.00000   0.00000   0.00000   0.00000   0.00000   0.00000   0.00000
Generated with MDTraj, t= 95.0
 85
    1UNL     C1    1  -0.374  -0.299  -0.122
    1UNL     C2    2  -0.392  -0.170  -0.135
    1UNL     C3    3  -0.294  -0.087  -0.212
    1UNL     O1    4  -0.157  -0.110  -0.178
    1UNL     C4    5  -0.065  -0.014  -0.231
    1UNL     O2    6  -0.082   0.119  -0.196
    1UNL     C5    7  -0.053   0.141  -0.056
    1UNL     C6    8  -0.107   0.278  -0.022
    1UNL     O3    9  -0.122   0.293   0.115
    1UNL     C7   10  -0.219   0.217   0.160
    1UNL     O4   11  -0.296   0.154   0.089
    1UNL     C8   12  -0.225   0.203   0.309
    1UNL     C9   13  -0.360   0.161   0.365
    1UNL     O5   14  -0.383   0.040   0.381
    1UNL     O6   15  -0.435   0.264   0.412
    1UNL    C10   16   0.091   0.097  -0.009
    1UNL     O7   17   0.111   0.114   0.135
    1UNL    C11   18   0.101  -0.052  -0.052
    1UNL     O8   19   0.211  -0.127  -0.011
    1UNL    C12   20   0.076  -0.068  -0.207
    1UNL     O9   21   0.171   0.005  -0.289
    1UNL    C13   22   0.300   0.026  -0.236
    1UNL    O10   23   0.324   0.121  -0.132
    1UNL    C14   24   0.447   0.095  -0.072
    1UNL    C15   25   0.447   0.180   0.060
    1UNL    O11   26   0.534   0.116   0.158
    1UNL    C16   27   0.472   0.009   0.209
    1UNL    O12   28   0.353  -0.009   0.205
    1UNL    C17   29   0.568  -0.088   0.267
    1UNL    C18   30   0.579  -0.197   0.165
    1UNL    O13   31   0.604  -0.161   0.052
    1UNL    O14   32   0.555  -0.325   0.205
    1UNL    C19   33   0.565   0.121  -0.164
    1UNL    O15   34   0.687   0.088  -0.114
    1UNL    C20   35   0.543   0.031  -0.288
    1UNL    O16   36   0.635   0.058  -0.386
    1UNL    C21   37   0.400   0.053  -0.348
    1UNL    O17   38   0.375  -0.021  -0.468
    1UNL    C22   39  -0.502  -0.093  -0.061
    1UNL    C23   40  -0.495  -0.111   0.091
    1UNL    C24   41  -0.581  -0.024   0.171
    1UNL    C25   42  -0.657   0.072   0.112
    1UNL    C26   43  -0.753   0.156   0.183
    1UNL    C27   44  -0.634   0.113  -0.030
    1UNL    C28   45  -0.504   0.057  -0.090
    1UNL     H1   46  -0.439  -0.369  -0.063
    1UNL     H2   47  -0.289  -0.347  -0.169
    1UNL     H3   48  -0.306  -0.104  -0.322
    1UNL     H4   49  -0.318   0.027  -0.199
    1UNL     H5   50  -0.086  -0.014  -0.336
    1UNL     H6   51  -0.117   0.071  -0.006
    1UNL     H7   52  -0.044   0.359  -0.051
    1UNL     H8   53  -0.208   0.291  -0.077
    1UNL     H9   54  -0.139   0.139   0.346
    1UNL    H10   55  -0.198   0.298   0.353
    1UNL    H11   56  -0.511   0.220   0.457
    1UNL    H12   57   0.172   0.160  -0.055
    1UNL    H13   58   0.199   0.083   0.173
    1UNL    H14   59   0.012  -0.106  -0.007
    1UNL    H15   60   0.256  -0.093   0.073
    1UNL    H16   61   0.075  -0.172  -0.229
    1UNL    H17   62   0.336  -0.075  -0.206
    1UNL    H18   63   0.444  -0.012  -0.045
    1UNL    H19   64   0.347   0.194   0.104
    1UNL    H20   65   0.492   0.286   0.055
    1UNL    H21   66   0.663  -0.048   0.281
    1UNL    H22   67   0.527  -0.135   0.359
    1UNL    H23   68   0.567  -0.396   0.135
    1UNL    H24   69   0.563   0.225  -0.190
    1UNL    H25   70   0.693   0.002  -0.069
    1UNL    H26   71   0.549  -0.074  -0.250
    1UNL    H27   72   0.631  -0.010  -0.454
    1UNL    H28   73   0.389   0.158  -0.383
    1UNL    H29   74   0.279  -0.010  -0.478
    1UNL    H30   75  -0.601  -0.142  -0.085
    1UNL    H31   76  -0.394  -0.094   0.125
    1UNL    H32   77  -0.515  -0.210   0.113
    1UNL    H33   78  -0.606  -0.044   0.280
    1UNL    H34   79  -0.705   0.228   0.263
    1UNL    H35   80  -0.810   0.218   0.117
    1UNL    H36   81  -0.837   0.099   0.238
    1UNL    H37   82  -0.707   0.073  -0.094
    1UNL    H38   83  -0.649   0.222  -0.037
    1UNL    H39   84  -0.517   0.077  -0.199
    1UNL    H40   85  -0.413   0.110  -0.046
   0.00000   0.00000   0.00000   0.00000   0.00000   0.00000   0.00000   0.00000   0.00000
Generated with MDTraj, t= 96.0
 85
    1UNL     C1    1  -0.363  -0.296  -0.137
    1UNL     C2    2  -0.393  -0.168  -0.143
    1UNL     C3    3  -0.290  -0.069  -0.207
    1UNL     O1    4  -0.156  -0.117  -0.196
    1UNL     C4    5  -0.057  -0.024  -0.247
    1UNL     O2    6  -0.097   0.109  -0.202
    1UNL     C5    7  -0.081   0.128  -0.058
    1UNL     C6    8  -0.128   0.264  -0.021
    1UNL     O3    9  -0.124   0.280   0.116
    1UNL     C7   10  -0.226   0.209   0.179
    1UNL     O4   11  -0.312   0.146   0.113
    1UNL     C8   12  -0.227   0.220   0.330
    1UNL     C9   13  -0.354   0.173   0.386
    1UNL     O5   14  -0.373   0.053   0.405
    1UNL     O6   15  -0.448   0.262   0.419
    1UNL    C10   16   0.065   0.104  -0.019
    1UNL     O7   17   0.087   0.127   0.124
    1UNL    C11   18   0.100  -0.039  -0.057
    1UNL     O8   19   0.228  -0.087  -0.016
    1UNL    C12   20   0.090  -0.063  -0.207
    1UNL     O9   21   0.170   0.024  -0.278
    1UNL    C13   22   0.306   0.024  -0.233
    1UNL    O10   23   0.338   0.127  -0.130
    1UNL    C14   24   0.465   0.098  -0.067
    1UNL    C15   25   0.485   0.190   0.061
    1UNL    O11   26   0.563   0.113   0.150
    1UNL    C16   27   0.480   0.025   0.210
    1UNL    O12   28   0.359   0.034   0.214
    1UNL    C17   29   0.549  -0.097   0.264
    1UNL    C18   30   0.568  -0.208   0.162
    1UNL    O13   31   0.626  -0.189   0.056
    1UNL    O14   32   0.525  -0.331   0.190
    1UNL    C19   33   0.590   0.101  -0.163
    1UNL    O15   34   0.709   0.044  -0.112
    1UNL    C20   35   0.556   0.027  -0.299
    1UNL    O16   36   0.642   0.079  -0.393
    1UNL    C21   37   0.407   0.049  -0.343
    1UNL    O17   38   0.374  -0.031  -0.448
    1UNL    C22   39  -0.512  -0.113  -0.069
    1UNL    C23   40  -0.478  -0.098   0.084
    1UNL    C24   41  -0.571  -0.020   0.163
    1UNL    C25   42  -0.658   0.071   0.110
    1UNL    C26   43  -0.727   0.175   0.190
    1UNL    C27   44  -0.684   0.079  -0.034
    1UNL    C28   45  -0.563   0.027  -0.114
    1UNL     H1   46  -0.439  -0.361  -0.089
    1UNL     H2   47  -0.285  -0.348  -0.173
    1UNL     H3   48  -0.326  -0.053  -0.310
    1UNL     H4   49  -0.304   0.030  -0.150
    1UNL     H5   50  -0.063  -0.030  -0.352
    1UNL     H6   51  -0.139   0.058  -0.003
    1UNL     H7   52  -0.066   0.339  -0.063
    1UNL     H8   53  -0.237   0.282  -0.055
    1UNL     H9   54  -0.134   0.179   0.378
    1UNL    H10   55  -0.226   0.326   0.354
    1UNL    H11   56  -0.518   0.204   0.460
    1UNL    H12   57   0.127   0.187  -0.067
    1UNL    H13   58   0.175   0.107   0.162
    1UNL    H14   59   0.021  -0.103  -0.008
    1UNL    H15   60   0.248  -0.059   0.075
    1UNL    H16   61   0.117  -0.164  -0.231
    1UNL    H17   62   0.323  -0.080  -0.191
    1UNL    H18   63   0.457  -0.010  -0.045
    1UNL    H19   64   0.390   0.217   0.113
    1UNL    H20   65   0.549   0.282   0.037
    1UNL    H21   66   0.651  -0.078   0.308
    1UNL    H22   67   0.481  -0.136   0.339
    1UNL    H23   68   0.538  -0.383   0.108
    1UNL    H24   69   0.619   0.201  -0.191
    1UNL    H25   70   0.685  -0.038  -0.046
    1UNL    H26   71   0.569  -0.084  -0.284
    1UNL    H27   72   0.641   0.031  -0.478
    1UNL    H28   73   0.405   0.156  -0.379
    1UNL    H29   74   0.278  -0.038  -0.467
    1UNL    H30   75  -0.596  -0.186  -0.093
    1UNL    H31   76  -0.377  -0.059   0.089
    1UNL    H32   77  -0.472  -0.193   0.126
    1UNL    H33   78  -0.569  -0.027   0.267
    1UNL    H34   79  -0.670   0.278   0.181
    1UNL    H35   80  -0.830   0.182   0.158
    1UNL    H36   81  -0.728   0.139   0.299
    1UNL    H37   82  -0.777   0.032  -0.056
    1UNL    H38   83  -0.699   0.183  -0.066
    1UNL    H39   84  -0.577   0.037  -0.225
    1UNL    H40   85  -0.489   0.110  -0.089
   0.00000   0.00000   0.00000   0.00000   0.00000   0.00000   0.00000   0.00000   0.00000
Generated with MDTraj, t= 97.0
 85
    1UNL     C1    1  -0.358  -0.286  -0.177
    1UNL     C2    2  -0.377  -0.159  -0.154
    1UNL     C3    3  -0.271  -0.070  -0.206
    1UNL     O1    4  -0.141  -0.119  -0.189
    1UNL     C4    5  -0.057  -0.011  -0.238
    1UNL     O2    6  -0.091   0.120  -0.196
    1UNL     C5    7  -0.081   0.131  -0.051
    1UNL     C6    8  -0.120   0.274  -0.008
    1UNL     O3    9  -0.145   0.303   0.129
    1UNL     C7   10  -0.239   0.220   0.182
    1UNL     O4   11  -0.304   0.141   0.116
    1UNL     C8   12  -0.245   0.212   0.332
    1UNL     C9   13  -0.374   0.172   0.401
    1UNL     O5   14  -0.394   0.052   0.422
    1UNL     O6   15  -0.461   0.271   0.431
    1UNL    C10   16   0.062   0.087  -0.004
    1UNL     O7   17   0.080   0.099   0.143
    1UNL    C11   18   0.099  -0.049  -0.064
    1UNL     O8   19   0.222  -0.106  -0.020
    1UNL    C12   20   0.091  -0.043  -0.220
    1UNL     O9   21   0.180   0.055  -0.278
    1UNL    C13   22   0.314   0.034  -0.234
    1UNL    O10   23   0.353   0.133  -0.127
    1UNL    C14   24   0.483   0.096  -0.070
    1UNL    C15   25   0.504   0.187   0.054
    1UNL    O11   26   0.568   0.110   0.153
    1UNL    C16   27   0.471   0.020   0.203
    1UNL    O12   28   0.352   0.038   0.196
    1UNL    C17   29   0.514  -0.101   0.278
    1UNL    C18   30   0.551  -0.199   0.168
    1UNL    O13   31   0.604  -0.153   0.067
    1UNL    O14   32   0.500  -0.327   0.186
    1UNL    C19   33   0.601   0.100  -0.175
    1UNL    O15   34   0.717   0.040  -0.120
    1UNL    C20   35   0.557   0.018  -0.309
    1UNL    O16   36   0.640   0.052  -0.417
    1UNL    C21   37   0.414   0.041  -0.353
    1UNL    O17   38   0.379  -0.047  -0.458
    1UNL    C22   39  -0.496  -0.119  -0.060
    1UNL    C23   40  -0.452  -0.080   0.084
    1UNL    C24   41  -0.532   0.019   0.162
    1UNL    C25   42  -0.646   0.076   0.111
    1UNL    C26   43  -0.721   0.184   0.191
    1UNL    C27   44  -0.701   0.024  -0.020
    1UNL    C28   45  -0.583  -0.014  -0.121
    1UNL     H1   46  -0.419  -0.365  -0.134
    1UNL     H2   47  -0.267  -0.321  -0.225
    1UNL     H3   48  -0.296  -0.058  -0.313
    1UNL     H4   49  -0.290   0.033  -0.160
    1UNL     H5   50  -0.070  -0.007  -0.341
    1UNL     H6   51  -0.145   0.054  -0.015
    1UNL     H7   52  -0.037   0.332  -0.044
    1UNL     H8   53  -0.213   0.310  -0.062
    1UNL     H9   54  -0.158   0.148   0.362
    1UNL    H10   55  -0.213   0.308   0.370
    1UNL    H11   56  -0.525   0.244   0.500
    1UNL    H12   57   0.133   0.155  -0.058
    1UNL    H13   58   0.174   0.084   0.173
    1UNL    H14   59   0.026  -0.129  -0.041
    1UNL    H15   60   0.252  -0.054   0.060
    1UNL    H16   61   0.116  -0.139  -0.265
    1UNL    H17   62   0.304  -0.063  -0.183
    1UNL    H18   63   0.476  -0.011  -0.047
    1UNL    H19   64   0.402   0.201   0.090
    1UNL    H20   65   0.556   0.285   0.033
    1UNL    H21   66   0.606  -0.071   0.344
    1UNL    H22   67   0.436  -0.140   0.339
    1UNL    H23   68   0.501  -0.373   0.103
    1UNL    H24   69   0.633   0.200  -0.205
    1UNL    H25   70   0.690  -0.026  -0.060
    1UNL    H26   71   0.559  -0.095  -0.284
    1UNL    H27   72   0.612   0.015  -0.505
    1UNL    H28   73   0.410   0.148  -0.389
    1UNL    H29   74   0.281  -0.040  -0.481
    1UNL    H30   75  -0.566  -0.210  -0.058
    1UNL    H31   76  -0.347  -0.050   0.080
    1UNL    H32   77  -0.448  -0.168   0.146
    1UNL    H33   78  -0.501   0.044   0.259
    1UNL    H34   79  -0.658   0.277   0.198
    1UNL    H35   80  -0.823   0.209   0.140
    1UNL    H36   81  -0.739   0.140   0.293
    1UNL    H37   82  -0.764  -0.066  -0.010
    1UNL    H38   83  -0.771   0.094  -0.060
    1UNL    H39   84  -0.629  -0.035  -0.222
    1UNL    H40   85  -0.517   0.076  -0.135
   0.00000   0.00000   0.00000   0.00000   0.00000   0.00000   0.00000   0.00000   0.00000
Generated with MDTraj, t= 98.0
 85
    1UNL     C1    1  -0.342  -0.295  -0.206
    1UNL     C2    2  -0.363  -0.173  -0.157
    1UNL     C3    3  -0.293  -0.057  -0.210
    1UNL     O1    4  -0.158  -0.078  -0.186
    1UNL     C4    5  -0.063   0.017  -0.236
    1UNL     O2    6  -0.074   0.150  -0.186
    1UNL     C5    7  -0.069   0.146  -0.041
    1UNL     C6    8  -0.081   0.279   0.023
    1UNL     O3    9  -0.098   0.281   0.167
    1UNL     C7   10  -0.212   0.227   0.207
    1UNL     O4   11  -0.296   0.187   0.132
    1UNL     C8   12  -0.221   0.221   0.354
    1UNL     C9   13  -0.360   0.188   0.390
    1UNL     O5   14  -0.403   0.074   0.400
    1UNL     O6   15  -0.446   0.292   0.408
    1UNL    C10   16   0.066   0.089   0.010
    1UNL     O7   17   0.071   0.089   0.155
    1UNL    C11   18   0.093  -0.043  -0.056
    1UNL     O8   19   0.218  -0.094  -0.018
    1UNL    C12   20   0.082  -0.040  -0.208
    1UNL     O9   21   0.176   0.044  -0.278
    1UNL    C13   22   0.305   0.027  -0.233
    1UNL    O10   23   0.335   0.129  -0.138
    1UNL    C14   24   0.466   0.103  -0.076
    1UNL    C15   25   0.497   0.196   0.046
    1UNL    O11   26   0.562   0.119   0.144
    1UNL    C16   27   0.468   0.040   0.202
    1UNL    O12   28   0.349   0.053   0.195
    1UNL    C17   29   0.511  -0.095   0.259
    1UNL    C18   30   0.539  -0.202   0.159
    1UNL    O13   31   0.588  -0.175   0.053
    1UNL    O14   32   0.499  -0.325   0.196
    1UNL    C19   33   0.589   0.099  -0.181
    1UNL    O15   34   0.699   0.054  -0.114
    1UNL    C20   35   0.542   0.000  -0.294
    1UNL    O16   36   0.635   0.003  -0.401
    1UNL    C21   37   0.404   0.040  -0.348
    1UNL    O17   38   0.361  -0.040  -0.462
    1UNL    C22   39  -0.487  -0.146  -0.072
    1UNL    C23   40  -0.449  -0.122   0.080
    1UNL    C24   41  -0.529  -0.016   0.151
    1UNL    C25   42  -0.637   0.046   0.099
    1UNL    C26   43  -0.713   0.154   0.176
    1UNL    C27   44  -0.693   0.003  -0.034
    1UNL    C28   45  -0.587  -0.047  -0.135
    1UNL     H1   46  -0.397  -0.378  -0.180
    1UNL     H2   47  -0.265  -0.314  -0.284
    1UNL     H3   48  -0.312  -0.038  -0.316
    1UNL     H4   49  -0.319   0.044  -0.166
    1UNL     H5   50  -0.078   0.022  -0.339
    1UNL     H6   51  -0.156   0.085  -0.014
    1UNL     H7   52   0.010   0.333   0.013
    1UNL     H8   53  -0.161   0.330  -0.038
    1UNL     H9   54  -0.158   0.139   0.390
    1UNL    H10   55  -0.174   0.309   0.401
    1UNL    H11   56  -0.536   0.257   0.411
    1UNL    H12   57   0.137   0.164  -0.028
    1UNL    H13   58   0.163   0.085   0.191
    1UNL    H14   59   0.017  -0.106  -0.011
    1UNL    H15   60   0.266  -0.045   0.054
    1UNL    H16   61   0.096  -0.145  -0.241
    1UNL    H17   62   0.316  -0.079  -0.204
    1UNL    H18   63   0.451   0.004  -0.031
    1UNL    H19   64   0.405   0.224   0.092
    1UNL    H20   65   0.562   0.283   0.020
    1UNL    H21   66   0.588  -0.083   0.342
    1UNL    H22   67   0.419  -0.138   0.303
    1UNL    H23   68   0.510  -0.378   0.118
    1UNL    H24   69   0.606   0.201  -0.221
    1UNL    H25   70   0.687  -0.032  -0.054
    1UNL    H26   71   0.537  -0.109  -0.256
    1UNL    H27   72   0.593  -0.028  -0.487
    1UNL    H28   73   0.417   0.146  -0.384
    1UNL    H29   74   0.272  -0.011  -0.481
    1UNL    H30   75  -0.544  -0.246  -0.077
    1UNL    H31   76  -0.346  -0.085   0.088
    1UNL    H32   77  -0.442  -0.218   0.137
    1UNL    H33   78  -0.496   0.022   0.253
    1UNL    H34   79  -0.643   0.224   0.223
    1UNL    H35   80  -0.785   0.229   0.116
    1UNL    H36   81  -0.775   0.109   0.259
    1UNL    H37   82  -0.763  -0.079  -0.002
    1UNL    H38   83  -0.762   0.077  -0.069
    1UNL    H39   84  -0.633  -0.093  -0.227
    1UNL    H40   85  -0.544   0.051  -0.171
   0.00000   0.00000   0.00000   0.00000   0.00000   0.00000   0.00000   0.00000   0.00000
Generated with MDTraj, t= 99.0
 85
    1UNL     C1    1  -0.347  -0.293  -0.222
    1UNL     C2    2  -0.388  -0.169  -0.192
    1UNL     C3    3  -0.292  -0.051  -0.205
    1UNL     O1    4  -0.158  -0.082  -0.176
    1UNL     C4    5  -0.072   0.019  -0.218
    1UNL     O2    6  -0.088   0.151  -0.161
    1UNL     C5    7  -0.061   0.153  -0.021
    1UNL     C6    8  -0.068   0.299   0.024
    1UNL     O3    9  -0.090   0.307   0.164
    1UNL     C7   10  -0.210   0.243   0.202
    1UNL     O4   11  -0.301   0.201   0.137
    1UNL     C8   12  -0.220   0.220   0.350
    1UNL     C9   13  -0.360   0.207   0.395
    1UNL     O5   14  -0.404   0.099   0.412
    1UNL     O6   15  -0.420   0.322   0.418
    1UNL    C10   16   0.078   0.087   0.017
    1UNL     O7   17   0.092   0.091   0.161
    1UNL    C11   18   0.097  -0.045  -0.061
    1UNL     O8   19   0.219  -0.100  -0.033
    1UNL    C12   20   0.075  -0.034  -0.214
    1UNL     O9   21   0.158   0.068  -0.274
    1UNL    C13   22   0.292   0.048  -0.238
    1UNL    O10   23   0.341   0.151  -0.150
    1UNL    C14   24   0.455   0.104  -0.075
    1UNL    C15   25   0.484   0.195   0.051
    1UNL    O11   26   0.553   0.128   0.153
    1UNL    C16   27   0.483   0.028   0.206
    1UNL    O12   28   0.364   0.015   0.203
    1UNL    C17   29   0.555  -0.084   0.261
    1UNL    C18   30   0.545  -0.195   0.155
    1UNL    O13   31   0.567  -0.168   0.039
    1UNL    O14   32   0.509  -0.317   0.207
    1UNL    C19   33   0.575   0.085  -0.176
    1UNL    O15   34   0.688   0.034  -0.105
    1UNL    C20   35   0.535  -0.008  -0.291
    1UNL    O16   36   0.644  -0.012  -0.382
    1UNL    C21   37   0.395   0.039  -0.354
    1UNL    O17   38   0.353  -0.059  -0.456
    1UNL    C22   39  -0.509  -0.158  -0.103
    1UNL    C23   40  -0.452  -0.139   0.045
    1UNL    C24   41  -0.518  -0.036   0.127
    1UNL    C25   42  -0.635   0.020   0.090
    1UNL    C26   43  -0.700   0.117   0.173
    1UNL    C27   44  -0.705  -0.030  -0.037
    1UNL    C28   45  -0.601  -0.050  -0.143
    1UNL     H1   46  -0.402  -0.383  -0.209
    1UNL     H2   47  -0.249  -0.310  -0.266
    1UNL     H3   48  -0.293   0.008  -0.295
    1UNL     H4   49  -0.316   0.032  -0.136
    1UNL     H5   50  -0.098   0.030  -0.319
    1UNL     H6   51  -0.134   0.092   0.036
    1UNL     H7   52   0.029   0.337  -0.001
    1UNL     H8   53  -0.148   0.361  -0.018
    1UNL     H9   54  -0.167   0.130   0.376
    1UNL    H10   55  -0.170   0.293   0.418
    1UNL    H11   56  -0.509   0.300   0.446
    1UNL    H12   57   0.166   0.142  -0.016
    1UNL    H13   58   0.188   0.061   0.174
    1UNL    H14   59   0.027  -0.119  -0.025
    1UNL    H15   60   0.256  -0.063   0.050
    1UNL    H16   61   0.078  -0.135  -0.264
    1UNL    H17   62   0.301  -0.053  -0.197
    1UNL    H18   63   0.438   0.003  -0.034
    1UNL    H19   64   0.393   0.222   0.098
    1UNL    H20   65   0.551   0.277   0.023
    1UNL    H21   66   0.660  -0.057   0.266
    1UNL    H22   67   0.505  -0.103   0.364
    1UNL    H23   68   0.518  -0.383   0.137
    1UNL    H24   69   0.620   0.178  -0.220
    1UNL    H25   70   0.648  -0.032  -0.057
    1UNL    H26   71   0.522  -0.118  -0.256
    1UNL    H27   72   0.607  -0.039  -0.468
    1UNL    H28   73   0.408   0.141  -0.398
    1UNL    H29   74   0.264  -0.019  -0.476
    1UNL    H30   75  -0.566  -0.259  -0.100
    1UNL    H31   76  -0.348  -0.109   0.032
    1UNL    H32   77  -0.441  -0.239   0.100
    1UNL    H33   78  -0.466   0.003   0.206
    1UNL    H34   79  -0.632   0.204   0.190
    1UNL    H35   80  -0.793   0.168   0.137
    1UNL    H36   81  -0.721   0.070   0.277
    1UNL    H37   82  -0.760  -0.125  -0.010
    1UNL    H38   83  -0.789   0.031  -0.062
    1UNL    H39   84  -0.658  -0.063  -0.241
    1UNL    H40   85  -0.533   0.037  -0.155
   0.00000   0.00000   0.00000   0.00000   0.00000   0.00000   0.00000   0.00000   0.00000
