1TPCN05783
31
    1res  C1    1    0.450   0.343   0.524
    1res  C2    2    0.321   0.066   0.424
    1res  C3    3    0.169   0.068   0.269
    1res  C4    4    0.092   0.019   0.080
    1res  C5    5   -0.146   0.047  -0.153
    1res  C6    6   -0.308   0.011   0.078
    1res  C7    7   -0.416  -0.316   0.020
    1res  C8    8   -0.532  -0.165  -0.154
    1res  C9    9   -0.618   0.093  -0.178
    1res  C10   10   -0.784  -0.258  -0.104
    1res  C11   11   -0.973   0.019  -0.133
    1res  C12   12   -1.213   0.124  -0.229
    1res  C13   13   -1.163   0.071   0.065
    1res  C14   14   -1.116  -0.258   0.046
    1res  C15   15   -0.800  -0.109   0.158
    1res  C16   16   -0.067  -0.259  -0.070
    1res  C17   17    0.152   0.294   0.053
    1res  C18   18   -0.014   0.384   0.186
    1res  C19   19    0.031   0.198   0.376
    1res  C20   20    0.455  -0.065   0.284
    1res  C21   21    0.584   0.240   0.315
    1res  C22   22    0.767   0.120   0.278
    1res  C23   23    0.833   0.183   0.036
    1res  C24   24    0.964   0.025  -0.027
    1res  C25   25    1.100   0.041  -0.278
    1res  C26   26    1.087   0.095  -0.575
    1res  C27   27    1.297  -0.066  -0.391
    1res  C28   28    1.125  -0.273  -0.402
    1res  C29   29    0.998  -0.234  -0.201
    1res  C30   30    0.938  -0.131   0.109
    1res  C31   31    0.898  -0.047   0.330
  10.00000  10.00000  10.00000
