[ moleculetype ]
; name        nrexcl
res           1

[ atoms ]
;    nr  type  resnr resid  atom  cgnr     charge       mass
      1 SX3       1 res   C1        1      0.000     54.000
      2 TC5       1 res   C2        2      0.000     36.000
      3 SX3       1 res   C3        3      0.000     54.000

[ constraints ]
;  ai    aj   funct      b0(nm)
    1     2     1      0.30447
    1     3     1      0.31224
    2     3     1      0.29618

[ bonds ]
;  ai    aj   funct      b0(nm)          k(kJ/mol/nm^2)

[ angles ]
;  ai    aj    ak  funct     th0(deg)        k(kJ/mol/rad^2)
    1     2     3     1     62.62337         11717.61
    1     3     2     1     59.98680          8005.95
    2     1     3     1     57.38981         11904.18

[ dihedrals ]
;  ai    aj    ak    al  funct   phi0(deg)        k(kJ/mol)   mult
