[ moleculetype ]
; name        nrexcl
res           1

[ atoms ]
;    nr  type resnr resid  atom  cgnr     charge       mass
      1 TC4       1 res   C1        1      0.000     36.000
      2 TN4a      1 res   C2        2      0.000     36.000
      3 TN6       1 res   C3        3      0.000     36.000
      4 SN4a      1 res   C4        4      0.000     54.000
      5 TP1       1 res   C5        5      0.000     36.000
      6 TN3r      1 res   C6        6      0.000     36.000
      7 SN4a      1 res   C7        7      0.000     54.000
      8 SN4a      1 res   C8        8      0.000     54.000
      9 SC5       1 res   C9        9      0.000     54.000
     10 TC3       1 res   C10      10      0.000     36.000
     11 SC4       1 res   C11      11      0.000     54.000
     12 SC4       1 res   C12      12      0.000     54.000
     13 TC3       1 res   C13      13      0.000     36.000
     14 SC4       1 res   C14      14      0.000     54.000
     15 SC4       1 res   C15      15      0.000     54.000
     16 TC3       1 res   C16      16      0.000     36.000
     17 TN6       1 res   C17      17      0.000     36.000
     18 TC4       1 res   C18      18      0.000     36.000
     19 TP1       1 res   C19      19      0.000     36.000
     20 TC3       1 res   C20      20      0.000     36.000
     21 TC3       1 res   C21      21      0.000     36.000
     22 TN6       1 res   C22      22      0.000     36.000
     23 TN6       1 res   C23      23      0.000     36.000
     24 TN6       1 res   C24      24      0.000     36.000
     25 TN6       1 res   C25      25      0.000     36.000
     26 TN6       1 res   C26      26      0.000     36.000
     27 TN6       1 res   C27      27      0.000     36.000
     28 TN6       1 res   C28      28      0.000     36.000
     29 TN6       1 res   C29      29      0.000     36.000

[ bonds ]
;  ai    aj   funct      b0(nm)        k
    1     2     1      0.25740    20000
    1    29     1      0.27451    20000
    2     3     1      0.22013    20000
    2    27     1      0.22946    20000
    3     4     1      0.23135    20000
    3    26     1      0.22731    20000
    4     5     1      0.24664    20000
    4     6     1      0.31465    20000
    4    25     1      0.27449    20000
    6     7     1      0.21935    20000
    7     8     1      0.34086    20000
    7    22     1      0.30871    20000
    7    24     1      0.26986    20000
    8     9     1      0.34661    20000
    9    10     1      0.26983    20000
    9    11     1      0.27968    20000
    9    12     1      0.27627    20000
    9    21     1      0.34865    20000
   10    11     1      0.29738    20000
   12    13     1      0.39997    20000
   12    14     1      0.31569    20000
   12    21     1      0.27009    20000
   13    14     1      0.30410    20000
   14    15     1      0.33375    20000
   14    20     1      0.28071    20000
   15    16     1      0.25763    20000
   15    18     1      0.38863    20000
   15    20     1      0.31968    20000
   16    17     1      0.24855    20000
   17    18     1      0.25625    20000
   18    19     1      0.28733    20000
   22    23     1      0.23224    20000
   23    24     1      0.21604    20000
   25    26     1      0.25597    20000
   27    28     1      0.21742    20000
   28    29     1      0.23054    20000
