1TPCN04280
31
    1res  C1    1    1.163  -0.049  -0.153
    1res  C2    2    1.104  -0.108   0.128
    1res  C3    3    0.902  -0.110  -0.078
    1res  C4    4    0.770  -0.062   0.124
    1res  C5    5    0.592  -0.066  -0.218
    1res  C6    6    0.383  -0.296  -0.013
    1res  C7    7    0.354   0.052   0.024
    1res  C8    8    0.191   0.112  -0.177
    1res  C9    9   -0.013   0.074  -0.042
    1res  C10   10   -0.281  -0.016  -0.061
    1res  C11   11   -0.518   0.029  -0.039
    1res  C12   12   -0.792   0.104  -0.090
    1res  C13   13   -0.959   0.238  -0.320
    1res  C14   14   -1.072   0.034  -0.142
    1res  C15   15   -0.978  -0.063   0.064
    1res  C16   16   -0.770  -0.152  -0.032
    1res  C17   17   -0.892  -0.391   0.125
    1res  C18   18   -0.856  -0.634   0.186
    1res  C19   19   -0.679  -0.518   0.319
    1res  C20   20   -0.596  -0.402   0.105
    1res  C21   21   -0.438   0.154  -0.206
    1res  C22   22   -0.291   0.270  -0.080
    1res  C23   23   -0.367   0.526  -0.077
    1res  C24   24   -0.273   0.679  -0.259
    1res  C25   25   -0.476   0.752   0.021
    1res  C26   26   -0.230   0.695   0.146
    1res  C27   27   -0.360   0.486   0.181
    1res  C28   28    0.067   0.070   0.191
    1res  C29   29    0.373  -0.137   0.222
    1res  C30   30    0.644  -0.364  -0.004
    1res  C31   31    0.873  -0.379   0.129
  10.00000  10.00000  10.00000
