1TPCN03222
19
    1res  C1    1   -0.276   0.111   0.236
    1res  C2    2   -0.207  -0.080   0.054
    1res  C3    3    0.077  -0.180   0.137
    1res  C4    4    0.052  -0.107  -0.126
    1res  C5    5    0.365  -0.127  -0.110
    1res  C6    6    0.418   0.071   0.074
    1res  C7    7    0.720   0.181   0.046
    1res  C8    8    0.765   0.067  -0.210
    1res  C9    9    0.970   0.037   0.010
    1res  C10   10    0.852   0.019   0.250
    1res  C11   11    0.646  -0.067   0.201
    1res  C12   12    0.187   0.106  -0.252
    1res  C13   13   -0.312   0.024  -0.131
    1res  C14   14   -0.560  -0.028   0.085
    1res  C15   15   -0.745  -0.102  -0.091
    1res  C16   16   -0.722   0.060  -0.270
    1res  C17   17   -0.885   0.103  -0.001
    1res  C18   18   -0.929  -0.039   0.171
    1res  C19   19   -0.710  -0.080   0.269
  10.00000  10.00000  10.00000
