1TPCN04839
13
    1res  C1    1    0.849  -0.189   0.213
    1res  C2    2    0.494  -0.238   0.031
    1res  C3    3    0.378   0.002   0.084
    1res  C4    4    0.302   0.173  -0.134
    1res  C5    5    0.094   0.205  -0.261
    1res  C6    6   -0.079   0.307  -0.059
    1res  C7    7   -0.345   0.216   0.070
    1res  C8    8   -0.285  -0.038  -0.207
    1res  C9    9   -0.453  -0.015   0.001
    1res  C10   10   -0.610  -0.083   0.209
    1res  C11   11   -0.544  -0.309   0.169
    1res  C12   12   -0.402  -0.339  -0.015
    1res  C13   13   -0.105   0.007   0.097
  10.00000  10.00000  10.00000
