Generated with MDTraj, t= 0.0
 73
    1UNL     C1    1  -0.109   0.150   0.347
    1UNL     C2    2  -0.046   0.097   0.245
    1UNL     C3    3  -0.074   0.132   0.102
    1UNL     C4    4  -0.224   0.115   0.065
    1UNL     O1    5  -0.262  -0.020   0.080
    1UNL     C5    6  -0.395  -0.033   0.037
    1UNL     O2    7  -0.486   0.057   0.102
    1UNL     C6    8  -0.615   0.064   0.036
    1UNL     C7    9  -0.620   0.177  -0.067
    1UNL     O3   10  -0.749   0.193  -0.122
    1UNL     C8   11  -0.656  -0.072  -0.028
    1UNL     O4   12  -0.796  -0.085  -0.042
    1UNL     C9   13  -0.598  -0.188   0.055
    1UNL     O5   14  -0.651  -0.311   0.009
    1UNL    C10   15  -0.442  -0.182   0.047
    1UNL     O6   16  -0.394  -0.252  -0.065
    1UNL     O7   17  -0.252   0.165  -0.066
    1UNL    C11   18  -0.164   0.118  -0.159
    1UNL    C12   19  -0.045   0.058  -0.137
    1UNL    C13   20   0.031   0.009  -0.251
    1UNL     O8   21   0.140  -0.046  -0.237
    1UNL     O9   22  -0.024   0.026  -0.375
    1UNL    C14   23   0.008   0.044   0.004
    1UNL    C15   24   0.160   0.071   0.015
    1UNL    C16   25   0.239  -0.056   0.053
    1UNL     N1   26   0.218  -0.090   0.196
    1UNL    C17   27   0.303  -0.016   0.289
    1UNL    C18   28   0.451  -0.040   0.261
    1UNL    C19   29   0.484  -0.036   0.114
    1UNL    C20   30   0.617  -0.026   0.074
    1UNL    C21   31   0.653  -0.023  -0.060
    1UNL    O10   32   0.785  -0.012  -0.106
    1UNL    C22   33   0.883  -0.013  -0.005
    1UNL    C23   34   0.551  -0.032  -0.159
    1UNL    O11   35   0.589  -0.029  -0.293
    1UNL    C24   36   0.483  -0.036  -0.385
    1UNL    C25   37   0.420  -0.043  -0.117
    1UNL    C26   38   0.385  -0.044   0.018
    1UNL     H1   39  -0.086   0.123   0.448
    1UNL     H2   40  -0.186   0.223   0.333
    1UNL     H3   41   0.032   0.026   0.261
    1UNL     H4   42  -0.047   0.237   0.085
    1UNL     H5   43  -0.288   0.172   0.134
    1UNL     H6   44  -0.394  -0.005  -0.069
    1UNL     H7   45  -0.687   0.086   0.116
    1UNL     H8   46  -0.586   0.271  -0.023
    1UNL     H9   47  -0.552   0.155  -0.150
    1UNL    H10   48  -0.810   0.230  -0.055
    1UNL    H11   49  -0.613  -0.079  -0.130
    1UNL    H12   50  -0.829  -0.006  -0.091
    1UNL    H13   51  -0.631  -0.176   0.159
    1UNL    H14   52  -0.743  -0.296  -0.022
    1UNL    H15   53  -0.399  -0.228   0.137
    1UNL    H16   54  -0.297  -0.238  -0.073
    1UNL    H17   55  -0.197   0.131  -0.261
    1UNL    H18   56   0.038  -0.014  -0.439
    1UNL    H19   57  -0.011  -0.060   0.033
    1UNL    H20   58   0.197   0.110  -0.080
    1UNL    H21   59   0.181   0.150   0.088
    1UNL    H22   60   0.198  -0.138  -0.007
    1UNL    H23   61   0.233  -0.190   0.209
    1UNL    H24   62   0.277  -0.044   0.392
    1UNL    H25   63   0.279   0.091   0.281
    1UNL    H26   64   0.482  -0.137   0.301
    1UNL    H27   65   0.512   0.035   0.313
    1UNL    H28   66   0.692  -0.019   0.149
    1UNL    H29   67   0.871   0.074   0.059
    1UNL    H30   68   0.876  -0.106   0.053
    1UNL    H31   69   0.981  -0.009  -0.053
    1UNL    H32   70   0.416   0.049  -0.371
    1UNL    H33   71   0.430  -0.130  -0.374
    1UNL    H34   72   0.525  -0.031  -0.486
    1UNL    H35   73   0.340  -0.049  -0.189
   0.00000   0.00000   0.00000   0.00000   0.00000   0.00000   0.00000   0.00000   0.00000
Generated with MDTraj, t= 1.0
 73
    1UNL     C1    1  -0.120   0.097   0.351
    1UNL     C2    2  -0.050   0.082   0.241
    1UNL     C3    3  -0.077   0.130   0.105
    1UNL     C4    4  -0.226   0.115   0.059
    1UNL     O1    5  -0.262  -0.024   0.072
    1UNL     C5    6  -0.396  -0.038   0.031
    1UNL     O2    7  -0.481   0.053   0.105
    1UNL     C6    8  -0.602   0.066   0.033
    1UNL     C7    9  -0.611   0.190  -0.054
    1UNL     O3   10  -0.741   0.211  -0.110
    1UNL     C8   11  -0.656  -0.066  -0.037
    1UNL     O4   12  -0.795  -0.063  -0.061
    1UNL     C9   13  -0.605  -0.190   0.054
    1UNL     O5   14  -0.661  -0.303   0.007
    1UNL    C10   15  -0.448  -0.187   0.045
    1UNL     O6   16  -0.394  -0.258  -0.066
    1UNL     O7   17  -0.258   0.157  -0.074
    1UNL    C11   18  -0.164   0.107  -0.166
    1UNL    C12   19  -0.038   0.059  -0.133
    1UNL    C13   20   0.027  -0.009  -0.241
    1UNL     O8   21   0.138  -0.059  -0.230
    1UNL     O9   22  -0.028  -0.009  -0.373
    1UNL    C14   23   0.014   0.048   0.005
    1UNL    C15   24   0.167   0.079   0.022
    1UNL    C16   25   0.240  -0.043   0.063
    1UNL     N1   26   0.223  -0.078   0.202
    1UNL    C17   27   0.306  -0.011   0.295
    1UNL    C18   28   0.459  -0.037   0.263
    1UNL    C19   29   0.488  -0.017   0.121
    1UNL    C20   30   0.619  -0.009   0.078
    1UNL    C21   31   0.651  -0.017  -0.063
    1UNL    O10   32   0.785  -0.018  -0.124
    1UNL    C22   33   0.890   0.009  -0.033
    1UNL    C23   34   0.548  -0.038  -0.152
    1UNL    O11   35   0.581  -0.043  -0.294
    1UNL    C24   36   0.469  -0.012  -0.371
    1UNL    C25   37   0.420  -0.048  -0.103
    1UNL    C26   38   0.386  -0.033   0.028
    1UNL     H1   39  -0.095   0.043   0.449
    1UNL     H2   40  -0.214   0.139   0.335
    1UNL     H3   41   0.028   0.014   0.247
    1UNL     H4   42  -0.055   0.238   0.112
    1UNL     H5   43  -0.302   0.157   0.132
    1UNL     H6   44  -0.402   0.006  -0.073
    1UNL     H7   45  -0.679   0.075   0.110
    1UNL     H8   46  -0.579   0.274   0.001
    1UNL     H9   47  -0.537   0.189  -0.133
    1UNL    H10   48  -0.735   0.236  -0.201
    1UNL    H11   49  -0.613  -0.075  -0.134
    1UNL    H12   50  -0.826   0.030  -0.078
    1UNL    H13   51  -0.645  -0.171   0.158
    1UNL    H14   52  -0.752  -0.277  -0.024
    1UNL    H15   53  -0.413  -0.231   0.138
    1UNL    H16   54  -0.305  -0.216  -0.092
    1UNL    H17   55  -0.198   0.088  -0.272
    1UNL    H18   56   0.034  -0.052  -0.433
    1UNL    H19   57  -0.009  -0.053   0.035
    1UNL    H20   58   0.212   0.128  -0.064
    1UNL    H21   59   0.172   0.144   0.111
    1UNL    H22   60   0.201  -0.126  -0.003
    1UNL    H23   61   0.228  -0.179   0.212
    1UNL    H24   62   0.280  -0.044   0.394
    1UNL    H25   63   0.282   0.093   0.287
    1UNL    H26   64   0.482  -0.137   0.295
    1UNL    H27   65   0.527   0.031   0.319
    1UNL    H28   66   0.699   0.000   0.163
    1UNL    H29   67   0.913   0.117  -0.036
    1UNL    H30   68   0.868   0.000   0.071
    1UNL    H31   69   0.977  -0.049  -0.070
    1UNL    H32   70   0.428   0.089  -0.347
    1UNL    H33   71   0.406  -0.097  -0.363
    1UNL    H34   72   0.497  -0.014  -0.473
    1UNL    H35   73   0.338  -0.053  -0.173
   0.00000   0.00000   0.00000   0.00000   0.00000   0.00000   0.00000   0.00000   0.00000
Generated with MDTraj, t= 2.0
 73
    1UNL     C1    1  -0.168   0.096   0.353
    1UNL     C2    2  -0.076   0.061   0.263
    1UNL     C3    3  -0.079   0.107   0.116
    1UNL     C4    4  -0.217   0.103   0.069
    1UNL     O1    5  -0.268  -0.029   0.073
    1UNL     C5    6  -0.402  -0.034   0.034
    1UNL     O2    7  -0.489   0.057   0.101
    1UNL     C6    8  -0.620   0.077   0.040
    1UNL     C7    9  -0.603   0.196  -0.055
    1UNL     O3   10  -0.716   0.226  -0.131
    1UNL     C8   11  -0.668  -0.050  -0.037
    1UNL     O4   12  -0.804  -0.056  -0.046
    1UNL     C9   13  -0.622  -0.183   0.033
    1UNL     O5   14  -0.666  -0.302  -0.023
    1UNL    C10   15  -0.460  -0.179   0.046
    1UNL     O6   16  -0.412  -0.253  -0.070
    1UNL     O7   17  -0.231   0.159  -0.057
    1UNL    C11   18  -0.151   0.106  -0.150
    1UNL    C12   19  -0.043   0.034  -0.128
    1UNL    C13   20   0.031  -0.024  -0.245
    1UNL     O8   21   0.147  -0.065  -0.230
    1UNL     O9   22  -0.032  -0.020  -0.368
    1UNL    C14   23   0.007   0.021   0.013
    1UNL    C15   24   0.159   0.054   0.030
    1UNL    C16   25   0.251  -0.056   0.075
    1UNL     N1   26   0.245  -0.064   0.223
    1UNL    C17   27   0.325   0.028   0.304
    1UNL    C18   28   0.475   0.004   0.260
    1UNL    C19   29   0.499  -0.025   0.115
    1UNL    C20   30   0.628  -0.030   0.068
    1UNL    C21   31   0.659  -0.034  -0.072
    1UNL    O10   32   0.784  -0.023  -0.122
    1UNL    C22   33   0.876   0.040  -0.036
    1UNL    C23   34   0.552  -0.039  -0.168
    1UNL    O11   35   0.588  -0.030  -0.301
    1UNL    C24   36   0.478  -0.005  -0.392
    1UNL    C25   37   0.425  -0.043  -0.115
    1UNL    C26   38   0.396  -0.036   0.024
    1UNL     H1   39  -0.167   0.049   0.447
    1UNL     H2   40  -0.256   0.141   0.319
    1UNL     H3   41   0.018   0.002   0.291
    1UNL     H4   42  -0.043   0.209   0.094
    1UNL     H5   43  -0.285   0.166   0.137
    1UNL     H6   44  -0.412  -0.006  -0.078
    1UNL     H7   45  -0.690   0.095   0.122
    1UNL     H8   46  -0.567   0.285  -0.011
    1UNL     H9   47  -0.524   0.177  -0.121
    1UNL    H10   48  -0.773   0.142  -0.126
    1UNL    H11   49  -0.623  -0.037  -0.131
    1UNL    H12   50  -0.842  -0.086   0.039
    1UNL    H13   51  -0.652  -0.195   0.144
    1UNL    H14   52  -0.749  -0.298  -0.078
    1UNL    H15   53  -0.431  -0.226   0.141
    1UNL    H16   54  -0.315  -0.223  -0.091
    1UNL    H17   55  -0.172   0.119  -0.256
    1UNL    H18   56   0.011  -0.067  -0.444
    1UNL    H19   57  -0.011  -0.083   0.031
    1UNL    H20   58   0.193   0.070  -0.074
    1UNL    H21   59   0.172   0.143   0.097
    1UNL    H22   60   0.219  -0.156   0.031
    1UNL    H23   61   0.251  -0.158   0.255
    1UNL    H24   62   0.324  -0.002   0.405
    1UNL    H25   63   0.288   0.127   0.291
    1UNL    H26   64   0.527  -0.079   0.303
    1UNL    H27   65   0.534   0.098   0.279
    1UNL    H28   66   0.704  -0.052   0.134
    1UNL    H29   67   0.825   0.075   0.056
    1UNL    H30   68   0.963  -0.011  -0.002
    1UNL    H31   69   0.904   0.125  -0.103
    1UNL    H32   70   0.414   0.082  -0.360
    1UNL    H33   71   0.429  -0.095  -0.408
    1UNL    H34   72   0.516   0.020  -0.486
    1UNL    H35   73   0.342  -0.059  -0.182
   0.00000   0.00000   0.00000   0.00000   0.00000   0.00000   0.00000   0.00000   0.00000
Generated with MDTraj, t= 3.0
 73
    1UNL     C1    1  -0.116   0.056   0.363
    1UNL     C2    2  -0.035   0.055   0.257
    1UNL     C3    3  -0.075   0.100   0.117
    1UNL     C4    4  -0.225   0.089   0.082
    1UNL     O1    5  -0.279  -0.044   0.091
    1UNL     C5    6  -0.406  -0.035   0.040
    1UNL     O2    7  -0.488   0.067   0.102
    1UNL     C6    8  -0.619   0.088   0.030
    1UNL     C7    9  -0.605   0.201  -0.070
    1UNL     O3   10  -0.721   0.220  -0.148
    1UNL     C8   11  -0.680  -0.045  -0.036
    1UNL     O4   12  -0.824  -0.041  -0.029
    1UNL     C9   13  -0.635  -0.178   0.026
    1UNL     O5   14  -0.687  -0.281  -0.057
    1UNL    C10   15  -0.472  -0.175   0.024
    1UNL     O6   16  -0.437  -0.252  -0.090
    1UNL     O7   17  -0.245   0.142  -0.056
    1UNL    C11   18  -0.167   0.095  -0.152
    1UNL    C12   19  -0.044   0.044  -0.129
    1UNL    C13   20   0.031  -0.026  -0.229
    1UNL     O8   21   0.138  -0.090  -0.200
    1UNL     O9   22  -0.017  -0.031  -0.366
    1UNL    C14   23   0.018   0.028   0.011
    1UNL    C15   24   0.169   0.070   0.021
    1UNL    C16   25   0.256  -0.046   0.075
    1UNL     N1   26   0.244  -0.057   0.231
    1UNL    C17   27   0.335   0.026   0.302
    1UNL    C18   28   0.476  -0.015   0.269
    1UNL    C19   29   0.514  -0.015   0.120
    1UNL    C20   30   0.644  -0.013   0.064
    1UNL    C21   31   0.665  -0.024  -0.073
    1UNL    O10   32   0.801  -0.019  -0.124
    1UNL    C22   33   0.873   0.087  -0.073
    1UNL    C23   34   0.554  -0.041  -0.161
    1UNL    O11   35   0.581  -0.045  -0.298
    1UNL    C24   36   0.456  -0.020  -0.369
    1UNL    C25   37   0.433  -0.044  -0.102
    1UNL    C26   38   0.408  -0.031   0.033
    1UNL     H1   39  -0.081   0.021   0.459
    1UNL     H2   40  -0.226   0.087   0.349
    1UNL     H3   41   0.064   0.025   0.261
    1UNL     H4   42  -0.056   0.207   0.118
    1UNL     H5   43  -0.278   0.161   0.156
    1UNL     H6   44  -0.403  -0.000  -0.071
    1UNL     H7   45  -0.696   0.106   0.108
    1UNL     H8   46  -0.579   0.291  -0.020
    1UNL     H9   47  -0.520   0.195  -0.132
    1UNL    H10   48  -0.794   0.183  -0.093
    1UNL    H11   49  -0.660  -0.046  -0.138
    1UNL    H12   50  -0.871  -0.127  -0.023
    1UNL    H13   51  -0.659  -0.202   0.138
    1UNL    H14   52  -0.664  -0.365  -0.017
    1UNL    H15   53  -0.437  -0.218   0.120
    1UNL    H16   54  -0.374  -0.194  -0.143
    1UNL    H17   55  -0.200   0.108  -0.251
    1UNL    H18   56   0.034  -0.110  -0.398
    1UNL    H19   57   0.004  -0.075   0.037
    1UNL    H20   58   0.202   0.080  -0.084
    1UNL    H21   59   0.181   0.170   0.077
    1UNL    H22   60   0.215  -0.142   0.034
    1UNL    H23   61   0.247  -0.151   0.261
    1UNL    H24   62   0.314   0.003   0.402
    1UNL    H25   63   0.324   0.128   0.276
    1UNL    H26   64   0.497  -0.113   0.305
    1UNL    H27   65   0.559   0.053   0.306
    1UNL    H28   66   0.734  -0.022   0.122
    1UNL    H29   67   0.812   0.181  -0.070
    1UNL    H30   68   0.921   0.058   0.021
    1UNL    H31   69   0.964   0.091  -0.140
    1UNL    H32   70   0.407   0.076  -0.330
    1UNL    H33   71   0.396  -0.103  -0.376
    1UNL    H34   72   0.480   0.006  -0.469
    1UNL    H35   73   0.342  -0.045  -0.159
   0.00000   0.00000   0.00000   0.00000   0.00000   0.00000   0.00000   0.00000   0.00000
Generated with MDTraj, t= 4.0
 73
    1UNL     C1    1  -0.162   0.045   0.366
    1UNL     C2    2  -0.069   0.030   0.270
    1UNL     C3    3  -0.076   0.079   0.131
    1UNL     C4    4  -0.221   0.093   0.066
    1UNL     O1    5  -0.279  -0.037   0.074
    1UNL     C5    6  -0.411  -0.032   0.029
    1UNL     O2    7  -0.485   0.061   0.101
    1UNL     C6    8  -0.612   0.092   0.036
    1UNL     C7    9  -0.592   0.202  -0.064
    1UNL     O3   10  -0.714   0.231  -0.131
    1UNL     C8   11  -0.667  -0.034  -0.036
    1UNL     O4   12  -0.811  -0.032  -0.068
    1UNL     C9   13  -0.629  -0.166   0.033
    1UNL     O5   14  -0.694  -0.280  -0.030
    1UNL    C10   15  -0.473  -0.175   0.020
    1UNL     O6   16  -0.434  -0.228  -0.100
    1UNL     O7   17  -0.228   0.147  -0.065
    1UNL    C11   18  -0.146   0.086  -0.145
    1UNL    C12   19  -0.036   0.014  -0.111
    1UNL    C13   20   0.036  -0.037  -0.227
    1UNL     O8   21   0.136  -0.104  -0.223
    1UNL     O9   22  -0.024  -0.020  -0.347
    1UNL    C14   23   0.020   0.002   0.026
    1UNL    C15   24   0.166   0.050   0.038
    1UNL    C16   25   0.256  -0.059   0.094
    1UNL     N1   26   0.251  -0.063   0.246
    1UNL    C17   27   0.345   0.027   0.312
    1UNL    C18   28   0.487  -0.009   0.265
    1UNL    C19   29   0.502  -0.009   0.118
    1UNL    C20   30   0.629   0.004   0.063
    1UNL    C21   31   0.659  -0.010  -0.073
    1UNL    O10   32   0.798  -0.009  -0.118
    1UNL    C22   33   0.854   0.123  -0.125
    1UNL    C23   34   0.551  -0.031  -0.161
    1UNL    O11   35   0.584  -0.040  -0.295
    1UNL    C24   36   0.474  -0.056  -0.388
    1UNL    C25   37   0.424  -0.036  -0.103
    1UNL    C26   38   0.396  -0.034   0.039
    1UNL     H1   39  -0.160   0.023   0.465
    1UNL     H2   40  -0.250   0.102   0.340
    1UNL     H3   41   0.024  -0.018   0.294
    1UNL     H4   42  -0.035   0.179   0.132
    1UNL     H5   43  -0.286   0.168   0.124
    1UNL     H6   44  -0.413   0.003  -0.083
    1UNL     H7   45  -0.685   0.139   0.104
    1UNL     H8   46  -0.551   0.289  -0.016
    1UNL     H9   47  -0.511   0.182  -0.131
    1UNL    H10   48  -0.774   0.155  -0.117
    1UNL    H11   49  -0.628  -0.032  -0.132
    1UNL    H12   50  -0.851  -0.118  -0.041
    1UNL    H13   51  -0.668  -0.157   0.143
    1UNL    H14   52  -0.632  -0.353  -0.054
    1UNL    H15   53  -0.440  -0.234   0.108
    1UNL    H16   54  -0.367  -0.294  -0.090
    1UNL    H17   55  -0.174   0.077  -0.249
    1UNL    H18   56   0.014  -0.059  -0.427
    1UNL    H19   57   0.024  -0.105   0.034
    1UNL    H20   58   0.203   0.074  -0.066
    1UNL    H21   59   0.175   0.137   0.114
    1UNL    H22   60   0.239  -0.161   0.055
    1UNL    H23   61   0.248  -0.157   0.275
    1UNL    H24   62   0.351   0.027   0.417
    1UNL    H25   63   0.314   0.116   0.265
    1UNL    H26   64   0.512  -0.113   0.275
    1UNL    H27   65   0.568   0.047   0.321
    1UNL    H28   66   0.712  -0.003   0.143
    1UNL    H29   67   0.845   0.171  -0.227
    1UNL    H30   68   0.803   0.176  -0.047
    1UNL    H31   69   0.954   0.123  -0.072
    1UNL    H32   70   0.424   0.048  -0.409
    1UNL    H33   71   0.404  -0.131  -0.370
    1UNL    H34   72   0.517  -0.078  -0.484
    1UNL    H35   73   0.334  -0.051  -0.162
   0.00000   0.00000   0.00000   0.00000   0.00000   0.00000   0.00000   0.00000   0.00000
Generated with MDTraj, t= 5.0
 73
    1UNL     C1    1  -0.159   0.009   0.355
    1UNL     C2    2  -0.065   0.025   0.262
    1UNL     C3    3  -0.075   0.093   0.132
    1UNL     C4    4  -0.218   0.094   0.074
    1UNL     O1    5  -0.267  -0.040   0.071
    1UNL     C5    6  -0.403  -0.026   0.019
    1UNL     O2    7  -0.486   0.062   0.087
    1UNL     C6    8  -0.611   0.086   0.021
    1UNL     C7    9  -0.595   0.219  -0.058
    1UNL     O3   10  -0.714   0.256  -0.112
    1UNL     C8   11  -0.663  -0.033  -0.060
    1UNL     O4   12  -0.802  -0.014  -0.085
    1UNL     C9   13  -0.631  -0.158   0.018
    1UNL     O5   14  -0.703  -0.276  -0.013
    1UNL    C10   15  -0.475  -0.179   0.019
    1UNL     O6   16  -0.424  -0.256  -0.087
    1UNL     O7   17  -0.228   0.147  -0.052
    1UNL    C11   18  -0.144   0.088  -0.146
    1UNL    C12   19  -0.026   0.032  -0.115
    1UNL    C13   20   0.042  -0.038  -0.213
    1UNL     O8   21   0.145  -0.103  -0.186
    1UNL     O9   22  -0.007  -0.030  -0.345
    1UNL    C14   23   0.018   0.012   0.025
    1UNL    C15   24   0.165   0.043   0.042
    1UNL    C16   25   0.259  -0.072   0.090
    1UNL     N1   26   0.256  -0.087   0.238
    1UNL    C17   27   0.330   0.009   0.313
    1UNL    C18   28   0.480   0.018   0.265
    1UNL    C19   29   0.510  -0.016   0.122
    1UNL    C20   30   0.636  -0.010   0.068
    1UNL    C21   31   0.662  -0.009  -0.066
    1UNL    O10   32   0.791   0.027  -0.117
    1UNL    C22   33   0.796   0.154  -0.180
    1UNL    C23   34   0.554  -0.036  -0.153
    1UNL    O11   35   0.574  -0.030  -0.292
    1UNL    C24   36   0.472  -0.094  -0.366
    1UNL    C25   37   0.429  -0.057  -0.098
    1UNL    C26   38   0.403  -0.039   0.037
    1UNL     H1   39  -0.143  -0.009   0.468
    1UNL     H2   40  -0.260   0.047   0.338
    1UNL     H3   41   0.038  -0.002   0.297
    1UNL     H4   42  -0.034   0.192   0.147
    1UNL     H5   43  -0.293   0.146   0.138
    1UNL     H6   44  -0.387   0.008  -0.090
    1UNL     H7   45  -0.679   0.120   0.099
    1UNL     H8   46  -0.551   0.297   0.004
    1UNL     H9   47  -0.516   0.203  -0.130
    1UNL    H10   48  -0.761   0.180  -0.159
    1UNL    H11   49  -0.619  -0.057  -0.151
    1UNL    H12   50  -0.853  -0.056  -0.013
    1UNL    H13   51  -0.652  -0.134   0.130
    1UNL    H14   52  -0.697  -0.300  -0.110
    1UNL    H15   53  -0.433  -0.223   0.112
    1UNL    H16   54  -0.480  -0.290  -0.159
    1UNL    H17   55  -0.182   0.098  -0.250
    1UNL    H18   56   0.061  -0.075  -0.397
    1UNL    H19   57  -0.005  -0.091   0.044
    1UNL    H20   58   0.209   0.073  -0.060
    1UNL    H21   59   0.166   0.125   0.123
    1UNL    H22   60   0.240  -0.167   0.042
    1UNL    H23   61   0.267  -0.180   0.268
    1UNL    H24   62   0.317  -0.025   0.412
    1UNL    H25   63   0.288   0.105   0.295
    1UNL    H26   64   0.538  -0.039   0.335
    1UNL    H27   65   0.521   0.125   0.268
    1UNL    H28   66   0.717  -0.001   0.128
    1UNL    H29   67   0.818   0.134  -0.287
    1UNL    H30   68   0.701   0.198  -0.169
    1UNL    H31   69   0.871   0.222  -0.135
    1UNL    H32   70   0.369  -0.042  -0.353
    1UNL    H33   71   0.468  -0.202  -0.363
    1UNL    H34   72   0.500  -0.061  -0.469
    1UNL    H35   73   0.347  -0.088  -0.157
   0.00000   0.00000   0.00000   0.00000   0.00000   0.00000   0.00000   0.00000   0.00000
Generated with MDTraj, t= 6.0
 73
    1UNL     C1    1  -0.155  -0.018   0.347
    1UNL     C2    2  -0.046   0.027   0.278
    1UNL     C3    3  -0.063   0.079   0.134
    1UNL     C4    4  -0.210   0.086   0.088
    1UNL     O1    5  -0.271  -0.042   0.086
    1UNL     C5    6  -0.400  -0.031   0.027
    1UNL     O2    7  -0.473   0.068   0.084
    1UNL     C6    8  -0.601   0.093   0.023
    1UNL     C7    9  -0.598   0.217  -0.070
    1UNL     O3   10  -0.717   0.253  -0.123
    1UNL     C8   11  -0.665  -0.019  -0.055
    1UNL     O4   12  -0.806  -0.000  -0.072
    1UNL     C9   13  -0.636  -0.152   0.018
    1UNL     O5   14  -0.688  -0.269  -0.057
    1UNL    C10   15  -0.477  -0.171   0.029
    1UNL     O6   16  -0.431  -0.250  -0.080
    1UNL     O7   17  -0.217   0.144  -0.048
    1UNL    C11   18  -0.138   0.091  -0.141
    1UNL    C12   19  -0.020   0.032  -0.116
    1UNL    C13   20   0.056  -0.043  -0.221
    1UNL     O8   21   0.153  -0.116  -0.194
    1UNL     O9   22   0.011  -0.029  -0.347
    1UNL    C14   23   0.023   0.003   0.029
    1UNL    C15   24   0.173   0.041   0.046
    1UNL    C16   25   0.260  -0.079   0.090
    1UNL     N1   26   0.240  -0.100   0.236
    1UNL    C17   27   0.324  -0.007   0.322
    1UNL    C18   28   0.475  -0.021   0.277
    1UNL    C19   29   0.499  -0.005   0.128
    1UNL    C20   30   0.620   0.049   0.076
    1UNL    C21   31   0.644   0.044  -0.063
    1UNL    O10   32   0.758   0.103  -0.121
    1UNL    C22   33   0.758   0.114  -0.257
    1UNL    C23   34   0.550  -0.024  -0.147
    1UNL    O11   35   0.588  -0.059  -0.271
    1UNL    C24   36   0.486  -0.115  -0.354
    1UNL    C25   37   0.428  -0.059  -0.088
    1UNL    C26   38   0.399  -0.050   0.043
    1UNL     H1   39  -0.142  -0.059   0.446
    1UNL     H2   40  -0.247  -0.020   0.309
    1UNL     H3   41   0.048   0.027   0.322
    1UNL     H4   42  -0.035   0.183   0.125
    1UNL     H5   43  -0.275   0.147   0.150
    1UNL     H6   44  -0.380  -0.006  -0.082
    1UNL     H7   45  -0.652   0.121   0.115
    1UNL     H8   46  -0.548   0.303  -0.020
    1UNL     H9   47  -0.531   0.196  -0.157
    1UNL    H10   48  -0.793   0.193  -0.103
    1UNL    H11   49  -0.632  -0.029  -0.154
    1UNL    H12   50  -0.854  -0.015   0.013
    1UNL    H13   51  -0.702  -0.131   0.110
    1UNL    H14   52  -0.694  -0.244  -0.150
    1UNL    H15   53  -0.476  -0.228   0.126
    1UNL    H16   54  -0.507  -0.304  -0.123
    1UNL    H17   55  -0.157   0.103  -0.249
    1UNL    H18   56   0.065  -0.086  -0.406
    1UNL    H19   57  -0.004  -0.100   0.039
    1UNL    H20   58   0.194   0.075  -0.063
    1UNL    H21   59   0.185   0.123   0.124
    1UNL    H22   60   0.234  -0.171   0.040
    1UNL    H23   61   0.250  -0.191   0.273
    1UNL    H24   62   0.324  -0.037   0.424
    1UNL    H25   63   0.293   0.091   0.307
    1UNL    H26   64   0.525  -0.113   0.304
    1UNL    H27   65   0.527   0.062   0.333
    1UNL    H28   66   0.695   0.106   0.136
    1UNL    H29   67   0.769   0.009  -0.288
    1UNL    H30   68   0.669   0.160  -0.288
    1UNL    H31   69   0.851   0.160  -0.295
    1UNL    H32   70   0.411  -0.034  -0.375
    1UNL    H33   71   0.438  -0.204  -0.310
    1UNL    H34   72   0.533  -0.146  -0.453
    1UNL    H35   73   0.346  -0.084  -0.152
   0.00000   0.00000   0.00000   0.00000   0.00000   0.00000   0.00000   0.00000   0.00000
Generated with MDTraj, t= 7.0
 73
    1UNL     C1    1  -0.181  -0.024   0.347
    1UNL     C2    2  -0.075  -0.003   0.270
    1UNL     C3    3  -0.072   0.063   0.133
    1UNL     C4    4  -0.215   0.089   0.080
    1UNL     O1    5  -0.275  -0.038   0.075
    1UNL     C5    6  -0.409  -0.024   0.030
    1UNL     O2    7  -0.484   0.071   0.099
    1UNL     C6    8  -0.607   0.103   0.029
    1UNL     C7    9  -0.572   0.224  -0.061
    1UNL     O3   10  -0.682   0.261  -0.141
    1UNL     C8   11  -0.670  -0.016  -0.049
    1UNL     O4   12  -0.815  -0.009  -0.066
    1UNL     C9   13  -0.632  -0.150   0.024
    1UNL     O5   14  -0.681  -0.260  -0.057
    1UNL    C10   15  -0.480  -0.164   0.026
    1UNL     O6   16  -0.436  -0.233  -0.084
    1UNL     O7   17  -0.215   0.147  -0.052
    1UNL    C11   18  -0.139   0.078  -0.137
    1UNL    C12   19  -0.032  -0.003  -0.107
    1UNL    C13   20   0.045  -0.045  -0.223
    1UNL     O8   21   0.139  -0.124  -0.212
    1UNL     O9   22   0.006  -0.012  -0.349
    1UNL    C14   23   0.018  -0.015   0.037
    1UNL    C15   24   0.173   0.024   0.057
    1UNL    C16   25   0.265  -0.096   0.106
    1UNL     N1   26   0.273  -0.108   0.248
    1UNL    C17   27   0.347   0.001   0.323
    1UNL    C18   28   0.486   0.027   0.274
    1UNL    C19   29   0.493   0.005   0.126
    1UNL    C20   30   0.606   0.057   0.065
    1UNL    C21   31   0.630   0.058  -0.071
    1UNL    O10   32   0.738   0.136  -0.118
    1UNL    C22   33   0.796   0.100  -0.239
    1UNL    C23   34   0.548  -0.023  -0.152
    1UNL    O11   35   0.568  -0.039  -0.291
    1UNL    C24   36   0.492  -0.140  -0.357
    1UNL    C25   37   0.431  -0.082  -0.091
    1UNL    C26   38   0.406  -0.069   0.047
    1UNL     H1   39  -0.166  -0.081   0.439
    1UNL     H2   40  -0.285  -0.010   0.307
    1UNL     H3   41   0.025  -0.035   0.310
    1UNL     H4   42  -0.020   0.156   0.141
    1UNL     H5   43  -0.271   0.142   0.154
    1UNL     H6   44  -0.382   0.016  -0.070
    1UNL     H7   45  -0.671   0.133   0.113
    1UNL     H8   46  -0.557   0.317   0.000
    1UNL     H9   47  -0.472   0.215  -0.117
    1UNL    H10   48  -0.764   0.206  -0.120
    1UNL    H11   49  -0.625  -0.027  -0.144
    1UNL    H12   50  -0.849  -0.062  -0.141
    1UNL    H13   51  -0.659  -0.156   0.132
    1UNL    H14   52  -0.600  -0.303  -0.094
    1UNL    H15   53  -0.452  -0.222   0.117
    1UNL    H16   54  -0.360  -0.192  -0.128
    1UNL    H17   55  -0.167   0.095  -0.239
    1UNL    H18   56   0.067  -0.054  -0.414
    1UNL    H19   57   0.008  -0.118   0.066
    1UNL    H20   58   0.225   0.052  -0.045
    1UNL    H21   59   0.170   0.105   0.135
    1UNL    H22   60   0.228  -0.187   0.058
    1UNL    H23   61   0.317  -0.191   0.277
    1UNL    H24   62   0.346  -0.030   0.426
    1UNL    H25   63   0.294   0.090   0.308
    1UNL    H26   64   0.546  -0.050   0.324
    1UNL    H27   65   0.534   0.126   0.298
    1UNL    H28   66   0.675   0.116   0.129
    1UNL    H29   67   0.851   0.009  -0.209
    1UNL    H30   68   0.722   0.084  -0.309
    1UNL    H31   69   0.881   0.165  -0.269
    1UNL    H32   70   0.387  -0.112  -0.357
    1UNL    H33   71   0.510  -0.234  -0.299
    1UNL    H34   72   0.529  -0.153  -0.465
    1UNL    H35   73   0.351  -0.126  -0.153
   0.00000   0.00000   0.00000   0.00000   0.00000   0.00000   0.00000   0.00000   0.00000
Generated with MDTraj, t= 8.0
 73
    1UNL     C1    1  -0.148  -0.035   0.366
    1UNL     C2    2  -0.058  -0.025   0.274
    1UNL     C3    3  -0.067   0.055   0.150
    1UNL     C4    4  -0.214   0.070   0.093
    1UNL     O1    5  -0.271  -0.055   0.092
    1UNL     C5    6  -0.401  -0.037   0.028
    1UNL     O2    7  -0.486   0.059   0.098
    1UNL     C6    8  -0.606   0.105   0.032
    1UNL     C7    9  -0.567   0.227  -0.049
    1UNL     O3   10  -0.679   0.262  -0.137
    1UNL     C8   11  -0.663  -0.014  -0.063
    1UNL     O4   12  -0.798   0.004  -0.092
    1UNL     C9   13  -0.638  -0.147   0.017
    1UNL     O5   14  -0.712  -0.252  -0.046
    1UNL    C10   15  -0.486  -0.173   0.014
    1UNL     O6   16  -0.454  -0.238  -0.105
    1UNL     O7   17  -0.208   0.144  -0.031
    1UNL    C11   18  -0.131   0.085  -0.133
    1UNL    C12   19  -0.030  -0.003  -0.106
    1UNL    C13   20   0.048  -0.059  -0.211
    1UNL     O8   21   0.150  -0.127  -0.183
    1UNL     O9   22   0.020  -0.030  -0.343
    1UNL    C14   23   0.017  -0.014   0.040
    1UNL    C15   24   0.166   0.034   0.043
    1UNL    C16   25   0.271  -0.078   0.093
    1UNL     N1   26   0.269  -0.104   0.229
    1UNL    C17   27   0.314   0.010   0.311
    1UNL    C18   28   0.454   0.051   0.268
    1UNL    C19   29   0.494   0.024   0.118
    1UNL    C20   30   0.606   0.086   0.061
    1UNL    C21   31   0.629   0.060  -0.069
    1UNL    O10   32   0.758   0.106  -0.120
    1UNL    C22   33   0.785   0.041  -0.244
    1UNL    C23   34   0.535  -0.004  -0.156
    1UNL    O11   35   0.551  -0.007  -0.294
    1UNL    C24   36   0.509  -0.129  -0.351
    1UNL    C25   37   0.428  -0.065  -0.096
    1UNL    C26   38   0.407  -0.050   0.040
    1UNL     H1   39  -0.136  -0.108   0.436
    1UNL     H2   40  -0.248   0.012   0.346
    1UNL     H3   41   0.025  -0.090   0.287
    1UNL     H4   42  -0.018   0.147   0.171
    1UNL     H5   43  -0.271   0.134   0.158
    1UNL     H6   44  -0.364   0.005  -0.066
    1UNL     H7   45  -0.678   0.133   0.111
    1UNL     H8   46  -0.544   0.319   0.014
    1UNL     H9   47  -0.474   0.220  -0.117
    1UNL    H10   48  -0.714   0.182  -0.176
    1UNL    H11   49  -0.617  -0.023  -0.160
    1UNL    H12   50  -0.852  -0.009  -0.011
    1UNL    H13   51  -0.675  -0.135   0.117
    1UNL    H14   52  -0.672  -0.269  -0.136
    1UNL    H15   53  -0.461  -0.252   0.087
    1UNL    H16   54  -0.396  -0.197  -0.168
    1UNL    H17   55  -0.146   0.134  -0.225
    1UNL    H18   56   0.085  -0.076  -0.399
    1UNL    H19   57   0.019  -0.120   0.056
    1UNL    H20   58   0.193   0.075  -0.064
    1UNL    H21   59   0.185   0.111   0.121
    1UNL    H22   60   0.238  -0.174   0.047
    1UNL    H23   61   0.334  -0.178   0.245
    1UNL    H24   62   0.303  -0.016   0.415
    1UNL    H25   63   0.244   0.083   0.288
    1UNL    H26   64   0.532   0.006   0.330
    1UNL    H27   65   0.466   0.158   0.285
    1UNL    H28   66   0.669   0.140   0.117
    1UNL    H29   67   0.751  -0.064  -0.233
    1UNL    H30   68   0.729   0.092  -0.317
    1UNL    H31   69   0.894   0.024  -0.260
    1UNL    H32   70   0.404  -0.131  -0.353
    1UNL    H33   71   0.554  -0.205  -0.279
    1UNL    H34   72   0.554  -0.144  -0.453
    1UNL    H35   73   0.357  -0.109  -0.161
   0.00000   0.00000   0.00000   0.00000   0.00000   0.00000   0.00000   0.00000   0.00000
Generated with MDTraj, t= 9.0
 73
    1UNL     C1    1  -0.147  -0.040   0.381
    1UNL     C2    2  -0.058  -0.024   0.285
    1UNL     C3    3  -0.078   0.046   0.152
    1UNL     C4    4  -0.231   0.046   0.105
    1UNL     O1    5  -0.285  -0.081   0.101
    1UNL     C5    6  -0.404  -0.058   0.033
    1UNL     O2    7  -0.475   0.051   0.091
    1UNL     C6    8  -0.584   0.098   0.013
    1UNL     C7    9  -0.559   0.220  -0.070
    1UNL     O3   10  -0.679   0.286  -0.117
    1UNL     C8   11  -0.665  -0.006  -0.068
    1UNL     O4   12  -0.797   0.023  -0.085
    1UNL     C9   13  -0.645  -0.140   0.006
    1UNL     O5   14  -0.723  -0.242  -0.056
    1UNL    C10   15  -0.493  -0.187   0.005
    1UNL     O6   16  -0.456  -0.250  -0.121
    1UNL     O7   17  -0.234   0.124  -0.023
    1UNL    C11   18  -0.141   0.079  -0.114
    1UNL    C12   19  -0.040  -0.012  -0.098
    1UNL    C13   20   0.029  -0.069  -0.216
    1UNL     O8   21   0.134  -0.132  -0.193
    1UNL     O9   22  -0.014  -0.039  -0.333
    1UNL    C14   23   0.014  -0.018   0.044
    1UNL    C15   24   0.151   0.056   0.053
    1UNL    C16   25   0.266  -0.048   0.085
    1UNL     N1   26   0.275  -0.076   0.226
    1UNL    C17   27   0.340   0.030   0.312
    1UNL    C18   28   0.483   0.051   0.264
    1UNL    C19   29   0.498   0.035   0.114
    1UNL    C20   30   0.623   0.069   0.062
    1UNL    C21   31   0.653   0.053  -0.073
    1UNL    O10   32   0.780   0.086  -0.104
    1UNL    C22   33   0.830   0.032  -0.231
    1UNL    C23   34   0.549   0.005  -0.161
    1UNL    O11   35   0.583  -0.035  -0.292
    1UNL    C24   36   0.490  -0.109  -0.366
    1UNL    C25   37   0.422  -0.022  -0.109
    1UNL    C26   38   0.396  -0.001   0.028
    1UNL     H1   39  -0.125  -0.104   0.463
    1UNL     H2   40  -0.248  -0.010   0.359
    1UNL     H3   41   0.042  -0.062   0.306
    1UNL     H4   42  -0.064   0.150   0.161
    1UNL     H5   43  -0.285   0.126   0.160
    1UNL     H6   44  -0.362  -0.021  -0.059
    1UNL     H7   45  -0.649   0.136   0.097
    1UNL     H8   46  -0.498   0.299  -0.017
    1UNL     H9   47  -0.501   0.184  -0.163
    1UNL    H10   48  -0.750   0.213  -0.124
    1UNL    H11   49  -0.629  -0.018  -0.172
    1UNL    H12   50  -0.858  -0.046  -0.048
    1UNL    H13   51  -0.693  -0.124   0.100
    1UNL    H14   52  -0.700  -0.250  -0.150
    1UNL    H15   53  -0.474  -0.256   0.087
    1UNL    H16   54  -0.445  -0.349  -0.106
    1UNL    H17   55  -0.163   0.107  -0.218
    1UNL    H18   56   0.039  -0.065  -0.411
    1UNL    H19   57   0.018  -0.122   0.073
    1UNL    H20   58   0.172   0.107  -0.049
    1UNL    H21   59   0.144   0.133   0.133
    1UNL    H22   60   0.236  -0.138   0.024
    1UNL    H23   61   0.319  -0.166   0.239
    1UNL    H24   62   0.326  -0.005   0.414
    1UNL    H25   63   0.292   0.121   0.292
    1UNL    H26   64   0.561  -0.011   0.314
    1UNL    H27   65   0.513   0.153   0.289
    1UNL    H28   66   0.703   0.103   0.136
    1UNL    H29   67   0.849  -0.078  -0.227
    1UNL    H30   68   0.749   0.051  -0.294
    1UNL    H31   69   0.929   0.078  -0.261
    1UNL    H32   70   0.411  -0.049  -0.390
    1UNL    H33   71   0.468  -0.192  -0.293
    1UNL    H34   72   0.538  -0.151  -0.455
    1UNL    H35   73   0.352  -0.070  -0.176
   0.00000   0.00000   0.00000   0.00000   0.00000   0.00000   0.00000   0.00000   0.00000
Generated with MDTraj, t= 10.0
 73
    1UNL     C1    1  -0.164  -0.047   0.366
    1UNL     C2    2  -0.068  -0.033   0.276
    1UNL     C3    3  -0.092   0.043   0.147
    1UNL     C4    4  -0.236   0.057   0.097
    1UNL     O1    5  -0.297  -0.078   0.082
    1UNL     C5    6  -0.426  -0.057   0.030
    1UNL     O2    7  -0.505   0.037   0.104
    1UNL     C6    8  -0.606   0.095   0.022
    1UNL     C7    9  -0.550   0.219  -0.060
    1UNL     O3   10  -0.646   0.287  -0.126
    1UNL     C8   11  -0.683  -0.012  -0.060
    1UNL     O4   12  -0.810   0.017  -0.096
    1UNL     C9   13  -0.660  -0.155   0.000
    1UNL     O5   14  -0.719  -0.246  -0.080
    1UNL    C10   15  -0.507  -0.191   0.016
    1UNL     O6   16  -0.455  -0.263  -0.095
    1UNL     O7   17  -0.249   0.131  -0.022
    1UNL    C11   18  -0.157   0.088  -0.111
    1UNL    C12   19  -0.048  -0.001  -0.092
    1UNL    C13   20   0.014  -0.060  -0.204
    1UNL     O8   21   0.132  -0.105  -0.199
    1UNL     O9   22  -0.053  -0.058  -0.324
    1UNL    C14   23   0.011  -0.020   0.041
    1UNL    C15   24   0.152   0.050   0.040
    1UNL    C16   25   0.275  -0.048   0.087
    1UNL     N1   26   0.274  -0.048   0.236
    1UNL    C17   27   0.359   0.059   0.303
    1UNL    C18   28   0.504   0.061   0.269
    1UNL    C19   29   0.520   0.034   0.117
    1UNL    C20   30   0.649   0.058   0.065
    1UNL    C21   31   0.679   0.039  -0.069
    1UNL    O10   32   0.808   0.069  -0.116
    1UNL    C22   33   0.843   0.019  -0.244
    1UNL    C23   34   0.576  -0.017  -0.147
    1UNL    O11   35   0.605  -0.037  -0.289
    1UNL    C24   36   0.495  -0.054  -0.374
    1UNL    C25   37   0.451  -0.040  -0.096
    1UNL    C26   38   0.417  -0.006   0.031
    1UNL     H1   39  -0.144  -0.101   0.465
    1UNL     H2   40  -0.264  -0.011   0.355
    1UNL     H3   41   0.036  -0.063   0.292
    1UNL     H4   42  -0.062   0.142   0.169
    1UNL     H5   43  -0.297   0.088   0.189
    1UNL     H6   44  -0.400  -0.014  -0.064
    1UNL     H7   45  -0.681   0.133   0.098
    1UNL     H8   46  -0.508   0.293   0.013
    1UNL     H9   47  -0.471   0.179  -0.132
    1UNL    H10   48  -0.724   0.236  -0.113
    1UNL    H11   49  -0.627  -0.015  -0.160
    1UNL    H12   50  -0.871  -0.006  -0.021
    1UNL    H13   51  -0.701  -0.162   0.097
    1UNL    H14   52  -0.818  -0.240  -0.078
    1UNL    H15   53  -0.496  -0.258   0.101
    1UNL    H16   54  -0.537  -0.309  -0.125
    1UNL    H17   55  -0.190   0.120  -0.214
    1UNL    H18   56   0.010  -0.098  -0.387
    1UNL    H19   57   0.033  -0.125   0.060
    1UNL    H20   58   0.170   0.085  -0.068
    1UNL    H21   59   0.159   0.138   0.108
    1UNL    H22   60   0.246  -0.151   0.050
    1UNL    H23   61   0.298  -0.140   0.272
    1UNL    H24   62   0.358   0.040   0.410
    1UNL    H25   63   0.316   0.153   0.280
    1UNL    H26   64   0.551  -0.017   0.334
    1UNL    H27   65   0.556   0.151   0.295
    1UNL    H28   66   0.724   0.116   0.117
    1UNL    H29   67   0.798  -0.078  -0.275
    1UNL    H30   68   0.801   0.100  -0.300
    1UNL    H31   69   0.956   0.013  -0.243
    1UNL    H32   70   0.416  -0.004  -0.335
    1UNL    H33   71   0.477  -0.162  -0.368
    1UNL    H34   72   0.518  -0.020  -0.474
    1UNL    H35   73   0.370  -0.080  -0.154
   0.00000   0.00000   0.00000   0.00000   0.00000   0.00000   0.00000   0.00000   0.00000
Generated with MDTraj, t= 11.0
 73
    1UNL     C1    1  -0.138  -0.082   0.335
    1UNL     C2    2  -0.044  -0.024   0.261
    1UNL     C3    3  -0.070   0.052   0.139
    1UNL     C4    4  -0.215   0.054   0.098
    1UNL     O1    5  -0.283  -0.075   0.103
    1UNL     C5    6  -0.410  -0.049   0.046
    1UNL     O2    7  -0.490   0.049   0.119
    1UNL     C6    8  -0.603   0.106   0.048
    1UNL     C7    9  -0.563   0.219  -0.047
    1UNL     O3   10  -0.658   0.247  -0.148
    1UNL     C8   11  -0.661  -0.004  -0.049
    1UNL     O4   12  -0.792   0.021  -0.096
    1UNL     C9   13  -0.652  -0.155   0.009
    1UNL     O5   14  -0.704  -0.241  -0.085
    1UNL    C10   15  -0.497  -0.182   0.034
    1UNL     O6   16  -0.449  -0.249  -0.085
    1UNL     O7   17  -0.235   0.116  -0.030
    1UNL    C11   18  -0.161   0.056  -0.122
    1UNL    C12   19  -0.042  -0.006  -0.106
    1UNL    C13   20   0.034  -0.052  -0.225
    1UNL     O8   21   0.156  -0.082  -0.226
    1UNL     O9   22  -0.044  -0.060  -0.330
    1UNL    C14   23   0.017  -0.012   0.027
    1UNL    C15   24   0.161   0.052   0.026
    1UNL    C16   25   0.266  -0.040   0.089
    1UNL     N1   26   0.251  -0.033   0.235
    1UNL    C17   27   0.319   0.077   0.306
    1UNL    C18   28   0.471   0.070   0.267
    1UNL    C19   29   0.508   0.033   0.122
    1UNL    C20   30   0.640   0.044   0.072
    1UNL    C21   31   0.665   0.012  -0.065
    1UNL    O10   32   0.795   0.026  -0.095
    1UNL    C22   33   0.826   0.010  -0.229
    1UNL    C23   34   0.552  -0.019  -0.148
    1UNL    O11   35   0.576  -0.034  -0.286
    1UNL    C24   36   0.467  -0.008  -0.369
    1UNL    C25   37   0.429  -0.041  -0.093
    1UNL    C26   38   0.402  -0.013   0.039
    1UNL     H1   39  -0.134  -0.134   0.428
    1UNL     H2   40  -0.230  -0.053   0.308
    1UNL     H3   41   0.059  -0.038   0.279
    1UNL     H4   42  -0.041   0.152   0.149
    1UNL     H5   43  -0.277   0.114   0.176
    1UNL     H6   44  -0.383  -0.019  -0.053
    1UNL     H7   45  -0.690   0.132   0.115
    1UNL     H8   46  -0.547   0.306   0.018
    1UNL     H9   47  -0.475   0.186  -0.109
    1UNL    H10   48  -0.741   0.186  -0.138
    1UNL    H11   49  -0.602   0.009  -0.147
    1UNL    H12   50  -0.857  -0.038  -0.050
    1UNL    H13   51  -0.704  -0.155   0.101
    1UNL    H14   52  -0.744  -0.193  -0.163
    1UNL    H15   53  -0.467  -0.257   0.106
    1UNL    H16   54  -0.527  -0.294  -0.121
    1UNL    H17   55  -0.185   0.068  -0.225
    1UNL    H18   56  -0.002  -0.109  -0.403
    1UNL    H19   57   0.035  -0.116   0.053
    1UNL    H20   58   0.204   0.075  -0.077
    1UNL    H21   59   0.154   0.148   0.084
    1UNL    H22   60   0.250  -0.142   0.045
    1UNL    H23   61   0.296  -0.118   0.272
    1UNL    H24   62   0.307   0.071   0.412
    1UNL    H25   63   0.285   0.173   0.269
    1UNL    H26   64   0.526  -0.008   0.324
    1UNL    H27   65   0.517   0.161   0.298
    1UNL    H28   66   0.720   0.069   0.131
    1UNL    H29   67   0.836  -0.096  -0.261
    1UNL    H30   68   0.746   0.060  -0.280
    1UNL    H31   69   0.924   0.064  -0.231
    1UNL    H32   70   0.437   0.087  -0.340
    1UNL    H33   71   0.386  -0.074  -0.340
    1UNL    H34   72   0.488  -0.011  -0.475
    1UNL    H35   73   0.349  -0.084  -0.149
   0.00000   0.00000   0.00000   0.00000   0.00000   0.00000   0.00000   0.00000   0.00000
Generated with MDTraj, t= 12.0
 73
    1UNL     C1    1  -0.123  -0.101   0.301
    1UNL     C2    2  -0.047  -0.009   0.249
    1UNL     C3    3  -0.070   0.064   0.123
    1UNL     C4    4  -0.219   0.071   0.090
    1UNL     O1    5  -0.279  -0.058   0.093
    1UNL     C5    6  -0.410  -0.046   0.049
    1UNL     O2    7  -0.486   0.054   0.114
    1UNL     C6    8  -0.591   0.094   0.029
    1UNL     C7    9  -0.545   0.214  -0.050
    1UNL     O3   10  -0.651   0.281  -0.126
    1UNL     C8   11  -0.655  -0.020  -0.056
    1UNL     O4   12  -0.794   0.008  -0.085
    1UNL     C9   13  -0.628  -0.162   0.017
    1UNL     O5   14  -0.684  -0.272  -0.046
    1UNL    C10   15  -0.475  -0.181   0.029
    1UNL     O6   16  -0.424  -0.263  -0.075
    1UNL     O7   17  -0.238   0.131  -0.039
    1UNL    C11   18  -0.160   0.073  -0.135
    1UNL    C12   19  -0.043   0.007  -0.122
    1UNL    C13   20   0.030  -0.039  -0.240
    1UNL     O8   21   0.143  -0.097  -0.224
    1UNL     O9   22  -0.030  -0.039  -0.363
    1UNL    C14   23   0.015  -0.010   0.012
    1UNL    C15   24   0.162   0.035   0.023
    1UNL    C16   25   0.248  -0.054   0.113
    1UNL     N1   26   0.246  -0.023   0.259
    1UNL    C17   27   0.325   0.084   0.311
    1UNL    C18   28   0.474   0.066   0.276
    1UNL    C19   29   0.491   0.026   0.131
    1UNL    C20   30   0.615   0.035   0.078
    1UNL    C21   31   0.647   0.009  -0.053
    1UNL    O10   32   0.780   0.028  -0.096
    1UNL    C22   33   0.813  -0.008  -0.234
    1UNL    C23   34   0.543  -0.029  -0.140
    1UNL    O11   35   0.560  -0.041  -0.285
    1UNL    C24   36   0.459   0.018  -0.363
    1UNL    C25   37   0.419  -0.047  -0.084
    1UNL    C26   38   0.390  -0.026   0.054
    1UNL     H1   39  -0.098  -0.160   0.391
    1UNL     H2   40  -0.221  -0.123   0.249
    1UNL     H3   41   0.043   0.021   0.306
    1UNL     H4   42  -0.046   0.167   0.135
    1UNL     H5   43  -0.269   0.152   0.150
    1UNL     H6   44  -0.401   0.002  -0.045
    1UNL     H7   45  -0.676   0.118   0.098
    1UNL     H8   46  -0.499   0.292   0.006
    1UNL     H9   47  -0.478   0.171  -0.126
    1UNL    H10   48  -0.692   0.219  -0.187
    1UNL    H11   49  -0.599  -0.021  -0.156
    1UNL    H12   50  -0.847  -0.015  -0.007
    1UNL    H13   51  -0.670  -0.161   0.117
    1UNL    H14   52  -0.769  -0.259  -0.090
    1UNL    H15   53  -0.447  -0.242   0.115
    1UNL    H16   54  -0.503  -0.308  -0.119
    1UNL    H17   55  -0.196   0.085  -0.234
    1UNL    H18   56   0.027  -0.090  -0.425
    1UNL    H19   57   0.003  -0.116   0.031
    1UNL    H20   58   0.197   0.040  -0.083
    1UNL    H21   59   0.177   0.142   0.059
    1UNL    H22   60   0.213  -0.157   0.102
    1UNL    H23   61   0.280  -0.109   0.306
    1UNL    H24   62   0.313   0.092   0.416
    1UNL    H25   63   0.294   0.179   0.265
    1UNL    H26   64   0.515  -0.012   0.345
    1UNL    H27   65   0.539   0.148   0.289
    1UNL    H28   66   0.702   0.075   0.144
    1UNL    H29   67   0.767  -0.105  -0.259
    1UNL    H30   68   0.774   0.067  -0.299
    1UNL    H31   69   0.923  -0.018  -0.237
    1UNL    H32   70   0.410   0.092  -0.303
    1UNL    H33   71   0.381  -0.051  -0.399
    1UNL    H34   72   0.507   0.067  -0.446
    1UNL    H35   73   0.340  -0.086  -0.150
   0.00000   0.00000   0.00000   0.00000   0.00000   0.00000   0.00000   0.00000   0.00000
Generated with MDTraj, t= 13.0
 73
    1UNL     C1    1  -0.078  -0.097   0.293
    1UNL     C2    2  -0.068   0.030   0.279
    1UNL     C3    3  -0.071   0.080   0.135
    1UNL     C4    4  -0.216   0.077   0.089
    1UNL     O1    5  -0.265  -0.058   0.067
    1UNL     C5    6  -0.402  -0.060   0.013
    1UNL     O2    7  -0.475   0.041   0.091
    1UNL     C6    8  -0.594   0.087   0.019
    1UNL     C7    9  -0.558   0.203  -0.084
    1UNL     O3   10  -0.681   0.278  -0.116
    1UNL     C8   11  -0.659  -0.030  -0.050
    1UNL     O4   12  -0.800  -0.007  -0.074
    1UNL     C9   13  -0.632  -0.168   0.023
    1UNL     O5   14  -0.701  -0.274  -0.040
    1UNL    C10   15  -0.475  -0.194   0.025
    1UNL     O6   16  -0.442  -0.285  -0.081
    1UNL     O7   17  -0.238   0.156  -0.026
    1UNL    C11   18  -0.160   0.114  -0.133
    1UNL    C12   19  -0.039   0.040  -0.117
    1UNL    C13   20   0.021  -0.028  -0.230
    1UNL     O8   21   0.115  -0.111  -0.221
    1UNL     O9   22  -0.025  -0.004  -0.360
    1UNL    C14   23   0.017   0.010   0.022
    1UNL    C15   24   0.169   0.054   0.029
    1UNL    C16   25   0.259  -0.046   0.106
    1UNL     N1   26   0.242  -0.027   0.249
    1UNL    C17   27   0.329   0.082   0.295
    1UNL    C18   28   0.477   0.035   0.279
    1UNL    C19   29   0.510   0.014   0.135
    1UNL    C20   30   0.636   0.025   0.080
    1UNL    C21   31   0.652   0.014  -0.059
    1UNL    O10   32   0.779   0.058  -0.115
    1UNL    C22   33   0.823  -0.032  -0.222
    1UNL    C23   34   0.552  -0.041  -0.142
    1UNL    O11   35   0.562  -0.054  -0.278
    1UNL    C24   36   0.442  -0.007  -0.336
    1UNL    C25   37   0.430  -0.064  -0.077
    1UNL    C26   38   0.403  -0.027   0.057
    1UNL     H1   39  -0.085  -0.132   0.385
    1UNL     H2   40  -0.068  -0.173   0.217
    1UNL     H3   41  -0.092   0.088   0.365
    1UNL     H4   42  -0.040   0.181   0.142
    1UNL     H5   43  -0.271   0.130   0.164
    1UNL     H6   44  -0.400  -0.012  -0.084
    1UNL     H7   45  -0.658   0.121   0.103
    1UNL     H8   46  -0.506   0.275  -0.028
    1UNL     H9   47  -0.511   0.179  -0.177
    1UNL    H10   48  -0.739   0.233  -0.175
    1UNL    H11   49  -0.599  -0.034  -0.150
    1UNL    H12   50  -0.846  -0.022   0.011
    1UNL    H13   51  -0.689  -0.155   0.117
    1UNL    H14   52  -0.793  -0.246  -0.067
    1UNL    H15   53  -0.438  -0.239   0.118
    1UNL    H16   54  -0.519  -0.332  -0.110
    1UNL    H17   55  -0.203   0.147  -0.228
    1UNL    H18   56   0.037  -0.048  -0.423
    1UNL    H19   57   0.006  -0.098   0.027
    1UNL    H20   58   0.213   0.067  -0.069
    1UNL    H21   59   0.184   0.158   0.072
    1UNL    H22   60   0.233  -0.149   0.083
    1UNL    H23   61   0.269  -0.116   0.296
    1UNL    H24   62   0.324   0.098   0.400
    1UNL    H25   63   0.306   0.178   0.245
    1UNL    H26   64   0.503  -0.064   0.323
    1UNL    H27   65   0.546   0.102   0.322
    1UNL    H28   66   0.715   0.053   0.143
    1UNL    H29   67   0.808  -0.133  -0.186
    1UNL    H30   68   0.761  -0.022  -0.311
    1UNL    H31   69   0.929  -0.012  -0.240
    1UNL    H32   70   0.413   0.084  -0.278
    1UNL    H33   71   0.353  -0.074  -0.336
    1UNL    H34   72   0.458   0.025  -0.437
    1UNL    H35   73   0.351  -0.099  -0.135
   0.00000   0.00000   0.00000   0.00000   0.00000   0.00000   0.00000   0.00000   0.00000
Generated with MDTraj, t= 14.0
 73
    1UNL     C1    1  -0.059  -0.103   0.302
    1UNL     C2    2  -0.044   0.024   0.271
    1UNL     C3    3  -0.070   0.086   0.135
    1UNL     C4    4  -0.217   0.072   0.101
    1UNL     O1    5  -0.264  -0.057   0.077
    1UNL     C5    6  -0.398  -0.040   0.022
    1UNL     O2    7  -0.480   0.067   0.084
    1UNL     C6    8  -0.610   0.093   0.021
    1UNL     C7    9  -0.599   0.200  -0.094
    1UNL     O3   10  -0.724   0.237  -0.152
    1UNL     C8   11  -0.666  -0.035  -0.039
    1UNL     O4   12  -0.807  -0.029  -0.057
    1UNL     C9   13  -0.620  -0.165   0.024
    1UNL     O5   14  -0.691  -0.268  -0.034
    1UNL    C10   15  -0.465  -0.179   0.018
    1UNL     O6   16  -0.440  -0.251  -0.104
    1UNL     O7   17  -0.231   0.149  -0.021
    1UNL    C11   18  -0.156   0.098  -0.117
    1UNL    C12   19  -0.034   0.039  -0.112
    1UNL    C13   20   0.035  -0.005  -0.238
    1UNL     O8   21   0.138  -0.074  -0.225
    1UNL     O9   22  -0.004   0.025  -0.360
    1UNL    C14   23   0.017   0.017   0.028
    1UNL    C15   24   0.166   0.058   0.051
    1UNL    C16   25   0.258  -0.045   0.112
    1UNL     N1   26   0.254  -0.033   0.257
    1UNL    C17   27   0.338   0.058   0.328
    1UNL    C18   28   0.480   0.034   0.278
    1UNL    C19   29   0.497   0.021   0.131
    1UNL    C20   30   0.621   0.032   0.072
    1UNL    C21   31   0.645   0.003  -0.059
    1UNL    O10   32   0.776   0.024  -0.104
    1UNL    C22   33   0.810  -0.043  -0.217
    1UNL    C23   34   0.537  -0.030  -0.147
    1UNL    O11   35   0.570  -0.044  -0.283
    1UNL    C24   36   0.463  -0.069  -0.373
    1UNL    C25   37   0.408  -0.042  -0.087
    1UNL    C26   38   0.392  -0.016   0.049
    1UNL     H1   39  -0.046  -0.137   0.407
    1UNL     H2   40  -0.092  -0.185   0.234
    1UNL     H3   41   0.013   0.090   0.339
    1UNL     H4   42  -0.037   0.187   0.120
    1UNL     H5   43  -0.283   0.115   0.171
    1UNL     H6   44  -0.394  -0.015  -0.084
    1UNL     H7   45  -0.666   0.131   0.105
    1UNL     H8   46  -0.552   0.285  -0.054
    1UNL     H9   47  -0.548   0.147  -0.172
    1UNL    H10   48  -0.760   0.143  -0.175
    1UNL    H11   49  -0.613  -0.040  -0.144
    1UNL    H12   50  -0.858  -0.049   0.025
    1UNL    H13   51  -0.655  -0.163   0.131
    1UNL    H14   52  -0.783  -0.244  -0.064
    1UNL    H15   53  -0.418  -0.249   0.090
    1UNL    H16   54  -0.509  -0.325  -0.123
    1UNL    H17   55  -0.194   0.122  -0.218
    1UNL    H18   56   0.053  -0.007  -0.432
    1UNL    H19   57   0.015  -0.091   0.032
    1UNL    H20   58   0.211   0.081  -0.043
    1UNL    H21   59   0.168   0.161   0.101
    1UNL    H22   60   0.234  -0.144   0.079
    1UNL    H23   61   0.265  -0.132   0.291
    1UNL    H24   62   0.325   0.043   0.435
    1UNL    H25   63   0.319   0.166   0.308
    1UNL    H26   64   0.522  -0.053   0.332
    1UNL    H27   65   0.549   0.114   0.297
    1UNL    H28   66   0.705   0.046   0.133
    1UNL    H29   67   0.766  -0.139  -0.201
    1UNL    H30   68   0.759  -0.002  -0.306
    1UNL    H31   69   0.919  -0.039  -0.221
    1UNL    H32   70   0.383   0.014  -0.367
    1UNL    H33   71   0.410  -0.165  -0.351
    1UNL    H34   72   0.500  -0.071  -0.474
    1UNL    H35   73   0.319  -0.059  -0.150
   0.00000   0.00000   0.00000   0.00000   0.00000   0.00000   0.00000   0.00000   0.00000
Generated with MDTraj, t= 15.0
 73
    1UNL     C1    1  -0.117  -0.100   0.278
    1UNL     C2    2  -0.066   0.017   0.274
    1UNL     C3    3  -0.074   0.093   0.146
    1UNL     C4    4  -0.224   0.095   0.097
    1UNL     O1    5  -0.287  -0.026   0.087
    1UNL     C5    6  -0.416  -0.018   0.030
    1UNL     O2    7  -0.513   0.062   0.104
    1UNL     C6    8  -0.632   0.085   0.023
    1UNL     C7    9  -0.608   0.185  -0.092
    1UNL     O3   10  -0.721   0.214  -0.178
    1UNL     C8   11  -0.682  -0.053  -0.031
    1UNL     O4   12  -0.824  -0.068  -0.048
    1UNL     C9   13  -0.616  -0.174   0.039
    1UNL     O5   14  -0.665  -0.293  -0.012
    1UNL    C10   15  -0.461  -0.164   0.006
    1UNL     O6   16  -0.436  -0.212  -0.124
    1UNL     O7   17  -0.236   0.163  -0.029
    1UNL    C11   18  -0.155   0.114  -0.129
    1UNL    C12   19  -0.035   0.058  -0.108
    1UNL    C13   20   0.048   0.029  -0.222
    1UNL     O8   21   0.163  -0.030  -0.208
    1UNL     O9   22  -0.005   0.053  -0.349
    1UNL    C14   23   0.016   0.024   0.036
    1UNL    C15   24   0.168   0.062   0.044
    1UNL    C16   25   0.267  -0.048   0.095
    1UNL     N1   26   0.259  -0.057   0.240
    1UNL    C17   27   0.342   0.041   0.312
    1UNL    C18   28   0.489   0.041   0.276
    1UNL    C19   29   0.509   0.014   0.125
    1UNL    C20   30   0.636   0.021   0.074
    1UNL    C21   31   0.665   0.003  -0.062
    1UNL    O10   32   0.801  -0.004  -0.105
    1UNL    C22   33   0.823  -0.052  -0.232
    1UNL    C23   34   0.557  -0.031  -0.150
    1UNL    O11   35   0.566  -0.044  -0.291
    1UNL    C24   36   0.461  -0.121  -0.344
    1UNL    C25   37   0.433  -0.037  -0.085
    1UNL    C26   38   0.407  -0.021   0.043
    1UNL     H1   39  -0.115  -0.170   0.362
    1UNL     H2   40  -0.142  -0.138   0.188
    1UNL     H3   41  -0.010   0.055   0.356
    1UNL     H4   42  -0.032   0.191   0.158
    1UNL     H5   43  -0.292   0.132   0.170
    1UNL     H6   44  -0.407   0.037  -0.065
    1UNL     H7   45  -0.713   0.131   0.074
    1UNL     H8   46  -0.582   0.284  -0.056
    1UNL     H9   47  -0.543   0.131  -0.157
    1UNL    H10   48  -0.779   0.140  -0.178
    1UNL    H11   49  -0.646  -0.055  -0.143
    1UNL    H12   50  -0.882  -0.076   0.032
    1UNL    H13   51  -0.630  -0.166   0.153
    1UNL    H14   52  -0.761  -0.297  -0.028
    1UNL    H15   53  -0.406  -0.224   0.084
    1UNL    H16   54  -0.478  -0.296  -0.136
    1UNL    H17   55  -0.191   0.131  -0.230
    1UNL    H18   56   0.060   0.001  -0.401
    1UNL    H19   57   0.004  -0.080   0.055
    1UNL    H20   58   0.189   0.110  -0.050
    1UNL    H21   59   0.170   0.156   0.105
    1UNL    H22   60   0.232  -0.145   0.060
    1UNL    H23   61   0.281  -0.154   0.276
    1UNL    H24   62   0.341   0.035   0.424
    1UNL    H25   63   0.305   0.140   0.282
    1UNL    H26   64   0.549  -0.033   0.332
    1UNL    H27   65   0.531   0.131   0.316
    1UNL    H28   66   0.727   0.031   0.146
    1UNL    H29   67   0.780  -0.151  -0.235
    1UNL    H30   68   0.765   0.004  -0.310
    1UNL    H31   69   0.930  -0.048  -0.252
    1UNL    H32   70   0.362  -0.065  -0.377
    1UNL    H33   71   0.436  -0.206  -0.276
    1UNL    H34   72   0.508  -0.166  -0.430
    1UNL    H35   73   0.350  -0.067  -0.144
   0.00000   0.00000   0.00000   0.00000   0.00000   0.00000   0.00000   0.00000   0.00000
Generated with MDTraj, t= 16.0
 73
    1UNL     C1    1  -0.130  -0.093   0.293
    1UNL     C2    2  -0.076   0.024   0.279
    1UNL     C3    3  -0.080   0.104   0.147
    1UNL     C4    4  -0.230   0.101   0.097
    1UNL     O1    5  -0.286  -0.028   0.084
    1UNL     C5    6  -0.408  -0.026   0.022
    1UNL     O2    7  -0.507   0.063   0.089
    1UNL     C6    8  -0.637   0.080   0.012
    1UNL     C7    9  -0.626   0.166  -0.117
    1UNL     O3   10  -0.752   0.202  -0.164
    1UNL     C8   11  -0.685  -0.062  -0.033
    1UNL     O4   12  -0.824  -0.081  -0.019
    1UNL     C9   13  -0.606  -0.184   0.033
    1UNL     O5   14  -0.651  -0.305  -0.011
    1UNL    C10   15  -0.458  -0.170  -0.006
    1UNL     O6   16  -0.435  -0.220  -0.132
    1UNL     O7   17  -0.241   0.181  -0.023
    1UNL    C11   18  -0.141   0.167  -0.118
    1UNL    C12   19  -0.024   0.097  -0.100
    1UNL    C13   20   0.046   0.046  -0.219
    1UNL     O8   21   0.141  -0.033  -0.212
    1UNL     O9   22  -0.010   0.077  -0.336
    1UNL    C14   23   0.023   0.059   0.035
    1UNL    C15   24   0.171   0.096   0.059
    1UNL    C16   25   0.264  -0.028   0.092
    1UNL     N1   26   0.253  -0.051   0.235
    1UNL    C17   27   0.341   0.035   0.319
    1UNL    C18   28   0.492   0.025   0.267
    1UNL    C19   29   0.510   0.005   0.125
    1UNL    C20   30   0.641   0.006   0.068
    1UNL    C21   31   0.671  -0.026  -0.064
    1UNL    O10   32   0.803  -0.011  -0.098
    1UNL    C22   33   0.830  -0.030  -0.234
    1UNL    C23   34   0.564  -0.053  -0.148
    1UNL    O11   35   0.587  -0.092  -0.278
    1UNL    C24   36   0.479  -0.139  -0.359
    1UNL    C25   37   0.432  -0.051  -0.098
    1UNL    C26   38   0.401  -0.021   0.037
    1UNL     H1   39  -0.106  -0.161   0.376
    1UNL     H2   40  -0.174  -0.137   0.207
    1UNL     H3   41  -0.004   0.056   0.355
    1UNL     H4   42  -0.054   0.208   0.165
    1UNL     H5   43  -0.299   0.145   0.167
    1UNL     H6   44  -0.400   0.008  -0.085
    1UNL     H7   45  -0.713   0.120   0.076
    1UNL     H8   46  -0.574   0.255  -0.077
    1UNL     H9   47  -0.582   0.109  -0.199
    1UNL    H10   48  -0.818   0.136  -0.144
    1UNL    H11   49  -0.663  -0.083  -0.146
    1UNL    H12   50  -0.846  -0.068   0.076
    1UNL    H13   51  -0.621  -0.169   0.146
    1UNL    H14   52  -0.750  -0.295  -0.024
    1UNL    H15   53  -0.411  -0.243   0.066
    1UNL    H16   54  -0.500  -0.295  -0.159
    1UNL    H17   55  -0.141   0.200  -0.219
    1UNL    H18   56   0.019   0.022  -0.414
    1UNL    H19   57   0.012  -0.048   0.039
    1UNL    H20   58   0.202   0.157  -0.025
    1UNL    H21   59   0.174   0.174   0.135
    1UNL    H22   60   0.222  -0.115   0.035
    1UNL    H23   61   0.247  -0.153   0.263
    1UNL    H24   62   0.325  -0.004   0.425
    1UNL    H25   63   0.319   0.142   0.313
    1UNL    H26   64   0.536  -0.059   0.322
    1UNL    H27   65   0.558   0.101   0.302
    1UNL    H28   66   0.716   0.030   0.133
    1UNL    H29   67   0.773  -0.116  -0.265
    1UNL    H30   68   0.780   0.049  -0.301
    1UNL    H31   69   0.936  -0.036  -0.257
    1UNL    H32   70   0.390  -0.064  -0.377
    1UNL    H33   71   0.453  -0.241  -0.331
    1UNL    H34   72   0.528  -0.153  -0.453
    1UNL    H35   73   0.355  -0.042  -0.171
   0.00000   0.00000   0.00000   0.00000   0.00000   0.00000   0.00000   0.00000   0.00000
Generated with MDTraj, t= 17.0
 73
    1UNL     C1    1  -0.082  -0.068   0.316
    1UNL     C2    2  -0.050   0.052   0.274
    1UNL     C3    3  -0.084   0.111   0.138
    1UNL     C4    4  -0.228   0.105   0.091
    1UNL     O1    5  -0.261  -0.022   0.058
    1UNL     C5    6  -0.382  -0.025  -0.008
    1UNL     O2    7  -0.477   0.065   0.059
    1UNL     C6    8  -0.614   0.076   0.007
    1UNL     C7    9  -0.637   0.172  -0.106
    1UNL     O3   10  -0.778   0.170  -0.143
    1UNL     C8   11  -0.666  -0.063  -0.028
    1UNL     O4   12  -0.801  -0.077  -0.001
    1UNL     C9   13  -0.584  -0.180   0.035
    1UNL     O5   14  -0.640  -0.300  -0.007
    1UNL    C10   15  -0.435  -0.171  -0.018
    1UNL     O6   16  -0.435  -0.236  -0.146
    1UNL     O7   17  -0.239   0.197  -0.012
    1UNL    C11   18  -0.145   0.170  -0.112
    1UNL    C12   19  -0.041   0.080  -0.101
    1UNL    C13   20   0.030   0.050  -0.224
    1UNL     O8   21   0.136  -0.014  -0.219
    1UNL     O9   22  -0.003   0.109  -0.346
    1UNL    C14   23   0.003   0.043   0.033
    1UNL    C15   24   0.155   0.077   0.046
    1UNL    C16   25   0.247  -0.038   0.090
    1UNL     N1   26   0.245  -0.063   0.238
    1UNL    C17   27   0.329   0.030   0.321
    1UNL    C18   28   0.475   0.021   0.274
    1UNL    C19   29   0.497  -0.001   0.124
    1UNL    C20   30   0.624  -0.012   0.077
    1UNL    C21   31   0.652  -0.030  -0.054
    1UNL    O10   32   0.792  -0.040  -0.088
    1UNL    C22   33   0.810  -0.013  -0.220
    1UNL    C23   34   0.548  -0.057  -0.144
    1UNL    O11   35   0.579  -0.097  -0.275
    1UNL    C24   36   0.468  -0.144  -0.355
    1UNL    C25   37   0.420  -0.041  -0.097
    1UNL    C26   38   0.392  -0.024   0.039
    1UNL     H1   39  -0.059  -0.085   0.416
    1UNL     H2   40  -0.138  -0.151   0.263
    1UNL     H3   41   0.014   0.118   0.330
    1UNL     H4   42  -0.054   0.215   0.133
    1UNL     H5   43  -0.295   0.131   0.175
    1UNL     H6   44  -0.359   0.005  -0.116
    1UNL     H7   45  -0.679   0.107   0.088
    1UNL     H8   46  -0.612   0.277  -0.074
    1UNL     H9   47  -0.580   0.128  -0.191
    1UNL    H10   48  -0.829   0.091  -0.101
    1UNL    H11   49  -0.648  -0.091  -0.138
    1UNL    H12   50  -0.812  -0.055   0.093
    1UNL    H13   51  -0.588  -0.162   0.148
    1UNL    H14   52  -0.737  -0.287  -0.022
    1UNL    H15   53  -0.368  -0.223   0.055
    1UNL    H16   54  -0.498  -0.306  -0.162
    1UNL    H17   55  -0.150   0.222  -0.206
    1UNL    H18   56   0.068   0.090  -0.411
    1UNL    H19   57  -0.016  -0.062   0.043
    1UNL    H20   58   0.200   0.123  -0.041
    1UNL    H21   59   0.165   0.157   0.114
    1UNL    H22   60   0.205  -0.134   0.048
    1UNL    H23   61   0.268  -0.164   0.260
    1UNL    H24   62   0.326   0.012   0.435
    1UNL    H25   63   0.279   0.125   0.302
    1UNL    H26   64   0.538  -0.039   0.342
    1UNL    H27   65   0.523   0.113   0.302
    1UNL    H28   66   0.706   0.011   0.143
    1UNL    H29   67   0.786  -0.099  -0.281
    1UNL    H30   68   0.734   0.065  -0.259
    1UNL    H31   69   0.910   0.027  -0.236
    1UNL    H32   70   0.404  -0.055  -0.386
    1UNL    H33   71   0.415  -0.225  -0.310
    1UNL    H34   72   0.513  -0.185  -0.442
    1UNL    H35   73   0.341  -0.047  -0.171
   0.00000   0.00000   0.00000   0.00000   0.00000   0.00000   0.00000   0.00000   0.00000
Generated with MDTraj, t= 18.0
 73
    1UNL     C1    1  -0.078  -0.051   0.279
    1UNL     C2    2  -0.048   0.076   0.267
    1UNL     C3    3  -0.064   0.136   0.129
    1UNL     C4    4  -0.216   0.127   0.086
    1UNL     O1    5  -0.250  -0.007   0.070
    1UNL     C5    6  -0.377  -0.025   0.009
    1UNL     O2    7  -0.480   0.043   0.084
    1UNL     C6    8  -0.606   0.055   0.018
    1UNL     C7    9  -0.619   0.159  -0.093
    1UNL     O3   10  -0.759   0.178  -0.125
    1UNL     C8   11  -0.655  -0.083  -0.026
    1UNL     O4   12  -0.793  -0.096  -0.010
    1UNL     C9   13  -0.570  -0.190   0.043
    1UNL     O5   14  -0.620  -0.317   0.018
    1UNL    C10   15  -0.423  -0.168  -0.012
    1UNL     O6   16  -0.430  -0.200  -0.151
    1UNL     O7   17  -0.242   0.201  -0.041
    1UNL    C11   18  -0.147   0.168  -0.138
    1UNL    C12   19  -0.033   0.100  -0.122
    1UNL    C13   20   0.041   0.064  -0.241
    1UNL     O8   21   0.147  -0.003  -0.245
    1UNL     O9   22   0.002   0.120  -0.360
    1UNL    C14   23   0.012   0.057   0.014
    1UNL    C15   24   0.170   0.081   0.035
    1UNL    C16   25   0.236  -0.044   0.090
    1UNL     N1   26   0.224  -0.063   0.238
    1UNL    C17   27   0.309   0.033   0.314
    1UNL    C18   28   0.451   0.009   0.284
    1UNL    C19   29   0.484  -0.029   0.145
    1UNL    C20   30   0.614  -0.017   0.094
    1UNL    C21   31   0.644  -0.048  -0.044
    1UNL    O10   32   0.776  -0.044  -0.083
    1UNL    C22   33   0.797  -0.003  -0.214
    1UNL    C23   34   0.537  -0.071  -0.141
    1UNL    O11   35   0.550  -0.064  -0.274
    1UNL    C24   36   0.447  -0.139  -0.347
    1UNL    C25   37   0.409  -0.086  -0.085
    1UNL    C26   38   0.386  -0.063   0.053
    1UNL     H1   39  -0.065  -0.104   0.367
    1UNL     H2   40  -0.141  -0.104   0.207
    1UNL     H3   41  -0.004   0.134   0.346
    1UNL     H4   42  -0.042   0.244   0.123
    1UNL     H5   43  -0.279   0.167   0.173
    1UNL     H6   44  -0.365   0.020  -0.096
    1UNL     H7   45  -0.679   0.094   0.092
    1UNL     H8   46  -0.585   0.265  -0.067
    1UNL     H9   47  -0.571   0.120  -0.188
    1UNL    H10   48  -0.799   0.093  -0.131
    1UNL    H11   49  -0.645  -0.096  -0.139
    1UNL    H12   50  -0.826  -0.071   0.080
    1UNL    H13   51  -0.578  -0.176   0.155
    1UNL    H14   52  -0.716  -0.319   0.004
    1UNL    H15   53  -0.369  -0.241   0.052
    1UNL    H16   54  -0.475  -0.289  -0.156
    1UNL    H17   55  -0.184   0.202  -0.236
    1UNL    H18   56   0.081   0.107  -0.417
    1UNL    H19   57  -0.010  -0.046   0.026
    1UNL    H20   58   0.222   0.111  -0.055
    1UNL    H21   59   0.193   0.159   0.100
    1UNL    H22   60   0.186  -0.137   0.051
    1UNL    H23   61   0.244  -0.163   0.267
    1UNL    H24   62   0.274   0.016   0.424
    1UNL    H25   63   0.288   0.139   0.291
    1UNL    H26   64   0.500  -0.064   0.350
    1UNL    H27   65   0.509   0.093   0.316
    1UNL    H28   66   0.710  -0.003   0.157
    1UNL    H29   67   0.745  -0.064  -0.286
    1UNL    H30   68   0.754   0.101  -0.236
    1UNL    H31   69   0.902   0.008  -0.234
    1UNL    H32   70   0.356  -0.079  -0.329
    1UNL    H33   71   0.442  -0.237  -0.310
    1UNL    H34   72   0.467  -0.147  -0.451
    1UNL    H35   73   0.321  -0.110  -0.142
   0.00000   0.00000   0.00000   0.00000   0.00000   0.00000   0.00000   0.00000   0.00000
Generated with MDTraj, t= 19.0
 73
    1UNL     C1    1  -0.090  -0.029   0.297
    1UNL     C2    2  -0.057   0.088   0.249
    1UNL     C3    3  -0.074   0.137   0.112
    1UNL     C4    4  -0.222   0.128   0.063
    1UNL     O1    5  -0.249  -0.005   0.053
    1UNL     C5    6  -0.385  -0.021   0.025
    1UNL     O2    7  -0.481   0.051   0.111
    1UNL     C6    8  -0.618   0.050   0.043
    1UNL     C7    9  -0.633   0.170  -0.052
    1UNL     O3   10  -0.745   0.168  -0.136
    1UNL     C8   11  -0.656  -0.087  -0.021
    1UNL     O4   12  -0.790  -0.113   0.011
    1UNL     C9   13  -0.564  -0.197   0.038
    1UNL     O5   14  -0.600  -0.318  -0.012
    1UNL    C10   15  -0.418  -0.168   0.009
    1UNL     O6   16  -0.388  -0.211  -0.129
    1UNL     O7   17  -0.235   0.203  -0.062
    1UNL    C11   18  -0.145   0.171  -0.151
    1UNL    C12   19  -0.026   0.107  -0.142
    1UNL    C13   20   0.058   0.077  -0.267
    1UNL     O8   21   0.156   0.005  -0.258
    1UNL     O9   22   0.014   0.126  -0.381
    1UNL    C14   23   0.013   0.068  -0.001
    1UNL    C15   24   0.168   0.085   0.030
    1UNL    C16   25   0.226  -0.044   0.095
    1UNL     N1   26   0.212  -0.040   0.242
    1UNL    C17   27   0.322   0.027   0.318
    1UNL    C18   28   0.451  -0.046   0.293
    1UNL    C19   29   0.476  -0.044   0.149
    1UNL    C20   30   0.602  -0.035   0.100
    1UNL    C21   31   0.629  -0.047  -0.035
    1UNL    O10   32   0.766  -0.024  -0.076
    1UNL    C22   33   0.785  -0.007  -0.215
    1UNL    C23   34   0.522  -0.076  -0.129
    1UNL    O11   35   0.555  -0.109  -0.265
    1UNL    C24   36   0.455  -0.094  -0.362
    1UNL    C25   37   0.394  -0.085  -0.079
    1UNL    C26   38   0.371  -0.066   0.054
    1UNL     H1   39  -0.054  -0.073   0.395
    1UNL     H2   40  -0.149  -0.088   0.228
    1UNL     H3   41  -0.017   0.159   0.322
    1UNL     H4   42  -0.057   0.245   0.113
    1UNL     H5   43  -0.291   0.176   0.145
    1UNL     H6   44  -0.385   0.017  -0.085
    1UNL     H7   45  -0.678   0.082   0.133
    1UNL     H8   46  -0.651   0.267   0.007
    1UNL     H9   47  -0.546   0.186  -0.123
    1UNL    H10   48  -0.792   0.079  -0.109
    1UNL    H11   49  -0.648  -0.078  -0.132
    1UNL    H12   50  -0.818  -0.090   0.104
    1UNL    H13   51  -0.579  -0.205   0.149
    1UNL    H14   52  -0.697  -0.325  -0.036
    1UNL    H15   53  -0.347  -0.224   0.069
    1UNL    H16   54  -0.424  -0.303  -0.144
    1UNL    H17   55  -0.164   0.206  -0.253
    1UNL    H18   56   0.069   0.099  -0.455
    1UNL    H19   57  -0.005  -0.036   0.001
    1UNL    H20   58   0.223   0.096  -0.060
    1UNL    H21   59   0.185   0.173   0.085
    1UNL    H22   60   0.167  -0.132   0.060
    1UNL    H23   61   0.201  -0.139   0.276
    1UNL    H24   62   0.296   0.038   0.432
    1UNL    H25   63   0.317   0.128   0.273
    1UNL    H26   64   0.449  -0.144   0.339
    1UNL    H27   65   0.533  -0.007   0.348
    1UNL    H28   66   0.684  -0.027   0.158
    1UNL    H29   67   0.781  -0.100  -0.267
    1UNL    H30   68   0.700   0.051  -0.265
    1UNL    H31   69   0.871   0.053  -0.234
    1UNL    H32   70   0.437   0.015  -0.352
    1UNL    H33   71   0.375  -0.156  -0.340
    1UNL    H34   72   0.492  -0.119  -0.460
    1UNL    H35   73   0.299  -0.101  -0.131
   0.00000   0.00000   0.00000   0.00000   0.00000   0.00000   0.00000   0.00000   0.00000
Generated with MDTraj, t= 20.0
 73
    1UNL     C1    1  -0.102   0.024   0.305
    1UNL     C2    2  -0.048   0.125   0.240
    1UNL     C3    3  -0.082   0.158   0.101
    1UNL     C4    4  -0.226   0.131   0.050
    1UNL     O1    5  -0.247  -0.010   0.036
    1UNL     C5    6  -0.388  -0.032   0.012
    1UNL     O2    7  -0.472   0.043   0.100
    1UNL     C6    8  -0.612   0.056   0.050
    1UNL     C7    9  -0.644   0.169  -0.038
    1UNL     O3   10  -0.776   0.151  -0.094
    1UNL     C8   11  -0.648  -0.081  -0.015
    1UNL     O4   12  -0.786  -0.115  -0.003
    1UNL     C9   13  -0.569  -0.207   0.037
    1UNL     O5   14  -0.606  -0.315  -0.049
    1UNL    C10   15  -0.421  -0.178   0.023
    1UNL     O6   16  -0.373  -0.231  -0.099
    1UNL     O7   17  -0.247   0.198  -0.069
    1UNL    C11   18  -0.159   0.166  -0.172
    1UNL    C12   19  -0.034   0.106  -0.146
    1UNL    C13   20   0.060   0.083  -0.253
    1UNL     O8   21   0.164   0.021  -0.237
    1UNL     O9   22   0.024   0.127  -0.381
    1UNL    C14   23   0.008   0.074  -0.002
    1UNL    C15   24   0.164   0.087   0.026
    1UNL    C16   25   0.225  -0.042   0.095
    1UNL     N1   26   0.210  -0.043   0.243
    1UNL    C17   27   0.318   0.019   0.311
    1UNL    C18   28   0.460  -0.043   0.295
    1UNL    C19   29   0.484  -0.057   0.145
    1UNL    C20   30   0.617  -0.067   0.101
    1UNL    C21   31   0.641  -0.064  -0.041
    1UNL    O10   32   0.776  -0.057  -0.080
    1UNL    C22   33   0.792  -0.021  -0.212
    1UNL    C23   34   0.527  -0.086  -0.125
    1UNL    O11   35   0.549  -0.102  -0.266
    1UNL    C24   36   0.457  -0.047  -0.354
    1UNL    C25   37   0.396  -0.084  -0.077
    1UNL    C26   38   0.372  -0.060   0.058
    1UNL     H1   39  -0.076   0.006   0.408
    1UNL     H2   40  -0.166  -0.036   0.258
    1UNL     H3   41   0.004   0.198   0.296
    1UNL     H4   42  -0.056   0.265   0.089
    1UNL     H5   43  -0.300   0.165   0.132
    1UNL     H6   44  -0.395   0.010  -0.093
    1UNL     H7   45  -0.665   0.061   0.151
    1UNL     H8   46  -0.648   0.274   0.006
    1UNL     H9   47  -0.577   0.172  -0.129
    1UNL    H10   48  -0.817   0.068  -0.076
    1UNL    H11   49  -0.626  -0.077  -0.122
    1UNL    H12   50  -0.822  -0.090   0.085
    1UNL    H13   51  -0.600  -0.236   0.138
    1UNL    H14   52  -0.694  -0.294  -0.087
    1UNL    H15   53  -0.364  -0.224   0.102
    1UNL    H16   54  -0.425  -0.312  -0.111
    1UNL    H17   55  -0.190   0.204  -0.269
    1UNL    H18   56   0.092   0.084  -0.434
    1UNL    H19   57  -0.016  -0.030   0.004
    1UNL    H20   58   0.210   0.098  -0.067
    1UNL    H21   59   0.188   0.176   0.080
    1UNL    H22   60   0.170  -0.128   0.055
    1UNL    H23   61   0.203  -0.145   0.270
    1UNL    H24   62   0.277   0.023   0.420
    1UNL    H25   63   0.309   0.125   0.273
    1UNL    H26   64   0.469  -0.139   0.342
    1UNL    H27   65   0.525   0.012   0.361
    1UNL    H28   66   0.699  -0.036   0.171
    1UNL    H29   67   0.749  -0.094  -0.276
    1UNL    H30   68   0.739   0.076  -0.238
    1UNL    H31   69   0.894   0.000  -0.227
    1UNL    H32   70   0.428   0.048  -0.304
    1UNL    H33   71   0.384  -0.122  -0.365
    1UNL    H34   72   0.499  -0.028  -0.453
    1UNL    H35   73   0.317  -0.086  -0.149
   0.00000   0.00000   0.00000   0.00000   0.00000   0.00000   0.00000   0.00000   0.00000
Generated with MDTraj, t= 21.0
 73
    1UNL     C1    1  -0.116   0.052   0.307
    1UNL     C2    2  -0.061   0.158   0.240
    1UNL     C3    3  -0.077   0.171   0.092
    1UNL     C4    4  -0.220   0.138   0.048
    1UNL     O1    5  -0.247  -0.004   0.061
    1UNL     C5    6  -0.388  -0.030   0.029
    1UNL     O2    7  -0.488   0.042   0.098
    1UNL     C6    8  -0.619   0.035   0.034
    1UNL     C7    9  -0.644   0.164  -0.035
    1UNL     O3   10  -0.785   0.191  -0.032
    1UNL     C8   11  -0.649  -0.098  -0.042
    1UNL     O4   12  -0.792  -0.124  -0.038
    1UNL     C9   13  -0.573  -0.216   0.031
    1UNL     O5   14  -0.604  -0.341  -0.031
    1UNL    C10   15  -0.418  -0.186   0.025
    1UNL     O6   16  -0.370  -0.245  -0.100
    1UNL     O7   17  -0.248   0.184  -0.081
    1UNL    C11   18  -0.144   0.146  -0.167
    1UNL    C12   19  -0.024   0.098  -0.137
    1UNL    C13   20   0.067   0.077  -0.252
    1UNL     O8   21   0.176   0.026  -0.249
    1UNL     O9   22   0.023   0.121  -0.370
    1UNL    C14   23   0.021   0.081   0.006
    1UNL    C15   24   0.171   0.097   0.036
    1UNL    C16   25   0.233  -0.038   0.085
    1UNL     N1   26   0.204  -0.053   0.239
    1UNL    C17   27   0.304   0.020   0.322
    1UNL    C18   28   0.452  -0.020   0.284
    1UNL    C19   29   0.474  -0.055   0.141
    1UNL    C20   30   0.604  -0.073   0.092
    1UNL    C21   31   0.634  -0.091  -0.042
    1UNL    O10   32   0.765  -0.122  -0.081
    1UNL    C22   33   0.824  -0.059  -0.194
    1UNL    C23   34   0.526  -0.061  -0.134
    1UNL    O11   35   0.561  -0.050  -0.273
    1UNL    C24   36   0.459  -0.026  -0.364
    1UNL    C25   37   0.398  -0.058  -0.091
    1UNL    C26   38   0.372  -0.048   0.045
    1UNL     H1   39  -0.104   0.041   0.419
    1UNL     H2   40  -0.181  -0.031   0.270
    1UNL     H3   41   0.017   0.225   0.280
    1UNL     H4   42  -0.071   0.278   0.060
    1UNL     H5   43  -0.301   0.196   0.106
    1UNL     H6   44  -0.394   0.007  -0.077
    1UNL     H7   45  -0.691   0.032   0.124
    1UNL     H8   46  -0.591   0.247   0.019
    1UNL     H9   47  -0.612   0.165  -0.141
    1UNL    H10   48  -0.845   0.116  -0.072
    1UNL    H11   49  -0.611  -0.094  -0.142
    1UNL    H12   50  -0.820  -0.091   0.049
    1UNL    H13   51  -0.611  -0.210   0.130
    1UNL    H14   52  -0.696  -0.335  -0.061
    1UNL    H15   53  -0.362  -0.239   0.100
    1UNL    H16   54  -0.417  -0.333  -0.106
    1UNL    H17   55  -0.166   0.160  -0.270
    1UNL    H18   56   0.088   0.100  -0.441
    1UNL    H19   57  -0.010  -0.018   0.035
    1UNL    H20   58   0.210   0.122  -0.058
    1UNL    H21   59   0.198   0.178   0.102
    1UNL    H22   60   0.181  -0.116   0.032
    1UNL    H23   61   0.223  -0.153   0.266
    1UNL    H24   62   0.267   0.002   0.431
    1UNL    H25   63   0.287   0.132   0.312
    1UNL    H26   64   0.478  -0.095   0.352
    1UNL    H27   65   0.527   0.054   0.310
    1UNL    H28   66   0.685  -0.079   0.168
    1UNL    H29   67   0.787  -0.105  -0.283
    1UNL    H30   68   0.800   0.052  -0.208
    1UNL    H31   69   0.930  -0.062  -0.182
    1UNL    H32   70   0.403   0.059  -0.324
    1UNL    H33   71   0.406  -0.120  -0.368
    1UNL    H34   72   0.492  -0.004  -0.471
    1UNL    H35   73   0.322  -0.057  -0.164
   0.00000   0.00000   0.00000   0.00000   0.00000   0.00000   0.00000   0.00000   0.00000
Generated with MDTraj, t= 22.0
 73
    1UNL     C1    1  -0.111   0.057   0.310
    1UNL     C2    2  -0.063   0.159   0.238
    1UNL     C3    3  -0.093   0.170   0.090
    1UNL     C4    4  -0.238   0.136   0.057
    1UNL     O1    5  -0.258  -0.005   0.073
    1UNL     C5    6  -0.385  -0.029   0.026
    1UNL     O2    7  -0.474   0.040   0.104
    1UNL     C6    8  -0.605   0.036   0.047
    1UNL     C7    9  -0.657   0.173  -0.015
    1UNL     O3   10  -0.795   0.165  -0.038
    1UNL     C8   11  -0.635  -0.090  -0.040
    1UNL     O4   12  -0.777  -0.110  -0.050
    1UNL     C9   13  -0.571  -0.211   0.026
    1UNL     O5   14  -0.599  -0.339  -0.021
    1UNL    C10   15  -0.419  -0.188   0.025
    1UNL     O6   16  -0.368  -0.234  -0.098
    1UNL     O7   17  -0.267   0.173  -0.082
    1UNL    C11   18  -0.163   0.148  -0.166
    1UNL    C12   19  -0.038   0.104  -0.142
    1UNL    C13   20   0.053   0.073  -0.254
    1UNL     O8   21   0.161   0.033  -0.229
    1UNL     O9   22   0.009   0.108  -0.377
    1UNL    C14   23   0.005   0.084  -0.003
    1UNL    C15   24   0.157   0.106   0.021
    1UNL    C16   25   0.234  -0.020   0.066
    1UNL     N1   26   0.201  -0.048   0.216
    1UNL    C17   27   0.301   0.006   0.309
    1UNL    C18   28   0.436  -0.059   0.290
    1UNL    C19   29   0.474  -0.049   0.137
    1UNL    C20   30   0.600  -0.082   0.093
    1UNL    C21   31   0.645  -0.078  -0.039
    1UNL    O10   32   0.776  -0.119  -0.064
    1UNL    C22   33   0.831  -0.111  -0.193
    1UNL    C23   34   0.553  -0.047  -0.137
    1UNL    O11   35   0.586  -0.065  -0.275
    1UNL    C24   36   0.480  -0.025  -0.357
    1UNL    C25   37   0.428  -0.006  -0.092
    1UNL    C26   38   0.385  -0.019   0.039
    1UNL     H1   39  -0.101   0.048   0.409
    1UNL     H2   40  -0.166  -0.020   0.257
    1UNL     H3   41   0.003   0.228   0.286
    1UNL     H4   42  -0.062   0.275   0.063
    1UNL     H5   43  -0.299   0.188   0.133
    1UNL     H6   44  -0.401   0.017  -0.072
    1UNL     H7   45  -0.681   0.022   0.133
    1UNL     H8   46  -0.641   0.246   0.064
    1UNL     H9   47  -0.597   0.207  -0.099
    1UNL    H10   48  -0.794   0.094  -0.100
    1UNL    H11   49  -0.602  -0.082  -0.140
    1UNL    H12   50  -0.817  -0.119   0.039
    1UNL    H13   51  -0.598  -0.206   0.127
    1UNL    H14   52  -0.672  -0.346  -0.088
    1UNL    H15   53  -0.361  -0.234   0.105
    1UNL    H16   54  -0.394  -0.326  -0.110
    1UNL    H17   55  -0.196   0.165  -0.268
    1UNL    H18   56   0.084   0.104  -0.443
    1UNL    H19   57  -0.011  -0.020   0.024
    1UNL    H20   58   0.205   0.150  -0.061
    1UNL    H21   59   0.160   0.172   0.108
    1UNL    H22   60   0.190  -0.104   0.016
    1UNL    H23   61   0.212  -0.150   0.235
    1UNL    H24   62   0.272   0.008   0.420
    1UNL    H25   63   0.295   0.117   0.282
    1UNL    H26   64   0.442  -0.157   0.322
    1UNL    H27   65   0.498  -0.006   0.362
    1UNL    H28   66   0.668  -0.109   0.162
    1UNL    H29   67   0.783  -0.188  -0.253
    1UNL    H30   68   0.813  -0.012  -0.244
    1UNL    H31   69   0.938  -0.120  -0.179
    1UNL    H32   70   0.456   0.080  -0.341
    1UNL    H33   71   0.395  -0.087  -0.323
    1UNL    H34   72   0.488  -0.051  -0.470
    1UNL    H35   73   0.348  -0.010  -0.166
   0.00000   0.00000   0.00000   0.00000   0.00000   0.00000   0.00000   0.00000   0.00000
Generated with MDTraj, t= 23.0
 73
    1UNL     C1    1  -0.089   0.046   0.314
    1UNL     C2    2  -0.053   0.150   0.241
    1UNL     C3    3  -0.078   0.171   0.095
    1UNL     C4    4  -0.228   0.144   0.058
    1UNL     O1    5  -0.262   0.007   0.067
    1UNL     C5    6  -0.395  -0.019   0.036
    1UNL     O2    7  -0.491   0.044   0.117
    1UNL     C6    8  -0.624   0.030   0.065
    1UNL     C7    9  -0.654   0.163  -0.011
    1UNL     O3   10  -0.778   0.149  -0.070
    1UNL     C8   11  -0.649  -0.093  -0.025
    1UNL     O4   12  -0.787  -0.127  -0.015
    1UNL     C9   13  -0.569  -0.216   0.025
    1UNL     O5   14  -0.593  -0.329  -0.064
    1UNL    C10   15  -0.416  -0.179   0.034
    1UNL     O6   16  -0.357  -0.229  -0.082
    1UNL     O7   17  -0.257   0.198  -0.077
    1UNL    C11   18  -0.163   0.173  -0.163
    1UNL    C12   19  -0.036   0.126  -0.143
    1UNL    C13   20   0.042   0.078  -0.257
    1UNL     O8   21   0.148   0.029  -0.246
    1UNL     O9   22  -0.023   0.082  -0.377
    1UNL    C14   23   0.010   0.096  -0.005
    1UNL    C15   24   0.166   0.114   0.019
    1UNL    C16   25   0.226  -0.015   0.055
    1UNL     N1   26   0.188  -0.046   0.199
    1UNL    C17   27   0.286  -0.012   0.305
    1UNL    C18   28   0.421  -0.074   0.273
    1UNL    C19   29   0.470  -0.056   0.133
    1UNL    C20   30   0.606  -0.067   0.098
    1UNL    C21   31   0.652  -0.067  -0.035
    1UNL    O10   32   0.787  -0.085  -0.050
    1UNL    C22   33   0.821  -0.157  -0.169
    1UNL    C23   34   0.561  -0.039  -0.138
    1UNL    O11   35   0.606  -0.037  -0.263
    1UNL    C24   36   0.512  -0.038  -0.365
    1UNL    C25   37   0.424  -0.029  -0.107
    1UNL    C26   38   0.376  -0.035   0.026
    1UNL     H1   39  -0.055   0.013   0.413
    1UNL     H2   40  -0.142  -0.027   0.245
    1UNL     H3   41   0.011   0.219   0.294
    1UNL     H4   42  -0.068   0.285   0.080
    1UNL     H5   43  -0.296   0.202   0.118
    1UNL     H6   44  -0.427   0.024  -0.057
    1UNL     H7   45  -0.700   0.021   0.149
    1UNL     H8   46  -0.644   0.241   0.062
    1UNL     H9   47  -0.571   0.179  -0.075
    1UNL    H10   48  -0.790   0.056  -0.115
    1UNL    H11   49  -0.632  -0.081  -0.128
    1UNL    H12   50  -0.808  -0.151   0.079
    1UNL    H13   51  -0.613  -0.233   0.120
    1UNL    H14   52  -0.669  -0.313  -0.120
    1UNL    H15   53  -0.375  -0.231   0.123
    1UNL    H16   54  -0.407  -0.316  -0.098
    1UNL    H17   55  -0.204   0.192  -0.265
    1UNL    H18   56   0.047   0.034  -0.432
    1UNL    H19   57  -0.015  -0.008   0.015
    1UNL    H20   58   0.213   0.158  -0.068
    1UNL    H21   59   0.185   0.179   0.102
    1UNL    H22   60   0.175  -0.086  -0.012
    1UNL    H23   61   0.182  -0.151   0.199
    1UNL    H24   62   0.232  -0.051   0.396
    1UNL    H25   63   0.293   0.102   0.321
    1UNL    H26   64   0.407  -0.176   0.294
    1UNL    H27   65   0.502  -0.033   0.334
    1UNL    H28   66   0.693  -0.072   0.173
    1UNL    H29   67   0.727  -0.201  -0.205
    1UNL    H30   68   0.852  -0.086  -0.249
    1UNL    H31   69   0.907  -0.223  -0.147
    1UNL    H32   70   0.434   0.034  -0.352
    1UNL    H33   71   0.461  -0.136  -0.368
    1UNL    H34   72   0.563  -0.025  -0.470
    1UNL    H35   73   0.355   0.012  -0.178
   0.00000   0.00000   0.00000   0.00000   0.00000   0.00000   0.00000   0.00000   0.00000
Generated with MDTraj, t= 24.0
 73
    1UNL     C1    1  -0.069   0.023   0.304
    1UNL     C2    2  -0.044   0.137   0.236
    1UNL     C3    3  -0.076   0.172   0.095
    1UNL     C4    4  -0.221   0.159   0.068
    1UNL     O1    5  -0.254   0.019   0.079
    1UNL     C5    6  -0.382   0.002   0.031
    1UNL     O2    7  -0.480   0.057   0.115
    1UNL     C6    8  -0.612   0.043   0.058
    1UNL     C7    9  -0.639   0.163  -0.034
    1UNL     O3   10  -0.776   0.161  -0.074
    1UNL     C8   11  -0.639  -0.092  -0.017
    1UNL     O4   12  -0.769  -0.148   0.004
    1UNL     C9   13  -0.547  -0.205   0.031
    1UNL     O5   14  -0.575  -0.319  -0.055
    1UNL    C10   15  -0.403  -0.158   0.026
    1UNL     O6   16  -0.342  -0.210  -0.082
    1UNL     O7   17  -0.254   0.204  -0.066
    1UNL    C11   18  -0.179   0.141  -0.162
    1UNL    C12   19  -0.059   0.087  -0.137
    1UNL    C13   20   0.025   0.066  -0.261
    1UNL     O8   21   0.139   0.035  -0.255
    1UNL     O9   22  -0.042   0.084  -0.377
    1UNL    C14   23   0.000   0.081   0.005
    1UNL    C15   24   0.156   0.092   0.013
    1UNL    C16   25   0.216  -0.044   0.042
    1UNL     N1   26   0.179  -0.100   0.178
    1UNL    C17   27   0.262  -0.030   0.285
    1UNL    C18   28   0.414  -0.051   0.270
    1UNL    C19   29   0.459  -0.054   0.128
    1UNL    C20   30   0.591  -0.058   0.106
    1UNL    C21   31   0.642  -0.045  -0.020
    1UNL    O10   32   0.788  -0.058  -0.047
    1UNL    C22   33   0.811  -0.171  -0.142
    1UNL    C23   34   0.553  -0.033  -0.132
    1UNL    O11   35   0.605  -0.018  -0.261
    1UNL    C24   36   0.519  -0.035  -0.367
    1UNL    C25   37   0.418  -0.031  -0.106
    1UNL    C26   38   0.367  -0.044   0.020
    1UNL     H1   39  -0.058   0.025   0.412
    1UNL     H2   40  -0.108  -0.059   0.257
    1UNL     H3   41  -0.009   0.221   0.292
    1UNL     H4   42  -0.039   0.277   0.066
    1UNL     H5   43  -0.291   0.214   0.125
    1UNL     H6   44  -0.395   0.049  -0.063
    1UNL     H7   45  -0.683   0.051   0.145
    1UNL     H8   46  -0.601   0.249   0.017
    1UNL     H9   47  -0.568   0.157  -0.113
    1UNL    H10   48  -0.800   0.112  -0.153
    1UNL    H11   49  -0.618  -0.082  -0.119
    1UNL    H12   50  -0.783  -0.145   0.102
    1UNL    H13   51  -0.570  -0.222   0.134
    1UNL    H14   52  -0.669  -0.307  -0.086
    1UNL    H15   53  -0.336  -0.195   0.109
    1UNL    H16   54  -0.401  -0.243  -0.151
    1UNL    H17   55  -0.215   0.168  -0.261
    1UNL    H18   56   0.017   0.053  -0.448
    1UNL    H19   57  -0.017  -0.024   0.036
    1UNL    H20   58   0.199   0.142  -0.077
    1UNL    H21   59   0.187   0.154   0.094
    1UNL    H22   60   0.169  -0.108  -0.035
    1UNL    H23   61   0.180  -0.205   0.186
    1UNL    H24   62   0.229  -0.057   0.387
    1UNL    H25   63   0.235   0.080   0.279
    1UNL    H26   64   0.443  -0.143   0.314
    1UNL    H27   65   0.457   0.037   0.322
    1UNL    H28   66   0.660  -0.069   0.188
    1UNL    H29   67   0.722  -0.172  -0.208
    1UNL    H30   68   0.896  -0.144  -0.205
    1UNL    H31   69   0.842  -0.264  -0.091
    1UNL    H32   70   0.460   0.051  -0.382
    1UNL    H33   71   0.445  -0.116  -0.354
    1UNL    H34   72   0.576  -0.059  -0.463
    1UNL    H35   73   0.346  -0.016  -0.185
   0.00000   0.00000   0.00000   0.00000   0.00000   0.00000   0.00000   0.00000   0.00000
Generated with MDTraj, t= 25.0
 73
    1UNL     C1    1  -0.061   0.046   0.313
    1UNL     C2    2  -0.025   0.160   0.250
    1UNL     C3    3  -0.069   0.177   0.100
    1UNL     C4    4  -0.220   0.157   0.074
    1UNL     O1    5  -0.246   0.016   0.091
    1UNL     C5    6  -0.376  -0.008   0.044
    1UNL     O2    7  -0.483   0.054   0.123
    1UNL     C6    8  -0.610   0.045   0.054
    1UNL     C7    9  -0.632   0.162  -0.035
    1UNL     O3   10  -0.758   0.153  -0.088
    1UNL     C8   11  -0.636  -0.089  -0.027
    1UNL     O4   12  -0.772  -0.131  -0.023
    1UNL     C9   13  -0.550  -0.201   0.038
    1UNL     O5   14  -0.576  -0.334  -0.013
    1UNL    C10   15  -0.399  -0.171   0.024
    1UNL     O6   16  -0.354  -0.202  -0.107
    1UNL     O7   17  -0.258   0.206  -0.052
    1UNL    C11   18  -0.170   0.174  -0.160
    1UNL    C12   19  -0.052   0.114  -0.143
    1UNL    C13   20   0.024   0.060  -0.258
    1UNL     O8   21   0.118  -0.007  -0.234
    1UNL     O9   22  -0.034   0.077  -0.382
    1UNL    C14   23   0.000   0.086  -0.002
    1UNL    C15   24   0.152   0.082   0.022
    1UNL    C16   25   0.221  -0.051   0.029
    1UNL     N1   26   0.185  -0.121   0.150
    1UNL    C17   27   0.243  -0.067   0.265
    1UNL    C18   28   0.397  -0.057   0.265
    1UNL    C19   29   0.449  -0.049   0.122
    1UNL    C20   30   0.588  -0.031   0.105
    1UNL    C21   31   0.644  -0.036  -0.024
    1UNL    O10   32   0.781  -0.046  -0.031
    1UNL    C22   33   0.821  -0.134  -0.127
    1UNL    C23   34   0.551  -0.043  -0.140
    1UNL    O11   35   0.607  -0.047  -0.265
    1UNL    C24   36   0.516  -0.016  -0.369
    1UNL    C25   37   0.411  -0.046  -0.123
    1UNL    C26   38   0.364  -0.046   0.013
    1UNL     H1   39  -0.026   0.036   0.419
    1UNL     H2   40  -0.132  -0.022   0.276
    1UNL     H3   41   0.042   0.231   0.298
    1UNL     H4   42  -0.038   0.285   0.074
    1UNL     H5   43  -0.271   0.215   0.148
    1UNL     H6   44  -0.391   0.038  -0.049
    1UNL     H7   45  -0.682   0.045   0.139
    1UNL     H8   46  -0.621   0.256   0.020
    1UNL     H9   47  -0.556   0.179  -0.109
    1UNL    H10   48  -0.829   0.153  -0.025
    1UNL    H11   49  -0.622  -0.083  -0.130
    1UNL    H12   50  -0.808  -0.140   0.067
    1UNL    H13   51  -0.575  -0.214   0.144
    1UNL    H14   52  -0.655  -0.330  -0.076
    1UNL    H15   53  -0.336  -0.235   0.090
    1UNL    H16   54  -0.408  -0.275  -0.153
    1UNL    H17   55  -0.214   0.193  -0.253
    1UNL    H18   56   0.024   0.032  -0.445
    1UNL    H19   57  -0.031  -0.017   0.031
    1UNL    H20   58   0.203   0.137  -0.061
    1UNL    H21   59   0.177   0.143   0.107
    1UNL    H22   60   0.171  -0.109  -0.055
    1UNL    H23   61   0.198  -0.226   0.156
    1UNL    H24   62   0.211  -0.118   0.353
    1UNL    H25   63   0.207   0.039   0.282
    1UNL    H26   64   0.437  -0.144   0.314
    1UNL    H27   65   0.417   0.045   0.302
    1UNL    H28   66   0.647  -0.039   0.189
    1UNL    H29   67   0.831  -0.073  -0.219
    1UNL    H30   68   0.913  -0.173  -0.088
    1UNL    H31   69   0.750  -0.219  -0.136
    1UNL    H32   70   0.452   0.059  -0.336
    1UNL    H33   71   0.449  -0.095  -0.404
    1UNL    H34   72   0.565   0.020  -0.462
    1UNL    H35   73   0.346  -0.058  -0.210
   0.00000   0.00000   0.00000   0.00000   0.00000   0.00000   0.00000   0.00000   0.00000
Generated with MDTraj, t= 26.0
 73
    1UNL     C1    1  -0.096   0.084   0.336
    1UNL     C2    2  -0.050   0.180   0.254
    1UNL     C3    3  -0.074   0.177   0.104
    1UNL     C4    4  -0.227   0.155   0.077
    1UNL     O1    5  -0.252   0.016   0.094
    1UNL     C5    6  -0.374  -0.012   0.040
    1UNL     O2    7  -0.479   0.045   0.117
    1UNL     C6    8  -0.607   0.046   0.045
    1UNL     C7    9  -0.634   0.170  -0.038
    1UNL     O3   10  -0.747   0.163  -0.113
    1UNL     C8   11  -0.645  -0.093  -0.020
    1UNL     O4   12  -0.783  -0.116  -0.020
    1UNL     C9   13  -0.556  -0.198   0.046
    1UNL     O5   14  -0.575  -0.331   0.011
    1UNL    C10   15  -0.404  -0.165   0.021
    1UNL     O6   16  -0.362  -0.202  -0.108
    1UNL     O7   17  -0.255   0.204  -0.054
    1UNL    C11   18  -0.172   0.154  -0.144
    1UNL    C12   19  -0.053   0.088  -0.124
    1UNL    C13   20   0.016   0.040  -0.247
    1UNL     O8   21   0.110  -0.026  -0.237
    1UNL     O9   22  -0.031   0.093  -0.365
    1UNL    C14   23   0.003   0.073   0.020
    1UNL    C15   24   0.159   0.085   0.028
    1UNL    C16   25   0.222  -0.058   0.021
    1UNL     N1   26   0.176  -0.128   0.144
    1UNL    C17   27   0.239  -0.069   0.266
    1UNL    C18   28   0.392  -0.071   0.258
    1UNL    C19   29   0.446  -0.064   0.115
    1UNL    C20   30   0.581  -0.058   0.095
    1UNL    C21   31   0.640  -0.050  -0.025
    1UNL    O10   32   0.787  -0.026  -0.035
    1UNL    C22   33   0.847  -0.079  -0.151
    1UNL    C23   34   0.558  -0.056  -0.144
    1UNL    O11   35   0.624  -0.063  -0.274
    1UNL    C24   36   0.555   0.005  -0.375
    1UNL    C25   37   0.422  -0.048  -0.127
    1UNL    C26   38   0.364  -0.061   0.001
    1UNL     H1   39  -0.072   0.073   0.441
    1UNL     H2   40  -0.158   0.002   0.298
    1UNL     H3   41  -0.002   0.271   0.290
    1UNL     H4   42  -0.048   0.285   0.072
    1UNL     H5   43  -0.293   0.211   0.144
    1UNL     H6   44  -0.378   0.037  -0.053
    1UNL     H7   45  -0.663   0.070   0.135
    1UNL     H8   46  -0.631   0.276   0.001
    1UNL     H9   47  -0.557   0.185  -0.114
    1UNL    H10   48  -0.739   0.077  -0.165
    1UNL    H11   49  -0.631  -0.078  -0.123
    1UNL    H12   50  -0.809  -0.100   0.072
    1UNL    H13   51  -0.577  -0.200   0.155
    1UNL    H14   52  -0.660  -0.342  -0.035
    1UNL    H15   53  -0.349  -0.224   0.097
    1UNL    H16   54  -0.379  -0.295  -0.117
    1UNL    H17   55  -0.192   0.185  -0.246
    1UNL    H18   56   0.029   0.067  -0.435
    1UNL    H19   57  -0.022  -0.028   0.066
    1UNL    H20   58   0.185   0.152  -0.058
    1UNL    H21   59   0.201   0.139   0.113
    1UNL    H22   60   0.165  -0.103  -0.065
    1UNL    H23   61   0.205  -0.228   0.142
    1UNL    H24   62   0.211  -0.109   0.360
    1UNL    H25   63   0.207   0.038   0.278
    1UNL    H26   64   0.424  -0.168   0.291
    1UNL    H27   65   0.434   0.019   0.305
    1UNL    H28   66   0.642  -0.069   0.193
    1UNL    H29   67   0.869   0.000  -0.225
    1UNL    H30   68   0.931  -0.134  -0.117
    1UNL    H31   69   0.780  -0.157  -0.196
    1UNL    H32   70   0.541   0.104  -0.348
    1UNL    H33   71   0.458  -0.033  -0.409
    1UNL    H34   72   0.616  -0.005  -0.465
    1UNL    H35   73   0.359  -0.041  -0.212
   0.00000   0.00000   0.00000   0.00000   0.00000   0.00000   0.00000   0.00000   0.00000
Generated with MDTraj, t= 27.0
 73
    1UNL     C1    1  -0.105   0.095   0.331
    1UNL     C2    2  -0.028   0.152   0.239
    1UNL     C3    3  -0.066   0.174   0.100
    1UNL     C4    4  -0.216   0.158   0.080
    1UNL     O1    5  -0.252   0.021   0.104
    1UNL     C5    6  -0.378  -0.004   0.050
    1UNL     O2    7  -0.495   0.063   0.109
    1UNL     C6    8  -0.622   0.053   0.039
    1UNL     C7    9  -0.624   0.153  -0.070
    1UNL     O3   10  -0.748   0.160  -0.140
    1UNL     C8   11  -0.655  -0.089  -0.015
    1UNL     O4   12  -0.793  -0.111  -0.007
    1UNL     C9   13  -0.570  -0.194   0.062
    1UNL     O5   14  -0.584  -0.315  -0.007
    1UNL    C10   15  -0.414  -0.159   0.050
    1UNL     O6   16  -0.372  -0.214  -0.079
    1UNL     O7   17  -0.257   0.199  -0.056
    1UNL    C11   18  -0.176   0.146  -0.153
    1UNL    C12   19  -0.060   0.082  -0.133
    1UNL    C13   20   0.023   0.041  -0.248
    1UNL     O8   21   0.129  -0.010  -0.237
    1UNL     O9   22  -0.028   0.072  -0.368
    1UNL    C14   23  -0.000   0.068   0.013
    1UNL    C15   24   0.152   0.081   0.019
    1UNL    C16   25   0.220  -0.061   0.027
    1UNL     N1   26   0.180  -0.136   0.149
    1UNL    C17   27   0.246  -0.102   0.272
    1UNL    C18   28   0.403  -0.085   0.266
    1UNL    C19   29   0.458  -0.059   0.120
    1UNL    C20   30   0.596  -0.060   0.096
    1UNL    C21   31   0.655  -0.051  -0.033
    1UNL    O10   32   0.791  -0.077  -0.041
    1UNL    C22   33   0.857  -0.021  -0.161
    1UNL    C23   34   0.572  -0.044  -0.146
    1UNL    O11   35   0.620  -0.040  -0.275
    1UNL    C24   36   0.528   0.023  -0.357
    1UNL    C25   37   0.429  -0.052  -0.121
    1UNL    C26   38   0.374  -0.058   0.008
    1UNL     H1   39  -0.091   0.088   0.431
    1UNL     H2   40  -0.204   0.055   0.301
    1UNL     H3   41   0.066   0.190   0.270
    1UNL     H4   42  -0.014   0.269   0.064
    1UNL     H5   43  -0.282   0.216   0.150
    1UNL     H6   44  -0.365   0.019  -0.052
    1UNL     H7   45  -0.685   0.078   0.121
    1UNL     H8   46  -0.606   0.257  -0.025
    1UNL     H9   47  -0.545   0.153  -0.148
    1UNL    H10   48  -0.821   0.172  -0.070
    1UNL    H11   49  -0.643  -0.098  -0.122
    1UNL    H12   50  -0.823  -0.102   0.086
    1UNL    H13   51  -0.604  -0.215   0.168
    1UNL    H14   52  -0.678  -0.322  -0.036
    1UNL    H15   53  -0.352  -0.199   0.131
    1UNL    H16   54  -0.399  -0.311  -0.080
    1UNL    H17   55  -0.232   0.162  -0.247
    1UNL    H18   56   0.044   0.046  -0.428
    1UNL    H19   57  -0.017  -0.039   0.049
    1UNL    H20   58   0.190   0.133  -0.071
    1UNL    H21   59   0.175   0.146   0.107
    1UNL    H22   60   0.179  -0.111  -0.065
    1UNL    H23   61   0.203  -0.236   0.126
    1UNL    H24   62   0.218  -0.176   0.343
    1UNL    H25   63   0.195  -0.009   0.309
    1UNL    H26   64   0.444  -0.181   0.288
    1UNL    H27   65   0.433  -0.004   0.333
    1UNL    H28   66   0.658  -0.073   0.178
    1UNL    H29   67   0.788   0.042  -0.219
    1UNL    H30   68   0.944   0.032  -0.137
    1UNL    H31   69   0.880  -0.108  -0.227
    1UNL    H32   70   0.484   0.105  -0.308
    1UNL    H33   71   0.453  -0.042  -0.404
    1UNL    H34   72   0.589   0.054  -0.441
    1UNL    H35   73   0.355  -0.022  -0.196
   0.00000   0.00000   0.00000   0.00000   0.00000   0.00000   0.00000   0.00000   0.00000
Generated with MDTraj, t= 28.0
 73
    1UNL     C1    1  -0.094   0.069   0.322
    1UNL     C2    2  -0.045   0.161   0.246
    1UNL     C3    3  -0.068   0.167   0.098
    1UNL     C4    4  -0.220   0.153   0.070
    1UNL     O1    5  -0.256   0.017   0.101
    1UNL     C5    6  -0.384  -0.013   0.046
    1UNL     O2    7  -0.493   0.072   0.099
    1UNL     C6    8  -0.620   0.069   0.037
    1UNL     C7    9  -0.621   0.166  -0.084
    1UNL     O3   10  -0.746   0.165  -0.165
    1UNL     C8   11  -0.657  -0.077  -0.005
    1UNL     O4   12  -0.799  -0.112   0.003
    1UNL     C9   13  -0.580  -0.184   0.070
    1UNL     O5   14  -0.610  -0.305   0.008
    1UNL    C10   15  -0.427  -0.160   0.064
    1UNL     O6   16  -0.373  -0.231  -0.044
    1UNL     O7   17  -0.248   0.188  -0.065
    1UNL    C11   18  -0.155   0.144  -0.156
    1UNL    C12   19  -0.037   0.085  -0.136
    1UNL    C13   20   0.041   0.039  -0.255
    1UNL     O8   21   0.158   0.012  -0.246
    1UNL     O9   22  -0.032   0.037  -0.368
    1UNL    C14   23   0.004   0.064   0.011
    1UNL    C15   24   0.157   0.071   0.031
    1UNL    C16   25   0.225  -0.069   0.035
    1UNL     N1   26   0.185  -0.132   0.160
    1UNL    C17   27   0.260  -0.091   0.283
    1UNL    C18   28   0.414  -0.113   0.257
    1UNL    C19   29   0.461  -0.098   0.111
    1UNL    C20   30   0.599  -0.104   0.083
    1UNL    C21   31   0.650  -0.070  -0.039
    1UNL    O10   32   0.790  -0.067  -0.056
    1UNL    C22   33   0.853   0.030  -0.138
    1UNL    C23   34   0.554  -0.035  -0.143
    1UNL    O11   35   0.607   0.012  -0.262
    1UNL    C24   36   0.512   0.024  -0.374
    1UNL    C25   37   0.418  -0.034  -0.116
    1UNL    C26   38   0.372  -0.067   0.007
    1UNL     H1   39  -0.080   0.066   0.431
    1UNL     H2   40  -0.164  -0.009   0.285
    1UNL     H3   41   0.033   0.216   0.300
    1UNL     H4   42  -0.054   0.275   0.068
    1UNL     H5   43  -0.289   0.234   0.117
    1UNL     H6   44  -0.375  -0.004  -0.058
    1UNL     H7   45  -0.687   0.100   0.110
    1UNL     H8   46  -0.594   0.274  -0.059
    1UNL     H9   47  -0.535   0.134  -0.146
    1UNL    H10   48  -0.778   0.089  -0.217
    1UNL    H11   49  -0.627  -0.097  -0.109
    1UNL    H12   50  -0.834  -0.078   0.089
    1UNL    H13   51  -0.609  -0.188   0.182
    1UNL    H14   52  -0.709  -0.302  -0.002
    1UNL    H15   53  -0.371  -0.188   0.153
    1UNL    H16   54  -0.444  -0.294  -0.068
    1UNL    H17   55  -0.200   0.155  -0.255
    1UNL    H18   56   0.034   0.002  -0.433
    1UNL    H19   57  -0.032  -0.038   0.045
    1UNL    H20   58   0.185   0.142  -0.050
    1UNL    H21   59   0.179   0.120   0.131
    1UNL    H22   60   0.182  -0.123  -0.051
    1UNL    H23   61   0.202  -0.233   0.149
    1UNL    H24   62   0.209  -0.132   0.366
    1UNL    H25   63   0.240   0.018   0.289
    1UNL    H26   64   0.438  -0.214   0.288
    1UNL    H27   65   0.471  -0.042   0.313
    1UNL    H28   66   0.675  -0.129   0.152
    1UNL    H29   67   0.821   0.131  -0.109
    1UNL    H30   68   0.956   0.019  -0.129
    1UNL    H31   69   0.821   0.016  -0.246
    1UNL    H32   70   0.445   0.107  -0.364
    1UNL    H33   71   0.455  -0.071  -0.391
    1UNL    H34   72   0.572   0.032  -0.463
    1UNL    H35   73   0.352  -0.001  -0.192
   0.00000   0.00000   0.00000   0.00000   0.00000   0.00000   0.00000   0.00000   0.00000
Generated with MDTraj, t= 29.0
 73
    1UNL     C1    1  -0.064   0.038   0.303
    1UNL     C2    2  -0.053   0.155   0.245
    1UNL     C3    3  -0.085   0.171   0.092
    1UNL     C4    4  -0.227   0.139   0.054
    1UNL     O1    5  -0.250   0.002   0.091
    1UNL     C5    6  -0.381  -0.020   0.046
    1UNL     O2    7  -0.475   0.087   0.090
    1UNL     C6    8  -0.602   0.078   0.023
    1UNL     C7    9  -0.615   0.170  -0.104
    1UNL     O3   10  -0.737   0.178  -0.160
    1UNL     C8   11  -0.646  -0.069  -0.016
    1UNL     O4   12  -0.794  -0.092  -0.031
    1UNL     C9   13  -0.583  -0.164   0.090
    1UNL     O5   14  -0.639  -0.295   0.070
    1UNL    C10   15  -0.425  -0.166   0.073
    1UNL     O6   16  -0.379  -0.252  -0.035
    1UNL     O7   17  -0.257   0.175  -0.080
    1UNL    C11   18  -0.163   0.131  -0.166
    1UNL    C12   19  -0.038   0.076  -0.136
    1UNL    C13   20   0.047   0.028  -0.250
    1UNL     O8   21   0.163   0.012  -0.232
    1UNL     O9   22  -0.013   0.016  -0.371
    1UNL    C14   23   0.003   0.072   0.008
    1UNL    C15   24   0.151   0.082   0.040
    1UNL    C16   25   0.222  -0.058   0.048
    1UNL     N1   26   0.177  -0.123   0.176
    1UNL    C17   27   0.291  -0.116   0.273
    1UNL    C18   28   0.413  -0.185   0.228
    1UNL    C19   29   0.460  -0.109   0.110
    1UNL    C20   30   0.597  -0.116   0.078
    1UNL    C21   31   0.645  -0.061  -0.042
    1UNL    O10   32   0.785  -0.044  -0.061
    1UNL    C22   33   0.822   0.065  -0.136
    1UNL    C23   34   0.551  -0.012  -0.135
    1UNL    O11   35   0.599   0.026  -0.261
    1UNL    C24   36   0.506   0.018  -0.371
    1UNL    C25   37   0.416  -0.001  -0.100
    1UNL    C26   38   0.372  -0.042   0.026
    1UNL     H1   39  -0.051   0.029   0.408
    1UNL     H2   40  -0.070  -0.052   0.261
    1UNL     H3   41  -0.036   0.235   0.312
    1UNL     H4   42  -0.045   0.269   0.057
    1UNL     H5   43  -0.297   0.206   0.118
    1UNL     H6   44  -0.383  -0.016  -0.060
    1UNL     H7   45  -0.671   0.118   0.089
    1UNL     H8   46  -0.590   0.271  -0.061
    1UNL     H9   47  -0.535   0.139  -0.170
    1UNL    H10   48  -0.769   0.089  -0.190
    1UNL    H11   49  -0.594  -0.097  -0.111
    1UNL    H12   50  -0.835  -0.058   0.052
    1UNL    H13   51  -0.610  -0.125   0.195
    1UNL    H14   52  -0.733  -0.272   0.065
    1UNL    H15   53  -0.374  -0.195   0.164
    1UNL    H16   54  -0.437  -0.331  -0.019
    1UNL    H17   55  -0.179   0.150  -0.270
    1UNL    H18   56   0.053  -0.026  -0.432
    1UNL    H19   57  -0.013  -0.036   0.043
    1UNL    H20   58   0.204   0.148  -0.034
    1UNL    H21   59   0.157   0.127   0.144
    1UNL    H22   60   0.186  -0.117  -0.035
    1UNL    H23   61   0.155  -0.223   0.174
    1UNL    H24   62   0.263  -0.149   0.370
    1UNL    H25   63   0.304  -0.007   0.287
    1UNL    H26   64   0.402  -0.293   0.213
    1UNL    H27   65   0.483  -0.173   0.307
    1UNL    H28   66   0.659  -0.189   0.143
    1UNL    H29   67   0.764   0.154  -0.103
    1UNL    H30   68   0.924   0.081  -0.116
    1UNL    H31   69   0.801   0.049  -0.247
    1UNL    H32   70   0.431   0.099  -0.375
    1UNL    H33   71   0.464  -0.088  -0.378
    1UNL    H34   72   0.572   0.021  -0.455
    1UNL    H35   73   0.344   0.003  -0.182
   0.00000   0.00000   0.00000   0.00000   0.00000   0.00000   0.00000   0.00000   0.00000
Generated with MDTraj, t= 30.0
 73
    1UNL     C1    1  -0.041   0.046   0.304
    1UNL     C2    2  -0.047   0.164   0.245
    1UNL     C3    3  -0.072   0.168   0.094
    1UNL     C4    4  -0.218   0.134   0.055
    1UNL     O1    5  -0.257   0.001   0.081
    1UNL     C5    6  -0.393  -0.022   0.040
    1UNL     O2    7  -0.487   0.076   0.085
    1UNL     C6    8  -0.610   0.079   0.016
    1UNL     C7    9  -0.604   0.155  -0.123
    1UNL     O3   10  -0.720   0.188  -0.173
    1UNL     C8   11  -0.655  -0.067  -0.014
    1UNL     O4   12  -0.800  -0.075  -0.042
    1UNL     C9   13  -0.605  -0.160   0.095
    1UNL     O5   14  -0.666  -0.292   0.097
    1UNL    C10   15  -0.451  -0.160   0.089
    1UNL     O6   16  -0.405  -0.257   0.000
    1UNL     O7   17  -0.247   0.174  -0.082
    1UNL    C11   18  -0.151   0.126  -0.170
    1UNL    C12   19  -0.033   0.070  -0.136
    1UNL    C13   20   0.050   0.029  -0.248
    1UNL     O8   21   0.163  -0.014  -0.230
    1UNL     O9   22  -0.006   0.025  -0.373
    1UNL    C14   23   0.012   0.065   0.006
    1UNL    C15   24   0.161   0.070   0.033
    1UNL    C16   25   0.226  -0.069   0.041
    1UNL     N1   26   0.187  -0.140   0.159
    1UNL    C17   27   0.289  -0.146   0.274
    1UNL    C18   28   0.423  -0.196   0.221
    1UNL    C19   29   0.470  -0.112   0.109
    1UNL    C20   30   0.609  -0.096   0.080
    1UNL    C21   31   0.651  -0.040  -0.042
    1UNL    O10   32   0.793  -0.027  -0.045
    1UNL    C22   33   0.827   0.069  -0.139
    1UNL    C23   34   0.551   0.001  -0.136
    1UNL    O11   35   0.583   0.068  -0.254
    1UNL    C24   36   0.497   0.036  -0.356
    1UNL    C25   37   0.416  -0.021  -0.110
    1UNL    C26   38   0.375  -0.066   0.018
    1UNL     H1   39  -0.014   0.019   0.412
    1UNL     H2   40  -0.059  -0.047   0.247
    1UNL     H3   41  -0.042   0.266   0.286
    1UNL     H4   42  -0.062   0.272   0.055
    1UNL     H5   43  -0.294   0.196   0.115
    1UNL     H6   44  -0.396  -0.010  -0.066
    1UNL     H7   45  -0.683   0.130   0.069
    1UNL     H8   46  -0.547   0.248  -0.098
    1UNL     H9   47  -0.554   0.096  -0.197
    1UNL    H10   48  -0.776   0.102  -0.154
    1UNL    H11   49  -0.608  -0.105  -0.110
    1UNL    H12   50  -0.852  -0.088   0.039
    1UNL    H13   51  -0.632  -0.119   0.198
    1UNL    H14   52  -0.763  -0.276   0.108
    1UNL    H15   53  -0.400  -0.173   0.186
    1UNL    H16   54  -0.451  -0.342   0.028
    1UNL    H17   55  -0.185   0.131  -0.270
    1UNL    H18   56   0.060  -0.019  -0.432
    1UNL    H19   57  -0.029  -0.035   0.042
    1UNL    H20   58   0.212   0.133  -0.047
    1UNL    H21   59   0.184   0.121   0.130
    1UNL    H22   60   0.181  -0.122  -0.042
    1UNL    H23   61   0.142  -0.233   0.144
    1UNL    H24   62   0.237  -0.198   0.353
    1UNL    H25   63   0.306  -0.047   0.313
    1UNL    H26   64   0.410  -0.300   0.187
    1UNL    H27   65   0.494  -0.206   0.297
    1UNL    H28   66   0.671  -0.118   0.157
    1UNL    H29   67   0.760   0.155  -0.122
    1UNL    H30   68   0.926   0.101  -0.123
    1UNL    H31   69   0.809   0.036  -0.247
    1UNL    H32   70   0.409   0.107  -0.361
    1UNL    H33   71   0.473  -0.077  -0.350
    1UNL    H34   72   0.559   0.052  -0.443
    1UNL    H35   73   0.345   0.026  -0.177
   0.00000   0.00000   0.00000   0.00000   0.00000   0.00000   0.00000   0.00000   0.00000
Generated with MDTraj, t= 31.0
 73
    1UNL     C1    1  -0.062   0.052   0.322
    1UNL     C2    2  -0.039   0.147   0.233
    1UNL     C3    3  -0.070   0.145   0.088
    1UNL     C4    4  -0.219   0.129   0.067
    1UNL     O1    5  -0.267   0.008   0.107
    1UNL     C5    6  -0.395  -0.012   0.051
    1UNL     O2    7  -0.479   0.103   0.068
    1UNL     C6    8  -0.607   0.100   0.003
    1UNL     C7    9  -0.603   0.163  -0.133
    1UNL     O3   10  -0.724   0.151  -0.216
    1UNL     C8   11  -0.662  -0.049  -0.002
    1UNL     O4   12  -0.807  -0.051  -0.006
    1UNL     C9   13  -0.612  -0.145   0.107
    1UNL     O5   14  -0.666  -0.275   0.075
    1UNL    C10   15  -0.454  -0.147   0.109
    1UNL     O6   16  -0.410  -0.255   0.023
    1UNL     O7   17  -0.255   0.147  -0.074
    1UNL    C11   18  -0.165   0.090  -0.161
    1UNL    C12   19  -0.043   0.044  -0.129
    1UNL    C13   20   0.044   0.016  -0.249
    1UNL     O8   21   0.157  -0.040  -0.239
    1UNL     O9   22  -0.004   0.056  -0.373
    1UNL    C14   23   0.003   0.029   0.015
    1UNL    C15   24   0.155   0.037   0.032
    1UNL    C16   25   0.229  -0.100   0.024
    1UNL     N1   26   0.210  -0.198   0.135
    1UNL    C17   27   0.277  -0.156   0.264
    1UNL    C18   28   0.427  -0.158   0.238
    1UNL    C19   29   0.468  -0.098   0.104
    1UNL    C20   30   0.603  -0.092   0.081
    1UNL    C21   31   0.651  -0.026  -0.029
    1UNL    O10   32   0.793  -0.004  -0.035
    1UNL    C22   33   0.835   0.065  -0.154
    1UNL    C23   34   0.558   0.009  -0.137
    1UNL    O11   35   0.611   0.080  -0.246
    1UNL    C24   36   0.527   0.087  -0.365
    1UNL    C25   37   0.425  -0.023  -0.122
    1UNL    C26   38   0.376  -0.075  -0.001
    1UNL     H1   39  -0.060   0.062   0.422
    1UNL     H2   40  -0.131  -0.024   0.293
    1UNL     H3   41   0.003   0.241   0.258
    1UNL     H4   42  -0.036   0.241   0.045
    1UNL     H5   43  -0.271   0.197   0.139
    1UNL     H6   44  -0.388  -0.022  -0.057
    1UNL     H7   45  -0.672   0.162   0.057
    1UNL     H8   46  -0.581   0.271  -0.133
    1UNL     H9   47  -0.524   0.110  -0.179
    1UNL    H10   48  -0.791   0.092  -0.181
    1UNL    H11   49  -0.638  -0.087  -0.108
    1UNL    H12   50  -0.837   0.017   0.057
    1UNL    H13   51  -0.652  -0.123   0.210
    1UNL    H14   52  -0.764  -0.265   0.069
    1UNL    H15   53  -0.408  -0.168   0.207
    1UNL    H16   54  -0.462  -0.333   0.041
    1UNL    H17   55  -0.193   0.116  -0.265
    1UNL    H18   56   0.064   0.040  -0.441
    1UNL    H19   57  -0.033  -0.069   0.058
    1UNL    H20   58   0.202   0.111  -0.043
    1UNL    H21   59   0.180   0.086   0.129
    1UNL    H22   60   0.189  -0.150  -0.064
    1UNL    H23   61   0.232  -0.295   0.102
    1UNL    H24   62   0.239  -0.214   0.347
    1UNL    H25   63   0.236  -0.060   0.273
    1UNL    H26   64   0.455  -0.265   0.243
    1UNL    H27   65   0.480  -0.122   0.321
    1UNL    H28   66   0.683  -0.108   0.155
    1UNL    H29   67   0.779   0.159  -0.159
    1UNL    H30   68   0.938   0.089  -0.149
    1UNL    H31   69   0.808   0.008  -0.247
    1UNL    H32   70   0.436   0.149  -0.331
    1UNL    H33   71   0.500  -0.019  -0.398
    1UNL    H34   72   0.577   0.143  -0.441
    1UNL    H35   73   0.360   0.016  -0.196
   0.00000   0.00000   0.00000   0.00000   0.00000   0.00000   0.00000   0.00000   0.00000
Generated with MDTraj, t= 32.0
 73
    1UNL     C1    1  -0.102   0.043   0.323
    1UNL     C2    2  -0.028   0.108   0.241
    1UNL     C3    3  -0.060   0.128   0.087
    1UNL     C4    4  -0.213   0.125   0.064
    1UNL     O1    5  -0.280   0.013   0.117
    1UNL     C5    6  -0.412  -0.007   0.073
    1UNL     O2    7  -0.488   0.110   0.093
    1UNL     C6    8  -0.615   0.106   0.007
    1UNL     C7    9  -0.580   0.160  -0.130
    1UNL     O3   10  -0.693   0.137  -0.226
    1UNL     C8   11  -0.671  -0.048   0.011
    1UNL     O4   12  -0.810  -0.052  -0.021
    1UNL     C9   13  -0.631  -0.137   0.122
    1UNL     O5   14  -0.682  -0.264   0.100
    1UNL    C10   15  -0.476  -0.143   0.123
    1UNL     O6   16  -0.435  -0.248   0.038
    1UNL     O7   17  -0.241   0.148  -0.073
    1UNL    C11   18  -0.156   0.104  -0.169
    1UNL    C12   19  -0.034   0.042  -0.142
    1UNL    C13   20   0.051   0.002  -0.259
    1UNL     O8   21   0.158  -0.063  -0.255
    1UNL     O9   22   0.008   0.046  -0.380
    1UNL    C14   23   0.005   0.019  -0.002
    1UNL    C15   24   0.163   0.028   0.020
    1UNL    C16   25   0.241  -0.103   0.003
    1UNL     N1   26   0.211  -0.208   0.104
    1UNL    C17   27   0.260  -0.171   0.238
    1UNL    C18   28   0.409  -0.147   0.237
    1UNL    C19   29   0.466  -0.086   0.108
    1UNL    C20   30   0.600  -0.056   0.097
    1UNL    C21   31   0.656  -0.011  -0.027
    1UNL    O10   32   0.785   0.030  -0.023
    1UNL    C22   33   0.850   0.049  -0.151
    1UNL    C23   34   0.575   0.014  -0.140
    1UNL    O11   35   0.626   0.065  -0.259
    1UNL    C24   36   0.518   0.118  -0.342
    1UNL    C25   37   0.438  -0.019  -0.131
    1UNL    C26   38   0.389  -0.069  -0.011
    1UNL     H1   39  -0.073   0.042   0.427
    1UNL     H2   40  -0.198  -0.013   0.291
    1UNL     H3   41   0.051   0.172   0.283
    1UNL     H4   42  -0.021   0.226   0.057
    1UNL     H5   43  -0.251   0.207   0.124
    1UNL     H6   44  -0.406  -0.016  -0.036
    1UNL     H7   45  -0.674   0.168   0.072
    1UNL     H8   46  -0.571   0.267  -0.121
    1UNL     H9   47  -0.492   0.126  -0.173
    1UNL    H10   48  -0.743   0.054  -0.193
    1UNL    H11   49  -0.630  -0.093  -0.088
    1UNL    H12   50  -0.848   0.027   0.025
    1UNL    H13   51  -0.671  -0.103   0.219
    1UNL    H14   52  -0.769  -0.246   0.058
    1UNL    H15   53  -0.438  -0.166   0.225
    1UNL    H16   54  -0.466  -0.338   0.075
    1UNL    H17   55  -0.183   0.103  -0.277
    1UNL    H18   56   0.079   0.036  -0.445
    1UNL    H19   57  -0.026  -0.085   0.027
    1UNL    H20   58   0.201   0.096  -0.064
    1UNL    H21   59   0.195   0.083   0.112
    1UNL    H22   60   0.213  -0.148  -0.092
    1UNL    H23   61   0.227  -0.306   0.071
    1UNL    H24   62   0.228  -0.255   0.297
    1UNL    H25   63   0.206  -0.088   0.267
    1UNL    H26   64   0.468  -0.237   0.266
    1UNL    H27   65   0.427  -0.088   0.321
    1UNL    H28   66   0.677  -0.090   0.170
    1UNL    H29   67   0.812   0.140  -0.194
    1UNL    H30   68   0.957   0.057  -0.140
    1UNL    H31   69   0.818  -0.032  -0.220
    1UNL    H32   70   0.448   0.156  -0.261
    1UNL    H33   71   0.463   0.039  -0.398
    1UNL    H34   72   0.551   0.202  -0.396
    1UNL    H35   73   0.372  -0.037  -0.218
   0.00000   0.00000   0.00000   0.00000   0.00000   0.00000   0.00000   0.00000   0.00000
Generated with MDTraj, t= 33.0
 73
    1UNL     C1    1  -0.096   0.010   0.301
    1UNL     C2    2  -0.045   0.107   0.231
    1UNL     C3    3  -0.061   0.124   0.083
    1UNL     C4    4  -0.216   0.112   0.058
    1UNL     O1    5  -0.273  -0.013   0.101
    1UNL     C5    6  -0.406  -0.026   0.064
    1UNL     O2    7  -0.472   0.097   0.083
    1UNL     C6    8  -0.602   0.107   0.004
    1UNL     C7    9  -0.564   0.164  -0.131
    1UNL     O3   10  -0.680   0.164  -0.220
    1UNL     C8   11  -0.660  -0.042  -0.002
    1UNL     O4   12  -0.795  -0.041  -0.038
    1UNL     C9   13  -0.636  -0.120   0.126
    1UNL     O5   14  -0.705  -0.244   0.143
    1UNL    C10   15  -0.477  -0.148   0.132
    1UNL     O6   16  -0.449  -0.268   0.063
    1UNL     O7   17  -0.251   0.142  -0.076
    1UNL    C11   18  -0.165   0.089  -0.165
    1UNL    C12   19  -0.039   0.036  -0.140
    1UNL    C13   20   0.035   0.007  -0.259
    1UNL     O8   21   0.154  -0.039  -0.260
    1UNL     O9   22  -0.025   0.040  -0.378
    1UNL    C14   23   0.004   0.012  -0.004
    1UNL    C15   24   0.160   0.019   0.010
    1UNL    C16   25   0.237  -0.110  -0.001
    1UNL     N1   26   0.206  -0.194   0.117
    1UNL    C17   27   0.270  -0.167   0.247
    1UNL    C18   28   0.418  -0.154   0.235
    1UNL    C19   29   0.461  -0.081   0.105
    1UNL    C20   30   0.591  -0.032   0.093
    1UNL    C21   31   0.650   0.004  -0.028
    1UNL    O10   32   0.785   0.063  -0.022
    1UNL    C22   33   0.861   0.040  -0.137
    1UNL    C23   34   0.567  -0.002  -0.143
    1UNL    O11   35   0.628   0.045  -0.268
    1UNL    C24   36   0.569   0.157  -0.324
    1UNL    C25   37   0.434  -0.030  -0.132
    1UNL    C26   38   0.383  -0.082  -0.012
    1UNL     H1   39  -0.053   0.001   0.397
    1UNL     H2   40  -0.166  -0.066   0.276
    1UNL     H3   41   0.031   0.169   0.275
    1UNL     H4   42  -0.037   0.222   0.045
    1UNL     H5   43  -0.272   0.190   0.103
    1UNL     H6   44  -0.405  -0.037  -0.046
    1UNL     H7   45  -0.673   0.173   0.060
    1UNL     H8   46  -0.542   0.270  -0.127
    1UNL     H9   47  -0.489   0.118  -0.188
    1UNL    H10   48  -0.752   0.120  -0.175
    1UNL    H11   49  -0.615  -0.094  -0.096
    1UNL    H12   50  -0.847   0.001   0.034
    1UNL    H13   51  -0.659  -0.064   0.214
    1UNL    H14   52  -0.787  -0.237   0.089
    1UNL    H15   53  -0.434  -0.150   0.235
    1UNL    H16   54  -0.485  -0.341   0.114
    1UNL    H17   55  -0.191   0.092  -0.268
    1UNL    H18   56   0.048   0.011  -0.438
    1UNL    H19   57  -0.044  -0.086   0.021
    1UNL    H20   58   0.195   0.081  -0.079
    1UNL    H21   59   0.189   0.085   0.097
    1UNL    H22   60   0.203  -0.167  -0.090
    1UNL    H23   61   0.203  -0.294   0.094
    1UNL    H24   62   0.248  -0.245   0.318
    1UNL    H25   63   0.232  -0.077   0.278
    1UNL    H26   64   0.472  -0.249   0.254
    1UNL    H27   65   0.455  -0.094   0.313
    1UNL    H28   66   0.652  -0.026   0.175
    1UNL    H29   67   0.830   0.109  -0.213
    1UNL    H30   68   0.968   0.055  -0.115
    1UNL    H31   69   0.834  -0.059  -0.176
    1UNL    H32   70   0.587   0.239  -0.250
    1UNL    H33   71   0.463   0.136  -0.333
    1UNL    H34   72   0.618   0.183  -0.412
    1UNL    H35   73   0.367  -0.035  -0.214
   0.00000   0.00000   0.00000   0.00000   0.00000   0.00000   0.00000   0.00000   0.00000
Generated with MDTraj, t= 34.0
 73
    1UNL     C1    1  -0.025  -0.018   0.298
    1UNL     C2    2  -0.028   0.092   0.231
    1UNL     C3    3  -0.068   0.117   0.094
    1UNL     C4    4  -0.219   0.086   0.066
    1UNL     O1    5  -0.274  -0.035   0.106
    1UNL     C5    6  -0.404  -0.036   0.059
    1UNL     O2    7  -0.464   0.088   0.071
    1UNL     C6    8  -0.589   0.098  -0.005
    1UNL     C7    9  -0.572   0.153  -0.145
    1UNL     O3   10  -0.694   0.178  -0.210
    1UNL     C8   11  -0.668  -0.034  -0.003
    1UNL     O4   12  -0.807  -0.003  -0.024
    1UNL     C9   13  -0.640  -0.120   0.123
    1UNL     O5   14  -0.723  -0.238   0.115
    1UNL    C10   15  -0.481  -0.149   0.135
    1UNL     O6   16  -0.453  -0.279   0.091
    1UNL     O7   17  -0.260   0.118  -0.070
    1UNL    C11   18  -0.166   0.094  -0.166
    1UNL    C12   19  -0.043   0.044  -0.146
    1UNL    C13   20   0.036   0.002  -0.268
    1UNL     O8   21   0.161  -0.030  -0.262
    1UNL     O9   22  -0.027   0.003  -0.386
    1UNL    C14   23   0.011   0.026  -0.011
    1UNL    C15   24   0.166   0.037  -0.004
    1UNL    C16   25   0.234  -0.098  -0.003
    1UNL     N1   26   0.194  -0.178   0.118
    1UNL    C17   27   0.254  -0.132   0.240
    1UNL    C18   28   0.408  -0.124   0.239
    1UNL    C19   29   0.464  -0.081   0.102
    1UNL    C20   30   0.600  -0.048   0.088
    1UNL    C21   31   0.654   0.008  -0.027
    1UNL    O10   32   0.787   0.050  -0.029
    1UNL    C22   33   0.865   0.030  -0.140
    1UNL    C23   34   0.564   0.002  -0.140
    1UNL    O11   35   0.623   0.055  -0.258
    1UNL    C24   36   0.580   0.179  -0.294
    1UNL    C25   37   0.434  -0.038  -0.134
    1UNL    C26   38   0.383  -0.079  -0.007
    1UNL     H1   39  -0.024  -0.011   0.412
    1UNL     H2   40  -0.037  -0.113   0.258
    1UNL     H3   41  -0.000   0.181   0.285
    1UNL     H4   42  -0.032   0.214   0.066
    1UNL     H5   43  -0.282   0.150   0.123
    1UNL     H6   44  -0.402  -0.060  -0.051
    1UNL     H7   45  -0.660   0.172   0.043
    1UNL     H8   46  -0.518   0.249  -0.163
    1UNL     H9   47  -0.530   0.076  -0.204
    1UNL    H10   48  -0.773   0.165  -0.147
    1UNL    H11   49  -0.637  -0.088  -0.099
    1UNL    H12   50  -0.845   0.020   0.063
    1UNL    H13   51  -0.672  -0.073   0.213
    1UNL    H14   52  -0.808  -0.204   0.079
    1UNL    H15   53  -0.450  -0.149   0.242
    1UNL    H16   54  -0.540  -0.319   0.066
    1UNL    H17   55  -0.205   0.113  -0.263
    1UNL    H18   56   0.024  -0.044  -0.456
    1UNL    H19   57  -0.009  -0.083   0.000
    1UNL    H20   58   0.210   0.094  -0.092
    1UNL    H21   59   0.200   0.104   0.080
    1UNL    H22   60   0.208  -0.164  -0.091
    1UNL    H23   61   0.210  -0.278   0.106
    1UNL    H24   62   0.229  -0.192   0.324
    1UNL    H25   63   0.227  -0.034   0.258
    1UNL    H26   64   0.453  -0.224   0.256
    1UNL    H27   65   0.450  -0.066   0.318
    1UNL    H28   66   0.651  -0.038   0.189
    1UNL    H29   67   0.817   0.071  -0.225
    1UNL    H30   68   0.965   0.079  -0.126
    1UNL    H31   69   0.865  -0.076  -0.161
    1UNL    H32   70   0.633   0.257  -0.237
    1UNL    H33   71   0.477   0.179  -0.267
    1UNL    H34   72   0.591   0.194  -0.397
    1UNL    H35   73   0.372  -0.001  -0.219
   0.00000   0.00000   0.00000   0.00000   0.00000   0.00000   0.00000   0.00000   0.00000
Generated with MDTraj, t= 35.0
 73
    1UNL     C1    1  -0.064  -0.040   0.277
    1UNL     C2    2  -0.044   0.077   0.228
    1UNL     C3    3  -0.070   0.110   0.084
    1UNL     C4    4  -0.225   0.101   0.049
    1UNL     O1    5  -0.281  -0.019   0.093
    1UNL     C5    6  -0.417  -0.020   0.060
    1UNL     O2    7  -0.495   0.101   0.096
    1UNL     C6    8  -0.611   0.107   0.012
    1UNL     C7    9  -0.571   0.149  -0.133
    1UNL     O3   10  -0.678   0.182  -0.218
    1UNL     C8   11  -0.681  -0.027   0.008
    1UNL     O4   12  -0.829  -0.020  -0.001
    1UNL     C9   13  -0.641  -0.124   0.122
    1UNL     O5   14  -0.720  -0.242   0.112
    1UNL    C10   15  -0.487  -0.146   0.133
    1UNL     O6   16  -0.446  -0.263   0.069
    1UNL     O7   17  -0.257   0.131  -0.092
    1UNL    C11   18  -0.171   0.075  -0.177
    1UNL    C12   19  -0.043   0.026  -0.154
    1UNL    C13   20   0.035  -0.010  -0.271
    1UNL     O8   21   0.158  -0.035  -0.263
    1UNL     O9   22  -0.032  -0.019  -0.392
    1UNL    C14   23   0.008   0.007  -0.016
    1UNL    C15   24   0.162   0.039  -0.007
    1UNL    C16   25   0.247  -0.091   0.002
    1UNL     N1   26   0.216  -0.176   0.125
    1UNL    C17   27   0.273  -0.126   0.249
    1UNL    C18   28   0.432  -0.118   0.244
    1UNL    C19   29   0.479  -0.072   0.109
    1UNL    C20   30   0.615  -0.039   0.102
    1UNL    C21   31   0.663   0.001  -0.019
    1UNL    O10   32   0.804   0.015  -0.039
    1UNL    C22   33   0.868   0.002  -0.162
    1UNL    C23   34   0.578   0.019  -0.126
    1UNL    O11   35   0.623   0.071  -0.249
    1UNL    C24   36   0.578   0.199  -0.281
    1UNL    C25   37   0.447  -0.010  -0.118
    1UNL    C26   38   0.393  -0.057  -0.004
    1UNL     H1   39  -0.045  -0.076   0.378
    1UNL     H2   40  -0.094  -0.118   0.211
    1UNL     H3   41  -0.002   0.147   0.301
    1UNL     H4   42  -0.033   0.210   0.074
    1UNL     H5   43  -0.285   0.169   0.109
    1UNL     H6   44  -0.412  -0.039  -0.052
    1UNL     H7   45  -0.685   0.180   0.061
    1UNL     H8   46  -0.498   0.232  -0.105
    1UNL     H9   47  -0.521   0.064  -0.175
    1UNL    H10   48  -0.752   0.143  -0.167
    1UNL    H11   49  -0.649  -0.083  -0.085
    1UNL    H12   50  -0.871   0.009   0.082
    1UNL    H13   51  -0.673  -0.079   0.213
    1UNL    H14   52  -0.810  -0.203   0.104
    1UNL    H15   53  -0.443  -0.148   0.234
    1UNL    H16   54  -0.529  -0.302   0.031
    1UNL    H17   55  -0.210   0.066  -0.279
    1UNL    H18   56   0.019  -0.062  -0.465
    1UNL    H19   57  -0.021  -0.091   0.024
    1UNL    H20   58   0.185   0.097  -0.101
    1UNL    H21   59   0.195   0.119   0.068
    1UNL    H22   60   0.219  -0.158  -0.085
    1UNL    H23   61   0.250  -0.270   0.108
    1UNL    H24   62   0.250  -0.189   0.330
    1UNL    H25   63   0.245  -0.028   0.271
    1UNL    H26   64   0.479  -0.216   0.254
    1UNL    H27   65   0.482  -0.056   0.317
    1UNL    H28   66   0.681  -0.060   0.180
    1UNL    H29   67   0.872   0.095  -0.214
    1UNL    H30   68   0.972  -0.039  -0.147
    1UNL    H31   69   0.802  -0.061  -0.220
    1UNL    H32   70   0.563   0.262  -0.191
    1UNL    H33   71   0.481   0.179  -0.317
    1UNL    H34   72   0.634   0.249  -0.356
    1UNL    H35   73   0.384   0.004  -0.200
   0.00000   0.00000   0.00000   0.00000   0.00000   0.00000   0.00000   0.00000   0.00000
Generated with MDTraj, t= 36.0
 73
    1UNL     C1    1  -0.111  -0.032   0.295
    1UNL     C2    2  -0.060   0.076   0.237
    1UNL     C3    3  -0.075   0.114   0.088
    1UNL     C4    4  -0.222   0.100   0.046
    1UNL     O1    5  -0.277  -0.019   0.096
    1UNL     C5    6  -0.411  -0.020   0.059
    1UNL     O2    7  -0.489   0.102   0.089
    1UNL     C6    8  -0.615   0.111   0.020
    1UNL     C7    9  -0.601   0.178  -0.121
    1UNL     O3   10  -0.721   0.167  -0.199
    1UNL     C8   11  -0.683  -0.025   0.006
    1UNL     O4   12  -0.827  -0.021  -0.011
    1UNL     C9   13  -0.640  -0.116   0.120
    1UNL     O5   14  -0.713  -0.241   0.121
    1UNL    C10   15  -0.490  -0.151   0.112
    1UNL     O6   16  -0.465  -0.259   0.023
    1UNL     O7   17  -0.254   0.119  -0.094
    1UNL    C11   18  -0.165   0.062  -0.174
    1UNL    C12   19  -0.034   0.019  -0.150
    1UNL    C13   20   0.041  -0.035  -0.261
    1UNL     O8   21   0.161  -0.073  -0.249
    1UNL     O9   22  -0.022  -0.026  -0.385
    1UNL    C14   23   0.013   0.025  -0.010
    1UNL    C15   24   0.164   0.052   0.001
    1UNL    C16   25   0.250  -0.081   0.002
    1UNL     N1   26   0.226  -0.158   0.128
    1UNL    C17   27   0.292  -0.121   0.246
    1UNL    C18   28   0.449  -0.132   0.237
    1UNL    C19   29   0.488  -0.076   0.105
    1UNL    C20   30   0.622  -0.059   0.086
    1UNL    C21   31   0.671  -0.013  -0.034
    1UNL    O10   32   0.812  -0.011  -0.035
    1UNL    C22   33   0.873  -0.020  -0.161
    1UNL    C23   34   0.589   0.038  -0.130
    1UNL    O11   35   0.640   0.105  -0.240
    1UNL    C24   36   0.561   0.202  -0.300
    1UNL    C25   37   0.450   0.025  -0.107
    1UNL    C26   38   0.400  -0.038   0.001
    1UNL     H1   39  -0.079  -0.062   0.388
    1UNL     H2   40  -0.181  -0.108   0.251
    1UNL     H3   41  -0.002   0.142   0.297
    1UNL     H4   42  -0.050   0.214   0.066
    1UNL     H5   43  -0.287   0.183   0.084
    1UNL     H6   44  -0.407  -0.027  -0.054
    1UNL     H7   45  -0.690   0.179   0.075
    1UNL     H8   46  -0.566   0.289  -0.110
    1UNL     H9   47  -0.526   0.122  -0.178
    1UNL    H10   48  -0.795   0.105  -0.176
    1UNL    H11   49  -0.632  -0.066  -0.085
    1UNL    H12   50  -0.872   0.001   0.073
    1UNL    H13   51  -0.658  -0.074   0.217
    1UNL    H14   52  -0.810  -0.222   0.123
    1UNL    H15   53  -0.452  -0.183   0.209
    1UNL    H16   54  -0.554  -0.295   0.007
    1UNL    H17   55  -0.187   0.052  -0.283
    1UNL    H18   56   0.044  -0.043  -0.454
    1UNL    H19   57   0.000  -0.071   0.041
    1UNL    H20   58   0.202   0.126  -0.075
    1UNL    H21   59   0.193   0.107   0.097
    1UNL    H22   60   0.235  -0.143  -0.092
    1UNL    H23   61   0.269  -0.245   0.098
    1UNL    H24   62   0.266  -0.185   0.327
    1UNL    H25   63   0.266  -0.021   0.267
    1UNL    H26   64   0.493  -0.228   0.261
    1UNL    H27   65   0.491  -0.059   0.308
    1UNL    H28   66   0.693  -0.114   0.149
    1UNL    H29   67   0.842   0.058  -0.227
    1UNL    H30   68   0.987  -0.024  -0.158
    1UNL    H31   69   0.822  -0.107  -0.199
    1UNL    H32   70   0.502   0.256  -0.223
    1UNL    H33   71   0.489   0.153  -0.360
    1UNL    H34   72   0.615   0.274  -0.363
    1UNL    H35   73   0.386   0.033  -0.195
   0.00000   0.00000   0.00000   0.00000   0.00000   0.00000   0.00000   0.00000   0.00000
Generated with MDTraj, t= 37.0
 73
    1UNL     C1    1  -0.054  -0.002   0.320
    1UNL     C2    2  -0.043   0.111   0.244
    1UNL     C3    3  -0.073   0.121   0.091
    1UNL     C4    4  -0.224   0.104   0.045
    1UNL     O1    5  -0.282  -0.029   0.079
    1UNL     C5    6  -0.416  -0.035   0.040
    1UNL     O2    7  -0.485   0.087   0.068
    1UNL     C6    8  -0.625   0.102   0.010
    1UNL     C7    9  -0.628   0.181  -0.128
    1UNL     O3   10  -0.760   0.201  -0.173
    1UNL     C8   11  -0.700  -0.032   0.001
    1UNL     O4   12  -0.843  -0.018   0.001
    1UNL     C9   13  -0.647  -0.121   0.117
    1UNL     O5   14  -0.714  -0.249   0.119
    1UNL    C10   15  -0.500  -0.158   0.085
    1UNL     O6   16  -0.492  -0.268  -0.009
    1UNL     O7   17  -0.242   0.141  -0.090
    1UNL    C11   18  -0.147   0.081  -0.170
    1UNL    C12   19  -0.030   0.025  -0.141
    1UNL    C13   20   0.041  -0.036  -0.252
    1UNL     O8   21   0.152  -0.095  -0.238
    1UNL     O9   22  -0.007  -0.036  -0.379
    1UNL    C14   23   0.014   0.027   0.001
    1UNL    C15   24   0.168   0.049   0.002
    1UNL    C16   25   0.254  -0.074   0.017
    1UNL     N1   26   0.224  -0.150   0.139
    1UNL    C17   27   0.303  -0.125   0.259
    1UNL    C18   28   0.453  -0.151   0.232
    1UNL    C19   29   0.500  -0.088   0.105
    1UNL    C20   30   0.637  -0.065   0.083
    1UNL    C21   31   0.683  -0.006  -0.029
    1UNL    O10   32   0.820   0.009  -0.049
    1UNL    C22   33   0.863  -0.023  -0.177
    1UNL    C23   34   0.587   0.043  -0.123
    1UNL    O11   35   0.646   0.117  -0.224
    1UNL    C24   36   0.552   0.164  -0.317
    1UNL    C25   37   0.451   0.025  -0.101
    1UNL    C26   38   0.406  -0.041   0.011
    1UNL     H1   39  -0.042   0.002   0.426
    1UNL     H2   40  -0.118  -0.088   0.292
    1UNL     H3   41  -0.003   0.203   0.292
    1UNL     H4   42  -0.039   0.216   0.057
    1UNL     H5   43  -0.283   0.181   0.106
    1UNL     H6   44  -0.411  -0.039  -0.075
    1UNL     H7   45  -0.680   0.168   0.087
    1UNL     H8   46  -0.578   0.288  -0.118
    1UNL     H9   47  -0.571   0.114  -0.199
    1UNL    H10   48  -0.824   0.137  -0.135
    1UNL    H11   49  -0.672  -0.072  -0.097
    1UNL    H12   50  -0.892  -0.085   0.055
    1UNL    H13   51  -0.664  -0.080   0.216
    1UNL    H14   52  -0.731  -0.275   0.026
    1UNL    H15   53  -0.447  -0.192   0.173
    1UNL    H16   54  -0.548  -0.342   0.032
    1UNL    H17   55  -0.182   0.080  -0.272
    1UNL    H18   56   0.063  -0.074  -0.434
    1UNL    H19   57   0.006  -0.075   0.038
    1UNL    H20   58   0.205   0.101  -0.089
    1UNL    H21   59   0.201   0.111   0.092
    1UNL    H22   60   0.244  -0.137  -0.078
    1UNL    H23   61   0.242  -0.248   0.110
    1UNL    H24   62   0.272  -0.189   0.339
    1UNL    H25   63   0.294  -0.025   0.297
    1UNL    H26   64   0.469  -0.255   0.221
    1UNL    H27   65   0.519  -0.125   0.318
    1UNL    H28   66   0.708  -0.097   0.159
    1UNL    H29   67   0.821   0.047  -0.248
    1UNL    H30   68   0.975  -0.018  -0.189
    1UNL    H31   69   0.831  -0.124  -0.197
    1UNL    H32   70   0.479   0.224  -0.259
    1UNL    H33   71   0.499   0.082  -0.364
    1UNL    H34   72   0.595   0.231  -0.397
    1UNL    H35   73   0.386   0.058  -0.183
   0.00000   0.00000   0.00000   0.00000   0.00000   0.00000   0.00000   0.00000   0.00000
Generated with MDTraj, t= 38.0
 73
    1UNL     C1    1  -0.060   0.003   0.302
    1UNL     C2    2  -0.063   0.115   0.232
    1UNL     C3    3  -0.077   0.127   0.080
    1UNL     C4    4  -0.225   0.115   0.038
    1UNL     O1    5  -0.270  -0.015   0.068
    1UNL     C5    6  -0.402  -0.022   0.023
    1UNL     O2    7  -0.485   0.089   0.065
    1UNL     C6    8  -0.621   0.100   0.009
    1UNL     C7    9  -0.629   0.178  -0.122
    1UNL     O3   10  -0.761   0.224  -0.146
    1UNL     C8   11  -0.688  -0.038   0.003
    1UNL     O4   12  -0.825  -0.010   0.022
    1UNL     C9   13  -0.618  -0.135   0.107
    1UNL     O5   14  -0.687  -0.259   0.109
    1UNL    C10   15  -0.472  -0.155   0.064
    1UNL     O6   16  -0.459  -0.253  -0.037
    1UNL     O7   17  -0.244   0.142  -0.101
    1UNL    C11   18  -0.155   0.081  -0.181
    1UNL    C12   19  -0.042   0.018  -0.143
    1UNL    C13   20   0.038  -0.038  -0.255
    1UNL     O8   21   0.149  -0.094  -0.238
    1UNL     O9   22  -0.018  -0.029  -0.379
    1UNL    C14   23   0.001   0.019   0.006
    1UNL    C15   24   0.153   0.041   0.014
    1UNL    C16   25   0.246  -0.080   0.045
    1UNL     N1   26   0.220  -0.158   0.170
    1UNL    C17   27   0.322  -0.148   0.286
    1UNL    C18   28   0.459  -0.164   0.234
    1UNL    C19   29   0.490  -0.079   0.113
    1UNL    C20   30   0.633  -0.057   0.096
    1UNL    C21   31   0.671   0.009  -0.020
    1UNL    O10   32   0.815   0.026  -0.051
    1UNL    C22   33   0.874  -0.005  -0.177
    1UNL    C23   34   0.572   0.044  -0.119
    1UNL    O11   35   0.623   0.105  -0.236
    1UNL    C24   36   0.524   0.119  -0.333
    1UNL    C25   37   0.438   0.009  -0.099
    1UNL    C26   38   0.394  -0.047   0.020
    1UNL     H1   39  -0.037   0.001   0.409
    1UNL     H2   40  -0.089  -0.079   0.250
    1UNL     H3   41  -0.061   0.207   0.286
    1UNL     H4   42  -0.054   0.230   0.058
    1UNL     H5   43  -0.280   0.193   0.103
    1UNL     H6   44  -0.396  -0.016  -0.091
    1UNL     H7   45  -0.664   0.160   0.097
    1UNL     H8   46  -0.553   0.263  -0.088
    1UNL     H9   47  -0.587   0.121  -0.210
    1UNL    H10   48  -0.817   0.151  -0.105
    1UNL    H11   49  -0.687  -0.075  -0.097
    1UNL    H12   50  -0.861  -0.072   0.089
    1UNL    H13   51  -0.625  -0.104   0.214
    1UNL    H14   52  -0.730  -0.270   0.022
    1UNL    H15   53  -0.406  -0.186   0.144
    1UNL    H16   54  -0.487  -0.338   0.002
    1UNL    H17   55  -0.188   0.086  -0.282
    1UNL    H18   56   0.038  -0.069  -0.448
    1UNL    H19   57  -0.039  -0.072   0.047
    1UNL    H20   58   0.183   0.097  -0.078
    1UNL    H21   59   0.165   0.110   0.102
    1UNL    H22   60   0.210  -0.144  -0.040
    1UNL    H23   61   0.225  -0.260   0.150
    1UNL    H24   62   0.312  -0.221   0.363
    1UNL    H25   63   0.315  -0.052   0.337
    1UNL    H26   64   0.474  -0.265   0.211
    1UNL    H27   65   0.541  -0.152   0.311
    1UNL    H28   66   0.701  -0.067   0.176
    1UNL    H29   67   0.904   0.094  -0.216
    1UNL    H30   68   0.966  -0.069  -0.164
    1UNL    H31   69   0.811  -0.065  -0.239
    1UNL    H32   70   0.455   0.192  -0.288
    1UNL    H33   71   0.472   0.026  -0.360
    1UNL    H34   72   0.566   0.168  -0.430
    1UNL    H35   73   0.368   0.045  -0.165
   0.00000   0.00000   0.00000   0.00000   0.00000   0.00000   0.00000   0.00000   0.00000
Generated with MDTraj, t= 39.0
 73
    1UNL     C1    1  -0.098  -0.001   0.288
    1UNL     C2    2  -0.044   0.106   0.228
    1UNL     C3    3  -0.063   0.136   0.079
    1UNL     C4    4  -0.211   0.123   0.032
    1UNL     O1    5  -0.257  -0.007   0.063
    1UNL     C5    6  -0.395  -0.014   0.029
    1UNL     O2    7  -0.478   0.088   0.096
    1UNL     C6    8  -0.610   0.102   0.048
    1UNL     C7    9  -0.621   0.189  -0.075
    1UNL     O3   10  -0.755   0.188  -0.141
    1UNL     C8   11  -0.676  -0.035   0.012
    1UNL     O4   12  -0.810  -0.030   0.026
    1UNL     C9   13  -0.609  -0.145   0.095
    1UNL     O5   14  -0.677  -0.264   0.085
    1UNL    C10   15  -0.455  -0.157   0.059
    1UNL     O6   16  -0.445  -0.226  -0.066
    1UNL     O7   17  -0.221   0.158  -0.108
    1UNL    C11   18  -0.127   0.101  -0.185
    1UNL    C12   19  -0.012   0.031  -0.146
    1UNL    C13   20   0.068  -0.040  -0.246
    1UNL     O8   21   0.179  -0.086  -0.227
    1UNL     O9   22   0.008  -0.043  -0.365
    1UNL    C14   23   0.021   0.035   0.004
    1UNL    C15   24   0.168   0.050   0.025
    1UNL    C16   25   0.228  -0.094   0.039
    1UNL     N1   26   0.195  -0.165   0.163
    1UNL    C17   27   0.278  -0.110   0.270
    1UNL    C18   28   0.425  -0.142   0.246
    1UNL    C19   29   0.473  -0.089   0.115
    1UNL    C20   30   0.607  -0.054   0.093
    1UNL    C21   31   0.652  -0.003  -0.031
    1UNL    O10   32   0.786   0.031  -0.039
    1UNL    C22   33   0.840   0.056  -0.170
    1UNL    C23   34   0.556   0.016  -0.131
    1UNL    O11   35   0.598   0.081  -0.248
    1UNL    C24   36   0.498   0.077  -0.342
    1UNL    C25   37   0.420  -0.024  -0.113
    1UNL    C26   38   0.376  -0.079   0.011
    1UNL     H1   39  -0.072  -0.038   0.390
    1UNL     H2   40  -0.156  -0.060   0.220
    1UNL     H3   41   0.014   0.182   0.284
    1UNL     H4   42  -0.025   0.236   0.056
    1UNL     H5   43  -0.273   0.195   0.095
    1UNL     H6   44  -0.403   0.002  -0.084
    1UNL     H7   45  -0.669   0.156   0.122
    1UNL     H8   46  -0.606   0.305  -0.068
    1UNL     H9   47  -0.555   0.152  -0.155
    1UNL    H10   48  -0.795   0.101  -0.134
    1UNL    H11   49  -0.663  -0.053  -0.091
    1UNL    H12   50  -0.827   0.018   0.109
    1UNL    H13   51  -0.616  -0.119   0.204
    1UNL    H14   52  -0.703  -0.264  -0.010
    1UNL    H15   53  -0.393  -0.207   0.134
    1UNL    H16   54  -0.488  -0.310  -0.052
    1UNL    H17   55  -0.136   0.115  -0.292
    1UNL    H18   56   0.064  -0.097  -0.424
    1UNL    H19   57  -0.003  -0.065   0.039
    1UNL    H20   58   0.212   0.102  -0.064
    1UNL    H21   59   0.186   0.106   0.119
    1UNL    H22   60   0.178  -0.138  -0.047
    1UNL    H23   61   0.213  -0.267   0.152
    1UNL    H24   62   0.236  -0.148   0.359
    1UNL    H25   63   0.263  -0.001   0.280
    1UNL    H26   64   0.453  -0.242   0.258
    1UNL    H27   65   0.489  -0.098   0.328
    1UNL    H28   66   0.678  -0.060   0.180
    1UNL    H29   67   0.777   0.139  -0.204
    1UNL    H30   68   0.945   0.096  -0.164
    1UNL    H31   69   0.851  -0.036  -0.225
    1UNL    H32   70   0.427   0.153  -0.309
    1UNL    H33   71   0.454  -0.022  -0.360
    1UNL    H34   72   0.547   0.115  -0.442
    1UNL    H35   73   0.343  -0.015  -0.193
   0.00000   0.00000   0.00000   0.00000   0.00000   0.00000   0.00000   0.00000   0.00000
Generated with MDTraj, t= 40.0
 73
    1UNL     C1    1  -0.109   0.025   0.292
    1UNL     C2    2  -0.052   0.127   0.225
    1UNL     C3    3  -0.068   0.130   0.078
    1UNL     C4    4  -0.216   0.130   0.030
    1UNL     O1    5  -0.258  -0.005   0.047
    1UNL     C5    6  -0.397  -0.006   0.027
    1UNL     O2    7  -0.472   0.091   0.105
    1UNL     C6    8  -0.602   0.098   0.044
    1UNL     C7    9  -0.614   0.204  -0.066
    1UNL     O3   10  -0.743   0.223  -0.124
    1UNL     C8   11  -0.672  -0.045   0.016
    1UNL     O4   12  -0.814  -0.048   0.052
    1UNL     C9   13  -0.591  -0.157   0.086
    1UNL     O5   14  -0.643  -0.284   0.061
    1UNL    C10   15  -0.440  -0.156   0.046
    1UNL     O6   16  -0.423  -0.219  -0.081
    1UNL     O7   17  -0.229   0.176  -0.102
    1UNL    C11   18  -0.140   0.106  -0.184
    1UNL    C12   19  -0.031   0.032  -0.151
    1UNL    C13   20   0.047  -0.019  -0.259
    1UNL     O8   21   0.160  -0.060  -0.238
    1UNL     O9   22  -0.008  -0.014  -0.382
    1UNL    C14   23   0.008   0.018   0.001
    1UNL    C15   24   0.159   0.025   0.022
    1UNL    C16   25   0.240  -0.111   0.036
    1UNL     N1   26   0.222  -0.171   0.161
    1UNL    C17   27   0.281  -0.114   0.288
    1UNL    C18   28   0.436  -0.102   0.272
    1UNL    C19   29   0.476  -0.079   0.123
    1UNL    C20   30   0.604  -0.050   0.099
    1UNL    C21   31   0.650  -0.016  -0.027
    1UNL    O10   32   0.784   0.029  -0.035
    1UNL    C22   33   0.807   0.121  -0.143
    1UNL    C23   34   0.554  -0.019  -0.133
    1UNL    O11   35   0.602   0.010  -0.258
    1UNL    C24   36   0.493   0.029  -0.353
    1UNL    C25   37   0.424  -0.054  -0.111
    1UNL    C26   38   0.384  -0.084   0.018
    1UNL     H1   39  -0.094   0.015   0.392
    1UNL     H2   40  -0.155  -0.057   0.234
    1UNL     H3   41   0.013   0.194   0.272
    1UNL     H4   42  -0.023   0.222   0.035
    1UNL     H5   43  -0.284   0.191   0.091
    1UNL     H6   44  -0.417   0.013  -0.084
    1UNL     H7   45  -0.653   0.129   0.135
    1UNL     H8   46  -0.594   0.313  -0.039
    1UNL     H9   47  -0.560   0.179  -0.156
    1UNL    H10   48  -0.794   0.145  -0.090
    1UNL    H11   49  -0.671  -0.072  -0.086
    1UNL    H12   50  -0.855  -0.120  -0.001
    1UNL    H13   51  -0.593  -0.149   0.199
    1UNL    H14   52  -0.666  -0.290  -0.035
    1UNL    H15   53  -0.369  -0.202   0.118
    1UNL    H16   54  -0.467  -0.310  -0.074
    1UNL    H17   55  -0.167   0.114  -0.290
    1UNL    H18   56   0.065  -0.061  -0.432
    1UNL    H19   57  -0.015  -0.080   0.038
    1UNL    H20   58   0.204   0.082  -0.064
    1UNL    H21   59   0.172   0.072   0.121
    1UNL    H22   60   0.212  -0.169  -0.050
    1UNL    H23   61   0.222  -0.273   0.153
    1UNL    H24   62   0.248  -0.170   0.372
    1UNL    H25   63   0.227  -0.016   0.293
    1UNL    H26   64   0.485  -0.183   0.320
    1UNL    H27   65   0.479  -0.019   0.334
    1UNL    H28   66   0.679  -0.066   0.167
    1UNL    H29   67   0.759   0.215  -0.108
    1UNL    H30   68   0.917   0.140  -0.148
    1UNL    H31   69   0.787   0.077  -0.238
    1UNL    H32   70   0.411   0.072  -0.300
    1UNL    H33   71   0.468  -0.063  -0.404
    1UNL    H34   72   0.533   0.103  -0.432
    1UNL    H35   73   0.370  -0.098  -0.195
   0.00000   0.00000   0.00000   0.00000   0.00000   0.00000   0.00000   0.00000   0.00000
Generated with MDTraj, t= 41.0
 73
    1UNL     C1    1  -0.089   0.053   0.313
    1UNL     C2    2  -0.032   0.140   0.230
    1UNL     C3    3  -0.053   0.137   0.085
    1UNL     C4    4  -0.204   0.115   0.051
    1UNL     O1    5  -0.249  -0.021   0.067
    1UNL     C5    6  -0.391  -0.024   0.027
    1UNL     O2    7  -0.469   0.079   0.092
    1UNL     C6    8  -0.605   0.094   0.048
    1UNL     C7    9  -0.632   0.195  -0.063
    1UNL     O3   10  -0.768   0.229  -0.072
    1UNL     C8   11  -0.665  -0.045   0.002
    1UNL     O4   12  -0.810  -0.044   0.022
    1UNL     C9   13  -0.598  -0.171   0.071
    1UNL     O5   14  -0.654  -0.294   0.023
    1UNL    C10   15  -0.448  -0.165   0.040
    1UNL     O6   16  -0.421  -0.224  -0.077
    1UNL     O7   17  -0.234   0.160  -0.078
    1UNL    C11   18  -0.146   0.114  -0.178
    1UNL    C12   19  -0.030   0.053  -0.153
    1UNL    C13   20   0.047  -0.008  -0.262
    1UNL     O8   21   0.143  -0.077  -0.241
    1UNL     O9   22  -0.002   0.021  -0.383
    1UNL    C14   23   0.022   0.037  -0.006
    1UNL    C15   24   0.172   0.051   0.009
    1UNL    C16   25   0.234  -0.094   0.037
    1UNL     N1   26   0.202  -0.148   0.173
    1UNL    C17   27   0.280  -0.100   0.289
    1UNL    C18   28   0.428  -0.096   0.266
    1UNL    C19   29   0.464  -0.071   0.124
    1UNL    C20   30   0.592  -0.031   0.102
    1UNL    C21   31   0.640  -0.014  -0.027
    1UNL    O10   32   0.770   0.027  -0.046
    1UNL    C22   33   0.779   0.150  -0.115
    1UNL    C23   34   0.560  -0.046  -0.144
    1UNL    O11   35   0.626  -0.043  -0.266
    1UNL    C24   36   0.546  -0.024  -0.383
    1UNL    C25   37   0.430  -0.079  -0.121
    1UNL    C26   38   0.380  -0.082   0.013
    1UNL     H1   39  -0.084   0.074   0.418
    1UNL     H2   40  -0.144  -0.035   0.269
    1UNL     H3   41   0.043   0.206   0.278
    1UNL     H4   42  -0.037   0.240   0.045
    1UNL     H5   43  -0.269   0.178   0.109
    1UNL     H6   44  -0.395  -0.001  -0.084
    1UNL     H7   45  -0.645   0.126   0.142
    1UNL     H8   46  -0.584   0.290  -0.029
    1UNL     H9   47  -0.608   0.169  -0.163
    1UNL    H10   48  -0.816   0.153  -0.029
    1UNL    H11   49  -0.660  -0.044  -0.104
    1UNL    H12   50  -0.839  -0.084   0.109
    1UNL    H13   51  -0.616  -0.160   0.182
    1UNL    H14   52  -0.638  -0.299  -0.074
    1UNL    H15   53  -0.383  -0.217   0.116
    1UNL    H16   54  -0.480  -0.193  -0.151
    1UNL    H17   55  -0.191   0.128  -0.276
    1UNL    H18   56   0.046  -0.018  -0.459
    1UNL    H19   57  -0.008  -0.057   0.037
    1UNL    H20   58   0.200   0.098  -0.090
    1UNL    H21   59   0.190   0.110   0.098
    1UNL    H22   60   0.195  -0.162  -0.036
    1UNL    H23   61   0.199  -0.249   0.174
    1UNL    H24   62   0.250  -0.156   0.377
    1UNL    H25   63   0.252   0.008   0.300
    1UNL    H26   64   0.476  -0.187   0.301
    1UNL    H27   65   0.475  -0.020   0.331
    1UNL    H28   66   0.662   0.001   0.184
    1UNL    H29   67   0.740   0.228  -0.048
    1UNL    H30   68   0.887   0.164  -0.136
    1UNL    H31   69   0.728   0.140  -0.206
    1UNL    H32   70   0.531   0.079  -0.400
    1UNL    H33   71   0.455  -0.081  -0.376
    1UNL    H34   72   0.614  -0.074  -0.459
    1UNL    H35   73   0.352  -0.083  -0.193
   0.00000   0.00000   0.00000   0.00000   0.00000   0.00000   0.00000   0.00000   0.00000
Generated with MDTraj, t= 42.0
 73
    1UNL     C1    1  -0.090   0.037   0.309
    1UNL     C2    2  -0.041   0.132   0.224
    1UNL     C3    3  -0.062   0.145   0.079
    1UNL     C4    4  -0.213   0.129   0.047
    1UNL     O1    5  -0.255  -0.006   0.062
    1UNL     C5    6  -0.398  -0.013   0.035
    1UNL     O2    7  -0.483   0.071   0.123
    1UNL     C6    8  -0.618   0.071   0.073
    1UNL     C7    9  -0.634   0.207  -0.002
    1UNL     O3   10  -0.765   0.223  -0.060
    1UNL     C8   11  -0.659  -0.049  -0.016
    1UNL     O4   12  -0.800  -0.068  -0.020
    1UNL     C9   13  -0.600  -0.168   0.064
    1UNL     O5   14  -0.657  -0.293   0.032
    1UNL    C10   15  -0.447  -0.159   0.033
    1UNL     O6   16  -0.415  -0.222  -0.090
    1UNL     O7   17  -0.235   0.179  -0.080
    1UNL    C11   18  -0.162   0.113  -0.168
    1UNL    C12   19  -0.045   0.041  -0.146
    1UNL    C13   20   0.040  -0.002  -0.252
    1UNL     O8   21   0.136  -0.067  -0.230
    1UNL     O9   22   0.012   0.039  -0.377
    1UNL    C14   23   0.016   0.038  -0.007
    1UNL    C15   24   0.171   0.059  -0.003
    1UNL    C16   25   0.239  -0.078   0.021
    1UNL     N1   26   0.199  -0.134   0.152
    1UNL    C17   27   0.261  -0.061   0.263
    1UNL    C18   28   0.413  -0.076   0.260
    1UNL    C19   29   0.471  -0.069   0.120
    1UNL    C20   30   0.608  -0.047   0.103
    1UNL    C21   31   0.657  -0.029  -0.027
    1UNL    O10   32   0.788   0.021  -0.040
    1UNL    C22   33   0.782   0.136  -0.121
    1UNL    C23   34   0.576  -0.048  -0.138
    1UNL    O11   35   0.628  -0.036  -0.266
    1UNL    C24   36   0.547  -0.096  -0.370
    1UNL    C25   37   0.440  -0.075  -0.120
    1UNL    C26   38   0.388  -0.076   0.011
    1UNL     H1   39  -0.078   0.040   0.419
    1UNL     H2   40  -0.135  -0.044   0.267
    1UNL     H3   41   0.009   0.209   0.275
    1UNL     H4   42  -0.016   0.238   0.036
    1UNL     H5   43  -0.268   0.180   0.122
    1UNL     H6   44  -0.417   0.027  -0.067
    1UNL     H7   45  -0.673   0.074   0.165
    1UNL     H8   46  -0.622   0.292   0.066
    1UNL     H9   47  -0.559   0.201  -0.076
    1UNL    H10   48  -0.804   0.138  -0.086
    1UNL    H11   49  -0.606  -0.049  -0.110
    1UNL    H12   50  -0.819  -0.149  -0.072
    1UNL    H13   51  -0.631  -0.153   0.171
    1UNL    H14   52  -0.635  -0.321  -0.059
    1UNL    H15   53  -0.388  -0.207   0.116
    1UNL    H16   54  -0.339  -0.281  -0.088
    1UNL    H17   55  -0.193   0.142  -0.266
    1UNL    H18   56   0.082   0.011  -0.440
    1UNL    H19   57   0.004  -0.060   0.036
    1UNL    H20   58   0.197   0.078  -0.111
    1UNL    H21   59   0.203   0.132   0.067
    1UNL    H22   60   0.200  -0.150  -0.050
    1UNL    H23   61   0.229  -0.231   0.160
    1UNL    H24   62   0.227  -0.090   0.363
    1UNL    H25   63   0.238   0.048   0.246
    1UNL    H26   64   0.440  -0.182   0.290
    1UNL    H27   65   0.465  -0.016   0.334
    1UNL    H28   66   0.667  -0.012   0.183
    1UNL    H29   67   0.687   0.191  -0.114
    1UNL    H30   68   0.874   0.190  -0.092
    1UNL    H31   69   0.789   0.103  -0.221
    1UNL    H32   70   0.443  -0.083  -0.367
    1UNL    H33   71   0.579  -0.199  -0.373
    1UNL    H34   72   0.595  -0.055  -0.460
    1UNL    H35   73   0.359  -0.056  -0.197
   0.00000   0.00000   0.00000   0.00000   0.00000   0.00000   0.00000   0.00000   0.00000
Generated with MDTraj, t= 43.0
 73
    1UNL     C1    1  -0.089   0.002   0.285
    1UNL     C2    2  -0.043   0.116   0.223
    1UNL     C3    3  -0.066   0.140   0.081
    1UNL     C4    4  -0.220   0.135   0.046
    1UNL     O1    5  -0.267   0.011   0.082
    1UNL     C5    6  -0.402  -0.008   0.052
    1UNL     O2    7  -0.491   0.063   0.139
    1UNL     C6    8  -0.615   0.072   0.076
    1UNL     C7    9  -0.633   0.209  -0.004
    1UNL     O3   10  -0.769   0.213  -0.044
    1UNL     C8   11  -0.657  -0.048  -0.010
    1UNL     O4   12  -0.796  -0.066  -0.012
    1UNL     C9   13  -0.596  -0.175   0.045
    1UNL     O5   14  -0.641  -0.284  -0.027
    1UNL    C10   15  -0.435  -0.160   0.045
    1UNL     O6   16  -0.365  -0.217  -0.064
    1UNL     O7   17  -0.255   0.166  -0.096
    1UNL    C11   18  -0.161   0.120  -0.182
    1UNL    C12   19  -0.039   0.068  -0.160
    1UNL    C13   20   0.031   0.011  -0.274
    1UNL     O8   21   0.124  -0.064  -0.256
    1UNL     O9   22  -0.021   0.039  -0.405
    1UNL    C14   23   0.008   0.042  -0.012
    1UNL    C15   24   0.154   0.058   0.026
    1UNL    C16   25   0.232  -0.076   0.037
    1UNL     N1   26   0.209  -0.138   0.170
    1UNL    C17   27   0.270  -0.079   0.285
    1UNL    C18   28   0.425  -0.068   0.272
    1UNL    C19   29   0.465  -0.044   0.129
    1UNL    C20   30   0.598  -0.018   0.098
    1UNL    C21   31   0.648  -0.008  -0.028
    1UNL    O10   32   0.791   0.007  -0.040
    1UNL    C22   33   0.840   0.063  -0.162
    1UNL    C23   34   0.555  -0.020  -0.137
    1UNL    O11   35   0.607  -0.017  -0.267
    1UNL    C24   36   0.589  -0.138  -0.343
    1UNL    C25   37   0.420  -0.037  -0.108
    1UNL    C26   38   0.376  -0.063   0.021
    1UNL     H1   39  -0.070  -0.017   0.394
    1UNL     H2   40  -0.145  -0.068   0.227
    1UNL     H3   41  -0.007   0.206   0.278
    1UNL     H4   42  -0.042   0.245   0.044
    1UNL     H5   43  -0.271   0.214   0.098
    1UNL     H6   44  -0.420   0.037  -0.045
    1UNL     H7   45  -0.684   0.076   0.161
    1UNL     H8   46  -0.608   0.287   0.065
    1UNL     H9   47  -0.572   0.205  -0.087
    1UNL    H10   48  -0.812   0.129  -0.078
    1UNL    H11   49  -0.619  -0.030  -0.113
    1UNL    H12   50  -0.831  -0.151   0.022
    1UNL    H13   51  -0.633  -0.186   0.148
    1UNL    H14   52  -0.569  -0.319  -0.084
    1UNL    H15   53  -0.389  -0.204   0.138
    1UNL    H16   54  -0.406  -0.205  -0.152
    1UNL    H17   55  -0.191   0.124  -0.284
    1UNL    H18   56   0.045  -0.013  -0.458
    1UNL    H19   57  -0.030  -0.054   0.019
    1UNL    H20   58   0.205   0.126  -0.047
    1UNL    H21   59   0.158   0.097   0.124
    1UNL    H22   60   0.196  -0.150  -0.038
    1UNL    H23   61   0.241  -0.232   0.158
    1UNL    H24   62   0.246  -0.142   0.374
    1UNL    H25   63   0.233   0.025   0.308
    1UNL    H26   64   0.470  -0.168   0.310
    1UNL    H27   65   0.476   0.006   0.330
    1UNL    H28   66   0.667  -0.020   0.179
    1UNL    H29   67   0.807   0.166  -0.183
    1UNL    H30   68   0.950   0.048  -0.148
    1UNL    H31   69   0.802   0.008  -0.244
    1UNL    H32   70   0.567  -0.116  -0.443
    1UNL    H33   71   0.516  -0.205  -0.299
    1UNL    H34   72   0.681  -0.198  -0.332
    1UNL    H35   73   0.362  -0.058  -0.188
   0.00000   0.00000   0.00000   0.00000   0.00000   0.00000   0.00000   0.00000   0.00000
Generated with MDTraj, t= 44.0
 73
    1UNL     C1    1  -0.051   0.006   0.310
    1UNL     C2    2  -0.044   0.123   0.244
    1UNL     C3    3  -0.077   0.139   0.095
    1UNL     C4    4  -0.226   0.128   0.058
    1UNL     O1    5  -0.264  -0.008   0.067
    1UNL     C5    6  -0.399  -0.017   0.037
    1UNL     O2    7  -0.488   0.065   0.120
    1UNL     C6    8  -0.624   0.070   0.076
    1UNL     C7    9  -0.650   0.204  -0.002
    1UNL     O3   10  -0.784   0.210  -0.033
    1UNL     C8   11  -0.670  -0.046  -0.015
    1UNL     O4   12  -0.812  -0.070  -0.011
    1UNL     C9   13  -0.601  -0.182   0.025
    1UNL     O5   14  -0.637  -0.281  -0.071
    1UNL    C10   15  -0.443  -0.164   0.040
    1UNL     O6   16  -0.373  -0.237  -0.051
    1UNL     O7   17  -0.244   0.183  -0.074
    1UNL    C11   18  -0.163   0.119  -0.169
    1UNL    C12   19  -0.049   0.061  -0.141
    1UNL    C13   20   0.034   0.010  -0.254
    1UNL     O8   21   0.146  -0.029  -0.233
    1UNL     O9   22  -0.030   0.017  -0.379
    1UNL    C14   23   0.004   0.046   0.001
    1UNL    C15   24   0.151   0.079   0.025
    1UNL    C16   25   0.229  -0.050   0.032
    1UNL     N1   26   0.193  -0.115   0.161
    1UNL    C17   27   0.258  -0.047   0.267
    1UNL    C18   28   0.413  -0.061   0.254
    1UNL    C19   29   0.467  -0.041   0.117
    1UNL    C20   30   0.600  -0.027   0.097
    1UNL    C21   31   0.658  -0.014  -0.030
    1UNL    O10   32   0.791   0.017  -0.048
    1UNL    C22   33   0.861  -0.019  -0.169
    1UNL    C23   34   0.570  -0.018  -0.147
    1UNL    O11   35   0.626  -0.023  -0.275
    1UNL    C24   36   0.589  -0.143  -0.340
    1UNL    C25   37   0.431  -0.025  -0.118
    1UNL    C26   38   0.383  -0.037   0.009
    1UNL     H1   39  -0.025   0.008   0.410
    1UNL     H2   40  -0.107  -0.072   0.255
    1UNL     H3   41  -0.003   0.200   0.305
    1UNL     H4   42  -0.039   0.242   0.066
    1UNL     H5   43  -0.275   0.187   0.138
    1UNL     H6   44  -0.409   0.020  -0.063
    1UNL     H7   45  -0.690   0.065   0.165
    1UNL     H8   46  -0.622   0.275   0.076
    1UNL     H9   47  -0.597   0.200  -0.091
    1UNL    H10   48  -0.825   0.120  -0.022
    1UNL    H11   49  -0.657  -0.024  -0.126
    1UNL    H12   50  -0.839  -0.156   0.026
    1UNL    H13   51  -0.634  -0.220   0.121
    1UNL    H14   52  -0.558  -0.317  -0.117
    1UNL    H15   53  -0.416  -0.211   0.138
    1UNL    H16   54  -0.274  -0.242  -0.030
    1UNL    H17   55  -0.197   0.110  -0.275
    1UNL    H18   56   0.032  -0.003  -0.452
    1UNL    H19   57  -0.016  -0.056   0.027
    1UNL    H20   58   0.190   0.140  -0.057
    1UNL    H21   59   0.166   0.141   0.111
    1UNL    H22   60   0.191  -0.120  -0.049
    1UNL    H23   61   0.200  -0.213   0.148
    1UNL    H24   62   0.233  -0.088   0.369
    1UNL    H25   63   0.229   0.063   0.278
    1UNL    H26   64   0.462  -0.155   0.300
    1UNL    H27   65   0.452   0.016   0.316
    1UNL    H28   66   0.665  -0.031   0.189
    1UNL    H29   67   0.799  -0.012  -0.261
    1UNL    H30   68   0.955   0.043  -0.168
    1UNL    H31   69   0.889  -0.121  -0.170
    1UNL    H32   70   0.678  -0.200  -0.354
    1UNL    H33   71   0.544  -0.131  -0.439
    1UNL    H34   72   0.514  -0.199  -0.281
    1UNL    H35   73   0.364  -0.020  -0.209
   0.00000   0.00000   0.00000   0.00000   0.00000   0.00000   0.00000   0.00000   0.00000
Generated with MDTraj, t= 45.0
 73
    1UNL     C1    1  -0.083   0.020   0.304
    1UNL     C2    2  -0.055   0.137   0.245
    1UNL     C3    3  -0.083   0.161   0.098
    1UNL     C4    4  -0.229   0.129   0.057
    1UNL     O1    5  -0.261  -0.008   0.082
    1UNL     C5    6  -0.393  -0.027   0.040
    1UNL     O2    7  -0.487   0.057   0.115
    1UNL     C6    8  -0.627   0.055   0.071
    1UNL     C7    9  -0.656   0.200   0.018
    1UNL     O3   10  -0.792   0.220  -0.009
    1UNL     C8   11  -0.663  -0.051  -0.038
    1UNL     O4   12  -0.805  -0.073  -0.060
    1UNL     C9   13  -0.605  -0.190   0.016
    1UNL     O5   14  -0.631  -0.298  -0.071
    1UNL    C10   15  -0.445  -0.174   0.039
    1UNL     O6   16  -0.386  -0.257  -0.050
    1UNL     O7   17  -0.261   0.181  -0.066
    1UNL    C11   18  -0.173   0.128  -0.154
    1UNL    C12   19  -0.051   0.077  -0.127
    1UNL    C13   20   0.022   0.014  -0.239
    1UNL     O8   21   0.134  -0.021  -0.232
    1UNL     O9   22  -0.050   0.010  -0.359
    1UNL    C14   23   0.004   0.070   0.012
    1UNL    C15   24   0.164   0.087   0.026
    1UNL    C16   25   0.236  -0.042   0.033
    1UNL     N1   26   0.210  -0.113   0.167
    1UNL    C17   27   0.274  -0.039   0.275
    1UNL    C18   28   0.425  -0.034   0.250
    1UNL    C19   29   0.472  -0.026   0.111
    1UNL    C20   30   0.615  -0.010   0.089
    1UNL    C21   31   0.670  -0.003  -0.040
    1UNL    O10   32   0.818   0.008  -0.052
    1UNL    C22   33   0.877  -0.082  -0.148
    1UNL    C23   34   0.585  -0.031  -0.146
    1UNL    O11   35   0.641  -0.045  -0.276
    1UNL    C24   36   0.559  -0.112  -0.368
    1UNL    C25   37   0.446  -0.047  -0.124
    1UNL    C26   38   0.387  -0.031  -0.001
    1UNL     H1   39  -0.078   0.019   0.411
    1UNL     H2   40  -0.128  -0.053   0.233
    1UNL     H3   41  -0.019   0.218   0.311
    1UNL     H4   42  -0.066   0.269   0.064
    1UNL     H5   43  -0.302   0.181   0.131
    1UNL     H6   44  -0.384   0.003  -0.061
    1UNL     H7   45  -0.701   0.046   0.155
    1UNL     H8   46  -0.643   0.281   0.095
    1UNL     H9   47  -0.601   0.206  -0.069
    1UNL    H10   48  -0.824   0.130  -0.039
    1UNL    H11   49  -0.621  -0.023  -0.140
    1UNL    H12   50  -0.828  -0.162  -0.026
    1UNL    H13   51  -0.635  -0.211   0.117
    1UNL    H14   52  -0.638  -0.265  -0.163
    1UNL    H15   53  -0.416  -0.216   0.137
    1UNL    H16   54  -0.420  -0.238  -0.142
    1UNL    H17   55  -0.199   0.139  -0.261
    1UNL    H18   56   0.003  -0.034  -0.428
    1UNL    H19   57  -0.024  -0.033   0.035
    1UNL    H20   58   0.203   0.139  -0.059
    1UNL    H21   59   0.189   0.158   0.104
    1UNL    H22   60   0.192  -0.113  -0.044
    1UNL    H23   61   0.224  -0.211   0.157
    1UNL    H24   62   0.258  -0.092   0.375
    1UNL    H25   63   0.234   0.065   0.297
    1UNL    H26   64   0.464  -0.132   0.297
    1UNL    H27   65   0.475   0.037   0.311
    1UNL    H28   66   0.685   0.007   0.162
    1UNL    H29   67   0.907  -0.024  -0.241
    1UNL    H30   68   0.965  -0.130  -0.100
    1UNL    H31   69   0.810  -0.153  -0.192
    1UNL    H32   70   0.491  -0.182  -0.321
    1UNL    H33   71   0.627  -0.182  -0.424
    1UNL    H34   72   0.509  -0.046  -0.440
    1UNL    H35   73   0.377  -0.043  -0.206
   0.00000   0.00000   0.00000   0.00000   0.00000   0.00000   0.00000   0.00000   0.00000
Generated with MDTraj, t= 46.0
 73
    1UNL     C1    1  -0.119   0.029   0.317
    1UNL     C2    2  -0.040   0.116   0.250
    1UNL     C3    3  -0.065   0.143   0.108
    1UNL     C4    4  -0.215   0.122   0.073
    1UNL     O1    5  -0.262  -0.011   0.094
    1UNL     C5    6  -0.393  -0.021   0.054
    1UNL     O2    7  -0.491   0.051   0.132
    1UNL     C6    8  -0.620   0.058   0.065
    1UNL     C7    9  -0.657   0.200   0.022
    1UNL     O3   10  -0.798   0.206  -0.019
    1UNL     C8   11  -0.645  -0.057  -0.035
    1UNL     O4   12  -0.780  -0.063  -0.083
    1UNL     C9   13  -0.596  -0.191   0.019
    1UNL     O5   14  -0.606  -0.291  -0.076
    1UNL    C10   15  -0.434  -0.170   0.043
    1UNL     O6   16  -0.368  -0.230  -0.062
    1UNL     O7   17  -0.256   0.166  -0.062
    1UNL    C11   18  -0.167   0.125  -0.157
    1UNL    C12   19  -0.050   0.058  -0.137
    1UNL    C13   20   0.024   0.011  -0.254
    1UNL     O8   21   0.134  -0.036  -0.247
    1UNL     O9   22  -0.047   0.013  -0.382
    1UNL    C14   23   0.005   0.049   0.006
    1UNL    C15   24   0.160   0.080   0.007
    1UNL    C16   25   0.241  -0.040   0.032
    1UNL     N1   26   0.225  -0.101   0.169
    1UNL    C17   27   0.284  -0.031   0.283
    1UNL    C18   28   0.428   0.010   0.260
    1UNL    C19   29   0.473   0.002   0.118
    1UNL    C20   30   0.611   0.005   0.086
    1UNL    C21   31   0.666  -0.025  -0.038
    1UNL    O10   32   0.804  -0.041  -0.039
    1UNL    C22   33   0.839  -0.128  -0.139
    1UNL    C23   34   0.573  -0.036  -0.148
    1UNL    O11   35   0.621  -0.058  -0.280
    1UNL    C24   36   0.515  -0.045  -0.379
    1UNL    C25   37   0.438  -0.020  -0.121
    1UNL    C26   38   0.384  -0.010   0.009
    1UNL     H1   39  -0.092   0.014   0.424
    1UNL     H2   40  -0.193  -0.024   0.268
    1UNL     H3   41   0.035   0.177   0.297
    1UNL     H4   42  -0.050   0.253   0.076
    1UNL     H5   43  -0.289   0.178   0.144
    1UNL     H6   44  -0.388   0.013  -0.045
    1UNL     H7   45  -0.684   0.034   0.156
    1UNL     H8   46  -0.645   0.272   0.108
    1UNL     H9   47  -0.606   0.231  -0.066
    1UNL    H10   48  -0.820   0.128  -0.076
    1UNL    H11   49  -0.588  -0.042  -0.134
    1UNL    H12   50  -0.835  -0.123  -0.028
    1UNL    H13   51  -0.649  -0.209   0.111
    1UNL    H14   52  -0.699  -0.323  -0.072
    1UNL    H15   53  -0.411  -0.227   0.133
    1UNL    H16   54  -0.426  -0.233  -0.142
    1UNL    H17   55  -0.200   0.140  -0.256
    1UNL    H18   56   0.014  -0.037  -0.439
    1UNL    H19   57  -0.018  -0.053   0.039
    1UNL    H20   58   0.194   0.141  -0.072
    1UNL    H21   59   0.178   0.146   0.094
    1UNL    H22   60   0.218  -0.125  -0.037
    1UNL    H23   61   0.245  -0.197   0.164
    1UNL    H24   62   0.271  -0.092   0.379
    1UNL    H25   63   0.218   0.059   0.306
    1UNL    H26   64   0.494  -0.052   0.333
    1UNL    H27   65   0.450   0.104   0.306
    1UNL    H28   66   0.675   0.015   0.179
    1UNL    H29   67   0.793  -0.080  -0.231
    1UNL    H30   68   0.948  -0.137  -0.150
    1UNL    H31   69   0.790  -0.224  -0.137
    1UNL    H32   70   0.465  -0.144  -0.388
    1UNL    H33   71   0.567  -0.027  -0.480
    1UNL    H34   72   0.447   0.038  -0.361
    1UNL    H35   73   0.365  -0.025  -0.195
   0.00000   0.00000   0.00000   0.00000   0.00000   0.00000   0.00000   0.00000   0.00000
Generated with MDTraj, t= 47.0
 73
    1UNL     C1    1  -0.091   0.030   0.315
    1UNL     C2    2  -0.057   0.142   0.251
    1UNL     C3    3  -0.077   0.153   0.105
    1UNL     C4    4  -0.229   0.132   0.073
    1UNL     O1    5  -0.261  -0.004   0.085
    1UNL     C5    6  -0.393  -0.027   0.048
    1UNL     O2    7  -0.492   0.038   0.135
    1UNL     C6    8  -0.627   0.052   0.073
    1UNL     C7    9  -0.643   0.187   0.009
    1UNL     O3   10  -0.776   0.201  -0.052
    1UNL     C8   11  -0.652  -0.055  -0.034
    1UNL     O4   12  -0.793  -0.078  -0.055
    1UNL     C9   13  -0.589  -0.186  -0.001
    1UNL     O5   14  -0.613  -0.293  -0.088
    1UNL    C10   15  -0.427  -0.179   0.029
    1UNL     O6   16  -0.345  -0.225  -0.077
    1UNL     O7   17  -0.251   0.184  -0.057
    1UNL    C11   18  -0.168   0.118  -0.143
    1UNL    C12   19  -0.058   0.050  -0.127
    1UNL    C13   20   0.031   0.005  -0.239
    1UNL     O8   21   0.136  -0.046  -0.216
    1UNL     O9   22  -0.016   0.024  -0.365
    1UNL    C14   23   0.000   0.047   0.015
    1UNL    C15   24   0.157   0.074   0.017
    1UNL    C16   25   0.237  -0.054   0.047
    1UNL     N1   26   0.220  -0.081   0.189
    1UNL    C17   27   0.286   0.019   0.280
    1UNL    C18   28   0.438   0.032   0.252
    1UNL    C19   29   0.479  -0.011   0.112
    1UNL    C20   30   0.613  -0.028   0.090
    1UNL    C21   31   0.650  -0.045  -0.042
    1UNL    O10   32   0.783  -0.044  -0.079
    1UNL    C22   33   0.818  -0.155  -0.154
    1UNL    C23   34   0.557  -0.044  -0.150
    1UNL    O11   35   0.611  -0.043  -0.281
    1UNL    C24   36   0.520   0.022  -0.370
    1UNL    C25   37   0.426  -0.050  -0.116
    1UNL    C26   38   0.388  -0.044   0.019
    1UNL     H1   39  -0.056   0.022   0.418
    1UNL     H2   40  -0.140  -0.048   0.269
    1UNL     H3   41   0.007   0.210   0.305
    1UNL     H4   42  -0.037   0.255   0.069
    1UNL     H5   43  -0.275   0.181   0.165
    1UNL     H6   44  -0.401   0.011  -0.049
    1UNL     H7   45  -0.688   0.037   0.168
    1UNL     H8   46  -0.637   0.270   0.089
    1UNL     H9   47  -0.577   0.205  -0.075
    1UNL    H10   48  -0.821   0.112  -0.046
    1UNL    H11   49  -0.605  -0.029  -0.136
    1UNL    H12   50  -0.830  -0.129   0.021
    1UNL    H13   51  -0.634  -0.219   0.092
    1UNL    H14   52  -0.690  -0.271  -0.145
    1UNL    H15   53  -0.404  -0.233   0.118
    1UNL    H16   54  -0.374  -0.308  -0.117
    1UNL    H17   55  -0.201   0.121  -0.246
    1UNL    H18   56   0.044  -0.022  -0.428
    1UNL    H19   57  -0.016  -0.052   0.061
    1UNL    H20   58   0.195   0.107  -0.074
    1UNL    H21   59   0.181   0.156   0.088
    1UNL    H22   60   0.197  -0.140  -0.005
    1UNL    H23   61   0.247  -0.173   0.208
    1UNL    H24   62   0.257  -0.002   0.388
    1UNL    H25   63   0.238   0.120   0.266
    1UNL    H26   64   0.504  -0.007   0.336
    1UNL    H27   65   0.457   0.138   0.263
    1UNL    H28   66   0.688  -0.043   0.163
    1UNL    H29   67   0.767  -0.136  -0.253
    1UNL    H30   68   0.923  -0.160  -0.177
    1UNL    H31   69   0.782  -0.250  -0.119
    1UNL    H32   70   0.437  -0.048  -0.399
    1UNL    H33   71   0.586   0.046  -0.462
    1UNL    H34   72   0.488   0.114  -0.325
    1UNL    H35   73   0.352  -0.067  -0.202
   0.00000   0.00000   0.00000   0.00000   0.00000   0.00000   0.00000   0.00000   0.00000
Generated with MDTraj, t= 48.0
 73
    1UNL     C1    1  -0.055   0.034   0.315
    1UNL     C2    2  -0.061   0.149   0.248
    1UNL     C3    3  -0.084   0.166   0.104
    1UNL     C4    4  -0.233   0.129   0.063
    1UNL     O1    5  -0.261  -0.005   0.079
    1UNL     C5    6  -0.394  -0.026   0.043
    1UNL     O2    7  -0.496   0.027   0.130
    1UNL     C6    8  -0.623   0.046   0.055
    1UNL     C7    9  -0.628   0.184  -0.017
    1UNL     O3   10  -0.756   0.212  -0.069
    1UNL     C8   11  -0.651  -0.075  -0.037
    1UNL     O4   12  -0.794  -0.102  -0.042
    1UNL     C9   13  -0.577  -0.200   0.010
    1UNL     O5   14  -0.618  -0.300  -0.077
    1UNL    C10   15  -0.422  -0.176   0.009
    1UNL     O6   16  -0.350  -0.217  -0.103
    1UNL     O7   17  -0.257   0.176  -0.066
    1UNL    C11   18  -0.167   0.127  -0.155
    1UNL    C12   19  -0.042   0.081  -0.132
    1UNL    C13   20   0.027  -0.004  -0.231
    1UNL     O8   21   0.117  -0.079  -0.216
    1UNL     O9   22  -0.013   0.025  -0.355
    1UNL    C14   23   0.004   0.079   0.015
    1UNL    C15   24   0.155   0.117   0.038
    1UNL    C16   25   0.235  -0.022   0.084
    1UNL     N1   26   0.223  -0.051   0.229
    1UNL    C17   27   0.324   0.006   0.318
    1UNL    C18   28   0.466  -0.027   0.270
    1UNL    C19   29   0.487  -0.018   0.126
    1UNL    C20   30   0.616  -0.013   0.073
    1UNL    C21   31   0.640  -0.042  -0.059
    1UNL    O10   32   0.774  -0.053  -0.095
    1UNL    C22   33   0.801  -0.145  -0.193
    1UNL    C23   34   0.534  -0.060  -0.148
    1UNL    O11   35   0.552  -0.072  -0.284
    1UNL    C24   36   0.547   0.050  -0.356
    1UNL    C25   37   0.404  -0.057  -0.103
    1UNL    C26   38   0.373  -0.030   0.035
    1UNL     H1   39  -0.038   0.028   0.420
    1UNL     H2   40  -0.060  -0.066   0.265
    1UNL     H3   41  -0.041   0.238   0.307
    1UNL     H4   42  -0.081   0.275   0.065
    1UNL     H5   43  -0.297   0.185   0.132
    1UNL     H6   44  -0.414   0.025  -0.047
    1UNL     H7   45  -0.705   0.057   0.131
    1UNL     H8   46  -0.614   0.284   0.046
    1UNL     H9   47  -0.557   0.183  -0.101
    1UNL    H10   48  -0.805   0.130  -0.069
    1UNL    H11   49  -0.627  -0.039  -0.141
    1UNL    H12   50  -0.824  -0.145   0.042
    1UNL    H13   51  -0.620  -0.225   0.111
    1UNL    H14   52  -0.699  -0.271  -0.126
    1UNL    H15   53  -0.376  -0.231   0.087
    1UNL    H16   54  -0.390  -0.301  -0.142
    1UNL    H17   55  -0.193   0.132  -0.262
    1UNL    H18   56   0.043  -0.029  -0.416
    1UNL    H19   57  -0.025  -0.024   0.049
    1UNL    H20   58   0.191   0.150  -0.055
    1UNL    H21   59   0.173   0.199   0.109
    1UNL    H22   60   0.180  -0.103   0.039
    1UNL    H23   61   0.222  -0.147   0.248
    1UNL    H24   62   0.305  -0.037   0.423
    1UNL    H25   63   0.306   0.115   0.325
    1UNL    H26   64   0.484  -0.134   0.297
    1UNL    H27   65   0.546   0.027   0.323
    1UNL    H28   66   0.705  -0.009   0.133
    1UNL    H29   67   0.780  -0.091  -0.290
    1UNL    H30   68   0.903  -0.176  -0.194
    1UNL    H31   69   0.739  -0.234  -0.192
    1UNL    H32   70   0.495   0.029  -0.453
    1UNL    H33   71   0.658   0.073  -0.370
    1UNL    H34   72   0.504   0.126  -0.298
    1UNL    H35   73   0.321  -0.067  -0.165
   0.00000   0.00000   0.00000   0.00000   0.00000   0.00000   0.00000   0.00000   0.00000
Generated with MDTraj, t= 49.0
 73
    1UNL     C1    1  -0.091   0.046   0.336
    1UNL     C2    2  -0.050   0.146   0.257
    1UNL     C3    3  -0.083   0.161   0.117
    1UNL     C4    4  -0.229   0.134   0.071
    1UNL     O1    5  -0.258  -0.007   0.066
    1UNL     C5    6  -0.385  -0.023   0.025
    1UNL     O2    7  -0.477   0.041   0.110
    1UNL     C6    8  -0.612   0.058   0.048
    1UNL     C7    9  -0.630   0.178  -0.045
    1UNL     O3   10  -0.760   0.185  -0.094
    1UNL     C8   11  -0.639  -0.069  -0.038
    1UNL     O4   12  -0.776  -0.107  -0.050
    1UNL     C9   13  -0.565  -0.194   0.025
    1UNL     O5   14  -0.609  -0.310  -0.046
    1UNL    C10   15  -0.413  -0.174   0.003
    1UNL     O6   16  -0.374  -0.216  -0.124
    1UNL     O7   17  -0.253   0.186  -0.058
    1UNL    C11   18  -0.156   0.137  -0.151
    1UNL    C12   19  -0.045   0.066  -0.117
    1UNL    C13   20   0.033   0.006  -0.217
    1UNL     O8   21   0.134  -0.052  -0.191
    1UNL     O9   22  -0.009   0.016  -0.348
    1UNL    C14   23  -0.001   0.058   0.029
    1UNL    C15   24   0.153   0.088   0.035
    1UNL    C16   25   0.225  -0.036   0.102
    1UNL     N1   26   0.221  -0.030   0.252
    1UNL    C17   27   0.336   0.035   0.319
    1UNL    C18   28   0.469  -0.036   0.279
    1UNL    C19   29   0.483  -0.053   0.127
    1UNL    C20   30   0.605  -0.051   0.069
    1UNL    C21   31   0.633  -0.045  -0.068
    1UNL    O10   32   0.769  -0.060  -0.121
    1UNL    C22   33   0.782  -0.145  -0.232
    1UNL    C23   34   0.522  -0.047  -0.150
    1UNL    O11   35   0.525  -0.051  -0.291
    1UNL    C24   36   0.551   0.070  -0.362
    1UNL    C25   37   0.392  -0.048  -0.090
    1UNL    C26   38   0.371  -0.040   0.049
    1UNL     H1   39  -0.076   0.044   0.436
    1UNL     H2   40  -0.144  -0.040   0.294
    1UNL     H3   41   0.011   0.222   0.300
    1UNL     H4   42  -0.050   0.261   0.067
    1UNL     H5   43  -0.303   0.164   0.142
    1UNL     H6   44  -0.401   0.026  -0.068
    1UNL     H7   45  -0.685   0.066   0.132
    1UNL     H8   46  -0.603   0.269   0.025
    1UNL     H9   47  -0.562   0.179  -0.134
    1UNL    H10   48  -0.788   0.095  -0.131
    1UNL    H11   49  -0.601  -0.059  -0.141
    1UNL    H12   50  -0.801  -0.140   0.039
    1UNL    H13   51  -0.592  -0.222   0.131
    1UNL    H14   52  -0.703  -0.315  -0.076
    1UNL    H15   53  -0.349  -0.230   0.067
    1UNL    H16   54  -0.433  -0.185  -0.195
    1UNL    H17   55  -0.193   0.146  -0.254
    1UNL    H18   56   0.071  -0.021  -0.396
    1UNL    H19   57  -0.027  -0.045   0.061
    1UNL    H20   58   0.192   0.105  -0.062
    1UNL    H21   59   0.163   0.179   0.092
    1UNL    H22   60   0.176  -0.128   0.075
    1UNL    H23   61   0.242  -0.122   0.279
    1UNL    H24   62   0.323   0.051   0.431
    1UNL    H25   63   0.344   0.136   0.274
    1UNL    H26   64   0.459  -0.136   0.319
    1UNL    H27   65   0.556   0.013   0.330
    1UNL    H28   66   0.694  -0.038   0.139
    1UNL    H29   67   0.755  -0.096  -0.329
    1UNL    H30   68   0.882  -0.178  -0.240
    1UNL    H31   69   0.726  -0.238  -0.218
    1UNL    H32   70   0.631   0.051  -0.437
    1UNL    H33   71   0.581   0.143  -0.285
    1UNL    H34   72   0.463   0.102  -0.407
    1UNL    H35   73   0.307  -0.046  -0.155
   0.00000   0.00000   0.00000   0.00000   0.00000   0.00000   0.00000   0.00000   0.00000
Generated with MDTraj, t= 50.0
 73
    1UNL     C1    1  -0.157   0.061   0.342
    1UNL     C2    2  -0.064   0.113   0.268
    1UNL     C3    3  -0.075   0.156   0.127
    1UNL     C4    4  -0.220   0.140   0.080
    1UNL     O1    5  -0.263   0.004   0.084
    1UNL     C5    6  -0.391  -0.012   0.033
    1UNL     O2    7  -0.497   0.058   0.100
    1UNL     C6    8  -0.620   0.057   0.027
    1UNL     C7    9  -0.637   0.174  -0.074
    1UNL     O3   10  -0.767   0.170  -0.132
    1UNL     C8   11  -0.648  -0.082  -0.044
    1UNL     O4   12  -0.786  -0.109  -0.047
    1UNL     C9   13  -0.563  -0.197   0.023
    1UNL     O5   14  -0.598  -0.325  -0.022
    1UNL    C10   15  -0.415  -0.171   0.012
    1UNL     O6   16  -0.375  -0.220  -0.109
    1UNL     O7   17  -0.234   0.207  -0.046
    1UNL    C11   18  -0.147   0.151  -0.132
    1UNL    C12   19  -0.044   0.071  -0.111
    1UNL    C13   20   0.021   0.007  -0.226
    1UNL     O8   21   0.115  -0.065  -0.208
    1UNL     O9   22  -0.038   0.035  -0.341
    1UNL    C14   23   0.017   0.069   0.026
    1UNL    C15   24   0.177   0.087   0.031
    1UNL    C16   25   0.247  -0.039   0.096
    1UNL     N1   26   0.230  -0.034   0.243
    1UNL    C17   27   0.341   0.032   0.310
    1UNL    C18   28   0.481  -0.017   0.269
    1UNL    C19   29   0.503  -0.044   0.124
    1UNL    C20   30   0.629  -0.056   0.068
    1UNL    C21   31   0.649  -0.069  -0.067
    1UNL    O10   32   0.776  -0.072  -0.141
    1UNL    C22   33   0.785  -0.163  -0.249
    1UNL    C23   34   0.529  -0.058  -0.152
    1UNL    O11   35   0.541  -0.037  -0.286
    1UNL    C24   36   0.522   0.098  -0.318
    1UNL    C25   37   0.403  -0.062  -0.089
    1UNL    C26   38   0.388  -0.051   0.048
    1UNL     H1   39  -0.127   0.001   0.432
    1UNL     H2   40  -0.261   0.066   0.313
    1UNL     H3   41   0.037   0.101   0.305
    1UNL     H4   42  -0.051   0.270   0.114
    1UNL     H5   43  -0.286   0.190   0.146
    1UNL     H6   44  -0.389   0.033  -0.065
    1UNL     H7   45  -0.701   0.066   0.100
    1UNL     H8   46  -0.625   0.279  -0.020
    1UNL     H9   47  -0.553   0.167  -0.146
    1UNL    H10   48  -0.809   0.085  -0.116
    1UNL    H11   49  -0.611  -0.069  -0.146
    1UNL    H12   50  -0.818  -0.128   0.044
    1UNL    H13   51  -0.603  -0.185   0.128
    1UNL    H14   52  -0.688  -0.315  -0.061
    1UNL    H15   53  -0.357  -0.218   0.089
    1UNL    H16   54  -0.450  -0.209  -0.166
    1UNL    H17   55  -0.163   0.177  -0.237
    1UNL    H18   56   0.003  -0.010  -0.417
    1UNL    H19   57   0.004  -0.037   0.059
    1UNL    H20   58   0.211   0.113  -0.068
    1UNL    H21   59   0.195   0.171   0.093
    1UNL    H22   60   0.200  -0.131   0.060
    1UNL    H23   61   0.223  -0.126   0.280
    1UNL    H24   62   0.331   0.021   0.424
    1UNL    H25   63   0.337   0.138   0.287
    1UNL    H26   64   0.498  -0.103   0.331
    1UNL    H27   65   0.552   0.067   0.297
    1UNL    H28   66   0.713  -0.046   0.124
    1UNL    H29   67   0.743  -0.132  -0.348
    1UNL    H30   68   0.887  -0.190  -0.264
    1UNL    H31   69   0.742  -0.257  -0.211
    1UNL    H32   70   0.604   0.159  -0.277
    1UNL    H33   71   0.429   0.124  -0.271
    1UNL    H34   72   0.512   0.106  -0.422
    1UNL    H35   73   0.314  -0.082  -0.156
   0.00000   0.00000   0.00000   0.00000   0.00000   0.00000   0.00000   0.00000   0.00000
Generated with MDTraj, t= 51.0
 73
    1UNL     C1    1  -0.143   0.069   0.364
    1UNL     C2    2  -0.057   0.054   0.272
    1UNL     C3    3  -0.074   0.133   0.143
    1UNL     C4    4  -0.224   0.140   0.097
    1UNL     O1    5  -0.273   0.011   0.097
    1UNL     C5    6  -0.392  -0.001   0.030
    1UNL     O2    7  -0.503   0.071   0.087
    1UNL     C6    8  -0.621   0.067   0.008
    1UNL     C7    9  -0.646   0.177  -0.101
    1UNL     O3   10  -0.772   0.151  -0.165
    1UNL     C8   11  -0.654  -0.083  -0.049
    1UNL     O4   12  -0.795  -0.096  -0.038
    1UNL     C9   13  -0.573  -0.189   0.030
    1UNL     O5   14  -0.593  -0.327  -0.009
    1UNL    C10   15  -0.424  -0.162   0.033
    1UNL     O6   16  -0.362  -0.221  -0.083
    1UNL     O7   17  -0.228   0.214  -0.034
    1UNL    C11   18  -0.152   0.157  -0.126
    1UNL    C12   19  -0.044   0.076  -0.109
    1UNL    C13   20   0.022   0.014  -0.221
    1UNL     O8   21   0.123  -0.054  -0.218
    1UNL     O9   22  -0.030   0.036  -0.349
    1UNL    C14   23   0.008   0.055   0.032
    1UNL    C15   24   0.166   0.080   0.049
    1UNL    C16   25   0.243  -0.042   0.087
    1UNL     N1   26   0.241  -0.059   0.234
    1UNL    C17   27   0.345   0.024   0.304
    1UNL    C18   28   0.487  -0.024   0.271
    1UNL    C19   29   0.500  -0.034   0.121
    1UNL    C20   30   0.628  -0.043   0.060
    1UNL    C21   31   0.642  -0.061  -0.073
    1UNL    O10   32   0.774  -0.102  -0.103
    1UNL    C22   33   0.807  -0.153  -0.233
    1UNL    C23   34   0.534  -0.035  -0.161
    1UNL    O11   35   0.561  -0.031  -0.300
    1UNL    C24   36   0.496   0.077  -0.368
    1UNL    C25   37   0.400  -0.026  -0.103
    1UNL    C26   38   0.384  -0.036   0.037
    1UNL     H1   39  -0.134   0.006   0.452
    1UNL     H2   40  -0.210   0.143   0.358
    1UNL     H3   41   0.024  -0.014   0.287
    1UNL     H4   42  -0.043   0.243   0.165
    1UNL     H5   43  -0.279   0.204   0.164
    1UNL     H6   44  -0.383   0.035  -0.072
    1UNL     H7   45  -0.704   0.075   0.079
    1UNL     H8   46  -0.649   0.288  -0.064
    1UNL     H9   47  -0.566   0.179  -0.175
    1UNL    H10   48  -0.799   0.055  -0.148
    1UNL    H11   49  -0.615  -0.092  -0.148
    1UNL    H12   50  -0.824  -0.133   0.048
    1UNL    H13   51  -0.609  -0.182   0.135
    1UNL    H14   52  -0.639  -0.344  -0.094
    1UNL    H15   53  -0.369  -0.204   0.119
    1UNL    H16   54  -0.424  -0.296  -0.106
    1UNL    H17   55  -0.162   0.200  -0.224
    1UNL    H18   56   0.015  -0.034  -0.400
    1UNL    H19   57  -0.012  -0.051   0.066
    1UNL    H20   58   0.198   0.112  -0.049
    1UNL    H21   59   0.187   0.159   0.112
    1UNL    H22   60   0.187  -0.129   0.046
    1UNL    H23   61   0.253  -0.155   0.256
    1UNL    H24   62   0.331   0.009   0.415
    1UNL    H25   63   0.338   0.130   0.282
    1UNL    H26   64   0.508  -0.117   0.315
    1UNL    H27   65   0.558   0.058   0.310
    1UNL    H28   66   0.717  -0.037   0.128
    1UNL    H29   67   0.819  -0.076  -0.310
    1UNL    H30   68   0.897  -0.210  -0.219
    1UNL    H31   69   0.731  -0.231  -0.257
    1UNL    H32   70   0.432   0.138  -0.303
    1UNL    H33   71   0.432   0.037  -0.442
    1UNL    H34   72   0.568   0.140  -0.417
    1UNL    H35   73   0.315  -0.040  -0.163
   0.00000   0.00000   0.00000   0.00000   0.00000   0.00000   0.00000   0.00000   0.00000
Generated with MDTraj, t= 52.0
 73
    1UNL     C1    1  -0.118   0.084   0.388
    1UNL     C2    2  -0.048   0.083   0.278
    1UNL     C3    3  -0.079   0.138   0.143
    1UNL     C4    4  -0.223   0.135   0.114
    1UNL     O1    5  -0.264   0.004   0.104
    1UNL     C5    6  -0.390  -0.015   0.041
    1UNL     O2    7  -0.495   0.068   0.081
    1UNL     C6    8  -0.616   0.065  -0.001
    1UNL     C7    9  -0.625   0.155  -0.119
    1UNL     O3   10  -0.756   0.154  -0.174
    1UNL     C8   11  -0.649  -0.085  -0.054
    1UNL     O4   12  -0.788  -0.095  -0.074
    1UNL     C9   13  -0.589  -0.183   0.050
    1UNL     O5   14  -0.627  -0.320   0.012
    1UNL    C10   15  -0.440  -0.166   0.041
    1UNL     O6   16  -0.400  -0.228  -0.084
    1UNL     O7   17  -0.249   0.198  -0.010
    1UNL    C11   18  -0.171   0.143  -0.114
    1UNL    C12   19  -0.050   0.080  -0.100
    1UNL    C13   20   0.032   0.029  -0.215
    1UNL     O8   21   0.144  -0.018  -0.205
    1UNL     O9   22  -0.022   0.046  -0.343
    1UNL    C14   23   0.011   0.067   0.037
    1UNL    C15   24   0.167   0.103   0.047
    1UNL    C16   25   0.242  -0.025   0.063
    1UNL     N1   26   0.232  -0.085   0.203
    1UNL    C17   27   0.325  -0.015   0.299
    1UNL    C18   28   0.473  -0.036   0.270
    1UNL    C19   29   0.494  -0.040   0.117
    1UNL    C20   30   0.629  -0.051   0.069
    1UNL    C21   31   0.654  -0.049  -0.066
    1UNL    O10   32   0.793  -0.064  -0.110
    1UNL    C22   33   0.811  -0.130  -0.238
    1UNL    C23   34   0.548  -0.036  -0.158
    1UNL    O11   35   0.581  -0.027  -0.294
    1UNL    C24   36   0.473   0.001  -0.382
    1UNL    C25   37   0.415  -0.032  -0.110
    1UNL    C26   38   0.388  -0.030   0.025
    1UNL     H1   39  -0.077   0.041   0.480
    1UNL     H2   40  -0.210   0.145   0.403
    1UNL     H3   41   0.049   0.032   0.274
    1UNL     H4   42  -0.037   0.246   0.120
    1UNL     H5   43  -0.284   0.182   0.193
    1UNL     H6   44  -0.371   0.023  -0.060
    1UNL     H7   45  -0.694   0.091   0.070
    1UNL     H8   46  -0.595   0.259  -0.083
    1UNL     H9   47  -0.559   0.140  -0.201
    1UNL    H10   48  -0.789   0.064  -0.163
    1UNL    H11   49  -0.600  -0.100  -0.146
    1UNL    H12   50  -0.844  -0.079   0.006
    1UNL    H13   51  -0.637  -0.153   0.144
    1UNL    H14   52  -0.717  -0.322  -0.031
    1UNL    H15   53  -0.379  -0.221   0.118
    1UNL    H16   54  -0.479  -0.283  -0.112
    1UNL    H17   55  -0.223   0.140  -0.209
    1UNL    H18   56   0.035   0.013  -0.415
    1UNL    H19   57   0.009  -0.043   0.062
    1UNL    H20   58   0.203   0.154  -0.042
    1UNL    H21   59   0.190   0.167   0.126
    1UNL    H22   60   0.186  -0.101  -0.001
    1UNL    H23   61   0.269  -0.177   0.192
    1UNL    H24   62   0.302  -0.057   0.401
    1UNL    H25   63   0.300   0.089   0.302
    1UNL    H26   64   0.505  -0.126   0.314
    1UNL    H27   65   0.537   0.052   0.305
    1UNL    H28   66   0.707  -0.036   0.148
    1UNL    H29   67   0.764  -0.072  -0.317
    1UNL    H30   68   0.918  -0.133  -0.251
    1UNL    H31   69   0.772  -0.237  -0.231
    1UNL    H32   70   0.386   0.052  -0.340
    1UNL    H33   71   0.438  -0.086  -0.431
    1UNL    H34   72   0.509   0.068  -0.461
    1UNL    H35   73   0.332  -0.031  -0.178
   0.00000   0.00000   0.00000   0.00000   0.00000   0.00000   0.00000   0.00000   0.00000
Generated with MDTraj, t= 53.0
 73
    1UNL     C1    1  -0.124   0.149   0.382
    1UNL     C2    2  -0.058   0.082   0.284
    1UNL     C3    3  -0.083   0.127   0.143
    1UNL     C4    4  -0.234   0.113   0.109
    1UNL     O1    5  -0.266  -0.028   0.099
    1UNL     C5    6  -0.395  -0.039   0.039
    1UNL     O2    7  -0.495   0.047   0.090
    1UNL     C6    8  -0.612   0.062  -0.000
    1UNL     C7    9  -0.581   0.161  -0.105
    1UNL     O3   10  -0.687   0.192  -0.194
    1UNL     C8   11  -0.649  -0.084  -0.054
    1UNL     O4   12  -0.786  -0.101  -0.061
    1UNL     C9   13  -0.597  -0.176   0.058
    1UNL     O5   14  -0.654  -0.306   0.039
    1UNL    C10   15  -0.448  -0.181   0.045
    1UNL     O6   16  -0.398  -0.247  -0.070
    1UNL     O7   17  -0.251   0.187  -0.016
    1UNL    C11   18  -0.158   0.156  -0.121
    1UNL    C12   19  -0.041   0.092  -0.102
    1UNL    C13   20   0.027   0.052  -0.227
    1UNL     O8   21   0.138   0.005  -0.238
    1UNL     O9   22  -0.037   0.080  -0.346
    1UNL    C14   23   0.004   0.062   0.037
    1UNL    C15   24   0.156   0.079   0.053
    1UNL    C16   25   0.244  -0.048   0.066
    1UNL     N1   26   0.234  -0.113   0.201
    1UNL    C17   27   0.323  -0.049   0.299
    1UNL    C18   28   0.470  -0.065   0.258
    1UNL    C19   29   0.491  -0.040   0.115
    1UNL    C20   30   0.622  -0.032   0.066
    1UNL    C21   31   0.653  -0.022  -0.068
    1UNL    O10   32   0.786  -0.003  -0.111
    1UNL    C22   33   0.830  -0.111  -0.190
    1UNL    C23   34   0.540  -0.025  -0.168
    1UNL    O11   35   0.574  -0.033  -0.303
    1UNL    C24   36   0.469  -0.060  -0.393
    1UNL    C25   37   0.412  -0.025  -0.117
    1UNL    C26   38   0.388  -0.034   0.018
    1UNL     H1   39  -0.134   0.144   0.483
    1UNL     H2   40  -0.189   0.234   0.357
    1UNL     H3   41   0.021   0.009   0.292
    1UNL     H4   42  -0.057   0.241   0.148
    1UNL     H5   43  -0.307   0.159   0.183
    1UNL     H6   44  -0.385  -0.004  -0.065
    1UNL     H7   45  -0.695   0.097   0.060
    1UNL     H8   46  -0.565   0.266  -0.069
    1UNL     H9   47  -0.487   0.140  -0.145
    1UNL    H10   48  -0.758   0.125  -0.180
    1UNL    H11   49  -0.592  -0.112  -0.138
    1UNL    H12   50  -0.818  -0.079   0.030
    1UNL    H13   51  -0.621  -0.148   0.159
    1UNL    H14   52  -0.689  -0.317  -0.051
    1UNL    H15   53  -0.403  -0.242   0.130
    1UNL    H16   54  -0.463  -0.314  -0.090
    1UNL    H17   55  -0.205   0.169  -0.221
    1UNL    H18   56   0.012   0.061  -0.432
    1UNL    H19   57  -0.022  -0.047   0.056
    1UNL    H20   58   0.194   0.144  -0.023
    1UNL    H21   59   0.167   0.140   0.142
    1UNL    H22   60   0.188  -0.120  -0.002
    1UNL    H23   61   0.262  -0.209   0.188
    1UNL    H24   62   0.298  -0.091   0.400
    1UNL    H25   63   0.293   0.053   0.299
    1UNL    H26   64   0.506  -0.163   0.273
    1UNL    H27   65   0.531   0.012   0.318
    1UNL    H28   66   0.697  -0.036   0.134
    1UNL    H29   67   0.748  -0.146  -0.249
    1UNL    H30   68   0.908  -0.067  -0.251
    1UNL    H31   69   0.877  -0.191  -0.123
    1UNL    H32   70   0.432   0.030  -0.442
    1UNL    H33   71   0.390  -0.119  -0.349
    1UNL    H34   72   0.514  -0.128  -0.472
    1UNL    H35   73   0.334  -0.020  -0.197
   0.00000   0.00000   0.00000   0.00000   0.00000   0.00000   0.00000   0.00000   0.00000
Generated with MDTraj, t= 54.0
 73
    1UNL     C1    1  -0.072   0.159   0.376
    1UNL     C2    2  -0.043   0.096   0.268
    1UNL     C3    3  -0.081   0.126   0.125
    1UNL     C4    4  -0.229   0.097   0.096
    1UNL     O1    5  -0.250  -0.039   0.097
    1UNL     C5    6  -0.381  -0.056   0.055
    1UNL     O2    7  -0.474   0.050   0.100
    1UNL     C6    8  -0.579   0.076   0.004
    1UNL     C7    9  -0.554   0.156  -0.121
    1UNL     O3   10  -0.674   0.172  -0.189
    1UNL     C8   11  -0.651  -0.061  -0.040
    1UNL     O4   12  -0.788  -0.047  -0.037
    1UNL     C9   13  -0.605  -0.175   0.053
    1UNL     O5   14  -0.658  -0.290  -0.004
    1UNL    C10   15  -0.453  -0.190   0.069
    1UNL     O6   16  -0.397  -0.278  -0.030
    1UNL     O7   17  -0.269   0.157  -0.024
    1UNL    C11   18  -0.179   0.138  -0.119
    1UNL    C12   19  -0.049   0.095  -0.112
    1UNL    C13   20   0.031   0.068  -0.231
    1UNL     O8   21   0.135   0.002  -0.224
    1UNL     O9   22  -0.019   0.113  -0.353
    1UNL    C14   23  -0.000   0.049   0.021
    1UNL    C15   24   0.149   0.062   0.049
    1UNL    C16   25   0.233  -0.071   0.060
    1UNL     N1   26   0.215  -0.125   0.195
    1UNL    C17   27   0.298  -0.066   0.298
    1UNL    C18   28   0.448  -0.066   0.253
    1UNL    C19   29   0.475  -0.033   0.111
    1UNL    C20   30   0.601  -0.006   0.067
    1UNL    C21   31   0.637  -0.001  -0.073
    1UNL    O10   32   0.773   0.026  -0.096
    1UNL    C22   33   0.824  -0.073  -0.182
    1UNL    C23   34   0.534  -0.020  -0.167
    1UNL    O11   35   0.562  -0.013  -0.304
    1UNL    C24   36   0.490  -0.107  -0.381
    1UNL    C25   37   0.406  -0.048  -0.121
    1UNL    C26   38   0.380  -0.050   0.014
    1UNL     H1   39  -0.036   0.139   0.480
    1UNL     H2   40  -0.136   0.246   0.377
    1UNL     H3   41   0.021   0.011   0.286
    1UNL     H4   42  -0.070   0.240   0.104
    1UNL     H5   43  -0.299   0.141   0.176
    1UNL     H6   44  -0.370  -0.029  -0.054
    1UNL     H7   45  -0.653   0.136   0.060
    1UNL     H8   46  -0.512   0.250  -0.086
    1UNL     H9   47  -0.485   0.120  -0.189
    1UNL    H10   48  -0.740   0.103  -0.158
    1UNL    H11   49  -0.621  -0.079  -0.140
    1UNL    H12   50  -0.840  -0.127  -0.058
    1UNL    H13   51  -0.655  -0.159   0.147
    1UNL    H14   52  -0.635  -0.289  -0.098
    1UNL    H15   53  -0.422  -0.229   0.171
    1UNL    H16   54  -0.390  -0.371  -0.001
    1UNL    H17   55  -0.208   0.180  -0.216
    1UNL    H18   56   0.044   0.069  -0.413
    1UNL    H19   57  -0.021  -0.063   0.024
    1UNL    H20   58   0.192   0.127  -0.023
    1UNL    H21   59   0.162   0.119   0.144
    1UNL    H22   60   0.183  -0.139  -0.012
    1UNL    H23   61   0.224  -0.227   0.190
    1UNL    H24   62   0.271  -0.114   0.394
    1UNL    H25   63   0.258   0.032   0.304
    1UNL    H26   64   0.490  -0.161   0.273
    1UNL    H27   65   0.499   0.016   0.317
    1UNL    H28   66   0.685  -0.006   0.143
    1UNL    H29   67   0.769  -0.065  -0.273
    1UNL    H30   68   0.927  -0.043  -0.194
    1UNL    H31   69   0.821  -0.176  -0.133
    1UNL    H32   70   0.381  -0.099  -0.378
    1UNL    H33   71   0.524  -0.208  -0.354
    1UNL    H34   72   0.523  -0.088  -0.491
    1UNL    H35   73   0.332  -0.057  -0.194
   0.00000   0.00000   0.00000   0.00000   0.00000   0.00000   0.00000   0.00000   0.00000
Generated with MDTraj, t= 55.0
 73
    1UNL     C1    1  -0.041   0.152   0.367
    1UNL     C2    2  -0.038   0.073   0.268
    1UNL     C3    3  -0.066   0.121   0.125
    1UNL     C4    4  -0.221   0.107   0.093
    1UNL     O1    5  -0.259  -0.030   0.104
    1UNL     C5    6  -0.391  -0.041   0.059
    1UNL     O2    7  -0.492   0.056   0.110
    1UNL     C6    8  -0.598   0.079   0.020
    1UNL     C7    9  -0.563   0.181  -0.090
    1UNL     O3   10  -0.665   0.191  -0.185
    1UNL     C8   11  -0.657  -0.059  -0.043
    1UNL     O4   12  -0.798  -0.059  -0.064
    1UNL     C9   13  -0.612  -0.180   0.048
    1UNL     O5   14  -0.654  -0.303  -0.003
    1UNL    C10   15  -0.459  -0.176   0.091
    1UNL     O6   16  -0.403  -0.285   0.017
    1UNL     O7   17  -0.249   0.165  -0.038
    1UNL    C11   18  -0.166   0.134  -0.136
    1UNL    C12   19  -0.055   0.056  -0.120
    1UNL    C13   20   0.032   0.052  -0.241
    1UNL     O8   21   0.125  -0.025  -0.248
    1UNL     O9   22  -0.005   0.131  -0.345
    1UNL    C14   23   0.002   0.028   0.021
    1UNL    C15   24   0.156   0.054   0.031
    1UNL    C16   25   0.225  -0.086   0.040
    1UNL     N1   26   0.198  -0.128   0.181
    1UNL    C17   27   0.273  -0.052   0.284
    1UNL    C18   28   0.424  -0.048   0.262
    1UNL    C19   29   0.464  -0.044   0.116
    1UNL    C20   30   0.599  -0.018   0.080
    1UNL    C21   31   0.644  -0.003  -0.055
    1UNL    O10   32   0.780   0.026  -0.084
    1UNL    C22   33   0.807  -0.003  -0.222
    1UNL    C23   34   0.555  -0.029  -0.155
    1UNL    O11   35   0.583  -0.010  -0.294
    1UNL    C24   36   0.516  -0.107  -0.375
    1UNL    C25   37   0.426  -0.056  -0.120
    1UNL    C26   38   0.372  -0.063   0.009
    1UNL     H1   39  -0.043   0.114   0.471
    1UNL     H2   40  -0.048   0.252   0.359
    1UNL     H3   41  -0.037  -0.031   0.301
    1UNL     H4   42  -0.025   0.229   0.115
    1UNL     H5   43  -0.285   0.165   0.168
    1UNL     H6   44  -0.385  -0.034  -0.055
    1UNL     H7   45  -0.685   0.111   0.081
    1UNL     H8   46  -0.536   0.276  -0.051
    1UNL     H9   47  -0.475   0.145  -0.134
    1UNL    H10   48  -0.741   0.134  -0.163
    1UNL    H11   49  -0.617  -0.078  -0.142
    1UNL    H12   50  -0.821  -0.142  -0.110
    1UNL    H13   51  -0.681  -0.172   0.131
    1UNL    H14   52  -0.609  -0.322  -0.090
    1UNL    H15   53  -0.452  -0.206   0.199
    1UNL    H16   54  -0.463  -0.367   0.012
    1UNL    H17   55  -0.189   0.176  -0.231
    1UNL    H18   56   0.053   0.125  -0.419
    1UNL    H19   57  -0.000  -0.082   0.046
    1UNL    H20   58   0.197   0.108  -0.051
    1UNL    H21   59   0.172   0.115   0.126
    1UNL    H22   60   0.182  -0.150  -0.036
    1UNL    H23   61   0.183  -0.229   0.201
    1UNL    H24   62   0.244  -0.091   0.382
    1UNL    H25   63   0.225   0.042   0.292
    1UNL    H26   64   0.462  -0.139   0.302
    1UNL    H27   65   0.475   0.039   0.316
    1UNL    H28   66   0.674  -0.020   0.156
    1UNL    H29   67   0.769   0.081  -0.273
    1UNL    H30   68   0.915  -0.012  -0.230
    1UNL    H31   69   0.759  -0.099  -0.257
    1UNL    H32   70   0.429  -0.066  -0.428
    1UNL    H33   71   0.487  -0.197  -0.320
    1UNL    H34   72   0.595  -0.137  -0.456
    1UNL    H35   73   0.344  -0.058  -0.190
   0.00000   0.00000   0.00000   0.00000   0.00000   0.00000   0.00000   0.00000   0.00000
Generated with MDTraj, t= 56.0
 73
    1UNL     C1    1  -0.010   0.130   0.359
    1UNL     C2    2  -0.042   0.063   0.248
    1UNL     C3    3  -0.074   0.110   0.109
    1UNL     C4    4  -0.230   0.108   0.089
    1UNL     O1    5  -0.279  -0.016   0.135
    1UNL     C5    6  -0.405  -0.025   0.080
    1UNL     O2    7  -0.495   0.078   0.113
    1UNL     C6    8  -0.611   0.073   0.024
    1UNL     C7    9  -0.608   0.199  -0.071
    1UNL     O3   10  -0.710   0.204  -0.170
    1UNL     C8   11  -0.640  -0.054  -0.055
    1UNL     O4   12  -0.773  -0.067  -0.110
    1UNL     C9   13  -0.616  -0.170   0.052
    1UNL     O5   14  -0.656  -0.295   0.012
    1UNL    C10   15  -0.466  -0.165   0.101
    1UNL     O6   16  -0.407  -0.273   0.028
    1UNL     O7   17  -0.262   0.145  -0.043
    1UNL    C11   18  -0.174   0.128  -0.149
    1UNL    C12   19  -0.056   0.067  -0.136
    1UNL    C13   20   0.020   0.042  -0.252
    1UNL     O8   21   0.106  -0.046  -0.241
    1UNL     O9   22  -0.012   0.100  -0.377
    1UNL    C14   23  -0.004   0.024   0.002
    1UNL    C15   24   0.147   0.049   0.028
    1UNL    C16   25   0.236  -0.080   0.046
    1UNL     N1   26   0.217  -0.134   0.187
    1UNL    C17   27   0.295  -0.067   0.297
    1UNL    C18   28   0.441  -0.055   0.250
    1UNL    C19   29   0.477  -0.052   0.103
    1UNL    C20   30   0.612  -0.026   0.073
    1UNL    C21   31   0.663  -0.023  -0.053
    1UNL    O10   32   0.798  -0.005  -0.069
    1UNL    C22   33   0.824   0.082  -0.173
    1UNL    C23   34   0.558  -0.040  -0.156
    1UNL    O11   35   0.606  -0.041  -0.290
    1UNL    C24   36   0.510  -0.087  -0.387
    1UNL    C25   37   0.425  -0.042  -0.125
    1UNL    C26   38   0.381  -0.052   0.011
    1UNL     H1   39   0.002   0.085   0.456
    1UNL     H2   40   0.018   0.236   0.370
    1UNL     H3   41  -0.057  -0.043   0.252
    1UNL     H4   42  -0.042   0.223   0.116
    1UNL     H5   43  -0.284   0.192   0.144
    1UNL     H6   44  -0.376  -0.018  -0.031
    1UNL     H7   45  -0.694   0.091   0.094
    1UNL     H8   46  -0.616   0.289  -0.012
    1UNL     H9   47  -0.514   0.201  -0.116
    1UNL    H10   48  -0.750   0.112  -0.174
    1UNL    H11   49  -0.567  -0.060  -0.139
    1UNL    H12   50  -0.774  -0.152  -0.159
    1UNL    H13   51  -0.677  -0.138   0.139
    1UNL    H14   52  -0.603  -0.313  -0.070
    1UNL    H15   53  -0.457  -0.185   0.210
    1UNL    H16   54  -0.451  -0.359   0.053
    1UNL    H17   55  -0.223   0.166  -0.237
    1UNL    H18   56   0.058   0.082  -0.439
    1UNL    H19   57  -0.034  -0.083   0.014
    1UNL    H20   58   0.180   0.110  -0.055
    1UNL    H21   59   0.166   0.107   0.125
    1UNL    H22   60   0.200  -0.152  -0.025
    1UNL    H23   61   0.246  -0.234   0.192
    1UNL    H24   62   0.281  -0.115   0.392
    1UNL    H25   63   0.252   0.027   0.321
    1UNL    H26   64   0.496  -0.142   0.285
    1UNL    H27   65   0.479   0.039   0.298
    1UNL    H28   66   0.689  -0.031   0.145
    1UNL    H29   67   0.730   0.122  -0.199
    1UNL    H30   68   0.886   0.166  -0.138
    1UNL    H31   69   0.871   0.029  -0.259
    1UNL    H32   70   0.425  -0.021  -0.391
    1UNL    H33   71   0.476  -0.190  -0.369
    1UNL    H34   72   0.568  -0.076  -0.484
    1UNL    H35   73   0.341  -0.030  -0.197
   0.00000   0.00000   0.00000   0.00000   0.00000   0.00000   0.00000   0.00000   0.00000
Generated with MDTraj, t= 57.0
 73
    1UNL     C1    1   0.019   0.137   0.362
    1UNL     C2    2  -0.046   0.065   0.272
    1UNL     C3    3  -0.060   0.106   0.130
    1UNL     C4    4  -0.216   0.112   0.092
    1UNL     O1    5  -0.276  -0.012   0.115
    1UNL     C5    6  -0.413  -0.023   0.066
    1UNL     O2    7  -0.505   0.081   0.098
    1UNL     C6    8  -0.626   0.078   0.014
    1UNL     C7    9  -0.617   0.195  -0.093
    1UNL     O3   10  -0.753   0.209  -0.139
    1UNL     C8   11  -0.652  -0.050  -0.057
    1UNL     O4   12  -0.792  -0.060  -0.104
    1UNL     C9   13  -0.627  -0.166   0.050
    1UNL     O5   14  -0.653  -0.288  -0.011
    1UNL    C10   15  -0.477  -0.157   0.103
    1UNL     O6   16  -0.402  -0.254   0.043
    1UNL     O7   17  -0.245   0.154  -0.044
    1UNL    C11   18  -0.172   0.099  -0.138
    1UNL    C12   19  -0.048   0.046  -0.122
    1UNL    C13   20   0.025   0.009  -0.241
    1UNL     O8   21   0.141  -0.021  -0.238
    1UNL     O9   22  -0.037   0.024  -0.356
    1UNL    C14   23   0.011   0.033   0.013
    1UNL    C15   24   0.161   0.057   0.019
    1UNL    C16   25   0.239  -0.074   0.030
    1UNL     N1   26   0.210  -0.118   0.164
    1UNL    C17   27   0.289  -0.058   0.266
    1UNL    C18   28   0.436  -0.079   0.251
    1UNL    C19   29   0.481  -0.056   0.104
    1UNL    C20   30   0.615  -0.044   0.080
    1UNL    C21   31   0.662  -0.038  -0.051
    1UNL    O10   32   0.796  -0.000  -0.072
    1UNL    C22   33   0.796   0.112  -0.151
    1UNL    C23   34   0.572  -0.049  -0.163
    1UNL    O11   35   0.623  -0.039  -0.293
    1UNL    C24   36   0.521  -0.045  -0.388
    1UNL    C25   37   0.440  -0.052  -0.126
    1UNL    C26   38   0.386  -0.060   0.008
    1UNL     H1   39   0.028   0.104   0.459
    1UNL     H2   40   0.070   0.233   0.336
    1UNL     H3   41  -0.097  -0.030   0.289
    1UNL     H4   42  -0.022   0.216   0.116
    1UNL     H5   43  -0.279   0.193   0.134
    1UNL     H6   44  -0.387  -0.014  -0.045
    1UNL     H7   45  -0.703   0.108   0.085
    1UNL     H8   46  -0.575   0.283  -0.047
    1UNL     H9   47  -0.561   0.178  -0.181
    1UNL    H10   48  -0.795   0.122  -0.133
    1UNL    H11   49  -0.584  -0.064  -0.145
    1UNL    H12   50  -0.829  -0.146  -0.073
    1UNL    H13   51  -0.692  -0.172   0.143
    1UNL    H14   52  -0.611  -0.297  -0.098
    1UNL    H15   53  -0.476  -0.169   0.211
    1UNL    H16   54  -0.443  -0.338   0.062
    1UNL    H17   55  -0.196   0.124  -0.244
    1UNL    H18   56   0.025   0.005  -0.429
    1UNL    H19   57  -0.005  -0.076   0.031
    1UNL    H20   58   0.201   0.111  -0.070
    1UNL    H21   59   0.177   0.117   0.112
    1UNL    H22   60   0.203  -0.140  -0.047
    1UNL    H23   61   0.233  -0.221   0.173
    1UNL    H24   62   0.255  -0.088   0.363
    1UNL    H25   63   0.269   0.046   0.270
    1UNL    H26   64   0.455  -0.184   0.283
    1UNL    H27   65   0.487  -0.003   0.313
    1UNL    H28   66   0.691  -0.058   0.162
    1UNL    H29   67   0.712   0.174  -0.129
    1UNL    H30   68   0.885   0.175  -0.132
    1UNL    H31   69   0.797   0.083  -0.257
    1UNL    H32   70   0.459   0.040  -0.374
    1UNL    H33   71   0.463  -0.138  -0.385
    1UNL    H34   72   0.572  -0.034  -0.485
    1UNL    H35   73   0.367  -0.040  -0.204
   0.00000   0.00000   0.00000   0.00000   0.00000   0.00000   0.00000   0.00000   0.00000
Generated with MDTraj, t= 58.0
 73
    1UNL     C1    1   0.030   0.151   0.343
    1UNL     C2    2  -0.055   0.088   0.262
    1UNL     C3    3  -0.077   0.128   0.114
    1UNL     C4    4  -0.226   0.119   0.071
    1UNL     O1    5  -0.267  -0.012   0.082
    1UNL     C5    6  -0.401  -0.023   0.038
    1UNL     O2    7  -0.481   0.086   0.082
    1UNL     C6    8  -0.610   0.085   0.011
    1UNL     C7    9  -0.624   0.209  -0.077
    1UNL     O3   10  -0.759   0.208  -0.131
    1UNL     C8   11  -0.657  -0.044  -0.048
    1UNL     O4   12  -0.807  -0.054  -0.060
    1UNL     C9   13  -0.623  -0.162   0.047
    1UNL     O5   14  -0.655  -0.279  -0.016
    1UNL    C10   15  -0.465  -0.159   0.088
    1UNL     O6   16  -0.392  -0.263   0.029
    1UNL     O7   17  -0.246   0.167  -0.063
    1UNL    C11   18  -0.169   0.114  -0.155
    1UNL    C12   19  -0.048   0.061  -0.126
    1UNL    C13   20   0.019  -0.013  -0.230
    1UNL     O8   21   0.142  -0.030  -0.236
    1UNL     O9   22  -0.060  -0.061  -0.335
    1UNL    C14   23   0.008   0.038   0.016
    1UNL    C15   24   0.166   0.042   0.031
    1UNL    C16   25   0.242  -0.091   0.043
    1UNL     N1   26   0.216  -0.151   0.176
    1UNL    C17   27   0.295  -0.107   0.294
    1UNL    C18   28   0.445  -0.105   0.254
    1UNL    C19   29   0.482  -0.062   0.115
    1UNL    C20   30   0.608  -0.035   0.086
    1UNL    C21   31   0.651  -0.006  -0.046
    1UNL    O10   32   0.791   0.007  -0.068
    1UNL    C22   33   0.827   0.095  -0.170
    1UNL    C23   34   0.565  -0.016  -0.151
    1UNL    O11   35   0.612   0.011  -0.284
    1UNL    C24   36   0.518  -0.008  -0.386
    1UNL    C25   37   0.430  -0.054  -0.121
    1UNL    C26   38   0.384  -0.069   0.009
    1UNL     H1   39   0.042   0.116   0.445
    1UNL     H2   40   0.075   0.244   0.317
    1UNL     H3   41  -0.113   0.007   0.296
    1UNL     H4   42  -0.019   0.227   0.098
    1UNL     H5   43  -0.283   0.174   0.143
    1UNL     H6   44  -0.396  -0.015  -0.075
    1UNL     H7   45  -0.682   0.101   0.092
    1UNL     H8   46  -0.610   0.310  -0.040
    1UNL     H9   47  -0.554   0.195  -0.157
    1UNL    H10   48  -0.793   0.114  -0.127
    1UNL    H11   49  -0.629  -0.055  -0.159
    1UNL    H12   50  -0.843  -0.141  -0.033
    1UNL    H13   51  -0.688  -0.160   0.140
    1UNL    H14   52  -0.605  -0.290  -0.101
    1UNL    H15   53  -0.465  -0.169   0.194
    1UNL    H16   54  -0.426  -0.354   0.055
    1UNL    H17   55  -0.213   0.096  -0.254
    1UNL    H18   56   0.006  -0.120  -0.383
    1UNL    H19   57  -0.018  -0.067   0.045
    1UNL    H20   58   0.203   0.105  -0.058
    1UNL    H21   59   0.196   0.092   0.124
    1UNL    H22   60   0.201  -0.155  -0.035
    1UNL    H23   61   0.229  -0.256   0.168
    1UNL    H24   62   0.279  -0.176   0.374
    1UNL    H25   63   0.260  -0.015   0.337
    1UNL    H26   64   0.477  -0.213   0.261
    1UNL    H27   65   0.502  -0.040   0.319
    1UNL    H28   66   0.677  -0.054   0.161
    1UNL    H29   67   0.840   0.196  -0.134
    1UNL    H30   68   0.926   0.067  -0.216
    1UNL    H31   69   0.762   0.101  -0.253
    1UNL    H32   70   0.445   0.069  -0.377
    1UNL    H33   71   0.467  -0.104  -0.380
    1UNL    H34   72   0.565   0.005  -0.482
    1UNL    H35   73   0.352  -0.059  -0.193
   0.00000   0.00000   0.00000   0.00000   0.00000   0.00000   0.00000   0.00000   0.00000
Generated with MDTraj, t= 59.0
 73
    1UNL     C1    1   0.025   0.183   0.329
    1UNL     C2    2  -0.058   0.119   0.251
    1UNL     C3    3  -0.073   0.132   0.100
    1UNL     C4    4  -0.225   0.130   0.060
    1UNL     O1    5  -0.267  -0.006   0.079
    1UNL     C5    6  -0.402  -0.015   0.039
    1UNL     O2    7  -0.485   0.082   0.096
    1UNL     C6    8  -0.614   0.091   0.023
    1UNL     C7    9  -0.613   0.208  -0.070
    1UNL     O3   10  -0.745   0.228  -0.117
    1UNL     C8   11  -0.657  -0.041  -0.036
    1UNL     O4   12  -0.801  -0.056  -0.043
    1UNL     C9   13  -0.613  -0.163   0.045
    1UNL     O5   14  -0.654  -0.286   0.008
    1UNL    C10   15  -0.457  -0.157   0.064
    1UNL     O6   16  -0.398  -0.249  -0.024
    1UNL     O7   17  -0.222   0.168  -0.082
    1UNL    C11   18  -0.139   0.099  -0.169
    1UNL    C12   19  -0.037   0.025  -0.127
    1UNL    C13   20   0.030  -0.060  -0.231
    1UNL     O8   21   0.151  -0.092  -0.227
    1UNL     O9   22  -0.048  -0.097  -0.338
    1UNL    C14   23   0.004   0.023   0.020
    1UNL    C15   24   0.153   0.042   0.049
    1UNL    C16   25   0.236  -0.083   0.038
    1UNL     N1   26   0.222  -0.175   0.152
    1UNL    C17   27   0.283  -0.128   0.278
    1UNL    C18   28   0.440  -0.122   0.252
    1UNL    C19   29   0.475  -0.074   0.116
    1UNL    C20   30   0.610  -0.059   0.077
    1UNL    C21   31   0.654  -0.018  -0.047
    1UNL    O10   32   0.794  -0.005  -0.061
    1UNL    C22   33   0.828   0.088  -0.159
    1UNL    C23   34   0.554   0.015  -0.145
    1UNL    O11   35   0.577   0.053  -0.277
    1UNL    C24   36   0.471   0.021  -0.366
    1UNL    C25   37   0.420   0.019  -0.098
    1UNL    C26   38   0.382  -0.033   0.024
    1UNL     H1   39   0.032   0.169   0.442
    1UNL     H2   40   0.068   0.265   0.282
    1UNL     H3   41  -0.114   0.040   0.303
    1UNL     H4   42  -0.043   0.238   0.064
    1UNL     H5   43  -0.286   0.198   0.116
    1UNL     H6   44  -0.400   0.002  -0.072
    1UNL     H7   45  -0.680   0.108   0.108
    1UNL     H8   46  -0.580   0.296  -0.014
    1UNL     H9   47  -0.554   0.194  -0.163
    1UNL    H10   48  -0.792   0.144  -0.112
    1UNL    H11   49  -0.621  -0.071  -0.144
    1UNL    H12   50  -0.819  -0.146  -0.008
    1UNL    H13   51  -0.646  -0.143   0.151
    1UNL    H14   52  -0.600  -0.308  -0.073
    1UNL    H15   53  -0.434  -0.181   0.166
    1UNL    H16   54  -0.362  -0.333   0.015
    1UNL    H17   55  -0.170   0.084  -0.272
    1UNL    H18   56  -0.009  -0.177  -0.385
    1UNL    H19   57  -0.043  -0.061   0.074
    1UNL    H20   58   0.197   0.123  -0.024
    1UNL    H21   59   0.156   0.089   0.146
    1UNL    H22   60   0.205  -0.140  -0.052
    1UNL    H23   61   0.267  -0.270   0.128
    1UNL    H24   62   0.264  -0.202   0.353
    1UNL    H25   63   0.240  -0.036   0.312
    1UNL    H26   64   0.484  -0.226   0.262
    1UNL    H27   65   0.474  -0.050   0.322
    1UNL    H28   66   0.693  -0.077   0.151
    1UNL    H29   67   0.809   0.191  -0.130
    1UNL    H30   68   0.938   0.083  -0.184
    1UNL    H31   69   0.780   0.070  -0.249
    1UNL    H32   70   0.394   0.094  -0.351
    1UNL    H33   71   0.428  -0.075  -0.337
    1UNL    H34   72   0.505   0.021  -0.465
    1UNL    H35   73   0.348   0.051  -0.174
   0.00000   0.00000   0.00000   0.00000   0.00000   0.00000   0.00000   0.00000   0.00000
Generated with MDTraj, t= 60.0
 73
    1UNL     C1    1  -0.008   0.241   0.318
    1UNL     C2    2  -0.069   0.148   0.241
    1UNL     C3    3  -0.074   0.141   0.089
    1UNL     C4    4  -0.221   0.125   0.046
    1UNL     O1    5  -0.263  -0.006   0.085
    1UNL     C5    6  -0.400  -0.008   0.049
    1UNL     O2    7  -0.489   0.084   0.113
    1UNL     C6    8  -0.617   0.094   0.036
    1UNL     C7    9  -0.616   0.210  -0.063
    1UNL     O3   10  -0.742   0.214  -0.116
    1UNL     C8   11  -0.656  -0.042  -0.028
    1UNL     O4   12  -0.797  -0.047  -0.034
    1UNL     C9   13  -0.611  -0.164   0.058
    1UNL     O5   14  -0.667  -0.286   0.011
    1UNL    C10   15  -0.453  -0.155   0.050
    1UNL     O6   16  -0.429  -0.222  -0.077
    1UNL     O7   17  -0.247   0.140  -0.086
    1UNL    C11   18  -0.162   0.058  -0.158
    1UNL    C12   19  -0.041  -0.001  -0.118
    1UNL    C13   20   0.035  -0.076  -0.221
    1UNL     O8   21   0.150  -0.120  -0.208
    1UNL     O9   22  -0.028  -0.089  -0.342
    1UNL    C14   23   0.001   0.025   0.024
    1UNL    C15   24   0.151   0.038   0.040
    1UNL    C16   25   0.229  -0.093   0.060
    1UNL     N1   26   0.208  -0.153   0.190
    1UNL    C17   27   0.315  -0.127   0.289
    1UNL    C18   28   0.454  -0.162   0.240
    1UNL    C19   29   0.481  -0.095   0.109
    1UNL    C20   30   0.619  -0.070   0.067
    1UNL    C21   31   0.657  -0.016  -0.049
    1UNL    O10   32   0.799   0.003  -0.077
    1UNL    C22   33   0.829   0.101  -0.172
    1UNL    C23   34   0.549   0.014  -0.142
    1UNL    O11   35   0.575   0.096  -0.250
    1UNL    C24   36   0.535   0.071  -0.386
    1UNL    C25   37   0.421  -0.031  -0.105
    1UNL    C26   38   0.383  -0.074   0.021
    1UNL     H1   39  -0.013   0.241   0.424
    1UNL     H2   40   0.049   0.319   0.270
    1UNL     H3   41  -0.129   0.077   0.290
    1UNL     H4   42  -0.030   0.232   0.032
    1UNL     H5   43  -0.285   0.188   0.109
    1UNL     H6   44  -0.399   0.024  -0.057
    1UNL     H7   45  -0.690   0.126   0.111
    1UNL     H8   46  -0.596   0.307  -0.012
    1UNL     H9   47  -0.545   0.196  -0.152
    1UNL    H10   48  -0.796   0.131  -0.100
    1UNL    H11   49  -0.620  -0.045  -0.140
    1UNL    H12   50  -0.830  -0.137  -0.010
    1UNL    H13   51  -0.657  -0.133   0.155
    1UNL    H14   52  -0.618  -0.312  -0.070
    1UNL    H15   53  -0.409  -0.208   0.133
    1UNL    H16   54  -0.397  -0.168  -0.149
    1UNL    H17   55  -0.175   0.062  -0.265
    1UNL    H18   56   0.028  -0.143  -0.404
    1UNL    H19   57  -0.017  -0.075   0.063
    1UNL    H20   58   0.195   0.099  -0.047
    1UNL    H21   59   0.175   0.096   0.129
    1UNL    H22   60   0.190  -0.160  -0.017
    1UNL    H23   61   0.189  -0.258   0.178
    1UNL    H24   62   0.286  -0.172   0.382
    1UNL    H25   63   0.309  -0.020   0.306
    1UNL    H26   64   0.457  -0.276   0.229
    1UNL    H27   65   0.524  -0.123   0.308
    1UNL    H28   66   0.687  -0.094   0.142
    1UNL    H29   67   0.767   0.191  -0.169
    1UNL    H30   68   0.937   0.131  -0.167
    1UNL    H31   69   0.822   0.057  -0.267
    1UNL    H32   70   0.453   0.141  -0.407
    1UNL    H33   71   0.491  -0.031  -0.391
    1UNL    H34   72   0.615   0.088  -0.449
    1UNL    H35   73   0.349  -0.021  -0.186
   0.00000   0.00000   0.00000   0.00000   0.00000   0.00000   0.00000   0.00000   0.00000
Generated with MDTraj, t= 61.0
 73
    1UNL     C1    1  -0.016   0.276   0.278
    1UNL     C2    2  -0.019   0.151   0.223
    1UNL     C3    3  -0.067   0.128   0.083
    1UNL     C4    4  -0.226   0.120   0.052
    1UNL     O1    5  -0.280  -0.011   0.083
    1UNL     C5    6  -0.416  -0.016   0.040
    1UNL     O2    7  -0.502   0.070   0.114
    1UNL     C6    8  -0.632   0.091   0.044
    1UNL     C7    9  -0.625   0.213  -0.049
    1UNL     O3   10  -0.745   0.220  -0.121
    1UNL     C8   11  -0.685  -0.041  -0.022
    1UNL     O4   12  -0.827  -0.046  -0.006
    1UNL     C9   13  -0.626  -0.164   0.052
    1UNL     O5   14  -0.674  -0.288  -0.004
    1UNL    C10   15  -0.476  -0.157   0.039
    1UNL     O6   16  -0.439  -0.224  -0.074
    1UNL     O7   17  -0.237   0.156  -0.084
    1UNL    C11   18  -0.151   0.076  -0.160
    1UNL    C12   19  -0.037   0.006  -0.128
    1UNL    C13   20   0.041  -0.065  -0.229
    1UNL     O8   21   0.146  -0.130  -0.203
    1UNL     O9   22  -0.017  -0.084  -0.353
    1UNL    C14   23   0.009   0.011   0.014
    1UNL    C15   24   0.161   0.031   0.026
    1UNL    C16   25   0.250  -0.094   0.057
    1UNL     N1   26   0.224  -0.130   0.197
    1UNL    C17   27   0.347  -0.114   0.285
    1UNL    C18   28   0.459  -0.192   0.228
    1UNL    C19   29   0.502  -0.127   0.099
    1UNL    C20   30   0.637  -0.100   0.057
    1UNL    C21   31   0.662  -0.016  -0.047
    1UNL    O10   32   0.795   0.031  -0.053
    1UNL    C22   33   0.831   0.107  -0.166
    1UNL    C23   34   0.555   0.028  -0.121
    1UNL    O11   35   0.571   0.100  -0.242
    1UNL    C24   36   0.516   0.037  -0.355
    1UNL    C25   37   0.422  -0.003  -0.089
    1UNL    C26   38   0.397  -0.077   0.020
    1UNL     H1   39   0.005   0.285   0.381
    1UNL     H2   40  -0.044   0.376   0.230
    1UNL     H3   41  -0.003   0.059   0.284
    1UNL     H4   42  -0.053   0.227   0.023
    1UNL     H5   43  -0.288   0.196   0.109
    1UNL     H6   44  -0.413   0.020  -0.063
    1UNL     H7   45  -0.705   0.118   0.122
    1UNL     H8   46  -0.615   0.313   0.000
    1UNL     H9   47  -0.531   0.187  -0.113
    1UNL    H10   48  -0.803   0.142  -0.109
    1UNL    H11   49  -0.662  -0.058  -0.136
    1UNL    H12   50  -0.866  -0.136  -0.007
    1UNL    H13   51  -0.653  -0.178   0.158
    1UNL    H14   52  -0.600  -0.355  -0.013
    1UNL    H15   53  -0.433  -0.211   0.124
    1UNL    H16   54  -0.466  -0.170  -0.148
    1UNL    H17   55  -0.190   0.067  -0.259
    1UNL    H18   56   0.053  -0.130  -0.400
    1UNL    H19   57  -0.021  -0.074   0.072
    1UNL    H20   58   0.202   0.086  -0.058
    1UNL    H21   59   0.174   0.100   0.113
    1UNL    H22   60   0.214  -0.175  -0.009
    1UNL    H23   61   0.174  -0.223   0.215
    1UNL    H24   62   0.325  -0.131   0.388
    1UNL    H25   63   0.365  -0.006   0.276
    1UNL    H26   64   0.425  -0.295   0.189
    1UNL    H27   65   0.538  -0.199   0.296
    1UNL    H28   66   0.716  -0.136   0.130
    1UNL    H29   67   0.758   0.185  -0.193
    1UNL    H30   68   0.935   0.147  -0.154
    1UNL    H31   69   0.838   0.036  -0.246
    1UNL    H32   70   0.418  -0.017  -0.337
    1UNL    H33   71   0.591  -0.045  -0.376
    1UNL    H34   72   0.506   0.104  -0.435
    1UNL    H35   73   0.346   0.026  -0.155
   0.00000   0.00000   0.00000   0.00000   0.00000   0.00000   0.00000   0.00000   0.00000
Generated with MDTraj, t= 62.0
 73
    1UNL     C1    1  -0.067   0.256   0.286
    1UNL     C2    2  -0.079   0.137   0.226
    1UNL     C3    3  -0.079   0.133   0.081
    1UNL     C4    4  -0.226   0.113   0.040
    1UNL     O1    5  -0.266  -0.014   0.075
    1UNL     C5    6  -0.402  -0.016   0.038
    1UNL     O2    7  -0.483   0.084   0.101
    1UNL     C6    8  -0.614   0.099   0.040
    1UNL     C7    9  -0.631   0.210  -0.057
    1UNL     O3   10  -0.770   0.224  -0.088
    1UNL     C8   11  -0.671  -0.033  -0.018
    1UNL     O4   12  -0.812  -0.036   0.004
    1UNL     C9   13  -0.614  -0.157   0.063
    1UNL     O5   14  -0.675  -0.271   0.001
    1UNL    C10   15  -0.464  -0.161   0.054
    1UNL     O6   16  -0.420  -0.243  -0.058
    1UNL     O7   17  -0.239   0.139  -0.102
    1UNL    C11   18  -0.155   0.057  -0.167
    1UNL    C12   19  -0.035   0.005  -0.130
    1UNL    C13   20   0.043  -0.065  -0.233
    1UNL     O8   21   0.144  -0.133  -0.206
    1UNL     O9   22  -0.011  -0.062  -0.356
    1UNL    C14   23   0.009   0.021   0.020
    1UNL    C15   24   0.158   0.045   0.038
    1UNL    C16   25   0.246  -0.084   0.049
    1UNL     N1   26   0.221  -0.138   0.188
    1UNL    C17   27   0.327  -0.170   0.291
    1UNL    C18   28   0.464  -0.181   0.232
    1UNL    C19   29   0.489  -0.084   0.112
    1UNL    C20   30   0.622  -0.063   0.083
    1UNL    C21   31   0.660  -0.007  -0.043
    1UNL    O10   32   0.794   0.004  -0.064
    1UNL    C22   33   0.835   0.112  -0.148
    1UNL    C23   34   0.560   0.023  -0.140
    1UNL    O11   35   0.603   0.072  -0.263
    1UNL    C24   36   0.528   0.027  -0.372
    1UNL    C25   37   0.427  -0.004  -0.107
    1UNL    C26   38   0.392  -0.052   0.016
    1UNL     H1   39  -0.054   0.252   0.392
    1UNL     H2   40  -0.083   0.345   0.232
    1UNL     H3   41  -0.069   0.045   0.277
    1UNL     H4   42  -0.043   0.233   0.033
    1UNL     H5   43  -0.296   0.184   0.098
    1UNL     H6   44  -0.398   0.002  -0.068
    1UNL     H7   45  -0.677   0.134   0.125
    1UNL     H8   46  -0.594   0.298   0.003
    1UNL     H9   47  -0.573   0.204  -0.159
    1UNL    H10   48  -0.819   0.141  -0.065
    1UNL    H11   49  -0.649  -0.046  -0.132
    1UNL    H12   50  -0.849  -0.125  -0.013
    1UNL    H13   51  -0.646  -0.154   0.165
    1UNL    H14   52  -0.609  -0.303  -0.064
    1UNL    H15   53  -0.411  -0.204   0.142
    1UNL    H16   54  -0.355  -0.199  -0.119
    1UNL    H17   55  -0.185   0.037  -0.271
    1UNL    H18   56   0.050  -0.092  -0.422
    1UNL    H19   57  -0.006  -0.072   0.072
    1UNL    H20   58   0.186   0.112  -0.038
    1UNL    H21   59   0.178   0.102   0.135
    1UNL    H22   60   0.212  -0.164  -0.022
    1UNL    H23   61   0.145  -0.214   0.198
    1UNL    H24   62   0.291  -0.256   0.344
    1UNL    H25   63   0.320  -0.089   0.367
    1UNL    H26   64   0.483  -0.285   0.191
    1UNL    H27   65   0.543  -0.161   0.297
    1UNL    H28   66   0.702  -0.084   0.144
    1UNL    H29   67   0.787   0.207  -0.113
    1UNL    H30   68   0.946   0.111  -0.151
    1UNL    H31   69   0.804   0.090  -0.249
    1UNL    H32   70   0.460  -0.062  -0.347
    1UNL    H33   71   0.612  -0.017  -0.436
    1UNL    H34   72   0.476   0.106  -0.422
    1UNL    H35   73   0.346   0.014  -0.183
   0.00000   0.00000   0.00000   0.00000   0.00000   0.00000   0.00000   0.00000   0.00000
Generated with MDTraj, t= 63.0
 73
    1UNL     C1    1  -0.112   0.207   0.302
    1UNL     C2    2  -0.069   0.107   0.226
    1UNL     C3    3  -0.071   0.135   0.081
    1UNL     C4    4  -0.218   0.129   0.024
    1UNL     O1    5  -0.266   0.003   0.051
    1UNL     C5    6  -0.408  -0.019   0.037
    1UNL     O2    7  -0.488   0.071   0.105
    1UNL     C6    8  -0.620   0.090   0.051
    1UNL     C7    9  -0.629   0.214  -0.043
    1UNL     O3   10  -0.763   0.243  -0.062
    1UNL     C8   11  -0.670  -0.040  -0.018
    1UNL     O4   12  -0.810  -0.048  -0.025
    1UNL     C9   13  -0.619  -0.157   0.071
    1UNL     O5   14  -0.684  -0.276   0.041
    1UNL    C10   15  -0.468  -0.164   0.074
    1UNL     O6   16  -0.416  -0.260  -0.025
    1UNL     O7   17  -0.225   0.161  -0.115
    1UNL    C11   18  -0.140   0.085  -0.189
    1UNL    C12   19  -0.019   0.025  -0.148
    1UNL    C13   20   0.051  -0.056  -0.240
    1UNL     O8   21   0.159  -0.111  -0.212
    1UNL     O9   22   0.001  -0.059  -0.365
    1UNL    C14   23   0.016   0.028   0.007
    1UNL    C15   24   0.164   0.046   0.043
    1UNL    C16   25   0.241  -0.089   0.036
    1UNL     N1   26   0.220  -0.183   0.151
    1UNL    C17   27   0.291  -0.125   0.269
    1UNL    C18   28   0.448  -0.126   0.252
    1UNL    C19   29   0.487  -0.086   0.108
    1UNL    C20   30   0.620  -0.064   0.084
    1UNL    C21   31   0.668  -0.019  -0.040
    1UNL    O10   32   0.804  -0.006  -0.067
    1UNL    C22   33   0.830   0.121  -0.117
    1UNL    C23   34   0.562   0.012  -0.140
    1UNL    O11   35   0.605   0.058  -0.272
    1UNL    C24   36   0.521  -0.004  -0.372
    1UNL    C25   37   0.433  -0.005  -0.109
    1UNL    C26   38   0.387  -0.061   0.012
    1UNL     H1   39  -0.119   0.199   0.415
    1UNL     H2   40  -0.116   0.299   0.249
    1UNL     H3   41  -0.054   0.004   0.263
    1UNL     H4   42  -0.017   0.237   0.064
    1UNL     H5   43  -0.279   0.202   0.088
    1UNL     H6   44  -0.422  -0.007  -0.068
    1UNL     H7   45  -0.686   0.107   0.140
    1UNL     H8   46  -0.584   0.311  -0.007
    1UNL     H9   47  -0.581   0.194  -0.148
    1UNL    H10   48  -0.812   0.160  -0.058
    1UNL    H11   49  -0.631  -0.055  -0.127
    1UNL    H12   50  -0.835  -0.143  -0.034
    1UNL    H13   51  -0.663  -0.131   0.165
    1UNL    H14   52  -0.615  -0.334  -0.003
    1UNL    H15   53  -0.432  -0.192   0.177
    1UNL    H16   54  -0.363  -0.219  -0.102
    1UNL    H17   55  -0.154   0.099  -0.298
    1UNL    H18   56   0.065  -0.120  -0.411
    1UNL    H19   57  -0.007  -0.071   0.043
    1UNL    H20   58   0.205   0.112  -0.028
    1UNL    H21   59   0.177   0.099   0.143
    1UNL    H22   60   0.215  -0.149  -0.051
    1UNL    H23   61   0.116  -0.206   0.170
    1UNL    H24   62   0.251  -0.175   0.356
    1UNL    H25   63   0.251  -0.020   0.274
    1UNL    H26   64   0.487  -0.228   0.272
    1UNL    H27   65   0.482  -0.062   0.331
    1UNL    H28   66   0.695  -0.089   0.160
    1UNL    H29   67   0.805   0.191  -0.035
    1UNL    H30   68   0.934   0.117  -0.148
    1UNL    H31   69   0.762   0.137  -0.205
    1UNL    H32   70   0.557  -0.110  -0.390
    1UNL    H33   71   0.536   0.052  -0.469
    1UNL    H34   72   0.414  -0.003  -0.349
    1UNL    H35   73   0.358   0.023  -0.173
   0.00000   0.00000   0.00000   0.00000   0.00000   0.00000   0.00000   0.00000   0.00000
Generated with MDTraj, t= 64.0
 73
    1UNL     C1    1  -0.128   0.136   0.313
    1UNL     C2    2  -0.045   0.095   0.216
    1UNL     C3    3  -0.061   0.121   0.071
    1UNL     C4    4  -0.213   0.104   0.035
    1UNL     O1    5  -0.260  -0.024   0.054
    1UNL     C5    6  -0.400  -0.015   0.029
    1UNL     O2    7  -0.470   0.093   0.088
    1UNL     C6    8  -0.612   0.098   0.046
    1UNL     C7    9  -0.650   0.226  -0.033
    1UNL     O3   10  -0.784   0.230  -0.077
    1UNL     C8   11  -0.669  -0.035  -0.005
    1UNL     O4   12  -0.814  -0.043  -0.001
    1UNL     C9   13  -0.614  -0.152   0.081
    1UNL     O5   14  -0.674  -0.269   0.028
    1UNL    C10   15  -0.461  -0.153   0.074
    1UNL     O6   16  -0.420  -0.267  -0.006
    1UNL     O7   17  -0.232   0.150  -0.096
    1UNL    C11   18  -0.152   0.082  -0.189
    1UNL    C12   19  -0.031   0.030  -0.164
    1UNL    C13   20   0.041  -0.017  -0.278
    1UNL     O8   21   0.159  -0.051  -0.255
    1UNL     O9   22  -0.017  -0.024  -0.393
    1UNL    C14   23   0.021   0.018  -0.017
    1UNL    C15   24   0.173   0.036   0.014
    1UNL    C16   25   0.244  -0.100   0.046
    1UNL     N1   26   0.217  -0.134   0.189
    1UNL    C17   27   0.298  -0.088   0.298
    1UNL    C18   28   0.446  -0.116   0.265
    1UNL    C19   29   0.483  -0.090   0.122
    1UNL    C20   30   0.615  -0.048   0.096
    1UNL    C21   31   0.658  -0.020  -0.036
    1UNL    O10   32   0.800   0.006  -0.058
    1UNL    C22   33   0.821   0.131  -0.125
    1UNL    C23   34   0.559  -0.017  -0.136
    1UNL    O11   35   0.609   0.034  -0.259
    1UNL    C24   36   0.569  -0.031  -0.378
    1UNL    C25   37   0.425  -0.048  -0.118
    1UNL    C26   38   0.391  -0.088   0.018
    1UNL     H1   39  -0.117   0.112   0.413
    1UNL     H2   40  -0.201   0.210   0.286
    1UNL     H3   41   0.043   0.045   0.248
    1UNL     H4   42  -0.047   0.233   0.044
    1UNL     H5   43  -0.272   0.177   0.098
    1UNL     H6   44  -0.412   0.005  -0.076
    1UNL     H7   45  -0.658   0.100   0.149
    1UNL     H8   46  -0.639   0.322   0.017
    1UNL     H9   47  -0.576   0.232  -0.124
    1UNL    H10   48  -0.812   0.135  -0.071
    1UNL    H11   49  -0.637  -0.054  -0.113
    1UNL    H12   50  -0.837  -0.137  -0.015
    1UNL    H13   51  -0.655  -0.143   0.182
    1UNL    H14   52  -0.620  -0.340   0.066
    1UNL    H15   53  -0.425  -0.159   0.181
    1UNL    H16   54  -0.466  -0.270  -0.094
    1UNL    H17   55  -0.192   0.055  -0.285
    1UNL    H18   56   0.039  -0.082  -0.455
    1UNL    H19   57  -0.020  -0.077   0.012
    1UNL    H20   58   0.217   0.091  -0.066
    1UNL    H21   59   0.189   0.105   0.101
    1UNL    H22   60   0.200  -0.180  -0.018
    1UNL    H23   61   0.112  -0.142   0.212
    1UNL    H24   62   0.263  -0.141   0.387
    1UNL    H25   63   0.278   0.024   0.306
    1UNL    H26   64   0.457  -0.221   0.296
    1UNL    H27   65   0.504  -0.044   0.323
    1UNL    H28   66   0.693  -0.050   0.176
    1UNL    H29   67   0.736   0.192  -0.088
    1UNL    H30   68   0.918   0.166  -0.099
    1UNL    H31   69   0.808   0.113  -0.236
    1UNL    H32   70   0.550  -0.137  -0.364
    1UNL    H33   71   0.648  -0.021  -0.453
    1UNL    H34   72   0.477   0.018  -0.417
    1UNL    H35   73   0.344  -0.040  -0.195
   0.00000   0.00000   0.00000   0.00000   0.00000   0.00000   0.00000   0.00000   0.00000
Generated with MDTraj, t= 65.0
 73
    1UNL     C1    1  -0.132   0.088   0.309
    1UNL     C2    2  -0.030   0.089   0.223
    1UNL     C3    3  -0.062   0.108   0.079
    1UNL     C4    4  -0.208   0.098   0.041
    1UNL     O1    5  -0.261  -0.031   0.075
    1UNL     C5    6  -0.405  -0.022   0.050
    1UNL     O2    7  -0.483   0.088   0.106
    1UNL     C6    8  -0.620   0.107   0.049
    1UNL     C7    9  -0.638   0.197  -0.069
    1UNL     O3   10  -0.778   0.242  -0.070
    1UNL     C8   11  -0.678  -0.034   0.000
    1UNL     O4   12  -0.820  -0.039   0.017
    1UNL     C9   13  -0.621  -0.159   0.083
    1UNL     O5   14  -0.668  -0.283   0.026
    1UNL    C10   15  -0.469  -0.159   0.090
    1UNL     O6   16  -0.427  -0.257  -0.001
    1UNL     O7   17  -0.243   0.135  -0.093
    1UNL    C11   18  -0.153   0.099  -0.191
    1UNL    C12   19  -0.031   0.046  -0.173
    1UNL    C13   20   0.044   0.006  -0.291
    1UNL     O8   21   0.163  -0.029  -0.273
    1UNL     O9   22  -0.002   0.022  -0.413
    1UNL    C14   23   0.017   0.025  -0.027
    1UNL    C15   24   0.175   0.043  -0.009
    1UNL    C16   25   0.246  -0.086   0.030
    1UNL     N1   26   0.207  -0.130   0.168
    1UNL    C17   27   0.284  -0.074   0.280
    1UNL    C18   28   0.431  -0.108   0.266
    1UNL    C19   29   0.483  -0.082   0.126
    1UNL    C20   30   0.612  -0.047   0.104
    1UNL    C21   31   0.661  -0.005  -0.022
    1UNL    O10   32   0.799   0.047  -0.022
    1UNL    C22   33   0.831   0.120  -0.143
    1UNL    C23   34   0.579  -0.020  -0.142
    1UNL    O11   35   0.633  -0.028  -0.265
    1UNL    C24   36   0.547  -0.093  -0.354
    1UNL    C25   37   0.444  -0.043  -0.116
    1UNL    C26   38   0.397  -0.072   0.012
    1UNL     H1   39  -0.112   0.087   0.412
    1UNL     H2   40  -0.242   0.105   0.282
    1UNL     H3   41   0.069   0.102   0.260
    1UNL     H4   42  -0.034   0.217   0.047
    1UNL     H5   43  -0.257   0.166   0.110
    1UNL     H6   44  -0.417  -0.011  -0.058
    1UNL     H7   45  -0.682   0.153   0.130
    1UNL     H8   46  -0.569   0.277  -0.056
    1UNL     H9   47  -0.625   0.156  -0.175
    1UNL    H10   48  -0.831   0.162  -0.043
    1UNL    H11   49  -0.648  -0.026  -0.109
    1UNL    H12   50  -0.854  -0.131   0.019
    1UNL    H13   51  -0.661  -0.161   0.186
    1UNL    H14   52  -0.596  -0.348   0.043
    1UNL    H15   53  -0.440  -0.190   0.194
    1UNL    H16   54  -0.441  -0.222  -0.088
    1UNL    H17   55  -0.191   0.115  -0.289
    1UNL    H18   56   0.071  -0.016  -0.471
    1UNL    H19   57  -0.006  -0.077  -0.010
    1UNL    H20   58   0.225   0.092  -0.095
    1UNL    H21   59   0.189   0.115   0.071
    1UNL    H22   60   0.210  -0.166  -0.041
    1UNL    H23   61   0.101  -0.130   0.186
    1UNL    H24   62   0.241  -0.104   0.377
    1UNL    H25   63   0.262   0.040   0.278
    1UNL    H26   64   0.460  -0.209   0.291
    1UNL    H27   65   0.482  -0.032   0.331
    1UNL    H28   66   0.675  -0.054   0.183
    1UNL    H29   67   0.739   0.173  -0.169
    1UNL    H30   68   0.913   0.180  -0.117
    1UNL    H31   69   0.858   0.052  -0.227
    1UNL    H32   70   0.519  -0.189  -0.322
    1UNL    H33   71   0.588  -0.101  -0.451
    1UNL    H34   72   0.456  -0.027  -0.358
    1UNL    H35   73   0.369  -0.037  -0.193
   0.00000   0.00000   0.00000   0.00000   0.00000   0.00000   0.00000   0.00000   0.00000
Generated with MDTraj, t= 66.0
 73
    1UNL     C1    1  -0.101   0.016   0.280
    1UNL     C2    2  -0.067   0.126   0.213
    1UNL     C3    3  -0.082   0.133   0.069
    1UNL     C4    4  -0.229   0.120   0.026
    1UNL     O1    5  -0.265  -0.020   0.049
    1UNL     C5    6  -0.407  -0.026   0.052
    1UNL     O2    7  -0.479   0.071   0.126
    1UNL     C6    8  -0.616   0.091   0.069
    1UNL     C7    9  -0.623   0.214  -0.022
    1UNL     O3   10  -0.743   0.216  -0.102
    1UNL     C8   11  -0.674  -0.043   0.005
    1UNL     O4   12  -0.817  -0.037   0.001
    1UNL     C9   13  -0.615  -0.161   0.095
    1UNL     O5   14  -0.688  -0.274   0.060
    1UNL    C10   15  -0.465  -0.170   0.080
    1UNL     O6   16  -0.436  -0.280  -0.004
    1UNL     O7   17  -0.253   0.149  -0.113
    1UNL    C11   18  -0.159   0.104  -0.192
    1UNL    C12   19  -0.035   0.047  -0.164
    1UNL    C13   20   0.052   0.020  -0.275
    1UNL     O8   21   0.158  -0.034  -0.246
    1UNL     O9   22   0.024   0.069  -0.399
    1UNL    C14   23   0.005   0.038  -0.017
    1UNL    C15   24   0.168   0.053   0.012
    1UNL    C16   25   0.234  -0.076   0.029
    1UNL     N1   26   0.201  -0.155   0.156
    1UNL    C17   27   0.268  -0.100   0.274
    1UNL    C18   28   0.423  -0.063   0.265
    1UNL    C19   29   0.470  -0.041   0.120
    1UNL    C20   30   0.603  -0.002   0.100
    1UNL    C21   31   0.659   0.004  -0.022
    1UNL    O10   32   0.794   0.033  -0.040
    1UNL    C22   33   0.849   0.068  -0.164
    1UNL    C23   34   0.581  -0.031  -0.138
    1UNL    O11   35   0.652  -0.040  -0.254
    1UNL    C24   36   0.583  -0.114  -0.354
    1UNL    C25   37   0.441  -0.054  -0.121
    1UNL    C26   38   0.388  -0.064   0.007
    1UNL     H1   39  -0.095   0.004   0.385
    1UNL     H2   40  -0.146  -0.065   0.228
    1UNL     H3   41  -0.014   0.215   0.255
    1UNL     H4   42  -0.048   0.240   0.035
    1UNL     H5   43  -0.288   0.175   0.096
    1UNL     H6   44  -0.438   0.001  -0.050
    1UNL     H7   45  -0.690   0.099   0.152
    1UNL     H8   46  -0.621   0.303   0.032
    1UNL     H9   47  -0.535   0.208  -0.091
    1UNL    H10   48  -0.798   0.140  -0.077
    1UNL    H11   49  -0.632  -0.064  -0.096
    1UNL    H12   50  -0.845  -0.131   0.003
    1UNL    H13   51  -0.645  -0.149   0.204
    1UNL    H14   52  -0.626  -0.349   0.043
    1UNL    H15   53  -0.417  -0.203   0.174
    1UNL    H16   54  -0.424  -0.247  -0.094
    1UNL    H17   55  -0.178   0.131  -0.298
    1UNL    H18   56   0.100   0.049  -0.456
    1UNL    H19   57  -0.027  -0.058   0.016
    1UNL    H20   58   0.211   0.110  -0.073
    1UNL    H21   59   0.188   0.114   0.095
    1UNL    H22   60   0.191  -0.144  -0.052
    1UNL    H23   61   0.096  -0.160   0.176
    1UNL    H24   62   0.244  -0.167   0.360
    1UNL    H25   63   0.213  -0.005   0.311
    1UNL    H26   64   0.483  -0.145   0.297
    1UNL    H27   65   0.453   0.035   0.316
    1UNL    H28   66   0.674   0.018   0.186
    1UNL    H29   67   0.780   0.139  -0.208
    1UNL    H30   68   0.945   0.100  -0.139
    1UNL    H31   69   0.851  -0.020  -0.233
    1UNL    H32   70   0.537  -0.199  -0.317
    1UNL    H33   71   0.643  -0.141  -0.435
    1UNL    H34   72   0.502  -0.044  -0.386
    1UNL    H35   73   0.383  -0.051  -0.208
   0.00000   0.00000   0.00000   0.00000   0.00000   0.00000   0.00000   0.00000   0.00000
Generated with MDTraj, t= 67.0
 73
    1UNL     C1    1  -0.061  -0.018   0.288
    1UNL     C2    2  -0.068   0.100   0.228
    1UNL     C3    3  -0.082   0.129   0.080
    1UNL     C4    4  -0.227   0.111   0.028
    1UNL     O1    5  -0.270  -0.019   0.067
    1UNL     C5    6  -0.408  -0.029   0.048
    1UNL     O2    7  -0.485   0.057   0.123
    1UNL     C6    8  -0.615   0.088   0.067
    1UNL     C7    9  -0.612   0.196  -0.045
    1UNL     O3   10  -0.736   0.211  -0.109
    1UNL     C8   11  -0.676  -0.041   0.013
    1UNL     O4   12  -0.814  -0.039   0.029
    1UNL     C9   13  -0.620  -0.158   0.098
    1UNL     O5   14  -0.682  -0.276   0.063
    1UNL    C10   15  -0.463  -0.174   0.078
    1UNL     O6   16  -0.432  -0.271  -0.033
    1UNL     O7   17  -0.242   0.145  -0.114
    1UNL    C11   18  -0.145   0.107  -0.200
    1UNL    C12   19  -0.025   0.065  -0.157
    1UNL    C13   20   0.073   0.035  -0.263
    1UNL     O8   21   0.169  -0.043  -0.247
    1UNL     O9   22   0.044   0.081  -0.385
    1UNL    C14   23   0.007   0.047  -0.011
    1UNL    C15   24   0.163   0.071   0.018
    1UNL    C16   25   0.235  -0.062   0.014
    1UNL     N1   26   0.205  -0.143   0.143
    1UNL    C17   27   0.256  -0.084   0.263
    1UNL    C18   28   0.397  -0.013   0.254
    1UNL    C19   29   0.452  -0.016   0.111
    1UNL    C20   30   0.592   0.004   0.096
    1UNL    C21   31   0.648  -0.001  -0.028
    1UNL    O10   32   0.790   0.007  -0.027
    1UNL    C22   33   0.857   0.013  -0.150
    1UNL    C23   34   0.566  -0.023  -0.140
    1UNL    O11   35   0.624  -0.032  -0.267
    1UNL    C24   36   0.575  -0.131  -0.350
    1UNL    C25   37   0.428  -0.039  -0.126
    1UNL    C26   38   0.377  -0.042   0.000
    1UNL     H1   39  -0.049  -0.033   0.400
    1UNL     H2   40  -0.055  -0.099   0.223
    1UNL     H3   41  -0.073   0.185   0.288
    1UNL     H4   42  -0.059   0.242   0.063
    1UNL     H5   43  -0.287   0.181   0.082
    1UNL     H6   44  -0.429  -0.009  -0.060
    1UNL     H7   45  -0.684   0.119   0.145
    1UNL     H8   46  -0.597   0.290  -0.004
    1UNL     H9   47  -0.534   0.167  -0.116
    1UNL    H10   48  -0.797   0.132  -0.093
    1UNL    H11   49  -0.643  -0.052  -0.090
    1UNL    H12   50  -0.845  -0.133   0.037
    1UNL    H13   51  -0.656  -0.125   0.202
    1UNL    H14   52  -0.617  -0.351   0.076
    1UNL    H15   53  -0.402  -0.203   0.163
    1UNL    H16   54  -0.455  -0.228  -0.119
    1UNL    H17   55  -0.174   0.099  -0.305
    1UNL    H18   56   0.112   0.075  -0.451
    1UNL    H19   57  -0.028  -0.050   0.017
    1UNL    H20   58   0.202   0.151  -0.050
    1UNL    H21   59   0.181   0.109   0.112
    1UNL    H22   60   0.197  -0.123  -0.073
    1UNL    H23   61   0.104  -0.169   0.156
    1UNL    H24   62   0.269  -0.161   0.343
    1UNL    H25   63   0.178  -0.011   0.305
    1UNL    H26   64   0.464  -0.065   0.320
    1UNL    H27   65   0.374   0.096   0.285
    1UNL    H28   66   0.645   0.015   0.186
    1UNL    H29   67   0.798   0.078  -0.215
    1UNL    H30   68   0.957   0.037  -0.131
    1UNL    H31   69   0.848  -0.088  -0.199
    1UNL    H32   70   0.584  -0.224  -0.304
    1UNL    H33   71   0.632  -0.132  -0.438
    1UNL    H34   72   0.469  -0.109  -0.379
    1UNL    H35   73   0.362  -0.045  -0.220
   0.00000   0.00000   0.00000   0.00000   0.00000   0.00000   0.00000   0.00000   0.00000
Generated with MDTraj, t= 68.0
 73
    1UNL     C1    1  -0.100  -0.000   0.309
    1UNL     C2    2  -0.048   0.088   0.226
    1UNL     C3    3  -0.080   0.125   0.079
    1UNL     C4    4  -0.229   0.116   0.043
    1UNL     O1    5  -0.266  -0.021   0.066
    1UNL     C5    6  -0.404  -0.030   0.034
    1UNL     O2    7  -0.490   0.070   0.097
    1UNL     C6    8  -0.617   0.088   0.041
    1UNL     C7    9  -0.627   0.175  -0.087
    1UNL     O3   10  -0.764   0.210  -0.101
    1UNL     C8   11  -0.684  -0.051   0.022
    1UNL     O4   12  -0.822  -0.041   0.051
    1UNL     C9   13  -0.613  -0.166   0.090
    1UNL     O5   14  -0.671  -0.280   0.050
    1UNL    C10   15  -0.464  -0.174   0.059
    1UNL     O6   16  -0.448  -0.275  -0.043
    1UNL     O7   17  -0.260   0.155  -0.094
    1UNL    C11   18  -0.161   0.117  -0.186
    1UNL    C12   19  -0.039   0.078  -0.158
    1UNL    C13   20   0.048   0.050  -0.265
    1UNL     O8   21   0.149  -0.024  -0.244
    1UNL     O9   22   0.008   0.095  -0.385
    1UNL    C14   23  -0.002   0.041  -0.024
    1UNL    C15   24   0.155   0.061   0.004
    1UNL    C16   25   0.246  -0.063   0.028
    1UNL     N1   26   0.220  -0.129   0.163
    1UNL    C17   27   0.305  -0.092   0.275
    1UNL    C18   28   0.420   0.015   0.250
    1UNL    C19   29   0.480  -0.015   0.119
    1UNL    C20   30   0.618  -0.010   0.098
    1UNL    C21   31   0.669  -0.016  -0.025
    1UNL    O10   32   0.809   0.004  -0.030
    1UNL    C22   33   0.866  -0.035  -0.151
    1UNL    C23   34   0.579  -0.027  -0.133
    1UNL    O11   35   0.626  -0.025  -0.268
    1UNL    C24   36   0.571  -0.123  -0.352
    1UNL    C25   37   0.442  -0.042  -0.110
    1UNL    C26   38   0.392  -0.038   0.014
    1UNL     H1   39  -0.065  -0.009   0.410
    1UNL     H2   40  -0.169  -0.070   0.269
    1UNL     H3   41   0.041   0.142   0.271
    1UNL     H4   42  -0.036   0.230   0.051
    1UNL     H5   43  -0.282   0.184   0.111
    1UNL     H6   44  -0.418  -0.014  -0.077
    1UNL     H7   45  -0.668   0.142   0.119
    1UNL     H8   46  -0.560   0.252  -0.071
    1UNL     H9   47  -0.609   0.118  -0.176
    1UNL    H10   48  -0.815   0.143  -0.052
    1UNL    H11   49  -0.668  -0.077  -0.082
    1UNL    H12   50  -0.866  -0.128   0.057
    1UNL    H13   51  -0.630  -0.162   0.202
    1UNL    H14   52  -0.607  -0.355   0.062
    1UNL    H15   53  -0.423  -0.220   0.148
    1UNL    H16   54  -0.504  -0.243  -0.122
    1UNL    H17   55  -0.182   0.157  -0.284
    1UNL    H18   56   0.077   0.059  -0.446
    1UNL    H19   57  -0.026  -0.062  -0.013
    1UNL    H20   58   0.197   0.104  -0.090
    1UNL    H21   59   0.181   0.137   0.073
    1UNL    H22   60   0.218  -0.136  -0.051
    1UNL    H23   61   0.122  -0.102   0.186
    1UNL    H24   62   0.354  -0.187   0.308
    1UNL    H25   63   0.241  -0.058   0.364
    1UNL    H26   64   0.489   0.009   0.331
    1UNL    H27   65   0.365   0.117   0.245
    1UNL    H28   66   0.675  -0.000   0.189
    1UNL    H29   67   0.827   0.031  -0.231
    1UNL    H30   68   0.971  -0.047  -0.140
    1UNL    H31   69   0.819  -0.134  -0.178
    1UNL    H32   70   0.520  -0.196  -0.293
    1UNL    H33   71   0.656  -0.170  -0.397
    1UNL    H34   72   0.507  -0.080  -0.436
    1UNL    H35   73   0.377  -0.056  -0.189
   0.00000   0.00000   0.00000   0.00000   0.00000   0.00000   0.00000   0.00000   0.00000
Generated with MDTraj, t= 69.0
 73
    1UNL     C1    1  -0.136   0.002   0.308
    1UNL     C2    2  -0.057   0.085   0.243
    1UNL     C3    3  -0.071   0.121   0.098
    1UNL     C4    4  -0.221   0.115   0.050
    1UNL     O1    5  -0.263  -0.019   0.046
    1UNL     C5    6  -0.401  -0.028   0.010
    1UNL     O2    7  -0.481   0.075   0.087
    1UNL     C6    8  -0.621   0.090   0.044
    1UNL     C7    9  -0.655   0.186  -0.065
    1UNL     O3   10  -0.791   0.179  -0.115
    1UNL     C8   11  -0.682  -0.047   0.002
    1UNL     O4   12  -0.826  -0.062   0.025
    1UNL     C9   13  -0.617  -0.159   0.088
    1UNL     O5   14  -0.678  -0.286   0.074
    1UNL    C10   15  -0.465  -0.173   0.045
    1UNL     O6   16  -0.454  -0.280  -0.053
    1UNL     O7   17  -0.247   0.181  -0.079
    1UNL    C11   18  -0.157   0.147  -0.167
    1UNL    C12   19  -0.040   0.074  -0.146
    1UNL    C13   20   0.031   0.045  -0.269
    1UNL     O8   21   0.141  -0.007  -0.271
    1UNL     O9   22  -0.041   0.072  -0.383
    1UNL    C14   23   0.015   0.049  -0.008
    1UNL    C15   24   0.171   0.072  -0.010
    1UNL    C16   25   0.259  -0.047   0.043
    1UNL     N1   26   0.232  -0.065   0.188
    1UNL    C17   27   0.334  -0.121   0.265
    1UNL    C18   28   0.450  -0.019   0.275
    1UNL    C19   29   0.488   0.003   0.130
    1UNL    C20   30   0.620   0.011   0.103
    1UNL    C21   31   0.675  -0.009  -0.025
    1UNL    O10   32   0.810   0.012  -0.048
    1UNL    C22   33   0.869  -0.071  -0.144
    1UNL    C23   34   0.587  -0.046  -0.134
    1UNL    O11   35   0.641  -0.082  -0.259
    1UNL    C24   36   0.554  -0.093  -0.378
    1UNL    C25   37   0.451  -0.049  -0.104
    1UNL    C26   38   0.403  -0.026   0.022
    1UNL     H1   39  -0.121  -0.003   0.411
    1UNL     H2   40  -0.219  -0.057   0.257
    1UNL     H3   41   0.019   0.135   0.291
    1UNL     H4   42  -0.046   0.231   0.076
    1UNL     H5   43  -0.291   0.172   0.118
    1UNL     H6   44  -0.404   0.005  -0.098
    1UNL     H7   45  -0.681   0.117   0.127
    1UNL     H8   46  -0.647   0.285  -0.035
    1UNL     H9   47  -0.582   0.164  -0.142
    1UNL    H10   48  -0.832   0.096  -0.079
    1UNL    H11   49  -0.666  -0.065  -0.101
    1UNL    H12   50  -0.846  -0.157   0.032
    1UNL    H13   51  -0.622  -0.130   0.197
    1UNL    H14   52  -0.616  -0.350   0.033
    1UNL    H15   53  -0.414  -0.200   0.137
    1UNL    H16   54  -0.470  -0.246  -0.147
    1UNL    H17   55  -0.169   0.175  -0.270
    1UNL    H18   56   0.022   0.048  -0.459
    1UNL    H19   57   0.005  -0.054   0.014
    1UNL    H20   58   0.206   0.096  -0.112
    1UNL    H21   59   0.194   0.164   0.046
    1UNL    H22   60   0.228  -0.140  -0.005
    1UNL    H23   61   0.174   0.007   0.230
    1UNL    H24   62   0.365  -0.222   0.224
    1UNL    H25   63   0.293  -0.140   0.369
    1UNL    H26   64   0.534  -0.067   0.321
    1UNL    H27   65   0.423   0.079   0.330
    1UNL    H28   66   0.698   0.041   0.171
    1UNL    H29   67   0.831  -0.050  -0.247
    1UNL    H30   68   0.977  -0.067  -0.131
    1UNL    H31   69   0.840  -0.177  -0.124
    1UNL    H32   70   0.539  -0.202  -0.390
    1UNL    H33   71   0.610  -0.050  -0.465
    1UNL    H34   72   0.458  -0.038  -0.369
    1UNL    H35   73   0.380  -0.082  -0.181
   0.00000   0.00000   0.00000   0.00000   0.00000   0.00000   0.00000   0.00000   0.00000
Generated with MDTraj, t= 70.0
 73
    1UNL     C1    1  -0.112  -0.028   0.276
    1UNL     C2    2  -0.060   0.088   0.241
    1UNL     C3    3  -0.071   0.138   0.101
    1UNL     C4    4  -0.226   0.129   0.051
    1UNL     O1    5  -0.269  -0.002   0.058
    1UNL     C5    6  -0.403  -0.014   0.029
    1UNL     O2    7  -0.497   0.078   0.095
    1UNL     C6    8  -0.633   0.078   0.038
    1UNL     C7    9  -0.649   0.176  -0.076
    1UNL     O3   10  -0.781   0.195  -0.104
    1UNL     C8   11  -0.678  -0.067  -0.009
    1UNL     O4   12  -0.822  -0.083   0.002
    1UNL     C9   13  -0.599  -0.165   0.080
    1UNL     O5   14  -0.652  -0.291   0.078
    1UNL    C10   15  -0.451  -0.158   0.042
    1UNL     O6   16  -0.427  -0.245  -0.067
    1UNL     O7   17  -0.245   0.183  -0.082
    1UNL    C11   18  -0.154   0.156  -0.177
    1UNL    C12   19  -0.039   0.083  -0.149
    1UNL    C13   20   0.031   0.027  -0.263
    1UNL     O8   21   0.142  -0.021  -0.252
    1UNL     O9   22  -0.032   0.034  -0.386
    1UNL    C14   23   0.015   0.052  -0.004
    1UNL    C15   24   0.173   0.073   0.002
    1UNL    C16   25   0.256  -0.037   0.067
    1UNL     N1   26   0.226  -0.060   0.205
    1UNL    C17   27   0.336  -0.112   0.291
    1UNL    C18   28   0.451  -0.016   0.281
    1UNL    C19   29   0.494  -0.005   0.135
    1UNL    C20   30   0.622  -0.006   0.096
    1UNL    C21   31   0.664  -0.025  -0.040
    1UNL    O10   32   0.802  -0.006  -0.061
    1UNL    C22   33   0.857  -0.095  -0.153
    1UNL    C23   34   0.567  -0.048  -0.143
    1UNL    O11   35   0.616  -0.075  -0.269
    1UNL    C24   36   0.530  -0.038  -0.374
    1UNL    C25   37   0.439  -0.045  -0.102
    1UNL    C26   38   0.399  -0.014   0.034
    1UNL     H1   39  -0.084  -0.077   0.367
    1UNL     H2   40  -0.180  -0.074   0.208
    1UNL     H3   41  -0.015   0.154   0.320
    1UNL     H4   42  -0.032   0.247   0.099
    1UNL     H5   43  -0.301   0.186   0.117
    1UNL     H6   44  -0.407   0.015  -0.079
    1UNL     H7   45  -0.702   0.107   0.114
    1UNL     H8   46  -0.608   0.271  -0.062
    1UNL     H9   47  -0.606   0.136  -0.171
    1UNL    H10   48  -0.825   0.109  -0.098
    1UNL    H11   49  -0.656  -0.085  -0.111
    1UNL    H12   50  -0.842  -0.177   0.021
    1UNL    H13   51  -0.605  -0.122   0.182
    1UNL    H14   52  -0.593  -0.357   0.034
    1UNL    H15   53  -0.396  -0.204   0.123
    1UNL    H16   54  -0.446  -0.224  -0.160
    1UNL    H17   55  -0.200   0.170  -0.276
    1UNL    H18   56   0.018  -0.008  -0.462
    1UNL    H19   57  -0.005  -0.051   0.013
    1UNL    H20   58   0.201   0.073  -0.103
    1UNL    H21   59   0.201   0.176   0.042
    1UNL    H22   60   0.224  -0.131   0.024
    1UNL    H23   61   0.184   0.019   0.245
    1UNL    H24   62   0.371  -0.214   0.255
    1UNL    H25   63   0.315  -0.135   0.400
    1UNL    H26   64   0.540  -0.036   0.340
    1UNL    H27   65   0.413   0.086   0.318
    1UNL    H28   66   0.701   0.023   0.162
    1UNL    H29   67   0.858  -0.053  -0.256
    1UNL    H30   68   0.958  -0.114  -0.112
    1UNL    H31   69   0.809  -0.195  -0.162
    1UNL    H32   70   0.422  -0.057  -0.342
    1UNL    H33   71   0.555  -0.097  -0.468
    1UNL    H34   72   0.551   0.067  -0.397
    1UNL    H35   73   0.352  -0.070  -0.167
   0.00000   0.00000   0.00000   0.00000   0.00000   0.00000   0.00000   0.00000   0.00000
Generated with MDTraj, t= 71.0
 73
    1UNL     C1    1  -0.051  -0.022   0.299
    1UNL     C2    2  -0.063   0.098   0.246
    1UNL     C3    3  -0.075   0.138   0.100
    1UNL     C4    4  -0.226   0.125   0.051
    1UNL     O1    5  -0.263  -0.004   0.063
    1UNL     C5    6  -0.389  -0.008   0.019
    1UNL     O2    7  -0.483   0.080   0.086
    1UNL     C6    8  -0.622   0.086   0.039
    1UNL     C7    9  -0.647   0.177  -0.080
    1UNL     O3   10  -0.785   0.172  -0.113
    1UNL     C8   11  -0.671  -0.053  -0.007
    1UNL     O4   12  -0.811  -0.074   0.017
    1UNL     C9   13  -0.593  -0.167   0.064
    1UNL     O5   14  -0.640  -0.290   0.015
    1UNL    C10   15  -0.436  -0.153   0.047
    1UNL     O6   16  -0.398  -0.236  -0.067
    1UNL     O7   17  -0.246   0.174  -0.079
    1UNL    C11   18  -0.155   0.121  -0.173
    1UNL    C12   19  -0.036   0.070  -0.146
    1UNL    C13   20   0.042  -0.000  -0.248
    1UNL     O8   21   0.150  -0.055  -0.218
    1UNL     O9   22   0.007   0.012  -0.381
    1UNL    C14   23   0.016   0.061  -0.003
    1UNL    C15   24   0.166   0.082   0.004
    1UNL    C16   25   0.239  -0.032   0.081
    1UNL     N1   26   0.215  -0.036   0.217
    1UNL    C17   27   0.322  -0.073   0.314
    1UNL    C18   28   0.447   0.002   0.282
    1UNL    C19   29   0.482  -0.009   0.138
    1UNL    C20   30   0.608  -0.031   0.087
    1UNL    C21   31   0.648  -0.050  -0.046
    1UNL    O10   32   0.789  -0.052  -0.074
    1UNL    C22   33   0.823  -0.116  -0.198
    1UNL    C23   34   0.549  -0.047  -0.141
    1UNL    O11   35   0.586  -0.034  -0.277
    1UNL    C24   36   0.498   0.029  -0.363
    1UNL    C25   37   0.421  -0.044  -0.100
    1UNL    C26   38   0.384  -0.021   0.043
    1UNL     H1   39  -0.054  -0.040   0.411
    1UNL     H2   40  -0.065  -0.107   0.243
    1UNL     H3   41  -0.066   0.172   0.320
    1UNL     H4   42  -0.044   0.249   0.102
    1UNL     H5   43  -0.305   0.177   0.117
    1UNL     H6   44  -0.391   0.007  -0.091
    1UNL     H7   45  -0.676   0.125   0.124
    1UNL     H8   46  -0.626   0.275  -0.044
    1UNL     H9   47  -0.585   0.164  -0.175
    1UNL    H10   48  -0.824   0.096  -0.061
    1UNL    H11   49  -0.651  -0.066  -0.110
    1UNL    H12   50  -0.826  -0.171   0.023
    1UNL    H13   51  -0.613  -0.166   0.169
    1UNL    H14   52  -0.580  -0.331  -0.050
    1UNL    H15   53  -0.388  -0.192   0.139
    1UNL    H16   54  -0.401  -0.172  -0.139
    1UNL    H17   55  -0.192   0.139  -0.276
    1UNL    H18   56   0.067  -0.043  -0.434
    1UNL    H19   57  -0.001  -0.043   0.015
    1UNL    H20   58   0.206   0.079  -0.097
    1UNL    H21   59   0.182   0.185   0.055
    1UNL    H22   60   0.203  -0.124   0.039
    1UNL    H23   61   0.176   0.050   0.246
    1UNL    H24   62   0.352  -0.181   0.294
    1UNL    H25   63   0.297  -0.080   0.423
    1UNL    H26   64   0.531  -0.044   0.339
    1UNL    H27   65   0.448   0.107   0.321
    1UNL    H28   66   0.689  -0.011   0.161
    1UNL    H29   67   0.799  -0.050  -0.283
    1UNL    H30   68   0.930  -0.140  -0.186
    1UNL    H31   69   0.778  -0.213  -0.221
    1UNL    H32   70   0.400  -0.031  -0.370
    1UNL    H33   71   0.547   0.034  -0.467
    1UNL    H34   72   0.482   0.131  -0.331
    1UNL    H35   73   0.341  -0.074  -0.160
   0.00000   0.00000   0.00000   0.00000   0.00000   0.00000   0.00000   0.00000   0.00000
Generated with MDTraj, t= 72.0
 73
    1UNL     C1    1  -0.104   0.040   0.302
    1UNL     C2    2  -0.054   0.142   0.235
    1UNL     C3    3  -0.072   0.157   0.088
    1UNL     C4    4  -0.225   0.137   0.045
    1UNL     O1    5  -0.260   0.001   0.046
    1UNL     C5    6  -0.396  -0.016   0.022
    1UNL     O2    7  -0.486   0.058   0.097
    1UNL     C6    8  -0.621   0.065   0.042
    1UNL     C7    9  -0.628   0.191  -0.048
    1UNL     O3   10  -0.753   0.197  -0.120
    1UNL     C8   11  -0.673  -0.071  -0.022
    1UNL     O4   12  -0.818  -0.087  -0.017
    1UNL     C9   13  -0.596  -0.186   0.048
    1UNL     O5   14  -0.641  -0.306   0.003
    1UNL    C10   15  -0.442  -0.167   0.037
    1UNL     O6   16  -0.405  -0.240  -0.080
    1UNL     O7   17  -0.238   0.185  -0.093
    1UNL    C11   18  -0.151   0.114  -0.173
    1UNL    C12   19  -0.030   0.062  -0.136
    1UNL    C13   20   0.047  -0.015  -0.234
    1UNL     O8   21   0.140  -0.095  -0.220
    1UNL     O9   22  -0.000   0.004  -0.363
    1UNL    C14   23   0.017   0.065   0.008
    1UNL    C15   24   0.169   0.085   0.024
    1UNL    C16   25   0.253  -0.016   0.108
    1UNL     N1   26   0.241  -0.000   0.249
    1UNL    C17   27   0.341  -0.068   0.332
    1UNL    C18   28   0.485  -0.030   0.295
    1UNL    C19   29   0.501  -0.017   0.144
    1UNL    C20   30   0.625  -0.041   0.084
    1UNL    C21   31   0.644  -0.051  -0.055
    1UNL    O10   32   0.773  -0.073  -0.109
    1UNL    C22   33   0.799  -0.125  -0.242
    1UNL    C23   34   0.531  -0.040  -0.140
    1UNL    O11   35   0.555  -0.025  -0.277
    1UNL    C24   36   0.475   0.071  -0.345
    1UNL    C25   37   0.410  -0.048  -0.076
    1UNL    C26   38   0.396  -0.020   0.058
    1UNL     H1   39  -0.109   0.048   0.408
    1UNL     H2   40  -0.151  -0.046   0.258
    1UNL     H3   41   0.004   0.218   0.292
    1UNL     H4   42  -0.049   0.266   0.058
    1UNL     H5   43  -0.311   0.183   0.103
    1UNL     H6   44  -0.408   0.011  -0.083
    1UNL     H7   45  -0.685   0.080   0.130
    1UNL     H8   46  -0.604   0.288  -0.003
    1UNL     H9   47  -0.536   0.167  -0.117
    1UNL    H10   48  -0.798   0.113  -0.102
    1UNL    H11   49  -0.652  -0.068  -0.124
    1UNL    H12   50  -0.848  -0.180  -0.024
    1UNL    H13   51  -0.626  -0.181   0.150
    1UNL    H14   52  -0.604  -0.328  -0.086
    1UNL    H15   53  -0.394  -0.214   0.126
    1UNL    H16   54  -0.319  -0.287  -0.059
    1UNL    H17   55  -0.166   0.078  -0.275
    1UNL    H18   56   0.045  -0.057  -0.420
    1UNL    H19   57  -0.003  -0.037   0.034
    1UNL    H20   58   0.212   0.095  -0.076
    1UNL    H21   59   0.175   0.184   0.084
    1UNL    H22   60   0.214  -0.114   0.089
    1UNL    H23   61   0.227   0.095   0.277
    1UNL    H24   62   0.328  -0.182   0.328
    1UNL    H25   63   0.322  -0.051   0.438
    1UNL    H26   64   0.563  -0.099   0.338
    1UNL    H27   65   0.511   0.061   0.349
    1UNL    H28   66   0.713  -0.040   0.137
    1UNL    H29   67   0.772  -0.049  -0.315
    1UNL    H30   68   0.905  -0.156  -0.240
    1UNL    H31   69   0.746  -0.213  -0.270
    1UNL    H32   70   0.449   0.029  -0.447
    1UNL    H33   71   0.537   0.163  -0.365
    1UNL    H34   72   0.385   0.098  -0.296
    1UNL    H35   73   0.322  -0.060  -0.141
   0.00000   0.00000   0.00000   0.00000   0.00000   0.00000   0.00000   0.00000   0.00000
Generated with MDTraj, t= 73.0
 73
    1UNL     C1    1  -0.172   0.098   0.319
    1UNL     C2    2  -0.076   0.157   0.248
    1UNL     C3    3  -0.078   0.160   0.092
    1UNL     C4    4  -0.225   0.129   0.052
    1UNL     O1    5  -0.255  -0.006   0.074
    1UNL     C5    6  -0.388  -0.024   0.034
    1UNL     O2    7  -0.478   0.058   0.104
    1UNL     C6    8  -0.607   0.067   0.037
    1UNL     C7    9  -0.618   0.189  -0.051
    1UNL     O3   10  -0.752   0.201  -0.096
    1UNL     C8   11  -0.643  -0.063  -0.047
    1UNL     O4   12  -0.783  -0.077  -0.067
    1UNL     C9   13  -0.596  -0.186   0.036
    1UNL     O5   14  -0.638  -0.307  -0.016
    1UNL    C10   15  -0.438  -0.176   0.033
    1UNL     O6   16  -0.388  -0.243  -0.086
    1UNL     O7   17  -0.246   0.158  -0.083
    1UNL    C11   18  -0.157   0.096  -0.163
    1UNL    C12   19  -0.036   0.044  -0.121
    1UNL    C13   20   0.051  -0.015  -0.216
    1UNL     O8   21   0.153  -0.079  -0.187
    1UNL     O9   22   0.002  -0.026  -0.351
    1UNL    C14   23   0.009   0.058   0.022
    1UNL    C15   24   0.167   0.090   0.034
    1UNL    C16   25   0.249  -0.009   0.119
    1UNL     N1   26   0.269   0.046   0.260
    1UNL    C17   27   0.349  -0.046   0.338
    1UNL    C18   28   0.493  -0.062   0.280
    1UNL    C19   29   0.499  -0.040   0.135
    1UNL    C20   30   0.619  -0.064   0.062
    1UNL    C21   31   0.633  -0.069  -0.077
    1UNL    O10   32   0.759  -0.053  -0.129
    1UNL    C22   33   0.796  -0.115  -0.249
    1UNL    C23   34   0.516  -0.050  -0.154
    1UNL    O11   35   0.533  -0.039  -0.294
    1UNL    C24   36   0.480   0.084  -0.345
    1UNL    C25   37   0.399  -0.035  -0.075
    1UNL    C26   38   0.385  -0.032   0.056
    1UNL     H1   39  -0.156   0.062   0.416
    1UNL     H2   40  -0.260   0.043   0.270
    1UNL     H3   41   0.010   0.191   0.302
    1UNL     H4   42  -0.043   0.264   0.056
    1UNL     H5   43  -0.298   0.177   0.118
    1UNL     H6   44  -0.393   0.016  -0.068
    1UNL     H7   45  -0.688   0.071   0.113
    1UNL     H8   46  -0.586   0.270   0.018
    1UNL     H9   47  -0.544   0.193  -0.143
    1UNL    H10   48  -0.792   0.112  -0.117
    1UNL    H11   49  -0.591  -0.063  -0.137
    1UNL    H12   50  -0.805  -0.173  -0.075
    1UNL    H13   51  -0.637  -0.181   0.133
    1UNL    H14   52  -0.580  -0.330  -0.091
    1UNL    H15   53  -0.394  -0.232   0.119
    1UNL    H16   54  -0.394  -0.186  -0.169
    1UNL    H17   55  -0.183   0.079  -0.264
    1UNL    H18   56   0.064  -0.080  -0.399
    1UNL    H19   57  -0.016  -0.036   0.067
    1UNL    H20   58   0.212   0.105  -0.066
    1UNL    H21   59   0.168   0.191   0.088
    1UNL    H22   60   0.204  -0.108   0.116
    1UNL    H23   61   0.318   0.135   0.250
    1UNL    H24   62   0.294  -0.146   0.337
    1UNL    H25   63   0.347  -0.022   0.443
    1UNL    H26   64   0.537  -0.165   0.304
    1UNL    H27   65   0.566  -0.002   0.330
    1UNL    H28   66   0.715  -0.085   0.116
    1UNL    H29   67   0.792  -0.044  -0.331
    1UNL    H30   68   0.891  -0.172  -0.231
    1UNL    H31   69   0.722  -0.185  -0.274
    1UNL    H32   70   0.534   0.108  -0.437
    1UNL    H33   71   0.497   0.169  -0.278
    1UNL    H34   72   0.378   0.073  -0.369
    1UNL    H35   73   0.314  -0.025  -0.130
   0.00000   0.00000   0.00000   0.00000   0.00000   0.00000   0.00000   0.00000   0.00000
Generated with MDTraj, t= 74.0
 73
    1UNL     C1    1  -0.144   0.163   0.363
    1UNL     C2    2  -0.065   0.108   0.268
    1UNL     C3    3  -0.076   0.144   0.115
    1UNL     C4    4  -0.226   0.121   0.068
    1UNL     O1    5  -0.267  -0.013   0.085
    1UNL     C5    6  -0.400  -0.027   0.038
    1UNL     O2    7  -0.493   0.056   0.102
    1UNL     C6    8  -0.620   0.066   0.032
    1UNL     C7    9  -0.628   0.195  -0.048
    1UNL     O3   10  -0.751   0.206  -0.104
    1UNL     C8   11  -0.646  -0.061  -0.060
    1UNL     O4   12  -0.785  -0.079  -0.082
    1UNL     C9   13  -0.597  -0.191   0.008
    1UNL     O5   14  -0.622  -0.304  -0.068
    1UNL    C10   15  -0.448  -0.176   0.029
    1UNL     O6   16  -0.365  -0.243  -0.062
    1UNL     O7   17  -0.236   0.167  -0.067
    1UNL    C11   18  -0.149   0.113  -0.147
    1UNL    C12   19  -0.040   0.051  -0.113
    1UNL    C13   20   0.029  -0.037  -0.208
    1UNL     O8   21   0.120  -0.105  -0.161
    1UNL     O9   22  -0.007  -0.054  -0.340
    1UNL    C14   23   0.007   0.053   0.027
    1UNL    C15   24   0.163   0.094   0.022
    1UNL    C16   25   0.257   0.005   0.104
    1UNL     N1   26   0.277   0.048   0.247
    1UNL    C17   27   0.338  -0.050   0.326
    1UNL    C18   28   0.483  -0.053   0.273
    1UNL    C19   29   0.500  -0.036   0.124
    1UNL    C20   30   0.626  -0.064   0.059
    1UNL    C21   31   0.639  -0.059  -0.076
    1UNL    O10   32   0.770  -0.090  -0.121
    1UNL    C22   33   0.788  -0.118  -0.256
    1UNL    C23   34   0.535  -0.030  -0.155
    1UNL    O11   35   0.557  -0.017  -0.292
    1UNL    C24   36   0.462   0.065  -0.358
    1UNL    C25   37   0.409  -0.007  -0.093
    1UNL    C26   38   0.394  -0.006   0.040
    1UNL     H1   39  -0.131   0.146   0.468
    1UNL     H2   40  -0.234   0.213   0.338
    1UNL     H3   41   0.018   0.043   0.288
    1UNL     H4   42  -0.042   0.253   0.105
    1UNL     H5   43  -0.294   0.181   0.123
    1UNL     H6   44  -0.403   0.018  -0.060
    1UNL     H7   45  -0.710   0.063   0.101
    1UNL     H8   46  -0.616   0.288   0.012
    1UNL     H9   47  -0.546   0.204  -0.132
    1UNL    H10   48  -0.802   0.124  -0.099
    1UNL    H11   49  -0.589  -0.044  -0.145
    1UNL    H12   50  -0.800  -0.175  -0.100
    1UNL    H13   51  -0.650  -0.209   0.099
    1UNL    H14   52  -0.547  -0.368  -0.054
    1UNL    H15   53  -0.424  -0.223   0.127
    1UNL    H16   54  -0.293  -0.186  -0.100
    1UNL    H17   55  -0.166   0.147  -0.248
    1UNL    H18   56   0.039  -0.127  -0.390
    1UNL    H19   57  -0.008  -0.048   0.055
    1UNL    H20   58   0.188   0.091  -0.088
    1UNL    H21   59   0.184   0.200   0.055
    1UNL    H22   60   0.220  -0.099   0.100
    1UNL    H23   61   0.320   0.143   0.250
    1UNL    H24   62   0.281  -0.148   0.322
    1UNL    H25   63   0.330  -0.016   0.427
    1UNL    H26   64   0.532  -0.149   0.315
    1UNL    H27   65   0.540   0.019   0.326
    1UNL    H28   66   0.700  -0.099   0.124
    1UNL    H29   67   0.733  -0.051  -0.321
    1UNL    H30   68   0.899  -0.131  -0.274
    1UNL    H31   69   0.744  -0.214  -0.266
    1UNL    H32   70   0.512   0.103  -0.444
    1UNL    H33   71   0.422   0.150  -0.307
    1UNL    H34   72   0.386  -0.000  -0.392
    1UNL    H35   73   0.323  -0.016  -0.152
   0.00000   0.00000   0.00000   0.00000   0.00000   0.00000   0.00000   0.00000   0.00000
Generated with MDTraj, t= 75.0
 73
    1UNL     C1    1  -0.071   0.195   0.386
    1UNL     C2    2  -0.073   0.111   0.285
    1UNL     C3    3  -0.078   0.137   0.139
    1UNL     C4    4  -0.230   0.126   0.082
    1UNL     O1    5  -0.270  -0.005   0.103
    1UNL     C5    6  -0.399  -0.019   0.044
    1UNL     O2    7  -0.501   0.061   0.101
    1UNL     C6    8  -0.624   0.068   0.021
    1UNL     C7    9  -0.643   0.199  -0.044
    1UNL     O3   10  -0.758   0.202  -0.120
    1UNL     C8   11  -0.647  -0.057  -0.076
    1UNL     O4   12  -0.787  -0.081  -0.094
    1UNL     C9   13  -0.591  -0.191  -0.016
    1UNL     O5   14  -0.599  -0.288  -0.122
    1UNL    C10   15  -0.446  -0.170   0.038
    1UNL     O6   16  -0.351  -0.248  -0.039
    1UNL     O7   17  -0.251   0.161  -0.063
    1UNL    C11   18  -0.166   0.092  -0.140
    1UNL    C12   19  -0.056   0.031  -0.097
    1UNL    C13   20   0.003  -0.057  -0.193
    1UNL     O8   21   0.100  -0.131  -0.180
    1UNL     O9   22  -0.058  -0.045  -0.320
    1UNL    C14   23   0.011   0.052   0.040
    1UNL    C15   24   0.161   0.096   0.019
    1UNL    C16   25   0.257  -0.002   0.089
    1UNL     N1   26   0.257   0.016   0.235
    1UNL    C17   27   0.354  -0.065   0.311
    1UNL    C18   28   0.497  -0.022   0.266
    1UNL    C19   29   0.507  -0.025   0.123
    1UNL    C20   30   0.628  -0.068   0.067
    1UNL    C21   31   0.650  -0.061  -0.066
    1UNL    O10   32   0.771  -0.104  -0.115
    1UNL    C22   33   0.788  -0.105  -0.253
    1UNL    C23   34   0.550  -0.006  -0.155
    1UNL    O11   35   0.576   0.010  -0.293
    1UNL    C24   36   0.457   0.010  -0.367
    1UNL    C25   37   0.431   0.019  -0.097
    1UNL    C26   38   0.402   0.003   0.038
    1UNL     H1   39  -0.055   0.145   0.488
    1UNL     H2   40  -0.082   0.299   0.382
    1UNL     H3   41  -0.093   0.004   0.308
    1UNL     H4   42  -0.048   0.247   0.125
    1UNL     H5   43  -0.299   0.194   0.127
    1UNL     H6   44  -0.394   0.022  -0.055
    1UNL     H7   45  -0.707   0.056   0.099
    1UNL     H8   46  -0.642   0.286   0.022
    1UNL     H9   47  -0.549   0.211  -0.113
    1UNL    H10   48  -0.780   0.108  -0.147
    1UNL    H11   49  -0.593  -0.031  -0.162
    1UNL    H12   50  -0.796  -0.172  -0.130
    1UNL    H13   51  -0.667  -0.226   0.053
    1UNL    H14   52  -0.542  -0.362  -0.092
    1UNL    H15   53  -0.435  -0.200   0.144
    1UNL    H16   54  -0.290  -0.193  -0.087
    1UNL    H17   55  -0.199   0.074  -0.244
    1UNL    H18   56  -0.004  -0.097  -0.387
    1UNL    H19   57   0.016  -0.045   0.082
    1UNL    H20   58   0.183   0.090  -0.094
    1UNL    H21   59   0.180   0.201   0.048
    1UNL    H22   60   0.236  -0.112   0.073
    1UNL    H23   61   0.245   0.114   0.274
    1UNL    H24   62   0.333  -0.174   0.298
    1UNL    H25   63   0.345  -0.046   0.414
    1UNL    H26   64   0.585  -0.080   0.314
    1UNL    H27   65   0.510   0.078   0.298
    1UNL    H28   66   0.702  -0.107   0.140
    1UNL    H29   67   0.794  -0.003  -0.295
    1UNL    H30   68   0.872  -0.179  -0.275
    1UNL    H31   69   0.701  -0.147  -0.294
    1UNL    H32   70   0.484   0.001  -0.468
    1UNL    H33   71   0.398   0.098  -0.360
    1UNL    H34   72   0.409  -0.083  -0.341
    1UNL    H35   73   0.360   0.058  -0.177
   0.00000   0.00000   0.00000   0.00000   0.00000   0.00000   0.00000   0.00000   0.00000
Generated with MDTraj, t= 76.0
 73
    1UNL     C1    1   0.024   0.199   0.365
    1UNL     C2    2  -0.038   0.118   0.281
    1UNL     C3    3  -0.082   0.139   0.141
    1UNL     C4    4  -0.239   0.128   0.097
    1UNL     O1    5  -0.279  -0.008   0.112
    1UNL     C5    6  -0.410  -0.019   0.062
    1UNL     O2    7  -0.517   0.055   0.113
    1UNL     C6    8  -0.632   0.059   0.024
    1UNL     C7    9  -0.638   0.193  -0.045
    1UNL     O3   10  -0.761   0.212  -0.117
    1UNL     C8   11  -0.631  -0.057  -0.088
    1UNL     O4   12  -0.761  -0.076  -0.151
    1UNL     C9   13  -0.582  -0.187  -0.027
    1UNL     O5   14  -0.580  -0.288  -0.126
    1UNL    C10   15  -0.454  -0.166   0.048
    1UNL     O6   16  -0.351  -0.223  -0.032
    1UNL     O7   17  -0.256   0.173  -0.038
    1UNL    C11   18  -0.176   0.110  -0.129
    1UNL    C12   19  -0.061   0.041  -0.100
    1UNL    C13   20  -0.003  -0.047  -0.191
    1UNL     O8   21   0.108  -0.092  -0.167
    1UNL     O9   22  -0.080  -0.086  -0.300
    1UNL    C14   23  -0.001   0.044   0.036
    1UNL    C15   24   0.145   0.086   0.026
    1UNL    C16   25   0.243  -0.016   0.085
    1UNL     N1   26   0.249  -0.015   0.228
    1UNL    C17   27   0.351  -0.090   0.305
    1UNL    C18   28   0.485  -0.044   0.254
    1UNL    C19   29   0.495  -0.026   0.113
    1UNL    C20   30   0.620  -0.026   0.066
    1UNL    C21   31   0.646  -0.022  -0.073
    1UNL    O10   32   0.783  -0.050  -0.103
    1UNL    C22   33   0.794  -0.098  -0.230
    1UNL    C23   34   0.535  -0.001  -0.161
    1UNL    O11   35   0.564   0.009  -0.301
    1UNL    C24   36   0.476  -0.068  -0.379
    1UNL    C25   37   0.409   0.003  -0.102
    1UNL    C26   38   0.384  -0.010   0.034
    1UNL     H1   39   0.055   0.171   0.461
    1UNL     H2   40   0.053   0.300   0.350
    1UNL     H3   41  -0.070   0.027   0.323
    1UNL     H4   42  -0.048   0.245   0.114
    1UNL     H5   43  -0.311   0.185   0.157
    1UNL     H6   44  -0.395   0.014  -0.040
    1UNL     H7   45  -0.720   0.039   0.094
    1UNL     H8   46  -0.626   0.265   0.034
    1UNL     H9   47  -0.555   0.215  -0.120
    1UNL    H10   48  -0.793   0.123  -0.130
    1UNL    H11   49  -0.563  -0.027  -0.163
    1UNL    H12   50  -0.766  -0.168  -0.184
    1UNL    H13   51  -0.668  -0.223   0.032
    1UNL    H14   52  -0.498  -0.277  -0.180
    1UNL    H15   53  -0.452  -0.218   0.144
    1UNL    H16   54  -0.264  -0.228   0.012
    1UNL    H17   55  -0.214   0.079  -0.228
    1UNL    H18   56  -0.027  -0.156  -0.346
    1UNL    H19   57  -0.013  -0.057   0.068
    1UNL    H20   58   0.167   0.088  -0.087
    1UNL    H21   59   0.164   0.191   0.055
    1UNL    H22   60   0.208  -0.124   0.064
    1UNL    H23   61   0.249   0.086   0.263
    1UNL    H24   62   0.340  -0.198   0.287
    1UNL    H25   63   0.343  -0.074   0.408
    1UNL    H26   64   0.565  -0.123   0.277
    1UNL    H27   65   0.516   0.048   0.298
    1UNL    H28   66   0.700  -0.044   0.133
    1UNL    H29   67   0.745  -0.030  -0.302
    1UNL    H30   68   0.906  -0.113  -0.248
    1UNL    H31   69   0.749  -0.194  -0.237
    1UNL    H32   70   0.507  -0.080  -0.480
    1UNL    H33   71   0.379  -0.022  -0.381
    1UNL    H34   72   0.474  -0.167  -0.330
    1UNL    H35   73   0.329   0.007  -0.171
   0.00000   0.00000   0.00000   0.00000   0.00000   0.00000   0.00000   0.00000   0.00000
Generated with MDTraj, t= 77.0
 73
    1UNL     C1    1   0.055   0.194   0.351
    1UNL     C2    2  -0.052   0.151   0.284
    1UNL     C3    3  -0.082   0.159   0.137
    1UNL     C4    4  -0.234   0.136   0.100
    1UNL     O1    5  -0.272   0.006   0.131
    1UNL     C5    6  -0.394  -0.012   0.066
    1UNL     O2    7  -0.511   0.056   0.112
    1UNL     C6    8  -0.617   0.062   0.021
    1UNL     C7    9  -0.637   0.204  -0.029
    1UNL     O3   10  -0.750   0.208  -0.118
    1UNL     C8   11  -0.600  -0.047  -0.093
    1UNL     O4   12  -0.722  -0.062  -0.167
    1UNL     C9   13  -0.565  -0.181  -0.026
    1UNL     O5   14  -0.563  -0.284  -0.124
    1UNL    C10   15  -0.431  -0.166   0.050
    1UNL     O6   16  -0.330  -0.228  -0.037
    1UNL     O7   17  -0.256   0.176  -0.033
    1UNL    C11   18  -0.188   0.101  -0.125
    1UNL    C12   19  -0.077   0.034  -0.089
    1UNL    C13   20  -0.013  -0.053  -0.194
    1UNL     O8   21   0.109  -0.068  -0.201
    1UNL     O9   22  -0.096  -0.096  -0.288
    1UNL    C14   23  -0.005   0.051   0.048
    1UNL    C15   24   0.145   0.076   0.039
    1UNL    C16   25   0.229  -0.045   0.082
    1UNL     N1   26   0.225  -0.061   0.224
    1UNL    C17   27   0.342  -0.134   0.279
    1UNL    C18   28   0.466  -0.055   0.256
    1UNL    C19   29   0.487  -0.019   0.115
    1UNL    C20   30   0.613  -0.004   0.065
    1UNL    C21   31   0.628   0.003  -0.073
    1UNL    O10   32   0.747   0.050  -0.136
    1UNL    C22   33   0.818  -0.054  -0.199
    1UNL    C23   34   0.524  -0.030  -0.157
    1UNL    O11   35   0.553  -0.041  -0.292
    1UNL    C24   36   0.461  -0.118  -0.367
    1UNL    C25   37   0.396  -0.039  -0.104
    1UNL    C26   38   0.372  -0.028   0.033
    1UNL     H1   39   0.076   0.206   0.455
    1UNL     H2   40   0.145   0.246   0.302
    1UNL     H3   41  -0.118   0.082   0.343
    1UNL     H4   42  -0.047   0.259   0.095
    1UNL     H5   43  -0.309   0.193   0.163
    1UNL     H6   44  -0.366   0.024  -0.030
    1UNL     H7   45  -0.716   0.034   0.068
    1UNL     H8   46  -0.673   0.273   0.043
    1UNL     H9   47  -0.542   0.243  -0.075
    1UNL    H10   48  -0.749   0.124  -0.171
    1UNL    H11   49  -0.523  -0.021  -0.163
    1UNL    H12   50  -0.716  -0.146  -0.218
    1UNL    H13   51  -0.645  -0.208   0.048
    1UNL    H14   52  -0.563  -0.371  -0.078
    1UNL    H15   53  -0.423  -0.203   0.152
    1UNL    H16   54  -0.366  -0.224  -0.131
    1UNL    H17   55  -0.207   0.112  -0.229
    1UNL    H18   56  -0.056  -0.160  -0.348
    1UNL    H19   57  -0.034  -0.038   0.099
    1UNL    H20   58   0.166   0.101  -0.070
    1UNL    H21   59   0.174   0.172   0.084
    1UNL    H22   60   0.176  -0.136   0.036
    1UNL    H23   61   0.212   0.038   0.262
    1UNL    H24   62   0.348  -0.235   0.236
    1UNL    H25   63   0.330  -0.133   0.384
    1UNL    H26   64   0.553  -0.115   0.291
    1UNL    H27   65   0.456   0.040   0.309
    1UNL    H28   66   0.701   0.012   0.126
    1UNL    H29   67   0.819  -0.033  -0.308
    1UNL    H30   68   0.920  -0.051  -0.149
    1UNL    H31   69   0.776  -0.151  -0.186
    1UNL    H32   70   0.495  -0.148  -0.466
    1UNL    H33   71   0.372  -0.056  -0.382
    1UNL    H34   72   0.431  -0.213  -0.309
    1UNL    H35   73   0.305  -0.054  -0.156
   0.00000   0.00000   0.00000   0.00000   0.00000   0.00000   0.00000   0.00000   0.00000
Generated with MDTraj, t= 78.0
 73
    1UNL     C1    1   0.033   0.236   0.348
    1UNL     C2    2  -0.040   0.150   0.281
    1UNL     C3    3  -0.068   0.151   0.133
    1UNL     C4    4  -0.223   0.154   0.104
    1UNL     O1    5  -0.274   0.026   0.139
    1UNL     C5    6  -0.390  -0.013   0.070
    1UNL     O2    7  -0.504   0.051   0.118
    1UNL     C6    8  -0.606   0.066   0.016
    1UNL     C7    9  -0.615   0.206  -0.047
    1UNL     O3   10  -0.728   0.219  -0.129
    1UNL     C8   11  -0.599  -0.048  -0.094
    1UNL     O4   12  -0.735  -0.071  -0.146
    1UNL     C9   13  -0.546  -0.184  -0.023
    1UNL     O5   14  -0.541  -0.286  -0.119
    1UNL    C10   15  -0.411  -0.164   0.047
    1UNL     O6   16  -0.306  -0.219  -0.027
    1UNL     O7   17  -0.253   0.189  -0.036
    1UNL    C11   18  -0.165   0.127  -0.121
    1UNL    C12   19  -0.059   0.046  -0.088
    1UNL    C13   20  -0.009  -0.040  -0.195
    1UNL     O8   21   0.102  -0.095  -0.196
    1UNL     O9   22  -0.105  -0.076  -0.290
    1UNL    C14   23  -0.006   0.034   0.057
    1UNL    C15   24   0.145   0.046   0.061
    1UNL    C16   25   0.215  -0.088   0.060
    1UNL     N1   26   0.221  -0.147   0.196
    1UNL    C17   27   0.344  -0.147   0.281
    1UNL    C18   28   0.417  -0.013   0.259
    1UNL    C19   29   0.450  -0.002   0.110
    1UNL    C20   30   0.575   0.032   0.060
    1UNL    C21   31   0.612   0.015  -0.067
    1UNL    O10   32   0.733   0.061  -0.111
    1UNL    C22   33   0.797  -0.001  -0.224
    1UNL    C23   34   0.522  -0.044  -0.159
    1UNL    O11   35   0.556  -0.060  -0.292
    1UNL    C24   36   0.458  -0.128  -0.365
    1UNL    C25   37   0.406  -0.093  -0.105
    1UNL    C26   38   0.359  -0.060   0.026
    1UNL     H1   39   0.064   0.226   0.450
    1UNL     H2   40   0.077   0.318   0.301
    1UNL     H3   41  -0.050   0.058   0.332
    1UNL     H4   42  -0.017   0.239   0.082
    1UNL     H5   43  -0.275   0.226   0.176
    1UNL     H6   44  -0.373   0.025  -0.029
    1UNL     H7   45  -0.702   0.053   0.071
    1UNL     H8   46  -0.617   0.274   0.032
    1UNL     H9   47  -0.531   0.220  -0.117
    1UNL    H10   48  -0.750   0.129  -0.158
    1UNL    H11   49  -0.538  -0.021  -0.180
    1UNL    H12   50  -0.739  -0.161  -0.185
    1UNL    H13   51  -0.633  -0.217   0.043
    1UNL    H14   52  -0.464  -0.265  -0.176
    1UNL    H15   53  -0.426  -0.218   0.141
    1UNL    H16   54  -0.222  -0.170  -0.008
    1UNL    H17   55  -0.197   0.140  -0.221
    1UNL    H18   56  -0.064  -0.149  -0.335
    1UNL    H19   57  -0.047  -0.053   0.103
    1UNL    H20   58   0.178   0.112  -0.025
    1UNL    H21   59   0.183   0.102   0.146
    1UNL    H22   60   0.180  -0.167  -0.015
    1UNL    H23   61   0.130  -0.131   0.249
    1UNL    H24   62   0.405  -0.227   0.242
    1UNL    H25   63   0.319  -0.162   0.383
    1UNL    H26   64   0.510  -0.009   0.315
    1UNL    H27   65   0.352   0.072   0.290
    1UNL    H28   66   0.657   0.069   0.128
    1UNL    H29   67   0.725   0.002  -0.305
    1UNL    H30   68   0.893   0.053  -0.244
    1UNL    H31   69   0.824  -0.104  -0.206
    1UNL    H32   70   0.497  -0.163  -0.463
    1UNL    H33   71   0.374  -0.057  -0.381
    1UNL    H34   72   0.419  -0.224  -0.309
    1UNL    H35   73   0.319  -0.130  -0.170
   0.00000   0.00000   0.00000   0.00000   0.00000   0.00000   0.00000   0.00000   0.00000
Generated with MDTraj, t= 79.0
 73
    1UNL     C1    1   0.005   0.255   0.352
    1UNL     C2    2  -0.025   0.143   0.287
    1UNL     C3    3  -0.062   0.149   0.136
    1UNL     C4    4  -0.216   0.148   0.115
    1UNL     O1    5  -0.268   0.023   0.142
    1UNL     C5    6  -0.385  -0.002   0.070
    1UNL     O2    7  -0.498   0.065   0.120
    1UNL     C6    8  -0.604   0.070   0.017
    1UNL     C7    9  -0.606   0.198  -0.064
    1UNL     O3   10  -0.704   0.197  -0.163
    1UNL     C8   11  -0.605  -0.048  -0.080
    1UNL     O4   12  -0.741  -0.076  -0.120
    1UNL     C9   13  -0.541  -0.182  -0.017
    1UNL     O5   14  -0.536  -0.274  -0.125
    1UNL    C10   15  -0.405  -0.154   0.050
    1UNL     O6   16  -0.299  -0.216  -0.024
    1UNL     O7   17  -0.237   0.197  -0.025
    1UNL    C11   18  -0.165   0.126  -0.110
    1UNL    C12   19  -0.077   0.023  -0.081
    1UNL    C13   20  -0.015  -0.054  -0.187
    1UNL     O8   21   0.080  -0.127  -0.163
    1UNL     O9   22  -0.070  -0.033  -0.310
    1UNL    C14   23  -0.015   0.032   0.055
    1UNL    C15   24   0.136   0.029   0.037
    1UNL    C16   25   0.215  -0.102   0.060
    1UNL     N1   26   0.206  -0.137   0.205
    1UNL    C17   27   0.302  -0.105   0.312
    1UNL    C18   28   0.435  -0.041   0.256
    1UNL    C19   29   0.450  -0.033   0.099
    1UNL    C20   30   0.569   0.018   0.053
    1UNL    C21   31   0.604   0.005  -0.075
    1UNL    O10   32   0.731   0.059  -0.095
    1UNL    C22   33   0.781   0.075  -0.225
    1UNL    C23   34   0.519  -0.060  -0.169
    1UNL    O11   35   0.558  -0.067  -0.305
    1UNL    C24   36   0.475  -0.131  -0.396
    1UNL    C25   37   0.397  -0.098  -0.119
    1UNL    C26   38   0.359  -0.089   0.017
    1UNL     H1   39   0.040   0.255   0.459
    1UNL     H2   40   0.027   0.343   0.299
    1UNL     H3   41  -0.054   0.052   0.345
    1UNL     H4   42  -0.016   0.245   0.092
    1UNL     H5   43  -0.267   0.226   0.183
    1UNL     H6   44  -0.372   0.042  -0.027
    1UNL     H7   45  -0.696   0.069   0.077
    1UNL     H8   46  -0.639   0.272   0.002
    1UNL     H9   47  -0.508   0.215  -0.108
    1UNL    H10   48  -0.750   0.108  -0.158
    1UNL    H11   49  -0.547  -0.020  -0.170
    1UNL    H12   50  -0.749  -0.168  -0.150
    1UNL    H13   51  -0.615  -0.230   0.058
    1UNL    H14   52  -0.441  -0.271  -0.155
    1UNL    H15   53  -0.407  -0.197   0.152
    1UNL    H16   54  -0.263  -0.155  -0.088
    1UNL    H17   55  -0.192   0.137  -0.217
    1UNL    H18   56  -0.002  -0.057  -0.375
    1UNL    H19   57  -0.044  -0.056   0.108
    1UNL    H20   58   0.169   0.084  -0.053
    1UNL    H21   59   0.173   0.098   0.114
    1UNL    H22   60   0.180  -0.191   0.000
    1UNL    H23   61   0.107  -0.134   0.236
    1UNL    H24   62   0.320  -0.197   0.363
    1UNL    H25   63   0.249  -0.036   0.374
    1UNL    H26   64   0.521  -0.087   0.294
    1UNL    H27   65   0.439   0.066   0.294
    1UNL    H28   66   0.638   0.059   0.113
    1UNL    H29   67   0.721   0.159  -0.257
    1UNL    H30   68   0.889   0.095  -0.216
    1UNL    H31   69   0.767  -0.008  -0.293
    1UNL    H32   70   0.515  -0.110  -0.497
    1UNL    H33   71   0.370  -0.093  -0.386
    1UNL    H34   72   0.482  -0.245  -0.380
    1UNL    H35   73   0.323  -0.133  -0.186
   0.00000   0.00000   0.00000   0.00000   0.00000   0.00000   0.00000   0.00000   0.00000
Generated with MDTraj, t= 80.0
 73
    1UNL     C1    1  -0.023   0.241   0.362
    1UNL     C2    2  -0.027   0.138   0.275
    1UNL     C3    3  -0.060   0.148   0.125
    1UNL     C4    4  -0.213   0.141   0.102
    1UNL     O1    5  -0.263   0.013   0.134
    1UNL     C5    6  -0.393  -0.002   0.072
    1UNL     O2    7  -0.509   0.066   0.121
    1UNL     C6    8  -0.617   0.069   0.020
    1UNL     C7    9  -0.596   0.197  -0.067
    1UNL     O3   10  -0.691   0.208  -0.172
    1UNL     C8   11  -0.609  -0.057  -0.078
    1UNL     O4   12  -0.731  -0.089  -0.141
    1UNL     C9   13  -0.557  -0.182  -0.002
    1UNL     O5   14  -0.558  -0.295  -0.080
    1UNL    C10   15  -0.420  -0.154   0.062
    1UNL     O6   16  -0.318  -0.209  -0.022
    1UNL     O7   17  -0.236   0.193  -0.030
    1UNL    C11   18  -0.162   0.123  -0.119
    1UNL    C12   19  -0.057   0.044  -0.097
    1UNL    C13   20  -0.019  -0.045  -0.210
    1UNL     O8   21   0.034  -0.153  -0.187
    1UNL     O9   22  -0.048  -0.003  -0.335
    1UNL    C14   23  -0.004   0.034   0.045
    1UNL    C15   24   0.148   0.046   0.027
    1UNL    C16   25   0.232  -0.080   0.068
    1UNL     N1   26   0.216  -0.128   0.209
    1UNL    C17   27   0.310  -0.057   0.300
    1UNL    C18   28   0.455  -0.084   0.265
    1UNL    C19   29   0.483  -0.073   0.119
    1UNL    C20   30   0.611  -0.046   0.071
    1UNL    C21   31   0.635  -0.023  -0.067
    1UNL    O10   32   0.747   0.027  -0.122
    1UNL    C22   33   0.721   0.112  -0.231
    1UNL    C23   34   0.527  -0.039  -0.151
    1UNL    O11   35   0.538  -0.040  -0.290
    1UNL    C24   36   0.459  -0.128  -0.365
    1UNL    C25   37   0.397  -0.056  -0.105
    1UNL    C26   38   0.374  -0.069   0.027
    1UNL     H1   39   0.020   0.225   0.455
    1UNL     H2   40  -0.050   0.342   0.330
    1UNL     H3   41  -0.013   0.036   0.303
    1UNL     H4   42  -0.014   0.249   0.099
    1UNL     H5   43  -0.279   0.213   0.162
    1UNL     H6   44  -0.382   0.036  -0.028
    1UNL     H7   45  -0.710   0.077   0.074
    1UNL     H8   46  -0.601   0.289  -0.019
    1UNL     H9   47  -0.498   0.188  -0.115
    1UNL    H10   48  -0.719   0.120  -0.203
    1UNL    H11   49  -0.532  -0.032  -0.157
    1UNL    H12   50  -0.727  -0.179  -0.181
    1UNL    H13   51  -0.624  -0.211   0.087
    1UNL    H14   52  -0.470  -0.337  -0.072
    1UNL    H15   53  -0.404  -0.194   0.166
    1UNL    H16   54  -0.234  -0.173   0.008
    1UNL    H17   55  -0.187   0.142  -0.225
    1UNL    H18   56  -0.005  -0.070  -0.395
    1UNL    H19   57  -0.024  -0.063   0.085
    1UNL    H20   58   0.175   0.094  -0.067
    1UNL    H21   59   0.180   0.128   0.094
    1UNL    H22   60   0.181  -0.151   0.003
    1UNL    H23   61   0.119  -0.111   0.240
    1UNL    H24   62   0.288  -0.100   0.395
    1UNL    H25   63   0.280   0.047   0.289
    1UNL    H26   64   0.477  -0.182   0.294
    1UNL    H27   65   0.527  -0.017   0.321
    1UNL    H28   66   0.693  -0.055   0.148
    1UNL    H29   67   0.622   0.150  -0.208
    1UNL    H30   68   0.801   0.186  -0.233
    1UNL    H31   69   0.717   0.057  -0.326
    1UNL    H32   70   0.516  -0.154  -0.455
    1UNL    H33   71   0.364  -0.077  -0.394
    1UNL    H34   72   0.441  -0.222  -0.312
    1UNL    H35   73   0.314  -0.057  -0.170
   0.00000   0.00000   0.00000   0.00000   0.00000   0.00000   0.00000   0.00000   0.00000
Generated with MDTraj, t= 81.0
 73
    1UNL     C1    1  -0.035   0.223   0.374
    1UNL     C2    2  -0.060   0.133   0.281
    1UNL     C3    3  -0.077   0.152   0.129
    1UNL     C4    4  -0.227   0.142   0.093
    1UNL     O1    5  -0.263   0.008   0.125
    1UNL     C5    6  -0.383  -0.014   0.060
    1UNL     O2    7  -0.492   0.074   0.098
    1UNL     C6    8  -0.596   0.080   0.000
    1UNL     C7    9  -0.590   0.202  -0.088
    1UNL     O3   10  -0.706   0.204  -0.178
    1UNL     C8   11  -0.606  -0.060  -0.075
    1UNL     O4   12  -0.727  -0.086  -0.144
    1UNL     C9   13  -0.572  -0.176   0.024
    1UNL     O5   14  -0.603  -0.298  -0.036
    1UNL    C10   15  -0.425  -0.160   0.066
    1UNL     O6   16  -0.341  -0.242  -0.026
    1UNL     O7   17  -0.266   0.179  -0.039
    1UNL    C11   18  -0.181   0.114  -0.131
    1UNL    C12   19  -0.068   0.047  -0.100
    1UNL    C13   20   0.002  -0.030  -0.205
    1UNL     O8   21   0.098  -0.106  -0.183
    1UNL     O9   22  -0.044  -0.012  -0.329
    1UNL    C14   23  -0.011   0.048   0.044
    1UNL    C15   24   0.150   0.051   0.045
    1UNL    C16   25   0.222  -0.074   0.090
    1UNL     N1   26   0.232  -0.070   0.240
    1UNL    C17   27   0.364  -0.052   0.319
    1UNL    C18   28   0.475  -0.125   0.246
    1UNL    C19   29   0.482  -0.075   0.108
    1UNL    C20   30   0.603  -0.044   0.051
    1UNL    C21   31   0.617  -0.025  -0.089
    1UNL    O10   32   0.757  -0.004  -0.127
    1UNL    C22   33   0.783   0.118  -0.184
    1UNL    C23   34   0.502  -0.041  -0.168
    1UNL    O11   35   0.532  -0.025  -0.307
    1UNL    C24   36   0.466  -0.115  -0.392
    1UNL    C25   37   0.381  -0.067  -0.103
    1UNL    C26   38   0.365  -0.080   0.029
    1UNL     H1   39  -0.047   0.195   0.475
    1UNL     H2   40  -0.035   0.329   0.339
    1UNL     H3   41  -0.062   0.029   0.317
    1UNL     H4   42  -0.030   0.256   0.115
    1UNL     H5   43  -0.299   0.203   0.154
    1UNL     H6   44  -0.366   0.008  -0.044
    1UNL     H7   45  -0.680   0.086   0.066
    1UNL     H8   46  -0.589   0.287  -0.027
    1UNL     H9   47  -0.504   0.214  -0.156
    1UNL    H10   48  -0.747   0.114  -0.185
    1UNL    H11   49  -0.528  -0.064  -0.159
    1UNL    H12   50  -0.728  -0.180  -0.174
    1UNL    H13   51  -0.650  -0.168   0.105
    1UNL    H14   52  -0.522  -0.349  -0.060
    1UNL    H15   53  -0.403  -0.198   0.169
    1UNL    H16   54  -0.252  -0.265   0.010
    1UNL    H17   55  -0.229   0.110  -0.226
    1UNL    H18   56   0.020  -0.069  -0.383
    1UNL    H19   57  -0.035  -0.046   0.085
    1UNL    H20   58   0.174   0.064  -0.056
    1UNL    H21   59   0.190   0.145   0.088
    1UNL    H22   60   0.163  -0.160   0.068
    1UNL    H23   61   0.160  -0.018   0.283
    1UNL    H24   62   0.345  -0.098   0.412
    1UNL    H25   63   0.388   0.054   0.328
    1UNL    H26   64   0.455  -0.228   0.239
    1UNL    H27   65   0.574  -0.120   0.300
    1UNL    H28   66   0.701  -0.036   0.102
    1UNL    H29   67   0.767   0.193  -0.108
    1UNL    H30   68   0.883   0.108  -0.224
    1UNL    H31   69   0.711   0.133  -0.268
    1UNL    H32   70   0.486  -0.097  -0.498
    1UNL    H33   71   0.360  -0.107  -0.368
    1UNL    H34   72   0.504  -0.210  -0.367
    1UNL    H35   73   0.295  -0.050  -0.176
   0.00000   0.00000   0.00000   0.00000   0.00000   0.00000   0.00000   0.00000   0.00000
Generated with MDTraj, t= 82.0
 73
    1UNL     C1    1  -0.012   0.216   0.375
    1UNL     C2    2  -0.061   0.128   0.290
    1UNL     C3    3  -0.073   0.144   0.144
    1UNL     C4    4  -0.225   0.131   0.100
    1UNL     O1    5  -0.277  -0.007   0.113
    1UNL     C5    6  -0.402  -0.026   0.046
    1UNL     O2    7  -0.503   0.071   0.084
    1UNL     C6    8  -0.612   0.077  -0.009
    1UNL     C7    9  -0.590   0.174  -0.119
    1UNL     O3   10  -0.703   0.185  -0.204
    1UNL     C8   11  -0.643  -0.063  -0.072
    1UNL     O4   12  -0.780  -0.078  -0.111
    1UNL     C9   13  -0.609  -0.181   0.022
    1UNL     O5   14  -0.641  -0.302  -0.033
    1UNL    C10   15  -0.461  -0.171   0.065
    1UNL     O6   16  -0.383  -0.269  -0.005
    1UNL     O7   17  -0.239   0.184  -0.032
    1UNL    C11   18  -0.151   0.129  -0.118
    1UNL    C12   19  -0.033   0.056  -0.092
    1UNL    C13   20   0.036  -0.019  -0.209
    1UNL     O8   21   0.151  -0.052  -0.193
    1UNL     O9   22  -0.046  -0.041  -0.316
    1UNL    C14   23   0.008   0.051   0.055
    1UNL    C15   24   0.162   0.080   0.056
    1UNL    C16   25   0.244  -0.042   0.087
    1UNL     N1   26   0.243  -0.087   0.227
    1UNL    C17   27   0.350  -0.038   0.309
    1UNL    C18   28   0.479  -0.095   0.253
    1UNL    C19   29   0.490  -0.087   0.108
    1UNL    C20   30   0.610  -0.118   0.043
    1UNL    C21   31   0.634  -0.065  -0.084
    1UNL    O10   32   0.758  -0.051  -0.145
    1UNL    C22   33   0.779   0.084  -0.193
    1UNL    C23   34   0.520  -0.016  -0.165
    1UNL    O11   35   0.530   0.017  -0.306
    1UNL    C24   36   0.462  -0.080  -0.385
    1UNL    C25   37   0.401  -0.003  -0.101
    1UNL    C26   38   0.387  -0.028   0.035
    1UNL     H1   39  -0.018   0.193   0.483
    1UNL     H2   40   0.017   0.312   0.346
    1UNL     H3   41  -0.098   0.038   0.335
    1UNL     H4   42  -0.048   0.253   0.120
    1UNL     H5   43  -0.290   0.191   0.163
    1UNL     H6   44  -0.379  -0.005  -0.058
    1UNL     H7   45  -0.694   0.099   0.053
    1UNL     H8   46  -0.571   0.277  -0.094
    1UNL     H9   47  -0.496   0.143  -0.175
    1UNL    H10   48  -0.762   0.107  -0.196
    1UNL    H11   49  -0.582  -0.079  -0.170
    1UNL    H12   50  -0.790  -0.168  -0.147
    1UNL    H13   51  -0.673  -0.164   0.111
    1UNL    H14   52  -0.558  -0.355  -0.049
    1UNL    H15   53  -0.452  -0.191   0.176
    1UNL    H16   54  -0.294  -0.284   0.041
    1UNL    H17   55  -0.185   0.137  -0.218
    1UNL    H18   56  -0.013  -0.114  -0.372
    1UNL    H19   57  -0.001  -0.049   0.087
    1UNL    H20   58   0.184   0.106  -0.042
    1UNL    H21   59   0.186   0.167   0.118
    1UNL    H22   60   0.202  -0.126   0.037
    1UNL    H23   61   0.163  -0.059   0.278
    1UNL    H24   62   0.334  -0.073   0.406
    1UNL    H25   63   0.345   0.072   0.308
    1UNL    H26   64   0.498  -0.196   0.285
    1UNL    H27   65   0.564  -0.037   0.292
    1UNL    H28   66   0.679  -0.166   0.099
    1UNL    H29   67   0.804   0.153  -0.113
    1UNL    H30   68   0.846   0.082  -0.278
    1UNL    H31   69   0.680   0.123  -0.235
    1UNL    H32   70   0.511  -0.106  -0.478
    1UNL    H33   71   0.360  -0.048  -0.393
    1UNL    H34   72   0.465  -0.161  -0.324
    1UNL    H35   73   0.322   0.027  -0.169
   0.00000   0.00000   0.00000   0.00000   0.00000   0.00000   0.00000   0.00000   0.00000
Generated with MDTraj, t= 83.0
 73
    1UNL     C1    1   0.005   0.167   0.360
    1UNL     C2    2  -0.089   0.104   0.286
    1UNL     C3    3  -0.097   0.144   0.141
    1UNL     C4    4  -0.244   0.115   0.090
    1UNL     O1    5  -0.287  -0.023   0.108
    1UNL     C5    6  -0.410  -0.025   0.039
    1UNL     O2    7  -0.503   0.079   0.075
    1UNL     C6    8  -0.616   0.084  -0.015
    1UNL     C7    9  -0.591   0.166  -0.143
    1UNL     O3   10  -0.698   0.166  -0.226
    1UNL     C8   11  -0.656  -0.061  -0.062
    1UNL     O4   12  -0.799  -0.059  -0.083
    1UNL     C9   13  -0.623  -0.170   0.045
    1UNL     O5   14  -0.658  -0.300   0.005
    1UNL    C10   15  -0.468  -0.164   0.062
    1UNL     O6   16  -0.399  -0.265  -0.011
    1UNL     O7   17  -0.267   0.164  -0.043
    1UNL    C11   18  -0.174   0.112  -0.123
    1UNL    C12   19  -0.052   0.055  -0.089
    1UNL    C13   20   0.026  -0.015  -0.196
    1UNL     O8   21   0.144  -0.045  -0.179
    1UNL     O9   22  -0.044  -0.031  -0.315
    1UNL    C14   23  -0.001   0.055   0.051
    1UNL    C15   24   0.159   0.081   0.063
    1UNL    C16   25   0.256  -0.036   0.086
    1UNL     N1   26   0.247  -0.085   0.218
    1UNL    C17   27   0.351  -0.062   0.313
    1UNL    C18   28   0.487  -0.105   0.251
    1UNL    C19   29   0.508  -0.038   0.119
    1UNL    C20   30   0.635  -0.039   0.055
    1UNL    C21   31   0.648  -0.037  -0.083
    1UNL    O10   32   0.777  -0.088  -0.137
    1UNL    C22   33   0.859  -0.004  -0.229
    1UNL    C23   34   0.540  -0.005  -0.163
    1UNL    O11   35   0.564   0.018  -0.304
    1UNL    C24   36   0.451  -0.006  -0.386
    1UNL    C25   37   0.417   0.007  -0.098
    1UNL    C26   38   0.397  -0.013   0.042
    1UNL     H1   39   0.034   0.144   0.464
    1UNL     H2   40   0.070   0.243   0.330
    1UNL     H3   41  -0.164   0.042   0.334
    1UNL     H4   42  -0.075   0.255   0.127
    1UNL     H5   43  -0.305   0.175   0.153
    1UNL     H6   44  -0.390  -0.011  -0.068
    1UNL     H7   45  -0.691   0.132   0.041
    1UNL     H8   46  -0.561   0.270  -0.121
    1UNL     H9   47  -0.502   0.128  -0.205
    1UNL    H10   48  -0.754   0.086  -0.207
    1UNL    H11   49  -0.602  -0.089  -0.161
    1UNL    H12   50  -0.825  -0.149  -0.113
    1UNL    H13   51  -0.663  -0.146   0.143
    1UNL    H14   52  -0.576  -0.346  -0.027
    1UNL    H15   53  -0.454  -0.196   0.168
    1UNL    H16   54  -0.308  -0.278   0.021
    1UNL    H17   55  -0.211   0.115  -0.227
    1UNL    H18   56   0.021  -0.081  -0.363
    1UNL    H19   57  -0.008  -0.041   0.094
    1UNL    H20   58   0.185   0.131  -0.027
    1UNL    H21   59   0.172   0.146   0.146
    1UNL    H22   60   0.215  -0.111   0.019
    1UNL    H23   61   0.160  -0.072   0.263
    1UNL    H24   62   0.327  -0.120   0.396
    1UNL    H25   63   0.347   0.044   0.340
    1UNL    H26   64   0.482  -0.212   0.229
    1UNL    H27   65   0.574  -0.099   0.315
    1UNL    H28   66   0.722  -0.075   0.122
    1UNL    H29   67   0.851   0.105  -0.216
    1UNL    H30   68   0.961  -0.037  -0.228
    1UNL    H31   69   0.827  -0.028  -0.337
    1UNL    H32   70   0.468   0.018  -0.491
    1UNL    H33   71   0.370   0.051  -0.343
    1UNL    H34   72   0.432  -0.106  -0.373
    1UNL    H35   73   0.333   0.000  -0.153
   0.00000   0.00000   0.00000   0.00000   0.00000   0.00000   0.00000   0.00000   0.00000
Generated with MDTraj, t= 84.0
 73
    1UNL     C1    1   0.019   0.103   0.365
    1UNL     C2    2  -0.077   0.070   0.279
    1UNL     C3    3  -0.084   0.128   0.140
    1UNL     C4    4  -0.229   0.120   0.081
    1UNL     O1    5  -0.286  -0.009   0.109
    1UNL     C5    6  -0.411  -0.020   0.049
    1UNL     O2    7  -0.509   0.081   0.080
    1UNL     C6    8  -0.619   0.083  -0.010
    1UNL     C7    9  -0.582   0.159  -0.141
    1UNL     O3   10  -0.687   0.158  -0.231
    1UNL     C8   11  -0.660  -0.060  -0.046
    1UNL     O4   12  -0.799  -0.077  -0.093
    1UNL     C9   13  -0.626  -0.154   0.074
    1UNL     O5   14  -0.684  -0.284   0.062
    1UNL    C10   15  -0.467  -0.165   0.070
    1UNL     O6   16  -0.433  -0.258  -0.033
    1UNL     O7   17  -0.251   0.159  -0.050
    1UNL    C11   18  -0.156   0.096  -0.127
    1UNL    C12   19  -0.038   0.045  -0.095
    1UNL    C13   20   0.037  -0.020  -0.214
    1UNL     O8   21   0.140  -0.085  -0.196
    1UNL     O9   22  -0.021  -0.010  -0.337
    1UNL    C14   23   0.013   0.048   0.046
    1UNL    C15   24   0.162   0.094   0.045
    1UNL    C16   25   0.246  -0.032   0.073
    1UNL     N1   26   0.221  -0.081   0.208
    1UNL    C17   27   0.315  -0.024   0.298
    1UNL    C18   28   0.461  -0.065   0.270
    1UNL    C19   29   0.499  -0.055   0.121
    1UNL    C20   30   0.625  -0.078   0.064
    1UNL    C21   31   0.654  -0.040  -0.071
    1UNL    O10   32   0.786  -0.025  -0.120
    1UNL    C22   33   0.814  -0.056  -0.252
    1UNL    C23   34   0.549  -0.001  -0.154
    1UNL    O11   35   0.580   0.020  -0.289
    1UNL    C24   36   0.489   0.072  -0.384
    1UNL    C25   37   0.423   0.000  -0.095
    1UNL    C26   38   0.392  -0.023   0.037
    1UNL     H1   39   0.042   0.072   0.464
    1UNL     H2   40   0.097   0.177   0.330
    1UNL     H3   41  -0.145  -0.007   0.313
    1UNL     H4   42  -0.060   0.240   0.127
    1UNL     H5   43  -0.282   0.198   0.131
    1UNL     H6   44  -0.390   0.002  -0.058
    1UNL     H7   45  -0.694   0.141   0.035
    1UNL     H8   46  -0.554   0.262  -0.113
    1UNL     H9   47  -0.484   0.121  -0.187
    1UNL    H10   48  -0.751   0.088  -0.203
    1UNL    H11   49  -0.599  -0.095  -0.139
    1UNL    H12   50  -0.826  -0.168  -0.064
    1UNL    H13   51  -0.664  -0.109   0.163
    1UNL    H14   52  -0.639  -0.338  -0.006
    1UNL    H15   53  -0.430  -0.198   0.168
    1UNL    H16   54  -0.347  -0.291  -0.008
    1UNL    H17   55  -0.195   0.076  -0.230
    1UNL    H18   56   0.032  -0.066  -0.395
    1UNL    H19   57   0.014  -0.050   0.084
    1UNL    H20   58   0.178   0.130  -0.055
    1UNL    H21   59   0.187   0.171   0.110
    1UNL    H22   60   0.195  -0.101   0.002
    1UNL    H23   61   0.131  -0.075   0.246
    1UNL    H24   62   0.292  -0.050   0.397
    1UNL    H25   63   0.308   0.087   0.287
    1UNL    H26   64   0.482  -0.168   0.307
    1UNL    H27   65   0.523  -0.000   0.326
    1UNL    H28   66   0.709  -0.104   0.124
    1UNL    H29   67   0.797   0.026  -0.323
    1UNL    H30   68   0.914  -0.092  -0.263
    1UNL    H31   69   0.751  -0.146  -0.284
    1UNL    H32   70   0.545   0.059  -0.481
    1UNL    H33   71   0.477   0.179  -0.360
    1UNL    H34   72   0.399   0.018  -0.380
    1UNL    H35   73   0.332   0.007  -0.161
   0.00000   0.00000   0.00000   0.00000   0.00000   0.00000   0.00000   0.00000   0.00000
Generated with MDTraj, t= 85.0
 73
    1UNL     C1    1  -0.007   0.109   0.364
    1UNL     C2    2  -0.072   0.054   0.261
    1UNL     C3    3  -0.075   0.105   0.124
    1UNL     C4    4  -0.222   0.116   0.078
    1UNL     O1    5  -0.285  -0.017   0.102
    1UNL     C5    6  -0.406  -0.025   0.035
    1UNL     O2    7  -0.493   0.084   0.072
    1UNL     C6    8  -0.612   0.090  -0.004
    1UNL     C7    9  -0.585   0.161  -0.142
    1UNL     O3   10  -0.698   0.151  -0.230
    1UNL     C8   11  -0.662  -0.053  -0.033
    1UNL     O4   12  -0.808  -0.059  -0.058
    1UNL     C9   13  -0.625  -0.148   0.078
    1UNL     O5   14  -0.691  -0.267   0.066
    1UNL    C10   15  -0.469  -0.162   0.082
    1UNL     O6   16  -0.439  -0.270  -0.004
    1UNL     O7   17  -0.244   0.174  -0.054
    1UNL    C11   18  -0.161   0.112  -0.150
    1UNL    C12   19  -0.043   0.040  -0.126
    1UNL    C13   20   0.037  -0.026  -0.237
    1UNL     O8   21   0.133  -0.092  -0.203
    1UNL     O9   22   0.004   0.006  -0.367
    1UNL    C14   23   0.005   0.021   0.018
    1UNL    C15   24   0.156   0.045   0.029
    1UNL    C16   25   0.255  -0.071   0.067
    1UNL     N1   26   0.231  -0.107   0.214
    1UNL    C17   27   0.330  -0.036   0.306
    1UNL    C18   28   0.478  -0.056   0.262
    1UNL    C19   29   0.502  -0.019   0.118
    1UNL    C20   30   0.627   0.004   0.068
    1UNL    C21   31   0.660  -0.001  -0.068
    1UNL    O10   32   0.789  -0.016  -0.103
    1UNL    C22   33   0.818  -0.114  -0.190
    1UNL    C23   34   0.549  -0.002  -0.159
    1UNL    O11   35   0.551   0.025  -0.296
    1UNL    C24   36   0.461   0.130  -0.344
    1UNL    C25   37   0.425  -0.034  -0.105
    1UNL    C26   38   0.398  -0.044   0.027
    1UNL     H1   39  -0.019   0.078   0.461
    1UNL     H2   40   0.057   0.194   0.345
    1UNL     H3   41  -0.116  -0.043   0.279
    1UNL     H4   42  -0.028   0.210   0.129
    1UNL     H5   43  -0.271   0.182   0.150
    1UNL     H6   44  -0.386  -0.018  -0.075
    1UNL     H7   45  -0.685   0.146   0.049
    1UNL     H8   46  -0.546   0.264  -0.134
    1UNL     H9   47  -0.491   0.110  -0.183
    1UNL    H10   48  -0.758   0.080  -0.194
    1UNL    H11   49  -0.618  -0.093  -0.131
    1UNL    H12   50  -0.857  -0.099   0.015
    1UNL    H13   51  -0.661  -0.106   0.169
    1UNL    H14   52  -0.666  -0.315  -0.017
    1UNL    H15   53  -0.436  -0.195   0.180
    1UNL    H16   54  -0.356  -0.317   0.019
    1UNL    H17   55  -0.195   0.137  -0.248
    1UNL    H18   56   0.080  -0.017  -0.431
    1UNL    H19   57  -0.011  -0.081   0.041
    1UNL    H20   58   0.182   0.073  -0.072
    1UNL    H21   59   0.175   0.132   0.082
    1UNL    H22   60   0.221  -0.156   0.001
    1UNL    H23   61   0.141  -0.077   0.246
    1UNL    H24   62   0.325  -0.070   0.406
    1UNL    H25   63   0.321   0.076   0.307
    1UNL    H26   64   0.494  -0.168   0.265
    1UNL    H27   65   0.549  -0.009   0.322
    1UNL    H28   66   0.709   0.039   0.122
    1UNL    H29   67   0.797  -0.081  -0.292
    1UNL    H30   68   0.920  -0.142  -0.183
    1UNL    H31   69   0.760  -0.207  -0.168
    1UNL    H32   70   0.536   0.207  -0.385
    1UNL    H33   71   0.401   0.176  -0.262
    1UNL    H34   72   0.396   0.091  -0.423
    1UNL    H35   73   0.344  -0.051  -0.176
   0.00000   0.00000   0.00000   0.00000   0.00000   0.00000   0.00000   0.00000   0.00000
Generated with MDTraj, t= 86.0
 73
    1UNL     C1    1  -0.027   0.146   0.349
    1UNL     C2    2  -0.061   0.051   0.262
    1UNL     C3    3  -0.077   0.092   0.118
    1UNL     C4    4  -0.219   0.079   0.067
    1UNL     O1    5  -0.282  -0.048   0.068
    1UNL     C5    6  -0.409  -0.036   0.023
    1UNL     O2    7  -0.478   0.085   0.053
    1UNL     C6    8  -0.608   0.097  -0.010
    1UNL     C7    9  -0.595   0.163  -0.145
    1UNL     O3   10  -0.718   0.173  -0.216
    1UNL     C8   11  -0.678  -0.041  -0.025
    1UNL     O4   12  -0.821  -0.018  -0.028
    1UNL     C9   13  -0.636  -0.144   0.080
    1UNL     O5   14  -0.688  -0.269   0.057
    1UNL    C10   15  -0.479  -0.157   0.090
    1UNL     O6   16  -0.435  -0.281   0.030
    1UNL     O7   17  -0.236   0.142  -0.059
    1UNL    C11   18  -0.150   0.099  -0.147
    1UNL    C12   19  -0.028   0.032  -0.126
    1UNL    C13   20   0.049  -0.013  -0.248
    1UNL     O8   21   0.138  -0.094  -0.236
    1UNL     O9   22   0.001   0.024  -0.373
    1UNL    C14   23   0.011   0.008   0.022
    1UNL    C15   24   0.153   0.039   0.055
    1UNL    C16   25   0.252  -0.076   0.079
    1UNL     N1   26   0.254  -0.115   0.220
    1UNL    C17   27   0.329  -0.033   0.314
    1UNL    C18   28   0.477  -0.037   0.271
    1UNL    C19   29   0.491  -0.049   0.114
    1UNL    C20   30   0.618  -0.032   0.063
    1UNL    C21   31   0.640  -0.004  -0.069
    1UNL    O10   32   0.780   0.022  -0.108
    1UNL    C22   33   0.842  -0.086  -0.167
    1UNL    C23   34   0.536   0.001  -0.158
    1UNL    O11   35   0.572   0.041  -0.287
    1UNL    C24   36   0.483   0.125  -0.359
    1UNL    C25   37   0.412  -0.044  -0.113
    1UNL    C26   38   0.389  -0.060   0.024
    1UNL     H1   39  -0.004   0.108   0.453
    1UNL     H2   40  -0.011   0.247   0.318
    1UNL     H3   41  -0.079  -0.053   0.289
    1UNL     H4   42  -0.050   0.204   0.121
    1UNL     H5   43  -0.290   0.134   0.135
    1UNL     H6   44  -0.401  -0.044  -0.090
    1UNL     H7   45  -0.666   0.163   0.055
    1UNL     H8   46  -0.543   0.257  -0.134
    1UNL     H9   47  -0.520   0.116  -0.216
    1UNL    H10   48  -0.778   0.108  -0.175
    1UNL    H11   49  -0.660  -0.092  -0.123
    1UNL    H12   50  -0.867  -0.090   0.020
    1UNL    H13   51  -0.663  -0.110   0.177
    1UNL    H14   52  -0.614  -0.333   0.049
    1UNL    H15   53  -0.438  -0.159   0.189
    1UNL    H16   54  -0.337  -0.299   0.044
    1UNL    H17   55  -0.184   0.113  -0.247
    1UNL    H18   56   0.067  -0.025  -0.434
    1UNL    H19   57  -0.008  -0.095   0.040
    1UNL    H20   58   0.188   0.100  -0.025
    1UNL    H21   59   0.161   0.106   0.138
    1UNL    H22   60   0.215  -0.170   0.026
    1UNL    H23   61   0.161  -0.132   0.259
    1UNL    H24   62   0.324  -0.066   0.416
    1UNL    H25   63   0.298   0.076   0.318
    1UNL    H26   64   0.533  -0.124   0.318
    1UNL    H27   65   0.525   0.048   0.304
    1UNL    H28   66   0.698  -0.006   0.143
    1UNL    H29   67   0.769  -0.148  -0.218
    1UNL    H30   68   0.909  -0.053  -0.241
    1UNL    H31   69   0.898  -0.147  -0.095
    1UNL    H32   70   0.553   0.171  -0.438
    1UNL    H33   71   0.452   0.214  -0.298
    1UNL    H34   72   0.391   0.076  -0.399
    1UNL    H35   73   0.342  -0.065  -0.187
   0.00000   0.00000   0.00000   0.00000   0.00000   0.00000   0.00000   0.00000   0.00000
Generated with MDTraj, t= 87.0
 73
    1UNL     C1    1  -0.040   0.147   0.346
    1UNL     C2    2  -0.076   0.058   0.255
    1UNL     C3    3  -0.077   0.104   0.108
    1UNL     C4    4  -0.223   0.091   0.055
    1UNL     O1    5  -0.285  -0.042   0.067
    1UNL     C5    6  -0.418  -0.047   0.033
    1UNL     O2    7  -0.482   0.073   0.072
    1UNL     C6    8  -0.611   0.094  -0.003
    1UNL     C7    9  -0.599   0.165  -0.136
    1UNL     O3   10  -0.723   0.206  -0.177
    1UNL     C8   11  -0.689  -0.042  -0.024
    1UNL     O4   12  -0.830  -0.028  -0.045
    1UNL     C9   13  -0.651  -0.146   0.089
    1UNL     O5   14  -0.717  -0.266   0.068
    1UNL    C10   15  -0.497  -0.168   0.092
    1UNL     O6   16  -0.468  -0.294   0.036
    1UNL     O7   17  -0.239   0.141  -0.080
    1UNL    C11   18  -0.147   0.086  -0.162
    1UNL    C12   19  -0.031   0.027  -0.129
    1UNL    C13   20   0.063  -0.017  -0.244
    1UNL     O8   21   0.168  -0.077  -0.222
    1UNL     O9   22   0.022   0.011  -0.366
    1UNL    C14   23   0.020   0.022   0.020
    1UNL    C15   24   0.167   0.072   0.040
    1UNL    C16   25   0.251  -0.054   0.061
    1UNL     N1   26   0.236  -0.116   0.190
    1UNL    C17   27   0.318  -0.064   0.294
    1UNL    C18   28   0.464  -0.090   0.260
    1UNL    C19   29   0.501  -0.036   0.126
    1UNL    C20   30   0.636  -0.006   0.085
    1UNL    C21   31   0.669   0.005  -0.048
    1UNL    O10   32   0.796   0.050  -0.092
    1UNL    C22   33   0.833  -0.027  -0.206
    1UNL    C23   34   0.568  -0.010  -0.148
    1UNL    O11   35   0.586  -0.008  -0.287
    1UNL    C24   36   0.492   0.068  -0.355
    1UNL    C25   37   0.440  -0.042  -0.106
    1UNL    C26   38   0.402  -0.046   0.027
    1UNL     H1   39  -0.018   0.111   0.445
    1UNL     H2   40  -0.028   0.242   0.312
    1UNL     H3   41  -0.107  -0.041   0.279
    1UNL     H4   42  -0.046   0.213   0.113
    1UNL     H5   43  -0.298   0.159   0.109
    1UNL     H6   44  -0.426  -0.059  -0.080
    1UNL     H7   45  -0.666   0.164   0.066
    1UNL     H8   46  -0.545   0.257  -0.139
    1UNL     H9   47  -0.535   0.110  -0.211
    1UNL    H10   48  -0.789   0.131  -0.178
    1UNL    H11   49  -0.663  -0.090  -0.119
    1UNL    H12   50  -0.873  -0.107  -0.004
    1UNL    H13   51  -0.688  -0.108   0.182
    1UNL    H14   52  -0.663  -0.349   0.077
    1UNL    H15   53  -0.460  -0.177   0.192
    1UNL    H16   54  -0.369  -0.313   0.045
    1UNL    H17   55  -0.168   0.112  -0.267
    1UNL    H18   56   0.085  -0.029  -0.432
    1UNL    H19   57   0.012  -0.078   0.053
    1UNL    H20   58   0.204   0.124  -0.044
    1UNL    H21   59   0.174   0.140   0.127
    1UNL    H22   60   0.211  -0.130  -0.013
    1UNL    H23   61   0.136  -0.124   0.213
    1UNL    H24   62   0.289  -0.100   0.391
    1UNL    H25   63   0.303   0.049   0.300
    1UNL    H26   64   0.482  -0.200   0.260
    1UNL    H27   65   0.535  -0.049   0.325
    1UNL    H28   66   0.690   0.021   0.167
    1UNL    H29   67   0.807  -0.130  -0.184
    1UNL    H30   68   0.774   0.003  -0.290
    1UNL    H31   69   0.938  -0.023  -0.235
    1UNL    H32   70   0.513   0.057  -0.464
    1UNL    H33   71   0.498   0.176  -0.336
    1UNL    H34   72   0.386   0.035  -0.329
    1UNL    H35   73   0.358  -0.064  -0.183
   0.00000   0.00000   0.00000   0.00000   0.00000   0.00000   0.00000   0.00000   0.00000
Generated with MDTraj, t= 88.0
 73
    1UNL     C1    1  -0.038   0.133   0.325
    1UNL     C2    2  -0.088   0.060   0.228
    1UNL     C3    3  -0.087   0.100   0.084
    1UNL     C4    4  -0.233   0.091   0.041
    1UNL     O1    5  -0.296  -0.019   0.104
    1UNL     C5    6  -0.423  -0.034   0.054
    1UNL     O2    7  -0.497   0.089   0.092
    1UNL     C6    8  -0.624   0.103   0.018
    1UNL     C7    9  -0.613   0.191  -0.100
    1UNL     O3   10  -0.732   0.201  -0.170
    1UNL     C8   11  -0.677  -0.041  -0.024
    1UNL     O4   12  -0.816  -0.044  -0.052
    1UNL     C9   13  -0.643  -0.139   0.093
    1UNL     O5   14  -0.718  -0.253   0.077
    1UNL    C10   15  -0.492  -0.169   0.095
    1UNL     O6   16  -0.470  -0.271  -0.001
    1UNL     O7   17  -0.257   0.112  -0.095
    1UNL    C11   18  -0.153   0.073  -0.183
    1UNL    C12   19  -0.034   0.019  -0.142
    1UNL    C13   20   0.065  -0.021  -0.243
    1UNL     O8   21   0.173  -0.067  -0.204
    1UNL     O9   22   0.027  -0.001  -0.376
    1UNL    C14   23   0.000   0.007   0.007
    1UNL    C15   24   0.152   0.042   0.039
    1UNL    C16   25   0.251  -0.075   0.063
    1UNL     N1   26   0.247  -0.133   0.195
    1UNL    C17   27   0.328  -0.077   0.306
    1UNL    C18   28   0.474  -0.045   0.268
    1UNL    C19   29   0.499  -0.041   0.122
    1UNL    C20   30   0.631  -0.019   0.084
    1UNL    C21   31   0.666  -0.001  -0.050
    1UNL    O10   32   0.808  -0.001  -0.069
    1UNL    C22   33   0.838   0.077  -0.185
    1UNL    C23   34   0.571  -0.004  -0.155
    1UNL    O11   35   0.616  -0.016  -0.288
    1UNL    C24   36   0.520   0.023  -0.391
    1UNL    C25   37   0.438  -0.024  -0.111
    1UNL    C26   38   0.402  -0.044   0.022
    1UNL     H1   39  -0.047   0.111   0.431
    1UNL     H2   40   0.006   0.233   0.298
    1UNL     H3   41  -0.129  -0.039   0.254
    1UNL     H4   42  -0.041   0.203   0.078
    1UNL     H5   43  -0.290   0.182   0.084
    1UNL     H6   44  -0.418  -0.031  -0.061
    1UNL     H7   45  -0.687   0.158   0.097
    1UNL     H8   46  -0.572   0.287  -0.083
    1UNL     H9   47  -0.531   0.155  -0.168
    1UNL    H10   48  -0.795   0.135  -0.137
    1UNL    H11   49  -0.633  -0.071  -0.118
    1UNL    H12   50  -0.863  -0.104   0.009
    1UNL    H13   51  -0.676  -0.098   0.191
    1UNL    H14   52  -0.664  -0.326   0.040
    1UNL    H15   53  -0.454  -0.199   0.192
    1UNL    H16   54  -0.377  -0.299  -0.009
    1UNL    H17   55  -0.184   0.091  -0.288
    1UNL    H18   56   0.099  -0.033  -0.429
    1UNL    H19   57  -0.023  -0.091   0.040
    1UNL    H20   58   0.187   0.099  -0.044
    1UNL    H21   59   0.165   0.108   0.128
    1UNL    H22   60   0.221  -0.154  -0.009
    1UNL    H23   61   0.153  -0.176   0.206
    1UNL    H24   62   0.327  -0.154   0.382
    1UNL    H25   63   0.273   0.015   0.351
    1UNL    H26   64   0.529  -0.137   0.297
    1UNL    H27   65   0.516   0.037   0.327
    1UNL    H28   66   0.722  -0.011   0.147
    1UNL    H29   67   0.788   0.041  -0.276
    1UNL    H30   68   0.805   0.181  -0.165
    1UNL    H31   69   0.944   0.076  -0.200
    1UNL    H32   70   0.560   0.080  -0.472
    1UNL    H33   71   0.435   0.078  -0.355
    1UNL    H34   72   0.469  -0.073  -0.423
    1UNL    H35   73   0.367  -0.050  -0.190
   0.00000   0.00000   0.00000   0.00000   0.00000   0.00000   0.00000   0.00000   0.00000
Generated with MDTraj, t= 89.0
 73
    1UNL     C1    1  -0.000   0.159   0.318
    1UNL     C2    2  -0.061   0.071   0.242
    1UNL     C3    3  -0.064   0.092   0.094
    1UNL     C4    4  -0.217   0.078   0.050
    1UNL     O1    5  -0.292  -0.031   0.093
    1UNL     C5    6  -0.426  -0.023   0.047
    1UNL     O2    7  -0.511   0.086   0.098
    1UNL     C6    8  -0.634   0.100   0.028
    1UNL     C7    9  -0.626   0.200  -0.088
    1UNL     O3   10  -0.741   0.207  -0.170
    1UNL     C8   11  -0.700  -0.038  -0.017
    1UNL     O4   12  -0.843  -0.026  -0.015
    1UNL     C9   13  -0.654  -0.145   0.081
    1UNL     O5   14  -0.712  -0.268   0.049
    1UNL    C10   15  -0.497  -0.157   0.084
    1UNL     O6   16  -0.461  -0.258  -0.004
    1UNL     O7   17  -0.237   0.114  -0.090
    1UNL    C11   18  -0.134   0.069  -0.168
    1UNL    C12   19  -0.012   0.006  -0.133
    1UNL    C13   20   0.067  -0.038  -0.249
    1UNL     O8   21   0.181  -0.079  -0.244
    1UNL     O9   22   0.002  -0.018  -0.366
    1UNL    C14   23   0.024   0.003   0.012
    1UNL    C15   24   0.177   0.037   0.020
    1UNL    C16   25   0.258  -0.090   0.040
    1UNL     N1   26   0.239  -0.127   0.177
    1UNL    C17   27   0.301  -0.052   0.287
    1UNL    C18   28   0.448  -0.034   0.263
    1UNL    C19   29   0.493  -0.060   0.122
    1UNL    C20   30   0.621  -0.027   0.089
    1UNL    C21   31   0.670  -0.013  -0.046
    1UNL    O10   32   0.805   0.019  -0.065
    1UNL    C22   33   0.837   0.140  -0.123
    1UNL    C23   34   0.571  -0.022  -0.155
    1UNL    O11   35   0.610  -0.001  -0.288
    1UNL    C24   36   0.512  -0.019  -0.390
    1UNL    C25   37   0.439  -0.044  -0.119
    1UNL    C26   38   0.405  -0.063   0.011
    1UNL     H1   39  -0.000   0.158   0.418
    1UNL     H2   40   0.043   0.253   0.282
    1UNL     H3   41  -0.102  -0.015   0.291
    1UNL     H4   42  -0.027   0.194   0.063
    1UNL     H5   43  -0.270   0.164   0.100
    1UNL     H6   44  -0.429  -0.002  -0.066
    1UNL     H7   45  -0.703   0.146   0.108
    1UNL     H8   46  -0.591   0.294  -0.053
    1UNL     H9   47  -0.539   0.175  -0.152
    1UNL    H10   48  -0.815   0.147  -0.141
    1UNL    H11   49  -0.675  -0.064  -0.116
    1UNL    H12   50  -0.888  -0.107   0.015
    1UNL    H13   51  -0.685  -0.131   0.189
    1UNL    H14   52  -0.642  -0.325   0.008
    1UNL    H15   53  -0.456  -0.175   0.184
    1UNL    H16   54  -0.371  -0.261  -0.034
    1UNL    H17   55  -0.151   0.068  -0.275
    1UNL    H18   56   0.057  -0.035  -0.440
    1UNL    H19   57   0.010  -0.095   0.051
    1UNL    H20   58   0.210   0.071  -0.078
    1UNL    H21   59   0.204   0.117   0.093
    1UNL    H22   60   0.228  -0.172  -0.024
    1UNL    H23   61   0.136  -0.123   0.190
    1UNL    H24   62   0.277  -0.115   0.376
    1UNL    H25   63   0.242   0.045   0.311
    1UNL    H26   64   0.504  -0.095   0.335
    1UNL    H27   65   0.476   0.071   0.289
    1UNL    H28   66   0.693   0.007   0.162
    1UNL    H29   67   0.817   0.144  -0.232
    1UNL    H30   68   0.777   0.217  -0.066
    1UNL    H31   69   0.940   0.152  -0.095
    1UNL    H32   70   0.556  -0.006  -0.485
    1UNL    H33   71   0.431   0.047  -0.389
    1UNL    H34   72   0.469  -0.118  -0.372
    1UNL    H35   73   0.365  -0.050  -0.189
   0.00000   0.00000   0.00000   0.00000   0.00000   0.00000   0.00000   0.00000   0.00000
Generated with MDTraj, t= 90.0
 73
    1UNL     C1    1   0.018   0.158   0.296
    1UNL     C2    2  -0.052   0.078   0.217
    1UNL     C3    3  -0.070   0.108   0.075
    1UNL     C4    4  -0.224   0.093   0.041
    1UNL     O1    5  -0.271  -0.037   0.058
    1UNL     C5    6  -0.410  -0.030   0.039
    1UNL     O2    7  -0.479   0.082   0.094
    1UNL     C6    8  -0.606   0.101   0.033
    1UNL     C7    9  -0.609   0.193  -0.095
    1UNL     O3   10  -0.742   0.223  -0.124
    1UNL     C8   11  -0.679  -0.029  -0.005
    1UNL     O4   12  -0.824  -0.011   0.004
    1UNL     C9   13  -0.634  -0.148   0.081
    1UNL     O5   14  -0.690  -0.268   0.037
    1UNL    C10   15  -0.479  -0.161   0.078
    1UNL     O6   16  -0.447  -0.253  -0.019
    1UNL     O7   17  -0.268   0.134  -0.094
    1UNL    C11   18  -0.176   0.074  -0.174
    1UNL    C12   19  -0.052   0.016  -0.150
    1UNL    C13   20   0.027  -0.049  -0.255
    1UNL     O8   21   0.136  -0.096  -0.221
    1UNL     O9   22  -0.018  -0.046  -0.385
    1UNL    C14   23   0.006   0.006  -0.009
    1UNL    C15   24   0.162   0.034  -0.000
    1UNL    C16   25   0.255  -0.087   0.046
    1UNL     N1   26   0.226  -0.138   0.183
    1UNL    C17   27   0.305  -0.074   0.286
    1UNL    C18   28   0.451  -0.096   0.265
    1UNL    C19   29   0.496  -0.053   0.131
    1UNL    C20   30   0.626  -0.006   0.105
    1UNL    C21   31   0.667   0.015  -0.028
    1UNL    O10   32   0.797   0.047  -0.073
    1UNL    C22   33   0.795   0.171  -0.141
    1UNL    C23   34   0.568  -0.008  -0.130
    1UNL    O11   35   0.631  -0.008  -0.262
    1UNL    C24   36   0.548  -0.051  -0.358
    1UNL    C25   37   0.443  -0.052  -0.099
    1UNL    C26   38   0.401  -0.068   0.032
    1UNL     H1   39   0.044   0.137   0.404
    1UNL     H2   40   0.073   0.247   0.271
    1UNL     H3   41  -0.114  -0.002   0.260
    1UNL     H4   42  -0.030   0.210   0.048
    1UNL     H5   43  -0.283   0.153   0.111
    1UNL     H6   44  -0.433  -0.017  -0.072
    1UNL     H7   45  -0.666   0.154   0.117
    1UNL     H8   46  -0.558   0.284  -0.077
    1UNL     H9   47  -0.549   0.143  -0.174
    1UNL    H10   48  -0.800   0.145  -0.112
    1UNL    H11   49  -0.667  -0.050  -0.107
    1UNL    H12   50  -0.864  -0.100  -0.004
    1UNL    H13   51  -0.680  -0.126   0.182
    1UNL    H14   52  -0.637  -0.310  -0.033
    1UNL    H15   53  -0.436  -0.197   0.175
    1UNL    H16   54  -0.358  -0.238  -0.057
    1UNL    H17   55  -0.205   0.082  -0.274
    1UNL    H18   56   0.041  -0.092  -0.448
    1UNL    H19   57  -0.023  -0.085   0.039
    1UNL    H20   58   0.191   0.066  -0.103
    1UNL    H21   59   0.193   0.119   0.065
    1UNL    H22   60   0.233  -0.171  -0.016
    1UNL    H23   61   0.123  -0.133   0.206
    1UNL    H24   62   0.265  -0.092   0.390
    1UNL    H25   63   0.275   0.037   0.277
    1UNL    H26   64   0.488  -0.193   0.292
    1UNL    H27   65   0.505  -0.024   0.335
    1UNL    H28   66   0.695  -0.005   0.184
    1UNL    H29   67   0.727   0.169  -0.227
    1UNL    H30   68   0.754   0.243  -0.062
    1UNL    H31   69   0.896   0.194  -0.168
    1UNL    H32   70   0.596  -0.036  -0.449
    1UNL    H33   71   0.464   0.011  -0.363
    1UNL    H34   72   0.519  -0.154  -0.336
    1UNL    H35   73   0.364  -0.073  -0.174
   0.00000   0.00000   0.00000   0.00000   0.00000   0.00000   0.00000   0.00000   0.00000
Generated with MDTraj, t= 91.0
 73
    1UNL     C1    1   0.029   0.157   0.310
    1UNL     C2    2  -0.054   0.102   0.225
    1UNL     C3    3  -0.061   0.127   0.078
    1UNL     C4    4  -0.203   0.104   0.026
    1UNL     O1    5  -0.259  -0.029   0.050
    1UNL     C5    6  -0.398  -0.030   0.031
    1UNL     O2    7  -0.471   0.072   0.101
    1UNL     C6    8  -0.602   0.094   0.046
    1UNL     C7    9  -0.596   0.216  -0.050
    1UNL     O3   10  -0.720   0.244  -0.105
    1UNL     C8   11  -0.665  -0.037  -0.012
    1UNL     O4   12  -0.812  -0.038   0.003
    1UNL     C9   13  -0.617  -0.150   0.085
    1UNL     O5   14  -0.683  -0.268   0.063
    1UNL    C10   15  -0.464  -0.170   0.060
    1UNL     O6   16  -0.445  -0.263  -0.045
    1UNL     O7   17  -0.222   0.155  -0.105
    1UNL    C11   18  -0.142   0.083  -0.188
    1UNL    C12   19  -0.034   0.010  -0.163
    1UNL    C13   20   0.024  -0.073  -0.266
    1UNL     O8   21   0.125  -0.146  -0.248
    1UNL     O9   22  -0.044  -0.073  -0.384
    1UNL    C14   23   0.018   0.024  -0.016
    1UNL    C15   24   0.167   0.042   0.002
    1UNL    C16   25   0.232  -0.089   0.043
    1UNL     N1   26   0.207  -0.128   0.184
    1UNL    C17   27   0.291  -0.071   0.283
    1UNL    C18   28   0.438  -0.107   0.262
    1UNL    C19   29   0.468  -0.063   0.120
    1UNL    C20   30   0.596  -0.007   0.097
    1UNL    C21   31   0.633   0.030  -0.029
    1UNL    O10   32   0.758   0.093  -0.016
    1UNL    C22   33   0.814   0.163  -0.130
    1UNL    C23   34   0.548  -0.001  -0.134
    1UNL    O11   35   0.609   0.008  -0.262
    1UNL    C24   36   0.549  -0.086  -0.351
    1UNL    C25   37   0.418  -0.032  -0.115
    1UNL    C26   38   0.375  -0.077   0.017
    1UNL     H1   39   0.030   0.145   0.420
    1UNL     H2   40   0.103   0.217   0.274
    1UNL     H3   41  -0.123   0.028   0.261
    1UNL     H4   42  -0.023   0.232   0.058
    1UNL     H5   43  -0.273   0.162   0.082
    1UNL     H6   44  -0.416  -0.012  -0.078
    1UNL     H7   45  -0.660   0.133   0.136
    1UNL     H8   46  -0.555   0.299   0.004
    1UNL     H9   47  -0.527   0.195  -0.136
    1UNL    H10   48  -0.762   0.158  -0.118
    1UNL    H11   49  -0.634  -0.058  -0.111
    1UNL    H12   50  -0.830  -0.134   0.003
    1UNL    H13   51  -0.639  -0.111   0.191
    1UNL    H14   52  -0.647  -0.314  -0.017
    1UNL    H15   53  -0.404  -0.217   0.145
    1UNL    H16   54  -0.358  -0.246  -0.093
    1UNL    H17   55  -0.194   0.070  -0.284
    1UNL    H18   56   0.005  -0.130  -0.450
    1UNL    H19   57  -0.012  -0.068   0.029
    1UNL    H20   58   0.216   0.084  -0.093
    1UNL    H21   59   0.192   0.118   0.076
    1UNL    H22   60   0.192  -0.165  -0.021
    1UNL    H23   61   0.101  -0.120   0.201
    1UNL    H24   62   0.250  -0.123   0.376
    1UNL    H25   63   0.271   0.039   0.304
    1UNL    H26   64   0.433  -0.213   0.254
    1UNL    H27   65   0.514  -0.081   0.345
    1UNL    H28   66   0.671   0.000   0.180
    1UNL    H29   67   0.829   0.090  -0.210
    1UNL    H30   68   0.746   0.249  -0.161
    1UNL    H31   69   0.907   0.199  -0.094
    1UNL    H32   70   0.616  -0.095  -0.432
    1UNL    H33   71   0.465  -0.041  -0.399
    1UNL    H34   72   0.523  -0.184  -0.303
    1UNL    H35   73   0.348  -0.042  -0.198
   0.00000   0.00000   0.00000   0.00000   0.00000   0.00000   0.00000   0.00000   0.00000
Generated with MDTraj, t= 92.0
 73
    1UNL     C1    1   0.031   0.178   0.289
    1UNL     C2    2  -0.054   0.114   0.216
    1UNL     C3    3  -0.064   0.128   0.069
    1UNL     C4    4  -0.207   0.118   0.029
    1UNL     O1    5  -0.260  -0.015   0.060
    1UNL     C5    6  -0.393  -0.017   0.035
    1UNL     O2    7  -0.469   0.076   0.114
    1UNL     C6    8  -0.598   0.097   0.054
    1UNL     C7    9  -0.607   0.214  -0.044
    1UNL     O3   10  -0.742   0.236  -0.089
    1UNL     C8   11  -0.660  -0.033  -0.000
    1UNL     O4   12  -0.806  -0.041   0.017
    1UNL     C9   13  -0.605  -0.152   0.078
    1UNL     O5   14  -0.668  -0.269   0.038
    1UNL    C10   15  -0.453  -0.162   0.046
    1UNL     O6   16  -0.427  -0.230  -0.072
    1UNL     O7   17  -0.229   0.156  -0.104
    1UNL    C11   18  -0.166   0.072  -0.189
    1UNL    C12   19  -0.047   0.007  -0.161
    1UNL    C13   20   0.021  -0.081  -0.259
    1UNL     O8   21   0.126  -0.134  -0.222
    1UNL     O9   22  -0.022  -0.101  -0.386
    1UNL    C14   23   0.004   0.010  -0.006
    1UNL    C15   24   0.158   0.028  -0.010
    1UNL    C16   25   0.229  -0.104   0.030
    1UNL     N1   26   0.203  -0.157   0.173
    1UNL    C17   27   0.265  -0.093   0.289
    1UNL    C18   28   0.419  -0.081   0.274
    1UNL    C19   29   0.467  -0.061   0.131
    1UNL    C20   30   0.596  -0.019   0.108
    1UNL    C21   31   0.641   0.026  -0.016
    1UNL    O10   32   0.757   0.095  -0.033
    1UNL    C22   33   0.800   0.138  -0.168
    1UNL    C23   34   0.555  -0.008  -0.127
    1UNL    O11   35   0.593   0.041  -0.253
    1UNL    C24   36   0.599  -0.063  -0.355
    1UNL    C25   37   0.432  -0.064  -0.101
    1UNL    C26   38   0.381  -0.077   0.023
    1UNL     H1   39   0.028   0.162   0.394
    1UNL     H2   40   0.099   0.252   0.246
    1UNL     H3   41  -0.118   0.039   0.260
    1UNL     H4   42  -0.024   0.229   0.037
    1UNL     H5   43  -0.265   0.184   0.091
    1UNL     H6   44  -0.406   0.016  -0.069
    1UNL     H7   45  -0.665   0.124   0.140
    1UNL     H8   46  -0.581   0.310   0.003
    1UNL     H9   47  -0.541   0.201  -0.135
    1UNL    H10   48  -0.791   0.152  -0.061
    1UNL    H11   49  -0.644  -0.041  -0.106
    1UNL    H12   50  -0.827  -0.136   0.035
    1UNL    H13   51  -0.617  -0.139   0.190
    1UNL    H14   52  -0.621  -0.307  -0.040
    1UNL    H15   53  -0.397  -0.226   0.124
    1UNL    H16   54  -0.347  -0.190  -0.119
    1UNL    H17   55  -0.207   0.052  -0.291
    1UNL    H18   56   0.039  -0.169  -0.430
    1UNL    H19   57  -0.027  -0.087   0.027
    1UNL    H20   58   0.183   0.062  -0.119
    1UNL    H21   59   0.190   0.121   0.039
    1UNL    H22   60   0.201  -0.180  -0.042
    1UNL    H23   61   0.098  -0.181   0.183
    1UNL    H24   62   0.234  -0.131   0.393
    1UNL    H25   63   0.227   0.012   0.291
    1UNL    H26   64   0.470  -0.167   0.311
    1UNL    H27   65   0.451   0.010   0.335
    1UNL    H28   66   0.662  -0.014   0.187
    1UNL    H29   67   0.781   0.053  -0.232
    1UNL    H30   68   0.745   0.231  -0.204
    1UNL    H31   69   0.904   0.154  -0.164
    1UNL    H32   70   0.632  -0.015  -0.446
    1UNL    H33   71   0.495  -0.095  -0.378
    1UNL    H34   72   0.666  -0.149  -0.322
    1UNL    H35   73   0.354  -0.063  -0.172
   0.00000   0.00000   0.00000   0.00000   0.00000   0.00000   0.00000   0.00000   0.00000
Generated with MDTraj, t= 93.0
 73
    1UNL     C1    1   0.038   0.227   0.254
    1UNL     C2    2  -0.050   0.133   0.222
    1UNL     C3    3  -0.071   0.120   0.069
    1UNL     C4    4  -0.218   0.119   0.031
    1UNL     O1    5  -0.272  -0.010   0.069
    1UNL     C5    6  -0.404  -0.009   0.047
    1UNL     O2    7  -0.489   0.084   0.123
    1UNL     C6    8  -0.624   0.100   0.066
    1UNL     C7    9  -0.639   0.212  -0.034
    1UNL     O3   10  -0.778   0.221  -0.078
    1UNL     C8   11  -0.681  -0.031   0.004
    1UNL     O4   12  -0.821  -0.040   0.025
    1UNL     C9   13  -0.614  -0.159   0.060
    1UNL     O5   14  -0.667  -0.273  -0.006
    1UNL    C10   15  -0.456  -0.153   0.047
    1UNL     O6   16  -0.422  -0.205  -0.081
    1UNL     O7   17  -0.235   0.143  -0.109
    1UNL    C11   18  -0.148   0.066  -0.183
    1UNL    C12   19  -0.038  -0.012  -0.146
    1UNL    C13   20   0.037  -0.093  -0.240
    1UNL     O8   21   0.148  -0.144  -0.220
    1UNL     O9   22  -0.026  -0.091  -0.361
    1UNL    C14   23   0.005   0.001   0.005
    1UNL    C15   24   0.157   0.016   0.021
    1UNL    C16   25   0.243  -0.110   0.031
    1UNL     N1   26   0.231  -0.185   0.160
    1UNL    C17   27   0.267  -0.111   0.275
    1UNL    C18   28   0.415  -0.071   0.263
    1UNL    C19   29   0.463  -0.031   0.128
    1UNL    C20   30   0.593   0.009   0.102
    1UNL    C21   31   0.647   0.025  -0.029
    1UNL    O10   32   0.789   0.047  -0.036
    1UNL    C22   33   0.830   0.136  -0.135
    1UNL    C23   34   0.566  -0.001  -0.141
    1UNL    O11   35   0.605   0.036  -0.267
    1UNL    C24   36   0.598  -0.073  -0.354
    1UNL    C25   37   0.435  -0.048  -0.116
    1UNL    C26   38   0.388  -0.065   0.010
    1UNL     H1   39   0.059   0.246   0.354
    1UNL     H2   40   0.090   0.293   0.176
    1UNL     H3   41  -0.121   0.082   0.287
    1UNL     H4   42  -0.039   0.222   0.035
    1UNL     H5   43  -0.259   0.196   0.099
    1UNL     H6   44  -0.420   0.038  -0.049
    1UNL     H7   45  -0.683   0.119   0.156
    1UNL     H8   46  -0.613   0.313   0.003
    1UNL     H9   47  -0.585   0.190  -0.131
    1UNL    H10   48  -0.830   0.159  -0.027
    1UNL    H11   49  -0.676  -0.026  -0.106
    1UNL    H12   50  -0.846  -0.135   0.023
    1UNL    H13   51  -0.644  -0.171   0.167
    1UNL    H14   52  -0.600  -0.308  -0.070
    1UNL    H15   53  -0.404  -0.212   0.131
    1UNL    H16   54  -0.343  -0.157  -0.114
    1UNL    H17   55  -0.171   0.066  -0.289
    1UNL    H18   56   0.030  -0.142  -0.426
    1UNL    H19   57  -0.036  -0.089   0.045
    1UNL    H20   58   0.199   0.085  -0.063
    1UNL    H21   59   0.175   0.087   0.103
    1UNL    H22   60   0.229  -0.187  -0.047
    1UNL    H23   61   0.139  -0.238   0.176
    1UNL    H24   62   0.251  -0.178   0.371
    1UNL    H25   63   0.205  -0.023   0.293
    1UNL    H26   64   0.477  -0.153   0.295
    1UNL    H27   65   0.438   0.022   0.325
    1UNL    H28   66   0.672   0.009   0.179
    1UNL    H29   67   0.895   0.071  -0.193
    1UNL    H30   68   0.749   0.187  -0.196
    1UNL    H31   69   0.891   0.205  -0.085
    1UNL    H32   70   0.578  -0.028  -0.453
    1UNL    H33   71   0.503  -0.131  -0.332
    1UNL    H34   72   0.695  -0.133  -0.349
    1UNL    H35   73   0.376  -0.062  -0.207
   0.00000   0.00000   0.00000   0.00000   0.00000   0.00000   0.00000   0.00000   0.00000
Generated with MDTraj, t= 94.0
 73
    1UNL     C1    1   0.022   0.256   0.255
    1UNL     C2    2  -0.045   0.155   0.207
    1UNL     C3    3  -0.077   0.142   0.060
    1UNL     C4    4  -0.221   0.120   0.025
    1UNL     O1    5  -0.288   0.004   0.081
    1UNL     C5    6  -0.419  -0.006   0.042
    1UNL     O2    7  -0.513   0.071   0.124
    1UNL     C6    8  -0.649   0.084   0.067
    1UNL     C7    9  -0.669   0.227   0.005
    1UNL     O3   10  -0.796   0.240  -0.056
    1UNL     C8   11  -0.694  -0.041  -0.012
    1UNL     O4   12  -0.830  -0.056  -0.003
    1UNL     C9   13  -0.622  -0.168   0.046
    1UNL     O5   14  -0.678  -0.287  -0.006
    1UNL    C10   15  -0.467  -0.154   0.038
    1UNL     O6   16  -0.433  -0.216  -0.086
    1UNL     O7   17  -0.239   0.131  -0.114
    1UNL    C11   18  -0.150   0.043  -0.175
    1UNL    C12   19  -0.036  -0.006  -0.136
    1UNL    C13   20   0.034  -0.077  -0.238
    1UNL     O8   21   0.138  -0.141  -0.221
    1UNL     O9   22  -0.037  -0.084  -0.350
    1UNL    C14   23   0.010   0.024   0.005
    1UNL    C15   24   0.163   0.043   0.014
    1UNL    C16   25   0.254  -0.077   0.031
    1UNL     N1   26   0.231  -0.156   0.148
    1UNL    C17   27   0.299  -0.124   0.278
    1UNL    C18   28   0.446  -0.073   0.264
    1UNL    C19   29   0.485  -0.060   0.123
    1UNL    C20   30   0.619  -0.029   0.097
    1UNL    C21   31   0.671   0.005  -0.027
    1UNL    O10   32   0.805   0.054  -0.029
    1UNL    C22   33   0.828   0.149  -0.126
    1UNL    C23   34   0.593  -0.010  -0.139
    1UNL    O11   35   0.641   0.002  -0.269
    1UNL    C24   36   0.590  -0.098  -0.355
    1UNL    C25   37   0.456  -0.040  -0.117
    1UNL    C26   38   0.405  -0.055   0.011
    1UNL     H1   39   0.047   0.261   0.359
    1UNL     H2   40   0.043   0.341   0.198
    1UNL     H3   41  -0.075   0.073   0.268
    1UNL     H4   42  -0.056   0.236   0.003
    1UNL     H5   43  -0.279   0.207   0.071
    1UNL     H6   44  -0.430   0.032  -0.056
    1UNL     H7   45  -0.701   0.083   0.161
    1UNL     H8   46  -0.664   0.302   0.087
    1UNL     H9   47  -0.594   0.248  -0.078
    1UNL    H10   48  -0.858   0.175  -0.010
    1UNL    H11   49  -0.659  -0.033  -0.119
    1UNL    H12   50  -0.852  -0.151   0.013
    1UNL    H13   51  -0.645  -0.173   0.153
    1UNL    H14   52  -0.605  -0.333  -0.054
    1UNL    H15   53  -0.415  -0.213   0.120
    1UNL    H16   54  -0.349  -0.184  -0.119
    1UNL    H17   55  -0.183   0.018  -0.272
    1UNL    H18   56   0.003  -0.149  -0.407
    1UNL    H19   57  -0.015  -0.065   0.057
    1UNL    H20   58   0.210   0.097  -0.076
    1UNL    H21   59   0.191   0.116   0.094
    1UNL    H22   60   0.229  -0.150  -0.047
    1UNL    H23   61   0.128  -0.183   0.163
    1UNL    H24   62   0.307  -0.227   0.338
    1UNL    H25   63   0.232  -0.066   0.343
    1UNL    H26   64   0.518  -0.144   0.307
    1UNL    H27   65   0.460   0.027   0.315
    1UNL    H28   66   0.676  -0.053   0.184
    1UNL    H29   67   0.870   0.090  -0.206
    1UNL    H30   68   0.745   0.216  -0.157
    1UNL    H31   69   0.907   0.210  -0.089
    1UNL    H32   70   0.630  -0.078  -0.457
    1UNL    H33   71   0.476  -0.089  -0.366
    1UNL    H34   72   0.630  -0.198  -0.320
    1UNL    H35   73   0.387  -0.045  -0.201
   0.00000   0.00000   0.00000   0.00000   0.00000   0.00000   0.00000   0.00000   0.00000
Generated with MDTraj, t= 95.0
 73
    1UNL     C1    1  -0.011   0.250   0.272
    1UNL     C2    2  -0.053   0.146   0.205
    1UNL     C3    3  -0.077   0.141   0.060
    1UNL     C4    4  -0.225   0.128   0.021
    1UNL     O1    5  -0.278   0.005   0.076
    1UNL     C5    6  -0.414  -0.011   0.051
    1UNL     O2    7  -0.496   0.075   0.134
    1UNL     C6    8  -0.629   0.082   0.075
    1UNL     C7    9  -0.667   0.210   0.000
    1UNL     O3   10  -0.813   0.218  -0.014
    1UNL     C8   11  -0.668  -0.040  -0.010
    1UNL     O4   12  -0.805  -0.049  -0.024
    1UNL     C9   13  -0.616  -0.174   0.051
    1UNL     O5   14  -0.673  -0.279  -0.027
    1UNL    C10   15  -0.465  -0.161   0.047
    1UNL     O6   16  -0.436  -0.210  -0.078
    1UNL     O7   17  -0.255   0.139  -0.118
    1UNL    C11   18  -0.166   0.070  -0.196
    1UNL    C12   19  -0.049   0.006  -0.150
    1UNL    C13   20   0.029  -0.073  -0.239
    1UNL     O8   21   0.145  -0.105  -0.216
    1UNL     O9   22  -0.025  -0.104  -0.364
    1UNL    C14   23   0.003   0.014  -0.003
    1UNL    C15   24   0.163   0.028   0.006
    1UNL    C16   25   0.252  -0.091   0.036
    1UNL     N1   26   0.222  -0.147   0.172
    1UNL    C17   27   0.294  -0.071   0.272
    1UNL    C18   28   0.440  -0.090   0.258
    1UNL    C19   29   0.483  -0.049   0.122
    1UNL    C20   30   0.621  -0.014   0.097
    1UNL    C21   31   0.671   0.003  -0.026
    1UNL    O10   32   0.808   0.019  -0.058
    1UNL    C22   33   0.836   0.137  -0.129
    1UNL    C23   34   0.579  -0.017  -0.134
    1UNL    O11   35   0.647  -0.013  -0.255
    1UNL    C24   36   0.603  -0.101  -0.356
    1UNL    C25   37   0.446  -0.031  -0.106
    1UNL    C26   38   0.396  -0.055   0.019
    1UNL     H1   39  -0.008   0.261   0.387
    1UNL     H2   40   0.004   0.341   0.223
    1UNL     H3   41  -0.074   0.055   0.263
    1UNL     H4   42  -0.038   0.227   0.004
    1UNL     H5   43  -0.287   0.208   0.076
    1UNL     H6   44  -0.431   0.018  -0.048
    1UNL     H7   45  -0.697   0.083   0.157
    1UNL     H8   46  -0.646   0.303   0.056
    1UNL     H9   47  -0.621   0.206  -0.102
    1UNL    H10   48  -0.851   0.131  -0.031
    1UNL    H11   49  -0.617  -0.025  -0.111
    1UNL    H12   50  -0.832  -0.144  -0.030
    1UNL    H13   51  -0.656  -0.175   0.152
    1UNL    H14   52  -0.608  -0.305  -0.096
    1UNL    H15   53  -0.408  -0.223   0.122
    1UNL    H16   54  -0.342  -0.197  -0.096
    1UNL    H17   55  -0.176   0.077  -0.302
    1UNL    H18   56   0.032  -0.162  -0.412
    1UNL    H19   57  -0.024  -0.067   0.058
    1UNL    H20   58   0.206   0.094  -0.076
    1UNL    H21   59   0.187   0.092   0.096
    1UNL    H22   60   0.220  -0.167  -0.039
    1UNL    H23   61   0.120  -0.146   0.195
    1UNL    H24   62   0.247  -0.091   0.381
    1UNL    H25   63   0.277   0.034   0.254
    1UNL    H26   64   0.462  -0.197   0.270
    1UNL    H27   65   0.491  -0.029   0.336
    1UNL    H28   66   0.687  -0.005   0.182
    1UNL    H29   67   0.756   0.149  -0.203
    1UNL    H30   68   0.840   0.226  -0.062
    1UNL    H31   69   0.925   0.137  -0.190
    1UNL    H32   70   0.686  -0.175  -0.360
    1UNL    H33   71   0.607  -0.043  -0.452
    1UNL    H34   72   0.512  -0.156  -0.328
    1UNL    H35   73   0.377  -0.022  -0.185
   0.00000   0.00000   0.00000   0.00000   0.00000   0.00000   0.00000   0.00000   0.00000
Generated with MDTraj, t= 96.0
 73
    1UNL     C1    1  -0.049   0.236   0.302
    1UNL     C2    2  -0.055   0.130   0.221
    1UNL     C3    3  -0.069   0.141   0.071
    1UNL     C4    4  -0.211   0.119   0.025
    1UNL     O1    5  -0.259  -0.006   0.060
    1UNL     C5    6  -0.400  -0.016   0.033
    1UNL     O2    7  -0.482   0.078   0.113
    1UNL     C6    8  -0.621   0.081   0.071
    1UNL     C7    9  -0.658   0.220   0.027
    1UNL     O3   10  -0.797   0.237  -0.000
    1UNL     C8   11  -0.665  -0.042  -0.020
    1UNL     O4   12  -0.803  -0.057   0.002
    1UNL     C9   13  -0.604  -0.179   0.040
    1UNL     O5   14  -0.645  -0.295  -0.034
    1UNL    C10   15  -0.448  -0.164   0.041
    1UNL     O6   16  -0.398  -0.235  -0.070
    1UNL     O7   17  -0.226   0.136  -0.116
    1UNL    C11   18  -0.140   0.071  -0.197
    1UNL    C12   19  -0.027   0.006  -0.159
    1UNL    C13   20   0.039  -0.068  -0.263
    1UNL     O8   21   0.155  -0.099  -0.254
    1UNL     O9   22  -0.029  -0.105  -0.375
    1UNL    C14   23   0.015   0.037  -0.011
    1UNL    C15   24   0.166   0.061   0.005
    1UNL    C16   25   0.234  -0.066   0.044
    1UNL     N1   26   0.196  -0.106   0.180
    1UNL    C17   27   0.272  -0.039   0.287
    1UNL    C18   28   0.423  -0.057   0.271
    1UNL    C19   29   0.473  -0.064   0.126
    1UNL    C20   30   0.609  -0.039   0.099
    1UNL    C21   31   0.651  -0.015  -0.030
    1UNL    O10   32   0.783   0.009  -0.037
    1UNL    C22   33   0.831   0.091  -0.143
    1UNL    C23   34   0.557  -0.017  -0.132
    1UNL    O11   35   0.589   0.008  -0.269
    1UNL    C24   36   0.589  -0.108  -0.356
    1UNL    C25   37   0.427  -0.034  -0.102
    1UNL    C26   38   0.378  -0.054   0.025
    1UNL     H1   39  -0.035   0.236   0.406
    1UNL     H2   40  -0.043   0.336   0.270
    1UNL     H3   41  -0.062   0.032   0.259
    1UNL     H4   42  -0.036   0.238   0.036
    1UNL     H5   43  -0.279   0.193   0.080
    1UNL     H6   44  -0.423   0.014  -0.066
    1UNL     H7   45  -0.682   0.059   0.155
    1UNL     H8   46  -0.631   0.285   0.111
    1UNL     H9   47  -0.618   0.248  -0.073
    1UNL    H10   48  -0.833   0.153  -0.044
    1UNL    H11   49  -0.638  -0.045  -0.132
    1UNL    H12   50  -0.834  -0.147  -0.020
    1UNL    H13   51  -0.647  -0.188   0.137
    1UNL    H14   52  -0.575  -0.324  -0.097
    1UNL    H15   53  -0.402  -0.210   0.131
    1UNL    H16   54  -0.301  -0.217  -0.082
    1UNL    H17   55  -0.176   0.054  -0.302
    1UNL    H18   56   0.033  -0.134  -0.446
    1UNL    H19   57  -0.003  -0.046   0.051
    1UNL    H20   58   0.203   0.088  -0.096
    1UNL    H21   59   0.200   0.149   0.072
    1UNL    H22   60   0.192  -0.141  -0.031
    1UNL    H23   61   0.094  -0.113   0.196
    1UNL    H24   62   0.239  -0.089   0.390
    1UNL    H25   63   0.233   0.064   0.293
    1UNL    H26   64   0.463  -0.141   0.334
    1UNL    H27   65   0.467   0.034   0.314
    1UNL    H28   66   0.694  -0.034   0.172
    1UNL    H29   67   0.743   0.127  -0.200
    1UNL    H30   68   0.872   0.184  -0.099
    1UNL    H31   69   0.897   0.049  -0.219
    1UNL    H32   70   0.588  -0.200  -0.299
    1UNL    H33   71   0.684  -0.100  -0.410
    1UNL    H34   72   0.501  -0.114  -0.415
    1UNL    H35   73   0.364  -0.040  -0.193
   0.00000   0.00000   0.00000   0.00000   0.00000   0.00000   0.00000   0.00000   0.00000
Generated with MDTraj, t= 97.0
 73
    1UNL     C1    1  -0.071   0.232   0.297
    1UNL     C2    2  -0.074   0.130   0.213
    1UNL     C3    3  -0.085   0.137   0.065
    1UNL     C4    4  -0.231   0.125   0.010
    1UNL     O1    5  -0.262  -0.013   0.017
    1UNL     C5    6  -0.403  -0.031   0.021
    1UNL     O2    7  -0.463   0.060   0.112
    1UNL     C6    8  -0.607   0.069   0.086
    1UNL     C7    9  -0.638   0.210   0.024
    1UNL     O3   10  -0.773   0.227  -0.007
    1UNL     C8   11  -0.661  -0.049   0.000
    1UNL     O4   12  -0.797  -0.067   0.014
    1UNL     C9   13  -0.602  -0.188   0.037
    1UNL     O5   14  -0.636  -0.296  -0.044
    1UNL    C10   15  -0.447  -0.173   0.040
    1UNL     O6   16  -0.380  -0.245  -0.061
    1UNL     O7   17  -0.237   0.184  -0.125
    1UNL    C11   18  -0.154   0.108  -0.208
    1UNL    C12   19  -0.048   0.039  -0.169
    1UNL    C13   20   0.028  -0.043  -0.262
    1UNL     O8   21   0.139  -0.080  -0.222
    1UNL     O9   22  -0.018  -0.080  -0.381
    1UNL    C14   23  -0.002   0.035  -0.019
    1UNL    C15   24   0.151   0.061   0.005
    1UNL    C16   25   0.233  -0.066   0.057
    1UNL     N1   26   0.198  -0.097   0.198
    1UNL    C17   27   0.287  -0.035   0.307
    1UNL    C18   28   0.438  -0.055   0.282
    1UNL    C19   29   0.477  -0.043   0.138
    1UNL    C20   30   0.604  -0.016   0.107
    1UNL    C21   31   0.657  -0.013  -0.028
    1UNL    O10   32   0.794   0.003  -0.042
    1UNL    C22   33   0.838   0.061  -0.160
    1UNL    C23   34   0.565  -0.035  -0.131
    1UNL    O11   35   0.601  -0.022  -0.274
    1UNL    C24   36   0.546  -0.117  -0.362
    1UNL    C25   37   0.432  -0.055  -0.094
    1UNL    C26   38   0.384  -0.060   0.035
    1UNL     H1   39  -0.051   0.208   0.398
    1UNL     H2   40  -0.065   0.344   0.268
    1UNL     H3   41  -0.069   0.027   0.253
    1UNL     H4   42  -0.051   0.234   0.026
    1UNL     H5   43  -0.304   0.182   0.070
    1UNL     H6   44  -0.445   0.001  -0.075
    1UNL     H7   45  -0.658   0.059   0.179
    1UNL     H8   46  -0.619   0.290   0.093
    1UNL     H9   47  -0.581   0.221  -0.068
    1UNL    H10   48  -0.810   0.140   0.018
    1UNL    H11   49  -0.643  -0.024  -0.110
    1UNL    H12   50  -0.837  -0.145  -0.032
    1UNL    H13   51  -0.636  -0.204   0.138
    1UNL    H14   52  -0.573  -0.305  -0.119
    1UNL    H15   53  -0.408  -0.206   0.136
    1UNL    H16   54  -0.289  -0.202  -0.076
    1UNL    H17   55  -0.180   0.131  -0.313
    1UNL    H18   56   0.058  -0.127  -0.428
    1UNL    H19   57  -0.022  -0.061   0.019
    1UNL    H20   58   0.193   0.106  -0.087
    1UNL    H21   59   0.162   0.138   0.091
    1UNL    H22   60   0.206  -0.156  -0.008
    1UNL    H23   61   0.099  -0.089   0.215
    1UNL    H24   62   0.248  -0.093   0.399
    1UNL    H25   63   0.263   0.073   0.323
    1UNL    H26   64   0.467  -0.159   0.318
    1UNL    H27   65   0.499   0.013   0.341
    1UNL    H28   66   0.665   0.004   0.187
    1UNL    H29   67   0.850   0.169  -0.136
    1UNL    H30   68   0.942   0.032  -0.180
    1UNL    H31   69   0.769   0.055  -0.250
    1UNL    H32   70   0.499  -0.194  -0.305
    1UNL    H33   71   0.620  -0.162  -0.426
    1UNL    H34   72   0.465  -0.076  -0.409
    1UNL    H35   73   0.356  -0.074  -0.164
   0.00000   0.00000   0.00000   0.00000   0.00000   0.00000   0.00000   0.00000   0.00000
Generated with MDTraj, t= 98.0
 73
    1UNL     C1    1  -0.068   0.236   0.305
    1UNL     C2    2  -0.080   0.137   0.219
    1UNL     C3    3  -0.088   0.147   0.066
    1UNL     C4    4  -0.230   0.117   0.009
    1UNL     O1    5  -0.255  -0.015   0.032
    1UNL     C5    6  -0.397  -0.029   0.035
    1UNL     O2    7  -0.472   0.061   0.120
    1UNL     C6    8  -0.611   0.066   0.083
    1UNL     C7    9  -0.646   0.196   0.008
    1UNL     O3   10  -0.785   0.191  -0.010
    1UNL     C8   11  -0.666  -0.056   0.003
    1UNL     O4   12  -0.803  -0.081   0.017
    1UNL     C9   13  -0.603  -0.189   0.043
    1UNL     O5   14  -0.660  -0.287  -0.045
    1UNL    C10   15  -0.445  -0.175   0.034
    1UNL     O6   16  -0.394  -0.240  -0.087
    1UNL     O7   17  -0.241   0.161  -0.126
    1UNL    C11   18  -0.137   0.103  -0.197
    1UNL    C12   19  -0.023   0.041  -0.155
    1UNL    C13   20   0.055  -0.023  -0.261
    1UNL     O8   21   0.146  -0.096  -0.226
    1UNL     O9   22   0.010  -0.014  -0.385
    1UNL    C14   23   0.012   0.053  -0.009
    1UNL    C15   24   0.161   0.087   0.021
    1UNL    C16   25   0.236  -0.047   0.052
    1UNL     N1   26   0.209  -0.085   0.190
    1UNL    C17   27   0.279  -0.016   0.292
    1UNL    C18   28   0.424  -0.050   0.280
    1UNL    C19   29   0.477  -0.034   0.140
    1UNL    C20   30   0.615  -0.021   0.110
    1UNL    C21   31   0.661  -0.021  -0.023
    1UNL    O10   32   0.800  -0.012  -0.054
    1UNL    C22   33   0.826   0.039  -0.180
    1UNL    C23   34   0.568  -0.037  -0.132
    1UNL    O11   35   0.603  -0.075  -0.265
    1UNL    C24   36   0.502  -0.123  -0.350
    1UNL    C25   37   0.437  -0.044  -0.095
    1UNL    C26   38   0.387  -0.038   0.036
    1UNL     H1   39  -0.074   0.213   0.406
    1UNL     H2   40  -0.052   0.333   0.265
    1UNL     H3   41  -0.083   0.034   0.251
    1UNL     H4   42  -0.061   0.249   0.042
    1UNL     H5   43  -0.301   0.172   0.069
    1UNL     H6   44  -0.430   0.004  -0.066
    1UNL     H7   45  -0.666   0.065   0.177
    1UNL     H8   46  -0.626   0.281   0.071
    1UNL     H9   47  -0.598   0.209  -0.087
    1UNL    H10   48  -0.805   0.093  -0.020
    1UNL    H11   49  -0.632  -0.041  -0.103
    1UNL    H12   50  -0.834  -0.158  -0.037
    1UNL    H13   51  -0.625  -0.215   0.145
    1UNL    H14   52  -0.594  -0.330  -0.105
    1UNL    H15   53  -0.402  -0.229   0.114
    1UNL    H16   54  -0.305  -0.208  -0.106
    1UNL    H17   55  -0.150   0.120  -0.299
    1UNL    H18   56   0.065  -0.079  -0.440
    1UNL    H19   57  -0.003  -0.045   0.026
    1UNL    H20   58   0.207   0.146  -0.061
    1UNL    H21   59   0.160   0.147   0.120
    1UNL    H22   60   0.212  -0.141  -0.007
    1UNL    H23   61   0.113  -0.078   0.208
    1UNL    H24   62   0.237  -0.038   0.394
    1UNL    H25   63   0.255   0.093   0.270
    1UNL    H26   64   0.437  -0.161   0.300
    1UNL    H27   65   0.484   0.002   0.353
    1UNL    H28   66   0.695   0.003   0.188
    1UNL    H29   67   0.911   0.107  -0.184
    1UNL    H30   68   0.868  -0.046  -0.233
    1UNL    H31   69   0.739   0.086  -0.239
    1UNL    H32   70   0.430  -0.191  -0.307
    1UNL    H33   71   0.542  -0.166  -0.442
    1UNL    H34   72   0.453  -0.034  -0.363
    1UNL    H35   73   0.362  -0.033  -0.172
   0.00000   0.00000   0.00000   0.00000   0.00000   0.00000   0.00000   0.00000   0.00000
Generated with MDTraj, t= 99.0
 73
    1UNL     C1    1  -0.039   0.237   0.298
    1UNL     C2    2  -0.063   0.135   0.219
    1UNL     C3    3  -0.085   0.151   0.067
    1UNL     C4    4  -0.235   0.127   0.024
    1UNL     O1    5  -0.271   0.002   0.062
    1UNL     C5    6  -0.407  -0.017   0.019
    1UNL     O2    7  -0.505   0.042   0.112
    1UNL     C6    8  -0.637   0.054   0.069
    1UNL     C7    9  -0.655   0.196   0.012
    1UNL     O3   10  -0.798   0.213  -0.015
    1UNL     C8   11  -0.684  -0.072  -0.016
    1UNL     O4   12  -0.816  -0.110   0.006
    1UNL     C9   13  -0.600  -0.194   0.038
    1UNL     O5   14  -0.647  -0.324   0.002
    1UNL    C10   15  -0.450  -0.168   0.006
    1UNL     O6   16  -0.408  -0.217  -0.120
    1UNL     O7   17  -0.243   0.145  -0.118
    1UNL    C11   18  -0.144   0.094  -0.193
    1UNL    C12   19  -0.024   0.035  -0.151
    1UNL    C13   20   0.072  -0.002  -0.254
    1UNL     O8   21   0.169  -0.064  -0.219
    1UNL     O9   22   0.048   0.038  -0.379
    1UNL    C14   23   0.008   0.042  -0.005
    1UNL    C15   24   0.163   0.074   0.023
    1UNL    C16   25   0.236  -0.053   0.076
    1UNL     N1   26   0.216  -0.065   0.226
    1UNL    C17   27   0.297   0.001   0.330
    1UNL    C18   28   0.445   0.001   0.273
    1UNL    C19   29   0.479  -0.034   0.130
    1UNL    C20   30   0.611  -0.024   0.084
    1UNL    C21   31   0.653  -0.043  -0.044
    1UNL    O10   32   0.793  -0.037  -0.051
    1UNL    C22   33   0.848   0.006  -0.170
    1UNL    C23   34   0.556  -0.064  -0.148
    1UNL    O11   35   0.603  -0.072  -0.279
    1UNL    C24   36   0.503  -0.120  -0.369
    1UNL    C25   37   0.425  -0.059  -0.103
    1UNL    C26   38   0.386  -0.051   0.035
    1UNL     H1   39  -0.025   0.221   0.412
    1UNL     H2   40  -0.032   0.329   0.248
    1UNL     H3   41  -0.086   0.036   0.258
    1UNL     H4   42  -0.058   0.254   0.050
    1UNL     H5   43  -0.304   0.189   0.076
    1UNL     H6   44  -0.415   0.035  -0.082
    1UNL     H7   45  -0.700   0.053   0.160
    1UNL     H8   46  -0.616   0.272   0.079
    1UNL     H9   47  -0.606   0.213  -0.082
    1UNL    H10   48  -0.845   0.129  -0.003
    1UNL    H11   49  -0.662  -0.057  -0.122
    1UNL    H12   50  -0.829  -0.200  -0.030
    1UNL    H13   51  -0.615  -0.192   0.147
    1UNL    H14   52  -0.583  -0.381  -0.046
    1UNL    H15   53  -0.395  -0.218   0.080
    1UNL    H16   54  -0.328  -0.168  -0.138
    1UNL    H17   55  -0.148   0.101  -0.302
    1UNL    H18   56   0.119   0.000  -0.436
    1UNL    H19   57  -0.030  -0.049   0.034
    1UNL    H20   58   0.212   0.106  -0.073
    1UNL    H21   59   0.167   0.157   0.100
    1UNL    H22   60   0.189  -0.140   0.027
    1UNL    H23   61   0.126  -0.029   0.239
    1UNL    H24   62   0.279  -0.064   0.417
    1UNL    H25   63   0.259   0.108   0.351
    1UNL    H26   64   0.497  -0.080   0.332
    1UNL    H27   65   0.494   0.095   0.294
    1UNL    H28   66   0.682   0.003   0.155
    1UNL    H29   67   0.953   0.022  -0.173
    1UNL    H30   68   0.831  -0.075  -0.237
    1UNL    H31   69   0.789   0.090  -0.218
    1UNL    H32   70   0.459  -0.219  -0.346
    1UNL    H33   71   0.543  -0.123  -0.473
    1UNL    H34   72   0.424  -0.049  -0.365
    1UNL    H35   73   0.344  -0.086  -0.173
   0.00000   0.00000   0.00000   0.00000   0.00000   0.00000   0.00000   0.00000   0.00000
