[ moleculetype ]
; name        nrexcl
res           1

[ atoms ]
;    nr  type  resnr resid  atom  cgnr     charge       mass
      1 TC5       1 res   C1        1      0.000     36.000
      2 TC3       1 res   C2        2      0.000     36.000
      3 TN4a      1 res   C3        3      0.000     36.000
      4 SP4       1 res   C4        4      0.000     54.000
      5 TN4a      1 res   C5        5      0.000     36.000
      6 TP1       1 res   C6        6      0.000     36.000
      7 SP4       1 res   C7        7      0.000     54.000
      8 TC5       1 res   C8        8      0.000     36.000
      9 SP2       1 res   C9        9      0.000     54.000
     10 TC4       1 res   C10      10      0.000     36.000
     11 SN6d      1 res   C11      11      0.000     54.000
     12 TC5       1 res   C12      12      0.000     36.000
     13 TC5       1 res   C13      13      0.000     36.000
     14 TN2a      1 res   C14      14      0.000     36.000
     15 TC5       1 res   C15      15      0.000     36.000
     16 TN2a      1 res   C16      16      0.000     36.000

[ constraints ]
;  ai    aj   funct      b0(nm)
    4     5     1      0.30895
    5     7     1      0.27162
   10    12     1      0.25365
   12    15     1      0.22115
    2    10     1      0.24006
    5     6     1      0.22272
    4     7     1      0.29911
    1     2     1      0.26633
    2     3     1      0.23331
   11    12     1      0.23518
    3     8     1      0.26368
   13    15     1      0.30141
   12    13     1      0.22147
    2     8     1      0.26400
    8     9     1      0.25377

[ bonds ]
;  ai    aj   funct      b0(nm)          k(kJ/mol/nm^2)
   13    14     1      0.30996           7954.2
   15    16     1      0.24241          15878.4
   10    11     1      0.31448          16417.1
    3     4     1      0.32202          11491.7

[ angles ]
;  ai    aj    ak  funct     th0(deg)        k(kJ/mol/rad^2)
    1     2     3     1     87.91412           216.10
    1     2     8     1    148.40076           176.01
    1     2    10     1    106.04871           146.57
    2     3     4     1     99.17405           368.21
    2     3     8     1     63.80931          2413.85
    2     8     3     1     52.46040          3789.60
    2     8     9     1    101.66131           831.21
    2    10    11     1    113.10803           249.17
    2    10    12     1    159.26959           259.47
    3     2     8     1     63.73041          1737.87
    3     2    10     1    164.73583           310.58
    3     4     5     1     69.20115           362.39
    3     4     7     1    119.65402           372.77
    3     8     9     1    151.57813           514.93
    4     3     8     1     86.30548           171.94
    4     5     6     1    111.96953           201.09
    4     5     7     1     61.62729          2095.49
    4     7     5     1     65.32575          3130.25
    5     4     7     1     53.04666          1871.46
    6     5     7     1     96.00557           628.59
    8     2    10     1    102.28522           624.83
   10    11    12     1     52.53235          2212.28
   10    12    11     1     80.00100           682.47
   10    12    13     1    154.34618           294.82
   10    12    15     1     79.49307           493.85
   11    10    12     1     47.46568          1161.68
   11    12    13     1    116.46193          1247.94
   11    12    15     1    156.37162           726.57
   12    13    14     1    127.32295           141.48
   12    13    15     1     47.03443          8670.36
   12    15    13     1     47.12353          7582.07
   12    15    16     1    156.67291            86.17
   13    12    15     1     85.84206          4369.08
   13    15    16     1    115.08074           169.73
   14    13    15     1     82.00543           130.23

[ dihedrals ]
;  ai    aj    ak    al  funct   phi0(deg)        k(kJ/mol)   mult
    1     2     3     4     1     86.14108       21.583      1
    1     2     3     8     1      6.40656       17.659      1
    1     2     8     3     1   -169.84649       26.636      1
    1     2     8     9     1     20.47543       27.988      1
    1     2    10    11     1   -173.72346       26.522      1
    1     2    10    12     1    176.57672       26.885      1
    2     3     4     5     1    -16.05875       16.430      1
    2     3     4     7     1      3.44045       17.621      1
    2     3     8     9     1   -157.40752       22.274      1
    2     8     3     4     1     77.84604        9.274      1
    2    10    11    12     1      6.88359       12.931      1
    2    10    12    11     1   -167.95976       24.616      1
    2    10    12    13     1     52.17966       28.665      1
    2    10    12    15     1      2.16619       23.373      1
    3     2     8     9     1     11.11522       12.966      1
    3     2    10    11     1      4.39621       28.882      1
    3     2    10    12     1     -2.99765       29.242      1
    3     4     5     6     1    -98.57036       15.721      1
    3     4     5     7     1    -14.85958       18.383      1
    3     4     7     5     1    163.59331       19.008      1
    3     8     2    10     1      6.24929       10.739      1
    4     3     2     8     1    -97.09980       11.545      1
    4     3     2    10     1    -94.45226       26.642      1
    4     3     8     9     1     99.90844       22.202      1
    4     7     5     6     1    -66.91866       12.929      1
    5     4     3     8     1     47.51294       16.409      1
    6     5     4     7     1     95.82319        9.324      1
    7     4     3     8     1     65.75883       18.334      1
    8     2    10    11     1     13.03776       21.059      1
    8     2    10    12     1      3.23624       22.032      1
    8     3     2    10     1   -174.89363       26.160      1
    9     8     2    10     1   -163.94008       17.771      1
   10    11    12    13     1    -16.95566       14.360      1
   10    11    12    15     1    154.26613       23.760      1
   10    12    13    14     1    136.27636       27.042      1
   10    12    13    15     1    134.82339       22.358      1
   10    12    15    13     1    -18.56184       14.270      1
   10    12    15    16     1    -18.24359       28.016      1
   11    10    12    13     1     36.42342       19.288      1
   11    10    12    15     1    -11.54562       12.773      1
   11    12    13    14     1      4.97608       27.156      1
   11    12    13    15     1     -2.72726       14.930      1
   11    12    15    13     1      6.87275       24.468      1
   11    12    15    16     1      6.32483       32.286      1
   12    13    15    16     1     -3.04440       25.034      1
   12    15    13    14     1      2.74405       20.977      1
   13    12    15    16     1   -179.25273       28.526      1
   14    13    12    15     1   -172.86567       24.092      1
   14    13    15    16     1   -179.73559       30.301      1
