[ moleculetype ]
; name        nrexcl
res           1

[ atoms ]
;    nr  type  resnr resid  atom  cgnr     charge       mass
      1 TC5       1 res   C1        1      0.000     36.000
      2 TN6a      1 res   C2        2      0.000     36.000
      3 TN2a      1 res   C3        3      0.000     36.000
      4 TN6a      1 res   C4        4      0.000     36.000
      5 TC5       1 res   C5        5      0.000     36.000

[ constraints ]
;  ai    aj   funct      b0(nm)
    1     2     1      0.27318
    2     3     1      0.16617
    1     5     1      0.29259
    4     5     1      0.27315
    3     4     1      0.16619
    2     4     1      0.18029

[ bonds ]
;  ai    aj   funct      b0(nm)          k(kJ/mol/nm^2)

[ angles ]
;  ai    aj    ak  funct     th0(deg)        k(kJ/mol/rad^2)
    1     2     3     1    158.46894          3494.87
    1     2     4     1    101.66559          3511.43
    1     5     4     1     78.01335          8571.23
    2     1     5     1     78.03347          7439.96
    2     3     4     1     65.69382         10548.51
    2     4     3     1     57.14663          6681.49
    2     4     5     1    101.71066          3731.86
    3     2     4     1     57.15955          6487.01
    3     4     5     1    158.49920          3653.40

[ dihedrals ]
;  ai    aj    ak    al  funct   phi0(deg)        k(kJ/mol)   mult
    1     2     3     4     1   -179.21801       18.483      1
    1     2     4     3     1     -0.14867        7.830      1
    1     2     4     5     1   -179.99172       10.788      1
    1     5     4     2     1    179.99571        9.377      1
    1     5     4     3     1   -177.25870       21.138      1
    2     1     5     4     1   -179.99593        6.357      1
    2     3     4     5     1   -179.08616       18.525      1
    3     2     1     5     1    177.77117       20.349      1
    3     2     4     5     1     -0.00805        7.845      1
    4     2     1     5     1    179.99539        9.378      1
