[ moleculetype ]
; name        nrexcl
res           1

[ atoms ]
;    nr  type resnr resid  atom  cgnr     charge       mass
      1 TC3       1 res   C1        1      0.000     36.000
      2 TN6d      1 res   C2        2      0.000     36.000
      3 SC4       1 res   C3        3      0.000     54.000
      4 SN3r      1 res   C4        4      0.000     54.000
      5 SC3       1 res   C5        5      0.000     54.000
      6 TN3r      1 res   C6        6      0.000     36.000
      7 TC5       1 res   C7        7      0.000     36.000
      8 TC5       1 res   C8        8      0.000     36.000
      9 SC3       1 res   C9        9      0.000     54.000
     10 SN6       1 res   C10      10      0.000     54.000
     11 SN6       1 res   C11      11      0.000     54.000
     12 SN4a      1 res   C12      12      0.000     54.000
     13 TC5       1 res   C13      13      0.000     36.000
     14 TC5       1 res   C14      14      0.000     36.000
     15 TC5       1 res   C15      15      0.000     36.000

[ bonds ]
;  ai    aj   funct      b0(nm)        k
    1     2     1      0.29666    20000
    2     3     1      0.28505    20000
    2     7     1      0.28703    20000
    3     4     1      0.38445    20000
    3     5     1      0.34927    20000
    3     7     1      0.27078    20000
    3    11     1      0.28866    20000
    5     6     1      0.31448    20000
    5     7     1      0.33802    20000
    7     8     1      0.27435    20000
    7    11     1      0.28837    20000
    8     9     1      0.22200    20000
    8    11     1      0.28673    20000
    9    10     1      0.29442    20000
    9    12     1      0.36665    20000
   10    11     1      0.32784    20000
   12    13     1      0.24731    20000
   13    14     1      0.25813    20000
   13    15     1      0.30205    20000
   14    15     1      0.29070    20000
