1TPCN01367
10
    1res  C1    1    0.468   0.039  -0.097
    1res  C2    2    0.560   0.067   0.168
    1res  C3    3    0.253   0.049   0.080
    1res  C4    4    0.041   0.108   0.011
    1res  C5    5   -0.158   0.193   0.120
    1res  C6    6   -0.350   0.017   0.165
    1res  C7    7   -0.094  -0.249   0.001
    1res  C8    8   -0.054  -0.340  -0.236
    1res  C9    9    0.108  -0.196  -0.139
    1res  C10   10   -0.291   0.112  -0.141
  10.00000  10.00000  10.00000
