[ moleculetype ]
; name        nrexcl
res           1

[ atoms ]
;    nr  type  resnr resid  atom  cgnr     charge       mass
      1 SC4       1 res   C1        1      0.000     54.000
      2 TC5       1 res   C2        2      0.000     36.000
      3 TC5       1 res   C3        3      0.000     36.000

[ constraints ]
;  ai    aj   funct      b0(nm)
    1     2     1      0.37551
    1     3     1      0.31281
    2     3     1      0.28776

[ bonds ]
;  ai    aj   funct      b0(nm)          k(kJ/mol/nm^2)

[ angles ]
;  ai    aj    ak  funct     th0(deg)        k(kJ/mol/rad^2)
    1     2     3     1     54.35122          9935.81
    1     3     2     1     77.27646         11883.52
    2     1     3     1     48.37232         14952.62

[ dihedrals ]
;  ai    aj    ak    al  funct   phi0(deg)        k(kJ/mol)   mult
