1TPCN05322
38
    1res  C1    1    1.748   0.137   0.231
    1res  C2    2    1.539   0.070   0.033
    1res  C3    3    1.368  -0.021   0.072
    1res  C4    4    1.157  -0.068  -0.065
    1res  C5    5    1.068  -0.098   0.221
    1res  C6    6    0.858  -0.096   0.192
    1res  C7    7    0.657  -0.030   0.152
    1res  C8    8    0.472  -0.203   0.088
    1res  C9    9    0.253  -0.068   0.176
    1res  C10   10    0.163  -0.150  -0.078
    1res  C11   11    0.267  -0.356  -0.149
    1res  C12   12    0.089   0.062  -0.095
    1res  C13   13   -0.215   0.145   0.036
    1res  C14   14   -0.309  -0.076  -0.062
    1res  C15   15   -0.469  -0.074  -0.331
    1res  C16   16   -0.525  -0.226  -0.097
    1res  C17   17   -0.669   0.120  -0.037
    1res  C18   18   -0.798  -0.194  -0.240
    1res  C19   19   -1.018  -0.037  -0.147
    1res  C20   20   -1.279  -0.006  -0.226
    1res  C21   21   -1.186  -0.256  -0.071
    1res  C22   22   -1.096  -0.058   0.176
    1res  C23   23   -1.184   0.225   0.251
    1res  C24   24   -1.418   0.209   0.226
    1res  C25   25   -1.275   0.325   0.460
    1res  C26   26   -1.034   0.398   0.398
    1res  C27   27   -0.935   0.216   0.329
    1res  C28   28   -0.822  -0.264   0.057
    1res  C29   29   -0.134   0.078  -0.306
    1res  C30   30    0.253   0.159   0.029
    1res  C31   31    0.622  -0.354   0.012
    1res  C32   32    0.677  -0.176  -0.162
    1res  C33   33    0.727   0.038  -0.062
    1res  C34   34    1.146   0.153   0.238
    1res  C35   35    1.347  -0.007   0.295
    1res  C36   36    1.475   0.238  -0.129
    1res  C37   37    1.726   0.186  -0.185
    1res  C38   38    1.744   0.305   0.051
  10.00000  10.00000  10.00000
